Protein in INSANE! Membrane UpperLeaflet>POPC=1.0 LowerLeaflet>POPC=1.0
241418
    1AU     AUC    1  10.029  33.243   7.513
    1AU     AUC    2  10.298  33.259   7.332
    1AU     AUC    3  10.307  33.241   7.682
    1AU     AUC    4   9.741  33.234   7.344
    1AU     AUC    5   9.773  33.272   7.704
    1AU     AUC    6   9.849  33.517   7.518
    1AU     AUC    7  10.216  33.524   7.503
    1AU     AUC    8   9.842  32.970   7.517
    1AU     AUC    9  10.192  32.954   7.510
    1AU     AUC   10  10.035  33.074   7.794
    1AU     AUC   11  10.031  33.419   7.787
    1AU     AUC   12  10.020  33.076   7.233
    1AU     AUC   13  10.037  33.397   7.235
    1AU     AUC   14  10.608  33.264   7.156
    1AU     AUC   15  10.636  33.215   7.515
    1AU     AUC   16  10.594  33.219   7.849
    1AU     AUC   17   9.438  33.223   7.170
    1AU     AUC   18   9.421  33.266   7.533
    1AU     AUC   19   9.477  33.290   7.897
    1AU     AUC   20   9.672  33.821   7.505
    1AU     AUC   21  10.027  33.847   7.477
    1AU     AUC   22  10.398  33.810   7.490
    1AU     AUC   23   9.639  32.689   7.522
    1AU     AUC   24  10.000  32.643   7.500
    1AU     AUC   25  10.355  32.652   7.496
    1AU     AUC   26  10.025  32.904   8.085
    1AU     AUC   27  10.071  33.273   8.127
    1AU     AUC   28  10.055  33.607   8.069
    1AU     AUC   29  10.046  32.901   6.954
    1AU     AUC   30  10.028  33.239   6.897
    1AU     AUC   31  10.013  33.565   6.933
    1AU     AUC   32  10.320  33.057   8.005
    1AU     AUC   33  10.357  33.426   7.989
    1AU     AUC   34  10.350  33.109   6.997
    1AU     AUC   35  10.338  33.429   7.034
    1AU     AUC   36   9.732  33.096   8.028
    1AU     AUC   37   9.756  33.455   8.012
    1AU     AUC   38   9.722  33.046   7.050
    1AU     AUC   39   9.699  33.372   7.007
    1AU     AUC   40  10.556  33.527   7.352
    1AU     AUC   41  10.532  33.535   7.684
    1AU     AUC   42   9.542  33.534   7.332
    1AU     AUC   43   9.542  33.576   7.704
    1AU     AUC   44  10.494  32.942   7.330
    1AU     AUC   45  10.472  32.892   7.695
    1AU     AUC   46   9.509  32.924   7.358
    1AU     AUC   47   9.568  32.978   7.716
    1AU     AUC   48   9.846  33.769   7.792
    1AU     AUC   49  10.213  33.727   7.761
    1AU     AUC   50   9.821  32.775   7.811
    1AU     AUC   51  10.166  32.733   7.792
    1AU     AUC   52   9.847  33.676   7.202
    1AU     AUC   53  10.227  33.724   7.207
    1AU     AUC   54   9.835  32.763   7.218
    1AU     AUC   55  10.226  32.788   7.208
    1AU    AUSL   56  10.612  33.195   8.192
    1AU    AUSL   57  10.310  32.749   8.183
    1AU     AUL   58  10.640  32.780   8.328
    1AU       S   59  10.623  32.343   8.186
    1AU     LIG   60  10.516  32.264   8.560
    1AU     LIG   61  10.696  31.962   8.841
    1AU     LIG   62  10.894  31.571   8.993
    1AU     LIG   63  11.105  31.284   9.300
    1AU     LIG   64  11.016  31.038   9.709
    1AU       S   65  10.881  33.162   8.253
    1AU     LIG   66  10.948  33.132   8.698
    1AU     LIG   67  10.881  32.975   9.155
    1AU     LIG   68  11.044  32.862   9.604
    1AU     LIG   69  11.432  32.791   9.893
    1AU     LIG   70  11.812  32.715  10.185
    1AU    AUSL   71  10.235  33.103   8.400
    1AU    AUSL   72   9.935  33.430   8.420
    1AU     AUL   73  10.153  33.393   8.738
    1AU       S   74  10.455  33.070   8.618
    1AU     LIG   75  10.224  32.786   8.876
    1AU     LIG   76  10.384  32.581   9.298
    1AU     LIG   77  10.577  32.394   9.725
    1AU     LIG   78  10.677  32.271  10.196
    1AU     LIG   79  10.741  32.356  10.672
    1AU       S   80   9.777  33.146   8.680
    1AU     LIG   81   9.808  33.010   9.126
    1AU     LIG   82   9.500  33.051   9.468
    1AU     LIG   83   9.294  33.086   9.885
    1AU     LIG   84   9.203  33.228  10.322
    1AU     LIG   85   9.185  33.568  10.656
    1AU    AUSL   86  10.336  33.523   8.337
    1AU    AUSL   87  10.682  33.598   8.057
    1AU     AUL   88  10.638  33.487   8.462
    1AU       S   89  10.211  33.815   8.481
    1AU     LIG   90  10.484  33.786   8.863
    1AU     LIG   91  10.572  33.867   9.358
    1AU     LIG   92  10.605  34.024   9.842
    1AU     LIG   93  10.678  34.119  10.322
    1AU     LIG   94  10.715  34.078  10.799
    1AU       S   95  10.738  33.872   8.232
    1AU     LIG   96  11.123  33.591   8.293
    1AU     LIG   97  11.470  33.710   8.568
    1AU     LIG   98  11.749  33.911   8.890
    1AU     LIG   99  11.950  34.059   9.280
    1AU     LIG  100  12.290  34.229   9.561
    1AU    AUSL  101  10.552  33.387   6.765
    1AU    AUSL  102  10.330  33.703   6.974
    1AU     AUL  103  10.471  33.759   6.628
    1AU       S  104  10.509  33.434   6.310
    1AU     LIG  105  10.886  33.269   6.129
    1AU     LIG  106  10.939  32.964   5.801
    1AU     LIG  107  10.971  32.809   5.373
    1AU     LIG  108  11.170  32.776   4.951
    1AU     LIG  109  11.563  32.728   4.681
    1AU       S  110  10.800  33.967   6.894
    1AU     LIG  111  10.865  34.124   6.490
    1AU     LIG  112  11.074  34.235   6.077
    1AU     LIG  113  11.305  34.342   5.674
    1AU     LIG  114  11.535  34.604   5.354
    1AU     LIG  115  11.420  34.957   5.041
    1AU    AUSL  116  10.324  33.057   6.607
    1AU    AUSL  117  10.703  33.021   6.926
    1AU     AUL  118  10.736  33.145   6.610
    1AU       S  119  10.881  32.710   6.705
    1AU     LIG  120  10.987  32.302   6.444
    1AU     LIG  121  11.214  31.923   6.272
    1AU     LIG  122  11.453  31.627   5.980
    1AU     LIG  123  11.828  31.576   5.681
    1AU     LIG  124  12.256  31.616   5.452
    1AU       S  125  10.413  33.287   6.299
    1AU     LIG  126  10.497  32.900   6.097
    1AU     LIG  127  10.546  32.650   5.674
    1AU     LIG  128  10.614  32.473   5.229
    1AU     LIG  129  10.715  32.576   4.779
    1AU     LIG  130  10.822  32.423   4.337
    1AU    AUSL  131  10.129  33.439   6.697
    1AU    AUSL  132   9.916  33.037   6.745
    1AU     AUL  133  10.054  33.056   6.448
    1AU       S  134   9.617  33.071   6.306
    1AU     LIG  135   9.717  32.881   5.929
    1AU     LIG  136   9.468  32.616   5.635
    1AU     LIG  137   9.263  32.597   5.220
    1AU     LIG  138   9.073  32.480   4.806
    1AU     LIG  139   9.105  32.429   4.329
    1AU       S  140  10.176  33.501   6.356
    1AU     LIG  141  10.246  33.319   5.850
    1AU     LIG  142  10.540  33.134   5.483
    1AU     LIG  143  10.721  33.095   5.027
    1AU     LIG  144  10.728  33.354   4.625
    1AU     LIG  145  10.738  33.763   4.376
    1AU    AUSL  146   9.535  33.347   8.291
    1AU    AUSL  147   9.795  33.697   8.128
    1AU     AUL  148   9.679  33.648   8.485
    1AU       S  149   9.606  33.267   8.747
    1AU     LIG  150   9.317  32.989   8.927
    1AU     LIG  151   9.045  32.877   9.292
    1AU     LIG  152   8.843  32.891   9.714
    1AU     LIG  153   8.524  32.870  10.060
    1AU     LIG  154   8.097  32.993  10.248
    1AU       S  155   9.352  33.919   8.260
    1AU     LIG  156   9.434  34.111   8.654
    1AU     LIG  157   9.329  34.333   9.062
    1AU     LIG  158   9.050  34.495   9.407
    1AU     LIG  159   8.952  34.674   9.844
    1AU     LIG  160   8.806  34.876  10.251
    1AU    AUSL  161   9.852  33.060   8.211
    1AU    AUSL  162   9.383  32.991   8.113
    1AU     AUL  163   9.411  33.049   8.392
    1AU       S  164   9.215  32.628   8.250
    1AU     LIG  165   8.796  32.567   8.147
    1AU     LIG  166   8.494  32.247   8.283
    1AU     LIG  167   8.333  32.024   8.660
    1AU     LIG  168   8.112  31.725   8.938
    1AU     LIG  169   7.738  31.639   9.204
    1AU       S  170   9.830  32.978   8.585
    1AU     LIG  171   9.675  32.638   8.795
    1AU     LIG  172   9.485  32.590   9.227
    1AU     LIG  173   9.290  32.610   9.669
    1AU     LIG  174   9.095  32.652  10.105
    1AU     LIG  175   9.047  32.507  10.553
    1AU    AUSL  176   9.489  33.095   6.783
    1AU    AUSL  177   9.701  32.740   6.956
    1AU     AUL  178   9.737  32.747   6.627
    1AU       S  179   9.440  32.994   6.373
    1AU     LIG  180   9.204  32.910   5.989
    1AU     LIG  181   8.988  32.856   5.578
    1AU     LIG  182   8.780  32.806   5.161
    1AU     LIG  183   8.363  32.826   4.924
    1AU     LIG  184   8.004  33.013   4.675
    1AU       S  185   9.338  32.586   6.792
    1AU     LIG  186   9.278  32.140   6.687
    1AU     LIG  187   8.907  31.924   6.475
    1AU     LIG  188   8.643  31.713   6.129
    1AU     LIG  189   8.683  31.519   5.679
    1AU     LIG  190   8.718  31.413   5.202
    1AU    AUSL  191   9.718  33.415   6.612
    1AU    AUSL  192   9.368  33.494   6.921
    1AU     AUL  193   9.281  33.330   6.633
    1AU       S  194   9.392  33.766   6.690
    1AU     LIG  195   8.997  33.800   6.598
    1AU     LIG  196   8.836  34.033   6.220
    1AU     LIG  197   8.648  34.279   5.850
    1AU     LIG  198   8.244  34.363   5.573
    1AU     LIG  199   7.828  34.512   5.354
    1AU       S  200   9.674  33.349   6.365
    1AU     LIG  201   9.467  33.362   5.937
    1AU     LIG  202   9.426  33.119   5.530
    1AU     LIG  203   9.259  33.100   5.080
    1AU     LIG  204   9.243  33.341   4.654
    1AU     LIG  205   9.113  33.600   4.261
    1AU    AUSL  206  10.808  33.693   7.516
    1AU    AUSL  207  10.721  33.557   7.112
    1AU     AUL  208  11.066  33.831   7.311
    1AU       S  209  10.820  33.730   6.948
    1AU     LIG  210  10.971  33.610   6.552
    1AU     LIG  211  11.311  33.836   6.332
    1AU     LIG  212  11.585  34.126   6.071
    1AU     LIG  213  11.820  34.261   5.670
    1AU     LIG  214  12.199  34.380   5.411
    1AU       S  215  11.274  33.535   7.633
    1AU     LIG  216  11.672  33.772   7.573
    1AU     LIG  217  12.164  33.821   7.504
    1AU     LIG  218  12.635  33.936   7.550
    1AU     LIG  219  12.964  34.297   7.474
    1AU     LIG  220  13.086  34.765   7.533
    1AU    AUSL  221  10.981  33.312   7.341
    1AU    AUSL  222  10.946  32.964   7.669
    1AU     AUL  223  11.272  32.982   7.485
    1AU       S  224  11.156  33.401   7.414
    1AU     LIG  225  11.610  33.336   7.313
    1AU     LIG  226  12.071  33.340   7.337
    1AU     LIG  227  12.526  33.488   7.293
    1AU     LIG  228  12.982  33.668   7.270
    1AU     LIG  229  13.406  33.777   7.071
    1AU       S  230  11.151  32.548   7.642
    1AU     LIG  231  11.606  32.575   7.658
    1AU     LIG  232  11.996  32.320   7.661
    1AU     LIG  233  12.457  32.231   7.674
    1AU     LIG  234  12.911  32.231   7.796
    1AU     LIG  235  13.352  32.404   7.772
    1AU    AUSL  236  10.774  33.338   7.744
    1AU    AUSL  237  10.596  33.942   7.783
    1AU     AUL  238  10.913  33.751   7.822
    1AU       S  239  10.796  34.134   8.074
    1AU     LIG  240  11.212  34.079   8.251
    1AU     LIG  241  11.460  34.246   8.595
    1AU     LIG  242  11.507  34.684   8.748
    1AU     LIG  243  11.676  35.091   8.867
    1AU     LIG  244  11.868  35.500   8.933
    1AU       S  245  11.141  33.352   7.819
    1AU     LIG  246  11.563  33.473   8.027
    1AU     LIG  247  11.990  33.500   7.859
    1AU     LIG  248  12.454  33.496   7.822
    1AU     LIG  249  12.899  33.519   7.948
    1AU     LIG  250  13.361  33.595   7.952
    1AU    AUSL  251   9.337  33.792   7.548
    1AU    AUSL  252   9.421  33.565   7.945
    1AU     AUL  253   9.094  33.877   7.810
    1AU       S  254   9.267  33.702   8.199
    1AU     LIG  255   9.186  33.648   8.650
    1AU     LIG  256   8.971  33.991   8.916
    1AU     LIG  257   8.654  34.253   9.170
    1AU     LIG  258   8.256  34.309   9.453
    1AU     LIG  259   7.820  34.334   9.672
    1AU       S  260   9.305  34.157   7.481
    1AU     LIG  261   8.835  34.069   7.392
    1AU     LIG  262   8.392  34.325   7.373
    1AU     LIG  263   8.068  34.723   7.417
    1AU     LIG  264   7.701  35.080   7.470
    1AU     LIG  265   7.221  35.076   7.568
    1AU    AUSL  266   9.313  33.423   7.327
    1AU    AUSL  267   9.456  33.863   7.149
    1AU     AUL  268   9.152  33.727   7.172
    1AU       S  269   8.952  33.295   6.988
    1AU     LIG  270   8.673  33.695   7.030
    1AU     LIG  271   8.278  33.986   6.979
    1AU     LIG  272   7.871  34.186   6.789
    1AU     LIG  273   7.407  34.253   6.893
    1AU     LIG  274   7.031  34.365   6.641
    1AU       S  275   9.254  34.136   6.941
    1AU     LIG  276   9.222  34.263   6.493
    1AU     LIG  277   8.975  34.543   6.188
    1AU     LIG  278   8.749  34.958   6.087
    1AU     LIG  279   8.489  35.363   6.001
    1AU     LIG  280   8.271  35.651   5.691
    1AU    AUSL  281   9.094  33.438   7.719
    1AU    AUSL  282   9.065  33.096   7.397
    1AU     AUL  283   8.919  33.430   7.439
    1AU       S  284   8.781  32.988   7.595
    1AU     LIG  285   8.382  32.755   7.470
    1AU     LIG  286   7.948  32.785   7.565
    1AU     LIG  287   7.580  32.911   7.318
    1AU     LIG  288   7.135  32.813   7.257
    1AU     LIG  289   6.931  32.388   7.164
    1AU       S  290   8.972  33.385   7.945
    1AU     LIG  291   8.595  33.606   7.786
    1AU     LIG  292   8.135  33.735   7.843
    1AU     LIG  293   7.765  33.986   8.052
    1AU     LIG  294   7.371  34.215   8.212
    1AU     LIG  295   6.896  34.245   8.128
    1AU    AUSL  296  10.681  32.653   7.536
    1AU    AUSL  297  10.574  32.921   7.880
    1AU     AUL  298  10.886  32.811   7.912
    1AU       S  299  10.856  32.464   7.528
    1AU     LIG  300  11.214  32.069   7.512
    1AU     LIG  301  11.686  31.979   7.437
    1AU     LIG  302  12.161  31.829   7.472
    1AU     LIG  303  12.455  31.434   7.503
    1AU     LIG  304  12.861  31.313   7.294
    1AU       S  305  10.792  32.386   8.034
    1AU     LIG  306  11.025  32.162   8.394
    1AU     LIG  307  11.196  31.896   8.717
    1AU     LIG  308  11.415  31.598   8.991
    1AU     LIG  309  11.813  31.487   9.197
    1AU     LIG  310  12.215  31.596   9.423
    1AU    AUSL  311  10.671  33.035   7.341
    1AU    AUSL  312  10.638  32.632   7.117
    1AU     AUL  313  10.915  32.862   7.182
    1AU       S  314  11.108  32.531   7.408
    1AU     LIG  315  11.486  32.419   7.188
    1AU     LIG  316  11.950  32.314   7.142
    1AU     LIG  317  12.407  32.179   7.168
    1AU     LIG  318  12.864  32.143   7.093
    1AU     LIG  319  13.256  32.365   7.041
    1AU       S  320  10.837  32.520   6.868
    1AU     LIG  321  10.761  32.086   6.881
    1AU     LIG  322  10.981  31.707   6.694
    1AU     LIG  323  11.197  31.413   6.388
    1AU     LIG  324  11.429  31.096   6.127
    1AU     LIG  325  11.654  30.665   6.170
    1AU    AUSL  326   9.243  32.732   7.561
    1AU    AUSL  327   9.390  32.959   7.166
    1AU     AUL  328   9.031  32.830   7.234
    1AU       S  329   9.222  32.715   6.836
    1AU     LIG  330   8.845  32.414   6.777
    1AU     LIG  331   8.473  32.206   6.556
    1AU     LIG  332   8.195  31.976   6.246
    1AU     LIG  333   7.814  31.740   6.071
    1AU     LIG  334   7.522  31.558   5.757
    1AU       S  335   8.850  32.685   7.647
    1AU     LIG  336   8.539  32.356   7.756
    1AU     LIG  337   8.079  32.290   7.683
    1AU     LIG  338   7.720  32.055   7.473
    1AU     LIG  339   7.296  31.898   7.331
    1AU     LIG  340   7.017  31.496   7.392
    1AU    AUSL  341   9.362  33.124   7.716
    1AU    AUSL  342   9.564  32.733   7.831
    1AU     AUL  343   9.165  32.918   7.893
    1AU       S  344   9.279  32.494   8.013
    1AU     LIG  345   9.035  32.200   7.846
    1AU     LIG  346   8.742  31.883   8.021
    1AU     LIG  347   8.440  31.649   8.326
    1AU     LIG  348   8.219  31.324   8.614
    1AU     LIG  349   7.984  30.895   8.685
    1AU       S  350   8.748  33.007   7.737
    1AU     LIG  351   8.263  33.184   7.740
    1AU     LIG  352   7.736  33.194   7.758
    1AU     LIG  353   7.293  32.952   7.745
    1AU     LIG  354   7.000  32.573   7.711
    1AU     LIG  355   6.787  32.334   8.059
    1AU    AUSL  356  10.003  34.047   7.998
    1AU    AUSL  357   9.584  33.951   7.857
    1AU     AUL  358   9.805  34.036   8.245
    1AU       S  359   9.454  34.145   7.961
    1AU     LIG  360   9.205  34.393   8.275
    1AU     LIG  361   8.997  34.480   8.695
    1AU     LIG  362   8.779  34.830   8.939
    1AU     LIG  363   8.525  35.256   8.941
    1AU     LIG  364   8.158  35.574   8.949
    1AU       S  365   9.992  34.402   7.996
    1AU     LIG  366  10.289  34.471   8.338
    1AU     LIG  367  10.475  34.898   8.494
    1AU     LIG  368  10.482  35.343   8.696
    1AU     LIG  369  10.477  35.678   9.029
    1AU     LIG  370  10.377  35.817   9.470
    1AU    AUSL  371   9.825  34.184   7.609
    1AU    AUSL  372  10.183  34.154   7.236
    1AU     AUL  373   9.843  34.393   7.355
    1AU       S  374  10.033  34.475   7.775
    1AU     LIG  375  10.142  34.878   8.046
    1AU     LIG  376  10.221  35.305   8.248
    1AU     LIG  377  10.013  35.736   8.359
    1AU     LIG  378   9.644  36.083   8.300
    1AU     LIG  379   9.445  36.533   8.294
    1AU       S  380  10.141  34.466   7.006
    1AU     LIG  381  10.564  34.579   7.016
    1AU     LIG  382  10.755  34.998   6.911
    1AU     LIG  383  10.816  35.378   6.649
    1AU     LIG  384  10.771  35.795   6.474
    1AU     LIG  385  10.769  36.232   6.311
    1AU    AUSL  386  10.212  33.984   7.622
    1AU    AUSL  387  10.276  33.732   7.990
    1AU     AUL  388  10.337  34.088   8.003
    1AU       S  389  10.628  33.984   8.342
    1AU     LIG  390  10.961  33.890   8.676
    1AU     LIG  391  11.258  33.999   9.000
    1AU     LIG  392  11.507  34.336   9.208
    1AU     LIG  393  11.537  34.589   9.618
    1AU     LIG  394  11.432  34.983   9.877
    1AU       S  395  10.266  34.369   7.648
    1AU     LIG  396  10.548  34.583   7.913
    1AU     LIG  397  10.632  35.039   8.030
    1AU     LIG  398  10.745  35.444   8.259
    1AU     LIG  399  10.874  35.812   8.501
    1AU     LIG  400  10.624  36.207   8.499
    1AU    AUSL  401   9.984  32.596   7.945
    1AU    AUSL  402  10.401  32.531   7.823
    1AU     AUL  403  10.174  32.458   8.208
    1AU       S  404  10.051  32.059   8.014
    1AU     LIG  405   9.749  31.972   8.343
    1AU     LIG  406   9.620  31.530   8.409
    1AU     LIG  407   9.673  31.063   8.489
    1AU     LIG  408   9.793  30.661   8.706
    1AU     LIG  409   9.744  30.441   9.129
    1AU       S  410  10.535  32.353   7.899
    1AU     LIG  411  10.539  31.890   8.047
    1AU     LIG  412  10.801  31.690   8.403
    1AU     LIG  413  11.145  31.403   8.577
    1AU     LIG  414  11.442  31.111   8.803
    1AU     LIG  415  11.685  30.698   8.747
    1AU    AUSL  416   9.678  32.366   7.683
    1AU    AUSL  417   9.697  32.677   8.242
    1AU     AUL  418   9.719  32.389   8.034
    1AU       S  419   9.821  31.976   7.844
    1AU     LIG  420   9.429  31.823   7.964
    1AU     LIG  421   9.353  31.364   8.005
    1AU     LIG  422   9.487  30.919   8.033
    1AU     LIG  423   9.528  30.531   8.281
    1AU     LIG  424   9.553  30.075   8.350
    1AU       S  425   9.424  32.553   8.358
    1AU     LIG  426   9.210  32.122   8.344
    1AU     LIG  427   8.836  31.912   8.534
    1AU     LIG  428   8.612  31.613   8.833
    1AU     LIG  429   8.564  31.378   9.251
    1AU     LIG  430   8.648  31.171   9.687
    1AU    AUSL  431  10.102  32.317   7.628
    1AU    AUSL  432   9.862  32.528   7.327
    1AU     AUL  433   9.744  32.191   7.440
    1AU       S  434  10.100  32.100   7.178
    1AU     LIG  435   9.665  31.867   7.079
    1AU     LIG  436   9.508  31.456   6.958
    1AU     LIG  437   9.503  30.987   6.892
    1AU     LIG  438   9.530  30.525   6.795
    1AU     LIG  439   9.420  30.058   6.864
    1AU       S  440  10.121  32.100   7.750
    1AU     LIG  441  10.138  31.598   7.833
    1AU     LIG  442   9.914  31.229   8.051
    1AU     LIG  443   9.976  30.761   8.191
    1AU     LIG  444  10.056  30.277   8.223
    1AU     LIG  445  10.319  29.856   8.134
    1AU    AUSL  446  10.011  33.958   6.878
    1AU    AUSL  447  10.530  33.918   7.291
    1AU     AUL  448  10.352  34.070   6.942
    1AU       S  449   9.988  34.224   6.686
    1AU     LIG  450  10.409  34.417   6.557
    1AU     LIG  451  10.610  34.861   6.436
    1AU     LIG  452  10.615  35.277   6.182
    1AU     LIG  453  10.493  35.495   5.767
    1AU     LIG  454  10.414  35.866   5.482
    1AU       S  455  10.727  34.108   7.194
    1AU     LIG  456  11.119  34.321   6.947
    1AU     LIG  457  11.330  34.384   6.513
    1AU     LIG  458  11.476  34.778   6.265
    1AU     LIG  459  11.659  35.242   6.238
    1AU     LIG  460  12.024  35.538   6.100
    1AU    AUSL  461   9.843  33.908   7.300
    1AU    AUSL  462   9.773  33.631   6.965
    1AU     AUL  463   9.702  34.065   7.040
    1AU       S  464   9.946  34.429   6.895
    1AU     LIG  465  10.177  34.858   6.718
    1AU     LIG  466  10.300  35.312   6.625
    1AU     LIG  467  10.098  35.765   6.643
    1AU     LIG  468   9.742  36.119   6.695
    1AU     LIG  469   9.483  36.541   6.701
    1AU       S  470   9.561  33.869   6.652
    1AU     LIG  471   9.375  33.861   6.203
    1AU     LIG  472   9.208  34.183   5.887
    1AU     LIG  473   9.171  34.441   5.482
    1AU     LIG  474   9.153  34.763   5.131
    1AU     LIG  475   8.870  35.060   4.889
    1AU    AUSL  476  10.049  32.499   6.932
    1AU    AUSL  477   9.453  32.530   7.251
    1AU     AUL  478   9.720  32.367   6.995
    1AU       S  479   9.275  32.476   7.063
    1AU     LIG  480   9.062  32.129   7.164
    1AU     LIG  481   8.701  31.924   6.948
    1AU     LIG  482   8.446  31.695   6.618
    1AU     LIG  483   8.176  31.457   6.316
    1AU     LIG  484   7.845  31.126   6.208
    1AU       S  485  10.109  32.083   6.965
    1AU     LIG  486  10.023  31.651   6.789
    1AU     LIG  487   9.830  31.258   6.597
    1AU     LIG  488   9.727  30.837   6.403
    1AU     LIG  489   9.830  30.580   6.004
    1AU     LIG  490  10.045  30.410   5.602
    1AU    AUSL  491  10.290  32.513   7.311
    1AU    AUSL  492  10.295  32.836   6.956
    1AU     AUL  493  10.382  32.457   6.939
    1AU       S  494  10.334  32.123   7.266
    1AU     LIG  495  10.107  31.641   7.311
    1AU     LIG  496   9.956  31.227   7.100
    1AU     LIG  497   9.984  30.805   6.857
    1AU     LIG  498  10.012  30.327   6.758
    1AU     LIG  499  10.184  29.865   6.780
    1AU       S  500  10.605  32.673   6.605
    1AU     LIG  501  10.475  32.254   6.488
    1AU     LIG  502  10.690  31.878   6.308
    1AU     LIG  503  10.918  31.597   5.994
    1AU     LIG  504  11.142  31.353   5.660
    1AU     LIG  505  11.218  31.322   5.195
    2AU     AUC  506   6.511  24.731   7.510
    2AU     AUC  507   6.795  24.743   7.334
    2AU     AUC  508   6.771  24.722   7.682
    2AU     AUC  509   6.228  24.721   7.340
    2AU     AUC  510   6.241  24.759   7.692
    2AU     AUC  511   6.341  25.006   7.511
    2AU     AUC  512   6.706  25.009   7.503
    2AU     AUC  513   6.323  24.458   7.511
    2AU     AUC  514   6.674  24.440   7.504
    2AU     AUC  515   6.508  24.551   7.784
    2AU     AUC  516   6.514  24.910   7.788
    2AU     AUC  517   6.510  24.567   7.230
    2AU     AUC  518   6.530  24.890   7.233
    2AU     AUC  519   7.106  24.749   7.166
    2AU     AUC  520   7.114  24.707   7.527
    2AU     AUC  521   7.053  24.694   7.879
    2AU     AUC  522   5.924  24.713   7.171
    2AU     AUC  523   5.904  24.746   7.534
    2AU     AUC  524   5.948  24.786   7.870
    2AU     AUC  525   6.174  25.314   7.483
    2AU     AUC  526   6.534  25.324   7.473
    2AU     AUC  527   6.916  25.279   7.493
    2AU     AUC  528   6.129  24.180   7.511
    2AU     AUC  529   6.479  24.127   7.493
    2AU     AUC  530   6.842  24.140   7.484
    2AU     AUC  531   6.488  24.369   8.070
    2AU     AUC  532   6.511  24.744   8.118
    2AU     AUC  533   6.524  25.087   8.065
    2AU     AUC  534   6.539  24.395   6.948
    2AU     AUC  535   6.528  24.725   6.897
    2AU     AUC  536   6.510  25.050   6.938
    2AU     AUC  537   6.767  24.518   8.009
    2AU     AUC  538   6.815  24.882   8.006
    2AU     AUC  539   6.849  24.594   7.005
    2AU     AUC  540   6.840  24.919   7.040
    2AU     AUC  541   6.201  24.595   8.017
    2AU     AUC  542   6.220  24.968   7.991
    2AU     AUC  543   6.215  24.543   7.044
    2AU     AUC  544   6.190  24.861   7.003
    2AU     AUC  545   7.053  25.027   7.343
    2AU     AUC  546   7.007  25.015   7.696
    2AU     AUC  547   6.015  25.021   7.332
    2AU     AUC  548   6.038  25.073   7.686
    2AU     AUC  549   6.988  24.431   7.331
    2AU     AUC  550   6.953  24.385   7.686
    2AU     AUC  551   5.992  24.420   7.359
    2AU     AUC  552   6.040  24.467   7.719
    2AU     AUC  553   6.357  25.265   7.775
    2AU     AUC  554   6.712  25.203   7.776
    2AU     AUC  555   6.314  24.249   7.806
    2AU     AUC  556   6.634  24.200   7.779
    2AU     AUC  557   6.328  25.167   7.196
    2AU     AUC  558   6.716  25.209   7.204
    2AU     AUC  559   6.319  24.257   7.209
    2AU     AUC  560   6.710  24.278   7.205
    2AU    AUSL  561   7.029  24.600   8.255
    2AU    AUSL  562   6.775  24.202   8.165
    2AU     AUL  563   7.004  24.194   8.470
    2AU       S  564   7.143  23.903   8.141
    2AU     LIG  565   6.998  23.683   8.505
    2AU     LIG  566   7.169  23.334   8.741
    2AU     LIG  567   7.426  23.079   9.029
    2AU     LIG  568   7.729  23.014   9.370
    2AU     LIG  569   7.985  22.806   9.696
    2AU       S  570   7.223  24.557   8.319
    2AU     LIG  571   7.207  24.534   8.794
    2AU     LIG  572   7.398  24.431   9.226
    2AU     LIG  573   7.682  24.461   9.613
    2AU     LIG  574   8.072  24.603   9.855
    2AU     LIG  575   8.434  24.667  10.149
    2AU    AUSL  576   6.614  24.530   8.399
    2AU    AUSL  577   6.348  24.911   8.416
    2AU     AUL  578   6.570  24.856   8.745
    2AU       S  579   6.652  24.470   8.529
    2AU     LIG  580   6.715  24.391   8.940
    2AU     LIG  581   6.932  24.220   9.320
    2AU     LIG  582   7.130  24.087   9.737
    2AU     LIG  583   7.215  23.882  10.162
    2AU     LIG  584   7.166  23.846  10.635
    2AU       S  585   6.167  24.669   8.632
    2AU     LIG  586   6.182  24.669   9.109
    2AU     LIG  587   5.922  24.621   9.518
    2AU     LIG  588   5.746  24.734   9.952
    2AU     LIG  589   5.777  24.985  10.369
    2AU     LIG  590   5.715  25.216  10.788
    2AU    AUSL  591   6.753  24.936   8.325
    2AU    AUSL  592   7.142  24.995   8.118
    2AU     AUL  593   7.020  24.913   8.517
    2AU       S  594   6.639  25.270   8.501
    2AU     LIG  595   6.852  25.392   8.848
    2AU     LIG  596   7.098  25.341   9.242
    2AU     LIG  597   7.043  25.379   9.717
    2AU     LIG  598   7.146  25.526  10.153
    2AU     LIG  599   7.186  25.457  10.615
    2AU       S  600   7.203  25.267   8.282
    2AU     LIG  601   7.586  25.084   8.367
    2AU     LIG  602   7.875  25.260   8.685
    2AU     LIG  603   8.103  25.491   9.027
    2AU     LIG  604   8.319  25.750   9.360
    2AU     LIG  605   8.723  25.750   9.634
    2AU    AUSL  606   7.063  24.894   6.755
    2AU    AUSL  607   6.845  25.213   6.967
    2AU     AUL  608   6.877  25.279   6.604
    2AU       S  609   7.072  24.923   6.373
    2AU     LIG  610   7.431  24.755   6.160
    2AU     LIG  611   7.436  24.485   5.787
    2AU     LIG  612   7.544  24.390   5.343
    2AU     LIG  613   7.832  24.270   4.983
    2AU     LIG  614   8.252  24.160   4.768
    2AU       S  615   7.248  25.421   6.844
    2AU     LIG  616   7.428  25.547   6.424
    2AU     LIG  617   7.658  25.671   6.041
    2AU     LIG  618   7.887  25.975   5.774
    2AU     LIG  619   8.079  26.133   5.375
    2AU     LIG  620   7.989  26.374   4.972
    2AU    AUSL  621   6.840  24.552   6.621
    2AU    AUSL  622   7.171  24.509   6.928
    2AU     AUL  623   7.302  24.667   6.689
    2AU       S  624   7.202  24.213   6.654
    2AU     LIG  625   7.349  23.890   6.292
    2AU     LIG  626   7.631  23.512   6.201
    2AU     LIG  627   7.928  23.242   5.930
    2AU     LIG  628   8.275  23.104   5.610
    2AU     LIG  629   8.667  23.014   5.327
    2AU       S  630   6.991  24.633   6.341
    2AU     LIG  631   7.059  24.289   6.094
    2AU     LIG  632   7.080  24.124   5.650
    2AU     LIG  633   7.137  24.123   5.177
    2AU     LIG  634   7.251  24.005   4.728
    2AU     LIG  635   7.252  23.786   4.291
    2AU    AUSL  636   6.636  24.912   6.746
    2AU    AUSL  637   6.419  24.523   6.716
    2AU     AUL  638   6.552  24.566   6.444
    2AU       S  639   6.095  24.570   6.315
    2AU     LIG  640   6.225  24.261   6.077
    2AU     LIG  641   6.019  24.143   5.677
    2AU     LIG  642   5.787  24.094   5.264
    2AU     LIG  643   5.784  24.039   4.795
    2AU     LIG  644   5.799  24.024   4.315
    2AU       S  645   6.793  24.932   6.307
    2AU     LIG  646   6.969  24.762   5.867
    2AU     LIG  647   7.064  24.592   5.431
    2AU     LIG  648   7.220  24.627   4.989
    2AU     LIG  649   7.277  24.972   4.661
    2AU     LIG  650   7.424  25.243   4.300
    2AU    AUSL  651   5.957  24.851   8.240
    2AU    AUSL  652   6.278  25.201   8.117
    2AU     AUL  653   6.108  25.142   8.460
    2AU       S  654   5.950  24.732   8.661
    2AU     LIG  655   5.742  24.440   8.927
    2AU     LIG  656   5.500  24.379   9.344
    2AU     LIG  657   5.344  24.439   9.799
    2AU     LIG  658   5.069  24.366  10.181
    2AU     LIG  659   4.660  24.549  10.365
    2AU       S  660   5.837  25.466   8.201
    2AU     LIG  661   5.863  25.574   8.626
    2AU     LIG  662   5.677  25.805   8.990
    2AU     LIG  663   5.494  26.038   9.347
    2AU     LIG  664   5.438  26.306   9.728
    2AU     LIG  665   5.278  26.514  10.124
    2AU    AUSL  666   6.267  24.571   8.162
    2AU    AUSL  667   5.856  24.433   8.135
    2AU     AUL  668   5.742  24.664   8.257
    2AU       S  669   5.770  24.214   8.390
    2AU     LIG  670   5.338  24.111   8.218
    2AU     LIG  671   5.158  23.679   8.317
    2AU     LIG  672   4.920  23.338   8.557
    2AU     LIG  673   4.670  23.076   8.867
    2AU     LIG  674   4.477  22.964   9.288
    2AU       S  675   6.135  24.513   8.547
    2AU     LIG  676   6.217  24.221   8.881
    2AU     LIG  677   5.990  24.159   9.295
    2AU     LIG  678   5.761  24.137   9.723
    2AU     LIG  679   5.575  23.943  10.125
    2AU     LIG  680   5.679  23.778  10.566
    2AU    AUSL  681   6.014  24.638   6.786
    2AU    AUSL  682   6.198  24.254   6.952
    2AU     AUL  683   6.226  24.250   6.620
    2AU       S  684   5.895  24.544   6.466
    2AU     LIG  685   5.705  24.311   6.110
    2AU     LIG  686   5.551  24.362   5.667
    2AU     LIG  687   5.341  24.384   5.244
    2AU     LIG  688   4.932  24.439   4.996
    2AU     LIG  689   4.596  24.520   4.672
    2AU       S  690   5.806  24.120   6.760
    2AU     LIG  691   5.546  23.762   6.599
    2AU     LIG  692   5.346  23.366   6.465
    2AU     LIG  693   5.148  23.065   6.165
    2AU     LIG  694   4.946  22.883   5.789
    2AU     LIG  695   4.806  22.762   5.338
    2AU    AUSL  696   6.262  24.934   6.571
    2AU    AUSL  697   5.800  24.981   6.927
    2AU     AUL  698   5.917  24.984   6.602
    2AU       S  699   5.504  25.157   6.752
    2AU     LIG  700   5.406  25.383   6.320
    2AU     LIG  701   5.249  25.627   5.957
    2AU     LIG  702   5.023  25.781   5.573
    2AU     LIG  703   4.659  25.814   5.275
    2AU     LIG  704   4.303  26.073   5.103
    2AU       S  705   6.172  24.792   6.260
    2AU     LIG  706   5.979  24.658   5.834
    2AU     LIG  707   5.920  24.577   5.378
    2AU     LIG  708   5.742  24.547   4.946
    2AU     LIG  709   5.657  24.800   4.546
    2AU     LIG  710   5.642  25.001   4.108
    2AU    AUSL  711   7.358  25.208   7.501
    2AU    AUSL  712   7.210  25.007   7.131
    2AU     AUL  713   7.588  25.186   7.154
    2AU       S  714   7.292  25.286   6.838
    2AU     LIG  715   7.585  25.096   6.601
    2AU     LIG  716   7.915  25.356   6.374
    2AU     LIG  717   8.165  25.682   6.114
    2AU     LIG  718   8.377  25.814   5.697
    2AU     LIG  719   8.729  25.838   5.368
    2AU       S  720   7.734  25.267   7.587
    2AU     LIG  721   8.209  25.303   7.473
    2AU     LIG  722   8.675  25.347   7.580
    2AU     LIG  723   9.119  25.564   7.560
    2AU     LIG  724   9.340  25.985   7.442
    2AU     LIG  725   9.484  26.446   7.340
    2AU    AUSL  726   7.486  24.807   7.400
    2AU    AUSL  727   7.400  24.503   7.731
    2AU     AUL  728   7.625  24.692   7.858
    2AU       S  729   7.748  24.873   7.450
    2AU     LIG  730   8.120  24.868   7.209
    2AU     LIG  731   8.600  24.924   7.284
    2AU     LIG  732   9.047  25.133   7.292
    2AU     LIG  733   9.491  25.133   7.086
    2AU     LIG  734   9.985  25.186   7.031
    2AU       S  735   7.643  24.318   7.568
    2AU     LIG  736   7.970  24.193   7.825
    2AU     LIG  737   8.415  24.114   7.714
    2AU     LIG  738   8.791  23.854   7.697
    2AU     LIG  739   9.174  23.865   7.979
    2AU     LIG  740   9.642  23.859   8.002
    2AU    AUSL  741   7.199  24.872   7.723
    2AU    AUSL  742   7.119  25.338   7.821
    2AU     AUL  743   7.410  25.111   7.886
    2AU       S  744   7.294  25.489   8.135
    2AU     LIG  745   7.588  25.611   8.423
    2AU     LIG  746   7.966  25.776   8.609
    2AU     LIG  747   8.118  26.191   8.747
    2AU     LIG  748   8.345  26.578   8.908
    2AU     LIG  749   8.514  27.023   8.992
    2AU       S  750   7.801  25.060   7.641
    2AU     LIG  751   8.202  24.824   7.712
    2AU     LIG  752   8.674  24.837   7.786
    2AU     LIG  753   9.047  25.117   7.859
    2AU     LIG  754   9.429  25.245   8.096
    2AU     LIG  755   9.881  25.373   8.050
    2AU    AUSL  756   5.848  25.292   7.518
    2AU    AUSL  757   5.912  25.099   7.909
    2AU     AUL  758   5.599  25.394   7.740
    2AU       S  759   5.766  25.256   8.144
    2AU     LIG  760   5.607  25.112   8.532
    2AU     LIG  761   5.481  25.325   8.936
    2AU     LIG  762   5.241  25.569   9.280
    2AU     LIG  763   4.869  25.660   9.579
    2AU     LIG  764   4.487  25.780   9.841
    2AU       S  765   5.844  25.678   7.445
    2AU     LIG  766   5.452  25.872   7.558
    2AU     LIG  767   5.170  26.260   7.491
    2AU     LIG  768   4.845  26.585   7.355
    2AU     LIG  769   4.375  26.642   7.370
    2AU     LIG  770   3.918  26.572   7.422
    2AU    AUSL  771   5.805  24.900   7.332
    2AU    AUSL  772   5.927  25.355   7.111
    2AU     AUL  773   5.621  25.225   7.210
    2AU       S  774   5.440  24.701   6.980
    2AU     LIG  775   5.092  25.020   7.049
    2AU     LIG  776   4.664  25.260   6.956
    2AU     LIG  777   4.204  25.455   6.866
    2AU     LIG  778   3.771  25.678   6.755
    2AU     LIG  779   3.338  25.906   6.769
    2AU       S  780   5.748  25.613   6.941
    2AU     LIG  781   5.593  25.845   6.514
    2AU     LIG  782   5.390  26.119   6.150
    2AU     LIG  783   5.179  26.552   6.004
    2AU     LIG  784   5.047  27.034   5.976
    2AU     LIG  785   4.759  27.305   6.217
    2AU    AUSL  786   5.588  24.936   7.707
    2AU    AUSL  787   5.561  24.568   7.409
    2AU     AUL  788   5.403  24.883   7.425
    2AU       S  789   5.364  24.478   7.683
    2AU     LIG  790   5.048  24.524   7.334
    2AU     LIG  791   4.587  24.372   7.302
    2AU     LIG  792   4.112  24.203   7.294
    2AU     LIG  793   3.660  23.979   7.226
    2AU     LIG  794   3.229  23.806   7.043
    2AU       S  795   5.440  24.964   7.925
    2AU     LIG  796   5.079  25.181   7.747
    2AU     LIG  797   4.583  25.209   7.843
    2AU     LIG  798   4.102  25.365   7.935
    2AU     LIG  799   3.733  25.645   8.127
    2AU     LIG  800   3.311  25.892   8.256
    2AU    AUSL  801   7.201  24.155   7.544
    2AU    AUSL  802   7.024  24.407   7.883
    2AU     AUL  803   7.348  24.283   7.944
    2AU       S  804   7.465  24.062   7.530
    2AU     LIG  805   7.766  23.762   7.616
    2AU     LIG  806   8.221  23.643   7.589
    2AU     LIG  807   8.624  23.431   7.445
    2AU     LIG  808   8.954  23.096   7.527
    2AU     LIG  809   9.266  22.923   7.832
    2AU       S  810   7.260  23.838   7.959
    2AU     LIG  811   7.448  23.539   8.292
    2AU     LIG  812   7.665  23.265   8.597
    2AU     LIG  813   7.921  22.997   8.886
    2AU     LIG  814   8.232  22.939   9.235
    2AU     LIG  815   8.682  22.876   9.365
    2AU    AUSL  816   7.186  24.531   7.344
    2AU    AUSL  817   7.123  24.120   7.128
    2AU     AUL  818   7.384  24.309   7.138
    2AU       S  819   7.729  24.376   7.417
    2AU     LIG  820   8.066  24.076   7.322
    2AU     LIG  821   8.506  23.900   7.242
    2AU     LIG  822   8.961  23.784   7.180
    2AU     LIG  823   9.432  23.723   7.042
    2AU     LIG  824   9.905  23.648   6.992
    2AU       S  825   7.296  24.012   6.777
    2AU     LIG  826   7.401  23.547   6.686
    2AU     LIG  827   7.526  23.091   6.529
    2AU     LIG  828   7.636  22.596   6.500
    2AU     LIG  829   7.912  22.185   6.479
    2AU     LIG  830   8.277  21.878   6.377
    2AU    AUSL  831   5.766  24.208   7.556
    2AU    AUSL  832   5.859  24.454   7.135
    2AU     AUL  833   5.513  24.269   7.279
    2AU       S  834   5.712  24.289   6.862
    2AU     LIG  835   5.277  24.164   6.836
    2AU     LIG  836   5.037  23.777   6.696
    2AU     LIG  837   4.838  23.430   6.428
    2AU     LIG  838   4.644  23.193   6.067
    2AU     LIG  839   4.545  23.143   5.599
    2AU       S  840   5.327  24.254   7.715
    2AU     LIG  841   5.023  24.024   7.422
    2AU     LIG  842   4.549  23.864   7.389
    2AU     LIG  843   4.081  23.729   7.479
    2AU     LIG  844   3.637  23.662   7.639
    2AU     LIG  845   3.356  23.466   7.960
    2AU    AUSL  846   5.826  24.592   7.751
    2AU    AUSL  847   6.080  24.218   7.843
    2AU     AUL  848   5.747  24.173   7.897
    2AU       S  849   5.801  24.004   8.329
    2AU     LIG  850   5.624  23.693   8.057
    2AU     LIG  851   5.407  23.263   8.112
    2AU     LIG  852   5.174  22.918   8.363
    2AU     LIG  853   4.889  22.638   8.642
    2AU     LIG  854   4.681  22.343   8.948
    2AU       S  855   5.419  24.497   7.863
    2AU     LIG  856   4.947  24.691   7.814
    2AU     LIG  857   4.474  24.709   7.685
    2AU     LIG  858   4.001  24.570   7.648
    2AU     LIG  859   3.616  24.262   7.656
    2AU     LIG  860   3.270  23.985   7.842
    2AU    AUSL  861   6.510  25.538   7.987
    2AU    AUSL  862   6.111  25.462   7.811
    2AU     AUL  863   6.295  25.519   8.232
    2AU       S  864   5.978  25.645   7.912
    2AU     LIG  865   5.996  25.949   8.269
    2AU     LIG  866   5.745  26.185   8.629
    2AU     LIG  867   5.512  26.550   8.868
    2AU     LIG  868   5.337  27.019   8.879
    2AU     LIG  869   4.963  27.307   8.754
    2AU       S  870   6.469  25.882   7.996
    2AU     LIG  871   6.720  25.824   8.388
    2AU     LIG  872   6.901  26.226   8.624
    2AU     LIG  873   6.768  26.712   8.650
    2AU     LIG  874   6.626  27.138   8.862
    2AU     LIG  875   6.394  27.539   9.025
    2AU    AUSL  876   6.390  25.671   7.573
    2AU    AUSL  877   6.679  25.572   7.234
    2AU     AUL  878   6.735  25.867   7.399
    2AU       S  879   6.349  25.910   7.691
    2AU     LIG  880   6.401  26.387   7.820
    2AU     LIG  881   6.561  26.716   8.134
    2AU     LIG  882   6.566  27.123   8.353
    2AU     LIG  883   6.537  27.557   8.530
    2AU     LIG  884   6.459  28.039   8.549
    2AU       S  885   6.408  25.825   7.079
    2AU     LIG  886   6.758  26.124   6.972
    2AU     LIG  887   7.129  26.398   6.880
    2AU     LIG  888   7.344  26.800   6.733
    2AU     LIG  889   7.437  27.288   6.742
    2AU     LIG  890   7.493  27.768   6.667
    2AU    AUSL  891   6.762  25.463   7.639
    2AU    AUSL  892   6.771  25.218   8.029
    2AU     AUL  893   6.875  25.588   7.960
    2AU       S  894   7.058  25.407   8.347
    2AU     LIG  895   7.336  25.304   8.752
    2AU     LIG  896   7.589  25.614   8.956
    2AU     LIG  897   7.859  25.935   9.107
    2AU     LIG  898   8.003  26.205   9.436
    2AU     LIG  899   7.852  26.465   9.798
    2AU       S  900   6.660  25.973   7.838
    2AU     LIG  901   6.803  26.257   8.122
    2AU     LIG  902   7.077  26.577   8.255
    2AU     LIG  903   7.084  27.038   8.364
    2AU     LIG  904   7.304  27.467   8.336
    2AU     LIG  905   7.568  27.870   8.373
    2AU    AUSL  906   6.460  24.014   7.937
    2AU    AUSL  907   6.871  24.021   7.777
    2AU     AUL  908   6.678  23.890   8.163
    2AU       S  909   6.440  23.541   7.980
    2AU     LIG  910   6.254  23.414   8.329
    2AU     LIG  911   6.032  23.014   8.406
    2AU     LIG  912   6.156  22.576   8.516
    2AU     LIG  913   6.158  22.213   8.801
    2AU     LIG  914   6.196  22.085   9.259
    2AU       S  915   7.023  23.822   7.840
    2AU     LIG  916   6.974  23.412   8.070
    2AU     LIG  917   7.244  23.059   8.311
    2AU     LIG  918   7.505  22.770   8.614
    2AU     LIG  919   7.839  22.486   8.811
    2AU     LIG  920   8.242  22.223   8.871
    2AU    AUSL  921   6.144  23.856   7.654
    2AU    AUSL  922   6.243  24.170   8.256
    2AU     AUL  923   6.123  23.886   8.017
    2AU       S  924   6.259  23.477   7.821
    2AU     LIG  925   5.911  23.273   7.967
    2AU     LIG  926   5.730  22.851   8.009
    2AU     LIG  927   5.802  22.443   8.178
    2AU     LIG  928   5.620  22.057   8.360
    2AU     LIG  929   5.567  21.617   8.224
    2AU       S  930   6.036  24.040   8.457
    2AU     LIG  931   5.812  23.564   8.523
    2AU     LIG  932   5.435  23.308   8.620
    2AU     LIG  933   5.188  22.996   8.873
    2AU     LIG  934   4.935  22.743   9.172
    2AU     LIG  935   4.758  22.634   9.600
    2AU    AUSL  936   6.574  23.779   7.599
    2AU    AUSL  937   6.343  24.022   7.313
    2AU     AUL  938   6.223  23.679   7.406
    2AU       S  939   6.577  23.580   7.145
    2AU     LIG  940   6.156  23.324   7.063
    2AU     LIG  941   5.962  22.882   7.073
    2AU     LIG  942   5.756  22.453   6.972
    2AU     LIG  943   5.545  22.017   6.960
    2AU     LIG  944   5.505  21.609   6.690
    2AU       S  945   6.584  23.565   7.736
    2AU     LIG  946   6.582  23.085   7.891
    2AU     LIG  947   6.320  22.723   8.045
    2AU     LIG  948   6.473  22.280   8.182
    2AU     LIG  949   6.851  21.941   8.188
    2AU     LIG  950   7.018  21.479   8.267
    2AU    AUSL  951   6.483  25.403   6.873
    2AU    AUSL  952   7.059  25.408   7.283
    2AU     AUL  953   6.829  25.597   6.955
    2AU       S  954   6.400  25.769   6.831
    2AU     LIG  955   6.570  26.041   6.516
    2AU     LIG  956   6.948  26.286   6.373
    2AU     LIG  957   6.991  26.610   6.014
    2AU     LIG  958   6.822  26.969   5.717
    2AU     LIG  959   6.828  27.379   5.460
    2AU       S  960   7.253  25.511   7.126
    2AU     LIG  961   7.672  25.644   6.891
    2AU     LIG  962   7.823  25.856   6.519
    2AU     LIG  963   7.977  26.174   6.241
    2AU     LIG  964   8.298  26.521   6.155
    2AU     LIG  965   8.554  26.932   6.150
    2AU    AUSL  966   6.300  25.387   7.279
    2AU    AUSL  967   6.227  25.075   6.962
    2AU     AUL  968   6.151  25.378   6.836
    2AU       S  969   6.219  25.750   7.138
    2AU     LIG  970   6.246  26.279   7.161
    2AU     LIG  971   6.238  26.770   7.025
    2AU     LIG  972   6.265  27.274   6.943
    2AU     LIG  973   6.232  27.691   6.670
    2AU     LIG  974   6.015  28.067   6.419
    2AU       S  975   5.706  25.392   6.710
    2AU     LIG  976   5.927  25.471   6.358
    2AU     LIG  977   5.752  25.745   6.014
    2AU     LIG  978   5.513  25.954   5.650
    2AU     LIG  979   5.312  26.169   5.274
    2AU     LIG  980   5.238  26.594   5.065
    2AU    AUSL  981   6.529  23.987   6.920
    2AU    AUSL  982   5.937  24.025   7.215
    2AU     AUL  983   6.197  23.873   6.970
    2AU       S  984   5.748  23.992   6.990
    2AU     LIG  985   5.396  23.747   7.110
    2AU     LIG  986   5.171  23.352   6.952
    2AU     LIG  987   5.009  23.003   6.665
    2AU     LIG  988   4.779  22.749   6.333
    2AU     LIG  989   4.639  22.328   6.179
    2AU       S  990   6.577  23.584   6.925
    2AU     LIG  991   6.574  23.122   6.857
    2AU     LIG  992   6.308  22.759   6.702
    2AU     LIG  993   6.260  22.353   6.465
    2AU     LIG  994   6.330  22.134   6.041
    2AU     LIG  995   6.565  21.932   5.682
    2AU    AUSL  996   6.769  24.001   7.307
    2AU    AUSL  997   6.776  24.317   6.959
    2AU     AUL  998   6.883  23.931   6.973
    2AU       S  999   6.790  23.566   7.244
    2AU     LIG 1000   6.530  23.163   7.386
    2AU     LIG 1001   6.450  22.729   7.200
    2AU     LIG 1002   6.529  22.336   6.924
    2AU     LIG 1003   6.643  21.884   6.799
    2AU     LIG 1004   6.764  21.432   6.638
    2AU       S 1005   6.995  24.127   6.581
    2AU     LIG 1006   6.927  23.689   6.529
    2AU     LIG 1007   7.140  23.353   6.278
    2AU     LIG 1008   7.426  23.071   6.014
    2AU     LIG 1009   7.652  22.927   5.620
    2AU     LIG 1010   7.797  22.711   5.227
    3AU     AUC 1011  38.795  17.855   7.511
    3AU     AUC 1012  39.062  17.876   7.330
    3AU     AUC 1013  39.074  17.856   7.680
    3AU     AUC 1014  38.507  17.841   7.342
    3AU     AUC 1015  38.541  17.881   7.702
    3AU     AUC 1016  38.612  18.125   7.514
    3AU     AUC 1017  38.979  18.139   7.498
    3AU     AUC 1018  38.614  17.578   7.517
    3AU     AUC 1019  38.962  17.570   7.510
    3AU     AUC 1020  38.807  17.687   7.794
    3AU     AUC 1021  38.796  18.031   7.783
    3AU     AUC 1022  38.785  17.689   7.232
    3AU     AUC 1023  38.800  18.010   7.230
    3AU     AUC 1024  39.372  17.883   7.151
    3AU     AUC 1025  39.402  17.832   7.513
    3AU     AUC 1026  39.361  17.837   7.847
    3AU     AUC 1027  38.205  17.824   7.173
    3AU     AUC 1028  38.188  17.867   7.535
    3AU     AUC 1029  38.247  17.895   7.898
    3AU     AUC 1030  38.431  18.427   7.500
    3AU     AUC 1031  38.787  18.459   7.470
    3AU     AUC 1032  39.158  18.427   7.483
    3AU     AUC 1033  38.417  17.293   7.524
    3AU     AUC 1034  38.776  17.256   7.499
    3AU     AUC 1035  39.129  17.269   7.497
    3AU     AUC 1036  38.802  17.518   8.086
    3AU     AUC 1037  38.841  17.890   8.124
    3AU     AUC 1038  38.819  18.223   8.063
    3AU     AUC 1039  38.813  17.515   6.953
    3AU     AUC 1040  38.791  17.850   6.893
    3AU     AUC 1041  38.774  18.176   6.928
    3AU     AUC 1042  39.093  17.675   8.005
    3AU     AUC 1043  39.123  18.046   7.985
    3AU     AUC 1044  39.116  17.726   6.993
    3AU     AUC 1045  39.101  18.044   7.029
    3AU     AUC 1046  38.507  17.705   8.029
    3AU     AUC 1047  38.522  18.065   8.009
    3AU     AUC 1048  38.489  17.653   7.050
    3AU     AUC 1049  38.463  17.979   7.004
    3AU     AUC 1050  39.318  18.145   7.347
    3AU     AUC 1051  39.294  18.152   7.679
    3AU     AUC 1052  38.304  18.137   7.329
    3AU     AUC 1053  38.306  18.180   7.700
    3AU     AUC 1054  39.261  17.564   7.328
    3AU     AUC 1055  39.245  17.509   7.693
    3AU     AUC 1056  38.279  17.527   7.362
    3AU     AUC 1057  38.345  17.584   7.717
    3AU     AUC 1058  38.606  18.380   7.785
    3AU     AUC 1059  38.974  18.344   7.753
    3AU     AUC 1060  38.602  17.384   7.813
    3AU     AUC 1061  38.946  17.346   7.793
    3AU     AUC 1062  38.608  18.282   7.197
    3AU     AUC 1063  38.990  18.338   7.200
    3AU     AUC 1064  38.605  17.373   7.218
    3AU     AUC 1065  38.995  17.406   7.208
    3AU    AUSL 1066  39.383  17.820   8.189
    3AU    AUSL 1067  39.084  17.366   8.187
    3AU     AUL 1068  39.412  17.403   8.330
    3AU       S 1069  39.397  16.947   8.214
    3AU     LIG 1070  39.263  16.840   8.600
    3AU     LIG 1071  39.494  16.605   8.904
    3AU     LIG 1072  39.576  16.154   8.964
    3AU     LIG 1073  39.746  15.760   9.099
    3AU     LIG 1074  39.962  15.589   9.479
    3AU       S 1075  39.647  17.789   8.255
    3AU     LIG 1076  39.714  17.770   8.691
    3AU     LIG 1077  39.876  17.647   9.122
    3AU     LIG 1078  40.029  17.570   9.568
    3AU     LIG 1079  40.217  17.726   9.975
    3AU     LIG 1080  40.555  17.743  10.303
    3AU    AUSL 1081  39.009  17.726   8.397
    3AU    AUSL 1082  38.702  18.048   8.416
    3AU     AUL 1083  38.919  18.020   8.732
    3AU       S 1084  39.222  17.697   8.614
    3AU     LIG 1085  39.029  17.293   8.706
    3AU     LIG 1086  39.134  17.024   9.113
    3AU     LIG 1087  39.214  17.007   9.615
    3AU     LIG 1088  39.377  16.926  10.073
    3AU     LIG 1089  39.383  16.947  10.555
    3AU       S 1090  38.544  17.769   8.687
    3AU     LIG 1091  38.494  17.645   9.159
    3AU     LIG 1092  38.223  17.657   9.554
    3AU     LIG 1093  38.128  17.864   9.971
    3AU     LIG 1094  38.048  18.236  10.264
    3AU     LIG 1095  37.955  18.484  10.656
    3AU    AUSL 1096  39.102  18.147   8.331
    3AU    AUSL 1097  39.445  18.223   8.050
    3AU     AUL 1098  39.402  18.116   8.456
    3AU       S 1099  38.967  18.443   8.467
    3AU     LIG 1100  39.216  18.422   8.840
    3AU     LIG 1101  39.458  18.513   9.250
    3AU     LIG 1102  39.436  18.542   9.749
    3AU     LIG 1103  39.500  18.606  10.228
    3AU     LIG 1104  39.580  18.633  10.692
    3AU       S 1105  39.507  18.502   8.226
    3AU     LIG 1106  39.886  18.254   8.294
    3AU     LIG 1107  40.200  18.385   8.631
    3AU     LIG 1108  40.474  18.596   8.968
    3AU     LIG 1109  40.694  18.851   9.299
    3AU     LIG 1110  40.939  18.863   9.708
    3AU    AUSL 1111  39.314  18.006   6.755
    3AU    AUSL 1112  39.091  18.319   6.967
    3AU     AUL 1113  39.211  18.383   6.620
    3AU       S 1114  39.277  18.054   6.309
    3AU     LIG 1115  39.648  17.882   6.123
    3AU     LIG 1116  39.701  17.582   5.790
    3AU     LIG 1117  39.829  17.533   5.352
    3AU     LIG 1118  40.152  17.477   5.014
    3AU     LIG 1119  40.599  17.416   4.842
    3AU       S 1120  39.553  18.577   6.875
    3AU     LIG 1121  39.648  18.745   6.475
    3AU     LIG 1122  39.862  18.887   6.073
    3AU     LIG 1123  40.118  18.982   5.698
    3AU     LIG 1124  40.374  19.227   5.393
    3AU     LIG 1125  40.381  19.649   5.175
    3AU    AUSL 1126  39.094  17.668   6.603
    3AU    AUSL 1127  39.468  17.642   6.919
    3AU     AUL 1128  39.502  17.760   6.604
    3AU       S 1129  39.671  17.327   6.706
    3AU     LIG 1130  39.815  16.859   6.536
    3AU     LIG 1131  39.964  16.467   6.330
    3AU     LIG 1132  40.151  16.168   6.038
    3AU     LIG 1133  40.378  16.067   5.646
    3AU     LIG 1134  40.750  16.216   5.384
    3AU       S 1135  39.174  17.911   6.298
    3AU     LIG 1136  39.260  17.525   6.119
    3AU     LIG 1137  39.260  17.329   5.686
    3AU     LIG 1138  39.382  17.312   5.226
    3AU     LIG 1139  39.572  17.108   4.844
    3AU     LIG 1140  39.748  16.814   4.509
    3AU    AUSL 1141  38.890  18.046   6.697
    3AU    AUSL 1142  38.684  17.643   6.739
    3AU     AUL 1143  38.825  17.661   6.445
    3AU       S 1144  38.385  17.670   6.309
    3AU     LIG 1145  38.522  17.490   5.943
    3AU     LIG 1146  38.283  17.249   5.626
    3AU     LIG 1147  38.070  17.265   5.217
    3AU     LIG 1148  37.853  17.157   4.811
    3AU     LIG 1149  37.867  16.884   4.405
    3AU       S 1150  38.934  18.108   6.349
    3AU     LIG 1151  39.007  17.916   5.849
    3AU     LIG 1152  39.328  17.795   5.481
    3AU     LIG 1153  39.505  17.788   5.027
    3AU     LIG 1154  39.573  17.975   4.588
    3AU     LIG 1155  39.573  18.085   4.124
    3AU    AUSL 1156  38.303  17.956   8.289
    3AU    AUSL 1157  38.560  18.309   8.120
    3AU     AUL 1158  38.445  18.265   8.476
    3AU       S 1159  38.376  17.886   8.742
    3AU     LIG 1160  38.026  17.686   8.912
    3AU     LIG 1161  37.776  17.605   9.304
    3AU     LIG 1162  37.634  17.450   9.722
    3AU     LIG 1163  37.382  17.379  10.109
    3AU     LIG 1164  37.121  17.579  10.425
    3AU       S 1165  38.112  18.539   8.254
    3AU     LIG 1166  38.205  18.721   8.639
    3AU     LIG 1167  38.021  18.944   9.017
    3AU     LIG 1168  37.963  19.326   9.288
    3AU     LIG 1169  37.861  19.485   9.726
    3AU     LIG 1170  37.708  19.567  10.174
    3AU    AUSL 1171  38.625  17.674   8.213
    3AU    AUSL 1172  38.165  17.590   8.119
    3AU     AUL 1173  38.187  17.652   8.395
    3AU       S 1174  38.006  17.225   8.262
    3AU     LIG 1175  37.598  17.266   8.194
    3AU     LIG 1176  37.346  16.926   8.341
    3AU     LIG 1177  37.111  16.667   8.639
    3AU     LIG 1178  36.856  16.374   8.878
    3AU     LIG 1179  36.623  16.191   9.227
    3AU       S 1180  38.609  17.595   8.590
    3AU     LIG 1181  38.359  17.303   8.798
    3AU     LIG 1182  38.148  17.254   9.213
    3AU     LIG 1183  38.060  17.167   9.669
    3AU     LIG 1184  37.872  17.180  10.106
    3AU     LIG 1185  37.608  17.081  10.491
    3AU    AUSL 1186  38.259  17.703   6.788
    3AU    AUSL 1187  38.470  17.349   6.959
    3AU     AUL 1188  38.509  17.350   6.629
    3AU       S 1189  38.206  17.591   6.379
    3AU     LIG 1190  37.999  17.482   5.999
    3AU     LIG 1191  37.814  17.532   5.584
    3AU     LIG 1192  37.583  17.455   5.189
    3AU     LIG 1193  37.197  17.475   4.923
    3AU     LIG 1194  37.089  17.617   4.491
    3AU       S 1195  38.106  17.203   6.794
    3AU     LIG 1196  37.975  16.813   6.600
    3AU     LIG 1197  37.607  16.537   6.508
    3AU     LIG 1198  37.322  16.341   6.177
    3AU     LIG 1199  37.233  16.203   5.723
    3AU     LIG 1200  37.314  15.967   5.305
    3AU    AUSL 1201  38.481  18.022   6.607
    3AU    AUSL 1202  38.127  18.098   6.920
    3AU     AUL 1203  38.051  17.935   6.632
    3AU       S 1204  38.142  18.377   6.671
    3AU     LIG 1205  37.859  18.597   6.401
    3AU     LIG 1206  37.629  18.703   5.999
    3AU     LIG 1207  37.276  18.712   5.666
    3AU     LIG 1208  36.936  18.895   5.382
    3AU     LIG 1209  36.624  19.000   5.035
    3AU       S 1210  38.440  17.944   6.357
    3AU     LIG 1211  38.251  17.937   5.916
    3AU     LIG 1212  38.267  17.744   5.491
    3AU     LIG 1213  38.064  17.759   5.063
    3AU     LIG 1214  38.043  18.026   4.661
    3AU     LIG 1215  37.931  18.341   4.310
    3AU    AUSL 1216  39.562  18.307   7.512
    3AU    AUSL 1217  39.479  18.166   7.108
    3AU     AUL 1218  39.821  18.414   7.296
    3AU       S 1219  39.578  18.358   6.921
    3AU     LIG 1220  39.720  18.228   6.531
    3AU     LIG 1221  40.026  18.428   6.258
    3AU     LIG 1222  40.360  18.668   6.036
    3AU     LIG 1223  40.632  18.909   5.732
    3AU     LIG 1224  40.957  19.076   5.439
    3AU       S 1225  40.044  18.168   7.656
    3AU     LIG 1226  40.467  18.038   7.578
    3AU     LIG 1227  40.887  18.203   7.517
    3AU     LIG 1228  41.246  18.479   7.482
    3AU     LIG 1229  41.486  18.865   7.563
    3AU     LIG 1230  41.851  19.157   7.631
    3AU    AUSL 1231  39.749  17.937   7.345
    3AU    AUSL 1232  39.713  17.583   7.659
    3AU     AUL 1233  40.026  17.609   7.452
    3AU       S 1234  39.961  18.044   7.531
    3AU     LIG 1235  40.250  17.929   7.142
    3AU     LIG 1236  40.746  17.889   7.120
    3AU     LIG 1237  41.196  18.110   7.094
    3AU     LIG 1238  41.639  18.279   7.214
    3AU     LIG 1239  42.086  18.377   7.071
    3AU       S 1240  39.904  17.172   7.616
    3AU     LIG 1241  40.199  16.921   7.774
    3AU     LIG 1242  40.624  16.877   7.658
    3AU     LIG 1243  41.045  16.790   7.743
    3AU     LIG 1244  41.389  16.893   8.024
    3AU     LIG 1245  41.810  17.076   7.924
    3AU    AUSL 1246  39.537  17.954   7.745
    3AU    AUSL 1247  39.353  18.564   7.774
    3AU     AUL 1248  39.668  18.378   7.810
    3AU       S 1249  39.561  18.757   8.071
    3AU     LIG 1250  39.942  18.766   8.343
    3AU     LIG 1251  40.206  18.936   8.697
    3AU     LIG 1252  40.519  19.240   8.921
    3AU     LIG 1253  40.705  19.703   8.946
    3AU     LIG 1254  40.920  20.153   8.865
    3AU       S 1255  39.880  17.969   7.845
    3AU     LIG 1256  40.279  17.977   8.062
    3AU     LIG 1257  40.720  18.141   8.015
    3AU     LIG 1258  41.177  18.257   7.965
    3AU     LIG 1259  41.620  18.356   7.816
    3AU     LIG 1260  42.090  18.297   7.869
    3AU    AUSL 1261  38.101  18.389   7.544
    3AU    AUSL 1262  38.185  18.173   7.945
    3AU     AUL 1263  37.859  18.479   7.800
    3AU       S 1264  38.035  18.312   8.191
    3AU     LIG 1265  37.970  18.216   8.639
    3AU     LIG 1266  37.772  18.481   8.985
    3AU     LIG 1267  37.424  18.702   9.250
    3AU     LIG 1268  37.014  18.846   9.476
    3AU     LIG 1269  36.614  19.027   9.684
    3AU       S 1270  38.067  18.769   7.474
    3AU     LIG 1271  37.616  18.941   7.515
    3AU     LIG 1272  37.216  19.271   7.503
    3AU     LIG 1273  36.795  19.545   7.580
    3AU     LIG 1274  36.413  19.834   7.659
    3AU     LIG 1275  36.014  19.995   7.897
    3AU    AUSL 1276  38.075  18.018   7.326
    3AU    AUSL 1277  38.214  18.467   7.146
    3AU     AUL 1278  37.907  18.324   7.174
    3AU       S 1279  37.734  17.853   6.989
    3AU     LIG 1280  37.414  18.189   7.033
    3AU     LIG 1281  36.949  18.318   6.981
    3AU     LIG 1282  36.487  18.345   6.837
    3AU     LIG 1283  36.065  18.510   6.678
    3AU     LIG 1284  35.723  18.836   6.651
    3AU       S 1285  38.012  18.736   6.940
    3AU     LIG 1286  38.151  19.003   6.584
    3AU     LIG 1287  37.958  19.328   6.278
    3AU     LIG 1288  37.664  19.650   6.076
    3AU     LIG 1289  37.437  20.065   6.048
    3AU     LIG 1290  37.002  20.222   6.150
    3AU    AUSL 1291  37.861  18.036   7.719
    3AU    AUSL 1292  37.834  17.687   7.409
    3AU     AUL 1293  37.679  18.019   7.437
    3AU       S 1294  37.578  17.586   7.618
    3AU     LIG 1295  37.264  17.444   7.321
    3AU     LIG 1296  36.813  17.290   7.336
    3AU     LIG 1297  36.376  17.310   7.168
    3AU     LIG 1298  35.988  17.105   7.092
    3AU     LIG 1299  35.762  16.703   7.016
    3AU       S 1300  37.741  17.986   7.944
    3AU     LIG 1301  37.385  18.258   7.812
    3AU     LIG 1302  36.885  18.281   7.812
    3AU     LIG 1303  36.452  18.460   7.974
    3AU     LIG 1304  36.202  18.717   8.303
    3AU     LIG 1305  35.761  18.681   8.465
    3AU    AUSL 1306  39.440  17.278   7.530
    3AU    AUSL 1307  39.347  17.539   7.883
    3AU     AUL 1308  39.661  17.439   7.905
    3AU       S 1309  39.608  17.084   7.526
    3AU     LIG 1310  39.860  16.659   7.472
    3AU     LIG 1311  40.308  16.508   7.457
    3AU     LIG 1312  40.782  16.486   7.374
    3AU     LIG 1313  41.245  16.414   7.449
    3AU     LIG 1314  41.686  16.266   7.465
    3AU       S 1315  39.579  17.030   8.077
    3AU     LIG 1316  39.780  16.761   8.449
    3AU     LIG 1317  39.949  16.414   8.718
    3AU     LIG 1318  40.142  16.085   8.977
    3AU     LIG 1319  40.534  16.098   9.256
    3AU     LIG 1320  40.908  16.208   9.536
    3AU    AUSL 1321  39.438  17.659   7.334
    3AU    AUSL 1322  39.410  17.252   7.110
    3AU     AUL 1323  39.676  17.487   7.172
    3AU       S 1324  39.859  17.144   7.390
    3AU     LIG 1325  40.243  16.980   7.255
    3AU     LIG 1326  40.681  16.964   7.148
    3AU     LIG 1327  41.122  16.835   7.176
    3AU     LIG 1328  41.576  16.721   7.161
    3AU     LIG 1329  41.932  17.011   7.272
    3AU       S 1330  39.607  17.123   6.886
    3AU     LIG 1331  39.565  16.688   6.993
    3AU     LIG 1332  39.835  16.343   6.819
    3AU     LIG 1333  39.981  15.978   6.526
    3AU     LIG 1334  40.173  15.680   6.204
    3AU     LIG 1335  40.375  15.323   5.982
    3AU    AUSL 1336  38.024  17.329   7.570
    3AU    AUSL 1337  38.151  17.558   7.165
    3AU     AUL 1338  37.801  17.400   7.255
    3AU       S 1339  37.986  17.334   6.843
    3AU     LIG 1340  37.594  17.168   6.678
    3AU     LIG 1341  37.230  16.873   6.602
    3AU     LIG 1342  36.917  16.614   6.350
    3AU     LIG 1343  36.691  16.296   6.075
    3AU     LIG 1344  36.434  16.213   5.682
    3AU       S 1345  37.616  17.292   7.676
    3AU     LIG 1346  37.413  16.966   7.439
    3AU     LIG 1347  36.999  16.811   7.252
    3AU     LIG 1348  36.503  16.824   7.319
    3AU     LIG 1349  36.038  16.752   7.457
    3AU     LIG 1350  35.672  16.443   7.479
    3AU    AUSL 1351  38.133  17.725   7.723
    3AU    AUSL 1352  38.348  17.337   7.834
    3AU     AUL 1353  37.953  17.509   7.907
    3AU       S 1354  38.053  17.075   8.014
    3AU     LIG 1355  37.669  16.832   7.924
    3AU     LIG 1356  37.388  16.479   8.099
    3AU     LIG 1357  37.154  16.201   8.422
    3AU     LIG 1358  36.926  15.891   8.719
    3AU     LIG 1359  36.565  15.558   8.770
    3AU       S 1360  37.533  17.593   7.758
    3AU     LIG 1361  37.157  17.852   7.614
    3AU     LIG 1362  36.714  17.767   7.526
    3AU     LIG 1363  36.285  17.579   7.583
    3AU     LIG 1364  35.853  17.356   7.551
    3AU     LIG 1365  35.592  17.108   7.868
    3AU    AUSL 1366  38.761  18.662   7.988
    3AU    AUSL 1367  38.343  18.560   7.851
    3AU     AUL 1368  38.566  18.648   8.233
    3AU       S 1369  38.213  18.758   7.950
    3AU     LIG 1370  38.329  19.090   8.246
    3AU     LIG 1371  38.136  19.261   8.634
    3AU     LIG 1372  37.803  19.515   8.827
    3AU     LIG 1373  37.393  19.746   8.833
    3AU     LIG 1374  37.097  20.069   9.001
    3AU       S 1375  38.757  19.005   7.968
    3AU     LIG 1376  38.889  19.032   8.358
    3AU     LIG 1377  38.945  19.427   8.567
    3AU     LIG 1378  38.783  19.787   8.792
    3AU     LIG 1379  38.856  20.112   9.116
    3AU     LIG 1380  38.764  20.488   9.362
    3AU    AUSL 1381  38.572  18.794   7.594
    3AU    AUSL 1382  38.942  18.768   7.229
    3AU     AUL 1383  38.642  19.016   7.342
    3AU       S 1384  38.624  19.083   7.807
    3AU     LIG 1385  38.840  19.472   8.058
    3AU     LIG 1386  38.834  19.881   8.272
    3AU     LIG 1387  38.767  20.332   8.290
    3AU     LIG 1388  38.410  20.628   8.217
    3AU     LIG 1389  38.050  20.929   8.321
    3AU       S 1390  38.850  19.072   6.935
    3AU     LIG 1391  39.258  19.194   6.950
    3AU     LIG 1392  39.380  19.601   6.757
    3AU     LIG 1393  39.367  20.074   6.662
    3AU     LIG 1394  39.335  20.547   6.732
    3AU     LIG 1395  39.511  20.994   6.823
    3AU    AUSL 1396  38.968  18.603   7.615
    3AU    AUSL 1397  39.037  18.349   7.981
    3AU     AUL 1398  39.101  18.699   8.000
    3AU       S 1399  39.392  18.605   8.341
    3AU     LIG 1400  39.690  18.497   8.702
    3AU     LIG 1401  39.955  18.626   9.044
    3AU     LIG 1402  40.199  18.972   9.228
    3AU     LIG 1403  40.374  19.353   9.447
    3AU     LIG 1404  40.273  19.692   9.780
    3AU       S 1405  38.992  19.003   7.672
    3AU     LIG 1406  39.255  19.188   8.017
    3AU     LIG 1407  39.298  19.630   8.232
    3AU     LIG 1408  39.298  20.121   8.289
    3AU     LIG 1409  39.515  20.565   8.299
    3AU     LIG 1410  39.788  20.978   8.315
    3AU    AUSL 1411  38.769  17.207   7.944
    3AU    AUSL 1412  39.191  17.137   7.838
    3AU     AUL 1413  38.955  17.068   8.211
    3AU       S 1414  38.843  16.673   7.996
    3AU     LIG 1415  38.740  16.551   8.373
    3AU     LIG 1416  38.819  16.106   8.360
    3AU     LIG 1417  38.781  15.693   8.515
    3AU     LIG 1418  38.804  15.419   8.885
    3AU     LIG 1419  38.592  15.207   9.267
    3AU       S 1420  39.334  16.952   7.912
    3AU     LIG 1421  39.675  16.576   7.959
    3AU     LIG 1422  39.687  16.265   8.308
    3AU     LIG 1423  39.766  15.897   8.575
    3AU     LIG 1424  40.056  15.572   8.724
    3AU     LIG 1425  40.354  15.276   8.905
    3AU    AUSL 1426  38.468  16.970   7.688
    3AU    AUSL 1427  38.485  17.286   8.246
    3AU     AUL 1428  38.503  17.001   8.043
    3AU       S 1429  38.613  16.596   7.851
    3AU     LIG 1430  38.421  16.260   8.074
    3AU     LIG 1431  38.407  15.795   8.161
    3AU     LIG 1432  38.196  15.349   8.196
    3AU     LIG 1433  37.928  14.923   8.174
    3AU     LIG 1434  37.816  14.449   8.225
    3AU       S 1435  38.191  17.149   8.357
    3AU     LIG 1436  37.907  16.751   8.382
    3AU     LIG 1437  37.587  16.485   8.575
    3AU     LIG 1438  37.349  16.240   8.897
    3AU     LIG 1439  37.152  15.984   9.239
    3AU     LIG 1440  37.228  15.649   9.592
    3AU    AUSL 1441  38.893  16.936   7.623
    3AU    AUSL 1442  38.636  17.135   7.327
    3AU     AUL 1443  38.536  16.793   7.435
    3AU       S 1444  38.901  16.715   7.179
    3AU     LIG 1445  38.585  16.367   7.115
    3AU     LIG 1446  38.393  15.965   6.937
    3AU     LIG 1447  38.319  15.522   6.781
    3AU     LIG 1448  38.224  15.051   6.802
    3AU     LIG 1449  38.062  14.599   6.739
    3AU       S 1450  38.922  16.694   7.732
    3AU     LIG 1451  38.832  16.178   7.740
    3AU     LIG 1452  38.906  15.772   7.976
    3AU     LIG 1453  39.145  15.451   8.249
    3AU     LIG 1454  39.354  15.047   8.383
    3AU     LIG 1455  39.478  14.650   8.139
    3AU    AUSL 1456  38.767  18.568   6.875
    3AU    AUSL 1457  39.294  18.538   7.280
    3AU     AUL 1458  39.109  18.696   6.943
    3AU       S 1459  38.726  18.797   6.675
    3AU     LIG 1460  39.053  19.078   6.485
    3AU     LIG 1461  39.083  19.523   6.323
    3AU     LIG 1462  39.053  19.804   5.941
    3AU     LIG 1463  38.987  20.196   5.685
    3AU     LIG 1464  38.941  20.651   5.570
    3AU       S 1465  39.515  18.723   7.150
    3AU     LIG 1466  39.944  18.859   6.913
    3AU     LIG 1467  40.175  18.900   6.486
    3AU     LIG 1468  40.454  19.158   6.175
    3AU     LIG 1469  40.805  19.493   6.083
    3AU     LIG 1470  41.098  19.814   5.858
    3AU    AUSL 1471  38.604  18.514   7.293
    3AU    AUSL 1472  38.531  18.239   6.959
    3AU     AUL 1473  38.455  18.674   7.058
    3AU       S 1474  38.644  19.032   6.864
    3AU     LIG 1475  38.677  19.458   6.661
    3AU     LIG 1476  38.914  19.845   6.697
    3AU     LIG 1477  38.792  20.293   6.656
    3AU     LIG 1478  38.361  20.540   6.681
    3AU     LIG 1479  38.001  20.877   6.597
    3AU       S 1480  38.325  18.472   6.668
    3AU     LIG 1481  38.358  18.651   6.264
    3AU     LIG 1482  38.101  18.938   5.988
    3AU     LIG 1483  37.929  19.318   5.730
    3AU     LIG 1484  37.845  19.498   5.275
    3AU     LIG 1485  37.632  19.621   4.848
    3AU    AUSL 1486  38.820  17.114   6.929
    3AU    AUSL 1487  38.227  17.131   7.252
    3AU     AUL 1488  38.492  16.974   6.997
    3AU       S 1489  38.034  17.064   7.035
    3AU     LIG 1490  37.660  16.797   7.017
    3AU     LIG 1491  37.311  16.493   6.937
    3AU     LIG 1492  37.070  16.216   6.632
    3AU     LIG 1493  36.673  15.971   6.486
    3AU     LIG 1494  36.423  15.562   6.405
    3AU       S 1495  38.903  16.722   6.968
    3AU     LIG 1496  38.986  16.359   6.692
    3AU     LIG 1497  38.843  15.914   6.690
    3AU     LIG 1498  38.745  15.522   6.465
    3AU     LIG 1499  38.751  15.301   6.041
    3AU     LIG 1500  38.730  15.120   5.598
    3AU    AUSL 1501  39.061  17.139   7.300
    3AU    AUSL 1502  39.062  17.457   6.957
    3AU     AUL 1503  39.144  17.107   6.906
    3AU       S 1504  39.136  16.791   7.246
    3AU     LIG 1505  39.103  16.278   7.174
    3AU     LIG 1506  38.838  15.917   7.197
    3AU     LIG 1507  38.783  15.498   6.992
    3AU     LIG 1508  38.959  15.132   6.763
    3AU     LIG 1509  39.322  14.832   6.755
    3AU       S 1510  39.408  17.289   6.590
    3AU     LIG 1511  39.304  16.818   6.550
    3AU     LIG 1512  39.467  16.411   6.454
    3AU     LIG 1513  39.648  16.084   6.149
    3AU     LIG 1514  39.816  15.894   5.754
    3AU     LIG 1515  39.970  15.948   5.308
    4AU     AUC 1516  11.825   1.100   7.511
    4AU     AUC 1517  12.095   1.117   7.331
    4AU     AUC 1518  12.102   1.101   7.680
    4AU     AUC 1519  11.536   1.087   7.341
    4AU     AUC 1520  11.568   1.128   7.700
    4AU     AUC 1521  11.641   1.372   7.513
    4AU     AUC 1522  12.010   1.384   7.500
    4AU     AUC 1523  11.641   0.825   7.517
    4AU     AUC 1524  11.990   0.811   7.511
    4AU     AUC 1525  11.832   0.933   7.794
    4AU     AUC 1526  11.823   1.277   7.783
    4AU     AUC 1527  11.819   0.930   7.232
    4AU     AUC 1528  11.833   1.253   7.232
    4AU     AUC 1529  12.404   1.124   7.155
    4AU     AUC 1530  12.431   1.075   7.514
    4AU     AUC 1531  12.387   1.083   7.848
    4AU     AUC 1532  11.235   1.072   7.168
    4AU     AUC 1533  11.216   1.116   7.530
    4AU     AUC 1534  11.273   1.143   7.895
    4AU     AUC 1535  11.461   1.674   7.499
    4AU     AUC 1536  11.817   1.705   7.470
    4AU     AUC 1537  12.189   1.670   7.486
    4AU     AUC 1538  11.440   0.542   7.524
    4AU     AUC 1539  11.800   0.498   7.505
    4AU     AUC 1540  12.154   0.510   7.499
    4AU     AUC 1541  11.824   0.763   8.086
    4AU     AUC 1542  11.865   1.135   8.122
    4AU     AUC 1543  11.846   1.469   8.063
    4AU     AUC 1544  11.846   0.754   6.956
    4AU     AUC 1545  11.826   1.093   6.897
    4AU     AUC 1546  11.809   1.420   6.930
    4AU     AUC 1547  12.118   0.918   8.005
    4AU     AUC 1548  12.150   1.290   7.985
    4AU     AUC 1549  12.147   0.964   6.997
    4AU     AUC 1550  12.136   1.288   7.033
    4AU     AUC 1551  11.529   0.955   8.028
    4AU     AUC 1552  11.549   1.313   8.007
    4AU     AUC 1553  11.521   0.898   7.050
    4AU     AUC 1554  11.495   1.224   7.005
    4AU     AUC 1555  12.351   1.388   7.350
    4AU     AUC 1556  12.325   1.398   7.680
    4AU     AUC 1557  11.333   1.385   7.328
    4AU     AUC 1558  11.334   1.429   7.698
    4AU     AUC 1559  12.290   0.799   7.328
    4AU     AUC 1560  12.270   0.753   7.695
    4AU     AUC 1561  11.308   0.774   7.357
    4AU     AUC 1562  11.369   0.833   7.715
    4AU     AUC 1563  11.634   1.627   7.785
    4AU     AUC 1564  12.002   1.589   7.754
    4AU     AUC 1565  11.622   0.631   7.814
    4AU     AUC 1566  11.966   0.591   7.795
    4AU     AUC 1567  11.640   1.528   7.197
    4AU     AUC 1568  12.022   1.581   7.202
    4AU     AUC 1569  11.635   0.616   7.220
    4AU     AUC 1570  12.024   0.641   7.209
    4AU    AUSL 1571  12.414   1.065   8.190
    4AU    AUSL 1572  12.114   0.605   8.189
    4AU     AUL 1573  12.456   0.657   8.341
    4AU       S 1574  12.436   0.228   8.186
    4AU     LIG 1575  12.337   0.153   8.559
    4AU     LIG 1576  12.521  44.834   8.814
    4AU     LIG 1577  12.728  44.459   8.988
    4AU     LIG 1578  12.987  44.237   9.310
    4AU     LIG 1579  13.229  44.163   9.700
    4AU       S 1580  12.674   1.046   8.249
    4AU     LIG 1581  12.658   0.968   8.715
    4AU     LIG 1582  12.767   0.830   9.172
    4AU     LIG 1583  13.061   0.807   9.572
    4AU     LIG 1584  13.420   0.832   9.916
    4AU     LIG 1585  13.779   0.910  10.238
    4AU    AUSL 1586  12.032   0.970   8.388
    4AU    AUSL 1587  11.729   1.292   8.415
    4AU     AUL 1588  11.941   1.276   8.736
    4AU       S 1589  12.176   0.928   8.564
    4AU     LIG 1590  12.014   0.678   8.886
    4AU     LIG 1591  12.221   0.491   9.285
    4AU     LIG 1592  12.359   0.331   9.731
    4AU     LIG 1593  12.502   0.276  10.191
    4AU     LIG 1594  12.743   0.223  10.600
    4AU       S 1595  11.578   1.010   8.679
    4AU     LIG 1596  11.586   0.894   9.141
    4AU     LIG 1597  11.285   0.941   9.508
    4AU     LIG 1598  11.097   1.030   9.944
    4AU     LIG 1599  11.115   1.333  10.339
    4AU     LIG 1600  11.216   1.624  10.727
    4AU    AUSL 1601  12.128   1.392   8.332
    4AU    AUSL 1602  12.472   1.468   8.053
    4AU     AUL 1603  12.419   1.353   8.467
    4AU       S 1604  11.991   1.690   8.468
    4AU     LIG 1605  12.248   1.665   8.854
    4AU     LIG 1606  12.462   1.705   9.298
    4AU     LIG 1607  12.557   1.717   9.793
    4AU     LIG 1608  12.607   1.764  10.281
    4AU     LIG 1609  12.705   1.769  10.756
    4AU       S 1610  12.525   1.735   8.231
    4AU     LIG 1611  12.914   1.504   8.294
    4AU     LIG 1612  13.229   1.654   8.623
    4AU     LIG 1613  13.503   1.861   8.960
    4AU     LIG 1614  13.746   2.035   9.329
    4AU     LIG 1615  14.157   2.023   9.580
    4AU    AUSL 1616  12.350   1.248   6.766
    4AU    AUSL 1617  12.127   1.565   6.972
    4AU     AUL 1618  12.267   1.622   6.629
    4AU       S 1619  12.295   1.291   6.318
    4AU     LIG 1620  12.689   1.152   6.120
    4AU     LIG 1621  12.819   0.846   5.803
    4AU     LIG 1622  12.937   0.725   5.363
    4AU     LIG 1623  13.292   0.622   5.047
    4AU     LIG 1624  13.704   0.662   4.795
    4AU       S 1625  12.593   1.832   6.893
    4AU     LIG 1626  12.653   2.015   6.499
    4AU     LIG 1627  12.875   2.174   6.106
    4AU     LIG 1628  13.034   2.256   5.669
    4AU     LIG 1629  13.061   2.554   5.300
    4AU     LIG 1630  13.222   2.869   4.976
    4AU    AUSL 1631  12.126   0.917   6.612
    4AU    AUSL 1632  12.493   0.876   6.923
    4AU     AUL 1633  12.547   1.016   6.617
    4AU       S 1634  12.620   0.564   6.688
    4AU     LIG 1635  12.724   0.221   6.365
    4AU     LIG 1636  12.978  44.839   6.242
    4AU     LIG 1637  13.236  44.571   5.945
    4AU     LIG 1638  13.646  44.479   5.725
    4AU     LIG 1639  14.122  44.416   5.695
    4AU       S 1640  12.223   1.127   6.300
    4AU     LIG 1641  12.356   0.750   6.106
    4AU     LIG 1642  12.432   0.535   5.672
    4AU     LIG 1643  12.484   0.534   5.192
    4AU     LIG 1644  12.579   0.439   4.724
    4AU     LIG 1645  12.777   0.500   4.286
    4AU    AUSL 1646  11.926   1.295   6.699
    4AU    AUSL 1647  11.717   0.891   6.743
    4AU     AUL 1648  11.855   0.912   6.449
    4AU       S 1649  11.416   0.914   6.309
    4AU     LIG 1650  11.513   0.710   5.943
    4AU     LIG 1651  11.263   0.456   5.651
    4AU     LIG 1652  11.070   0.477   5.239
    4AU     LIG 1653  10.926   0.304   4.839
    4AU     LIG 1654  10.873   0.230   4.378
    4AU       S 1655  11.967   1.361   6.374
    4AU     LIG 1656  11.984   1.191   5.892
    4AU     LIG 1657  12.366   1.047   5.622
    4AU     LIG 1658  12.555   1.063   5.173
    4AU     LIG 1659  12.532   1.319   4.749
    4AU     LIG 1660  12.612   1.473   4.297
    4AU    AUSL 1661  11.329   1.205   8.289
    4AU    AUSL 1662  11.585   1.558   8.123
    4AU     AUL 1663  11.476   1.509   8.477
    4AU       S 1664  11.404   1.130   8.743
    4AU     LIG 1665  11.096   0.884   8.939
    4AU     LIG 1666  10.838   0.765   9.318
    4AU     LIG 1667  10.672   0.770   9.754
    4AU     LIG 1668  10.305   0.790  10.033
    4AU     LIG 1669  10.011   0.666  10.368
    4AU       S 1670  11.139   1.775   8.255
    4AU     LIG 1671  11.246   1.927   8.660
    4AU     LIG 1672  11.132   2.175   9.027
    4AU     LIG 1673  10.812   2.439   9.223
    4AU     LIG 1674  10.627   2.621   9.612
    4AU     LIG 1675  10.490   2.850  10.007
    4AU    AUSL 1676  11.646   0.920   8.209
    4AU    AUSL 1677  11.181   0.845   8.114
    4AU     AUL 1678  11.208   0.906   8.393
    4AU       S 1679  11.017   0.478   8.260
    4AU     LIG 1680  10.600   0.509   8.165
    4AU     LIG 1681  10.330   0.161   8.283
    4AU     LIG 1682  10.141  44.905   8.624
    4AU     LIG 1683   9.891  44.626   8.907
    4AU     LIG 1684   9.669  44.391   9.250
    4AU       S 1685  11.631   0.843   8.584
    4AU     LIG 1686  11.444   0.525   8.808
    4AU     LIG 1687  11.269   0.483   9.245
    4AU     LIG 1688  11.104   0.493   9.696
    4AU     LIG 1689  10.875   0.400  10.104
    4AU     LIG 1690  10.792   0.253  10.556
    4AU    AUSL 1691  11.292   0.947   6.784
    4AU    AUSL 1692  11.507   0.593   6.960
    4AU     AUL 1693  11.544   0.595   6.631
    4AU       S 1694  11.239   0.835   6.382
    4AU     LIG 1695  10.996   0.718   6.022
    4AU     LIG 1696  10.787   0.716   5.606
    4AU     LIG 1697  10.606   0.735   5.170
    4AU     LIG 1698  10.213   0.843   4.904
    4AU     LIG 1699   9.892   1.126   4.688
    4AU       S 1700  11.138   0.432   6.783
    4AU     LIG 1701  10.867   0.085   6.609
    4AU     LIG 1702  10.564  44.752   6.440
    4AU     LIG 1703  10.276  44.524   6.135
    4AU     LIG 1704  10.012  44.292   5.821
    4AU     LIG 1705   9.987  44.025   5.432
    4AU    AUSL 1706  11.517   1.267   6.607
    4AU    AUSL 1707  11.161   1.344   6.916
    4AU     AUL 1708  11.081   1.180   6.629
    4AU       S 1709  11.188   1.617   6.681
    4AU     LIG 1710  10.796   1.653   6.587
    4AU     LIG 1711  10.612   1.911   6.241
    4AU     LIG 1712  10.470   2.142   5.854
    4AU     LIG 1713  10.178   2.248   5.487
    4AU     LIG 1714   9.806   2.409   5.229
    4AU       S 1715  11.469   1.193   6.353
    4AU     LIG 1716  11.251   1.170   5.922
    4AU     LIG 1717  11.232   0.949   5.503
    4AU     LIG 1718  11.115   0.967   5.039
    4AU     LIG 1719  11.178   1.236   4.635
    4AU     LIG 1720  11.197   1.451   4.201
    4AU    AUSL 1721  12.603   1.557   7.516
    4AU    AUSL 1722  12.519   1.422   7.111
    4AU     AUL 1723  12.864   1.696   7.313
    4AU       S 1724  12.618   1.594   6.947
    4AU     LIG 1725  12.755   1.495   6.531
    4AU     LIG 1726  13.070   1.725   6.268
    4AU     LIG 1727  13.371   2.006   6.013
    4AU     LIG 1728  13.746   2.024   5.694
    4AU     LIG 1729  14.159   2.118   5.455
    4AU       S 1730  13.053   1.395   7.644
    4AU     LIG 1731  13.396   1.662   7.562
    4AU     LIG 1732  13.863   1.750   7.529
    4AU     LIG 1733  14.322   1.856   7.456
    4AU     LIG 1734  14.637   2.214   7.445
    4AU     LIG 1735  14.759   2.692   7.487
    4AU    AUSL 1736  12.773   1.173   7.341
    4AU    AUSL 1737  12.739   0.829   7.671
    4AU     AUL 1738  13.057   0.847   7.498
    4AU       S 1739  12.950   1.264   7.409
    4AU     LIG 1740  13.417   1.191   7.357
    4AU     LIG 1741  13.884   1.282   7.313
    4AU     LIG 1742  14.350   1.383   7.244
    4AU     LIG 1743  14.775   1.583   7.203
    4AU     LIG 1744  15.242   1.723   7.203
    4AU       S 1745  12.942   0.412   7.648
    4AU     LIG 1746  13.325   0.364   7.840
    4AU     LIG 1747  13.749   0.180   7.758
    4AU     LIG 1748  14.196   0.024   7.676
    4AU     LIG 1749  14.611  44.986   7.900
    4AU     LIG 1750  14.964  44.904   8.206
    4AU    AUSL 1751  12.566   1.204   7.744
    4AU    AUSL 1752  12.381   1.807   7.776
    4AU     AUL 1753  12.698   1.630   7.816
    4AU       S 1754  12.584   2.004   8.081
    4AU     LIG 1755  12.968   2.014   8.332
    4AU     LIG 1756  13.251   2.200   8.657
    4AU     LIG 1757  13.483   2.590   8.810
    4AU     LIG 1758  13.635   3.051   8.723
    4AU     LIG 1759  13.852   3.483   8.733
    4AU       S 1760  12.909   1.225   7.821
    4AU     LIG 1761  13.319   1.219   8.015
    4AU     LIG 1762  13.721   1.323   7.807
    4AU     LIG 1763  14.188   1.393   7.733
    4AU     LIG 1764  14.634   1.534   7.708
    4AU     LIG 1765  14.969   1.839   7.628
    4AU    AUSL 1766  11.125   1.640   7.543
    4AU    AUSL 1767  11.214   1.417   7.940
    4AU     AUL 1768  10.886   1.724   7.805
    4AU       S 1769  11.060   1.559   8.195
    4AU     LIG 1770  10.992   1.465   8.638
    4AU     LIG 1771  10.805   1.780   8.952
    4AU     LIG 1772  10.502   2.019   9.250
    4AU     LIG 1773  10.138   2.097   9.567
    4AU     LIG 1774   9.725   2.218   9.781
    4AU       S 1775  11.086   2.005   7.472
    4AU     LIG 1776  10.612   1.908   7.409
    4AU     LIG 1777  10.182   2.187   7.427
    4AU     LIG 1778   9.824   2.568   7.420
    4AU     LIG 1779   9.484   2.946   7.409
    4AU     LIG 1780   9.072   3.061   7.622
    4AU    AUSL 1781  11.104   1.271   7.322
    4AU    AUSL 1782  11.247   1.712   7.145
    4AU     AUL 1783  10.938   1.572   7.165
    4AU       S 1784  10.755   1.121   6.985
    4AU     LIG 1785  10.431   1.455   6.927
    4AU     LIG 1786   9.924   1.499   6.867
    4AU     LIG 1787   9.417   1.549   6.793
    4AU     LIG 1788   8.992   1.822   6.736
    4AU     LIG 1789   8.605   2.144   6.723
    4AU       S 1790  11.046   1.983   6.935
    4AU     LIG 1791  11.029   2.114   6.483
    4AU     LIG 1792  10.793   2.412   6.180
    4AU     LIG 1793  10.664   2.808   5.930
    4AU     LIG 1794  10.428   3.235   5.870
    4AU     LIG 1795  10.004   3.456   5.784
    4AU    AUSL 1796  10.887   1.285   7.715
    4AU    AUSL 1797  10.863   0.939   7.398
    4AU     AUL 1798  10.704   1.277   7.434
    4AU       S 1799  10.595   0.838   7.599
    4AU     LIG 1800  10.229   0.665   7.365
    4AU     LIG 1801   9.789   0.473   7.314
    4AU     LIG 1802   9.327   0.558   7.250
    4AU     LIG 1803   8.891   0.431   7.199
    4AU     LIG 1804   8.452   0.365   7.167
    4AU       S 1805  10.775   1.225   7.951
    4AU     LIG 1806  10.439   1.489   7.854
    4AU     LIG 1807  10.012   1.623   7.908
    4AU     LIG 1808   9.639   1.810   8.117
    4AU     LIG 1809   9.173   1.914   8.167
    4AU     LIG 1810   8.736   1.927   8.030
    4AU    AUSL 1811  12.482   0.514   7.539
    4AU    AUSL 1812  12.370   0.784   7.885
    4AU     AUL 1813  12.684   0.683   7.917
    4AU       S 1814  12.662   0.326   7.534
    4AU     LIG 1815  13.051  44.940   7.563
    4AU     LIG 1816  13.523  44.776   7.522
    4AU     LIG 1817  13.991  44.579   7.508
    4AU     LIG 1818  14.423  44.328   7.587
    4AU     LIG 1819  14.819  44.076   7.597
    4AU       S 1820  12.594   0.256   8.036
    4AU     LIG 1821  12.815  44.971   8.351
    4AU     LIG 1822  13.025  44.757   8.685
    4AU     LIG 1823  13.261  44.518   8.987
    4AU     LIG 1824  13.512  44.461   9.369
    4AU     LIG 1825  13.939  44.580   9.535
    4AU    AUSL 1826  12.468   0.892   7.339
    4AU    AUSL 1827  12.435   0.489   7.122
    4AU     AUL 1828  12.711   0.717   7.179
    4AU       S 1829  12.914   0.390   7.407
    4AU     LIG 1830  13.397   0.274   7.344
    4AU     LIG 1831  13.854   0.076   7.265
    4AU     LIG 1832  14.281  44.864   7.174
    4AU     LIG 1833  14.698  44.840   6.937
    4AU     LIG 1834  15.113   0.048   6.758
    4AU       S 1835  12.637   0.378   6.851
    4AU     LIG 1836  12.616  44.924   6.784
    4AU     LIG 1837  12.797  44.514   6.599
    4AU     LIG 1838  13.053  44.239   6.305
    4AU     LIG 1839  13.329  43.894   6.121
    4AU     LIG 1840  13.748  43.675   6.126
    4AU    AUSL 1841  11.048   0.579   7.563
    4AU    AUSL 1842  11.185   0.805   7.162
    4AU     AUL 1843  10.831   0.657   7.239
    4AU       S 1844  11.032   0.572   6.839
    4AU     LIG 1845  10.612   0.531   6.754
    4AU     LIG 1846  10.332   0.181   6.629
    4AU     LIG 1847  10.034  44.854   6.451
    4AU     LIG 1848   9.746  44.620   6.138
    4AU     LIG 1849   9.459  44.574   5.752
    4AU       S 1850  10.641   0.548   7.657
    4AU     LIG 1851  10.413   0.204   7.534
    4AU     LIG 1852   9.990   0.045   7.529
    4AU     LIG 1853   9.526   0.089   7.592
    4AU     LIG 1854   9.152  44.779   7.637
    4AU     LIG 1855   8.998  44.382   7.411
    4AU    AUSL 1856  11.160   0.974   7.715
    4AU    AUSL 1857  11.369   0.589   7.834
    4AU     AUL 1858  10.972   0.760   7.897
    4AU       S 1859  11.076   0.335   8.021
    4AU     LIG 1860  10.735   0.073   7.928
    4AU     LIG 1861  10.428  44.734   8.016
    4AU     LIG 1862  10.199  44.479   8.341
    4AU     LIG 1863   9.980  44.189   8.645
    4AU     LIG 1864   9.645  43.859   8.721
    4AU       S 1865  10.557   0.852   7.742
    4AU     LIG 1866  10.157   1.088   7.690
    4AU     LIG 1867   9.764   0.903   7.570
    4AU     LIG 1868   9.427   0.630   7.737
    4AU     LIG 1869   9.073   0.315   7.665
    4AU     LIG 1870   8.617   0.407   7.663
    4AU    AUSL 1871  11.789   1.907   7.989
    4AU    AUSL 1872  11.370   1.806   7.851
    4AU     AUL 1873  11.588   1.902   8.235
    4AU       S 1874  11.238   2.005   7.950
    4AU     LIG 1875  11.126   2.283   8.307
    4AU     LIG 1876  10.881   2.472   8.685
    4AU     LIG 1877  10.684   2.853   8.917
    4AU     LIG 1878  10.461   3.291   8.939
    4AU     LIG 1879  10.110   3.647   8.964
    4AU       S 1880  11.786   2.253   7.973
    4AU     LIG 1881  11.962   2.278   8.358
    4AU     LIG 1882  12.085   2.700   8.518
    4AU     LIG 1883  12.130   3.150   8.676
    4AU     LIG 1884  12.030   3.422   9.062
    4AU     LIG 1885  12.108   3.620   9.492
    4AU    AUSL 1886  11.601   2.039   7.595
    4AU    AUSL 1887  11.976   2.012   7.226
    4AU     AUL 1888  11.674   2.256   7.336
    4AU       S 1889  11.667   2.330   7.797
    4AU     LIG 1890  11.839   2.737   8.044
    4AU     LIG 1891  11.885   3.167   8.224
    4AU     LIG 1892  11.879   3.618   8.330
    4AU     LIG 1893  11.548   3.961   8.306
    4AU     LIG 1894  11.255   4.339   8.336
    4AU       S 1895  11.892   2.310   6.930
    4AU     LIG 1896  12.274   2.518   6.946
    4AU     LIG 1897  12.431   2.962   6.867
    4AU     LIG 1898  12.521   3.439   6.788
    4AU     LIG 1899  12.797   3.865   6.812
    4AU     LIG 1900  12.754   4.357   6.819
    4AU    AUSL 1901  11.997   1.850   7.615
    4AU    AUSL 1902  12.064   1.593   7.981
    4AU     AUL 1903  12.129   1.945   8.000
    4AU       S 1904  12.417   1.848   8.344
    4AU     LIG 1905  12.718   1.759   8.701
    4AU     LIG 1906  12.992   1.934   9.023
    4AU     LIG 1907  13.275   2.277   9.193
    4AU     LIG 1908  13.288   2.635   9.511
    4AU     LIG 1909  13.193   2.995   9.823
    4AU       S 1910  12.026   2.243   7.666
    4AU     LIG 1911  12.276   2.468   7.997
    4AU     LIG 1912  12.345   2.940   8.151
    4AU     LIG 1913  12.382   3.426   8.271
    4AU     LIG 1914  12.635   3.880   8.250
    4AU     LIG 1915  12.894   4.322   8.182
    4AU    AUSL 1916  11.786   0.455   7.951
    4AU    AUSL 1917  12.201   0.392   7.824
    4AU     AUL 1918  11.980   0.312   8.207
    4AU       S 1919  11.849  44.911   8.021
    4AU     LIG 1920  11.582  44.786   8.355
    4AU     LIG 1921  11.488  44.324   8.416
    4AU     LIG 1922  11.442  43.842   8.445
    4AU     LIG 1923  11.492  43.398   8.625
    4AU     LIG 1924  11.515  43.167   9.051
    4AU       S 1925  12.339   0.203   7.901
    4AU     LIG 1926  12.346  44.756   8.134
    4AU     LIG 1927  12.639  44.491   8.439
    4AU     LIG 1928  13.011  44.227   8.622
    4AU     LIG 1929  13.265  43.819   8.726
    4AU     LIG 1930  13.450  43.354   8.722
    4AU    AUSL 1931  11.478   0.220   7.690
    4AU    AUSL 1932  11.497   0.535   8.247
    4AU     AUL 1933  11.522   0.248   8.042
    4AU       S 1934  11.610  44.833   7.853
    4AU     LIG 1935  11.271  44.581   8.000
    4AU     LIG 1936  11.203  44.119   8.039
    4AU     LIG 1937  11.301  43.668   7.975
    4AU     LIG 1938  11.292  43.227   8.119
    4AU     LIG 1939  11.266  42.933   8.480
    4AU       S 1940  11.224   0.410   8.364
    4AU     LIG 1941  11.045  44.960   8.351
    4AU     LIG 1942  10.635  44.754   8.494
    4AU     LIG 1943  10.391  44.490   8.822
    4AU     LIG 1944  10.152  44.232   9.143
    4AU     LIG 1945   9.951  44.056   9.543
    4AU    AUSL 1946  11.901   0.171   7.637
    4AU    AUSL 1947  11.662   0.383   7.335
    4AU     AUL 1948  11.546   0.048   7.447
    4AU       S 1949  11.901  44.942   7.190
    4AU     LIG 1950  11.501  44.681   7.120
    4AU     LIG 1951  11.437  44.226   7.117
    4AU     LIG 1952  11.344  43.782   6.962
    4AU     LIG 1953  11.190  43.383   6.728
    4AU     LIG 1954  10.992  42.945   6.733
    4AU       S 1955  11.917  44.950   7.764
    4AU     LIG 1956  11.895  44.432   7.846
    4AU     LIG 1957  11.723  43.998   8.036
    4AU     LIG 1958  11.763  43.509   8.180
    4AU     LIG 1959  12.050  43.107   8.289
    4AU     LIG 1960  12.207  42.630   8.366
    4AU    AUSL 1961  11.802   1.809   6.873
    4AU    AUSL 1962  12.323   1.780   7.290
    4AU     AUL 1963  12.145   1.935   6.943
    4AU       S 1964  11.772   2.029   6.667
    4AU     LIG 1965  12.147   2.277   6.508
    4AU     LIG 1966  12.185   2.764   6.449
    4AU     LIG 1967  12.012   3.195   6.271
    4AU     LIG 1968  11.887   3.493   5.903
    4AU     LIG 1969  11.734   3.808   5.570
    4AU       S 1970  12.525   1.969   7.190
    4AU     LIG 1971  12.966   2.119   6.975
    4AU     LIG 1972  13.166   2.178   6.539
    4AU     LIG 1973  13.374   2.517   6.268
    4AU     LIG 1974  13.567   2.984   6.267
    4AU     LIG 1975  13.869   3.323   6.122
    4AU    AUSL 1976  11.637   1.761   7.292
    4AU    AUSL 1977  11.566   1.481   6.962
    4AU     AUL 1978  11.491   1.919   7.048
    4AU       S 1979  11.699   2.276   6.861
    4AU     LIG 1980  11.817   2.777   6.808
    4AU     LIG 1981  11.990   3.216   6.784
    4AU     LIG 1982  11.906   3.631   6.598
    4AU     LIG 1983  11.493   3.875   6.595
    4AU     LIG 1984  11.174   4.209   6.431
    4AU       S 1985  11.358   1.718   6.659
    4AU     LIG 1986  11.281   1.744   6.207
    4AU     LIG 1987  11.019   2.022   5.930
    4AU     LIG 1988  10.879   2.387   5.662
    4AU     LIG 1989  10.725   2.655   5.317
    4AU     LIG 1990  10.671   3.079   5.113
    4AU    AUSL 1991  11.849   0.343   6.941
    4AU    AUSL 1992  11.254   0.379   7.248
    4AU     AUL 1993  11.519   0.218   7.003
    4AU       S 1994  11.062   0.310   7.033
    4AU     LIG 1995  10.645   0.128   7.072
    4AU     LIG 1996  10.368  44.760   6.923
    4AU     LIG 1997  10.206  44.406   6.635
    4AU     LIG 1998   9.932  44.156   6.327
    4AU     LIG 1999   9.648  43.765   6.250
    4AU       S 2000  11.906  44.935   6.963
    4AU     LIG 2001  11.804  44.544   6.730
    4AU     LIG 2002  11.580  44.144   6.629
    4AU     LIG 2003  11.558  43.696   6.504
    4AU     LIG 2004  11.401  43.409   6.166
    4AU     LIG 2005  11.498  43.300   5.706
    4AU    AUSL 2006  12.090   0.364   7.318
    4AU    AUSL 2007  12.090   0.683   6.954
    4AU     AUL 2008  12.191   0.300   6.959
    4AU       S 2009  12.118  44.958   7.272
    4AU     LIG 2010  11.954  44.444   7.216
    4AU     LIG 2011  11.883  43.962   7.012
    4AU     LIG 2012  12.022  43.463   6.905
    4AU     LIG 2013  12.239  42.983   6.880
    4AU     LIG 2014  12.542  42.619   6.709
    4AU       S 2015  12.375   0.525   6.606
    4AU     LIG 2016  12.233   0.109   6.497
    4AU     LIG 2017  12.460  44.753   6.289
    4AU     LIG 2018  12.715  44.468   5.992
    4AU     LIG 2019  12.966  44.227   5.648
    4AU     LIG 2020  13.022  44.108   5.177
    5AU     AUC 2021  32.314   3.245   7.509
    5AU     AUC 2022  32.592   3.255   7.339
    5AU     AUC 2023  32.589   3.236   7.689
    5AU     AUC 2024  32.031   3.242   7.330
    5AU     AUC 2025  32.052   3.284   7.686
    5AU     AUC 2026  32.141   3.530   7.499
    5AU     AUC 2027  32.508   3.520   7.504
    5AU     AUC 2028  32.123   2.977   7.508
    5AU     AUC 2029  32.473   2.954   7.512
    5AU     AUC 2030  32.307   3.079   7.792
    5AU     AUC 2031  32.305   3.420   7.776
    5AU     AUC 2032  32.312   3.077   7.229
    5AU     AUC 2033  32.337   3.396   7.235
    5AU     AUC 2034  32.908   3.257   7.172
    5AU     AUC 2035  32.924   3.203   7.534
    5AU     AUC 2036  32.868   3.206   7.868
    5AU     AUC 2037  31.732   3.231   7.149
    5AU     AUC 2038  31.705   3.280   7.509
    5AU     AUC 2039  31.750   3.313   7.868
    5AU     AUC 2040  31.973   3.839   7.468
    5AU     AUC 2041  32.329   3.850   7.464
    5AU     AUC 2042  32.701   3.800   7.499
    5AU     AUC 2043  31.916   2.701   7.510
    5AU     AUC 2044  32.276   2.648   7.499
    5AU     AUC 2045  32.629   2.650   7.504
    5AU     AUC 2046  32.281   2.914   8.083
    5AU     AUC 2047  32.328   3.282   8.123
    5AU     AUC 2048  32.324   3.613   8.062
    5AU     AUC 2049  32.345   2.903   6.953
    5AU     AUC 2050  32.335   3.235   6.893
    5AU     AUC 2051  32.323   3.555   6.935
    5AU     AUC 2052  32.582   3.055   8.012
    5AU     AUC 2053  32.627   3.418   7.999
    5AU     AUC 2054  32.651   3.104   7.004
    5AU     AUC 2055  32.645   3.424   7.044
    5AU     AUC 2056  31.995   3.115   8.012
    5AU     AUC 2057  32.027   3.478   7.987
    5AU     AUC 2058  32.019   3.052   7.036
    5AU     AUC 2059  32.000   3.371   6.992
    5AU     AUC 2060  32.853   3.519   7.369
    5AU     AUC 2061  32.820   3.519   7.702
    5AU     AUC 2062  31.828   3.544   7.311
    5AU     AUC 2063  31.833   3.596   7.670
    5AU     AUC 2064  32.778   2.937   7.338
    5AU     AUC 2065  32.748   2.888   7.704
    5AU     AUC 2066  31.792   2.937   7.341
    5AU     AUC 2067  31.844   2.994   7.698
    5AU     AUC 2068  32.143   3.784   7.767
    5AU     AUC 2069  32.506   3.722   7.758
    5AU     AUC 2070  32.091   2.785   7.805
    5AU     AUC 2071  32.436   2.736   7.796
    5AU     AUC 2072  32.145   3.684   7.193
    5AU     AUC 2073  32.522   3.724   7.210
    5AU     AUC 2074  32.121   2.770   7.211
    5AU     AUC 2075  32.513   2.785   7.211
    5AU    AUSL 2076  32.857   3.178   8.216
    5AU    AUSL 2077  32.568   2.756   8.189
    5AU     AUL 2078  32.893   2.773   8.354
    5AU       S 2079  32.876   2.341   8.206
    5AU     LIG 2080  32.778   2.233   8.570
    5AU     LIG 2081  32.994   1.926   8.825
    5AU     LIG 2082  33.212   1.561   9.017
    5AU     LIG 2083  33.455   1.335   9.355
    5AU     LIG 2084  33.447   1.202   9.816
    5AU       S 2085  33.134   3.151   8.280
    5AU     LIG 2086  33.101   3.059   8.738
    5AU     LIG 2087  33.175   2.932   9.196
    5AU     LIG 2088  33.372   2.790   9.616
    5AU     LIG 2089  33.689   2.779   9.984
    5AU     LIG 2090  34.066   2.837  10.274
    5AU    AUSL 2091  32.464   3.106   8.403
    5AU    AUSL 2092  32.179   3.452   8.403
    5AU     AUL 2093  32.377   3.404   8.740
    5AU       S 2094  32.620   3.045   8.592
    5AU     LIG 2095  32.703   2.694   8.836
    5AU     LIG 2096  32.800   2.586   9.289
    5AU     LIG 2097  32.924   2.542   9.752
    5AU     LIG 2098  32.996   2.351  10.187
    5AU     LIG 2099  33.115   2.422  10.636
    5AU       S 2100  31.979   3.198   8.666
    5AU     LIG 2101  31.862   3.116   9.150
    5AU     LIG 2102  31.602   3.060   9.540
    5AU     LIG 2103  31.428   3.028   9.980
    5AU     LIG 2104  31.408   3.300  10.380
    5AU     LIG 2105  31.394   3.625  10.742
    5AU    AUSL 2106  32.591   3.523   8.353
    5AU    AUSL 2107  32.952   3.576   8.091
    5AU     AUL 2108  32.873   3.455   8.494
    5AU       S 2109  32.474   3.817   8.484
    5AU     LIG 2110  32.737   3.774   8.859
    5AU     LIG 2111  32.996   3.835   9.262
    5AU     LIG 2112  32.973   3.858   9.756
    5AU     LIG 2113  32.892   3.870  10.241
    5AU     LIG 2114  32.867   3.806  10.722
    5AU       S 2115  33.027   3.833   8.278
    5AU     LIG 2116  33.379   3.590   8.381
    5AU     LIG 2117  33.707   3.757   8.688
    5AU     LIG 2118  33.995   4.021   8.977
    5AU     LIG 2119  34.256   4.308   9.250
    5AU     LIG 2120  34.583   4.347   9.592
    5AU    AUSL 2121  32.865   3.385   6.778
    5AU    AUSL 2122  32.646   3.699   6.993
    5AU     AUL 2123  32.777   3.763   6.652
    5AU       S 2124  32.821   3.442   6.332
    5AU     LIG 2125  33.199   3.295   6.129
    5AU     LIG 2126  33.276   3.009   5.793
    5AU     LIG 2127  33.381   2.840   5.378
    5AU     LIG 2128  33.702   2.812   5.036
    5AU     LIG 2129  34.108   2.845   4.789
    5AU       S 2130  33.107   3.960   6.904
    5AU     LIG 2131  33.180   4.126   6.505
    5AU     LIG 2132  33.379   4.316   6.121
    5AU     LIG 2133  33.623   4.489   5.774
    5AU     LIG 2134  33.690   4.593   5.341
    5AU     LIG 2135  33.818   4.938   5.061
    5AU    AUSL 2136  32.640   3.057   6.616
    5AU    AUSL 2137  32.997   3.011   6.940
    5AU     AUL 2138  33.047   3.138   6.619
    5AU       S 2139  33.172   2.697   6.721
    5AU     LIG 2140  33.319   2.325   6.436
    5AU     LIG 2141  33.554   1.934   6.263
    5AU     LIG 2142  33.783   1.682   5.925
    5AU     LIG 2143  34.088   1.731   5.552
    5AU     LIG 2144  34.406   1.842   5.209
    5AU       S 2145  32.733   3.307   6.309
    5AU     LIG 2146  32.821   2.921   6.100
    5AU     LIG 2147  32.892   2.707   5.647
    5AU     LIG 2148  32.951   2.620   5.170
    5AU     LIG 2149  33.049   2.580   4.699
    5AU     LIG 2150  33.114   2.470   4.226
    5AU    AUSL 2151  32.442   3.435   6.711
    5AU    AUSL 2152  32.226   3.037   6.730
    5AU     AUL 2153  32.385   3.049   6.448
    5AU       S 2154  31.956   3.064   6.280
    5AU     LIG 2155  31.797   2.930   5.864
    5AU     LIG 2156  31.499   2.781   5.540
    5AU     LIG 2157  31.352   2.630   5.117
    5AU     LIG 2158  31.438   2.468   4.676
    5AU     LIG 2159  31.503   2.526   4.204
    5AU       S 2160  32.484   3.506   6.394
    5AU     LIG 2161  32.405   3.281   5.962
    5AU     LIG 2162  32.785   3.211   5.661
    5AU     LIG 2163  32.979   3.141   5.222
    5AU     LIG 2164  33.056   3.268   4.755
    5AU     LIG 2165  33.133   3.590   4.395
    5AU    AUSL 2166  31.782   3.383   8.250
    5AU    AUSL 2167  32.063   3.727   8.107
    5AU     AUL 2168  31.933   3.693   8.449
    5AU       S 2169  31.813   3.324   8.705
    5AU     LIG 2170  31.419   3.192   8.829
    5AU     LIG 2171  31.288   2.898   9.153
    5AU     LIG 2172  31.179   2.751   9.596
    5AU     LIG 2173  30.958   2.753  10.017
    5AU     LIG 2174  30.634   2.892  10.342
    5AU       S 2175  31.635   3.964   8.191
    5AU     LIG 2176  31.589   4.093   8.600
    5AU     LIG 2177  31.444   4.297   9.009
    5AU     LIG 2178  31.204   4.540   9.342
    5AU     LIG 2179  31.227   4.814   9.741
    5AU     LIG 2180  31.088   5.057  10.134
    5AU    AUSL 2181  32.092   3.084   8.196
    5AU    AUSL 2182  31.647   3.009   8.091
    5AU     AUL 2183  31.638   3.091   8.350
    5AU       S 2184  31.474   2.649   8.238
    5AU     LIG 2185  31.053   2.661   8.117
    5AU     LIG 2186  30.780   2.317   8.236
    5AU     LIG 2187  30.627   2.055   8.598
    5AU     LIG 2188  30.406   1.725   8.856
    5AU     LIG 2189  30.244   1.548   9.268
    5AU       S 2190  32.040   3.014   8.578
    5AU     LIG 2191  31.727   2.766   8.816
    5AU     LIG 2192  31.697   2.619   9.278
    5AU     LIG 2193  31.641   2.584   9.754
    5AU     LIG 2194  31.639   2.464  10.206
    5AU     LIG 2195  31.536   2.219  10.605
    5AU    AUSL 2196  31.803   3.101   6.758
    5AU    AUSL 2197  32.000   2.751   6.950
    5AU     AUL 2198  32.055   2.742   6.618
    5AU       S 2199  31.769   2.986   6.360
    5AU     LIG 2200  31.364   3.023   6.238
    5AU     LIG 2201  31.170   3.095   5.826
    5AU     LIG 2202  31.036   2.965   5.392
    5AU     LIG 2203  30.891   3.038   4.957
    5AU     LIG 2204  30.590   3.068   4.588
    5AU       S 2205  31.640   2.610   6.768
    5AU     LIG 2206  31.626   2.149   6.690
    5AU     LIG 2207  31.277   1.880   6.533
    5AU     LIG 2208  31.000   1.739   6.170
    5AU     LIG 2209  30.800   1.524   5.794
    5AU     LIG 2210  30.809   1.262   5.386
    5AU    AUSL 2211  32.037   3.423   6.589
    5AU    AUSL 2212  31.663   3.490   6.897
    5AU     AUL 2213  31.620   3.340   6.598
    5AU       S 2214  31.451   3.757   6.670
    5AU     LIG 2215  31.140   4.008   6.462
    5AU     LIG 2216  31.017   4.059   6.039
    5AU     LIG 2217  30.710   4.091   5.698
    5AU     LIG 2218  30.464   4.140   5.293
    5AU     LIG 2219  30.132   4.308   5.010
    5AU       S 2220  32.009   3.331   6.332
    5AU     LIG 2221  31.647   3.402   6.040
    5AU     LIG 2222  31.573   3.295   5.579
    5AU     LIG 2223  31.452   3.149   5.140
    5AU     LIG 2224  31.295   3.342   4.731
    5AU     LIG 2225  31.255   3.639   4.348
    5AU    AUSL 2226  33.084   3.672   7.546
    5AU    AUSL 2227  33.030   3.545   7.132
    5AU     AUL 2228  33.341   3.802   7.352
    5AU       S 2229  33.147   3.723   6.950
    5AU     LIG 2230  33.268   3.614   6.544
    5AU     LIG 2231  33.533   3.833   6.230
    5AU     LIG 2232  33.867   4.109   6.037
    5AU     LIG 2233  34.244   4.261   5.774
    5AU     LIG 2234  34.699   4.219   5.594
    5AU       S 2235  33.580   3.541   7.678
    5AU     LIG 2236  34.034   3.646   7.590
    5AU     LIG 2237  34.503   3.751   7.546
    5AU     LIG 2238  34.945   3.914   7.513
    5AU     LIG 2239  35.139   4.346   7.569
    5AU     LIG 2240  35.356   4.685   7.808
    5AU    AUSL 2241  33.276   3.303   7.380
    5AU    AUSL 2242  33.224   2.945   7.690
    5AU     AUL 2243  33.540   2.972   7.491
    5AU       S 2244  33.489   3.412   7.548
    5AU     LIG 2245  33.873   3.275   7.288
    5AU     LIG 2246  34.341   3.346   7.270
    5AU     LIG 2247  34.843   3.441   7.288
    5AU     LIG 2248  35.265   3.631   7.112
    5AU     LIG 2249  35.734   3.579   6.944
    5AU       S 2250  33.418   2.533   7.663
    5AU     LIG 2251  33.875   2.497   7.665
    5AU     LIG 2252  34.207   2.262   7.859
    5AU     LIG 2253  34.661   2.188   7.853
    5AU     LIG 2254  35.090   2.180   8.041
    5AU     LIG 2255  35.562   2.211   8.129
    5AU    AUSL 2256  33.060   3.319   7.780
    5AU    AUSL 2257  32.895   3.924   7.826
    5AU     AUL 2258  33.199   3.719   7.863
    5AU       S 2259  33.078   4.110   8.105
    5AU     LIG 2260  33.470   4.088   8.322
    5AU     LIG 2261  33.683   4.283   8.670
    5AU     LIG 2262  34.019   4.546   8.846
    5AU     LIG 2263  34.098   4.957   9.049
    5AU     LIG 2264  34.087   5.435   9.060
    5AU       S 2265  33.432   3.319   7.872
    5AU     LIG 2266  33.915   3.280   7.937
    5AU     LIG 2267  34.399   3.329   7.819
    5AU     LIG 2268  34.892   3.358   7.800
    5AU     LIG 2269  35.279   3.590   7.965
    5AU     LIG 2270  35.580   3.970   7.921
    5AU    AUSL 2271  31.641   3.818   7.496
    5AU    AUSL 2272  31.708   3.602   7.893
    5AU     AUL 2273  31.392   3.909   7.736
    5AU       S 2274  31.548   3.757   8.135
    5AU     LIG 2275  31.385   3.606   8.496
    5AU     LIG 2276  31.263   3.820   8.881
    5AU     LIG 2277  30.952   4.139   9.058
    5AU     LIG 2278  30.687   4.378   9.383
    5AU     LIG 2279  30.286   4.451   9.656
    5AU       S 2280  31.627   4.186   7.421
    5AU     LIG 2281  31.157   4.138   7.349
    5AU     LIG 2282  30.671   4.263   7.423
    5AU     LIG 2283  30.316   4.626   7.526
    5AU     LIG 2284  29.980   5.016   7.600
    5AU     LIG 2285  29.680   5.395   7.744
    5AU    AUSL 2286  31.604   3.435   7.304
    5AU    AUSL 2287  31.750   3.872   7.088
    5AU     AUL 2288  31.442   3.744   7.148
    5AU       S 2289  31.263   3.283   6.946
    5AU     LIG 2290  30.998   3.686   6.828
    5AU     LIG 2291  30.615   3.965   6.858
    5AU     LIG 2292  30.123   3.954   6.834
    5AU     LIG 2293  29.641   3.966   6.688
    5AU     LIG 2294  29.186   4.192   6.624
    5AU       S 2295  31.597   4.140   6.910
    5AU     LIG 2296  31.565   4.308   6.484
    5AU     LIG 2297  31.250   4.501   6.200
    5AU     LIG 2298  30.998   4.903   6.083
    5AU     LIG 2299  30.725   5.315   6.041
    5AU     LIG 2300  30.409   5.698   5.983
    5AU    AUSL 2301  31.375   3.463   7.686
    5AU    AUSL 2302  31.350   3.110   7.370
    5AU     AUL 2303  31.211   3.438   7.395
    5AU       S 2304  31.063   3.017   7.569
    5AU     LIG 2305  30.743   2.827   7.292
    5AU     LIG 2306  30.325   2.592   7.371
    5AU     LIG 2307  29.828   2.554   7.390
    5AU     LIG 2308  29.358   2.683   7.284
    5AU     LIG 2309  29.012   2.482   7.022
    5AU       S 2310  31.263   3.404   7.920
    5AU     LIG 2311  30.944   3.593   8.169
    5AU     LIG 2312  30.517   3.842   8.156
    5AU     LIG 2313  30.003   4.001   8.111
    5AU     LIG 2314  29.483   4.060   8.175
    5AU     LIG 2315  29.036   4.117   8.368
    5AU    AUSL 2316  32.949   2.647   7.550
    5AU    AUSL 2317  32.850   2.911   7.896
    5AU     AUL 2318  33.152   2.796   7.936
    5AU       S 2319  33.116   2.450   7.544
    5AU     LIG 2320  33.426   2.055   7.392
    5AU     LIG 2321  33.891   1.993   7.506
    5AU     LIG 2322  34.376   1.937   7.491
    5AU     LIG 2323  34.791   1.714   7.618
    5AU     LIG 2324  35.086   1.371   7.802
    5AU       S 2325  33.050   2.372   8.054
    5AU     LIG 2326  33.272   2.114   8.389
    5AU     LIG 2327  33.494   1.847   8.685
    5AU     LIG 2328  33.736   1.581   8.985
    5AU     LIG 2329  34.040   1.581   9.357
    5AU     LIG 2330  34.359   1.654   9.718
    5AU    AUSL 2331  32.964   3.028   7.355
    5AU    AUSL 2332  32.922   2.623   7.130
    5AU     AUL 2333  33.197   2.843   7.195
    5AU       S 2334  33.379   2.523   7.448
    5AU     LIG 2335  33.732   2.538   7.182
    5AU     LIG 2336  34.142   2.309   7.196
    5AU     LIG 2337  34.602   2.263   7.140
    5AU     LIG 2338  35.054   2.258   7.023
    5AU     LIG 2339  35.494   2.256   6.840
    5AU       S 2340  33.130   2.493   6.882
    5AU     LIG 2341  33.174   2.034   6.845
    5AU     LIG 2342  33.343   1.634   6.626
    5AU     LIG 2343  33.597   1.353   6.324
    5AU     LIG 2344  33.870   0.952   6.223
    5AU     LIG 2345  34.293   0.878   6.008
    5AU    AUSL 2346  31.522   2.749   7.540
    5AU    AUSL 2347  31.675   2.974   7.137
    5AU     AUL 2348  31.311   2.842   7.212
    5AU       S 2349  31.515   2.739   6.816
    5AU     LIG 2350  31.164   2.407   6.739
    5AU     LIG 2351  30.844   2.164   6.492
    5AU     LIG 2352  30.524   1.929   6.237
    5AU     LIG 2353  30.166   1.705   6.027
    5AU     LIG 2354  29.703   1.748   5.869
    5AU       S 2355  31.115   2.721   7.622
    5AU     LIG 2356  30.816   2.421   7.701
    5AU     LIG 2357  30.546   2.131   7.501
    5AU     LIG 2358  30.090   2.105   7.433
    5AU     LIG 2359  29.676   2.052   7.648
    5AU     LIG 2360  29.421   1.708   7.875
    5AU    AUSL 2361  31.638   3.143   7.694
    5AU    AUSL 2362  31.837   2.749   7.818
    5AU     AUL 2363  31.442   2.931   7.871
    5AU       S 2364  31.538   2.507   8.003
    5AU     LIG 2365  31.234   2.207   7.919
    5AU     LIG 2366  30.897   1.891   7.981
    5AU     LIG 2367  30.680   1.628   8.318
    5AU     LIG 2368  30.554   1.269   8.619
    5AU     LIG 2369  30.434   0.786   8.652
    5AU       S 2370  31.030   3.020   7.710
    5AU     LIG 2371  30.567   2.868   7.764
    5AU     LIG 2372  30.083   2.953   7.642
    5AU     LIG 2373  29.597   2.879   7.703
    5AU     LIG 2374  29.187   2.684   7.798
    5AU     LIG 2375  28.826   2.368   7.829
    5AU    AUSL 2376  32.307   4.050   7.981
    5AU    AUSL 2377  31.897   3.977   7.799
    5AU     AUL 2378  32.089   4.078   8.200
    5AU       S 2379  31.749   4.176   7.899
    5AU     LIG 2380  31.470   4.426   8.209
    5AU     LIG 2381  31.171   4.433   8.597
    5AU     LIG 2382  30.987   4.765   8.914
    5AU     LIG 2383  30.755   5.212   8.996
    5AU     LIG 2384  30.481   5.626   9.091
    5AU       S 2385  32.374   4.400   7.946
    5AU     LIG 2386  32.474   4.432   8.355
    5AU     LIG 2387  32.568   4.853   8.541
    5AU     LIG 2388  32.525   5.236   8.819
    5AU     LIG 2389  32.513   5.427   9.270
    5AU     LIG 2390  32.568   5.722   9.641
    5AU    AUSL 2391  32.168   4.204   7.573
    5AU    AUSL 2392  32.489   4.130   7.233
    5AU     AUL 2393  32.393   4.492   7.380
    5AU       S 2394  32.183   4.463   7.796
    5AU     LIG 2395  32.336   4.877   8.069
    5AU     LIG 2396  32.318   5.305   8.310
    5AU     LIG 2397  32.087   5.759   8.354
    5AU     LIG 2398  31.968   6.241   8.426
    5AU     LIG 2399  32.099   6.692   8.318
    5AU       S 2400  32.217   4.352   6.989
    5AU     LIG 2401  32.659   4.588   6.981
    5AU     LIG 2402  32.802   4.996   6.803
    5AU     LIG 2403  32.979   5.447   6.759
    5AU     LIG 2404  33.226   5.876   6.807
    5AU     LIG 2405  33.434   6.307   6.726
    5AU    AUSL 2406  32.534   3.975   7.625
    5AU    AUSL 2407  32.552   3.711   7.992
    5AU     AUL 2408  32.620   4.028   8.064
    5AU       S 2409  32.926   3.951   8.390
    5AU     LIG 2410  33.215   3.921   8.749
    5AU     LIG 2411  33.482   4.052   9.089
    5AU     LIG 2412  33.743   4.401   9.251
    5AU     LIG 2413  33.854   4.780   9.507
    5AU     LIG 2414  33.756   5.001   9.924
    5AU       S 2415  32.630   4.328   7.725
    5AU     LIG 2416  32.809   4.648   8.028
    5AU     LIG 2417  32.838   5.113   8.176
    5AU     LIG 2418  33.138   5.511   8.234
    5AU     LIG 2419  33.329   5.959   8.169
    5AU     LIG 2420  33.370   6.434   8.182
    5AU    AUSL 2421  32.248   2.602   7.945
    5AU    AUSL 2422  32.666   2.527   7.837
    5AU     AUL 2423  32.430   2.469   8.219
    5AU       S 2424  32.318   2.070   8.018
    5AU     LIG 2425  32.048   1.982   8.348
    5AU     LIG 2426  31.929   1.538   8.417
    5AU     LIG 2427  31.906   1.065   8.419
    5AU     LIG 2428  31.997   0.622   8.542
    5AU     LIG 2429  32.140   0.230   8.757
    5AU       S 2430  32.795   2.349   7.918
    5AU     LIG 2431  32.804   1.880   8.084
    5AU     LIG 2432  33.084   1.632   8.402
    5AU     LIG 2433  33.417   1.344   8.596
    5AU     LIG 2434  33.586   0.932   8.748
    5AU     LIG 2435  33.891   0.645   8.936
    5AU    AUSL 2436  31.944   2.378   7.676
    5AU    AUSL 2437  31.957   2.695   8.234
    5AU     AUL 2438  31.978   2.400   8.028
    5AU       S 2439  32.081   1.985   7.841
    5AU     LIG 2440  31.721   1.782   7.995
    5AU     LIG 2441  31.614   1.332   8.063
    5AU     LIG 2442  31.584   0.869   8.046
    5AU     LIG 2443  31.472   0.426   8.113
    5AU     LIG 2444  31.709   0.073   8.260
    5AU       S 2445  31.695   2.591   8.347
    5AU     LIG 2446  31.536   2.141   8.346
    5AU     LIG 2447  31.123   1.929   8.447
    5AU     LIG 2448  30.913   1.649   8.775
    5AU     LIG 2449  30.717   1.388   9.113
    5AU     LIG 2450  30.616   1.301   9.565
    5AU    AUSL 2451  32.368   2.322   7.631
    5AU    AUSL 2452  32.140   2.534   7.324
    5AU     AUL 2453  32.011   2.202   7.435
    5AU       S 2454  32.371   2.097   7.184
    5AU     LIG 2455  31.929   1.875   7.075
    5AU     LIG 2456  31.757   1.446   6.993
    5AU     LIG 2457  31.723   0.962   6.924
    5AU     LIG 2458  31.631   0.481   6.805
    5AU     LIG 2459  31.487   0.038   6.648
    5AU       S 2460  32.382   2.106   7.753
    5AU     LIG 2461  32.400   1.608   7.833
    5AU     LIG 2462  32.133   1.230   7.980
    5AU     LIG 2463  32.087   0.743   8.041
    5AU     LIG 2464  32.204   0.304   8.195
    5AU     LIG 2465  32.545   0.133   8.441
    5AU    AUSL 2466  32.325   3.929   6.862
    5AU    AUSL 2467  32.852   3.923   7.298
    5AU     AUL 2468  32.646   4.089   6.954
    5AU       S 2469  32.259   4.311   6.776
    5AU     LIG 2470  32.456   4.645   6.530
    5AU     LIG 2471  32.565   5.048   6.332
    5AU     LIG 2472  32.522   5.308   5.932
    5AU     LIG 2473  32.471   5.728   5.709
    5AU     LIG 2474  32.560   6.100   5.419
    5AU       S 2475  33.059   4.100   7.152
    5AU     LIG 2476  33.499   4.231   6.957
    5AU     LIG 2477  33.693   4.270   6.527
    5AU     LIG 2478  33.860   4.593   6.224
    5AU     LIG 2479  34.082   5.008   6.127
    5AU     LIG 2480  34.208   5.476   6.121
    5AU    AUSL 2481  32.119   3.923   7.267
    5AU    AUSL 2482  32.072   3.608   6.958
    5AU     AUL 2483  32.009   3.927   6.845
    5AU       S 2484  32.029   4.304   7.122
    5AU     LIG 2485  32.183   4.822   7.012
    5AU     LIG 2486  32.323   5.215   6.791
    5AU     LIG 2487  32.175   5.675   6.793
    5AU     LIG 2488  32.171   6.139   6.739
    5AU     LIG 2489  31.878   6.487   6.673
    5AU       S 2490  31.675   3.826   6.568
    5AU     LIG 2491  31.518   3.900   6.139
    5AU     LIG 2492  31.459   4.230   5.801
    5AU     LIG 2493  31.474   4.528   5.413
    5AU     LIG 2494  31.396   4.841   5.044
    5AU     LIG 2495  31.152   5.218   4.875
    5AU    AUSL 2496  32.337   2.495   6.934
    5AU    AUSL 2497  31.734   2.546   7.232
    5AU     AUL 2498  32.006   2.375   6.989
    5AU       S 2499  31.563   2.498   7.038
    5AU     LIG 2500  31.368   2.137   7.143
    5AU     LIG 2501  30.987   1.941   6.956
    5AU     LIG 2502  30.773   1.670   6.629
    5AU     LIG 2503  30.580   1.414   6.272
    5AU     LIG 2504  30.390   0.993   6.149
    5AU       S 2505  32.385   2.079   6.968
    5AU     LIG 2506  32.275   1.642   6.789
    5AU     LIG 2507  32.048   1.247   6.613
    5AU     LIG 2508  31.892   0.824   6.449
    5AU     LIG 2509  31.805   0.524   6.083
    5AU     LIG 2510  31.842   0.209   5.725
    5AU    AUSL 2511  32.568   2.509   7.316
    5AU    AUSL 2512  32.587   2.828   6.958
    5AU     AUL 2513  32.670   2.447   6.949
    5AU       S 2514  32.601   2.116   7.275
    5AU     LIG 2515  32.366   1.635   7.309
    5AU     LIG 2516  32.212   1.215   7.101
    5AU     LIG 2517  32.201   0.776   6.876
    5AU     LIG 2518  32.283   0.288   6.847
    5AU     LIG 2519  32.488  44.862   6.714
    5AU       S 2520  32.903   2.662   6.619
    5AU     LIG 2521  32.818   2.228   6.518
    5AU     LIG 2522  33.038   1.880   6.292
    5AU     LIG 2523  33.273   1.588   5.979
    5AU     LIG 2524  33.454   1.391   5.560
    5AU     LIG 2525  33.591   1.128   5.164
    6AU     AUC 2526  27.197   9.045   7.512
    6AU     AUC 2527  27.466   9.062   7.333
    6AU     AUC 2528  27.473   9.045   7.682
    6AU     AUC 2529  26.910   9.032   7.343
    6AU     AUC 2530  26.941   9.072   7.703
    6AU     AUC 2531  27.015   9.316   7.515
    6AU     AUC 2532  27.384   9.327   7.501
    6AU     AUC 2533  27.014   8.771   7.518
    6AU     AUC 2534  27.363   8.758   7.512
    6AU     AUC 2535  27.206   8.878   7.796
    6AU     AUC 2536  27.197   9.220   7.785
    6AU     AUC 2537  27.189   8.877   7.233
    6AU     AUC 2538  27.205   9.198   7.232
    6AU     AUC 2539  27.776   9.068   7.156
    6AU     AUC 2540  27.804   9.021   7.517
    6AU     AUC 2541  27.761   9.029   7.853
    6AU     AUC 2542  26.608   9.018   7.170
    6AU     AUC 2543  26.590   9.061   7.532
    6AU     AUC 2544  26.646   9.087   7.897
    6AU     AUC 2545  26.836   9.618   7.502
    6AU     AUC 2546  27.193   9.648   7.472
    6AU     AUC 2547  27.567   9.612   7.486
    6AU     AUC 2548  26.814   8.487   7.524
    6AU     AUC 2549  27.174   8.446   7.503
    6AU     AUC 2550  27.527   8.459   7.500
    6AU     AUC 2551  27.199   8.710   8.087
    6AU     AUC 2552  27.239   9.080   8.126
    6AU     AUC 2553  27.220   9.412   8.065
    6AU     AUC 2554  27.217   8.702   6.955
    6AU     AUC 2555  27.197   9.038   6.896
    6AU     AUC 2556  27.182   9.364   6.930
    6AU     AUC 2557  27.492   8.864   8.008
    6AU     AUC 2558  27.524   9.235   7.989
    6AU     AUC 2559  27.519   8.912   6.996
    6AU     AUC 2560  27.507   9.230   7.032
    6AU     AUC 2561  26.904   8.898   8.030
    6AU     AUC 2562  26.923   9.256   8.010
    6AU     AUC 2563  26.893   8.844   7.050
    6AU     AUC 2564  26.868   9.170   7.005
    6AU     AUC 2565  27.727   9.332   7.352
    6AU     AUC 2566  27.698   9.341   7.679
    6AU     AUC 2567  26.709   9.330   7.330
    6AU     AUC 2568  26.708   9.373   7.701
    6AU     AUC 2569  27.661   8.750   7.329
    6AU     AUC 2570  27.645   8.702   7.695
    6AU     AUC 2571  26.681   8.720   7.359
    6AU     AUC 2572  26.742   8.777   7.717
    6AU     AUC 2573  27.008   9.570   7.787
    6AU     AUC 2574  27.377   9.532   7.755
    6AU     AUC 2575  26.997   8.577   7.814
    6AU     AUC 2576  27.342   8.538   7.796
    6AU     AUC 2577  27.015   9.472   7.198
    6AU     AUC 2578  27.398   9.523   7.203
    6AU     AUC 2579  27.007   8.562   7.219
    6AU     AUC 2580  27.397   8.591   7.209
    6AU    AUSL 2581  27.789   9.009   8.195
    6AU    AUSL 2582  27.486   8.552   8.192
    6AU     AUL 2583  27.822   8.594   8.343
    6AU       S 2584  27.794   8.154   8.208
    6AU     LIG 2585  27.754   8.103   8.600
    6AU     LIG 2586  27.935   7.756   8.817
    6AU     LIG 2587  28.127   7.359   8.956
    6AU     LIG 2588  28.343   7.081   9.269
    6AU     LIG 2589  28.289   6.860   9.694
    6AU       S 2590  28.041   8.984   8.259
    6AU     LIG 2591  28.014   8.899   8.722
    6AU     LIG 2592  28.049   8.779   9.189
    6AU     LIG 2593  28.273   8.681   9.604
    6AU     LIG 2594  28.617   8.615   9.933
    6AU     LIG 2595  28.996   8.673  10.223
    6AU    AUSL 2596  27.407   8.917   8.392
    6AU    AUSL 2597  27.103   9.236   8.418
    6AU     AUL 2598  27.314   9.223   8.739
    6AU       S 2599  27.544   8.876   8.562
    6AU     LIG 2600  27.534   8.530   8.790
    6AU     LIG 2601  27.733   8.357   9.192
    6AU     LIG 2602  27.902   8.307   9.648
    6AU     LIG 2603  28.059   8.155  10.082
    6AU     LIG 2604  28.105   8.099  10.560
    6AU       S 2605  26.952   8.953   8.687
    6AU     LIG 2606  26.894   8.841   9.166
    6AU     LIG 2607  26.635   8.849   9.577
    6AU     LIG 2608  26.528   9.036  10.016
    6AU     LIG 2609  26.554   9.350  10.407
    6AU     LIG 2610  26.369   9.570  10.802
    6AU    AUSL 2611  27.502   9.339   8.335
    6AU    AUSL 2612  27.847   9.412   8.060
    6AU     AUL 2613  27.794   9.300   8.471
    6AU       S 2614  27.371   9.632   8.469
    6AU     LIG 2615  27.631   9.603   8.855
    6AU     LIG 2616  27.883   9.618   9.279
    6AU     LIG 2617  27.899   9.685   9.774
    6AU     LIG 2618  27.779   9.805  10.238
    6AU     LIG 2619  27.764   9.905  10.707
    6AU       S 2620  27.899   9.683   8.234
    6AU     LIG 2621  28.286   9.456   8.308
    6AU     LIG 2622  28.603   9.621   8.634
    6AU     LIG 2623  28.873   9.850   8.965
    6AU     LIG 2624  29.113  10.034   9.321
    6AU     LIG 2625  29.457   9.956   9.654
    6AU    AUSL 2626  27.722   9.197   6.756
    6AU    AUSL 2627  27.501   9.505   6.974
    6AU     AUL 2628  27.611   9.579   6.623
    6AU       S 2629  27.683   9.247   6.317
    6AU     LIG 2630  28.057   9.079   6.125
    6AU     LIG 2631  28.140   8.763   5.811
    6AU     LIG 2632  28.232   8.674   5.363
    6AU     LIG 2633  28.603   8.669   5.057
    6AU     LIG 2634  29.070   8.646   4.925
    6AU       S 2635  27.968   9.750   6.882
    6AU     LIG 2636  28.031   9.940   6.480
    6AU     LIG 2637  28.229  10.088   6.070
    6AU     LIG 2638  28.510  10.318   5.770
    6AU     LIG 2639  28.550  10.573   5.375
    6AU     LIG 2640  28.670  10.909   5.068
    6AU    AUSL 2641  27.497   8.860   6.609
    6AU    AUSL 2642  27.864   8.828   6.922
    6AU     AUL 2643  27.909   8.950   6.608
    6AU       S 2644  28.041   8.510   6.698
    6AU     LIG 2645  28.151   8.105   6.438
    6AU     LIG 2646  28.373   7.718   6.280
    6AU     LIG 2647  28.612   7.432   5.989
    6AU     LIG 2648  28.991   7.382   5.711
    6AU     LIG 2649  29.310   7.356   5.362
    6AU       S 2650  27.581   9.098   6.301
    6AU     LIG 2651  27.695   8.703   6.143
    6AU     LIG 2652  27.756   8.423   5.766
    6AU     LIG 2653  27.819   8.353   5.301
    6AU     LIG 2654  27.819   8.321   4.822
    6AU     LIG 2655  27.911   8.449   4.376
    6AU    AUSL 2656  27.297   9.238   6.701
    6AU    AUSL 2657  27.088   8.835   6.741
    6AU     AUL 2658  27.229   8.854   6.449
    6AU       S 2659  26.791   8.858   6.308
    6AU     LIG 2660  26.859   8.621   5.947
    6AU     LIG 2661  26.629   8.380   5.637
    6AU     LIG 2662  26.507   8.349   5.192
    6AU     LIG 2663  26.490   8.225   4.736
    6AU     LIG 2664  26.422   8.316   4.275
    6AU       S 2665  27.343   9.299   6.349
    6AU     LIG 2666  27.442   9.097   5.848
    6AU     LIG 2667  27.730   8.875   5.507
    6AU     LIG 2668  27.834   8.806   5.038
    6AU     LIG 2669  27.794   8.928   4.577
    6AU     LIG 2670  27.941   9.225   4.236
    6AU    AUSL 2671  26.703   9.147   8.291
    6AU    AUSL 2672  26.960   9.499   8.124
    6AU     AUL 2673  26.850   9.453   8.479
    6AU       S 2674  26.782   9.073   8.745
    6AU     LIG 2675  26.430   8.880   8.910
    6AU     LIG 2676  26.223   8.716   9.294
    6AU     LIG 2677  26.064   8.708   9.731
    6AU     LIG 2678  25.667   8.731   9.984
    6AU     LIG 2679  25.384   8.633  10.340
    6AU       S 2680  26.513   9.714   8.261
    6AU     LIG 2681  26.620   9.877   8.665
    6AU     LIG 2682  26.535  10.076   9.085
    6AU     LIG 2683  26.306  10.353   9.376
    6AU     LIG 2684  26.259  10.660   9.724
    6AU     LIG 2685  26.146  10.871  10.130
    6AU    AUSL 2686  27.021   8.862   8.214
    6AU    AUSL 2687  26.557   8.787   8.116
    6AU     AUL 2688  26.587   8.844   8.398
    6AU       S 2689  26.392   8.421   8.260
    6AU     LIG 2690  25.977   8.438   8.173
    6AU     LIG 2691  25.712   8.093   8.311
    6AU     LIG 2692  25.500   7.867   8.661
    6AU     LIG 2693  25.222   7.583   8.907
    6AU     LIG 2694  25.002   7.283   9.190
    6AU       S 2695  27.011   8.779   8.590
    6AU     LIG 2696  26.751   8.492   8.812
    6AU     LIG 2697  26.627   8.404   9.269
    6AU     LIG 2698  26.464   8.370   9.723
    6AU     LIG 2699  26.381   8.208  10.177
    6AU     LIG 2700  26.222   8.264  10.633
    6AU    AUSL 2701  26.663   8.895   6.785
    6AU    AUSL 2702  26.876   8.538   6.958
    6AU     AUL 2703  26.915   8.539   6.631
    6AU       S 2704  26.616   8.784   6.383
    6AU     LIG 2705  26.352   8.627   6.080
    6AU     LIG 2706  26.166   8.611   5.673
    6AU     LIG 2707  26.095   8.665   5.229
    6AU     LIG 2708  25.741   8.623   4.928
    6AU     LIG 2709  25.474   8.676   4.561
    6AU       S 2710  26.509   8.382   6.786
    6AU     LIG 2711  26.256   8.026   6.602
    6AU     LIG 2712  26.005   7.713   6.351
    6AU     LIG 2713  25.762   7.426   6.064
    6AU     LIG 2714  25.614   7.256   5.657
    6AU     LIG 2715  25.598   7.124   5.203
    6AU    AUSL 2716  26.888   9.213   6.606
    6AU    AUSL 2717  26.532   9.291   6.919
    6AU     AUL 2718  26.453   9.128   6.628
    6AU       S 2719  26.553   9.565   6.685
    6AU     LIG 2720  26.174   9.618   6.504
    6AU     LIG 2721  26.025   9.896   6.141
    6AU     LIG 2722  25.840  10.077   5.717
    6AU     LIG 2723  25.430  10.132   5.424
    6AU     LIG 2724  25.023  10.236   5.161
    6AU       S 2725  26.839   9.134   6.345
    6AU     LIG 2726  26.595   9.070   5.907
    6AU     LIG 2727  26.566   8.861   5.462
    6AU     LIG 2728  26.550   8.822   4.977
    6AU     LIG 2729  26.614   9.028   4.542
    6AU     LIG 2730  26.454   9.372   4.248
    6AU    AUSL 2731  27.994   9.503   7.512
    6AU    AUSL 2732  27.886   9.343   7.116
    6AU     AUL 2733  28.265   9.561   7.266
    6AU       S 2734  27.978   9.549   6.922
    6AU     LIG 2735  28.126   9.427   6.522
    6AU     LIG 2736  28.441   9.660   6.272
    6AU     LIG 2737  28.747   9.939   6.039
    6AU     LIG 2738  29.064  10.170   5.764
    6AU     LIG 2739  29.458  10.185   5.473
    6AU       S 2740  28.462   9.391   7.664
    6AU     LIG 2741  28.883   9.574   7.605
    6AU     LIG 2742  29.332   9.733   7.560
    6AU     LIG 2743  29.759   9.937   7.505
    6AU     LIG 2744  30.008  10.354   7.452
    6AU     LIG 2745  30.338  10.705   7.513
    6AU    AUSL 2746  28.157   9.120   7.357
    6AU    AUSL 2747  28.113   8.780   7.673
    6AU     AUL 2748  28.420   8.811   7.443
    6AU       S 2749  28.383   9.234   7.598
    6AU     LIG 2750  28.772   9.155   7.339
    6AU     LIG 2751  29.228   9.273   7.325
    6AU     LIG 2752  29.655   9.468   7.253
    6AU     LIG 2753  30.107   9.603   7.305
    6AU     LIG 2754  30.525   9.727   7.136
    6AU       S 2755  28.317   8.380   7.628
    6AU     LIG 2756  28.658   8.158   7.818
    6AU     LIG 2757  29.114   8.028   7.784
    6AU     LIG 2758  29.568   7.865   7.740
    6AU     LIG 2759  30.014   7.689   7.714
    6AU     LIG 2760  30.422   7.688   7.955
    6AU    AUSL 2761  27.928   9.151   7.744
    6AU    AUSL 2762  27.758   9.741   7.772
    6AU     AUL 2763  28.070   9.558   7.824
    6AU       S 2764  27.963   9.945   8.069
    6AU     LIG 2765  28.339   9.970   8.330
    6AU     LIG 2766  28.594  10.162   8.677
    6AU     LIG 2767  28.952  10.410   8.887
    6AU     LIG 2768  29.219  10.835   8.885
    6AU     LIG 2769  29.460  11.273   8.912
    6AU       S 2770  28.303   9.158   7.866
    6AU     LIG 2771  28.806   9.160   7.926
    6AU     LIG 2772  29.277   9.304   7.842
    6AU     LIG 2773  29.759   9.452   7.756
    6AU     LIG 2774  30.276   9.458   7.777
    6AU     LIG 2775  30.706   9.650   7.932
    6AU    AUSL 2776  26.504   9.584   7.546
    6AU    AUSL 2777  26.586   9.361   7.944
    6AU     AUL 2778  26.260   9.670   7.805
    6AU       S 2779  26.431   9.497   8.194
    6AU     LIG 2780  26.370   9.403   8.639
    6AU     LIG 2781  26.181   9.736   8.922
    6AU     LIG 2782  25.931  10.068   9.155
    6AU     LIG 2783  25.574  10.174   9.465
    6AU     LIG 2784  25.233  10.252   9.797
    6AU       S 2785  26.465   9.954   7.477
    6AU     LIG 2786  25.980   9.991   7.494
    6AU     LIG 2787  25.571  10.308   7.540
    6AU     LIG 2788  25.205  10.677   7.617
    6AU     LIG 2789  24.885  11.058   7.764
    6AU     LIG 2790  24.440  11.299   7.774
    6AU    AUSL 2791  26.479   9.215   7.325
    6AU    AUSL 2792  26.623   9.659   7.149
    6AU     AUL 2793  26.317   9.523   7.174
    6AU       S 2794  26.131   9.064   6.985
    6AU     LIG 2795  25.868   9.469   6.950
    6AU     LIG 2796  25.449   9.747   6.972
    6AU     LIG 2797  24.989   9.970   6.958
    6AU     LIG 2798  24.519  10.138   6.880
    6AU     LIG 2799  24.083  10.163   6.677
    6AU       S 2800  26.419   9.933   6.936
    6AU     LIG 2801  26.407  10.080   6.482
    6AU     LIG 2802  26.214  10.392   6.161
    6AU     LIG 2803  26.074  10.847   6.056
    6AU     LIG 2804  25.767  11.223   6.052
    6AU     LIG 2805  25.315  11.343   5.979
    6AU    AUSL 2806  26.261   9.231   7.716
    6AU    AUSL 2807  26.237   8.884   7.401
    6AU     AUL 2808  26.082   9.219   7.432
    6AU       S 2809  25.963   8.781   7.602
    6AU     LIG 2810  25.546   8.621   7.417
    6AU     LIG 2811  25.059   8.544   7.370
    6AU     LIG 2812  24.573   8.424   7.306
    6AU     LIG 2813  24.088   8.404   7.262
    6AU     LIG 2814  23.649   8.494   7.062
    6AU       S 2815  26.135   9.182   7.935
    6AU     LIG 2816  25.777   9.479   7.812
    6AU     LIG 2817  25.316   9.674   7.930
    6AU     LIG 2818  24.864   9.891   8.082
    6AU     LIG 2819  24.413  10.062   8.267
    6AU     LIG 2820  23.913  10.177   8.276
    6AU    AUSL 2821  27.848   8.469   7.538
    6AU    AUSL 2822  27.744   8.730   7.889
    6AU     AUL 2823  28.056   8.626   7.918
    6AU       S 2824  28.014   8.287   7.537
    6AU     LIG 2825  28.280   7.873   7.577
    6AU     LIG 2826  28.743   7.741   7.520
    6AU     LIG 2827  29.188   7.572   7.542
    6AU     LIG 2828  29.624   7.381   7.520
    6AU     LIG 2829  29.878   7.098   7.251
    6AU       S 2830  27.973   8.203   8.051
    6AU     LIG 2831  28.210   7.936   8.368
    6AU     LIG 2832  28.436   7.683   8.687
    6AU     LIG 2833  28.653   7.396   8.984
    6AU     LIG 2834  29.022   7.247   9.217
    6AU     LIG 2835  29.456   7.266   9.411
    6AU    AUSL 2836  27.844   8.845   7.338
    6AU    AUSL 2837  27.809   8.438   7.118
    6AU     AUL 2838  28.074   8.668   7.171
    6AU       S 2839  28.267   8.335   7.397
    6AU     LIG 2840  28.695   8.218   7.305
    6AU     LIG 2841  29.120   8.019   7.270
    6AU     LIG 2842  29.538   7.811   7.230
    6AU     LIG 2843  29.963   7.623   7.197
    6AU     LIG 2844  30.371   7.554   6.979
    6AU       S 2845  28.009   8.317   6.866
    6AU     LIG 2846  27.918   7.882   6.875
    6AU     LIG 2847  28.131   7.494   6.684
    6AU     LIG 2848  28.377   7.198   6.389
    6AU     LIG 2849  28.719   6.869   6.246
    6AU     LIG 2850  29.085   6.583   6.090
    6AU    AUSL 2851  26.421   8.524   7.565
    6AU    AUSL 2852  26.558   8.751   7.164
    6AU     AUL 2853  26.206   8.601   7.248
    6AU       S 2854  26.392   8.524   6.839
    6AU     LIG 2855  25.960   8.347   6.870
    6AU     LIG 2856  25.709   8.089   6.559
    6AU     LIG 2857  25.534   7.881   6.167
    6AU     LIG 2858  25.281   7.568   5.918
    6AU     LIG 2859  25.169   7.436   5.471
    6AU       S 2860  26.015   8.489   7.664
    6AU     LIG 2861  25.845   8.205   7.393
    6AU     LIG 2862  25.382   8.115   7.343
    6AU     LIG 2863  24.920   8.071   7.493
    6AU     LIG 2864  24.468   7.935   7.511
    6AU     LIG 2865  24.272   7.495   7.521
    6AU    AUSL 2866  26.532   8.919   7.719
    6AU    AUSL 2867  26.743   8.533   7.833
    6AU     AUL 2868  26.346   8.706   7.901
    6AU       S 2869  26.450   8.275   8.014
    6AU     LIG 2870  26.089   8.014   7.906
    6AU     LIG 2871  25.803   7.656   8.059
    6AU     LIG 2872  25.503   7.433   8.381
    6AU     LIG 2873  25.262   7.118   8.683
    6AU     LIG 2874  25.018   6.684   8.682
    6AU       S 2875  25.931   8.786   7.745
    6AU     LIG 2876  25.533   9.029   7.728
    6AU     LIG 2877  25.068   8.934   7.708
    6AU     LIG 2878  24.681   8.644   7.751
    6AU     LIG 2879  24.268   8.378   7.744
    6AU     LIG 2880  23.810   8.241   7.683
    6AU    AUSL 2881  27.164   9.850   7.991
    6AU    AUSL 2882  26.743   9.752   7.857
    6AU     AUL 2883  26.963   9.845   8.238
    6AU       S 2884  26.609   9.949   7.958
    6AU     LIG 2885  26.426  10.202   8.308
    6AU     LIG 2886  26.205  10.246   8.730
    6AU     LIG 2887  25.998  10.578   9.009
    6AU     LIG 2888  25.787  11.020   9.028
    6AU     LIG 2889  25.548  11.450   9.009
    6AU       S 2890  27.161  10.194   7.972
    6AU     LIG 2891  27.312  10.338   8.337
    6AU     LIG 2892  27.375  10.793   8.458
    6AU     LIG 2893  27.309  11.225   8.642
    6AU     LIG 2894  27.230  11.377   9.072
    6AU     LIG 2895  27.229  11.599   9.490
    6AU    AUSL 2896  26.973   9.980   7.595
    6AU    AUSL 2897  27.357   9.951   7.227
    6AU     AUL 2898  27.060  10.198   7.330
    6AU       S 2899  27.017  10.258   7.791
    6AU     LIG 2900  27.218  10.683   7.944
    6AU     LIG 2901  27.361  11.093   8.019
    6AU     LIG 2902  27.278  11.492   8.189
    6AU     LIG 2903  27.178  11.937   8.331
    6AU     LIG 2904  26.877  12.308   8.453
    6AU       S 2905  27.256  10.240   6.910
    6AU     LIG 2906  27.640  10.427   6.961
    6AU     LIG 2907  27.781  10.880   6.882
    6AU     LIG 2908  27.818  11.325   6.691
    6AU     LIG 2909  27.826  11.805   6.693
    6AU     LIG 2910  27.772  12.282   6.716
    6AU    AUSL 2911  27.372   9.795   7.618
    6AU    AUSL 2912  27.439   9.536   7.982
    6AU     AUL 2913  27.505   9.887   8.001
    6AU       S 2914  27.796   9.796   8.344
    6AU     LIG 2915  28.095   9.719   8.707
    6AU     LIG 2916  28.359   9.881   9.048
    6AU     LIG 2917  28.612  10.232   9.250
    6AU     LIG 2918  28.584  10.598   9.580
    6AU     LIG 2919  28.488  10.919   9.944
    6AU       S 2920  27.395  10.185   7.669
    6AU     LIG 2921  27.665  10.384   7.969
    6AU     LIG 2922  27.775  10.812   8.147
    6AU     LIG 2923  27.727  11.263   8.335
    6AU     LIG 2924  27.691  11.758   8.355
    6AU     LIG 2925  27.816  12.239   8.306
    6AU    AUSL 2926  27.163   8.403   7.949
    6AU    AUSL 2927  27.581   8.334   7.833
    6AU     AUL 2928  27.347   8.266   8.218
    6AU       S 2929  27.240   7.864   8.019
    6AU     LIG 2930  26.927   7.765   8.342
    6AU     LIG 2931  26.846   7.315   8.459
    6AU     LIG 2932  26.906   6.850   8.502
    6AU     LIG 2933  26.890   6.400   8.625
    6AU     LIG 2934  26.988   6.132   8.996
    6AU       S 2935  27.716   8.160   7.915
    6AU     LIG 2936  27.818   7.693   8.051
    6AU     LIG 2937  28.065   7.440   8.403
    6AU     LIG 2938  28.425   7.163   8.584
    6AU     LIG 2939  28.756   6.867   8.791
    6AU     LIG 2940  29.015   6.431   8.798
    6AU    AUSL 2941  26.857   8.165   7.689
    6AU    AUSL 2942  26.873   8.477   8.246
    6AU     AUL 2943  26.898   8.191   8.037
    6AU       S 2944  27.004   7.777   7.847
    6AU     LIG 2945  26.733   7.445   7.972
    6AU     LIG 2946  26.618   7.004   8.096
    6AU     LIG 2947  26.649   6.534   8.175
    6AU     LIG 2948  26.459   6.104   8.285
    6AU     LIG 2949  26.340   5.652   8.289
    6AU       S 2950  26.593   8.344   8.355
    6AU     LIG 2951  26.355   7.917   8.360
    6AU     LIG 2952  25.977   7.685   8.542
    6AU     LIG 2953  25.717   7.422   8.846
    6AU     LIG 2954  25.511   7.281   9.240
    6AU     LIG 2955  25.407   7.287   9.708
    6AU    AUSL 2956  27.281   8.123   7.634
    6AU    AUSL 2957  27.036   8.330   7.333
    6AU     AUL 2958  26.927   7.994   7.445
    6AU       S 2959  27.287   7.898   7.190
    6AU     LIG 2960  26.882   7.628   7.121
    6AU     LIG 2961  26.696   7.233   6.981
    6AU     LIG 2962  26.663   6.773   6.891
    6AU     LIG 2963  26.674   6.313   6.779
    6AU     LIG 2964  26.594   5.870   6.632
    6AU       S 2965  27.305   7.900   7.754
    6AU     LIG 2966  27.309   7.392   7.848
    6AU     LIG 2967  27.137   6.980   8.055
    6AU     LIG 2968  27.185   6.500   8.204
    6AU     LIG 2969  27.391   6.039   8.307
    6AU     LIG 2970  27.650   5.599   8.384
    6AU    AUSL 2971  27.179   9.751   6.874
    6AU    AUSL 2972  27.703   9.715   7.291
    6AU     AUL 2973  27.534   9.884   6.961
    6AU       S 2974  27.159   9.943   6.671
    6AU     LIG 2975  27.543  10.157   6.517
    6AU     LIG 2976  27.571  10.635   6.480
    6AU     LIG 2977  27.577  11.067   6.280
    6AU     LIG 2978  27.494  11.389   5.958
    6AU     LIG 2979  27.390  11.612   5.556
    6AU       S 2980  27.939   9.881   7.177
    6AU     LIG 2981  28.337  10.061   6.905
    6AU     LIG 2982  28.549  10.155   6.475
    6AU     LIG 2983  28.843  10.434   6.188
    6AU     LIG 2984  29.177  10.810   6.156
    6AU     LIG 2985  29.476  11.204   6.248
    6AU    AUSL 2986  27.014   9.704   7.291
    6AU    AUSL 2987  26.937   9.427   6.961
    6AU     AUL 2988  26.864   9.862   7.048
    6AU       S 2989  27.069  10.215   6.853
    6AU     LIG 2990  27.191  10.716   6.842
    6AU     LIG 2991  27.353  11.123   6.729
    6AU     LIG 2992  27.356  11.592   6.633
    6AU     LIG 2993  27.010  11.942   6.616
    6AU     LIG 2994  26.905  12.442   6.579
    6AU       S 2995  26.727   9.665   6.657
    6AU     LIG 2996  26.604   9.694   6.199
    6AU     LIG 2997  26.450  10.017   5.878
    6AU     LIG 2998  26.300  10.231   5.475
    6AU     LIG 2999  26.271  10.534   5.108
    6AU     LIG 3000  25.988  10.876   4.954
    6AU    AUSL 3001  27.221   8.294   6.938
    6AU    AUSL 3002  26.628   8.325   7.249
    6AU     AUL 3003  26.896   8.162   7.001
    6AU       S 3004  26.445   8.268   7.032
    6AU     LIG 3005  26.187   7.941   7.108
    6AU     LIG 3006  25.866   7.709   6.862
    6AU     LIG 3007  25.560   7.517   6.539
    6AU     LIG 3008  25.311   7.191   6.276
    6AU     LIG 3009  24.925   6.888   6.207
    6AU       S 3010  27.292   7.882   6.979
    6AU     LIG 3011  27.230   7.444   6.798
    6AU     LIG 3012  27.017   7.048   6.615
    6AU     LIG 3013  26.877   6.637   6.415
    6AU     LIG 3014  26.850   6.340   6.030
    6AU     LIG 3015  26.960   6.120   5.605
    6AU    AUSL 3016  27.463   8.318   7.313
    6AU    AUSL 3017  27.462   8.635   6.956
    6AU     AUL 3018  27.554   8.261   6.939
    6AU       S 3019  27.527   7.935   7.276
    6AU     LIG 3020  27.340   7.439   7.320
    6AU     LIG 3021  27.154   7.028   7.115
    6AU     LIG 3022  27.145   6.595   6.876
    6AU     LIG 3023  27.281   6.124   6.831
    6AU     LIG 3024  27.565   5.716   6.902
    6AU       S 3025  27.776   8.475   6.605
    6AU     LIG 3026  27.639   8.065   6.482
    6AU     LIG 3027  27.849   7.686   6.300
    6AU     LIG 3028  28.073   7.404   5.985
    6AU     LIG 3029  28.100   7.222   5.540
    6AU     LIG 3030  28.304   6.987   5.176
    7AU     AUC 3031  24.975  22.452   7.511
    7AU     AUC 3032  25.243  22.469   7.327
    7AU     AUC 3033  25.255  22.456   7.674
    7AU     AUC 3034  24.684  22.438   7.347
    7AU     AUC 3035  24.721  22.482   7.705
    7AU     AUC 3036  24.793  22.724   7.515
    7AU     AUC 3037  25.161  22.736   7.495
    7AU     AUC 3038  24.790  22.178   7.520
    7AU     AUC 3039  25.140  22.165   7.508
    7AU     AUC 3040  24.986  22.287   7.794
    7AU     AUC 3041  24.978  22.631   7.781
    7AU     AUC 3042  24.964  22.282   7.233
    7AU     AUC 3043  24.978  22.603   7.232
    7AU     AUC 3044  25.551  22.477   7.146
    7AU     AUC 3045  25.583  22.429   7.504
    7AU     AUC 3046  25.544  22.436   7.838
    7AU     AUC 3047  24.378  22.423   7.178
    7AU     AUC 3048  24.366  22.471   7.541
    7AU     AUC 3049  24.427  22.501   7.903
    7AU     AUC 3050  24.613  23.026   7.500
    7AU     AUC 3051  24.969  23.056   7.465
    7AU     AUC 3052  25.343  23.021   7.476
    7AU     AUC 3053  24.590  21.896   7.532
    7AU     AUC 3054  24.951  21.852   7.505
    7AU     AUC 3055  25.305  21.864   7.495
    7AU     AUC 3056  24.982  22.119   8.087
    7AU     AUC 3057  25.024  22.491   8.122
    7AU     AUC 3058  25.005  22.824   8.059
    7AU     AUC 3059  24.986  22.105   6.956
    7AU     AUC 3060  24.965  22.442   6.897
    7AU     AUC 3061  24.948  22.766   6.931
    7AU     AUC 3062  25.274  22.274   8.000
    7AU     AUC 3063  25.308  22.643   7.978
    7AU     AUC 3064  25.291  22.317   6.993
    7AU     AUC 3065  25.279  22.639   7.028
    7AU     AUC 3066  24.686  22.309   8.032
    7AU     AUC 3067  24.706  22.669   8.010
    7AU     AUC 3068  24.663  22.247   7.055
    7AU     AUC 3069  24.635  22.570   7.009
    7AU     AUC 3070  25.502  22.740   7.339
    7AU     AUC 3071  25.481  22.750   7.670
    7AU     AUC 3072  24.481  22.735   7.337
    7AU     AUC 3073  24.489  22.785   7.705
    7AU     AUC 3074  25.440  22.154   7.323
    7AU     AUC 3075  25.420  22.107   7.689
    7AU     AUC 3076  24.455  22.129   7.368
    7AU     AUC 3077  24.519  22.187   7.724
    7AU     AUC 3078  24.793  22.982   7.782
    7AU     AUC 3079  25.160  22.943   7.748
    7AU     AUC 3080  24.776  21.986   7.817
    7AU     AUC 3081  25.120  21.945   7.794
    7AU     AUC 3082  24.785  22.875   7.198
    7AU     AUC 3083  25.166  22.930   7.198
    7AU     AUC 3084  24.780  21.968   7.224
    7AU     AUC 3085  25.171  21.996   7.207
    7AU    AUSL 3086  25.570  22.416   8.181
    7AU    AUSL 3087  25.274  21.965   8.185
    7AU     AUL 3088  25.612  22.012   8.328
    7AU       S 3089  25.606  21.581   8.181
    7AU     LIG 3090  25.520  21.475   8.545
    7AU     LIG 3091  25.694  21.116   8.760
    7AU     LIG 3092  25.916  20.743   8.943
    7AU     LIG 3093  26.192  20.454   9.202
    7AU     LIG 3094  26.411  20.456   9.627
    7AU       S 3095  25.840  22.395   8.226
    7AU     LIG 3096  25.878  22.343   8.668
    7AU     LIG 3097  25.845  22.164   9.100
    7AU     LIG 3098  25.889  22.153   9.579
    7AU     LIG 3099  26.094  22.192  10.011
    7AU     LIG 3100  26.482  22.104  10.290
    7AU    AUSL 3101  25.192  22.326   8.390
    7AU    AUSL 3102  24.889  22.650   8.415
    7AU     AUL 3103  25.107  22.627   8.731
    7AU       S 3104  25.370  22.287   8.582
    7AU     LIG 3105  25.197  22.138   8.951
    7AU     LIG 3106  25.415  21.989   9.360
    7AU     LIG 3107  25.543  21.828   9.801
    7AU     LIG 3108  25.605  21.739  10.269
    7AU     LIG 3109  25.629  21.767  10.745
    7AU       S 3110  24.733  22.374   8.685
    7AU     LIG 3111  24.718  22.244   9.147
    7AU     LIG 3112  24.425  22.258   9.517
    7AU     LIG 3113  24.253  22.254   9.963
    7AU     LIG 3114  24.123  22.544  10.327
    7AU     LIG 3115  23.940  22.895  10.609
    7AU    AUSL 3116  25.289  22.746   8.325
    7AU    AUSL 3117  25.632  22.818   8.042
    7AU     AUL 3118  25.586  22.702   8.450
    7AU       S 3119  25.161  23.040   8.464
    7AU     LIG 3120  25.410  23.013   8.847
    7AU     LIG 3121  25.564  23.010   9.311
    7AU     LIG 3122  25.552  23.055   9.806
    7AU     LIG 3123  25.633  23.232  10.248
    7AU     LIG 3124  25.732  23.225  10.722
    7AU       S 3125  25.697  23.084   8.217
    7AU     LIG 3126  26.084  22.837   8.269
    7AU     LIG 3127  26.405  22.936   8.609
    7AU     LIG 3128  26.678  23.131   8.967
    7AU     LIG 3129  26.911  23.356   9.321
    7AU     LIG 3130  27.262  23.434   9.636
    7AU    AUSL 3131  25.486  22.600   6.756
    7AU    AUSL 3132  25.268  22.915   6.970
    7AU     AUL 3133  25.390  22.979   6.627
    7AU       S 3134  25.418  22.651   6.311
    7AU     LIG 3135  25.787  22.502   6.085
    7AU     LIG 3136  25.885  22.179   5.787
    7AU     LIG 3137  25.958  22.023   5.363
    7AU     LIG 3138  26.268  21.924   5.027
    7AU     LIG 3139  26.706  21.929   4.851
    7AU       S 3140  25.727  23.190   6.873
    7AU     LIG 3141  25.899  23.283   6.480
    7AU     LIG 3142  26.146  23.412   6.102
    7AU     LIG 3143  26.392  23.690   5.808
    7AU     LIG 3144  26.405  24.031   5.467
    7AU     LIG 3145  26.419  24.238   5.037
    7AU    AUSL 3146  25.260  22.266   6.604
    7AU    AUSL 3147  25.642  22.235   6.918
    7AU     AUL 3148  25.668  22.360   6.593
    7AU       S 3149  25.820  21.931   6.702
    7AU     LIG 3150  25.959  21.600   6.396
    7AU     LIG 3151  26.190  21.217   6.267
    7AU     LIG 3152  26.408  21.056   5.888
    7AU     LIG 3153  26.656  21.071   5.495
    7AU     LIG 3154  27.079  20.902   5.387
    7AU       S 3155  25.334  22.501   6.291
    7AU     LIG 3156  25.397  22.154   6.025
    7AU     LIG 3157  25.465  21.956   5.582
    7AU     LIG 3158  25.536  21.811   5.137
    7AU     LIG 3159  25.687  21.525   4.790
    7AU     LIG 3160  25.925  21.490   4.388
    7AU    AUSL 3161  25.060  22.643   6.703
    7AU    AUSL 3162  24.854  22.235   6.747
    7AU     AUL 3163  24.989  22.259   6.451
    7AU       S 3164  24.554  22.261   6.307
    7AU     LIG 3165  24.644  22.058   5.919
    7AU     LIG 3166  24.402  21.790   5.609
    7AU     LIG 3167  24.188  21.819   5.193
    7AU     LIG 3168  24.111  21.717   4.748
    7AU     LIG 3169  24.268  21.525   4.355
    7AU       S 3170  25.087  22.716   6.380
    7AU     LIG 3171  25.107  22.613   5.882
    7AU     LIG 3172  25.469  22.469   5.597
    7AU     LIG 3173  25.634  22.380   5.158
    7AU     LIG 3174  25.639  22.523   4.695
    7AU     LIG 3175  25.812  22.666   4.262
    7AU    AUSL 3176  24.488  22.562   8.292
    7AU    AUSL 3177  24.748  22.916   8.122
    7AU     AUL 3178  24.636  22.872   8.477
    7AU       S 3179  24.559  22.495   8.745
    7AU     LIG 3180  24.230  22.266   8.952
    7AU     LIG 3181  23.977  22.093   9.322
    7AU     LIG 3182  23.834  22.022   9.767
    7AU     LIG 3183  23.524  22.026  10.126
    7AU     LIG 3184  23.124  22.126  10.371
    7AU       S 3185  24.310  23.154   8.251
    7AU     LIG 3186  24.410  23.345   8.629
    7AU     LIG 3187  24.260  23.582   9.008
    7AU     LIG 3188  23.982  23.773   9.319
    7AU     LIG 3189  23.769  23.924   9.702
    7AU     LIG 3190  23.693  24.313   9.951
    7AU    AUSL 3191  24.805  22.276   8.213
    7AU    AUSL 3192  24.341  22.200   8.123
    7AU     AUL 3193  24.370  22.255   8.401
    7AU       S 3194  24.178  21.830   8.261
    7AU     LIG 3195  23.759  21.794   8.168
    7AU     LIG 3196  23.488  21.450   8.310
    7AU     LIG 3197  23.296  21.189   8.650
    7AU     LIG 3198  23.107  20.929   8.992
    7AU     LIG 3199  22.787  20.928   9.342
    7AU       S 3200  24.795  22.200   8.591
    7AU     LIG 3201  24.556  21.901   8.794
    7AU     LIG 3202  24.405  21.822   9.226
    7AU     LIG 3203  24.287  21.787   9.684
    7AU     LIG 3204  24.169  21.739  10.137
    7AU     LIG 3205  24.249  21.551  10.568
    7AU    AUSL 3206  24.428  22.288   6.789
    7AU    AUSL 3207  24.642  21.940   6.966
    7AU     AUL 3208  24.675  21.943   6.634
    7AU       S 3209  24.379  22.187   6.372
    7AU     LIG 3210  24.137  22.093   5.990
    7AU     LIG 3211  23.908  21.964   5.602
    7AU     LIG 3212  23.665  21.930   5.198
    7AU     LIG 3213  23.330  22.055   4.879
    7AU     LIG 3214  22.991  22.340   4.693
    7AU       S 3215  24.279  21.784   6.809
    7AU     LIG 3216  24.243  21.336   6.703
    7AU     LIG 3217  23.880  21.105   6.487
    7AU     LIG 3218  23.573  20.986   6.127
    7AU     LIG 3219  23.439  20.788   5.698
    7AU     LIG 3220  23.391  20.616   5.236
    7AU    AUSL 3221  24.650  22.609   6.613
    7AU    AUSL 3222  24.299  22.683   6.927
    7AU     AUL 3223  24.213  22.508   6.647
    7AU       S 3224  24.308  22.950   6.684
    7AU     LIG 3225  23.960  23.109   6.503
    7AU     LIG 3226  23.830  23.387   6.146
    7AU     LIG 3227  23.625  23.437   5.708
    7AU     LIG 3228  23.262  23.474   5.381
    7AU     LIG 3229  22.892  23.742   5.246
    7AU       S 3230  24.600  22.542   6.368
    7AU     LIG 3231  24.412  22.541   5.929
    7AU     LIG 3232  24.331  22.291   5.533
    7AU     LIG 3233  24.413  22.284   5.065
    7AU     LIG 3234  24.513  22.544   4.662
    7AU     LIG 3235  24.374  22.784   4.264
    7AU    AUSL 3236  25.759  22.909   7.499
    7AU    AUSL 3237  25.666  22.774   7.095
    7AU     AUL 3238  26.014  23.044   7.287
    7AU       S 3239  25.758  22.951   6.925
    7AU     LIG 3240  26.166  22.935   6.769
    7AU     LIG 3241  26.414  23.059   6.389
    7AU     LIG 3242  26.661  23.324   6.078
    7AU     LIG 3243  26.995  23.545   5.809
    7AU     LIG 3244  27.418  23.650   5.587
    7AU       S 3245  26.221  22.748   7.612
    7AU     LIG 3246  26.641  22.955   7.632
    7AU     LIG 3247  27.117  22.918   7.608
    7AU     LIG 3248  27.519  23.205   7.571
    7AU     LIG 3249  27.805  23.621   7.508
    7AU     LIG 3250  27.928  24.103   7.492
    7AU    AUSL 3251  25.924  22.526   7.324
    7AU    AUSL 3252  25.894  22.180   7.661
    7AU     AUL 3253  26.223  22.208   7.491
    7AU       S 3254  26.087  22.606   7.363
    7AU     LIG 3255  26.471  22.777   7.163
    7AU     LIG 3256  26.960  22.709   7.150
    7AU     LIG 3257  27.460  22.780   7.254
    7AU     LIG 3258  27.896  23.017   7.273
    7AU     LIG 3259  28.265  23.314   7.173
    7AU       S 3260  26.104  21.764   7.639
    7AU     LIG 3261  26.531  21.672   7.716
    7AU     LIG 3262  26.988  21.597   7.752
    7AU     LIG 3263  27.417  21.436   7.823
    7AU     LIG 3264  27.894  21.477   7.968
    7AU     LIG 3265  28.306  21.303   7.789
    7AU    AUSL 3266  25.723  22.556   7.730
    7AU    AUSL 3267  25.541  23.156   7.765
    7AU     AUL 3268  25.861  22.975   7.799
    7AU       S 3269  25.753  23.347   8.071
    7AU     LIG 3270  26.137  23.344   8.361
    7AU     LIG 3271  26.471  23.503   8.668
    7AU     LIG 3272  26.750  23.853   8.873
    7AU     LIG 3273  26.994  24.295   8.873
    7AU     LIG 3274  27.116  24.772   8.930
    7AU       S 3275  26.085  22.577   7.793
    7AU     LIG 3276  26.499  22.620   8.017
    7AU     LIG 3277  26.960  22.557   7.946
    7AU     LIG 3278  27.433  22.553   7.862
    7AU     LIG 3279  27.845  22.739   7.718
    7AU     LIG 3280  28.310  22.797   7.826
    7AU    AUSL 3281  24.276  22.999   7.550
    7AU    AUSL 3282  24.370  22.782   7.949
    7AU     AUL 3283  24.042  23.088   7.812
    7AU       S 3284  24.226  22.924   8.200
    7AU     LIG 3285  24.162  22.858   8.652
    7AU     LIG 3286  23.981  23.141   8.996
    7AU     LIG 3287  23.677  23.353   9.311
    7AU     LIG 3288  23.374  23.592   9.596
    7AU     LIG 3289  22.987  23.602   9.874
    7AU       S 3290  24.251  23.366   7.474
    7AU     LIG 3291  23.800  23.270   7.393
    7AU     LIG 3292  23.389  23.518   7.367
    7AU     LIG 3293  23.094  23.899   7.437
    7AU     LIG 3294  22.693  24.160   7.378
    7AU     LIG 3295  22.338  24.405   7.567
    7AU    AUSL 3296  24.255  22.627   7.337
    7AU    AUSL 3297  24.389  23.059   7.149
    7AU     AUL 3298  24.089  22.923   7.175
    7AU       S 3299  23.880  22.494   7.007
    7AU     LIG 3300  23.596  22.897   7.061
    7AU     LIG 3301  23.171  23.169   7.029
    7AU     LIG 3302  22.704  23.333   6.913
    7AU     LIG 3303  22.202  23.383   6.873
    7AU     LIG 3304  21.733  23.409   6.994
    7AU       S 3305  24.188  23.330   6.933
    7AU     LIG 3306  24.226  23.554   6.517
    7AU     LIG 3307  24.108  23.939   6.242
    7AU     LIG 3308  23.872  24.350   6.143
    7AU     LIG 3309  23.523  24.675   6.173
    7AU     LIG 3310  23.244  25.021   6.013
    7AU    AUSL 3311  24.041  22.645   7.732
    7AU    AUSL 3312  24.010  22.299   7.411
    7AU     AUL 3313  23.861  22.638   7.457
    7AU       S 3314  23.735  22.198   7.614
    7AU     LIG 3315  23.323  22.018   7.449
    7AU     LIG 3316  22.849  21.933   7.471
    7AU     LIG 3317  22.419  21.757   7.325
    7AU     LIG 3318  21.947  21.691   7.221
    7AU     LIG 3319  21.482  21.730   7.095
    7AU       S 3320  23.921  22.600   7.958
    7AU     LIG 3321  23.552  22.871   7.814
    7AU     LIG 3322  23.043  22.908   7.890
    7AU     LIG 3323  22.630  23.042   8.150
    7AU     LIG 3324  22.164  23.128   8.275
    7AU     LIG 3325  21.691  23.193   8.222
    7AU    AUSL 3326  25.631  21.867   7.529
    7AU    AUSL 3327  25.524  22.139   7.873
    7AU     AUL 3328  25.826  22.020   7.902
    7AU       S 3329  25.804  21.680   7.513
    7AU     LIG 3330  26.110  21.301   7.331
    7AU     LIG 3331  26.581  21.239   7.426
    7AU     LIG 3332  27.063  21.135   7.499
    7AU     LIG 3333  27.432  20.825   7.405
    7AU     LIG 3334  27.654  20.382   7.301
    7AU       S 3335  25.759  21.591   8.019
    7AU     LIG 3336  25.990  21.322   8.342
    7AU     LIG 3337  26.203  21.050   8.638
    7AU     LIG 3338  26.450  20.769   8.891
    7AU     LIG 3339  26.693  20.693   9.269
    7AU     LIG 3340  26.995  20.785   9.620
    7AU    AUSL 3341  25.618  22.247   7.333
    7AU    AUSL 3342  25.582  21.844   7.111
    7AU     AUL 3343  25.861  22.070   7.173
    7AU       S 3344  26.070  21.765   7.423
    7AU     LIG 3345  26.488  21.750   7.211
    7AU     LIG 3346  26.930  21.552   7.232
    7AU     LIG 3347  27.380  21.425   7.170
    7AU     LIG 3348  27.832  21.429   6.989
    7AU     LIG 3349  28.233  21.647   7.155
    7AU       S 3350  25.786  21.710   6.866
    7AU     LIG 3351  25.907  21.242   6.768
    7AU     LIG 3352  26.026  20.798   6.551
    7AU     LIG 3353  26.163  20.329   6.402
    7AU     LIG 3354  26.395  19.932   6.189
    7AU     LIG 3355  26.659  19.545   6.047
    7AU    AUSL 3356  24.192  21.938   7.577
    7AU    AUSL 3357  24.331  22.160   7.176
    7AU     AUL 3358  23.976  22.025   7.253
    7AU       S 3359  24.159  21.909   6.851
    7AU     LIG 3360  23.797  21.603   6.721
    7AU     LIG 3361  23.440  21.381   6.466
    7AU     LIG 3362  23.080  21.154   6.224
    7AU     LIG 3363  22.658  20.968   6.057
    7AU     LIG 3364  22.331  20.897   5.721
    7AU       S 3365  23.790  21.909   7.671
    7AU     LIG 3366  23.592  21.582   7.444
    7AU     LIG 3367  23.120  21.486   7.387
    7AU     LIG 3368  22.662  21.311   7.467
    7AU     LIG 3369  22.368  20.953   7.628
    7AU     LIG 3370  22.014  20.780   7.933
    7AU    AUSL 3371  24.311  22.332   7.726
    7AU    AUSL 3372  24.521  21.943   7.839
    7AU     AUL 3373  24.121  22.124   7.911
    7AU       S 3374  24.244  21.698   8.015
    7AU     LIG 3375  23.951  21.438   7.843
    7AU     LIG 3376  23.713  21.082   8.026
    7AU     LIG 3377  23.432  20.823   8.318
    7AU     LIG 3378  23.177  20.559   8.627
    7AU     LIG 3379  22.863  20.200   8.680
    7AU       S 3380  23.705  22.214   7.759
    7AU     LIG 3381  23.289  22.445   7.731
    7AU     LIG 3382  22.819  22.483   7.658
    7AU     LIG 3383  22.435  22.228   7.605
    7AU     LIG 3384  22.089  21.938   7.684
    7AU     LIG 3385  21.824  21.673   7.943
    7AU    AUSL 3386  24.953  23.264   7.982
    7AU    AUSL 3387  24.539  23.162   7.843
    7AU     AUL 3388  24.765  23.256   8.231
    7AU       S 3389  24.412  23.350   7.943
    7AU     LIG 3390  24.504  23.690   8.221
    7AU     LIG 3391  24.315  23.890   8.601
    7AU     LIG 3392  24.039  24.160   8.906
    7AU     LIG 3393  23.836  24.614   8.941
    7AU     LIG 3394  23.483  24.934   8.829
    7AU       S 3395  24.952  23.612   7.962
    7AU     LIG 3396  25.017  23.818   8.338
    7AU     LIG 3397  25.076  24.212   8.591
    7AU     LIG 3398  25.272  24.509   8.899
    7AU     LIG 3399  25.195  24.697   9.337
    7AU     LIG 3400  25.251  25.014   9.702
    7AU    AUSL 3401  24.762  23.399   7.583
    7AU    AUSL 3402  25.121  23.353   7.214
    7AU     AUL 3403  24.861  23.615   7.306
    7AU       S 3404  24.811  23.668   7.770
    7AU     LIG 3405  25.006  24.100   7.894
    7AU     LIG 3406  25.006  24.508   8.112
    7AU     LIG 3407  25.008  24.981   8.223
    7AU     LIG 3408  25.022  25.467   8.323
    7AU     LIG 3409  25.077  25.967   8.383
    7AU       S 3410  24.989  23.629   6.852
    7AU     LIG 3411  25.342  23.818   6.954
    7AU     LIG 3412  25.395  24.278   6.871
    7AU     LIG 3413  25.384  24.731   6.716
    7AU     LIG 3414  25.358  25.215   6.692
    7AU     LIG 3415  25.473  25.682   6.664
    7AU    AUSL 3416  25.156  23.204   7.608
    7AU    AUSL 3417  25.224  22.947   7.974
    7AU     AUL 3418  25.292  23.296   7.996
    7AU       S 3419  25.587  23.194   8.335
    7AU     LIG 3420  25.886  23.050   8.691
    7AU     LIG 3421  26.171  23.228   8.996
    7AU     LIG 3422  26.445  23.556   9.196
    7AU     LIG 3423  26.487  23.905   9.514
    7AU     LIG 3424  26.324  24.262   9.800
    7AU       S 3425  25.190  23.589   7.655
    7AU     LIG 3426  25.425  23.791   8.001
    7AU     LIG 3427  25.422  24.213   8.219
    7AU     LIG 3428  25.386  24.667   8.412
    7AU     LIG 3429  25.459  25.162   8.393
    7AU     LIG 3430  25.502  25.654   8.338
    7AU    AUSL 3431  24.945  21.812   7.951
    7AU    AUSL 3432  25.360  21.744   7.825
    7AU     AUL 3433  25.147  21.671   8.209
    7AU       S 3434  25.018  21.269   8.024
    7AU     LIG 3435  24.686  21.163   8.338
    7AU     LIG 3436  24.534  20.725   8.393
    7AU     LIG 3437  24.557  20.259   8.404
    7AU     LIG 3438  24.518  19.842   8.592
    7AU     LIG 3439  24.535  19.681   9.039
    7AU       S 3440  25.501  21.560   7.897
    7AU     LIG 3441  25.519  21.108   8.118
    7AU     LIG 3442  25.832  20.810   8.364
    7AU     LIG 3443  26.150  20.490   8.565
    7AU     LIG 3444  26.473  20.229   8.808
    7AU     LIG 3445  26.704  19.803   8.817
    7AU    AUSL 3446  24.636  21.574   7.697
    7AU    AUSL 3447  24.659  21.890   8.250
    7AU     AUL 3448  24.688  21.601   8.045
    7AU       S 3449  24.783  21.185   7.855
    7AU     LIG 3450  24.422  20.939   7.936
    7AU     LIG 3451  24.332  20.469   7.976
    7AU     LIG 3452  24.266  20.004   8.065
    7AU     LIG 3453  24.149  19.613   8.289
    7AU     LIG 3454  24.299  19.194   8.419
    7AU       S 3455  24.374  21.753   8.353
    7AU     LIG 3456  24.168  21.312   8.318
    7AU     LIG 3457  23.815  21.100   8.537
    7AU     LIG 3458  23.593  20.802   8.822
    7AU     LIG 3459  23.415  20.512   9.141
    7AU     LIG 3460  23.473  20.294   9.563
    7AU    AUSL 3461  25.058  21.529   7.635
    7AU    AUSL 3462  24.811  21.734   7.336
    7AU     AUL 3463  24.698  21.399   7.453
    7AU       S 3464  25.048  21.305   7.185
    7AU     LIG 3465  24.616  21.054   7.111
    7AU     LIG 3466  24.440  20.607   7.101
    7AU     LIG 3467  24.447  20.123   7.003
    7AU     LIG 3468  24.352  19.645   6.857
    7AU     LIG 3469  24.165  19.177   6.892
    7AU       S 3470  25.081  21.312   7.758
    7AU     LIG 3471  25.103  20.810   7.833
    7AU     LIG 3472  24.866  20.424   8.021
    7AU     LIG 3473  24.898  19.937   8.143
    7AU     LIG 3474  25.180  19.506   8.108
    7AU     LIG 3475  25.294  19.031   8.000
    7AU    AUSL 3476  24.938  23.149   6.867
    7AU    AUSL 3477  25.476  23.133   7.280
    7AU     AUL 3478  25.281  23.292   6.948
    7AU       S 3479  24.907  23.326   6.653
    7AU     LIG 3480  25.320  23.518   6.502
    7AU     LIG 3481  25.348  23.988   6.423
    7AU     LIG 3482  25.246  24.340   6.092
    7AU     LIG 3483  25.142  24.646   5.720
    7AU     LIG 3484  25.090  25.072   5.484
    7AU       S 3485  25.681  23.323   7.160
    7AU     LIG 3486  26.138  23.435   6.945
    7AU     LIG 3487  26.387  23.551   6.540
    7AU     LIG 3488  26.693  23.809   6.250
    7AU     LIG 3489  27.039  24.162   6.191
    7AU     LIG 3490  27.223  24.615   6.236
    7AU    AUSL 3491  24.780  23.109   7.290
    7AU    AUSL 3492  24.702  22.826   6.965
    7AU     AUL 3493  24.631  23.265   7.057
    7AU       S 3494  24.798  23.612   6.831
    7AU     LIG 3495  24.891  24.095   6.963
    7AU     LIG 3496  24.952  24.558   6.961
    7AU     LIG 3497  24.906  24.944   6.712
    7AU     LIG 3498  24.864  25.411   6.657
    7AU     LIG 3499  24.471  25.679   6.673
    7AU       S 3500  24.485  23.058   6.672
    7AU     LIG 3501  24.500  23.199   6.262
    7AU     LIG 3502  24.299  23.525   5.984
    7AU     LIG 3503  24.109  23.877   5.720
    7AU     LIG 3504  23.983  24.049   5.291
    7AU     LIG 3505  23.826  24.356   4.967
    7AU    AUSL 3506  24.992  21.703   6.938
    7AU    AUSL 3507  24.400  21.733   7.268
    7AU     AUL 3508  24.663  21.568   7.009
    7AU       S 3509  24.214  21.670   7.078
    7AU     LIG 3510  23.947  21.340   7.140
    7AU     LIG 3511  23.584  21.143   6.912
    7AU     LIG 3512  23.339  20.881   6.587
    7AU     LIG 3513  22.946  20.669   6.381
    7AU     LIG 3514  22.554  20.391   6.281
    7AU       S 3515  25.052  21.288   6.969
    7AU     LIG 3516  24.946  20.848   6.791
    7AU     LIG 3517  24.669  20.466   6.660
    7AU     LIG 3518  24.519  20.046   6.493
    7AU     LIG 3519  24.568  19.798   6.090
    7AU     LIG 3520  24.621  19.601   5.658
    7AU    AUSL 3521  25.239  21.722   7.311
    7AU    AUSL 3522  25.236  22.042   6.953
    7AU     AUL 3523  25.326  21.664   6.939
    7AU       S 3524  25.279  21.332   7.268
    7AU     LIG 3525  25.069  20.843   7.309
    7AU     LIG 3526  24.922  20.423   7.107
    7AU     LIG 3527  24.936  20.019   6.840
    7AU     LIG 3528  25.231  19.631   6.766
    7AU     LIG 3529  25.539  19.255   6.814
    7AU       S 3530  25.546  21.883   6.604
    7AU     LIG 3531  25.485  21.440   6.523
    7AU     LIG 3532  25.689  21.106   6.293
    7AU     LIG 3533  25.906  20.930   5.910
    7AU     LIG 3534  26.120  20.891   5.475
    7AU     LIG 3535  26.226  20.639   5.085
    8AU     AUC 3536  43.078   9.635   7.511
    8AU     AUC 3537  43.347   9.651   7.330
    8AU     AUC 3538  43.355   9.634   7.680
    8AU     AUC 3539  42.791   9.624   7.342
    8AU     AUC 3540  42.822   9.665   7.701
    8AU     AUC 3541  42.897   9.909   7.513
    8AU     AUC 3542  43.264   9.917   7.499
    8AU     AUC 3543  42.893   9.361   7.517
    8AU     AUC 3544  43.242   9.348   7.510
    8AU     AUC 3545  43.085   9.469   7.794
    8AU     AUC 3546  43.079   9.813   7.784
    8AU     AUC 3547  43.069   9.467   7.232
    8AU     AUC 3548  43.085   9.788   7.231
    8AU     AUC 3549  43.656   9.656   7.152
    8AU     AUC 3550  43.684   9.608   7.513
    8AU     AUC 3551  43.642   9.615   7.848
    8AU     AUC 3552  42.488   9.610   7.169
    8AU     AUC 3553  42.471   9.655   7.531
    8AU     AUC 3554  42.527   9.682   7.895
    8AU     AUC 3555  42.719  10.212   7.499
    8AU     AUC 3556  43.075  10.239   7.470
    8AU     AUC 3557  43.447  10.202   7.483
    8AU     AUC 3558  42.692   9.079   7.524
    8AU     AUC 3559  43.052   9.036   7.502
    8AU     AUC 3560  43.405   9.047   7.499
    8AU     AUC 3561  43.077   9.301   8.086
    8AU     AUC 3562  43.119   9.671   8.124
    8AU     AUC 3563  43.102  10.004   8.063
    8AU     AUC 3564  43.095   9.290   6.954
    8AU     AUC 3565  43.076   9.628   6.895
    8AU     AUC 3566  43.061   9.954   6.928
    8AU     AUC 3567  43.371   9.454   8.005
    8AU     AUC 3568  43.404   9.824   7.986
    8AU     AUC 3569  43.398   9.501   6.994
    8AU     AUC 3570  43.386   9.819   7.029
    8AU     AUC 3571  42.783   9.491   8.027
    8AU     AUC 3572  42.804   9.850   8.008
    8AU     AUC 3573  42.772   9.434   7.049
    8AU     AUC 3574  42.748   9.760   7.004
    8AU     AUC 3575  43.605   9.920   7.348
    8AU     AUC 3576  43.578   9.929   7.679
    8AU     AUC 3577  42.589   9.923   7.328
    8AU     AUC 3578  42.591   9.968   7.699
    8AU     AUC 3579  43.541   9.338   7.329
    8AU     AUC 3580  43.524   9.289   7.693
    8AU     AUC 3581  42.560   9.313   7.359
    8AU     AUC 3582  42.620   9.370   7.716
    8AU     AUC 3583  42.893  10.163   7.785
    8AU     AUC 3584  43.260  10.122   7.754
    8AU     AUC 3585  42.874   9.168   7.813
    8AU     AUC 3586  43.220   9.128   7.795
    8AU     AUC 3587  42.895  10.065   7.197
    8AU     AUC 3588  43.275  10.114   7.201
    8AU     AUC 3589  42.886   9.152   7.219
    8AU     AUC 3590  43.275   9.180   7.209
    8AU    AUSL 3591  43.661   9.596   8.191
    8AU    AUSL 3592  43.364   9.147   8.187
    8AU     AUL 3593  43.701   9.185   8.334
    8AU       S 3594  43.676   8.747   8.202
    8AU     LIG 3595  43.570   8.597   8.553
    8AU     LIG 3596  43.793   8.295   8.802
    8AU     LIG 3597  44.019   7.924   8.966
    8AU     LIG 3598  44.239   7.688   9.316
    8AU     LIG 3599  44.198   7.549   9.779
    8AU       S 3600  43.928   9.571   8.253
    8AU     LIG 3601  43.953   9.506   8.704
    8AU     LIG 3602  44.101   9.355   9.142
    8AU     LIG 3603  44.382   9.259   9.532
    8AU     LIG 3604  44.667   9.279   9.924
    8AU     LIG 3605  44.924   9.396  10.308
    8AU    AUSL 3606  43.283   9.504   8.397
    8AU    AUSL 3607  42.982   9.829   8.416
    8AU     AUL 3608  43.193   9.804   8.735
    8AU       S 3609  43.465   9.465   8.594
    8AU     LIG 3610  43.247   9.212   8.892
    8AU     LIG 3611  43.360   8.987   9.313
    8AU     LIG 3612  43.525   8.770   9.733
    8AU     LIG 3613  43.587   8.631  10.203
    8AU     LIG 3614  43.710   8.699  10.659
    8AU       S 3615  42.824   9.545   8.682
    8AU     LIG 3616  42.838   9.428   9.145
    8AU     LIG 3617  42.559   9.432   9.535
    8AU     LIG 3618  42.335   9.456   9.968
    8AU     LIG 3619  42.310   9.751  10.377
    8AU     LIG 3620  42.363  10.028  10.786
    8AU    AUSL 3621  43.383   9.925   8.333
    8AU    AUSL 3622  43.729   9.997   8.055
    8AU     AUL 3623  43.679   9.887   8.464
    8AU       S 3624  43.249  10.223   8.469
    8AU     LIG 3625  43.503  10.198   8.840
    8AU     LIG 3626  43.725  10.251   9.264
    8AU     LIG 3627  43.715  10.309   9.755
    8AU     LIG 3628  43.693  10.321  10.242
    8AU     LIG 3629  43.910  10.296  10.670
    8AU       S 3630  43.781  10.270   8.228
    8AU     LIG 3631  44.174  10.032   8.289
    8AU     LIG 3632  44.489  10.185   8.611
    8AU     LIG 3633  44.757  10.411   8.941
    8AU     LIG 3634   0.001  10.727   9.186
    8AU     LIG 3635   0.263  10.878   9.540
    8AU    AUSL 3636  43.601   9.784   6.752
    8AU    AUSL 3637  43.379  10.094   6.969
    8AU     AUL 3638  43.501  10.163   6.618
    8AU       S 3639  43.547   9.821   6.316
    8AU     LIG 3640  43.945   9.684   6.115
    8AU     LIG 3641  44.087   9.381   5.800
    8AU     LIG 3642  44.183   9.215   5.372
    8AU     LIG 3643  44.542   9.096   5.076
    8AU     LIG 3644  44.967   9.163   4.858
    8AU       S 3645  43.848  10.349   6.879
    8AU     LIG 3646  43.920  10.573   6.488
    8AU     LIG 3647  44.124  10.774   6.088
    8AU     LIG 3648  44.392  10.959   5.730
    8AU     LIG 3649  44.539  11.251   5.387
    8AU     LIG 3650  44.531  11.667   5.151
    8AU    AUSL 3651  43.377   9.446   6.608
    8AU    AUSL 3652  43.743   9.415   6.921
    8AU     AUL 3653  43.799   9.548   6.615
    8AU       S 3654  43.914   9.102   6.695
    8AU     LIG 3655  44.033   8.782   6.361
    8AU     LIG 3656  44.267   8.399   6.213
    8AU     LIG 3657  44.519   8.093   5.949
    8AU     LIG 3658  44.899   7.946   5.701
    8AU     LIG 3659   0.198   7.938   5.322
    8AU       S 3660  43.478   9.640   6.288
    8AU     LIG 3661  43.618   9.281   6.059
    8AU     LIG 3662  43.722   9.064   5.628
    8AU     LIG 3663  43.783   8.949   5.164
    8AU     LIG 3664  43.768   8.682   4.752
    8AU     LIG 3665  43.894   8.567   4.303
    8AU    AUSL 3666  43.177   9.826   6.695
    8AU    AUSL 3667  42.966   9.424   6.742
    8AU     AUL 3668  43.105   9.441   6.449
    8AU       S 3669  42.669   9.452   6.306
    8AU     LIG 3670  42.768   9.244   5.942
    8AU     LIG 3671  42.524   8.953   5.681
    8AU     LIG 3672  42.346   8.943   5.271
    8AU     LIG 3673  42.349   8.772   4.856
    8AU     LIG 3674  42.295   8.776   4.397
    8AU       S 3675  43.222   9.884   6.359
    8AU     LIG 3676  43.258   9.727   5.874
    8AU     LIG 3677  43.636   9.578   5.605
    8AU     LIG 3678  43.823   9.550   5.156
    8AU     LIG 3679  43.843   9.756   4.707
    8AU     LIG 3680  43.852  10.020   4.299
    8AU    AUSL 3681  42.582   9.744   8.288
    8AU    AUSL 3682  42.843  10.095   8.122
    8AU     AUL 3683  42.731  10.047   8.479
    8AU       S 3684  42.651   9.667   8.744
    8AU     LIG 3685  42.359   9.383   8.944
    8AU     LIG 3686  42.122   9.243   9.339
    8AU     LIG 3687  41.920   9.143   9.755
    8AU     LIG 3688  41.520   9.070   9.989
    8AU     LIG 3689  41.262   9.156  10.373
    8AU       S 3690  42.399  10.313   8.254
    8AU     LIG 3691  42.508  10.490   8.645
    8AU     LIG 3692  42.425  10.739   9.033
    8AU     LIG 3693  42.124  10.978   9.301
    8AU     LIG 3694  41.965  11.112   9.732
    8AU     LIG 3695  41.869  11.414  10.096
    8AU    AUSL 3696  42.899   9.457   8.211
    8AU    AUSL 3697  42.438   9.383   8.114
    8AU     AUL 3698  42.457   9.445   8.390
    8AU       S 3699  42.273   9.015   8.257
    8AU     LIG 3700  41.855   9.038   8.161
    8AU     LIG 3701  41.593   8.684   8.272
    8AU     LIG 3702  41.401   8.421   8.603
    8AU     LIG 3703  41.178   8.187   8.935
    8AU     LIG 3704  40.876   8.149   9.289
    8AU       S 3705  42.877   9.381   8.583
    8AU     LIG 3706  42.727   9.045   8.808
    8AU     LIG 3707  42.565   8.987   9.251
    8AU     LIG 3708  42.403   8.967   9.709
    8AU     LIG 3709  42.187   8.896  10.135
    8AU     LIG 3710  42.064   8.865  10.599
    8AU    AUSL 3711  42.541   9.481   6.783
    8AU    AUSL 3712  42.754   9.128   6.958
    8AU     AUL 3713  42.788   9.130   6.630
    8AU       S 3714  42.492   9.377   6.374
    8AU     LIG 3715  42.251   9.268   6.006
    8AU     LIG 3716  42.023   9.142   5.620
    8AU     LIG 3717  41.840   9.083   5.190
    8AU     LIG 3718  41.453   9.063   4.913
    8AU     LIG 3719  41.146   9.107   4.569
    8AU       S 3720  42.387   8.969   6.792
    8AU     LIG 3721  42.206   8.556   6.682
    8AU     LIG 3722  41.891   8.296   6.475
    8AU     LIG 3723  41.616   8.106   6.141
    8AU     LIG 3724  41.490   7.970   5.703
    8AU     LIG 3725  41.340   7.651   5.395
    8AU    AUSL 3726  42.766   9.802   6.608
    8AU    AUSL 3727  42.415   9.879   6.918
    8AU     AUL 3728  42.330   9.713   6.633
    8AU       S 3729  42.435  10.152   6.679
    8AU     LIG 3730  42.033  10.238   6.602
    8AU     LIG 3731  41.849  10.496   6.252
    8AU     LIG 3732  41.702  10.670   5.832
    8AU     LIG 3733  41.428  10.791   5.466
    8AU     LIG 3734  40.993  10.756   5.243
    8AU       S 3735  42.722   9.728   6.359
    8AU     LIG 3736  42.519   9.711   5.918
    8AU     LIG 3737  42.441   9.441   5.535
    8AU     LIG 3738  42.372   9.427   5.063
    8AU     LIG 3739  42.435   9.684   4.650
    8AU     LIG 3740  42.519   9.930   4.236
    8AU    AUSL 3741  43.861  10.086   7.510
    8AU    AUSL 3742  43.765   9.938   7.109
    8AU     AUL 3743  44.125  10.170   7.281
    8AU       S 3744  43.862  10.134   6.920
    8AU     LIG 3745  43.999  10.039   6.505
    8AU     LIG 3746  44.299  10.299   6.246
    8AU     LIG 3747  44.606  10.588   6.028
    8AU     LIG 3748  44.878  10.732   5.670
    8AU     LIG 3749   0.318  10.719   5.480
    8AU       S 3750  44.334   9.958   7.652
    8AU     LIG 3751  44.722  10.182   7.559
    8AU     LIG 3752   0.185  10.332   7.537
    8AU     LIG 3753   0.651  10.456   7.517
    8AU     LIG 3754   1.002  10.755   7.550
    8AU     LIG 3755   1.115  11.091   7.864
    8AU    AUSL 3756  44.033   9.708   7.347
    8AU    AUSL 3757  43.996   9.363   7.665
    8AU     AUL 3758  44.299   9.392   7.434
    8AU       S 3759  44.258   9.820   7.567
    8AU     LIG 3760  44.663   9.731   7.332
    8AU     LIG 3761   0.113   9.887   7.292
    8AU     LIG 3762   0.498  10.143   7.139
    8AU     LIG 3763   0.946  10.346   7.013
    8AU     LIG 3764   1.408  10.312   6.779
    8AU       S 3765  44.200   8.961   7.625
    8AU     LIG 3766  44.611   8.835   7.758
    8AU     LIG 3767   0.060   8.676   7.758
    8AU     LIG 3768   0.513   8.508   7.753
    8AU     LIG 3769   0.992   8.569   7.741
    8AU     LIG 3770   1.401   8.664   7.968
    8AU    AUSL 3771  43.814   9.734   7.743
    8AU    AUSL 3772  43.642  10.335   7.773
    8AU     AUL 3773  43.954  10.148   7.817
    8AU       S 3774  43.844  10.532   8.068
    8AU     LIG 3775  44.221  10.541   8.318
    8AU     LIG 3776  44.471  10.724   8.658
    8AU     LIG 3777  44.763  11.043   8.840
    8AU     LIG 3778  44.899  11.492   8.817
    8AU     LIG 3779   0.096  11.915   8.783
    8AU       S 3780  44.177   9.744   7.853
    8AU     LIG 3781  44.633   9.817   8.004
    8AU     LIG 3782   0.066   9.895   7.817
    8AU     LIG 3783   0.530  10.009   7.772
    8AU     LIG 3784   0.989  10.072   7.948
    8AU     LIG 3785   1.356  10.346   8.144
    8AU    AUSL 3786  42.384  10.182   7.542
    8AU    AUSL 3787  42.471   9.958   7.939
    8AU     AUL 3788  42.145  10.269   7.803
    8AU       S 3789  42.317  10.099   8.193
    8AU     LIG 3790  42.252  10.017   8.640
    8AU     LIG 3791  42.098  10.344   8.946
    8AU     LIG 3792  41.793  10.602   9.191
    8AU     LIG 3793  41.412  10.733   9.446
    8AU     LIG 3794  41.014  10.896   9.653
    8AU       S 3795  42.351  10.548   7.471
    8AU     LIG 3796  41.885  10.442   7.393
    8AU     LIG 3797  41.482  10.722   7.446
    8AU     LIG 3798  41.134  11.075   7.400
    8AU     LIG 3799  40.741  11.327   7.548
    8AU     LIG 3800  40.402  11.469   7.848
    8AU    AUSL 3801  42.362   9.811   7.325
    8AU    AUSL 3802  42.502  10.250   7.143
    8AU     AUL 3803  42.195  10.110   7.166
    8AU       S 3804  42.000   9.676   6.989
    8AU     LIG 3805  41.657  10.001   7.106
    8AU     LIG 3806  41.175  10.058   7.142
    8AU     LIG 3807  40.791  10.274   6.950
    8AU     LIG 3808  40.312  10.212   6.889
    8AU     LIG 3809  39.875  10.415   6.943
    8AU       S 3810  42.301  10.521   6.938
    8AU     LIG 3811  42.110  10.775   6.611
    8AU     LIG 3812  42.168  11.167   6.375
    8AU     LIG 3813  41.891  11.523   6.248
    8AU     LIG 3814  41.630  11.927   6.245
    8AU     LIG 3815  41.353  12.248   6.038
    8AU    AUSL 3816  42.143   9.828   7.717
    8AU    AUSL 3817  42.117   9.482   7.396
    8AU     AUL 3818  41.972   9.814   7.442
    8AU       S 3819  41.851   9.372   7.604
    8AU     LIG 3820  41.523   9.186   7.325
    8AU     LIG 3821  41.070   9.029   7.346
    8AU     LIG 3822  40.596   9.004   7.327
    8AU     LIG 3823  40.141   8.962   7.253
    8AU     LIG 3824  39.872   8.851   6.888
    8AU       S 3825  42.019   9.782   7.941
    8AU     LIG 3826  41.668  10.074   7.779
    8AU     LIG 3827  41.326  10.361   7.986
    8AU     LIG 3828  40.948  10.416   8.293
    8AU     LIG 3829  40.460  10.434   8.312
    8AU     LIG 3830  40.035  10.207   8.207
    8AU    AUSL 3831  43.727   9.052   7.535
    8AU    AUSL 3832  43.627   9.317   7.883
    8AU     AUL 3833  43.938   9.211   7.912
    8AU       S 3834  43.895   8.865   7.533
    8AU     LIG 3835  44.209   8.462   7.559
    8AU     LIG 3836  44.682   8.373   7.527
    8AU     LIG 3837   0.134   8.227   7.512
    8AU     LIG 3838   0.549   8.011   7.513
    8AU     LIG 3839   0.702   7.554   7.550
    8AU       S 3840  43.850   8.787   8.045
    8AU     LIG 3841  44.071   8.505   8.369
    8AU     LIG 3842  44.304   8.263   8.692
    8AU     LIG 3843  44.541   7.991   8.995
    8AU     LIG 3844  44.907   7.993   9.290
    8AU     LIG 3845   0.250   8.212   9.544
    8AU    AUSL 3846  43.723   9.430   7.336
    8AU    AUSL 3847  43.686   9.024   7.115
    8AU     AUL 3848  43.950   9.247   7.165
    8AU       S 3849  44.150   8.921   7.396
    8AU     LIG 3850  44.569   8.800   7.248
    8AU     LIG 3851   0.039   8.656   7.241
    8AU     LIG 3852   0.510   8.490   7.244
    8AU     LIG 3853   1.009   8.481   7.230
    8AU     LIG 3854   1.412   8.582   6.979
    8AU       S 3855  43.892   8.889   6.854
    8AU     LIG 3856  43.978   8.434   6.744
    8AU     LIG 3857  44.136   8.020   6.534
    8AU     LIG 3858  44.396   7.701   6.283
    8AU     LIG 3859  44.704   7.311   6.253
    8AU     LIG 3860   0.121   7.067   6.287
    8AU    AUSL 3861  42.297   9.120   7.564
    8AU    AUSL 3862  42.441   9.346   7.165
    8AU     AUL 3863  42.081   9.209   7.236
    8AU       S 3864  42.274   9.105   6.837
    8AU     LIG 3865  41.848   8.891   6.870
    8AU     LIG 3866  41.521   8.620   6.640
    8AU     LIG 3867  41.231   8.363   6.365
    8AU     LIG 3868  41.087   8.123   5.986
    8AU     LIG 3869  40.984   8.034   5.536
    8AU       S 3870  41.903   9.081   7.655
    8AU     LIG 3871  41.697   8.727   7.481
    8AU     LIG 3872  41.296   8.559   7.329
    8AU     LIG 3873  40.825   8.565   7.447
    8AU     LIG 3874  40.351   8.589   7.568
    8AU     LIG 3875  40.058   8.317   7.822
    8AU    AUSL 3876  42.412   9.514   7.716
    8AU    AUSL 3877  42.619   9.125   7.832
    8AU     AUL 3878  42.223   9.306   7.902
    8AU       S 3879  42.332   8.878   8.016
    8AU     LIG 3880  41.996   8.609   7.910
    8AU     LIG 3881  41.708   8.256   8.012
    8AU     LIG 3882  41.484   7.992   8.332
    8AU     LIG 3883  41.250   7.749   8.661
    8AU     LIG 3884  40.997   7.399   8.857
    8AU       S 3885  41.809   9.398   7.738
    8AU     LIG 3886  41.476   9.671   7.488
    8AU     LIG 3887  41.029   9.530   7.465
    8AU     LIG 3888  40.772   9.217   7.748
    8AU     LIG 3889  40.309   9.094   7.748
    8AU     LIG 3890  39.947   8.817   7.874
    8AU    AUSL 3891  43.050  10.444   7.989
    8AU    AUSL 3892  42.630  10.346   7.849
    8AU     AUL 3893  42.849  10.436   8.235
    8AU       S 3894  42.498  10.547   7.952
    8AU     LIG 3895  42.278  10.796   8.288
    8AU     LIG 3896  42.068  10.907   8.710
    8AU     LIG 3897  41.905  11.307   8.934
    8AU     LIG 3898  41.736  11.780   8.911
    8AU     LIG 3899  41.413  12.151   8.858
    8AU       S 3900  43.040  10.793   7.981
    8AU     LIG 3901  43.245  10.826   8.356
    8AU     LIG 3902  43.366  11.255   8.534
    8AU     LIG 3903  43.275  11.653   8.802
    8AU     LIG 3904  43.146  11.959   9.170
    8AU     LIG 3905  43.051  12.375   9.407
    8AU    AUSL 3906  42.868  10.576   7.597
    8AU    AUSL 3907  43.234  10.544   7.227
    8AU     AUL 3908  42.914  10.788   7.339
    8AU       S 3909  43.014  10.880   7.784
    8AU     LIG 3910  43.133  11.279   8.061
    8AU     LIG 3911  43.140  11.697   8.289
    8AU     LIG 3912  42.889  12.123   8.348
    8AU     LIG 3913  42.737  12.589   8.383
    8AU     LIG 3914  42.601  13.040   8.260
    8AU       S 3915  43.152  10.841   6.947
    8AU     LIG 3916  43.550  10.975   6.985
    8AU     LIG 3917  43.677  11.404   6.848
    8AU     LIG 3918  43.917  11.814   6.871
    8AU     LIG 3919  44.179  12.193   6.827
    8AU     LIG 3920  44.296  12.550   6.567
    8AU    AUSL 3921  43.258  10.380   7.614
    8AU    AUSL 3922  43.323  10.128   7.983
    8AU     AUL 3923  43.386  10.484   7.993
    8AU       S 3924  43.673  10.383   8.338
    8AU     LIG 3925  43.976  10.281   8.693
    8AU     LIG 3926  44.236  10.436   9.025
    8AU     LIG 3927  44.486  10.790   9.196
    8AU     LIG 3928  44.734  11.061   9.497
    8AU     LIG 3929  44.694  11.289   9.914
    8AU       S 3930  43.301  10.775   7.650
    8AU     LIG 3931  43.552  11.001   7.982
    8AU     LIG 3932  43.652  11.480   8.139
    8AU     LIG 3933  43.939  11.925   8.142
    8AU     LIG 3934  44.096  12.416   8.108
    8AU     LIG 3935  44.127  12.901   8.170
    8AU    AUSL 3936  43.040   8.993   7.948
    8AU    AUSL 3937  43.458   8.924   7.830
    8AU     AUL 3938  43.227   8.858   8.216
    8AU       S 3939  43.119   8.456   8.020
    8AU     LIG 3940  42.826   8.340   8.343
    8AU     LIG 3941  42.731   7.889   8.443
    8AU     LIG 3942  42.740   7.425   8.496
    8AU     LIG 3943  42.751   6.991   8.655
    8AU     LIG 3944  42.795   6.805   9.091
    8AU       S 3945  43.591   8.743   7.911
    8AU     LIG 3946  43.649   8.275   8.093
    8AU     LIG 3947  43.945   8.005   8.396
    8AU     LIG 3948  44.323   7.751   8.584
    8AU     LIG 3949  44.662   7.448   8.767
    8AU     LIG 3950  44.996   7.074   8.738
    8AU    AUSL 3951  42.733   8.757   7.688
    8AU    AUSL 3952  42.752   9.072   8.245
    8AU     AUL 3953  42.776   8.781   8.038
    8AU       S 3954  42.875   8.367   7.846
    8AU     LIG 3955  42.584   8.044   7.977
    8AU     LIG 3956  42.461   7.590   8.092
    8AU     LIG 3957  42.446   7.109   8.199
    8AU     LIG 3958  42.366   6.634   8.283
    8AU     LIG 3959  42.105   6.223   8.336
    8AU       S 3960  42.485   8.950   8.364
    8AU     LIG 3961  42.305   8.501   8.342
    8AU     LIG 3962  41.904   8.290   8.491
    8AU     LIG 3963  41.667   8.029   8.818
    8AU     LIG 3964  41.436   7.784   9.151
    8AU     LIG 3965  41.450   7.616   9.589
    8AU    AUSL 3966  43.157   8.712   7.633
    8AU    AUSL 3967  42.914   8.918   7.331
    8AU     AUL 3968  42.802   8.583   7.443
    8AU       S 3969  43.162   8.489   7.186
    8AU     LIG 3970  42.749   8.219   7.112
    8AU     LIG 3971  42.533   7.811   7.011
    8AU     LIG 3972  42.476   7.347   6.884
    8AU     LIG 3973  42.218   6.922   6.879
    8AU     LIG 3974  42.171   6.460   6.792
    8AU       S 3975  43.177   8.484   7.755
    8AU     LIG 3976  43.170   7.976   7.880
    8AU     LIG 3977  42.979   7.559   8.055
    8AU     LIG 3978  42.958   7.069   8.171
    8AU     LIG 3979  42.918   6.569   8.191
    8AU     LIG 3980  43.121   6.118   8.294
    8AU    AUSL 3981  43.059  10.344   6.872
    8AU    AUSL 3982  43.582  10.309   7.284
    8AU     AUL 3983  43.408  10.467   6.949
    8AU       S 3984  43.034  10.567   6.672
    8AU     LIG 3985  43.427  10.774   6.528
    8AU     LIG 3986  43.550  11.207   6.377
    8AU     LIG 3987  43.375  11.607   6.168
    8AU     LIG 3988  43.227  11.885   5.791
    8AU     LIG 3989  43.057  12.296   5.610
    8AU       S 3990  43.807  10.487   7.172
    8AU     LIG 3991  44.217  10.660   6.927
    8AU     LIG 3992  44.429  10.767   6.502
    8AU     LIG 3993  44.593  11.113   6.191
    8AU     LIG 3994  44.796  11.567   6.077
    8AU     LIG 3995   0.141  11.865   5.870
    8AU    AUSL 3996  42.891  10.298   7.291
    8AU    AUSL 3997  42.820  10.019   6.960
    8AU     AUL 3998  42.747  10.454   7.041
    8AU       S 3999  42.969  10.811   6.866
    8AU     LIG 4000  43.163  11.263   6.707
    8AU     LIG 4001  43.153  11.736   6.643
    8AU     LIG 4002  42.855  12.132   6.655
    8AU     LIG 4003  42.690  12.579   6.643
    8AU     LIG 4004  42.711  13.026   6.539
    8AU       S 4005  42.608  10.256   6.653
    8AU     LIG 4006  42.389  10.489   6.291
    8AU     LIG 4007  42.173  10.811   5.995
    8AU     LIG 4008  42.015  11.002   5.567
    8AU     LIG 4009  42.082  11.240   5.141
    8AU     LIG 4010  41.924  11.532   4.802
    8AU    AUSL 4011  43.100   8.884   6.936
    8AU    AUSL 4012  42.505   8.918   7.252
    8AU     AUL 4013  42.774   8.753   6.999
    8AU       S 4014  42.330   8.865   7.057
    8AU     LIG 4015  42.084   8.562   7.193
    8AU     LIG 4016  41.731   8.332   7.002
    8AU     LIG 4017  41.492   8.057   6.684
    8AU     LIG 4018  41.248   7.806   6.358
    8AU     LIG 4019  40.924   7.501   6.175
    8AU       S 4020  43.168   8.476   6.981
    8AU     LIG 4021  43.116   8.037   6.814
    8AU     LIG 4022  42.862   7.662   6.644
    8AU     LIG 4023  42.742   7.260   6.421
    8AU     LIG 4024  42.771   7.024   5.996
    8AU     LIG 4025  42.854   6.907   5.529
    8AU    AUSL 4026  43.341   8.907   7.313
    8AU    AUSL 4027  43.340   9.226   6.957
    8AU     AUL 4028  43.434   8.853   6.936
    8AU       S 4029  43.400   8.529   7.275
    8AU     LIG 4030  43.193   8.045   7.356
    8AU     LIG 4031  43.008   7.644   7.145
    8AU     LIG 4032  42.987   7.218   6.896
    8AU     LIG 4033  43.098   6.748   6.789
    8AU     LIG 4034  43.305   6.296   6.754
    8AU       S 4035  43.657   9.067   6.600
    8AU     LIG 4036  43.560   8.633   6.504
    8AU     LIG 4037  43.765   8.280   6.284
    8AU     LIG 4038  44.010   7.983   6.000
    8AU     LIG 4039  44.068   7.831   5.542
    8AU     LIG 4040  44.082   7.667   5.089
    9AU     AUC 4041  15.239  21.580   7.514
    9AU     AUC 4042  15.509  21.595   7.332
    9AU     AUC 4043  15.517  21.578   7.682
    9AU     AUC 4044  14.952  21.571   7.343
    9AU     AUC 4045  14.981  21.608   7.703
    9AU     AUC 4046  15.059  21.853   7.516
    9AU     AUC 4047  15.427  21.860   7.502
    9AU     AUC 4048  15.053  21.307   7.519
    9AU     AUC 4049  15.401  21.292   7.513
    9AU     AUC 4050  15.245  21.411   7.796
    9AU     AUC 4051  15.239  21.755   7.786
    9AU     AUC 4052  15.230  21.412   7.234
    9AU     AUC 4053  15.249  21.733   7.234
    9AU     AUC 4054  15.820  21.599   7.155
    9AU     AUC 4055  15.846  21.550   7.515
    9AU     AUC 4056  15.802  21.556   7.849
    9AU     AUC 4057  14.650  21.559   7.170
    9AU     AUC 4058  14.631  21.602   7.532
    9AU     AUC 4059  14.685  21.626   7.897
    9AU     AUC 4060  14.883  22.157   7.503
    9AU     AUC 4061  15.238  22.183   7.475
    9AU     AUC 4062  15.609  22.146   7.489
    9AU     AUC 4063  14.849  21.024   7.525
    9AU     AUC 4064  15.208  20.980   7.505
    9AU     AUC 4065  15.563  20.990   7.502
    9AU     AUC 4066  15.236  21.240   8.088
    9AU     AUC 4067  15.279  21.611   8.126
    9AU     AUC 4068  15.263  21.945   8.067
    9AU     AUC 4069  15.257  21.235   6.957
    9AU     AUC 4070  15.241  21.573   6.896
    9AU     AUC 4071  15.228  21.900   6.931
    9AU     AUC 4072  15.530  21.394   8.007
    9AU     AUC 4073  15.566  21.764   7.988
    9AU     AUC 4074  15.561  21.442   6.998
    9AU     AUC 4075  15.553  21.764   7.033
    9AU     AUC 4076  14.942  21.433   8.030
    9AU     AUC 4077  14.964  21.792   8.011
    9AU     AUC 4078  14.934  21.382   7.051
    9AU     AUC 4079  14.913  21.708   7.006
    9AU     AUC 4080  15.769  21.862   7.350
    9AU     AUC 4081  15.742  21.871   7.682
    9AU     AUC 4082  14.753  21.870   7.329
    9AU     AUC 4083  14.751  21.912   7.702
    9AU     AUC 4084  15.703  21.278   7.330
    9AU     AUC 4085  15.681  21.229   7.696
    9AU     AUC 4086  14.719  21.261   7.361
    9AU     AUC 4087  14.780  21.316   7.717
    9AU     AUC 4088  15.054  22.106   7.790
    9AU     AUC 4089  15.421  22.064   7.758
    9AU     AUC 4090  15.033  21.111   7.814
    9AU     AUC 4091  15.377  21.069   7.796
    9AU     AUC 4092  15.060  22.012   7.200
    9AU     AUC 4093  15.442  22.058   7.205
    9AU     AUC 4094  15.044  21.099   7.222
    9AU     AUC 4095  15.434  21.122   7.212
    9AU    AUSL 4096  15.823  21.535   8.192
    9AU    AUSL 4097  15.526  21.082   8.190
    9AU     AUL 4098  15.867  21.127   8.335
    9AU       S 4099  15.844  20.692   8.193
    9AU     LIG 4100  15.720  20.546   8.536
    9AU     LIG 4101  15.917  20.236   8.785
    9AU     LIG 4102  16.065  19.836   8.950
    9AU     LIG 4103  16.235  19.567   9.281
    9AU     LIG 4104  16.291  19.513   9.750
    9AU       S 4105  16.092  21.515   8.247
    9AU     LIG 4106  16.108  21.443   8.703
    9AU     LIG 4107  16.213  21.273   9.148
    9AU     LIG 4108  16.447  21.122   9.551
    9AU     LIG 4109  16.745  21.030   9.925
    9AU     LIG 4110  17.021  21.197  10.275
    9AU    AUSL 4111  15.443  21.443   8.395
    9AU    AUSL 4112  15.141  21.768   8.420
    9AU     AUL 4113  15.352  21.739   8.737
    9AU       S 4114  15.621  21.402   8.590
    9AU     LIG 4115  15.404  21.186   8.903
    9AU     LIG 4116  15.436  21.028   9.354
    9AU     LIG 4117  15.694  20.882   9.750
    9AU     LIG 4118  15.900  20.711  10.160
    9AU     LIG 4119  16.194  20.525  10.504
    9AU       S 4120  14.982  21.481   8.685
    9AU     LIG 4121  14.986  21.360   9.153
    9AU     LIG 4122  14.718  21.331   9.555
    9AU     LIG 4123  14.507  21.467   9.971
    9AU     LIG 4124  14.479  21.809  10.334
    9AU     LIG 4125  14.505  22.123  10.713
    9AU    AUSL 4126  15.541  21.863   8.335
    9AU    AUSL 4127  15.889  21.937   8.057
    9AU     AUL 4128  15.838  21.824   8.466
    9AU       S 4129  15.409  22.159   8.474
    9AU     LIG 4130  15.660  22.130   8.846
    9AU     LIG 4131  15.881  22.235   9.260
    9AU     LIG 4132  15.854  22.321   9.743
    9AU     LIG 4133  15.829  22.345  10.227
    9AU     LIG 4134  15.911  22.289  10.699
    9AU       S 4135  15.937  22.207   8.231
    9AU     LIG 4136  16.323  21.984   8.316
    9AU     LIG 4137  16.629  22.158   8.650
    9AU     LIG 4138  16.875  22.418   8.982
    9AU     LIG 4139  17.086  22.706   9.295
    9AU     LIG 4140  17.389  22.797   9.646
    9AU    AUSL 4141  15.768  21.720   6.764
    9AU    AUSL 4142  15.545  22.037   6.971
    9AU     AUL 4143  15.682  22.096   6.626
    9AU       S 4144  15.725  21.765   6.314
    9AU     LIG 4145  16.101  21.588   6.124
    9AU     LIG 4146  16.186  21.285   5.795
    9AU     LIG 4147  16.280  21.200   5.347
    9AU     LIG 4148  16.588  21.146   4.983
    9AU     LIG 4149  16.930  21.277   4.676
    9AU       S 4150  16.015  22.312   6.889
    9AU     LIG 4151  16.086  22.522   6.481
    9AU     LIG 4152  16.315  22.726   6.085
    9AU     LIG 4153  16.530  22.823   5.661
    9AU     LIG 4154  16.804  23.007   5.327
    9AU     LIG 4155  16.904  23.361   5.032
    9AU    AUSL 4156  15.541  21.388   6.610
    9AU    AUSL 4157  15.909  21.350   6.925
    9AU     AUL 4158  15.957  21.479   6.614
    9AU       S 4159  16.083  21.035   6.706
    9AU     LIG 4160  16.193  20.650   6.421
    9AU     LIG 4161  16.383  20.219   6.313
    9AU     LIG 4162  16.620  19.940   6.008
    9AU     LIG 4163  16.936  19.967   5.644
    9AU     LIG 4164  17.292  20.153   5.365
    9AU       S 4165  15.632  21.614   6.303
    9AU     LIG 4166  15.717  21.229   6.101
    9AU     LIG 4167  15.776  20.996   5.675
    9AU     LIG 4168  15.852  20.947   5.199
    9AU     LIG 4169  15.911  20.819   4.733
    9AU     LIG 4170  15.987  20.749   4.258
    9AU    AUSL 4171  15.345  21.770   6.697
    9AU    AUSL 4172  15.130  21.371   6.741
    9AU     AUL 4173  15.273  21.381   6.450
    9AU       S 4174  14.838  21.403   6.307
    9AU     LIG 4175  14.972  21.233   5.932
    9AU     LIG 4176  14.750  20.950   5.630
    9AU     LIG 4177  14.530  20.938   5.217
    9AU     LIG 4178  14.294  20.769   4.849
    9AU     LIG 4179  14.319  20.662   4.394
    9AU       S 4180  15.391  21.828   6.361
    9AU     LIG 4181  15.438  21.636   5.867
    9AU     LIG 4182  15.777  21.489   5.530
    9AU     LIG 4183  15.916  21.451   5.059
    9AU     LIG 4184  15.911  21.606   4.595
    9AU     LIG 4185  16.071  21.810   4.189
    9AU    AUSL 4186  14.741  21.684   8.290
    9AU    AUSL 4187  15.003  22.034   8.125
    9AU     AUL 4188  14.883  21.985   8.483
    9AU       S 4189  14.810  21.604   8.747
    9AU     LIG 4190  14.535  21.279   8.909
    9AU     LIG 4191  14.313  21.134   9.298
    9AU     LIG 4192  14.127  21.174   9.725
    9AU     LIG 4193  13.776  21.182  10.050
    9AU     LIG 4194  13.409  21.265  10.339
    9AU       S 4195  14.557  22.258   8.259
    9AU     LIG 4196  14.662  22.453   8.653
    9AU     LIG 4197  14.553  22.687   9.050
    9AU     LIG 4198  14.221  22.897   9.318
    9AU     LIG 4199  14.037  22.994   9.760
    9AU     LIG 4200  14.089  23.156  10.219
    9AU    AUSL 4201  15.058  21.397   8.212
    9AU    AUSL 4202  14.597  21.323   8.116
    9AU     AUL 4203  14.616  21.386   8.390
    9AU       S 4204  14.429  20.955   8.262
    9AU     LIG 4205  14.013  20.923   8.166
    9AU     LIG 4206  13.820  20.519   8.281
    9AU     LIG 4207  13.598  20.163   8.505
    9AU     LIG 4208  13.366  19.955   8.855
    9AU     LIG 4209  13.050  20.003   9.200
    9AU       S 4210  15.036  21.320   8.583
    9AU     LIG 4211  14.925  20.966   8.805
    9AU     LIG 4212  14.773  20.895   9.254
    9AU     LIG 4213  14.552  20.850   9.685
    9AU     LIG 4214  14.303  20.868  10.095
    9AU     LIG 4215  14.074  20.695  10.467
    9AU    AUSL 4216  14.706  21.434   6.786
    9AU    AUSL 4217  14.916  21.078   6.962
    9AU     AUL 4218  14.945  21.079   6.634
    9AU       S 4219  14.665  21.333   6.369
    9AU     LIG 4220  14.455  21.227   5.988
    9AU     LIG 4221  14.241  21.095   5.613
    9AU     LIG 4222  14.003  20.930   5.259
    9AU     LIG 4223  13.632  21.045   5.027
    9AU     LIG 4224  13.398  21.331   4.737
    9AU       S 4225  14.540  20.917   6.789
    9AU     LIG 4226  14.291  20.529   6.675
    9AU     LIG 4227  14.070  20.216   6.410
    9AU     LIG 4228  13.876  19.919   6.103
    9AU     LIG 4229  13.722  19.715   5.709
    9AU     LIG 4230  13.828  19.577   5.263
    9AU    AUSL 4231  14.934  21.751   6.609
    9AU    AUSL 4232  14.581  21.833   6.918
    9AU     AUL 4233  14.498  21.664   6.630
    9AU       S 4234  14.602  22.101   6.687
    9AU     LIG 4235  14.216  22.130   6.534
    9AU     LIG 4236  14.040  22.380   6.162
    9AU     LIG 4237  13.847  22.542   5.742
    9AU     LIG 4238  13.507  22.592   5.377
    9AU     LIG 4239  13.071  22.751   5.205
    9AU       S 4240  14.896  21.682   6.366
    9AU     LIG 4241  14.697  21.695   5.935
    9AU     LIG 4242  14.636  21.441   5.533
    9AU     LIG 4243  14.610  21.443   5.055
    9AU     LIG 4244  14.590  21.703   4.642
    9AU     LIG 4245  14.541  22.011   4.272
    9AU    AUSL 4246  16.022  22.028   7.515
    9AU    AUSL 4247  15.938  21.895   7.108
    9AU     AUL 4248  16.278  22.165   7.305
    9AU       S 4249  16.033  22.072   6.939
    9AU     LIG 4250  16.170  21.985   6.513
    9AU     LIG 4251  16.472  22.248   6.240
    9AU     LIG 4252  16.795  22.504   5.977
    9AU     LIG 4253  17.189  22.624   5.714
    9AU     LIG 4254  17.486  22.616   5.330
    9AU       S 4255  16.489  21.881   7.630
    9AU     LIG 4256  16.926  22.055   7.566
    9AU     LIG 4257  17.388  22.180   7.488
    9AU     LIG 4258  17.796  22.409   7.549
    9AU     LIG 4259  17.979  22.813   7.705
    9AU     LIG 4260  17.933  23.239   7.509
    9AU    AUSL 4261  16.191  21.646   7.342
    9AU    AUSL 4262  16.152  21.299   7.671
    9AU     AUL 4263  16.467  21.311   7.484
    9AU       S 4264  16.378  21.741   7.432
    9AU     LIG 4265  16.798  21.644   7.288
    9AU     LIG 4266  17.265  21.702   7.329
    9AU     LIG 4267  17.720  21.821   7.235
    9AU     LIG 4268  18.116  21.852   6.951
    9AU     LIG 4269  18.554  22.028   7.014
    9AU       S 4270  16.352  20.873   7.647
    9AU     LIG 4271  16.797  20.782   7.663
    9AU     LIG 4272  17.244  20.627   7.709
    9AU     LIG 4273  17.705  20.510   7.736
    9AU     LIG 4274  18.183  20.539   7.777
    9AU     LIG 4275  18.535  20.390   8.048
    9AU    AUSL 4276  15.983  21.675   7.745
    9AU    AUSL 4277  15.805  22.276   7.777
    9AU     AUL 4278  16.123  22.084   7.823
    9AU       S 4279  16.007  22.463   8.078
    9AU     LIG 4280  16.375  22.496   8.319
    9AU     LIG 4281  16.563  22.692   8.682
    9AU     LIG 4282  16.834  22.988   8.896
    9AU     LIG 4283  16.953  23.437   8.808
    9AU     LIG 4284  17.076  23.871   8.921
    9AU       S 4285  16.357  21.687   7.816
    9AU     LIG 4286  16.840  21.654   7.892
    9AU     LIG 4287  17.306  21.796   7.835
    9AU     LIG 4288  17.773  21.919   7.745
    9AU     LIG 4289  18.177  22.185   7.833
    9AU     LIG 4290  18.616  22.214   8.021
    9AU    AUSL 4291  14.550  22.127   7.545
    9AU    AUSL 4292  14.628  21.902   7.944
    9AU     AUL 4293  14.305  22.214   7.807
    9AU       S 4294  14.470  22.038   8.199
    9AU     LIG 4295  14.386  22.014   8.661
    9AU     LIG 4296  14.174  22.355   8.940
    9AU     LIG 4297  13.866  22.528   9.281
    9AU     LIG 4298  13.607  22.670   9.668
    9AU     LIG 4299  13.222  22.769   9.942
    9AU       S 4300  14.514  22.493   7.477
    9AU     LIG 4301  14.040  22.417   7.389
    9AU     LIG 4302  13.596  22.694   7.374
    9AU     LIG 4303  13.208  23.055   7.409
    9AU     LIG 4304  12.753  23.273   7.496
    9AU     LIG 4305  12.402  23.527   7.731
    9AU    AUSL 4306  14.523  21.758   7.323
    9AU    AUSL 4307  14.671  22.200   7.147
    9AU     AUL 4308  14.366  22.067   7.168
    9AU       S 4309  14.171  21.616   6.986
    9AU     LIG 4310  13.892  22.017   7.004
    9AU     LIG 4311  13.459  22.269   6.978
    9AU     LIG 4312  12.971  22.393   6.894
    9AU     LIG 4313  12.485  22.524   6.846
    9AU     LIG 4314  12.116  22.746   6.631
    9AU       S 4315  14.472  22.476   6.929
    9AU     LIG 4316  14.441  22.588   6.461
    9AU     LIG 4317  14.205  22.878   6.145
    9AU     LIG 4318  13.962  23.284   6.046
    9AU     LIG 4319  13.654  23.665   6.065
    9AU     LIG 4320  13.403  24.023   5.883
    9AU    AUSL 4321  14.304  21.776   7.713
    9AU    AUSL 4322  14.277  21.431   7.400
    9AU     AUL 4323  14.126  21.773   7.431
    9AU       S 4324  14.022  21.341   7.609
    9AU     LIG 4325  13.739  21.258   7.286
    9AU     LIG 4326  13.305  21.144   7.411
    9AU     LIG 4327  12.838  21.072   7.475
    9AU     LIG 4328  12.472  20.864   7.258
    9AU     LIG 4329  12.092  20.663   7.097
    9AU       S 4330  14.179  21.722   7.935
    9AU     LIG 4331  13.801  21.970   7.800
    9AU     LIG 4332  13.311  22.073   7.915
    9AU     LIG 4333  12.884  22.292   8.118
    9AU     LIG 4334  12.387  22.446   8.169
    9AU     LIG 4335  11.904  22.567   8.236
    9AU    AUSL 4336  15.886  20.991   7.537
    9AU    AUSL 4337  15.782  21.257   7.884
    9AU     AUL 4338  16.094  21.148   7.912
    9AU       S 4339  16.057  20.796   7.528
    9AU     LIG 4340  16.404  20.396   7.477
    9AU     LIG 4341  16.868  20.280   7.539
    9AU     LIG 4342  17.332  20.146   7.548
    9AU     LIG 4343  17.792  20.009   7.605
    9AU     LIG 4344  18.120  19.747   7.871
    9AU       S 4345  16.007  20.722   8.037
    9AU     LIG 4346  16.197  20.380   8.336
    9AU     LIG 4347  16.404  20.101   8.652
    9AU     LIG 4348  16.586  19.929   9.049
    9AU     LIG 4349  16.945  20.026   9.364
    9AU     LIG 4350  17.299  20.177   9.658
    9AU    AUSL 4351  15.882  21.369   7.340
    9AU    AUSL 4352  15.843  20.962   7.118
    9AU     AUL 4353  16.120  21.188   7.178
    9AU       S 4354  16.308  20.862   7.417
    9AU     LIG 4355  16.648  20.815   7.174
    9AU     LIG 4356  17.075  20.629   7.219
    9AU     LIG 4357  17.528  20.515   7.250
    9AU     LIG 4358  17.989  20.456   7.302
    9AU     LIG 4359  18.450  20.487   7.248
    9AU       S 4360  16.046  20.823   6.878
    9AU     LIG 4361  16.021  20.344   6.809
    9AU     LIG 4362  16.126  19.892   6.625
    9AU     LIG 4363  16.361  19.580   6.344
    9AU     LIG 4364  16.572  19.159   6.213
    9AU     LIG 4365  16.967  18.911   6.061
    9AU    AUSL 4366  14.456  21.067   7.565
    9AU    AUSL 4367  14.597  21.294   7.164
    9AU     AUL 4368  14.242  21.153   7.244
    9AU       S 4369  14.436  21.064   6.841
    9AU     LIG 4370  13.998  20.919   6.846
    9AU     LIG 4371  13.754  20.582   6.608
    9AU     LIG 4372  13.548  20.271   6.299
    9AU     LIG 4373  13.219  19.983   6.097
    9AU     LIG 4374  12.741  19.934   5.981
    9AU       S 4375  14.054  21.030   7.658
    9AU     LIG 4376  13.720  20.773   7.473
    9AU     LIG 4377  13.247  20.630   7.439
    9AU     LIG 4378  12.769  20.538   7.507
    9AU     LIG 4379  12.293  20.482   7.630
    9AU     LIG 4380  12.173  20.096   7.908
    9AU    AUSL 4381  14.570  21.460   7.720
    9AU    AUSL 4382  14.781  21.070   7.831
    9AU     AUL 4383  14.385  21.244   7.905
    9AU       S 4384  14.489  20.816   8.016
    9AU     LIG 4385  14.187  20.538   7.869
    9AU     LIG 4386  14.037  20.123   8.024
    9AU     LIG 4387  13.840  19.767   8.267
    9AU     LIG 4388  13.517  19.558   8.535
    9AU     LIG 4389  13.222  19.229   8.677
    9AU       S 4390  13.971  21.324   7.744
    9AU     LIG 4391  13.549  21.527   7.692
    9AU     LIG 4392  13.076  21.554   7.662
    9AU     LIG 4393  12.619  21.503   7.769
    9AU     LIG 4394  12.256  21.231   7.873
    9AU     LIG 4395  11.919  20.920   7.931
    9AU    AUSL 4396  15.211  22.384   7.996
    9AU    AUSL 4397  14.790  22.289   7.857
    9AU     AUL 4398  15.010  22.372   8.244
    9AU       S 4399  14.661  22.488   7.960
    9AU     LIG 4400  14.430  22.741   8.287
    9AU     LIG 4401  14.211  22.847   8.702
    9AU     LIG 4402  13.977  23.206   8.929
    9AU     LIG 4403  13.702  23.621   8.926
    9AU     LIG 4404  13.325  23.927   8.970
    9AU       S 4405  15.198  22.730   7.991
    9AU     LIG 4406  15.443  22.760   8.346
    9AU     LIG 4407  15.621  23.167   8.480
    9AU     LIG 4408  15.562  23.567   8.739
    9AU     LIG 4409  15.479  23.828   9.138
    9AU     LIG 4410  15.358  24.058   9.545
    9AU    AUSL 4411  15.026  22.518   7.603
    9AU    AUSL 4412  15.400  22.494   7.234
    9AU     AUL 4413  15.077  22.733   7.344
    9AU       S 4414  15.109  22.812   7.801
    9AU     LIG 4415  15.352  23.196   8.010
    9AU     LIG 4416  15.437  23.600   8.230
    9AU     LIG 4417  15.212  24.015   8.340
    9AU     LIG 4418  14.931  24.420   8.274
    9AU     LIG 4419  14.828  24.873   8.409
    9AU       S 4420  15.354  22.807   6.979
    9AU     LIG 4421  15.772  22.925   6.954
    9AU     LIG 4422  16.034  23.309   6.838
    9AU     LIG 4423  16.179  23.766   6.697
    9AU     LIG 4424  16.385  24.199   6.549
    9AU     LIG 4425  16.463  24.683   6.552
    9AU    AUSL 4426  15.419  22.325   7.620
    9AU    AUSL 4427  15.484  22.070   7.986
    9AU     AUL 4428  15.552  22.428   7.987
    9AU       S 4429  15.827  22.324   8.339
    9AU     LIG 4430  16.121  22.260   8.700
    9AU     LIG 4431  16.357  22.401   9.054
    9AU     LIG 4432  16.572  22.732   9.296
    9AU     LIG 4433  16.628  22.856   9.755
    9AU     LIG 4434  16.553  23.166  10.113
    9AU       S 4435  15.442  22.739   7.669
    9AU     LIG 4436  15.772  22.914   7.976
    9AU     LIG 4437  15.986  23.339   8.142
    9AU     LIG 4438  16.294  23.721   8.246
    9AU     LIG 4439  16.543  24.131   8.259
    9AU     LIG 4440  16.469  24.577   8.385
    9AU    AUSL 4441  15.198  20.934   7.951
    9AU    AUSL 4442  15.614  20.864   7.829
    9AU     AUL 4443  15.389  20.790   8.209
    9AU       S 4444  15.258  20.390   8.017
    9AU     LIG 4445  14.959  20.291   8.343
    9AU     LIG 4446  14.840  19.843   8.421
    9AU     LIG 4447  14.893  19.369   8.442
    9AU     LIG 4448  15.181  19.047   8.670
    9AU     LIG 4449  15.361  18.965   9.103
    9AU       S 4450  15.750  20.679   7.903
    9AU     LIG 4451  15.744  20.221   8.096
    9AU     LIG 4452  15.994  19.901   8.393
    9AU     LIG 4453  16.320  19.581   8.587
    9AU     LIG 4454  16.600  19.191   8.651
    9AU     LIG 4455  16.908  18.831   8.738
    9AU    AUSL 4456  14.886  20.698   7.690
    9AU    AUSL 4457  14.908  21.013   8.246
    9AU     AUL 4458  14.933  20.727   8.040
    9AU       S 4459  15.017  20.312   7.844
    9AU     LIG 4460  14.650  20.066   7.986
    9AU     LIG 4461  14.562  19.598   8.059
    9AU     LIG 4462  14.373  19.162   8.097
    9AU     LIG 4463  14.065  18.782   8.099
    9AU     LIG 4464  14.087  18.315   8.261
    9AU       S 4465  14.638  20.885   8.368
    9AU     LIG 4466  14.429  20.435   8.332
    9AU     LIG 4467  14.119  20.135   8.532
    9AU     LIG 4468  13.873  19.820   8.794
    9AU     LIG 4469  13.650  19.645   9.174
    9AU     LIG 4470  13.695  19.698   9.650
    9AU    AUSL 4471  15.310  20.654   7.635
    9AU    AUSL 4472  15.069  20.865   7.337
    9AU     AUL 4473  14.956  20.524   7.434
    9AU       S 4474  15.339  20.428   7.210
    9AU     LIG 4475  15.034  20.041   7.249
    9AU     LIG 4476  14.803  19.601   7.123
    9AU     LIG 4477  14.496  19.180   7.081
    9AU     LIG 4478  14.315  18.706   7.019
    9AU     LIG 4479  14.089  18.264   7.023
    9AU       S 4480  15.328  20.439   7.753
    9AU     LIG 4481  15.347  19.946   7.800
    9AU     LIG 4482  15.147  19.579   8.030
    9AU     LIG 4483  15.269  19.133   8.170
    9AU     LIG 4484  15.392  18.683   8.295
    9AU     LIG 4485  15.693  18.297   8.274
    9AU    AUSL 4486  15.226  22.292   6.878
    9AU    AUSL 4487  15.741  22.251   7.290
    9AU     AUL 4488  15.565  22.406   6.943
    9AU       S 4489  15.196  22.543   6.680
    9AU     LIG 4490  15.599  22.704   6.530
    9AU     LIG 4491  15.830  23.100   6.405
    9AU     LIG 4492  15.776  23.493   6.116
    9AU     LIG 4493  15.653  23.760   5.723
    9AU     LIG 4494  15.438  24.080   5.432
    9AU       S 4495  15.937  22.446   7.198
    9AU     LIG 4496  16.248  22.745   6.950
    9AU     LIG 4497  16.472  22.864   6.554
    9AU     LIG 4498  16.674  23.136   6.214
    9AU     LIG 4499  16.968  23.522   6.175
    9AU     LIG 4500  17.269  23.919   6.108
    9AU    AUSL 4501  15.060  22.243   7.296
    9AU    AUSL 4502  14.987  21.966   6.963
    9AU     AUL 4503  14.916  22.403   7.044
    9AU       S 4504  15.157  22.760   6.878
    9AU     LIG 4505  15.378  23.185   6.672
    9AU     LIG 4506  15.370  23.675   6.657
    9AU     LIG 4507  15.102  24.100   6.708
    9AU     LIG 4508  14.773  24.488   6.703
    9AU     LIG 4509  14.711  24.960   6.589
    9AU       S 4510  14.781  22.204   6.656
    9AU     LIG 4511  14.683  22.194   6.203
    9AU     LIG 4512  14.476  22.502   5.908
    9AU     LIG 4513  14.270  22.817   5.609
    9AU     LIG 4514  14.210  23.111   5.231
    9AU     LIG 4515  14.194  23.511   4.959
    9AU    AUSL 4516  15.256  20.826   6.945
    9AU    AUSL 4517  14.661  20.866   7.250
    9AU     AUL 4518  14.929  20.703   6.998
    9AU       S 4519  14.481  20.808   7.051
    9AU     LIG 4520  14.145  20.568   7.187
    9AU     LIG 4521  13.927  20.219   6.928
    9AU     LIG 4522  13.716  19.901   6.615
    9AU     LIG 4523  13.532  19.586   6.287
    9AU     LIG 4524  13.314  19.172   6.184
    9AU       S 4525  15.322  20.433   7.039
    9AU     LIG 4526  15.353  20.019   6.841
    9AU     LIG 4527  15.141  19.613   6.711
    9AU     LIG 4528  15.184  19.205   6.469
    9AU     LIG 4529  15.386  18.975   6.096
    9AU     LIG 4530  15.388  18.819   5.639
    9AU    AUSL 4531  15.496  20.856   7.320
    9AU    AUSL 4532  15.499  21.167   6.958
    9AU     AUL 4533  15.583  20.798   6.930
    9AU       S 4534  15.605  20.509   7.298
    9AU     LIG 4535  15.555  20.013   7.333
    9AU     LIG 4536  15.346  19.612   7.191
    9AU     LIG 4537  15.430  19.229   6.931
    9AU     LIG 4538  15.602  18.794   6.922
    9AU     LIG 4539  15.729  18.390   6.717
    9AU       S 4540  15.823  21.003   6.602
    9AU     LIG 4541  15.688  20.580   6.492
    9AU     LIG 4542  15.868  20.196   6.301
    9AU     LIG 4543  16.100  19.885   6.011
    9AU     LIG 4544  16.332  19.728   5.610
    9AU     LIG 4545  16.456  19.494   5.206
   10AU     AUC 4546  14.975  37.940   7.511
   10AU     AUC 4547  15.254  37.952   7.331
   10AU     AUC 4548  15.252  37.945   7.677
   10AU     AUC 4549  14.684  37.925   7.344
   10AU     AUC 4550  14.718  37.968   7.702
   10AU     AUC 4551  14.791  38.209   7.513
   10AU     AUC 4552  15.162  38.223   7.497
   10AU     AUC 4553  14.788  37.666   7.519
   10AU     AUC 4554  15.141  37.656   7.510
   10AU     AUC 4555  14.984  37.773   7.793
   10AU     AUC 4556  14.973  38.118   7.782
   10AU     AUC 4557  14.965  37.769   7.236
   10AU     AUC 4558  14.984  38.088   7.232
   10AU     AUC 4559  15.564  37.957   7.152
   10AU     AUC 4560  15.586  37.924   7.512
   10AU     AUC 4561  15.536  37.935   7.847
   10AU     AUC 4562  14.381  37.910   7.172
   10AU     AUC 4563  14.364  37.957   7.534
   10AU     AUC 4564  14.422  37.986   7.898
   10AU     AUC 4565  14.611  38.511   7.497
   10AU     AUC 4566  14.967  38.541   7.465
   10AU     AUC 4567  15.341  38.511   7.480
   10AU     AUC 4568  14.583  37.381   7.530
   10AU     AUC 4569  14.943  37.339   7.509
   10AU     AUC 4570  15.307  37.357   7.495
   10AU     AUC 4571  14.979  37.601   8.086
   10AU     AUC 4572  15.016  37.975   8.121
   10AU     AUC 4573  14.994  38.310   8.061
   10AU     AUC 4574  14.988  37.589   6.961
   10AU     AUC 4575  14.973  37.926   6.897
   10AU     AUC 4576  14.959  38.250   6.929
   10AU     AUC 4577  15.272  37.760   8.000
   10AU     AUC 4578  15.298  38.135   7.985
   10AU     AUC 4579  15.295  37.796   6.998
   10AU     AUC 4580  15.288  38.118   7.033
   10AU     AUC 4581  14.680  37.796   8.030
   10AU     AUC 4582  14.699  38.154   8.008
   10AU     AUC 4583  14.666  37.735   7.053
   10AU     AUC 4584  14.642  38.058   7.005
   10AU     AUC 4585  15.507  38.231   7.347
   10AU     AUC 4586  15.476  38.249   7.678
   10AU     AUC 4587  14.481  38.222   7.330
   10AU     AUC 4588  14.484  38.269   7.700
   10AU     AUC 4589  15.444  37.643   7.323
   10AU     AUC 4590  15.433  37.609   7.681
   10AU     AUC 4591  14.452  37.615   7.363
   10AU     AUC 4592  14.517  37.674   7.720
   10AU     AUC 4593  14.783  38.467   7.782
   10AU     AUC 4594  15.150  38.431   7.751
   10AU     AUC 4595  14.772  37.471   7.816
   10AU     AUC 4596  15.118  37.437   7.792
   10AU     AUC 4597  14.791  38.360   7.196
   10AU     AUC 4598  15.174  38.413   7.198
   10AU     AUC 4599  14.777  37.453   7.228
   10AU     AUC 4600  15.166  37.479   7.214
   10AU    AUSL 4601  15.567  37.912   8.182
   10AU    AUSL 4602  15.280  37.438   8.181
   10AU     AUL 4603  15.619  37.487   8.324
   10AU       S 4604  15.611  37.070   8.139
   10AU     LIG 4605  15.492  36.971   8.521
   10AU     LIG 4606  15.666  36.660   8.800
   10AU     LIG 4607  15.860  36.301   9.019
   10AU     LIG 4608  16.069  36.133   9.404
   10AU     LIG 4609  16.168  35.919   9.812
   10AU       S 4610  15.820  37.881   8.236
   10AU     LIG 4611  15.867  37.831   8.670
   10AU     LIG 4612  16.082  37.699   9.067
   10AU     LIG 4613  16.296  37.576   9.471
   10AU     LIG 4614  16.457  37.617   9.908
   10AU     LIG 4615  16.688  37.697  10.303
   10AU    AUSL 4616  15.185  37.803   8.379
   10AU    AUSL 4617  14.879  38.129   8.414
   10AU     AUL 4618  15.101  38.096   8.731
   10AU       S 4619  15.358  37.758   8.569
   10AU     LIG 4620  15.149  37.494   8.856
   10AU     LIG 4621  15.285  37.299   9.268
   10AU     LIG 4622  15.480  37.222   9.707
   10AU     LIG 4623  15.539  37.202  10.186
   10AU     LIG 4624  15.640  37.282  10.648
   10AU       S 4625  14.722  37.852   8.680
   10AU     LIG 4626  14.721  37.719   9.142
   10AU     LIG 4627  14.410  37.741   9.511
   10AU     LIG 4628  14.187  37.832   9.934
   10AU     LIG 4629  14.106  38.147  10.314
   10AU     LIG 4630  14.052  38.422  10.720
   10AU    AUSL 4631  15.276  38.228   8.329
   10AU    AUSL 4632  15.622  38.324   8.063
   10AU     AUL 4633  15.569  38.189   8.465
   10AU       S 4634  15.143  38.519   8.474
   10AU     LIG 4635  15.430  38.497   8.842
   10AU     LIG 4636  15.681  38.559   9.261
   10AU     LIG 4637  15.734  38.571   9.765
   10AU     LIG 4638  15.735  38.641  10.260
   10AU     LIG 4639  15.766  38.716  10.739
   10AU       S 4640  15.677  38.569   8.228
   10AU     LIG 4641  16.050  38.301   8.349
   10AU     LIG 4642  16.400  38.359   8.650
   10AU     LIG 4643  16.665  38.614   8.963
   10AU     LIG 4644  16.917  38.888   9.258
   10AU     LIG 4645  17.237  38.904   9.608
   10AU    AUSL 4646  15.503  38.076   6.765
   10AU    AUSL 4647  15.282  38.393   6.968
   10AU     AUL 4648  15.398  38.459   6.624
   10AU       S 4649  15.463  38.124   6.323
   10AU     LIG 4650  15.844  37.988   6.138
   10AU     LIG 4651  15.944  37.684   5.833
   10AU     LIG 4652  16.003  37.596   5.388
   10AU     LIG 4653  16.343  37.543   5.060
   10AU     LIG 4654  16.748  37.553   4.806
   10AU       S 4655  15.740  38.647   6.882
   10AU     LIG 4656  15.830  38.808   6.474
   10AU     LIG 4657  16.051  38.956   6.072
   10AU     LIG 4658  16.350  39.171   5.772
   10AU     LIG 4659  16.406  39.426   5.378
   10AU     LIG 4660  16.479  39.599   4.931
   10AU    AUSL 4661  15.272  37.744   6.614
   10AU    AUSL 4662  15.627  37.691   6.908
   10AU     AUL 4663  15.688  37.821   6.608
   10AU       S 4664  15.771  37.362   6.661
   10AU     LIG 4665  16.152  37.088   6.532
   10AU     LIG 4666  16.187  36.653   6.336
   10AU     LIG 4667  16.371  36.365   6.019
   10AU     LIG 4668  16.734  36.363   5.711
   10AU     LIG 4669  17.127  36.465   5.468
   10AU       S 4670  15.360  37.982   6.307
   10AU     LIG 4671  15.484  37.605   6.125
   10AU     LIG 4672  15.550  37.381   5.703
   10AU     LIG 4673  15.559  37.388   5.225
   10AU     LIG 4674  15.595  37.320   4.747
   10AU     LIG 4675  15.600  37.217   4.270
   10AU    AUSL 4676  15.076  38.123   6.701
   10AU    AUSL 4677  14.862  37.722   6.741
   10AU     AUL 4678  15.011  37.732   6.452
   10AU       S 4679  14.575  37.748   6.305
   10AU     LIG 4680  14.671  37.605   5.902
   10AU     LIG 4681  14.424  37.346   5.590
   10AU     LIG 4682  14.139  37.188   5.237
   10AU     LIG 4683  14.037  36.909   4.857
   10AU     LIG 4684  13.948  36.785   4.400
   10AU       S 4685  15.121  38.182   6.359
   10AU     LIG 4686  15.195  38.000   5.861
   10AU     LIG 4687  15.538  37.864   5.528
   10AU     LIG 4688  15.674  37.870   5.058
   10AU     LIG 4689  15.678  38.097   4.624
   10AU     LIG 4690  15.826  38.433   4.303
   10AU    AUSL 4691  14.478  38.046   8.289
   10AU    AUSL 4692  14.737  38.400   8.124
   10AU     AUL 4693  14.624  38.352   8.478
   10AU       S 4694  14.551  37.972   8.744
   10AU     LIG 4695  14.236  37.714   8.933
   10AU     LIG 4696  13.960  37.585   9.307
   10AU     LIG 4697  13.775  37.562   9.749
   10AU     LIG 4698  13.516  37.582  10.147
   10AU     LIG 4699  13.176  37.794  10.411
   10AU       S 4700  14.295  38.627   8.255
   10AU     LIG 4701  14.350  38.781   8.668
   10AU     LIG 4702  14.162  39.039   9.028
   10AU     LIG 4703  13.965  39.239   9.417
   10AU     LIG 4704  13.831  39.369   9.857
   10AU     LIG 4705  13.633  39.697  10.129
   10AU    AUSL 4706  14.795  37.759   8.208
   10AU    AUSL 4707  14.333  37.684   8.117
   10AU     AUL 4708  14.356  37.745   8.394
   10AU       S 4709  14.165  37.319   8.257
   10AU     LIG 4710  13.756  37.214   8.146
   10AU     LIG 4711  13.463  36.900   8.274
   10AU     LIG 4712  13.276  36.701   8.636
   10AU     LIG 4713  13.040  36.398   8.884
   10AU     LIG 4714  12.869  36.299   9.315
   10AU       S 4715  14.781  37.687   8.580
   10AU     LIG 4716  14.595  37.361   8.797
   10AU     LIG 4717  14.396  37.302   9.223
   10AU     LIG 4718  14.204  37.284   9.664
   10AU     LIG 4719  14.063  37.135  10.091
   10AU     LIG 4720  14.150  36.852  10.472
   10AU    AUSL 4721  14.438  37.782   6.785
   10AU    AUSL 4722  14.651  37.432   6.968
   10AU     AUL 4723  14.685  37.428   6.637
   10AU       S 4724  14.399  37.676   6.369
   10AU     LIG 4725  14.161  37.613   5.980
   10AU     LIG 4726  13.944  37.547   5.572
   10AU     LIG 4727  13.627  37.353   5.279
   10AU     LIG 4728  13.246  37.435   5.012
   10AU     LIG 4729  13.087  37.501   4.578
   10AU       S 4730  14.278  37.280   6.795
   10AU     LIG 4731  14.145  36.850   6.681
   10AU     LIG 4732  13.865  36.605   6.419
   10AU     LIG 4733  13.644  36.413   6.053
   10AU     LIG 4734  13.442  36.271   5.649
   10AU     LIG 4735  13.367  36.040   5.236
   10AU    AUSL 4736  14.666  38.100   6.607
   10AU    AUSL 4737  14.306  38.178   6.918
   10AU     AUL 4738  14.229  38.007   6.629
   10AU       S 4739  14.326  38.446   6.681
   10AU     LIG 4740  13.959  38.557   6.513
   10AU     LIG 4741  13.808  38.841   6.159
   10AU     LIG 4742  13.561  38.874   5.742
   10AU     LIG 4743  13.251  39.057   5.427
   10AU     LIG 4744  13.003  39.272   5.080
   10AU       S 4745  14.630  38.027   6.372
   10AU     LIG 4746  14.413  38.072   5.964
   10AU     LIG 4747  14.370  37.862   5.542
   10AU     LIG 4748  14.411  37.892   5.063
   10AU     LIG 4749  14.422  38.076   4.610
   10AU     LIG 4750  14.239  38.202   4.179
   10AU    AUSL 4751  15.776  38.420   7.504
   10AU    AUSL 4752  15.672  38.240   7.116
   10AU     AUL 4753  16.049  38.499   7.268
   10AU       S 4754  15.760  38.429   6.933
   10AU     LIG 4755  15.916  38.296   6.552
   10AU     LIG 4756  16.223  38.504   6.274
   10AU     LIG 4757  16.544  38.779   6.056
   10AU     LIG 4758  16.852  38.906   5.726
   10AU     LIG 4759  17.265  38.865   5.478
   10AU       S 4760  16.195  38.286   7.668
   10AU     LIG 4761  16.648  38.364   7.609
   10AU     LIG 4762  17.112  38.427   7.613
   10AU     LIG 4763  17.554  38.618   7.606
   10AU     LIG 4764  17.869  38.953   7.468
   10AU     LIG 4765  17.960  39.430   7.411
   10AU    AUSL 4766  15.946  38.027   7.370
   10AU    AUSL 4767  15.891  37.706   7.684
   10AU     AUL 4768  16.267  37.803   7.715
   10AU       S 4769  16.076  38.064   7.404
   10AU     LIG 4770  16.491  37.998   7.276
   10AU     LIG 4771  16.979  38.044   7.272
   10AU     LIG 4772  17.456  38.189   7.320
   10AU     LIG 4773  17.914  38.356   7.333
   10AU     LIG 4774  18.203  38.701   7.141
   10AU       S 4775  16.122  37.428   7.489
   10AU     LIG 4776  16.403  37.331   7.819
   10AU     LIG 4777  16.698  36.988   7.877
   10AU     LIG 4778  17.168  36.974   7.864
   10AU     LIG 4779  17.631  36.994   7.886
   10AU     LIG 4780  18.059  37.200   7.863
   10AU    AUSL 4781  15.698  38.076   7.739
   10AU    AUSL 4782  15.523  38.645   7.767
   10AU     AUL 4783  15.822  38.531   7.791
   10AU       S 4784  15.721  38.860   8.109
   10AU     LIG 4785  16.146  38.780   8.235
   10AU     LIG 4786  16.384  38.880   8.617
   10AU     LIG 4787  16.679  39.147   8.862
   10AU     LIG 4788  16.875  39.568   8.951
   10AU     LIG 4789  17.025  40.022   8.950
   10AU       S 4790  16.007  38.132   7.859
   10AU     LIG 4791  16.466  38.189   8.067
   10AU     LIG 4792  16.962  38.180   8.037
   10AU     LIG 4793  17.432  38.275   7.998
   10AU     LIG 4794  17.897  38.327   7.879
   10AU     LIG 4795  18.305  38.373   8.104
   10AU    AUSL 4796  14.277  38.481   7.544
   10AU    AUSL 4797  14.362  38.263   7.944
   10AU     AUL 4798  14.036  38.570   7.803
   10AU       S 4799  14.216  38.404   8.190
   10AU     LIG 4800  14.139  38.286   8.618
   10AU     LIG 4801  13.953  38.564   8.951
   10AU     LIG 4802  13.669  38.878   9.173
   10AU     LIG 4803  13.270  39.006   9.407
   10AU     LIG 4804  12.836  39.124   9.566
   10AU       S 4805  14.245  38.849   7.470
   10AU     LIG 4806  13.783  38.885   7.476
   10AU     LIG 4807  13.423  39.220   7.548
   10AU     LIG 4808  13.071  39.565   7.614
   10AU     LIG 4809  12.646  39.741   7.773
   10AU     LIG 4810  12.176  39.716   7.844
   10AU    AUSL 4811  14.252  38.110   7.326
   10AU    AUSL 4812  14.397  38.547   7.145
   10AU     AUL 4813  14.087  38.412   7.170
   10AU       S 4814  13.903  37.957   6.989
   10AU     LIG 4815  13.606  38.331   6.953
   10AU     LIG 4816  13.112  38.467   6.870
   10AU     LIG 4817  12.595  38.527   6.791
   10AU     LIG 4818  12.136  38.729   6.702
   10AU     LIG 4819  11.770  38.934   6.470
   10AU       S 4820  14.197  38.819   6.933
   10AU     LIG 4821  14.198  39.017   6.511
   10AU     LIG 4822  14.063  39.377   6.230
   10AU     LIG 4823  13.861  39.757   6.055
   10AU     LIG 4824  13.581  40.120   6.136
   10AU     LIG 4825  13.289  40.486   6.178
   10AU    AUSL 4826  14.036  38.129   7.719
   10AU    AUSL 4827  14.010  37.781   7.406
   10AU     AUL 4828  13.855  38.115   7.437
   10AU       S 4829  13.731  37.679   7.610
   10AU     LIG 4830  13.315  37.500   7.441
   10AU     LIG 4831  12.838  37.408   7.431
   10AU     LIG 4832  12.405  37.288   7.250
   10AU     LIG 4833  11.929  37.262   7.209
   10AU     LIG 4834  11.467  37.252   7.118
   10AU       S 4835  13.914  38.084   7.942
   10AU     LIG 4836  13.552  38.364   7.819
   10AU     LIG 4837  13.036  38.383   7.856
   10AU     LIG 4838  12.570  38.537   8.017
   10AU     LIG 4839  12.122  38.758   8.036
   10AU     LIG 4840  11.759  39.075   8.172
   10AU    AUSL 4841  15.659  37.369   7.526
   10AU    AUSL 4842  15.524  37.630   7.878
   10AU     AUL 4843  15.856  37.503   7.897
   10AU       S 4844  15.935  37.238   7.494
   10AU     LIG 4845  16.374  37.010   7.423
   10AU     LIG 4846  16.648  36.639   7.422
   10AU     LIG 4847  17.056  36.421   7.420
   10AU     LIG 4848  17.278  35.995   7.437
   10AU     LIG 4849  17.653  35.882   7.664
   10AU       S 4850  15.745  37.076   7.986
   10AU     LIG 4851  15.971  36.820   8.355
   10AU     LIG 4852  16.169  36.555   8.687
   10AU     LIG 4853  16.387  36.275   9.004
   10AU     LIG 4854  16.723  36.294   9.346
   10AU     LIG 4855  16.997  36.458   9.716
   10AU    AUSL 4856  15.647  37.744   7.320
   10AU    AUSL 4857  15.567  37.308   7.116
   10AU     AUL 4858  15.813  37.499   7.118
   10AU       S 4859  16.191  37.567   7.328
   10AU     LIG 4860  16.330  37.304   6.997
   10AU     LIG 4861  16.643  36.959   6.977
   10AU     LIG 4862  17.072  36.766   7.029
   10AU     LIG 4863  17.517  36.829   6.914
   10AU     LIG 4864  17.925  37.025   6.801
   10AU       S 4865  15.757  37.140   6.822
   10AU     LIG 4866  15.874  36.682   6.752
   10AU     LIG 4867  16.000  36.224   6.585
   10AU     LIG 4868  16.102  35.774   6.379
   10AU     LIG 4869  16.360  35.379   6.259
   10AU     LIG 4870  16.697  35.039   6.199
   10AU    AUSL 4871  14.193  37.421   7.573
   10AU    AUSL 4872  14.329  37.648   7.166
   10AU     AUL 4873  13.971  37.502   7.254
   10AU       S 4874  14.161  37.417   6.847
   10AU     LIG 4875  13.756  37.162   6.834
   10AU     LIG 4876  13.461  36.901   6.557
   10AU     LIG 4877  13.226  36.657   6.225
   10AU     LIG 4878  13.015  36.487   5.844
   10AU     LIG 4879  12.645  36.388   5.563
   10AU       S 4880  13.785  37.391   7.672
   10AU     LIG 4881  13.606  37.079   7.437
   10AU     LIG 4882  13.161  37.004   7.307
   10AU     LIG 4883  12.705  36.882   7.388
   10AU     LIG 4884  12.426  36.521   7.476
   10AU     LIG 4885  11.967  36.488   7.463
   10AU    AUSL 4886  14.308  37.818   7.721
   10AU    AUSL 4887  14.521  37.432   7.834
   10AU     AUL 4888  14.118  37.611   7.903
   10AU       S 4889  14.241  37.187   8.015
   10AU     LIG 4890  14.014  36.921   7.796
   10AU     LIG 4891  13.784  36.579   8.021
   10AU     LIG 4892  13.454  36.351   8.300
   10AU     LIG 4893  13.269  36.022   8.590
   10AU     LIG 4894  13.253  35.695   8.923
   10AU       S 4895  13.701  37.693   7.752
   10AU     LIG 4896  13.305  37.948   7.681
   10AU     LIG 4897  12.852  37.944   7.562
   10AU     LIG 4898  12.430  37.744   7.491
   10AU     LIG 4899  12.116  37.458   7.666
   10AU     LIG 4900  11.785  37.263   7.945
   10AU    AUSL 4901  14.937  38.751   7.982
   10AU    AUSL 4902  14.524  38.647   7.849
   10AU     AUL 4903  14.748  38.740   8.235
   10AU       S 4904  14.395  38.841   7.949
   10AU     LIG 4905  14.429  39.146   8.296
   10AU     LIG 4906  14.170  39.400   8.638
   10AU     LIG 4907  13.969  39.797   8.873
   10AU     LIG 4908  13.619  40.133   8.961
   10AU     LIG 4909  13.322  40.487   9.117
   10AU       S 4910  14.926  39.091   7.956
   10AU     LIG 4911  15.043  39.170   8.341
   10AU     LIG 4912  15.071  39.606   8.514
   10AU     LIG 4913  15.026  40.046   8.703
   10AU     LIG 4914  14.910  40.449   8.927
   10AU     LIG 4915  14.984  40.733   9.293
   10AU    AUSL 4916  14.743  38.878   7.580
   10AU    AUSL 4917  15.127  38.845   7.215
   10AU     AUL 4918  14.842  39.101   7.311
   10AU       S 4919  14.786  39.156   7.773
   10AU     LIG 4920  14.898  39.587   7.994
   10AU     LIG 4921  14.916  40.006   8.207
   10AU     LIG 4922  14.783  40.458   8.216
   10AU     LIG 4923  14.877  40.919   8.320
   10AU     LIG 4924  14.851  41.381   8.462
   10AU       S 4925  15.006  39.115   6.875
   10AU     LIG 4926  15.336  39.333   6.969
   10AU     LIG 4927  15.366  39.798   6.892
   10AU     LIG 4928  15.363  40.233   6.704
   10AU     LIG 4929  15.341  40.716   6.730
   10AU     LIG 4930  15.615  41.104   6.744
   10AU    AUSL 4931  15.140  38.690   7.608
   10AU    AUSL 4932  15.211  38.436   7.982
   10AU     AUL 4933  15.276  38.788   7.995
   10AU       S 4934  15.558  38.698   8.349
   10AU     LIG 4935  15.894  38.646   8.681
   10AU     LIG 4936  16.158  38.684   9.044
   10AU     LIG 4937  16.409  38.995   9.277
   10AU     LIG 4938  16.491  39.393   9.522
   10AU     LIG 4939  16.362  39.762   9.805
   10AU       S 4940  15.168  39.078   7.657
   10AU     LIG 4941  15.373  39.335   7.978
   10AU     LIG 4942  15.379  39.788   8.140
   10AU     LIG 4943  15.348  40.243   8.329
   10AU     LIG 4944  15.393  40.725   8.375
   10AU     LIG 4945  15.711  41.068   8.482
   10AU    AUSL 4946  14.941  37.300   7.954
   10AU    AUSL 4947  15.353  37.249   7.795
   10AU     AUL 4948  15.154  37.138   8.174
   10AU       S 4949  14.983  36.735   8.024
   10AU     LIG 4950  14.671  36.616   8.338
   10AU     LIG 4951  14.537  36.170   8.366
   10AU     LIG 4952  14.556  35.696   8.417
   10AU     LIG 4953  14.650  35.274   8.604
   10AU     LIG 4954  14.748  35.013   8.977
   10AU       S 4955  15.504  37.041   7.849
   10AU     LIG 4956  15.484  36.605   8.087
   10AU     LIG 4957  15.767  36.344   8.400
   10AU     LIG 4958  16.087  36.046   8.623
   10AU     LIG 4959  16.375  35.724   8.841
   10AU     LIG 4960  16.656  35.325   8.887
   10AU    AUSL 4961  14.622  37.055   7.703
   10AU    AUSL 4962  14.649  37.375   8.249
   10AU     AUL 4963  14.683  37.091   8.051
   10AU       S 4964  14.757  36.675   7.854
   10AU     LIG 4965  14.362  36.526   7.929
   10AU     LIG 4966  14.308  36.066   7.917
   10AU     LIG 4967  14.387  35.609   7.935
   10AU     LIG 4968  14.332  35.253   8.204
   10AU     LIG 4969  14.317  34.870   8.455
   10AU       S 4970  14.369  37.246   8.359
   10AU     LIG 4971  14.163  36.812   8.328
   10AU     LIG 4972  13.810  36.619   8.550
   10AU     LIG 4973  13.579  36.339   8.845
   10AU     LIG 4974  13.351  36.145   9.201
   10AU     LIG 4975  13.226  36.081   9.656
   10AU    AUSL 4976  15.045  37.010   7.647
   10AU    AUSL 4977  14.800  37.220   7.348
   10AU     AUL 4978  14.686  36.881   7.445
   10AU       S 4979  15.073  36.781   7.229
   10AU     LIG 4980  14.751  36.384   7.243
   10AU     LIG 4981  14.527  35.924   7.118
   10AU     LIG 4982  14.245  35.476   7.049
   10AU     LIG 4983  14.154  35.017   6.850
   10AU     LIG 4984  14.166  34.540   6.709
   10AU       S 4985  15.065  36.794   7.764
   10AU     LIG 4986  15.045  36.282   7.791
   10AU     LIG 4987  14.835  35.881   8.004
   10AU     LIG 4988  14.867  35.391   8.120
   10AU     LIG 4989  15.145  34.964   8.125
   10AU     LIG 4990  15.220  34.467   8.115
   10AU    AUSL 4991  14.954  38.631   6.867
   10AU    AUSL 4992  15.472  38.610   7.284
   10AU     AUL 4993  15.300  38.774   6.949
   10AU       S 4994  14.928  38.807   6.655
   10AU     LIG 4995  15.316  39.036   6.508
   10AU     LIG 4996  15.245  39.511   6.475
   10AU     LIG 4997  15.153  39.885   6.183
   10AU     LIG 4998  15.239  40.126   5.777
   10AU     LIG 4999  15.271  40.501   5.487
   10AU       S 5000  15.700  38.782   7.170
   10AU     LIG 5001  16.137  38.912   6.924
   10AU     LIG 5002  16.349  38.991   6.496
   10AU     LIG 5003  16.612  39.297   6.216
   10AU     LIG 5004  16.852  39.744   6.182
   10AU     LIG 5005  17.058  40.208   6.179
   10AU    AUSL 5006  14.789  38.593   7.286
   10AU    AUSL 5007  14.711  38.311   6.963
   10AU     AUL 5008  14.641  38.749   7.049
   10AU       S 5009  14.825  39.093   6.828
   10AU     LIG 5010  14.871  39.589   6.875
   10AU     LIG 5011  14.919  39.973   6.637
   10AU     LIG 5012  14.884  40.434   6.675
   10AU     LIG 5013  14.839  40.863   6.818
   10AU     LIG 5014  14.615  41.244   6.695
   10AU       S 5015  14.498  38.549   6.662
   10AU     LIG 5016  14.460  38.670   6.236
   10AU     LIG 5017  14.257  38.987   5.956
   10AU     LIG 5018  13.920  39.240   5.735
   10AU     LIG 5019  13.671  39.352   5.334
   10AU     LIG 5020  13.404  39.620   5.043
   10AU    AUSL 5021  14.987  37.172   6.958
   10AU    AUSL 5022  14.395  37.221   7.255
   10AU     AUL 5023  14.662  37.055   7.007
   10AU       S 5024  14.219  37.173   7.052
   10AU     LIG 5025  13.995  36.862   7.189
   10AU     LIG 5026  13.689  36.628   6.928
   10AU     LIG 5027  13.448  36.365   6.594
   10AU     LIG 5028  13.252  36.128   6.222
   10AU     LIG 5029  13.108  35.747   5.983
   10AU       S 5030  15.048  36.783   7.064
   10AU     LIG 5031  15.045  36.406   6.819
   10AU     LIG 5032  14.798  36.029   6.677
   10AU     LIG 5033  14.756  35.604   6.477
   10AU     LIG 5034  14.707  35.347   6.065
   10AU     LIG 5035  14.676  35.178   5.606
   10AU    AUSL 5036  15.227  37.218   7.332
   10AU    AUSL 5037  15.223  37.517   6.960
   10AU     AUL 5038  15.308  37.144   6.941
   10AU       S 5039  15.333  36.856   7.310
   10AU     LIG 5040  15.266  36.345   7.309
   10AU     LIG 5041  15.074  35.950   7.105
   10AU     LIG 5042  15.124  35.521   6.873
   10AU     LIG 5043  15.349  35.069   6.895
   10AU     LIG 5044  15.553  34.613   6.929
   10AU       S 5045  15.516  37.343   6.589
   10AU     LIG 5046  15.454  36.889   6.507
   10AU     LIG 5047  15.674  36.523   6.297
   10AU     LIG 5048  15.889  36.157   6.089
   10AU     LIG 5049  16.081  35.810   5.846
   10AU     LIG 5050  16.219  35.762   5.400
   11POPC   NC3 5051  23.937   6.425   9.529
   11POPC   PO4 5052  23.428   6.802   9.844
   11POPC   GL1 5053  23.528   6.674   9.335
   11POPC   GL2 5054  23.618   6.408   9.131
   11POPC   C1A 5055  23.694   6.849   8.890
   11POPC   D2A 5056  23.898   6.865   8.470
   11POPC   C3A 5057  23.692   6.969   8.044
   11POPC   C4A 5058  23.660   6.700   7.651
   11POPC   C1B 5059  24.055   6.483   8.882
   11POPC   C2B 5060  24.130   6.405   8.448
   11POPC   C3B 5061  24.082   6.602   8.049
   11POPC   C4B 5062  24.042   6.380   7.689
   12POPC   NC3 5063  17.557   9.497   9.491
   12POPC   PO4 5064  17.827  10.072   9.507
   12POPC   GL1 5065  17.626   9.891   9.192
   12POPC   GL2 5066  17.354  10.022   9.101
   12POPC   C1A 5067  17.639   9.629   8.840
   12POPC   D2A 5068  17.665   9.394   8.469
   12POPC   C3A 5069  17.465   9.658   8.128
   12POPC   C4A 5070  17.645   9.858   7.738
   12POPC   C1B 5071  17.219   9.948   8.757
   12POPC   C2B 5072  17.322  10.063   8.393
   12POPC   C3B 5073  17.334  10.155   7.984
   12POPC   C4B 5074  17.152   9.833   7.701
   13POPC   NC3 5075  14.550   7.181   9.434
   13POPC   PO4 5076  14.566   6.530   9.431
   13POPC   GL1 5077  14.438   6.725   9.131
   13POPC   GL2 5078  14.073   6.702   9.210
   13POPC   C1A 5079  14.601   6.617   8.744
   13POPC   D2A 5080  14.439   6.784   8.419
   13POPC   C3A 5081  14.501   6.682   8.016
   13POPC   C4A 5082  14.237   6.814   7.715
   13POPC   C1B 5083  14.083   6.631   8.738
   13POPC   C2B 5084  14.015   6.593   8.234
   13POPC   C3B 5085  14.034   6.380   7.810
   13POPC   C4B 5086  14.048   6.304   7.316
   14POPC   NC3 5087   8.492  39.529   9.460
   14POPC   PO4 5088   8.242  38.960   9.643
   14POPC   GL1 5089   8.236  39.094   9.237
   14POPC   GL2 5090   8.584  39.092   9.203
   14POPC   C1A 5091   8.068  39.264   8.844
   14POPC   D2A 5092   7.930  39.451   8.467
   14POPC   C3A 5093   7.952  39.256   8.084
   14POPC   C4A 5094   8.066  38.926   7.782
   14POPC   C1B 5095   8.570  39.283   8.803
   14POPC   C2B 5096   8.376  39.201   8.417
   14POPC   C3B 5097   8.445  39.302   8.009
   14POPC   C4B 5098   8.614  39.249   7.658
   15POPC   NC3 5099  29.782  37.868   9.525
   15POPC   PO4 5100  30.226  37.360   9.408
   15POPC   GL1 5101  30.109  37.709   9.152
   15POPC   GL2 5102  29.819  37.510   9.104
   15POPC   C1A 5103  29.998  37.909   8.754
   15POPC   D2A 5104  30.195  37.768   8.362
   15POPC   C3A 5105  29.979  37.541   8.026
   15POPC   C4A 5106  29.999  37.671   7.590
   15POPC   C1B 5107  29.569  37.570   8.729
   15POPC   C2B 5108  29.569  37.728   8.314
   15POPC   C3B 5109  29.457  37.510   7.916
   15POPC   C4B 5110  29.574  37.428   7.444
   16POPC   NC3 5111  41.759  35.969   9.270
   16POPC   PO4 5112  41.239  36.115   9.645
   16POPC   GL1 5113  41.233  36.089   9.216
   16POPC   GL2 5114  41.464  36.352   9.070
   16POPC   C1A 5115  41.206  35.983   8.790
   16POPC   D2A 5116  41.240  36.289   8.438
   16POPC   C3A 5117  41.383  36.126   8.038
   16POPC   C4A 5118  41.604  36.031   7.671
   16POPC   C1B 5119  41.678  36.156   8.685
   16POPC   C2B 5120  41.868  36.316   8.360
   16POPC   C3B 5121  41.782  36.471   7.967
   16POPC   C4B 5122  42.013  36.354   7.623
   17POPC   NC3 5123  41.403  25.975   9.720
   17POPC   PO4 5124  40.761  26.101   9.460
   17POPC   GL1 5125  40.866  26.070   9.066
   17POPC   GL2 5126  41.077  25.796   8.990
   17POPC   C1A 5127  40.658  25.889   8.739
   17POPC   D2A 5128  40.662  25.714   8.358
   17POPC   C3A 5129  40.634  26.005   8.051
   17POPC   C4A 5130  40.644  25.792   7.676
   17POPC   C1B 5131  41.139  25.837   8.563
   17POPC   C2B 5132  41.001  26.228   8.361
   17POPC   C3B 5133  41.209  26.413   8.008
   17POPC   C4B 5134  41.065  26.139   7.657
   18POPC   NC3 5135  24.136  33.772   9.526
   18POPC   PO4 5136  24.814  33.717   9.539
   18POPC   GL1 5137  24.531  33.860   9.172
   18POPC   GL2 5138  24.308  33.627   9.054
   18POPC   C1A 5139  24.445  34.034   8.723
   18POPC   D2A 5140  24.609  33.888   8.298
   18POPC   C3A 5141  24.665  34.108   7.937
   18POPC   C4A 5142  24.235  34.165   7.937
   18POPC   C1B 5143  24.669  33.582   8.710
   18POPC   C2B 5144  24.759  33.417   8.258
   18POPC   C3B 5145  24.744  33.627   7.828
   18POPC   C4B 5146  24.662  33.477   7.390
   19POPC   NC3 5147  30.900  38.365   9.590
   19POPC   PO4 5148  30.415  38.713   9.396
   19POPC   GL1 5149  30.700  38.543   9.155
   19POPC   GL2 5150  30.688  38.173   9.176
   19POPC   C1A 5151  30.771  38.493   8.761
   19POPC   D2A 5152  30.835  38.591   8.355
   19POPC   C3A 5153  30.511  38.570   8.035
   19POPC   C4A 5154  30.713  38.366   7.704
   19POPC   C1B 5155  30.498  38.034   8.828
   19POPC   C2B 5156  30.478  38.205   8.429
   19POPC   C3B 5157  30.517  38.041   8.037
   19POPC   C4B 5158  30.513  37.875   7.588
   20POPC   NC3 5159  29.039  26.600   9.520
   20POPC   PO4 5160  29.144  27.268   9.412
   20POPC   GL1 5161  29.186  26.910   9.116
   20POPC   GL2 5162  28.963  26.636   9.024
   20POPC   C1A 5163  29.422  26.714   8.777
   20POPC   D2A 5164  29.600  26.848   8.383
   20POPC   C3A 5165  29.485  26.626   8.011
   20POPC   C4A 5166  29.246  26.661   7.656
   20POPC   C1B 5167  28.935  26.835   8.667
   20POPC   C2B 5168  29.106  26.608   8.353
   20POPC   C3B 5169  28.880  26.653   7.993
   20POPC   C4B 5170  28.788  26.448   7.586
   21POPC   NC3 5171  18.146  40.686   9.803
   21POPC   PO4 5172  18.708  40.442   9.535
   21POPC   GL1 5173  18.420  40.591   9.245
   21POPC   GL2 5174  18.293  40.922   9.281
   21POPC   C1A 5175  18.375  40.579   8.794
   21POPC   D2A 5176  18.537  40.358   8.404
   21POPC   C3A 5177  18.304  40.502   8.029
   21POPC   C4A 5178  18.260  40.810   7.708
   21POPC   C1B 5179  18.490  41.098   8.890
   21POPC   C2B 5180  18.389  41.301   8.493
   21POPC   C3B 5181  18.460  41.232   8.082
   21POPC   C4B 5182  18.387  41.291   7.678
   22POPC   NC3 5183  43.854  25.578   9.401
   22POPC   PO4 5184  43.574  24.967   9.467
   22POPC   GL1 5185  43.740  25.022   9.092
   22POPC   GL2 5186  44.047  25.171   9.152
   22POPC   C1A 5187  43.747  25.353   8.768
   22POPC   D2A 5188  43.724  25.498   8.345
   22POPC   C3A 5189  43.682  25.192   8.043
   22POPC   C4A 5190  43.793  25.044   7.669
   22POPC   C1B 5191  44.237  25.216   8.730
   22POPC   C2B 5192  44.160  25.222   8.255
   22POPC   C3B 5193  44.133  25.372   7.830
   22POPC   C4B 5194  44.193  25.212   7.383
   23POPC   NC3 5195   1.216  17.085   9.677
   23POPC   PO4 5196   1.465  17.637   9.485
   23POPC   GL1 5197   1.194  17.547   9.184
   23POPC   GL2 5198   1.227  17.194   9.178
   23POPC   C1A 5199   1.138  17.766   8.822
   23POPC   D2A 5200   1.390  17.756   8.486
   23POPC   C3A 5201   1.232  17.871   8.086
   23POPC   C4A 5202   1.042  17.848   7.713
   23POPC   C1B 5203   1.289  17.277   8.748
   23POPC   C2B 5204   1.120  17.167   8.356
   23POPC   C3B 5205   1.135  17.385   7.965
   23POPC   C4B 5206   1.483  17.552   7.754
   24POPC   NC3 5207  43.347  16.341   9.519
   24POPC   PO4 5208  43.009  15.722   9.682
   24POPC   GL1 5209  43.112  15.804   9.251
   24POPC   GL2 5210  43.101  16.150   9.110
   24POPC   C1A 5211  43.330  15.772   8.856
   24POPC   D2A 5212  43.320  16.061   8.553
   24POPC   C3A 5213  43.285  15.939   8.147
   24POPC   C4A 5214  43.254  15.732   7.775
   24POPC   C1B 5215  42.880  16.237   8.713
   24POPC   C2B 5216  43.008  16.360   8.276
   24POPC   C3B 5217  42.987  16.221   7.846
   24POPC   C4B 5218  42.704  16.147   7.528
   25POPC   NC3 5219  24.250  41.880   9.439
   25POPC   PO4 5220  24.787  41.382   9.409
   25POPC   GL1 5221  24.640  41.653   9.130
   25POPC   GL2 5222  24.342  41.459   9.143
   25POPC   C1A 5223  24.713  41.750   8.695
   25POPC   D2A 5224  24.916  41.680   8.272
   25POPC   C3A 5225  24.659  41.777   7.895
   25POPC   C4A 5226  24.455  41.949   7.496
   25POPC   C1B 5227  24.230  41.559   8.744
   25POPC   C2B 5228  24.423  41.491   8.340
   25POPC   C3B 5229  24.218  41.499   7.967
   25POPC   C4B 5230  24.050  41.801   7.745
   26POPC   NC3 5231  25.664  12.220   9.606
   26POPC   PO4 5232  26.286  11.925   9.682
   26POPC   GL1 5233  26.051  12.016   9.283
   26POPC   GL2 5234  26.145  12.331   9.213
   26POPC   C1A 5235  26.036  12.062   8.785
   26POPC   D2A 5236  25.877  12.123   8.333
   26POPC   C3A 5237  26.031  12.086   7.895
   26POPC   C4A 5238  26.006  11.998   7.450
   26POPC   C1B 5239  26.416  12.405   8.823
   26POPC   C2B 5240  26.365  12.303   8.351
   26POPC   C3B 5241  26.323  12.494   7.912
   26POPC   C4B 5242  26.431  12.332   7.475
   27POPC   NC3 5243  17.471  27.785   9.365
   27POPC   PO4 5244  17.304  27.084   9.448
   27POPC   GL1 5245  17.352  27.301   9.102
   27POPC   GL2 5246  17.050  27.506   9.111
   27POPC   C1A 5247  17.625  27.245   8.755
   27POPC   D2A 5248  17.689  27.524   8.424
   27POPC   C3A 5249  17.555  27.385   8.021
   27POPC   C4A 5250  17.802  27.607   7.730
   27POPC   C1B 5251  17.207  27.566   8.680
   27POPC   C2B 5252  17.235  27.748   8.258
   27POPC   C3B 5253  17.018  27.774   7.849
   27POPC   C4B 5254  17.178  27.976   7.456
   28POPC   NC3 5255   0.986   5.358   9.732
   28POPC   PO4 5256   1.104   5.965   9.530
   28POPC   GL1 5257   1.094   5.929   9.089
   28POPC   GL2 5258   1.449   5.915   8.950
   28POPC   C1A 5259   1.082   6.123   8.685
   28POPC   D2A 5260   1.453   6.088   8.440
   28POPC   C3A 5261   1.412   5.783   8.118
   28POPC   C4A 5262   1.142   5.904   7.787
   28POPC   C1B 5263   1.257   5.637   8.635
   28POPC   C2B 5264   0.943   5.380   8.418
   28POPC   C3B 5265   0.938   5.447   7.977
   28POPC   C4B 5266   1.288   5.427   7.718
   29POPC   NC3 5267  43.495  42.538   9.857
   29POPC   PO4 5268  43.039  42.199   9.714
   29POPC   GL1 5269  42.887  42.117   9.248
   29POPC   GL2 5270  42.937  42.465   9.283
   29POPC   C1A 5271  42.944  41.965   8.750
   29POPC   D2A 5272  42.890  42.188   8.333
   29POPC   C3A 5273  42.944  42.075   7.885
   29POPC   C4A 5274  42.610  42.168   7.586
   29POPC   C1B 5275  42.941  42.452   8.843
   29POPC   C2B 5276  43.312  42.355   8.555
   29POPC   C3B 5277  43.351  42.305   8.081
   29POPC   C4B 5278  43.313  42.510   7.655
   30POPC   NC3 5279   2.250   2.205   9.458
   30POPC   PO4 5280   1.612   1.878   9.309
   30POPC   GL1 5281   1.957   2.004   9.093
   30POPC   GL2 5282   1.961   2.359   9.065
   30POPC   C1A 5283   2.120   2.030   8.692
   30POPC   D2A 5284   1.874   2.070   8.331
   30POPC   C3A 5285   2.114   2.016   7.934
   30POPC   C4A 5286   2.183   1.602   7.730
   30POPC   C1B 5287   1.752   2.450   8.685
   30POPC   C2B 5288   1.735   2.561   8.235
   30POPC   C3B 5289   1.631   2.224   7.920
   30POPC   C4B 5290   1.801   2.167   7.536
   31POPC   NC3 5291  40.820  17.676   9.613
   31POPC   PO4 5292  40.461  18.050   9.393
   31POPC   GL1 5293  40.780  17.804   9.115
   31POPC   GL2 5294  40.805  17.433   9.130
   31POPC   C1A 5295  41.052  17.701   8.753
   31POPC   D2A 5296  41.099  17.504   8.343
   31POPC   C3A 5297  41.044  17.751   7.972
   31POPC   C4A 5298  40.840  17.701   7.594
   31POPC   C1B 5299  40.898  17.193   8.722
   31POPC   C2B 5300  40.938  17.032   8.272
   31POPC   C3B 5301  40.895  17.261   7.889
   31POPC   C4B 5302  40.983  17.230   7.465
   32POPC   NC3 5303   8.177  12.807   9.463
   32POPC   PO4 5304   7.639  12.980   9.663
   32POPC   GL1 5305   7.845  13.022   9.148
   32POPC   GL2 5306   8.203  13.062   9.044
   32POPC   C1A 5307   7.953  12.900   8.670
   32POPC   D2A 5308   7.839  13.044   8.285
   32POPC   C3A 5309   7.903  12.755   7.996
   32POPC   C4A 5310   7.882  12.760   7.601
   32POPC   C1B 5311   8.500  13.047   8.736
   32POPC   C2B 5312   8.653  12.851   8.416
   32POPC   C3B 5313   8.537  12.871   8.055
   32POPC   C4B 5314   8.346  12.926   7.720
   33POPC   NC3 5315   1.094   5.428   9.239
   33POPC   PO4 5316   1.355   4.942   9.663
   33POPC   GL1 5317   1.242   4.904   9.217
   33POPC   GL2 5318   1.456   5.079   9.001
   33POPC   C1A 5319   0.973   4.922   8.819
   33POPC   D2A 5320   1.071   4.790   8.423
   33POPC   C3A 5321   0.969   4.942   8.072
   33POPC   C4A 5322   1.158   4.926   7.717
   33POPC   C1B 5323   1.393   5.138   8.570
   33POPC   C2B 5324   1.489   5.064   8.138
   33POPC   C3B 5325   1.641   5.058   7.721
   33POPC   C4B 5326   1.491   4.919   7.313
   34POPC   NC3 5327  39.797  30.580   9.472
   34POPC   PO4 5328  39.156  30.357   9.555
   34POPC   GL1 5329  39.231  30.586   9.169
   34POPC   GL2 5330  39.529  30.859   9.126
   34POPC   C1A 5331  38.983  30.435   8.805
   34POPC   D2A 5332  38.705  30.622   8.494
   34POPC   C3A 5333  38.861  30.579   8.071
   34POPC   C4A 5334  39.236  30.422   7.851
   34POPC   C1B 5335  39.428  30.666   8.719
   34POPC   C2B 5336  39.366  30.518   8.339
   34POPC   C3B 5337  39.695  30.544   8.051
   34POPC   C4B 5338  39.792  30.604   7.664
   35POPC   NC3 5339  19.257   5.399   9.422
   35POPC   PO4 5340  18.959   4.792   9.505
   35POPC   GL1 5341  19.124   4.979   9.135
   35POPC   GL2 5342  18.850   5.190   9.118
   35POPC   C1A 5343  19.211   5.280   8.748
   35POPC   D2A 5344  19.475   5.274   8.349
   35POPC   C3A 5345  19.312   5.169   7.932
   35POPC   C4A 5346  19.076   5.226   7.549
   35POPC   C1B 5347  18.816   4.950   8.728
   35POPC   C2B 5348  18.927   5.151   8.341
   35POPC   C3B 5349  18.904   4.893   8.016
   35POPC   C4B 5350  18.942   4.698   7.648
   36POPC   NC3 5351  32.066  21.569   9.414
   36POPC   PO4 5352  32.713  21.416   9.468
   36POPC   GL1 5353  32.369  21.261   9.144
   36POPC   GL2 5354  32.092  21.038   9.280
   36POPC   C1A 5355  32.298  21.321   8.688
   36POPC   D2A 5356  32.280  21.640   8.390
   36POPC   C3A 5357  32.475  21.623   7.993
   36POPC   C4A 5358  32.233  21.504   7.657
   36POPC   C1B 5359  31.864  21.210   8.906
   36POPC   C2B 5360  31.828  21.126   8.485
   36POPC   C3B 5361  32.029  21.244   8.099
   36POPC   C4B 5362  31.839  21.188   7.688
   37POPC   NC3 5363  36.585  35.729   9.311
   37POPC   PO4 5364  36.070  36.163   9.315
   37POPC   GL1 5365  36.320  36.075   9.024
   37POPC   GL2 5366  36.449  36.447   9.061
   37POPC   C1A 5367  36.069  35.793   8.771
   37POPC   D2A 5368  35.823  35.987   8.495
   37POPC   C3A 5369  35.909  35.817   8.082
   37POPC   C4A 5370  36.056  35.955   7.691
   37POPC   C1B 5371  36.582  36.332   8.675
   37POPC   C2B 5372  36.482  35.945   8.473
   37POPC   C3B 5373  36.434  35.954   8.037
   37POPC   C4B 5374  36.472  36.294   7.723
   38POPC   NC3 5375  13.552   7.116   9.425
   38POPC   PO4 5376  13.985   7.588   9.259
   38POPC   GL1 5377  13.617   7.483   9.055
   38POPC   GL2 5378  13.414   7.798   8.994
   38POPC   C1A 5379  13.669   7.326   8.669
   38POPC   D2A 5380  13.784   7.576   8.358
   38POPC   C3A 5381  13.719   7.369   8.005
   38POPC   C4A 5382  13.958   7.226   7.669
   38POPC   C1B 5383  13.198   7.506   8.726
   38POPC   C2B 5384  13.264   7.398   8.294
   38POPC   C3B 5385  13.282   7.165   7.921
   38POPC   C4B 5386  13.467   7.420   7.556
   39POPC   NC3 5387   1.469  18.868   9.448
   39POPC   PO4 5388   0.931  19.244   9.428
   39POPC   GL1 5389   1.270  19.181   9.087
   39POPC   GL2 5390   1.278  18.798   8.984
   39POPC   C1A 5391   1.411  19.142   8.634
   39POPC   D2A 5392   1.456  18.798   8.318
   39POPC   C3A 5393   1.301  18.929   7.910
   39POPC   C4A 5394   1.279  19.371   7.746
   39POPC   C1B 5395   0.920  18.988   8.746
   39POPC   C2B 5396   0.982  19.121   8.309
   39POPC   C3B 5397   0.840  19.163   7.888
   39POPC   C4B 5398   0.940  18.946   7.502
   40POPC   NC3 5399  21.038  23.641   9.458
   40POPC   PO4 5400  20.531  24.042   9.560
   40POPC   GL1 5401  20.596  23.792   9.174
   40POPC   GL2 5402  20.796  23.486   9.046
   40POPC   C1A 5403  20.403  23.648   8.793
   40POPC   D2A 5404  20.620  23.517   8.439
   40POPC   C3A 5405  20.517  23.631   8.046
   40POPC   C4A 5406  20.274  23.375   7.796
   40POPC   C1B 5407  20.918  23.811   8.742
   40POPC   C2B 5408  20.848  23.952   8.298
   40POPC   C3B 5409  20.983  23.810   7.890
   40POPC   C4B 5410  20.963  23.928   7.473
   41POPC   NC3 5411  18.702   0.115  10.060
   41POPC   PO4 5412  18.242   0.200   9.616
   41POPC   GL1 5413  18.480   0.374   9.169
   41POPC   GL2 5414  18.633   0.696   9.257
   41POPC   C1A 5415  18.336   0.435   8.735
   41POPC   D2A 5416  18.234   0.657   8.397
   41POPC   C3A 5417  18.199   0.383   8.073
   41POPC   C4A 5418  18.234   0.645   7.727
   41POPC   C1B 5419  18.805   0.602   8.834
   41POPC   C2B 5420  18.758   0.744   8.428
   41POPC   C3B 5421  18.669   0.570   8.049
   41POPC   C4B 5422  18.707   0.803   7.687
   42POPC   NC3 5423   2.078  24.150   9.255
   42POPC   PO4 5424   1.651  24.596   9.644
   42POPC   GL1 5425   1.973  24.643   9.194
   42POPC   GL2 5426   1.816  24.511   8.853
   42POPC   C1A 5427   2.280  24.490   8.777
   42POPC   D2A 5428   2.036  24.445   8.401
   42POPC   C3A 5429   2.146  24.285   8.025
   42POPC   C4A 5430   2.204  24.502   7.668
   42POPC   C1B 5431   1.774  24.065   8.635
   42POPC   C2B 5432   1.531  23.966   8.261
   42POPC   C3B 5433   1.610  24.210   7.890
   42POPC   C4B 5434   1.805  24.244   7.458
   43POPC   NC3 5435  20.463  39.823   9.400
   43POPC   PO4 5436  21.033  39.512   9.306
   43POPC   GL1 5437  20.832  39.842   9.066
   43POPC   GL2 5438  21.044  40.068   8.998
   43POPC   C1A 5439  20.458  39.926   8.756
   43POPC   D2A 5440  20.447  39.854   8.307
   43POPC   C3A 5441  20.425  40.144   7.972
   43POPC   C4A 5442  20.338  40.099   7.510
   43POPC   C1B 5443  20.938  39.943   8.587
   43POPC   C2B 5444  20.829  40.220   8.280
   43POPC   C3B 5445  20.976  40.249   7.905
   43POPC   C4B 5446  20.819  40.043   7.629
   44POPC   NC3 5447   7.619  43.865   9.603
   44POPC   PO4 5448   7.128  43.642   9.369
   44POPC   GL1 5449   7.295  43.987   9.193
   44POPC   GL2 5450   7.622  43.853   9.082
   44POPC   C1A 5451   7.200  44.066   8.807
   44POPC   D2A 5452   7.356  43.820   8.462
   44POPC   C3A 5453   7.283  44.016   8.052
   44POPC   C4A 5454   7.136  43.941   7.639
   44POPC   C1B 5455   7.864  43.546   8.846
   44POPC   C2B 5456   7.778  43.321   8.463
   44POPC   C3B 5457   7.811  43.445   8.035
   44POPC   C4B 5458   7.586  43.705   7.726
   45POPC   NC3 5459   4.620  12.917   9.256
   45POPC   PO4 5460   5.217  12.796   9.638
   45POPC   GL1 5461   5.222  12.802   9.180
   45POPC   GL2 5462   5.201  13.121   9.095
   45POPC   C1A 5463   4.998  12.736   8.755
   45POPC   D2A 5464   4.751  12.448   8.500
   45POPC   C3A 5465   4.887  12.469   8.085
   45POPC   C4A 5466   4.870  12.885   7.883
   45POPC   C1B 5467   5.416  13.036   8.703
   45POPC   C2B 5468   5.246  13.111   8.283
   45POPC   C3B 5469   5.329  13.076   7.831
   45POPC   C4B 5470   5.162  12.943   7.437
   46POPC   NC3 5471  36.542  11.843   9.491
   46POPC   PO4 5472  37.069  12.302   9.435
   46POPC   GL1 5473  36.789  12.123   9.114
   46POPC   GL2 5474  36.606  11.795   9.006
   46POPC   C1A 5475  36.937  12.032   8.711
   46POPC   D2A 5476  36.790  11.855   8.350
   46POPC   C3A 5477  36.839  12.163   8.043
   46POPC   C4A 5478  37.281  12.244   7.872
   46POPC   C1B 5479  36.401  11.637   8.633
   46POPC   C2B 5480  36.444  11.498   8.220
   46POPC   C3B 5481  36.665  11.695   7.882
   46POPC   C4B 5482  37.109  11.762   7.930
   47POPC   NC3 5483  37.781  22.849   9.481
   47POPC   PO4 5484  37.286  23.394   9.466
   47POPC   GL1 5485  37.601  23.214   9.188
   47POPC   GL2 5486  37.393  22.953   9.139
   47POPC   C1A 5487  37.812  22.948   8.833
   47POPC   D2A 5488  37.776  23.088   8.405
   47POPC   C3A 5489  37.827  22.776   8.080
   47POPC   C4A 5490  37.775  22.950   7.698
   47POPC   C1B 5491  37.337  23.044   8.720
   47POPC   C2B 5492  37.383  22.782   8.360
   47POPC   C3B 5493  37.337  22.928   7.958
   47POPC   C4B 5494  37.081  22.939   7.613
   48POPC   NC3 5495  13.425  13.249   9.331
   48POPC   PO4 5496  13.809  13.745   9.539
   48POPC   GL1 5497  13.645  13.736   9.156
   48POPC   GL2 5498  13.449  13.990   9.104
   48POPC   C1A 5499  13.856  13.910   8.800
   48POPC   D2A 5500  13.951  13.962   8.368
   48POPC   C3A 5501  13.672  13.709   8.116
   48POPC   C4A 5502  13.506  13.811   7.695
   48POPC   C1B 5503  13.353  13.759   8.718
   48POPC   C2B 5504  13.410  13.382   8.472
   48POPC   C3B 5505  13.431  13.247   8.050
   48POPC   C4B 5506  13.795  13.360   7.760
   49POPC   NC3 5507  40.290  32.833   9.605
   49POPC   PO4 5508  39.809  33.379   9.488
   49POPC   GL1 5509  39.943  33.012   9.229
   49POPC   GL2 5510  40.169  33.198   9.106
   49POPC   C1A 5511  40.020  32.788   8.822
   49POPC   D2A 5512  39.764  32.701   8.439
   49POPC   C3A 5513  39.828  32.846   7.976
   49POPC   C4A 5514  40.060  32.977   7.586
   49POPC   C1B 5515  39.854  33.238   8.717
   49POPC   C2B 5516  39.937  33.244   8.282
   49POPC   C3B 5517  39.824  33.346   7.840
   49POPC   C4B 5518  39.879  33.384   7.347
   50POPC   NC3 5519  35.609  28.326   9.504
   50POPC   PO4 5520  34.933  28.706   9.420
   50POPC   GL1 5521  35.094  28.545   9.064
   50POPC   GL2 5522  35.455  28.469   9.016
   50POPC   C1A 5523  35.008  28.492   8.645
   50POPC   D2A 5524  35.356  28.377   8.421
   50POPC   C3A 5525  35.414  28.465   7.997
   50POPC   C4A 5526  35.047  28.519   7.758
   50POPC   C1B 5527  35.579  28.109   8.777
   50POPC   C2B 5528  35.719  28.025   8.353
   50POPC   C3B 5529  35.707  28.021   7.900
   50POPC   C4B 5530  35.379  28.132   7.595
   51POPC   NC3 5531  41.141  31.860   9.418
   51POPC   PO4 5532  40.631  32.388   9.425
   51POPC   GL1 5533  40.788  32.168   9.104
   51POPC   GL2 5534  40.478  32.199   8.880
   51POPC   C1A 5535  40.922  32.013   8.709
   51POPC   D2A 5536  40.791  31.899   8.321
   51POPC   C3A 5537  40.769  32.236   8.057
   51POPC   C4A 5538  40.935  32.277   7.670
   51POPC   C1B 5539  40.761  32.539   8.746
   51POPC   C2B 5540  41.012  32.705   8.419
   51POPC   C3B 5541  40.841  32.805   8.041
   51POPC   C4B 5542  40.542  32.626   7.786
   52POPC   NC3 5543   0.234  40.754   9.628
   52POPC   PO4 5544  44.462  40.820   9.535
   52POPC   GL1 5545  44.517  40.744   9.131
   52POPC   GL2 5546  44.864  40.640   9.115
   52POPC   C1A 5547  44.495  40.726   8.710
   52POPC   D2A 5548  44.806  40.597   8.430
   52POPC   C3A 5549  44.632  40.751   8.062
   52POPC   C4A 5550  44.368  40.718   7.700
   52POPC   C1B 5551  44.927  40.986   8.801
   52POPC   C2B 5552   0.093  41.023   8.400
   52POPC   C3B 5553  44.916  41.187   8.014
   52POPC   C4B 5554  44.817  40.993   7.650
   53POPC   NC3 5555   4.672   1.992   9.527
   53POPC   PO4 5556   4.031   2.335   9.293
   53POPC   GL1 5557   4.205   1.977   9.074
   53POPC   GL2 5558   4.564   1.848   9.059
   53POPC   C1A 5559   4.291   1.878   8.643
   53POPC   D2A 5560   4.136   2.053   8.300
   53POPC   C3A 5561   4.183   1.764   7.972
   53POPC   C4A 5562   4.111   1.828   7.578
   53POPC   C1B 5563   4.610   2.241   8.805
   53POPC   C2B 5564   4.605   2.291   8.360
   53POPC   C3B 5565   4.755   2.060   7.990
   53POPC   C4B 5566   4.625   1.747   7.680
   54POPC   NC3 5567  24.023  36.336   9.355
   54POPC   PO4 5568  24.672  36.207   9.500
   54POPC   GL1 5569  24.673  36.037   9.114
   54POPC   GL2 5570  24.325  36.029   9.075
   54POPC   C1A 5571  24.899  36.098   8.728
   54POPC   D2A 5572  24.875  36.388   8.365
   54POPC   C3A 5573  24.704  36.256   7.948
   54POPC   C4A 5574  24.645  36.411   7.504
   54POPC   C1B 5575  24.439  36.350   8.774
   54POPC   C2B 5576  24.388  36.198   8.367
   54POPC   C3B 5577  24.118  35.983   8.093
   54POPC   C4B 5578  24.251  36.075   7.694
   55POPC   NC3 5579  31.128   6.338   9.501
   55POPC   PO4 5580  31.191   7.031   9.439
   55POPC   GL1 5581  31.299   6.801   9.109
   55POPC   GL2 5582  31.649   6.865   9.124
   55POPC   C1A 5583  31.282   6.807   8.676
   55POPC   D2A 5584  31.064   6.778   8.307
   55POPC   C3A 5585  31.142   6.449   8.074
   55POPC   C4A 5586  31.376   6.471   7.724
   55POPC   C1B 5587  31.763   6.696   8.710
   55POPC   C2B 5588  31.602   6.608   8.284
   55POPC   C3B 5589  31.836   6.542   7.889
   55POPC   C4B 5590  31.924   6.536   7.422
   56POPC   NC3 5591  27.901  34.597   9.848
   56POPC   PO4 5592  28.437  34.761   9.536
   56POPC   GL1 5593  28.514  34.685   9.129
   56POPC   GL2 5594  28.174  34.554   9.140
   56POPC   C1A 5595  28.680  34.469   8.745
   56POPC   D2A 5596  28.864  34.350   8.320
   56POPC   C3A 5597  28.634  34.567   7.964
   56POPC   C4A 5598  28.376  34.945   7.846
   56POPC   C1B 5599  28.200  34.647   8.706
   56POPC   C2B 5600  28.217  34.751   8.291
   56POPC   C3B 5601  28.048  34.564   7.920
   56POPC   C4B 5602  28.102  34.296   7.571
   57POPC   NC3 5603  24.714  24.403   9.938
   57POPC   PO4 5604  24.412  24.266   9.583
   57POPC   GL1 5605  24.439  24.409   9.134
   57POPC   GL2 5606  24.789  24.462   9.039
   57POPC   C1A 5607  24.438  24.383   8.664
   57POPC   D2A 5608  24.652  24.189   8.303
   57POPC   C3A 5609  24.545  24.327   7.885
   57POPC   C4A 5610  24.234  24.239   7.562
   57POPC   C1B 5611  24.853  24.667   8.617
   57POPC   C2B 5612  24.565  24.714   8.263
   57POPC   C3B 5613  24.687  24.819   7.839
   57POPC   C4B 5614  24.837  24.588   7.478
   58POPC   NC3 5615  24.812   5.921   9.490
   58POPC   PO4 5616  24.404   5.469   9.761
   58POPC   GL1 5617  24.557   5.491   9.328
   58POPC   GL2 5618  24.425   5.791   9.185
   58POPC   C1A 5619  24.648   5.491   8.861
   58POPC   D2A 5620  24.582   5.495   8.393
   58POPC   C3A 5621  24.287   5.632   8.041
   58POPC   C4A 5622  24.362   5.821   7.624
   58POPC   C1B 5623  24.271   5.906   8.788
   58POPC   C2B 5624  24.377   5.981   8.386
   58POPC   C3B 5625  24.423   6.173   7.990
   58POPC   C4B 5626  24.774   6.181   7.687
   59POPC   NC3 5627  30.020  39.707   9.506
   59POPC   PO4 5628  29.667  39.137   9.591
   59POPC   GL1 5629  29.699  39.388   9.241
   59POPC   GL2 5630  29.498  39.205   9.044
   59POPC   C1A 5631  30.052  39.357   8.935
   59POPC   D2A 5632  30.272  39.369   8.540
   59POPC   C3A 5633  30.112  39.067   8.250
   59POPC   C4A 5634  29.970  39.162   7.839
   59POPC   C1B 5635  29.613  39.487   8.718
   59POPC   C2B 5636  29.714  39.397   8.299
   59POPC   C3B 5637  29.510  39.332   7.938
   59POPC   C4B 5638  29.572  39.249   7.477
   60POPC   NC3 5639  17.030  33.891   9.485
   60POPC   PO4 5640  16.915  33.239   9.499
   60POPC   GL1 5641  16.695  33.432   9.171
   60POPC   GL2 5642  16.578  33.708   9.318
   60POPC   C1A 5643  16.807  33.405   8.742
   60POPC   D2A 5644  16.897  33.709   8.415
   60POPC   C3A 5645  16.811  33.585   7.987
   60POPC   C4A 5646  16.718  33.485   7.535
   60POPC   C1B 5647  16.683  33.909   8.876
   60POPC   C2B 5648  16.551  34.075   8.431
   60POPC   C3B 5649  16.845  34.094   8.062
   60POPC   C4B 5650  16.778  33.981   7.631
   61POPC   NC3 5651  32.396  19.354   9.466
   61POPC   PO4 5652  31.941  18.949   9.481
   61POPC   GL1 5653  32.269  18.886   9.181
   61POPC   GL2 5654  32.010  18.786   9.009
   61POPC   C1A 5655  32.454  19.129   8.832
   61POPC   D2A 5656  32.167  19.415   8.570
   61POPC   C3A 5657  32.251  19.450   8.135
   61POPC   C4A 5658  32.591  19.263   7.875
   61POPC   C1B 5659  32.051  18.911   8.626
   61POPC   C2B 5660  32.345  18.977   8.306
   61POPC   C3B 5661  32.233  18.835   7.897
   61POPC   C4B 5662  32.023  18.710   7.511
   62POPC   NC3 5663  31.662  42.655   9.534
   62POPC   PO4 5664  31.437  42.110   9.452
   62POPC   GL1 5665  31.663  42.259   9.134
   62POPC   GL2 5666  31.961  42.401   9.212
   62POPC   C1A 5667  31.690  42.144   8.706
   62POPC   D2A 5668  31.288  42.093   8.488
   62POPC   C3A 5669  31.231  42.387   8.162
   62POPC   C4A 5670  31.320  42.347   7.700
   62POPC   C1B 5671  31.816  42.642   8.864
   62POPC   C2B 5672  31.732  42.627   8.434
   62POPC   C3B 5673  31.725  42.450   8.031
   62POPC   C4B 5674  31.702  42.712   7.683
   63POPC   NC3 5675  12.920  42.732   9.833
   63POPC   PO4 5676  12.640  43.144   9.351
   63POPC   GL1 5677  12.894  42.890   9.048
   63POPC   GL2 5678  12.940  43.185   8.881
   63POPC   C1A 5679  13.008  42.796   8.570
   63POPC   D2A 5680  13.262  42.685   8.215
   63POPC   C3A 5681  13.006  42.820   7.905
   63POPC   C4A 5682  12.875  43.259   7.898
   63POPC   C1B 5683  12.549  42.966   8.677
   63POPC   C2B 5684  12.569  42.975   8.239
   63POPC   C3B 5685  12.392  43.118   7.860
   63POPC   C4B 5686  12.562  43.250   7.459
   64POPC   NC3 5687   1.467   4.502   9.543
   64POPC   PO4 5688   0.877   4.075   9.518
   64POPC   GL1 5689   0.878   4.142   9.101
   64POPC   GL2 5690   1.136   4.395   9.166
   64POPC   C1A 5691   0.898   4.400   8.706
   64POPC   D2A 5692   0.667   4.519   8.337
   64POPC   C3A 5693   0.921   4.355   8.082
   64POPC   C4A 5694   1.043   4.311   7.682
   64POPC   C1B 5695   1.375   4.569   8.825
   64POPC   C2B 5696   1.363   4.389   8.409
   64POPC   C3B 5697   1.372   4.568   8.028
   64POPC   C4B 5698   1.571   4.572   7.674
   65POPC   NC3 5699  21.341   4.462   9.583
   65POPC   PO4 5700  21.874   4.047   9.572
   65POPC   GL1 5701  21.621   4.329   9.160
   65POPC   GL2 5702  21.261   4.377   9.107
   65POPC   C1A 5703  21.469   4.483   8.667
   65POPC   D2A 5704  21.633   4.615   8.217
   65POPC   C3A 5705  21.455   4.479   7.803
   65POPC   C4A 5706  21.166   4.470   7.408
   65POPC   C1B 5707  21.117   4.043   8.874
   65POPC   C2B 5708  20.981   4.031   8.471
   65POPC   C3B 5709  21.013   4.329   8.148
   65POPC   C4B 5710  21.101   4.098   7.778
   66POPC   NC3 5711  22.972  37.425   9.692
   66POPC   PO4 5712  23.454  37.751   9.330
   66POPC   GL1 5713  23.078  37.702   9.091
   66POPC   GL2 5714  22.837  37.478   9.210
   66POPC   C1A 5715  22.758  37.915   8.868
   66POPC   D2A 5716  22.633  38.038   8.449
   66POPC   C3A 5717  22.896  37.955   8.098
   66POPC   C4A 5718  23.172  37.679   7.885
   66POPC   C1B 5719  22.772  37.375   8.784
   66POPC   C2B 5720  22.813  37.159   8.388
   66POPC   C3B 5721  22.795  37.352   8.019
   66POPC   C4B 5722  22.762  37.528   7.621
   67POPC   NC3 5723  34.389  30.471   9.271
   67POPC   PO4 5724  34.633  30.892   9.775
   67POPC   GL1 5725  34.663  30.878   9.256
   67POPC   GL2 5726  34.968  30.799   9.164
   67POPC   C1A 5727  34.493  30.878   8.810
   67POPC   D2A 5728  34.311  30.727   8.436
   67POPC   C3A 5729  34.501  30.773   8.042
   67POPC   C4A 5730  34.320  30.653   7.683
   67POPC   C1B 5731  34.938  31.103   8.820
   67POPC   C2B 5732  34.839  30.911   8.418
   67POPC   C3B 5733  34.945  31.063   8.014
   67POPC   C4B 5734  34.812  30.944   7.630
   68POPC   NC3 5735  41.747  17.303   9.601
   68POPC   PO4 5736  41.205  17.448   9.680
   68POPC   GL1 5737  41.318  17.477   9.201
   68POPC   GL2 5738  41.681  17.527   9.132
   68POPC   C1A 5739  41.401  17.318   8.745
   68POPC   D2A 5740  41.602  17.391   8.328
   68POPC   C3A 5741  41.396  17.388   7.927
   68POPC   C4A 5742  41.564  17.516   7.556
   68POPC   C1B 5743  41.563  17.800   8.772
   68POPC   C2B 5744  41.410  17.899   8.364
   68POPC   C3B 5745  41.537  17.874   7.957
   68POPC   C4B 5746  41.340  17.975   7.570
   69POPC   NC3 5747  43.082  18.911   9.578
   69POPC   PO4 5748  42.922  19.546   9.792
   69POPC   GL1 5749  42.938  19.281   9.280
   69POPC   GL2 5750  43.152  19.407   9.050
   69POPC   C1A 5751  43.184  18.923   8.956
   69POPC   D2A 5752  43.353  18.771   8.596
   69POPC   C3A 5753  43.143  18.902   8.227
   69POPC   C4A 5754  43.135  18.769   7.802
   69POPC   C1B 5755  43.416  19.299   8.694
   69POPC   C2B 5756  43.571  19.161   8.295
   69POPC   C3B 5757  43.283  19.325   7.974
   69POPC   C4B 5758  43.048  19.276   7.579
   70POPC   NC3 5759   8.044  36.020   9.536
   70POPC   PO4 5760   7.825  36.709   9.528
   70POPC   GL1 5761   8.020  36.425   9.178
   70POPC   GL2 5762   8.096  36.087   9.051
   70POPC   C1A 5763   8.141  36.514   8.726
   70POPC   D2A 5764   8.306  36.519   8.272
   70POPC   C3A 5765   8.226  36.297   7.841
   70POPC   C4A 5766   8.069  36.064   7.460
   70POPC   C1B 5767   8.255  36.004   8.654
   70POPC   C2B 5768   8.392  36.001   8.219
   70POPC   C3B 5769   8.384  35.813   7.771
   70POPC   C4B 5770   8.204  35.516   7.446
   71POPC   NC3 5771  29.831  41.125   9.395
   71POPC   PO4 5772  29.705  40.502   9.562
   71POPC   GL1 5773  29.793  40.626   9.147
   71POPC   GL2 5774  30.142  40.654   9.198
   71POPC   C1A 5775  29.634  40.752   8.703
   71POPC   D2A 5776  29.607  40.978   8.294
   71POPC   C3A 5777  29.651  40.693   7.939
   71POPC   C4A 5778  29.928  40.458   7.636
   71POPC   C1B 5779  30.116  40.865   8.821
   71POPC   C2B 5780  30.068  40.697   8.428
   71POPC   C3B 5781  30.143  40.754   8.017
   71POPC   C4B 5782  30.028  40.997   7.670
   72POPC   NC3 5783  42.831  13.402   9.353
   72POPC   PO4 5784  42.168  13.580   9.208
   72POPC   GL1 5785  42.260  13.920   8.994
   72POPC   GL2 5786  42.574  14.029   9.169
   72POPC   C1A 5787  42.200  13.844   8.567
   72POPC   D2A 5788  42.497  13.547   8.492
   72POPC   C3A 5789  42.452  13.525   8.097
   72POPC   C4A 5790  42.350  13.421   7.736
   72POPC   C1B 5791  42.661  14.028   8.684
   72POPC   C2B 5792  42.549  14.028   8.202
   72POPC   C3B 5793  42.291  13.933   7.802
   72POPC   C4B 5794  42.147  13.990   7.350
   73POPC   NC3 5795  38.684   4.828   9.552
   73POPC   PO4 5796  38.135   5.107   9.802
   73POPC   GL1 5797  38.102   5.129   9.296
   73POPC   GL2 5798  38.447   5.095   9.181
   73POPC   C1A 5799  38.162   5.204   8.799
   73POPC   D2A 5800  38.423   4.977   8.448
   73POPC   C3A 5801  38.454   5.157   8.009
   73POPC   C4A 5802  38.343   4.933   7.601
   73POPC   C1B 5803  38.681   5.238   8.808
   73POPC   C2B 5804  38.825   5.325   8.402
   73POPC   C3B 5805  38.869   5.469   7.972
   73POPC   C4B 5806  38.761   5.247   7.583
   74POPC   NC3 5807   6.191  38.452   9.523
   74POPC   PO4 5808   6.845  38.424   9.651
   74POPC   GL1 5809   6.619  38.424   9.231
   74POPC   GL2 5810   6.367  38.148   9.136
   74POPC   C1A 5811   6.809  38.472   8.812
   74POPC   D2A 5812   6.932  38.562   8.382
   74POPC   C3A 5813   6.636  38.763   8.066
   74POPC   C4A 5814   6.709  38.589   7.642
   74POPC   C1B 5815   6.315  38.357   8.723
   74POPC   C2B 5816   6.396  38.346   8.263
   74POPC   C3B 5817   6.246  38.486   7.844
   74POPC   C4B 5818   6.278  38.514   7.376
   75POPC   NC3 5819  36.161  42.663   9.537
   75POPC   PO4 5820  36.466  42.090   9.700
   75POPC   GL1 5821  36.236  42.158   9.234
   75POPC   GL2 5822  36.221  42.464   9.091
   75POPC   C1A 5823  36.105  42.071   8.775
   75POPC   D2A 5824  36.294  42.036   8.338
   75POPC   C3A 5825  36.061  42.037   7.939
   75POPC   C4A 5826  36.190  42.212   7.512
   75POPC   C1B 5827  35.964  42.597   8.769
   75POPC   C2B 5828  35.998  42.475   8.332
   75POPC   C3B 5829  36.013  42.532   7.886
   75POPC   C4B 5830  35.705  42.349   7.582
   76POPC   NC3 5831  33.124  17.668   9.542
   76POPC   PO4 5832  33.103  16.990   9.581
   76POPC   GL1 5833  33.137  17.310   9.194
   76POPC   GL2 5834  32.866  17.509   9.137
   76POPC   C1A 5835  33.244  17.567   8.801
   76POPC   D2A 5836  33.416  17.550   8.391
   76POPC   C3A 5837  33.217  17.667   8.015
   76POPC   C4A 5838  33.472  17.539   7.685
   76POPC   C1B 5839  32.618  17.565   8.764
   76POPC   C2B 5840  32.860  17.576   8.418
   76POPC   C3B 5841  32.724  17.458   8.042
   76POPC   C4B 5842  32.586  17.682   7.734
   77POPC   NC3 5843  34.458  17.059   9.435
   77POPC   PO4 5844  34.572  17.707   9.518
   77POPC   GL1 5845  34.446  17.515   9.154
   77POPC   GL2 5846  34.694  17.290   9.032
   77POPC   C1A 5847  34.286  17.423   8.761
   77POPC   D2A 5848  34.419  17.548   8.400
   77POPC   C3A 5849  34.448  17.407   8.034
   77POPC   C4A 5850  34.447  17.452   7.630
   77POPC   C1B 5851  34.826  17.230   8.587
   77POPC   C2B 5852  34.883  17.132   8.129
   77POPC   C3B 5853  34.820  17.100   7.657
   77POPC   C4B 5854  34.999  16.992   7.234
   78POPC   NC3 5855   6.774  30.622   9.487
   78POPC   PO4 5856   6.184  30.865   9.443
   78POPC   GL1 5857   6.384  30.642   9.149
   78POPC   GL2 5858   6.602  30.926   9.132
   78POPC   C1A 5859   6.418  30.379   8.807
   78POPC   D2A 5860   6.649  30.450   8.408
   78POPC   C3A 5861   6.516  30.389   7.998
   78POPC   C4A 5862   6.668  30.576   7.586
   78POPC   C1B 5863   6.661  30.834   8.748
   78POPC   C2B 5864   6.574  30.996   8.382
   78POPC   C3B 5865   6.685  30.888   7.991
   78POPC   C4B 5866   6.685  31.165   7.636
   79POPC   NC3 5867  21.609  43.260   9.701
   79POPC   PO4 5868  20.980  43.166   9.459
   79POPC   GL1 5869  21.235  42.985   9.132
   79POPC   GL2 5870  21.563  42.942   9.291
   79POPC   C1A 5871  21.183  42.978   8.655
   79POPC   D2A 5872  21.204  42.807   8.219
   79POPC   C3A 5873  21.226  43.166   7.940
   79POPC   C4A 5874  21.588  43.431   7.902
   79POPC   C1B 5875  21.629  42.776   8.890
   79POPC   C2B 5876  21.676  42.785   8.446
   79POPC   C3B 5877  21.747  42.965   8.050
   79POPC   C4B 5878  21.513  42.816   7.718
   80POPC   NC3 5879  37.906  20.537   9.486
   80POPC   PO4 5880  37.799  20.029   9.279
   80POPC   GL1 5881  37.819  20.409   9.004
   80POPC   GL2 5882  38.086  20.686   9.032
   80POPC   C1A 5883  37.687  20.746   8.681
   80POPC   D2A 5884  37.563  20.838   8.230
   80POPC   C3A 5885  37.501  20.543   7.894
   80POPC   C4A 5886  37.234  20.613   7.508
   80POPC   C1B 5887  38.107  20.474   8.605
   80POPC   C2B 5888  37.937  20.430   8.189
   80POPC   C3B 5889  38.020  20.688   7.825
   80POPC   C4B 5890  38.059  20.869   7.378
   81POPC   NC3 5891   1.932  21.258   9.625
   81POPC   PO4 5892   1.729  21.927   9.421
   81POPC   GL1 5893   1.919  21.541   9.208
   81POPC   GL2 5894   2.293  21.446   9.241
   81POPC   C1A 5895   1.997  21.216   8.883
   81POPC   D2A 5896   2.027  21.355   8.459
   81POPC   C3A 5897   1.841  21.323   8.054
   81POPC   C4A 5898   1.644  21.613   7.777
   81POPC   C1B 5899   2.511  21.296   8.849
   81POPC   C2B 5900   2.576  21.109   8.439
   81POPC   C3B 5901   2.378  21.281   8.114
   81POPC   C4B 5902   2.263  21.387   7.729
   82POPC   NC3 5903  12.787  10.279   9.796
   82POPC   PO4 5904  12.505   9.816   9.331
   82POPC   GL1 5905  12.506  10.037   8.943
   82POPC   GL2 5906  12.187   9.990   8.825
   82POPC   C1A 5907  12.816   9.938   8.632
   82POPC   D2A 5908  12.964   9.596   8.382
   82POPC   C3A 5909  13.150   9.662   8.000
   82POPC   C4A 5910  12.994   9.838   7.621
   82POPC   C1B 5911  12.399   9.595   8.697
   82POPC   C2B 5912  12.480   9.674   8.276
   82POPC   C3B 5913  12.676   9.514   7.910
   82POPC   C4B 5914  12.446   9.196   7.784
   83POPC   NC3 5915  34.856  40.908   9.501
   83POPC   PO4 5916  34.280  40.610   9.465
   83POPC   GL1 5917  34.484  40.912   9.149
   83POPC   GL2 5918  34.853  40.985   8.999
   83POPC   C1A 5919  34.408  41.075   8.763
   83POPC   D2A 5920  34.478  40.985   8.323
   83POPC   C3A 5921  34.236  40.963   7.990
   83POPC   C4A 5922  34.297  40.756   7.616
   83POPC   C1B 5923  34.751  40.682   8.653
   83POPC   C2B 5924  34.739  40.577   8.208
   83POPC   C3B 5925  34.798  40.667   7.798
   83POPC   C4B 5926  34.821  40.499   7.400
   84POPC   NC3 5927   7.114  33.287   9.533
   84POPC   PO4 5928   7.177  33.862   9.617
   84POPC   GL1 5929   7.031  33.907   9.155
   84POPC   GL2 5930   6.849  33.617   9.072
   84POPC   C1A 5931   7.097  33.971   8.677
   84POPC   D2A 5932   7.072  33.789   8.243
   84POPC   C3A 5933   7.280  33.887   7.839
   84POPC   C4A 5934   7.657  33.689   7.647
   84POPC   C1B 5935   6.759  33.574   8.615
   84POPC   C2B 5936   6.883  33.335   8.213
   84POPC   C3B 5937   7.086  33.424   7.826
   84POPC   C4B 5938   7.328  33.357   7.441
   85POPC   NC3 5939   1.657  41.412   9.404
   85POPC   PO4 5940   2.252  41.622   9.356
   85POPC   GL1 5941   2.023  41.465   9.037
   85POPC   GL2 5942   2.027  41.109   9.061
   85POPC   C1A 5943   1.818  41.650   8.685
   85POPC   D2A 5944   1.994  41.672   8.277
   85POPC   C3A 5945   1.730  41.488   7.987
   85POPC   C4A 5946   1.791  41.745   7.669
   85POPC   C1B 5947   2.071  41.209   8.592
   85POPC   C2B 5948   2.152  41.183   8.135
   85POPC   C3B 5949   2.162  41.388   7.707
   85POPC   C4B 5950   2.223  41.202   7.256
   86POPC   NC3 5951  32.742  13.929   9.250
   86POPC   PO4 5952  33.226  13.581   9.486
   86POPC   GL1 5953  33.076  13.513   9.100
   86POPC   GL2 5954  33.227  13.842   9.042
   86POPC   C1A 5955  32.829  13.484   8.702
   86POPC   D2A 5956  32.962  13.396   8.270
   86POPC   C3A 5957  32.721  13.528   7.897
   86POPC   C4A 5958  32.703  13.968   7.767
   86POPC   C1B 5959  33.328  13.620   8.676
   86POPC   C2B 5960  33.443  13.754   8.295
   86POPC   C3B 5961  33.197  13.738   7.948
   86POPC   C4B 5962  33.180  13.301   7.817
   87POPC   NC3 5963  31.240  29.139   9.306
   87POPC   PO4 5964  31.679  29.663   9.439
   87POPC   GL1 5965  31.661  29.370   9.091
   87POPC   GL2 5966  31.699  29.020   9.036
   87POPC   C1A 5967  31.739  29.315   8.649
   87POPC   D2A 5968  31.640  29.086   8.299
   87POPC   C3A 5969  31.668  29.332   7.938
   87POPC   C4A 5970  31.410  29.291   7.605
   87POPC   C1B 5971  31.346  28.983   8.713
   87POPC   C2B 5972  31.123  28.952   8.354
   87POPC   C3B 5973  31.282  28.917   7.966
   87POPC   C4B 5974  31.058  28.797   7.664
   88POPC   NC3 5975  36.350   3.973   9.567
   88POPC   PO4 5976  36.294   4.690   9.511
   88POPC   GL1 5977  36.332   4.441   9.143
   88POPC   GL2 5978  36.054   4.591   9.032
   88POPC   C1A 5979  36.300   4.354   8.674
   88POPC   D2A 5980  36.138   4.478   8.284
   88POPC   C3A 5981  36.329   4.370   7.902
   88POPC   C4A 5982  36.051   4.072   7.703
   88POPC   C1B 5983  35.784   4.496   8.683
   88POPC   C2B 5984  35.656   4.631   8.261
   88POPC   C3B 5985  35.841   4.544   7.855
   88POPC   C4B 5986  35.642   4.305   7.513
   89POPC   NC3 5987   3.896  34.712   9.486
   89POPC   PO4 5988   4.555  34.440   9.455
   89POPC   GL1 5989   4.426  34.350   9.051
   89POPC   GL2 5990   4.245  34.641   9.070
   89POPC   C1A 5991   4.522  34.587   8.627
   89POPC   D2A 5992   4.713  34.419   8.229
   89POPC   C3A 5993   4.457  34.479   7.861
   89POPC   C4A 5994   4.322  34.922   7.889
   89POPC   C1B 5995   4.064  34.386   8.698
   89POPC   C2B 5996   4.109  34.431   8.240
   89POPC   C3B 5997   3.877  34.664   7.892
   89POPC   C4B 5998   3.805  35.100   7.788
   90POPC   NC3 5999  26.448  32.328   9.382
   90POPC   PO4 6000  25.707  32.249   9.475
   90POPC   GL1 6001  26.015  32.140   9.164
   90POPC   GL2 6002  26.331  31.961   9.069
   90POPC   C1A 6003  25.910  32.132   8.758
   90POPC   D2A 6004  25.799  32.491   8.520
   90POPC   C3A 6005  25.788  32.494   8.059
   90POPC   C4A 6006  25.621  32.172   7.789
   90POPC   C1B 6007  26.404  32.114   8.635
   90POPC   C2B 6008  26.099  32.123   8.281
   90POPC   C3B 6009  26.102  32.011   7.864
   90POPC   C4B 6010  26.427  32.029   7.555
   91POPC   NC3 6011  17.524   1.357   9.665
   91POPC   PO4 6012  17.208   0.832   9.604
   91POPC   GL1 6013  17.417   1.052   9.239
   91POPC   GL2 6014  17.345   1.387   9.188
   91POPC   C1A 6015  17.343   1.070   8.773
   91POPC   D2A 6016  17.332   0.888   8.338
   91POPC   C3A 6017  17.384   1.251   8.072
   91POPC   C4A 6018  17.230   1.338   7.674
   91POPC   C1B 6019  17.713   1.419   8.888
   91POPC   C2B 6020  17.883   1.479   8.480
   91POPC   C3B 6021  17.688   1.696   8.155
   91POPC   C4B 6022  17.673   1.588   7.730
   92POPC   NC3 6023  38.341   7.704   9.442
   92POPC   PO4 6024  38.411   7.070   9.633
   92POPC   GL1 6025  38.396   7.281   9.155
   92POPC   GL2 6026  38.631   7.582   9.036
   92POPC   C1A 6027  38.567   7.180   8.748
   92POPC   D2A 6028  38.432   7.073   8.351
   92POPC   C3A 6029  38.634   7.256   8.026
   92POPC   C4A 6030  38.367   7.270   7.696
   92POPC   C1B 6031  38.272   7.710   8.753
   92POPC   C2B 6032  38.174   7.790   8.309
   92POPC   C3B 6033  38.328   7.763   7.876
   92POPC   C4B 6034  38.728   7.635   7.680
   93POPC   NC3 6035  24.230  14.332   9.537
   93POPC   PO4 6036  24.672  14.925   9.465
   93POPC   GL1 6037  24.538  14.571   9.192
   93POPC   GL2 6038  24.193  14.700   9.140
   93POPC   C1A 6039  24.565  14.258   8.838
   93POPC   D2A 6040  24.770  14.362   8.452
   93POPC   C3A 6041  24.588  14.369   8.060
   93POPC   C4A 6042  24.866  14.111   7.825
   93POPC   C1B 6043  24.291  14.655   8.710
   93POPC   C2B 6044  24.218  14.278   8.426
   93POPC   C3B 6045  24.055  14.317   8.001
   93POPC   C4B 6046  24.168  14.683   7.737
   94POPC   NC3 6047   6.101   0.603   9.462
   94POPC   PO4 6048   5.715   0.036   9.369
   94POPC   GL1 6049   5.961   0.245   9.099
   94POPC   GL2 6050   5.729   0.533   9.096
   94POPC   C1A 6051   6.085   0.419   8.705
   94POPC   D2A 6052   5.890   0.550   8.316
   94POPC   C3A 6053   5.955   0.300   8.001
   94POPC   C4A 6054   6.166   0.407   7.656
   94POPC   C1B 6055   5.662   0.752   8.712
   94POPC   C2B 6056   5.340   0.827   8.384
   94POPC   C3B 6057   5.462   0.897   7.945
   94POPC   C4B 6058   5.691   0.617   7.691
   95POPC   NC3 6059  35.295  20.423   9.541
   95POPC   PO4 6060  35.191  21.122   9.420
   95POPC   GL1 6061  35.280  20.776   9.130
   95POPC   GL2 6062  35.037  20.489   9.093
   95POPC   C1A 6063  35.529  20.822   8.768
   95POPC   D2A 6064  35.567  21.006   8.389
   95POPC   C3A 6065  35.397  20.904   7.983
   95POPC   C4A 6066  35.551  20.661   7.656
   95POPC   C1B 6067  35.032  20.647   8.652
   95POPC   C2B 6068  35.012  20.646   8.185
   95POPC   C3B 6069  35.066  20.563   7.745
   95POPC   C4B 6070  35.118  20.827   7.375
   96POPC   NC3 6071  43.653  37.832   9.882
   96POPC   PO4 6072  44.082  37.364   9.621
   96POPC   GL1 6073  44.068  37.569   9.248
   96POPC   GL2 6074  43.898  37.879   9.401
   96POPC   C1A 6075  43.981  37.467   8.809
   96POPC   D2A 6076  44.061  37.572   8.387
   96POPC   C3A 6077  43.924  37.506   7.978
   96POPC   C4A 6078  43.746  37.633   7.648
   96POPC   C1B 6079  43.984  38.003   8.971
   96POPC   C2B 6080  43.994  38.075   8.534
   96POPC   C3B 6081  43.751  37.922   8.178
   96POPC   C4B 6082  43.994  38.025   7.808
   97POPC   NC3 6083  40.963   5.468   9.537
   97POPC   PO4 6084  40.725   4.867   9.335
   97POPC   GL1 6085  40.814   5.171   9.109
   97POPC   GL2 6086  41.149   5.160   9.154
   97POPC   C1A 6087  40.668   5.102   8.709
   97POPC   D2A 6088  40.678   4.716   8.514
   97POPC   C3A 6089  40.755   4.822   8.130
   97POPC   C4A 6090  40.716   4.686   7.732
   97POPC   C1B 6091  41.113   4.899   8.777
   97POPC   C2B 6092  41.123   5.138   8.426
   97POPC   C3B 6093  41.106   5.297   8.052
   97POPC   C4B 6094  40.808   5.217   7.783
   98POPC   NC3 6095  35.171  22.692   9.587
   98POPC   PO4 6096  35.581  23.267   9.448
   98POPC   GL1 6097  35.447  22.995   9.135
   98POPC   GL2 6098  35.128  22.881   9.144
   98POPC   C1A 6099  35.283  23.079   8.720
   98POPC   D2A 6100  35.424  22.954   8.357
   98POPC   C3A 6101  35.257  23.115   8.022
   98POPC   C4A 6102  35.332  23.279   7.667
   98POPC   C1B 6103  34.871  22.735   8.828
   98POPC   C2B 6104  34.917  22.881   8.404
   98POPC   C3B 6105  35.067  22.643   8.055
   98POPC   C4B 6106  35.177  22.612   7.616
   99POPC   NC3 6107   8.873  12.875   9.655
   99POPC   PO4 6108   8.403  13.252   9.454
   99POPC   GL1 6109   8.663  12.885   9.193
   99POPC   GL2 6110   9.051  12.940   9.183
   99POPC   C1A 6111   8.888  12.658   8.817
   99POPC   D2A 6112   9.171  12.791   8.437
   99POPC   C3A 6113   9.018  12.708   8.007
   99POPC   C4A 6114   8.734  12.522   7.723
   99POPC   C1B 6115   9.003  13.158   8.822
   99POPC   C2B 6116   8.888  13.297   8.437
   99POPC   C3B 6117   9.037  13.207   8.064
   99POPC   C4B 6118   8.785  13.192   7.727
  100POPC   NC3 6119  30.202  40.419   9.639
  100POPC   PO4 6120  29.608  39.998   9.582
  100POPC   GL1 6121  29.828  40.110   9.202
  100POPC   GL2 6122  30.174  40.119   9.223
  100POPC   C1A 6123  29.834  40.261   8.772
  100POPC   D2A 6124  29.728  40.304   8.334
  100POPC   C3A 6125  29.987  40.129   8.028
  100POPC   C4A 6126  30.233  39.984   7.695
  100POPC   C1B 6127  30.193  39.870   8.833
  100POPC   C2B 6128  29.972  39.806   8.456
  100POPC   C3B 6129  30.102  39.621   8.057
  100POPC   C4B 6130  29.859  39.635   7.695
  101POPC   NC3 6131  44.391   1.509   9.533
  101POPC   PO4 6132  44.026   0.957   9.321
  101POPC   GL1 6133  43.648   1.161   9.156
  101POPC   GL2 6134  43.677   1.557   9.204
  101POPC   C1A 6135  43.578   0.966   8.752
  101POPC   D2A 6136  43.890   0.894   8.423
  101POPC   C3A 6137  43.792   0.991   7.992
  101POPC   C4A 6138  44.132   1.028   7.706
  101POPC   C1B 6139  43.636   1.491   8.760
  101POPC   C2B 6140  43.565   1.323   8.344
  101POPC   C3B 6141  43.683   1.495   7.951
  101POPC   C4B 6142  43.878   1.446   7.562
  102POPC   NC3 6143   3.804  17.366   9.457
  102POPC   PO4 6144   3.746  18.010   9.176
  102POPC   GL1 6145   3.372  17.785   9.113
  102POPC   GL2 6146   3.291  17.429   9.112
  102POPC   C1A 6147   3.423  17.620   8.676
  102POPC   D2A 6148   3.766  17.554   8.412
  102POPC   C3A 6149   3.639  17.741   8.058
  102POPC   C4A 6150   3.367  17.652   7.703
  102POPC   C1B 6151   3.395  17.116   8.758
  102POPC   C2B 6152   3.620  17.064   8.362
  102POPC   C3B 6153   3.493  17.229   7.959
  102POPC   C4B 6154   3.251  17.169   7.565
  103POPC   NC3 6155  36.981  42.621   9.364
  103POPC   PO4 6156  36.708  42.086   9.106
  103POPC   GL1 6157  37.084  42.258   8.962
  103POPC   GL2 6158  37.248  42.602   8.928
  103POPC   C1A 6159  37.078  42.225   8.524
  103POPC   D2A 6160  36.933  42.066   8.151
  103POPC   C3A 6161  36.683  42.284   7.878
  103POPC   C4A 6162  36.685  42.126   7.472
  103POPC   C1B 6163  36.853  42.675   8.703
  103POPC   C2B 6164  36.828  42.641   8.263
  103POPC   C3B 6165  37.153  42.558   8.000
  103POPC   C4B 6166  37.116  42.364   7.593
  104POPC   NC3 6167  41.875  43.044   9.488
  104POPC   PO4 6168  41.402  43.617   9.579
  104POPC   GL1 6169  41.458  43.276   9.265
  104POPC   GL2 6170  41.199  43.242   9.061
  104POPC   C1A 6171  41.645  43.075   8.863
  104POPC   D2A 6172  41.626  42.843   8.463
  104POPC   C3A 6173  41.740  43.057   8.074
  104POPC   C4A 6174  41.685  42.810   7.740
  104POPC   C1B 6175  41.374  43.503   8.776
  104POPC   C2B 6176  41.373  43.312   8.408
  104POPC   C3B 6177  41.237  43.066   8.070
  104POPC   C4B 6178  41.393  43.213   7.664
  105POPC   NC3 6179  30.494  23.535   9.750
  105POPC   PO4 6180  29.893  23.492   9.440
  105POPC   GL1 6181  29.915  23.581   9.036
  105POPC   GL2 6182  30.247  23.749   9.101
  105POPC   C1A 6183  29.804  23.811   8.667
  105POPC   D2A 6184  29.914  24.112   8.401
  105POPC   C3A 6185  29.930  23.888   8.048
  105POPC   C4A 6186  29.928  23.669   7.682
  105POPC   C1B 6187  30.280  23.594   8.671
  105POPC   C2B 6188  30.222  23.519   8.235
  105POPC   C3B 6189  30.395  23.775   7.897
  105POPC   C4B 6190  30.381  23.717   7.418
  106POPC   NC3 6191  35.641  19.719  10.161
  106POPC   PO4 6192  35.273  19.977   9.712
  106POPC   GL1 6193  35.269  19.805   9.280
  106POPC   GL2 6194  35.348  20.097   9.163
  106POPC   C1A 6195  35.441  19.786   8.792
  106POPC   D2A 6196  35.675  19.961   8.401
  106POPC   C3A 6197  35.531  19.777   7.982
  106POPC   C4A 6198  35.135  19.594   7.793
  106POPC   C1B 6199  35.481  20.322   8.810
  106POPC   C2B 6200  35.377  20.380   8.390
  106POPC   C3B 6201  35.601  20.314   8.022
  106POPC   C4B 6202  35.590  20.145   7.625
  107POPC   NC3 6203  18.478  24.921   9.708
  107POPC   PO4 6204  17.974  25.386   9.580
  107POPC   GL1 6205  18.174  25.113   9.293
  107POPC   GL2 6206  18.451  25.325   9.320
  107POPC   C1A 6207  18.131  25.041   8.816
  107POPC   D2A 6208  18.348  25.120   8.411
  107POPC   C3A 6209  18.153  25.403   8.106
  107POPC   C4A 6210  17.950  25.182   7.798
  107POPC   C1B 6211  18.278  25.504   8.937
  107POPC   C2B 6212  18.479  25.589   8.509
  107POPC   C3B 6213  18.656  25.503   8.078
  107POPC   C4B 6214  18.651  25.718   7.651
  108POPC   NC3 6215   3.262  19.925   9.417
  108POPC   PO4 6216   2.705  19.629   9.424
  108POPC   GL1 6217   2.912  19.639   9.074
  108POPC   GL2 6218   2.917  19.988   9.041
  108POPC   C1A 6219   2.732  19.699   8.651
  108POPC   D2A 6220   2.926  19.758   8.256
  108POPC   C3A 6221   2.714  19.679   7.845
  108POPC   C4A 6222   2.519  19.566   7.392
  108POPC   C1B 6223   3.021  20.147   8.641
  108POPC   C2B 6224   3.179  20.223   8.229
  108POPC   C3B 6225   3.164  19.937   7.844
  108POPC   C4B 6226   2.974  19.814   7.428
  109POPC   NC3 6227  24.898  16.763   9.549
  109POPC   PO4 6228  25.557  16.649   9.514
  109POPC   GL1 6229  25.308  16.838   9.230
  109POPC   GL2 6230  25.433  16.626   9.013
  109POPC   C1A 6231  24.983  16.790   8.894
  109POPC   D2A 6232  25.237  16.767   8.497
  109POPC   C3A 6233  25.091  16.964   8.119
  109POPC   C4A 6234  25.024  16.847   7.703
  109POPC   C1B 6235  25.663  16.404   8.746
  109POPC   C2B 6236  25.475  16.323   8.363
  109POPC   C3B 6237  25.673  16.249   7.971
  109POPC   C4B 6238  25.643  16.351   7.514
  110POPC   NC3 6239  28.258   3.511   9.764
  110POPC   PO4 6240  28.796   3.136   9.561
  110POPC   GL1 6241  28.527   3.475   9.331
  110POPC   GL2 6242  28.456   3.839   9.274
  110POPC   C1A 6243  28.172   3.487   8.996
  110POPC   D2A 6244  28.177   3.664   8.553
  110POPC   C3A 6245  28.178   3.694   8.101
  110POPC   C4A 6246  28.200   3.824   7.664
  110POPC   C1B 6247  28.624   3.661   8.852
  110POPC   C2B 6248  28.668   3.743   8.381
  110POPC   C3B 6249  28.612   3.934   7.951
  110POPC   C4B 6250  28.683   3.870   7.496
  111POPC   NC3 6251  11.272  28.595   9.672
  111POPC   PO4 6252  10.889  28.105   9.322
  111POPC   GL1 6253  11.191  28.397   9.184
  111POPC   GL2 6254  11.022  28.677   9.210
  111POPC   C1A 6255  11.323  28.262   8.784
  111POPC   D2A 6256  11.088  28.132   8.407
  111POPC   C3A 6257  11.332  28.256   8.036
  111POPC   C4A 6258  11.208  28.299   7.645
  111POPC   C1B 6259  11.158  28.756   8.787
  111POPC   C2B 6260  11.278  28.612   8.396
  111POPC   C3B 6261  11.210  28.817   8.001
  111POPC   C4B 6262  11.392  28.762   7.605
  112POPC   NC3 6263  44.254  16.868   9.692
  112POPC   PO4 6264  43.696  16.660   9.553
  112POPC   GL1 6265  44.037  16.776   9.232
  112POPC   GL2 6266  44.146  16.502   9.003
  112POPC   C1A 6267  44.000  16.952   8.821
  112POPC   D2A 6268  43.774  16.872   8.436
  112POPC   C3A 6269  43.976  16.789   8.025
  112POPC   C4A 6270  43.769  16.658   7.645
  112POPC   C1B 6271  43.741  16.493   8.829
  112POPC   C2B 6272  43.663  16.380   8.372
  112POPC   C3B 6273  44.003  16.273   8.102
  112POPC   C4B 6274  44.032  16.204   7.695
  113POPC   NC3 6275  38.449  22.140   9.545
  113POPC   PO4 6276  38.210  22.705   9.360
  113POPC   GL1 6277  38.387  22.434   9.046
  113POPC   GL2 6278  38.439  22.072   9.052
  113POPC   C1A 6279  38.237  22.321   8.618
  113POPC   D2A 6280  38.253  22.498   8.181
  113POPC   C3A 6281  38.590  22.367   7.891
  113POPC   C4A 6282  38.628  22.393   7.463
  113POPC   C1B 6283  38.154  21.809   8.829
  113POPC   C2B 6284  38.064  21.853   8.389
  113POPC   C3B 6285  38.266  21.995   7.992
  113POPC   C4B 6286  38.430  21.936   7.580
  114POPC   NC3 6287   3.003  16.980   9.373
  114POPC   PO4 6288   2.746  16.432   9.529
  114POPC   GL1 6289   2.658  16.668   9.143
  114POPC   GL2 6290   2.344  16.482   9.100
  114POPC   C1A 6291   2.844  16.915   8.751
  114POPC   D2A 6292   3.107  16.917   8.337
  114POPC   C3A 6293   2.949  16.819   7.879
  114POPC   C4A 6294   2.928  16.812   7.377
  114POPC   C1B 6295   2.388  16.689   8.723
  114POPC   C2B 6296   2.630  16.699   8.345
  114POPC   C3B 6297   2.564  16.493   7.980
  114POPC   C4B 6298   2.505  16.677   7.620
  115POPC   NC3 6299  30.387  35.252   9.322
  115POPC   PO4 6300  30.858  35.562   9.660
  115POPC   GL1 6301  30.837  35.554   9.171
  115POPC   GL2 6302  30.945  35.289   8.946
  115POPC   C1A 6303  30.590  35.571   8.751
  115POPC   D2A 6304  30.368  35.402   8.402
  115POPC   C3A 6305  30.578  35.488   8.019
  115POPC   C4A 6306  30.698  35.430   7.590
  115POPC   C1B 6307  30.647  35.055   8.712
  115POPC   C2B 6308  30.795  35.077   8.289
  115POPC   C3B 6309  30.792  35.007   7.863
  115POPC   C4B 6310  30.495  34.928   7.536
  116POPC   NC3 6311  42.183  27.546   9.511
  116POPC   PO4 6312  42.870  27.549   9.510
  116POPC   GL1 6313  42.526  27.410   9.162
  116POPC   GL2 6314  42.325  27.701   9.031
  116POPC   C1A 6315  42.354  27.243   8.770
  116POPC   D2A 6316  42.259  27.469   8.436
  116POPC   C3A 6317  42.314  27.306   7.990
  116POPC   C4A 6318  42.140  27.430   7.569
  116POPC   C1B 6319  42.425  27.972   8.668
  116POPC   C2B 6320  42.557  27.817   8.253
  116POPC   C3B 6321  42.554  27.730   7.839
  116POPC   C4B 6322  42.490  27.745   7.418
  117POPC   NC3 6323  43.595  28.644   9.206
  117POPC   PO4 6324  43.795  29.156   9.548
  117POPC   GL1 6325  43.828  29.300   9.142
  117POPC   GL2 6326  43.935  28.985   9.046
  117POPC   C1A 6327  43.729  29.529   8.767
  117POPC   D2A 6328  43.803  29.334   8.378
  117POPC   C3A 6329  43.702  29.512   8.000
  117POPC   C4A 6330  43.765  29.350   7.598
  117POPC   C1B 6331  44.153  29.091   8.716
  117POPC   C2B 6332  44.089  28.883   8.345
  117POPC   C3B 6333  44.030  29.086   7.973
  117POPC   C4B 6334  44.226  29.114   7.600
  118POPC   NC3 6335  32.944  31.720   9.593
  118POPC   PO4 6336  32.737  31.107   9.528
  118POPC   GL1 6337  32.923  31.325   9.184
  118POPC   GL2 6338  33.000  31.697   9.106
  118POPC   C1A 6339  32.918  31.335   8.751
  118POPC   D2A 6340  32.991  31.586   8.406
  118POPC   C3A 6341  32.845  31.510   7.998
  118POPC   C4A 6342  33.168  31.355   7.728
  118POPC   C1B 6343  33.323  31.681   8.811
  118POPC   C2B 6344  33.416  31.862   8.421
  118POPC   C3B 6345  33.311  31.758   8.020
  118POPC   C4B 6346  33.284  31.881   7.605
  119POPC   NC3 6347   9.300  43.978   9.963
  119POPC   PO4 6348   8.826  43.899   9.552
  119POPC   GL1 6349   8.745  43.802   9.113
  119POPC   GL2 6350   8.652  44.101   8.983
  119POPC   C1A 6351   8.874  43.615   8.715
  119POPC   D2A 6352   9.180  43.787   8.408
  119POPC   C3A 6353   9.156  43.707   7.948
  119POPC   C4A 6354   9.250  43.910   7.550
  119POPC   C1B 6355   8.747  44.070   8.544
  119POPC   C2B 6356   8.689  43.797   8.183
  119POPC   C3B 6357   8.749  44.012   7.780
  119POPC   C4B 6358   8.527  44.200   7.445
  120POPC   NC3 6359   6.845  13.844   9.405
  120POPC   PO4 6360   6.250  13.516   9.453
  120POPC   GL1 6361   6.463  13.641   9.098
  120POPC   GL2 6362   6.328  13.968   9.108
  120POPC   C1A 6363   6.820  13.540   8.825
  120POPC   D2A 6364   7.012  13.510   8.446
  120POPC   C3A 6365   6.739  13.432   8.108
  120POPC   C4A 6366   6.807  13.510   7.686
  120POPC   C1B 6367   6.612  14.010   8.752
  120POPC   C2B 6368   6.660  13.881   8.324
  120POPC   C3B 6369   6.793  13.995   7.873
  120POPC   C4B 6370   6.713  13.953   7.392
  121POPC   NC3 6371  21.832  41.282   9.357
  121POPC   PO4 6372  22.277  41.773   9.346
  121POPC   GL1 6373  22.283  41.555   8.982
  121POPC   GL2 6374  22.236  41.216   9.024
  121POPC   C1A 6375  22.353  41.553   8.549
  121POPC   D2A 6376  22.469  41.394   8.136
  121POPC   C3A 6377  22.226  41.591   7.823
  121POPC   C4A 6378  22.106  41.788   7.434
  121POPC   C1B 6379  22.408  41.047   8.654
  121POPC   C2B 6380  22.100  41.134   8.339
  121POPC   C3B 6381  22.085  41.096   7.897
  121POPC   C4B 6382  21.874  41.100   7.501
  122POPC   NC3 6383  41.234  36.635   9.579
  122POPC   PO4 6384  41.559  37.189   9.619
  122POPC   GL1 6385  41.483  36.980   9.268
  122POPC   GL2 6386  41.764  36.771   9.222
  122POPC   C1A 6387  41.335  36.866   8.886
  122POPC   D2A 6388  41.299  37.119   8.520
  122POPC   C3A 6389  41.283  36.881   8.130
  122POPC   C4A 6390  41.348  37.093   7.767
  122POPC   C1B 6391  41.804  36.669   8.782
  122POPC   C2B 6392  41.725  36.840   8.392
  122POPC   C3B 6393  41.793  36.993   7.989
  122POPC   C4B 6394  41.736  36.804   7.554
  123POPC   NC3 6395  15.969   5.278   9.584
  123POPC   PO4 6396  15.898   4.685   9.578
  123POPC   GL1 6397  15.789   4.902   9.199
  123POPC   GL2 6398  15.735   5.249   9.129
  123POPC   C1A 6399  15.970   4.980   8.788
  123POPC   D2A 6400  15.816   4.963   8.383
  123POPC   C3A 6401  16.146   5.072   8.094
  123POPC   C4A 6402  16.097   4.990   7.675
  123POPC   C1B 6403  15.598   5.532   8.794
  123POPC   C2B 6404  15.570   5.411   8.356
  123POPC   C3B 6405  15.739   5.373   7.947
  123POPC   C4B 6406  16.031   5.660   7.734
  124POPC   NC3 6407  44.521  34.558   9.662
  124POPC   PO4 6408   0.074  34.764   9.368
  124POPC   GL1 6409  44.719  34.675   9.089
  124POPC   GL2 6410  44.460  34.455   9.165
  124POPC   C1A 6411  44.723  34.558   8.658
  124POPC   D2A 6412  44.667  34.716   8.236
  124POPC   C3A 6413  44.834  34.485   7.909
  124POPC   C4A 6414  44.782  34.503   7.478
  124POPC   C1B 6415  44.371  34.204   8.814
  124POPC   C2B 6416  44.358  34.310   8.374
  124POPC   C3B 6417  44.436  34.176   7.937
  124POPC   C4B 6418  44.423  34.163   7.490
  125POPC   NC3 6419  41.674   6.399   9.379
  125POPC   PO4 6420  41.389   6.918   9.258
  125POPC   GL1 6421  41.430   6.578   8.974
  125POPC   GL2 6422  41.188   6.329   8.986
  125POPC   C1A 6423  41.749   6.464   8.664
  125POPC   D2A 6424  41.832   6.630   8.240
  125POPC   C3A 6425  41.524   6.615   7.911
  125POPC   C4A 6426  41.491   6.796   7.464
  125POPC   C1B 6427  41.270   6.322   8.549
  125POPC   C2B 6428  41.593   6.152   8.276
  125POPC   C3B 6429  41.820   6.157   7.892
  125POPC   C4B 6430  41.569   6.291   7.525
  126POPC   NC3 6431   2.530   8.592   9.437
  126POPC   PO4 6432   2.745   7.917   9.421
  126POPC   GL1 6433   2.816   8.228   9.083
  126POPC   GL2 6434   3.142   8.383   9.001
  126POPC   C1A 6435   2.927   8.062   8.665
  126POPC   D2A 6436   2.767   8.209   8.305
  126POPC   C3A 6437   2.661   7.971   7.973
  126POPC   C4A 6438   2.634   8.181   7.581
  126POPC   C1B 6439   3.074   8.556   8.611
  126POPC   C2B 6440   3.212   8.408   8.208
  126POPC   C3B 6441   3.080   8.202   7.823
  126POPC   C4B 6442   3.074   8.163   7.348
  127POPC   NC3 6443  18.782  23.723   9.509
  127POPC   PO4 6444  18.143  23.729   9.403
  127POPC   GL1 6445  18.508  23.706   9.084
  127POPC   GL2 6446  18.762  23.412   9.078
  127POPC   C1A 6447  18.477  23.765   8.659
  127POPC   D2A 6448  18.457  23.580   8.256
  127POPC   C3A 6449  18.446  23.798   7.880
  127POPC   C4A 6450  18.064  23.714   7.669
  127POPC   C1B 6451  18.667  23.285   8.626
  127POPC   C2B 6452  18.531  23.070   8.215
  127POPC   C3B 6453  18.371  23.222   7.789
  127POPC   C4B 6454  18.391  23.410   7.360
  128POPC   NC3 6455  11.563   5.266   9.940
  128POPC   PO4 6456  11.184   5.033   9.442
  128POPC   GL1 6457  11.024   5.143   9.001
  128POPC   GL2 6458  11.331   5.333   8.890
  128POPC   C1A 6459  11.014   5.226   8.513
  128POPC   D2A 6460  11.414   5.348   8.383
  128POPC   C3A 6461  11.378   5.429   8.001
  128POPC   C4A 6462  11.144   5.349   7.702
  128POPC   C1B 6463  11.365   4.906   8.661
  128POPC   C2B 6464  11.233   4.862   8.200
  128POPC   C3B 6465  11.488   4.962   7.815
  128POPC   C4B 6466  11.477   4.836   7.368
  129POPC   NC3 6467  12.339   9.293   9.539
  129POPC   PO4 6468  11.828   8.851   9.475
  129POPC   GL1 6469  11.904   9.108   9.179
  129POPC   GL2 6470  12.215   8.988   9.143
  129POPC   C1A 6471  11.916   9.078   8.752
  129POPC   D2A 6472  12.178   8.999   8.405
  129POPC   C3A 6473  12.034   8.901   7.997
  129POPC   C4A 6474  11.953   9.241   7.696
  129POPC   C1B 6475  12.182   8.638   8.835
  129POPC   C2B 6476  12.168   8.471   8.403
  129POPC   C3B 6477  12.447   8.468   8.047
  129POPC   C4B 6478  12.387   8.692   7.687
  130POPC   NC3 6479  10.371  13.861   9.420
  130POPC   PO4 6480  10.697  13.220   9.396
  130POPC   GL1 6481  10.517  13.495   9.120
  130POPC   GL2 6482  10.716  13.776   9.044
  130POPC   C1A 6483  10.203  13.563   8.795
  130POPC   D2A 6484  10.109  13.398   8.378
  130POPC   C3A 6485  10.345  13.580   8.042
  130POPC   C4A 6486  10.418  13.848   7.699
  130POPC   C1B 6487  10.700  13.494   8.665
  130POPC   C2B 6488  10.798  13.707   8.335
  130POPC   C3B 6489  10.832  13.896   7.979
  130POPC   C4B 6490  10.828  13.495   7.813
  131POPC   NC3 6491  30.783  26.800   9.585
  131POPC   PO4 6492  30.097  26.708   9.538
  131POPC   GL1 6493  30.434  26.770   9.152
  131POPC   GL2 6494  30.826  26.915   9.113
  131POPC   C1A 6495  30.659  26.606   8.769
  131POPC   D2A 6496  30.807  26.681   8.389
  131POPC   C3A 6497  30.521  26.524   8.108
  131POPC   C4A 6498  30.494  26.676   7.697
  131POPC   C1B 6499  30.822  27.126   8.732
  131POPC   C2B 6500  30.819  27.247   8.312
  131POPC   C3B 6501  30.811  26.975   7.968
  131POPC   C4B 6502  30.885  26.995   7.540
  132POPC   NC3 6503  37.948  24.339   9.472
  132POPC   PO4 6504  37.381  24.771   9.256
  132POPC   GL1 6505  37.682  24.547   9.080
  132POPC   GL2 6506  37.989  24.700   9.114
  132POPC   C1A 6507  37.823  24.398   8.695
  132POPC   D2A 6508  37.699  24.498   8.273
  132POPC   C3A 6509  37.952  24.322   7.964
  132POPC   C4A 6510  37.752  24.392   7.597
  132POPC   C1B 6511  38.129  24.839   8.738
  132POPC   C2B 6512  38.107  24.793   8.300
  132POPC   C3B 6513  37.885  24.825   7.891
  132POPC   C4B 6514  37.905  24.830   7.400
  133POPC   NC3 6515  40.374  14.376   9.602
  133POPC   PO4 6516  41.042  14.395   9.502
  133POPC   GL1 6517  40.916  14.097   9.176
  133POPC   GL2 6518  40.582  14.191   9.177
  133POPC   C1A 6519  41.021  13.984   8.746
  133POPC   D2A 6520  40.972  14.010   8.278
  133POPC   C3A 6521  41.001  14.402   8.027
  133POPC   C4A 6522  41.030  14.850   7.903
  133POPC   C1B 6523  40.489  14.342   8.778
  133POPC   C2B 6524  40.359  14.292   8.341
  133POPC   C3B 6525  40.480  14.325   7.915
  133POPC   C4B 6526  40.538  14.335   7.495
  134POPC   NC3 6527  28.103  41.772   9.457
  134POPC   PO4 6528  28.492  41.270   9.683
  134POPC   GL1 6529  28.426  41.348   9.238
  134POPC   GL2 6530  28.603  41.644   9.164
  134POPC   C1A 6531  28.273  41.311   8.791
  134POPC   D2A 6532  28.479  41.242   8.383
  134POPC   C3A 6533  28.298  41.510   8.107
  134POPC   C4A 6534  28.149  41.456   7.725
  134POPC   C1B 6535  28.754  41.460   8.770
  134POPC   C2B 6536  28.789  41.636   8.377
  134POPC   C3B 6537  28.787  41.570   7.951
  134POPC   C4B 6538  28.528  41.797   7.691
  135POPC   NC3 6539  17.662  31.583   9.664
  135POPC   PO4 6540  17.317  30.998   9.726
  135POPC   GL1 6541  17.495  31.271   9.289
  135POPC   GL2 6542  17.436  31.653   9.178
  135POPC   C1A 6543  17.657  31.374   8.815
  135POPC   D2A 6544  17.431  31.364   8.358
  135POPC   C3A 6545  17.652  31.315   7.967
  135POPC   C4A 6546  17.711  31.093   7.592
  135POPC   C1B 6547  17.456  31.847   8.727
  135POPC   C2B 6548  17.763  31.745   8.354
  135POPC   C3B 6549  17.819  31.770   7.878
  135POPC   C4B 6550  17.474  31.709   7.613
  136POPC   NC3 6551  17.971   3.217   9.365
  136POPC   PO4 6552  18.604   3.347   9.483
  136POPC   GL1 6553  18.392   3.395   9.076
  136POPC   GL2 6554  18.269   3.723   8.900
  136POPC   C1A 6555  18.564   3.246   8.720
  136POPC   D2A 6556  18.585   3.346   8.320
  136POPC   C3A 6557  18.311   3.630   8.185
  136POPC   C4A 6558  18.236   3.774   7.764
  136POPC   C1B 6559  18.078   3.382   8.652
  136POPC   C2B 6560  18.055   3.164   8.231
  136POPC   C3B 6561  18.068   3.294   7.782
  136POPC   C4B 6562  17.760   3.439   7.439
  137POPC   NC3 6563  13.956   8.643   9.589
  137POPC   PO4 6564  13.467   9.152   9.454
  137POPC   GL1 6565  13.528   8.857   9.083
  137POPC   GL2 6566  13.869   8.743   9.108
  137POPC   C1A 6567  13.524   9.017   8.649
  137POPC   D2A 6568  13.790   9.141   8.317
  137POPC   C3A 6569  13.618   9.298   7.967
  137POPC   C4A 6570  13.673   9.167   7.565
  137POPC   C1B 6571  14.024   8.914   8.741
  137POPC   C2B 6572  14.095   8.747   8.341
  137POPC   C3B 6573  13.877   8.822   7.884
  137POPC   C4B 6574  13.737   8.685   7.419
  138POPC   NC3 6575  27.004   4.713   9.510
  138POPC   PO4 6576  26.567   4.201   9.498
  138POPC   GL1 6577  26.699   4.217   9.079
  138POPC   GL2 6578  27.028   4.328   9.139
  138POPC   C1A 6579  26.784   4.308   8.648
  138POPC   D2A 6580  26.798   4.201   8.249
  138POPC   C3A 6581  26.495   4.206   7.916
  138POPC   C4A 6582  26.836   4.238   7.651
  138POPC   C1B 6583  27.216   4.544   8.780
  138POPC   C2B 6584  27.140   4.611   8.323
  138POPC   C3B 6585  27.224   4.510   7.885
  138POPC   C4B 6586  27.207   4.526   7.438
  139POPC   NC3 6587  39.593   1.220   9.620
  139POPC   PO4 6588  39.059   0.821   9.618
  139POPC   GL1 6589  39.206   1.023   9.238
  139POPC   GL2 6590  39.568   1.052   9.163
  139POPC   C1A 6591  39.146   1.335   8.887
  139POPC   D2A 6592  39.002   1.456   8.462
  139POPC   C3A 6593  39.157   1.485   8.034
  139POPC   C4A 6594  39.178   1.583   7.548
  139POPC   C1B 6595  39.443   0.948   8.767
  139POPC   C2B 6596  39.135   0.963   8.401
  139POPC   C3B 6597  39.165   0.920   7.923
  139POPC   C4B 6598  39.550   0.737   7.712
  140POPC   NC3 6599  36.651   6.054   9.480
  140POPC   PO4 6600  36.831   5.435   9.493
  140POPC   GL1 6601  36.828   5.592   9.050
  140POPC   GL2 6602  36.717   5.897   8.994
  140POPC   C1A 6603  36.951   5.680   8.605
  140POPC   D2A 6604  37.266   5.622   8.277
  140POPC   C3A 6605  36.970   5.768   8.001
  140POPC   C4A 6606  36.526   5.751   7.846
  140POPC   C1B 6607  36.605   6.134   8.667
  140POPC   C2B 6608  36.783   6.217   8.272
  140POPC   C3B 6609  36.784   6.223   7.864
  140POPC   C4B 6610  36.530   6.186   7.545
  141POPC   NC3 6611  19.380  31.410   9.318
  141POPC   PO4 6612  18.770  31.717   9.535
  141POPC   GL1 6613  18.969  31.657   9.101
  141POPC   GL2 6614  19.078  31.311   8.880
  141POPC   C1A 6615  19.167  31.751   8.685
  141POPC   D2A 6616  19.082  31.503   8.303
  141POPC   C3A 6617  19.218  31.639   7.890
  141POPC   C4A 6618  19.399  31.723   7.462
  141POPC   C1B 6619  18.816  31.117   8.556
  141POPC   C2B 6620  18.414  31.083   8.439
  141POPC   C3B 6621  18.446  31.062   8.018
  141POPC   C4B 6622  18.878  31.155   7.889
  142POPC   NC3 6623   6.028  43.561   9.283
  142POPC   PO4 6624   5.903  42.908   9.603
  142POPC   GL1 6625   5.963  43.077   9.203
  142POPC   GL2 6626   6.298  42.946   9.140
  142POPC   C1A 6627   5.749  43.295   8.808
  142POPC   D2A 6628   5.979  43.375   8.443
  142POPC   C3A 6629   5.794  43.290   8.067
  142POPC   C4A 6630   5.835  43.450   7.661
  142POPC   C1B 6631   6.130  42.968   8.735
  142POPC   C2B 6632   6.054  42.797   8.351
  142POPC   C3B 6633   6.131  42.922   7.940
  142POPC   C4B 6634   5.940  42.917   7.562
  143POPC   NC3 6635  31.796  16.972   9.526
  143POPC   PO4 6636  31.216  16.766   9.496
  143POPC   GL1 6637  31.465  16.769   9.128
  143POPC   GL2 6638  31.706  16.541   9.236
  143POPC   C1A 6639  31.444  16.745   8.679
  143POPC   D2A 6640  31.191  16.840   8.355
  143POPC   C3A 6641  31.464  16.698   8.051
  143POPC   C4A 6642  31.313  16.793   7.647
  143POPC   C1B 6643  31.800  16.446   8.838
  143POPC   C2B 6644  31.919  16.609   8.448
  143POPC   C3B 6645  31.906  16.420   8.019
  143POPC   C4B 6646  31.655  16.412   7.653
  144POPC   NC3 6647   0.266   6.024   9.537
  144POPC   PO4 6648   0.670   5.558   9.418
  144POPC   GL1 6649   0.464   5.804   9.092
  144POPC   GL2 6650   0.062   5.809   9.132
  144POPC   C1A 6651   0.682   5.788   8.682
  144POPC   D2A 6652   0.885   5.894   8.263
  144POPC   C3A 6653   0.633   5.883   7.861
  144POPC   C4A 6654   0.805   5.633   7.507
  144POPC   C1B 6655   0.096   5.955   8.748
  144POPC   C2B 6656   0.297   5.907   8.359
  144POPC   C3B 6657   0.158   5.715   8.024
  144POPC   C4B 6658   0.071   5.943   7.661
  145POPC   NC3 6659  10.922  17.790   9.492
  145POPC   PO4 6660  11.332  17.252   9.414
  145POPC   GL1 6661  11.114  17.458   9.097
  145POPC   GL2 6662  11.240  17.810   9.084
  145POPC   C1A 6663  11.279  17.393   8.681
  145POPC   D2A 6664  11.152  17.151   8.304
  145POPC   C3A 6665  11.273  17.339   7.894
  145POPC   C4A 6666  11.489  17.508   7.442
  145POPC   C1B 6667  11.027  17.859   8.692
  145POPC   C2B 6668  11.042  17.682   8.267
  145POPC   C3B 6669  11.080  17.804   7.833
  145POPC   C4B 6670  11.006  17.690   7.394
  146POPC   NC3 6671  23.965  37.298   9.621
  146POPC   PO4 6672  23.696  36.663   9.451
  146POPC   GL1 6673  23.741  36.861   9.107
  146POPC   GL2 6674  23.433  36.742   9.017
  146POPC   C1A 6675  23.718  37.080   8.731
  146POPC   D2A 6676  23.942  36.929   8.413
  146POPC   C3A 6677  23.740  37.021   8.076
  146POPC   C4A 6678  23.779  36.853   7.700
  146POPC   C1B 6679  23.675  36.552   8.713
  146POPC   C2B 6680  23.461  36.696   8.401
  146POPC   C3B 6681  23.457  36.577   8.035
  146POPC   C4B 6682  23.306  36.613   7.677
  147POPC   NC3 6683  16.513  44.047   9.763
  147POPC   PO4 6684  17.134  43.859   9.531
  147POPC   GL1 6685  16.940  43.841   9.160
  147POPC   GL2 6686  16.589  43.858   9.269
  147POPC   C1A 6687  16.819  43.622   8.791
  147POPC   D2A 6688  16.975  43.524   8.375
  147POPC   C3A 6689  16.793  43.771   8.071
  147POPC   C4A 6690  16.595  43.670   7.728
  147POPC   C1B 6691  16.604  44.124   8.908
  147POPC   C2B 6692  16.762  44.056   8.514
  147POPC   C3B 6693  16.478  44.156   8.199
  147POPC   C4B 6694  16.485  44.157   7.780
  148POPC   NC3 6695  37.711  10.312   9.602
  148POPC   PO4 6696  37.400  10.962   9.600
  148POPC   GL1 6697  37.320  10.741   9.205
  148POPC   GL2 6698  37.331  10.376   9.198
  148POPC   C1A 6699  37.538  10.690   8.833
  148POPC   D2A 6700  37.817  10.526   8.530
  148POPC   C3A 6701  37.677  10.677   8.090
  148POPC   C4A 6702  37.604  10.610   7.624
  148POPC   C1B 6703  37.429  10.133   8.793
  148POPC   C2B 6704  37.594  10.079   8.362
  148POPC   C3B 6705  37.691  10.177   7.943
  148POPC   C4B 6706  37.391  10.052   7.644
  149POPC   NC3 6707  32.763  14.267   9.760
  149POPC   PO4 6708  33.288  14.579   9.502
  149POPC   GL1 6709  33.075  14.340   9.195
  149POPC   GL2 6710  32.802  14.426   9.255
  149POPC   C1A 6711  33.099  14.235   8.737
  149POPC   D2A 6712  33.308  14.299   8.339
  149POPC   C3A 6713  33.135  14.277   7.915
  149POPC   C4A 6714  33.332  14.569   7.645
  149POPC   C1B 6715  32.692  14.533   8.862
  149POPC   C2B 6716  32.503  14.436   8.452
  149POPC   C3B 6717  32.686  14.464   8.048
  149POPC   C4B 6718  32.650  14.459   7.603
  150POPC   NC3 6719  12.373  15.521   9.523
  150POPC   PO4 6720  13.036  15.657   9.398
  150POPC   GL1 6721  12.954  15.911   9.115
  150POPC   GL2 6722  12.660  16.100   9.233
  150POPC   C1A 6723  13.085  16.078   8.738
  150POPC   D2A 6724  12.837  16.177   8.381
  150POPC   C3A 6725  13.013  16.043   8.010
  150POPC   C4A 6726  12.934  16.004   7.579
  150POPC   C1B 6727  12.577  15.938   8.794
  150POPC   C2B 6728  12.493  15.786   8.356
  150POPC   C3B 6729  12.585  15.762   7.902
  150POPC   C4B 6730  12.460  15.862   7.474
  151POPC   NC3 6731  35.875   4.845   9.445
  151POPC   PO4 6732  36.088   5.411   9.563
  151POPC   GL1 6733  36.220   5.201   9.150
  151POPC   GL2 6734  35.979   5.083   8.962
  151POPC   C1A 6735  36.437   5.305   8.725
  151POPC   D2A 6736  36.535   5.512   8.315
  151POPC   C3A 6737  36.405   5.242   7.977
  151POPC   C4A 6738  36.189   4.921   7.683
  151POPC   C1B 6739  36.072   4.913   8.577
  151POPC   C2B 6740  36.001   4.997   8.157
  151POPC   C3B 6741  35.718   5.066   7.798
  151POPC   C4B 6742  35.700   4.797   7.415
  152POPC   NC3 6743   4.465  35.535   9.475
  152POPC   PO4 6744   3.887  35.185   9.440
  152POPC   GL1 6745   4.191  35.210   9.108
  152POPC   GL2 6746   4.257  35.580   9.008
  152POPC   C1A 6747   4.391  35.213   8.691
  152POPC   D2A 6748   4.426  35.628   8.453
  152POPC   C3A 6749   4.512  35.494   8.006
  152POPC   C4A 6750   4.544  35.289   7.601
  152POPC   C1B 6751   3.926  35.391   8.697
  152POPC   C2B 6752   4.051  35.343   8.258
  152POPC   C3B 6753   3.901  35.581   7.927
  152POPC   C4B 6754   4.087  35.493   7.551
  153POPC   NC3 6755  37.221  13.700   9.461
  153POPC   PO4 6756  36.581  13.884   9.566
  153POPC   GL1 6757  36.807  13.568   9.227
  153POPC   GL2 6758  37.052  13.255   9.250
  153POPC   C1A 6759  37.063  13.597   8.828
  153POPC   D2A 6760  36.907  13.671   8.426
  153POPC   C3A 6761  37.038  13.560   8.015
  153POPC   C4A 6762  36.859  13.589   7.604
  153POPC   C1B 6763  37.238  13.104   8.853
  153POPC   C2B 6764  37.220  13.266   8.427
  153POPC   C3B 6765  37.319  13.129   8.026
  153POPC   C4B 6766  37.179  13.199   7.639
  154POPC   NC3 6767   0.948  43.483   9.432
  154POPC   PO4 6768   0.274  43.312   9.432
  154POPC   GL1 6769   0.334  43.109   9.058
  154POPC   GL2 6770   0.659  42.962   9.165
  154POPC   C1A 6771   0.271  43.058   8.600
  154POPC   D2A 6772   0.435  42.925   8.187
  154POPC   C3A 6773   0.288  43.168   7.793
  154POPC   C4A 6774   0.141  43.169   7.323
  154POPC   C1B 6775   0.776  43.167   8.775
  154POPC   C2B 6776   0.809  43.254   8.337
  154POPC   C3B 6777   0.778  43.172   7.873
  154POPC   C4B 6778   0.655  43.137   7.415
  155POPC   NC3 6779   2.570  43.483   9.398
  155POPC   PO4 6780   3.004  43.993   9.394
  155POPC   GL1 6781   2.636  43.962   9.151
  155POPC   GL2 6782   2.547  44.282   8.994
  155POPC   C1A 6783   2.637  43.806   8.744
  155POPC   D2A 6784   2.911  43.748   8.417
  155POPC   C3A 6785   2.773  43.744   8.001
  155POPC   C4A 6786   2.864  44.153   7.868
  155POPC   C1B 6787   2.387  44.246   8.641
  155POPC   C2B 6788   2.475  44.083   8.241
  155POPC   C3B 6789   2.363  44.207   7.827
  155POPC   C4B 6790   2.491  44.304   7.383
  156POPC   NC3 6791   0.077  31.038   9.489
  156POPC   PO4 6792   0.717  31.436   9.441
  156POPC   GL1 6793   0.371  31.472   9.110
  156POPC   GL2 6794   0.067  31.697   9.071
  156POPC   C1A 6795   0.448  31.742   8.733
  156POPC   D2A 6796   0.695  31.882   8.390
  156POPC   C3A 6797   0.556  31.669   8.030
  156POPC   C4A 6798   0.444  31.343   7.738
  156POPC   C1B 6799   0.005  31.507   8.626
  156POPC   C2B 6800   0.065  31.500   8.159
  156POPC   C3B 6801  44.948  31.218   7.817
  156POPC   C4B 6802  44.931  31.196   7.347
  157POPC   NC3 6803  20.931  28.094   9.487
  157POPC   PO4 6804  21.618  28.164   9.520
  157POPC   GL1 6805  21.516  28.447   9.160
  157POPC   GL2 6806  21.171  28.501   9.214
  157POPC   C1A 6807  21.513  28.467   8.722
  157POPC   D2A 6808  21.377  28.603   8.325
  157POPC   C3A 6809  21.659  28.417   8.005
  157POPC   C4A 6810  21.684  28.309   7.576
  157POPC   C1B 6811  21.028  28.584   8.793
  157POPC   C2B 6812  20.959  28.333   8.458
  157POPC   C3B 6813  20.953  28.341   8.029
  157POPC   C4B 6814  21.183  28.413   7.640
  158POPC   NC3 6815  40.469  30.416   9.272
  158POPC   PO4 6816  40.004  31.012   9.404
  158POPC   GL1 6817  40.187  30.788   9.089
  158POPC   GL2 6818  39.930  30.534   8.986
  158POPC   C1A 6819  40.367  30.620   8.670
  158POPC   D2A 6820  40.572  30.696   8.246
  158POPC   C3A 6821  40.399  30.541   7.825
  158POPC   C4A 6822  40.231  30.827   7.486
  158POPC   C1B 6823  39.875  30.889   8.719
  158POPC   C2B 6824  40.061  30.860   8.344
  158POPC   C3B 6825  40.085  30.928   7.967
  158POPC   C4B 6826  39.835  31.114   7.690
  159POPC   NC3 6827  24.307  12.744   9.534
  159POPC   PO4 6828  24.716  13.295   9.360
  159POPC   GL1 6829  24.645  12.981   9.097
  159POPC   GL2 6830  24.293  13.041   9.125
  159POPC   C1A 6831  24.509  12.979   8.673
  159POPC   D2A 6832  24.369  12.960   8.272
  159POPC   C3A 6833  24.658  12.834   7.971
  159POPC   C4A 6834  24.637  12.987   7.556
  159POPC   C1B 6835  24.304  12.586   8.920
  159POPC   C2B 6836  24.367  12.474   8.489
  159POPC   C3B 6837  24.162  12.551   8.065
  159POPC   C4B 6838  24.259  12.655   7.661
  160POPC   NC3 6839  28.700  27.308   9.262
  160POPC   PO4 6840  28.341  27.782   9.561
  160POPC   GL1 6841  28.237  27.446   9.103
  160POPC   GL2 6842  28.540  27.312   8.801
  160POPC   C1A 6843  28.078  27.352   8.675
  160POPC   D2A 6844  28.358  27.524   8.299
  160POPC   C3A 6845  28.245  27.578   7.835
  160POPC   C4A 6846  28.004  27.387   7.459
  160POPC   C1B 6847  28.848  27.434   8.489
  160POPC   C2B 6848  28.840  27.863   8.397
  160POPC   C3B 6849  28.705  27.972   8.008
  160POPC   C4B 6850  28.693  27.809   7.600
  161POPC   NC3 6851   7.059   3.545   9.554
  161POPC   PO4 6852   7.663   3.779   9.687
  161POPC   GL1 6853   7.603   3.627   9.243
  161POPC   GL2 6854   7.473   3.324   9.131
  161POPC   C1A 6855   7.627   3.599   8.760
  161POPC   D2A 6856   7.367   3.658   8.378
  161POPC   C3A 6857   7.627   3.650   8.028
  161POPC   C4A 6858   7.708   3.472   7.617
  161POPC   C1B 6859   7.232   3.135   8.735
  161POPC   C2B 6860   7.153   3.138   8.299
  161POPC   C3B 6861   7.398   3.179   7.939
  161POPC   C4B 6862   7.324   3.173   7.494
  162POPC   NC3 6863  30.212  17.766   9.483
  162POPC   PO4 6864  29.768  17.238   9.608
  162POPC   GL1 6865  29.581  17.258   9.179
  162POPC   GL2 6866  29.773  17.560   9.124
  162POPC   C1A 6867  29.488  17.360   8.723
  162POPC   D2A 6868  29.810  17.496   8.425
  162POPC   C3A 6869  29.819  17.645   8.007
  162POPC   C4A 6870  29.722  17.480   7.618
  162POPC   C1B 6871  30.107  17.674   8.825
  162POPC   C2B 6872  30.249  17.751   8.382
  162POPC   C3B 6873  30.438  17.489   8.073
  162POPC   C4B 6874  30.244  17.466   7.676
  163POPC   NC3 6875  20.034  25.913   9.513
  163POPC   PO4 6876  19.605  26.442   9.427
  163POPC   GL1 6877  19.906  26.260   9.133
  163POPC   GL2 6878  19.829  25.899   9.062
  163POPC   C1A 6879  19.826  26.238   8.687
  163POPC   D2A 6880  19.674  26.419   8.322
  163POPC   C3A 6881  19.857  26.237   7.962
  163POPC   C4A 6882  19.717  26.019   7.581
  163POPC   C1B 6883  19.881  25.716   8.675
  163POPC   C2B 6884  20.053  25.902   8.318
  163POPC   C3B 6885  19.928  25.713   7.952
  163POPC   C4B 6886  19.551  25.604   7.816
  164POPC   NC3 6887   5.320  36.944   9.523
  164POPC   PO4 6888   4.600  37.004   9.593
  164POPC   GL1 6889   4.836  36.993   9.211
  164POPC   GL2 6890   5.166  36.878   9.042
  164POPC   C1A 6891   4.752  37.014   8.773
  164POPC   D2A 6892   4.929  36.886   8.387
  164POPC   C3A 6893   4.843  37.120   8.046
  164POPC   C4A 6894   4.905  36.891   7.699
  164POPC   C1B 6895   5.251  37.164   8.660
  164POPC   C2B 6896   5.274  37.323   8.267
  164POPC   C3B 6897   5.366  37.030   7.907
  164POPC   C4B 6898   5.339  36.599   7.743
  165POPC   NC3 6899  14.751   4.950   9.776
  165POPC   PO4 6900  15.427   5.062   9.539
  165POPC   GL1 6901  15.259   4.953   9.179
  165POPC   GL2 6902  14.873   4.979   9.258
  165POPC   C1A 6903  15.434   5.012   8.767
  165POPC   D2A 6904  15.215   4.969   8.384
  165POPC   C3A 6905  15.463   4.930   8.011
  165POPC   C4A 6906  15.419   4.783   7.592
  165POPC   C1B 6907  14.898   5.091   8.826
  165POPC   C2B 6908  15.120   5.411   8.604
  165POPC   C3B 6909  15.114   5.395   8.142
  165POPC   C4B 6910  14.826   5.284   7.833
  166POPC   NC3 6911  13.823  27.867   9.443
  166POPC   PO4 6912  14.355  28.378   9.365
  166POPC   GL1 6913  14.129  28.324   9.024
  166POPC   GL2 6914  14.143  27.984   9.065
  166POPC   C1A 6915  14.142  28.545   8.659
  166POPC   D2A 6916  14.387  28.495   8.287
  166POPC   C3A 6917  14.154  28.329   7.930
  166POPC   C4A 6918  14.371  28.238   7.537
  166POPC   C1B 6919  14.435  28.052   8.731
  166POPC   C2B 6920  14.309  27.978   8.330
  166POPC   C3B 6921  14.550  28.007   7.974
  166POPC   C4B 6922  14.434  27.743   7.662
  167POPC   NC3 6923  10.044   6.146   9.373
  167POPC   PO4 6924   9.534   5.736   9.461
  167POPC   GL1 6925   9.673   5.849   9.102
  167POPC   GL2 6926   9.582   6.193   9.130
  167POPC   C1A 6927   9.877   5.970   8.741
  167POPC   D2A 6928   9.948   5.790   8.363
  167POPC   C3A 6929   9.974   6.044   8.050
  167POPC   C4A 6930   9.778   5.859   7.703
  167POPC   C1B 6931   9.372   6.293   8.771
  167POPC   C2B 6932   9.505   6.098   8.412
  167POPC   C3B 6933   9.447   5.889   8.078
  167POPC   C4B 6934   9.251   5.869   7.701
  168POPC   NC3 6935   6.656  14.886   9.260
  168POPC   PO4 6936   6.935  14.294   9.506
  168POPC   GL1 6937   6.732  14.349   9.149
  168POPC   GL2 6938   6.388  14.457   9.264
  168POPC   C1A 6939   6.900  14.471   8.758
  168POPC   D2A 6940   6.801  14.356   8.369
  168POPC   C3A 6941   7.038  14.424   8.014
  168POPC   C4A 6942   6.721  14.575   7.795
  168POPC   C1B 6943   6.336  14.447   8.808
  168POPC   C2B 6944   6.229  14.181   8.447
  168POPC   C3B 6945   6.377  14.264   8.059
  168POPC   C4B 6946   6.372  14.210   7.637
  169POPC   NC3 6947  38.712  33.205   9.478
  169POPC   PO4 6948  38.156  32.636   9.458
  169POPC   GL1 6949  38.386  32.916   9.174
  169POPC   GL2 6950  38.413  32.638   8.991
  169POPC   C1A 6951  38.361  33.165   8.789
  169POPC   D2A 6952  38.512  33.307   8.379
  169POPC   C3A 6953  38.249  33.250   8.046
  169POPC   C4A 6954  38.231  33.177   7.586
  169POPC   C1B 6955  38.558  32.727   8.623
  169POPC   C2B 6956  38.529  32.790   8.225
  169POPC   C3B 6957  38.313  32.734   7.858
  169POPC   C4B 6958  38.349  32.699   7.415
  170POPC   NC3 6959   1.050  32.772   9.396
  170POPC   PO4 6960   1.007  32.102   9.426
  170POPC   GL1 6961   1.240  32.079   9.070
  170POPC   GL2 6962   1.230  32.435   9.058
  170POPC   C1A 6963   1.139  31.896   8.660
  170POPC   D2A 6964   1.205  31.900   8.222
  170POPC   C3A 6965   0.953  32.067   7.948
  170POPC   C4A 6966   1.142  32.371   7.707
  170POPC   C1B 6967   1.330  32.590   8.659
  170POPC   C2B 6968   1.350  32.415   8.236
  170POPC   C3B 6969   1.576  32.545   7.868
  170POPC   C4B 6970   1.495  32.682   7.447
  171POPC   NC3 6971   0.895  20.412   9.490
  171POPC   PO4 6972   1.337  20.858   9.511
  171POPC   GL1 6973   1.280  20.600   9.190
  171POPC   GL2 6974   1.354  20.907   9.002
  171POPC   C1A 6975   1.471  20.378   8.878
  171POPC   D2A 6976   1.564  20.488   8.466
  171POPC   C3A 6977   1.230  20.394   8.161
  171POPC   C4A 6978   1.314  20.422   7.715
  171POPC   C1B 6979   1.157  20.749   8.670
  171POPC   C2B 6980   1.250  20.904   8.255
  171POPC   C3B 6981   1.023  20.842   7.873
  171POPC   C4B 6982   0.612  21.007   7.845
  172POPC   NC3 6983  43.472  27.299   9.409
  172POPC   PO4 6984  43.019  26.748   9.346
  172POPC   GL1 6985  43.195  26.988   9.047
  172POPC   GL2 6986  43.056  27.324   9.071
  172POPC   C1A 6987  43.249  26.764   8.659
  172POPC   D2A 6988  43.344  26.755   8.232
  172POPC   C3A 6989  43.106  26.631   7.882
  172POPC   C4A 6990  43.503  26.546   7.739
  172POPC   C1B 6991  43.118  27.250   8.613
  172POPC   C2B 6992  43.321  27.268   8.215
  172POPC   C3B 6993  43.327  27.071   7.803
  172POPC   C4B 6994  43.036  26.964   7.472
  173POPC   NC3 6995  38.295  11.730   9.417
  173POPC   PO4 6996  38.684  12.351   9.578
  173POPC   GL1 6997  38.610  12.094   9.179
  173POPC   GL2 6998  38.517  11.769   8.968
  173POPC   C1A 6999  38.513  12.262   8.775
  173POPC   D2A 7000  38.290  12.309   8.397
  173POPC   C3A 7001  38.505  12.306   8.016
  173POPC   C4A 7002  38.262  12.304   7.683
  173POPC   C1B 7003  38.144  11.897   8.738
  173POPC   C2B 7004  38.007  11.884   8.314
  173POPC   C3B 7005  38.304  11.826   7.946
  173POPC   C4B 7006  38.739  11.681   7.856
  174POPC   NC3 7007  20.695  19.620   9.343
  174POPC   PO4 7008  20.247  20.127   9.593
  174POPC   GL1 7009  20.351  19.947   9.185
  174POPC   GL2 7010  20.645  20.141   9.114
  174POPC   C1A 7011  20.405  19.872   8.735
  174POPC   D2A 7012  20.427  20.085   8.322
  174POPC   C3A 7013  20.463  19.802   7.978
  174POPC   C4A 7014  20.485  19.870   7.519
  174POPC   C1B 7015  20.781  20.242   8.691
  174POPC   C2B 7016  20.939  19.993   8.358
  174POPC   C3B 7017  21.008  19.687   8.090
  174POPC   C4B 7018  20.918  19.906   7.764
  175POPC   NC3 7019  32.066  41.791   9.440
  175POPC   PO4 7020  32.664  41.542   9.490
  175POPC   GL1 7021  32.557  41.322   9.137
  175POPC   GL2 7022  32.210  41.328   9.125
  175POPC   C1A 7023  32.552  41.518   8.722
  175POPC   D2A 7024  32.584  41.794   8.377
  175POPC   C3A 7025  32.606  41.623   8.009
  175POPC   C4A 7026  32.304  41.660   7.714
  175POPC   C1B 7027  32.142  41.215   8.703
  175POPC   C2B 7028  32.136  41.515   8.339
  175POPC   C3B 7029  31.884  41.544   7.970
  175POPC   C4B 7030  31.985  41.289   7.618
  176POPC   NC3 7031   4.817  19.697   9.574
  176POPC   PO4 7032   4.192  19.379   9.579
  176POPC   GL1 7033   4.211  19.544   9.179
  176POPC   GL2 7034   4.547  19.515   9.185
  176POPC   C1A 7035   4.331  19.863   8.867
  176POPC   D2A 7036   4.287  20.077   8.486
  176POPC   C3A 7037   4.122  19.907   8.125
  176POPC   C4A 7038   4.282  19.992   7.701
  176POPC   C1B 7039   4.615  19.424   8.770
  176POPC   C2B 7040   4.422  19.577   8.415
  176POPC   C3B 7041   4.433  19.532   7.973
  176POPC   C4B 7042   4.714  19.551   7.629
  177POPC   NC3 7043   0.995  28.038   9.570
  177POPC   PO4 7044   1.385  28.651   9.546
  177POPC   GL1 7045   1.296  28.653   9.140
  177POPC   GL2 7046   1.163  28.322   9.162
  177POPC   C1A 7047   1.401  28.520   8.721
  177POPC   D2A 7048   1.199  28.346   8.352
  177POPC   C3A 7049   1.217  28.569   7.965
  177POPC   C4A 7050   1.559  28.492   7.722
  177POPC   C1B 7051   0.941  28.299   8.808
  177POPC   C2B 7052   0.731  28.129   8.440
  177POPC   C3B 7053   0.878  28.092   8.023
  177POPC   C4B 7054   0.659  28.054   7.648
  178POPC   NC3 7055  22.943  39.706   9.636
  178POPC   PO4 7056  22.663  40.245   9.327
  178POPC   GL1 7057  22.894  40.191   9.023
  178POPC   GL2 7058  23.147  40.080   9.202
  178POPC   C1A 7059  22.965  40.215   8.620
  178POPC   D2A 7060  23.173  40.398   8.302
  178POPC   C3A 7061  23.031  40.142   8.043
  178POPC   C4A 7062  22.971  40.370   7.722
  178POPC   C1B 7063  23.316  39.932   8.845
  178POPC   C2B 7064  23.352  39.912   8.432
  178POPC   C3B 7065  23.485  39.905   8.051
  178POPC   C4B 7066  23.303  39.861   7.699
  179POPC   NC3 7067  36.920  10.918   9.522
  179POPC   PO4 7068  36.675  10.286   9.468
  179POPC   GL1 7069  36.840  10.544   9.148
  179POPC   GL2 7070  36.709  10.879   9.076
  179POPC   C1A 7071  37.072  10.481   8.766
  179POPC   D2A 7072  37.326  10.492   8.416
  179POPC   C3A 7073  37.224  10.383   8.007
  179POPC   C4A 7074  37.113  10.513   7.580
  179POPC   C1B 7075  36.607  10.632   8.710
  179POPC   C2B 7076  36.848  10.634   8.317
  179POPC   C3B 7077  36.746  10.578   7.909
  179POPC   C4B 7078  36.786  10.904   7.651
  180POPC   NC3 7079  25.011  33.300   9.467
  180POPC   PO4 7080  25.533  32.916   9.543
  180POPC   GL1 7081  25.445  33.143   9.176
  180POPC   GL2 7082  25.145  32.950   9.126
  180POPC   C1A 7083  25.442  33.165   8.714
  180POPC   D2A 7084  25.607  32.924   8.331
  180POPC   C3A 7085  25.483  32.966   7.883
  180POPC   C4A 7086  25.521  33.096   7.399
  180POPC   C1B 7087  24.942  32.996   8.743
  180POPC   C2B 7088  25.097  32.977   8.341
  180POPC   C3B 7089  24.895  32.869   7.988
  180POPC   C4B 7090  24.693  33.140   7.768
  181POPC   NC3 7091  16.975   7.631   9.538
  181POPC   PO4 7092  16.726   7.070   9.834
  181POPC   GL1 7093  16.730   7.117   9.380
  181POPC   GL2 7094  16.527   7.414   9.300
  181POPC   C1A 7095  16.914   7.257   8.964
  181POPC   D2A 7096  16.861   7.556   8.607
  181POPC   C3A 7097  16.868   7.463   8.157
  181POPC   C4A 7098  16.903   7.756   7.822
  181POPC   C1B 7099  16.432   7.345   8.846
  181POPC   C2B 7100  16.542   7.146   8.451
  181POPC   C3B 7101  16.514   7.100   8.008
  181POPC   C4B 7102  16.541   7.160   7.562
  182POPC   NC3 7103  41.669  24.201   9.796
  182POPC   PO4 7104  41.342  24.715   9.562
  182POPC   GL1 7105  41.390  24.554   9.145
  182POPC   GL2 7106  41.044  24.389   9.144
  182POPC   C1A 7107  41.622  24.341   8.763
  182POPC   D2A 7108  41.450  24.228   8.302
  182POPC   C3A 7109  41.679  24.306   7.895
  182POPC   C4A 7110  41.807  24.668   7.638
  182POPC   C1B 7111  41.139  24.459   8.707
  182POPC   C2B 7112  41.354  24.727   8.418
  182POPC   C3B 7113  41.277  24.635   7.966
  182POPC   C4B 7114  41.177  24.214   7.750
  183POPC   NC3 7115  35.618  31.833   9.851
  183POPC   PO4 7116  35.232  31.494   9.438
  183POPC   GL1 7117  35.279  31.446   9.042
  183POPC   GL2 7118  35.256  31.804   8.941
  183POPC   C1A 7119  35.444  31.149   8.756
  183POPC   D2A 7120  35.267  31.176   8.389
  183POPC   C3A 7121  35.434  31.236   8.004
  183POPC   C4A 7122  35.202  31.330   7.620
  183POPC   C1B 7123  35.242  31.639   8.575
  183POPC   C2B 7124  35.305  31.711   8.159
  183POPC   C3B 7125  35.067  31.809   7.816
  183POPC   C4B 7126  35.013  31.750   7.396
  184POPC   NC3 7127   6.535  28.316  10.152
  184POPC   PO4 7128   6.199  28.546   9.583
  184POPC   GL1 7129   6.286  28.577   9.122
  184POPC   GL2 7130   6.512  28.290   9.015
  184POPC   C1A 7131   6.374  28.625   8.664
  184POPC   D2A 7132   6.529  28.492   8.274
  184POPC   C3A 7133   6.331  28.592   7.870
  184POPC   C4A 7134   6.563  28.740   7.496
  184POPC   C1B 7135   6.854  28.458   8.700
  184POPC   C2B 7136   7.034  28.643   8.297
  184POPC   C3B 7137   6.860  28.576   7.887
  184POPC   C4B 7138   6.610  28.166   7.864
  185POPC   NC3 7139  22.450  25.836   9.600
  185POPC   PO4 7140  21.997  26.389   9.643
  185POPC   GL1 7141  21.888  26.301   9.217
  185POPC   GL2 7142  22.043  25.946   9.156
  185POPC   C1A 7143  22.042  26.326   8.797
  185POPC   D2A 7144  21.998  25.995   8.517
  185POPC   C3A 7145  22.078  26.112   8.134
  185POPC   C4A 7146  22.048  25.996   7.760
  185POPC   C1B 7147  22.397  25.935   8.822
  185POPC   C2B 7148  22.509  25.907   8.354
  185POPC   C3B 7149  22.505  25.833   7.891
  185POPC   C4B 7150  22.454  25.884   7.435
  186POPC   NC3 7151  12.072  26.536   9.272
  186POPC   PO4 7152  12.340  27.101   9.340
  186POPC   GL1 7153  12.310  26.983   8.951
  186POPC   GL2 7154  11.970  26.946   9.002
  186POPC   C1A 7155  12.197  26.696   8.636
  186POPC   D2A 7156  12.137  26.495   8.287
  186POPC   C3A 7157  12.100  26.738   7.964
  186POPC   C4A 7158  12.298  26.870   7.636
  186POPC   C1B 7159  11.710  26.702   8.751
  186POPC   C2B 7160  11.697  26.790   8.353
  186POPC   C3B 7161  11.614  26.966   7.990
  186POPC   C4B 7162  11.767  27.005   7.617
  187POPC   NC3 7163  29.125  37.126   9.657
  187POPC   PO4 7164  29.609  36.683   9.482
  187POPC   GL1 7165  29.398  36.860   9.189
  187POPC   GL2 7166  29.426  37.185   9.081
  187POPC   C1A 7167  29.443  36.746   8.773
  187POPC   D2A 7168  29.266  36.660   8.389
  187POPC   C3A 7169  29.490  36.692   7.985
  187POPC   C4A 7170  29.286  36.889   7.650
  187POPC   C1B 7171  29.020  37.037   8.894
  187POPC   C2B 7172  28.879  37.007   8.463
  187POPC   C3B 7173  28.940  37.146   7.995
  187POPC   C4B 7174  28.750  37.379   7.608
  188POPC   NC3 7175  20.456  13.598  10.063
  188POPC   PO4 7176  20.586  13.685   9.441
  188POPC   GL1 7177  20.633  13.375   9.151
  188POPC   GL2 7178  20.993  13.502   9.145
  188POPC   C1A 7179  20.339  13.371   8.792
  188POPC   D2A 7180  20.091  13.448   8.412
  188POPC   C3A 7181  20.268  13.390   7.996
  188POPC   C4A 7182  20.312  13.787   7.827
  188POPC   C1B 7183  20.738  13.693   8.770
  188POPC   C2B 7184  20.634  13.463   8.382
  188POPC   C3B 7185  20.758  13.587   8.005
  188POPC   C4B 7186  20.782  14.022   7.914
  189POPC   NC3 7187  28.480  39.834   9.592
  189POPC   PO4 7188  28.165  40.463   9.507
  189POPC   GL1 7189  28.198  40.100   9.231
  189POPC   GL2 7190  27.911  40.045   9.014
  189POPC   C1A 7191  28.393  40.086   8.831
  189POPC   D2A 7192  28.402  40.182   8.399
  189POPC   C3A 7193  28.345  39.861   8.076
  189POPC   C4A 7194  28.334  39.867   7.659
  189POPC   C1B 7195  28.021  40.443   8.808
  189POPC   C2B 7196  28.033  40.532   8.341
  189POPC   C3B 7197  28.128  40.307   7.944
  189POPC   C4B 7198  28.011  40.230   7.497
  190POPC   NC3 7199  42.587  42.159   9.671
  190POPC   PO4 7200  42.218  42.674   9.487
  190POPC   GL1 7201  42.438  42.446   9.188
  190POPC   GL2 7202  42.577  42.750   9.073
  190POPC   C1A 7203  42.482  42.174   8.804
  190POPC   D2A 7204  42.408  41.975   8.371
  190POPC   C3A 7205  42.174  42.163   8.004
  190POPC   C4A 7206  41.835  41.981   7.739
  190POPC   C1B 7207  42.496  42.676   8.674
  190POPC   C2B 7208  42.488  42.494   8.318
  190POPC   C3B 7209  42.667  42.554   7.948
  190POPC   C4B 7210  42.343  42.588   7.655
  191POPC   NC3 7211  26.744  19.152   9.530
  191POPC   PO4 7212  27.178  18.673   9.666
  191POPC   GL1 7213  27.012  18.862   9.215
  191POPC   GL2 7214  26.900  19.219   9.050
  191POPC   C1A 7215  27.128  18.880   8.766
  191POPC   D2A 7216  26.902  18.708   8.418
  191POPC   C3A 7217  26.783  19.043   8.150
  191POPC   C4A 7218  27.014  19.172   7.792
  191POPC   C1B 7219  26.794  19.327   8.607
  191POPC   C2B 7220  26.578  19.535   8.261
  191POPC   C3B 7221  26.595  19.449   7.820
  191POPC   C4B 7222  26.736  19.557   7.377
  192POPC   NC3 7223  26.755  35.741   9.309
  192POPC   PO4 7224  26.672  36.312   9.705
  192POPC   GL1 7225  26.675  36.237   9.231
  192POPC   GL2 7226  27.041  36.165   9.203
  192POPC   C1A 7227  26.599  36.076   8.752
  192POPC   D2A 7228  26.535  36.083   8.262
  192POPC   C3A 7229  26.817  36.267   7.937
  192POPC   C4A 7230  26.814  36.070   7.514
  192POPC   C1B 7231  27.096  36.257   8.773
  192POPC   C2B 7232  27.027  36.043   8.376
  192POPC   C3B 7233  27.150  35.880   7.991
  192POPC   C4B 7234  27.309  35.963   7.588
  193POPC   NC3 7235  30.910  17.068   9.642
  193POPC   PO4 7236  30.726  17.662   9.555
  193POPC   GL1 7237  30.553  17.563   9.147
  193POPC   GL2 7238  30.835  17.413   9.037
  193POPC   C1A 7239  30.624  17.753   8.727
  193POPC   D2A 7240  30.739  17.998   8.360
  193POPC   C3A 7241  30.896  17.783   8.008
  193POPC   C4A 7242  30.743  17.558   7.630
  193POPC   C1B 7243  30.723  17.237   8.623
  193POPC   C2B 7244  30.903  17.276   8.212
  193POPC   C3B 7245  30.933  17.100   7.816
  193POPC   C4B 7246  31.035  17.199   7.376
  194POPC   NC3 7247  40.843  22.640   9.516
  194POPC   PO4 7248  40.597  22.029   9.508
  194POPC   GL1 7249  40.787  22.240   9.178
  194POPC   GL2 7250  40.537  22.513   9.095
  194POPC   C1A 7251  41.031  22.080   8.837
  194POPC   D2A 7252  40.905  21.872   8.472
  194POPC   C3A 7253  41.136  21.913   8.123
  194POPC   C4A 7254  41.041  22.115   7.781
  194POPC   C1B 7255  40.846  22.566   8.783
  194POPC   C2B 7256  40.921  22.358   8.403
  194POPC   C3B 7257  40.660  22.222   8.097
  194POPC   C4B 7258  40.720  22.495   7.755
  195POPC   NC3 7259  14.349   7.732   9.482
  195POPC   PO4 7260  14.121   7.100   9.589
  195POPC   GL1 7261  14.204   7.185   9.081
  195POPC   GL2 7262  14.474   7.487   9.032
  195POPC   C1A 7263  14.193   7.294   8.642
  195POPC   D2A 7264  14.104   7.143   8.242
  195POPC   C3A 7265  14.203   7.520   8.025
  195POPC   C4A 7266  14.322   7.616   7.597
  195POPC   C1B 7267  14.655   7.112   8.805
  195POPC   C2B 7268  14.907   6.961   8.446
  195POPC   C3B 7269  14.622   7.177   8.176
  195POPC   C4B 7270  14.515   7.204   7.806
  196POPC   NC3 7271   1.572  14.312   9.628
  196POPC   PO4 7272   2.281  14.223   9.716
  196POPC   GL1 7273   2.243  14.339   9.223
  196POPC   GL2 7274   1.916  14.370   9.028
  196POPC   C1A 7275   2.282  14.282   8.715
  196POPC   D2A 7276   2.038  14.247   8.308
  196POPC   C3A 7277   2.330  14.284   7.979
  196POPC   C4A 7278   2.628  14.206   7.672
  196POPC   C1B 7279   1.919  14.630   8.650
  196POPC   C2B 7280   2.270  14.713   8.351
  196POPC   C3B 7281   2.123  14.731   7.926
  196POPC   C4B 7282   1.824  14.378   7.845
  197POPC   NC3 7283  31.233  28.286   9.472
  197POPC   PO4 7284  31.615  28.824   9.486
  197POPC   GL1 7285  31.575  28.531   9.159
  197POPC   GL2 7286  31.907  28.558   9.100
  197POPC   C1A 7287  31.399  28.477   8.739
  197POPC   D2A 7288  31.510  28.578   8.312
  197POPC   C3A 7289  31.307  28.352   7.986
  197POPC   C4A 7290  31.479  28.070   7.650
  197POPC   C1B 7291  31.901  28.683   8.666
  197POPC   C2B 7292  32.032  28.678   8.227
  197POPC   C3B 7293  31.786  28.820   7.875
  197POPC   C4B 7294  31.536  28.566   7.612
  198POPC   NC3 7295  25.326  26.170   9.651
  198POPC   PO4 7296  25.818  26.496   9.571
  198POPC   GL1 7297  25.497  26.292   9.185
  198POPC   GL2 7298  25.109  26.250   9.055
  198POPC   C1A 7299  25.465  26.102   8.731
  198POPC   D2A 7300  25.578  26.179   8.295
  198POPC   C3A 7301  25.351  26.016   7.937
  198POPC   C4A 7302  25.544  25.921   7.503
  198POPC   C1B 7303  24.821  26.368   8.668
  198POPC   C2B 7304  24.713  26.319   8.196
  198POPC   C3B 7305  24.943  26.355   7.767
  198POPC   C4B 7306  25.020  26.363   7.292
  199POPC   NC3 7307   9.435  22.030   9.368
  199POPC   PO4 7308  10.104  22.037   9.531
  199POPC   GL1 7309  10.076  21.790   9.122
  199POPC   GL2 7310   9.732  21.716   9.070
  199POPC   C1A 7311  10.023  21.850   8.648
  199POPC   D2A 7312  10.010  22.237   8.390
  199POPC   C3A 7313   9.896  22.232   7.947
  199POPC   C4A 7314  10.030  22.408   7.510
  199POPC   C1B 7315   9.506  21.753   8.673
  199POPC   C2B 7316   9.553  21.840   8.221
  199POPC   C3B 7317   9.426  21.875   7.804
  199POPC   C4B 7318   9.630  21.843   7.370
  200POPC   NC3 7319  29.355  19.227   9.391
  200POPC   PO4 7320  29.584  18.631   9.402
  200POPC   GL1 7321  29.437  18.857   9.053
  200POPC   GL2 7322  29.062  18.900   9.142
  200POPC   C1A 7323  29.360  19.167   8.720
  200POPC   D2A 7324  29.182  19.036   8.322
  200POPC   C3A 7325  29.385  18.962   7.959
  200POPC   C4A 7326  29.072  18.986   7.680
  200POPC   C1B 7327  28.944  18.895   8.756
  200POPC   C2B 7328  28.939  18.600   8.440
  200POPC   C3B 7329  28.873  18.658   8.047
  200POPC   C4B 7330  28.981  18.488   7.675
  201POPC   NC3 7331  12.965  32.966   9.634
  201POPC   PO4 7332  12.414  33.121   9.656
  201POPC   GL1 7333  12.629  33.001   9.222
  201POPC   GL2 7334  13.035  33.013   9.130
  201POPC   C1A 7335  12.711  33.053   8.745
  201POPC   D2A 7336  12.614  33.249   8.328
  201POPC   C3A 7337  12.696  33.032   7.943
  201POPC   C4A 7338  12.437  33.062   7.563
  201POPC   C1B 7339  13.240  33.067   8.685
  201POPC   C2B 7340  13.164  33.128   8.204
  201POPC   C3B 7341  13.182  32.897   7.793
  201POPC   C4B 7342  13.201  32.789   7.341
  202POPC   NC3 7343  39.695  31.388   9.379
  202POPC   PO4 7344  39.248  31.849   9.614
  202POPC   GL1 7345  39.174  31.636   9.169
  202POPC   GL2 7346  39.242  31.292   9.110
  202POPC   C1A 7347  39.027  31.502   8.697
  202POPC   D2A 7348  39.235  31.431   8.298
  202POPC   C3A 7349  39.063  31.428   7.898
  202POPC   C4A 7350  39.210  31.684   7.551
  202POPC   C1B 7351  39.425  31.172   8.695
  202POPC   C2B 7352  39.568  31.003   8.311
  202POPC   C3B 7353  39.418  30.955   7.926
  202POPC   C4B 7354  39.053  30.950   7.776
  203POPC   NC3 7355  27.126  43.062   9.545
  203POPC   PO4 7356  27.677  43.357   9.524
  203POPC   GL1 7357  27.436  43.241   9.169
  203POPC   GL2 7358  27.650  42.982   9.087
  203POPC   C1A 7359  27.260  43.294   8.750
  203POPC   D2A 7360  27.258  43.516   8.331
  203POPC   C3A 7361  27.461  43.310   7.987
  203POPC   C4A 7362  27.508  43.426   7.568
  203POPC   C1B 7363  27.625  42.935   8.644
  203POPC   C2B 7364  27.635  42.830   8.195
  203POPC   C3B 7365  27.767  42.939   7.770
  203POPC   C4B 7366  27.878  43.137   7.341
  204POPC   NC3 7367   7.009   7.949   9.645
  204POPC   PO4 7368   6.484   8.336   9.770
  204POPC   GL1 7369   6.555   8.221   9.298
  204POPC   GL2 7370   6.821   7.979   9.133
  204POPC   C1A 7371   6.455   8.229   8.834
  204POPC   D2A 7372   6.584   7.953   8.469
  204POPC   C3A 7373   6.460   8.119   8.086
  204POPC   C4A 7374   6.199   8.193   7.709
  204POPC   C1B 7375   6.984   8.181   8.719
  204POPC   C2B 7376   6.998   8.426   8.307
  204POPC   C3B 7377   6.872   8.383   7.875
  204POPC   C4B 7378   6.723   8.001   7.675
  205POPC   NC3 7379  34.735   9.853   9.534
  205POPC   PO4 7380  34.290   9.405   9.279
  205POPC   GL1 7381  34.425   9.524   8.947
  205POPC   GL2 7382  34.591   9.775   9.060
  205POPC   C1A 7383  34.682   9.442   8.617
  205POPC   D2A 7384  34.629   9.749   8.358
  205POPC   C3A 7385  34.337   9.620   8.112
  205POPC   C4A 7386  34.557   9.600   7.763
  205POPC   C1B 7387  34.443  10.053   8.760
  205POPC   C2B 7388  34.273  10.102   8.332
  205POPC   C3B 7389  34.544  10.106   7.962
  205POPC   C4B 7390  34.530  10.042   7.512
  206POPC   NC3 7391  29.775  33.267   9.139
  206POPC   PO4 7392  30.068  33.792   9.510
  206POPC   GL1 7393  29.903  33.876   9.135
  206POPC   GL2 7394  29.554  33.873   9.156
  206POPC   C1A 7395  29.987  34.121   8.760
  206POPC   D2A 7396  29.775  34.171   8.367
  206POPC   C3A 7397  29.990  34.095   7.991
  206POPC   C4A 7398  29.885  33.934   7.603
  206POPC   C1B 7399  29.638  33.735   8.722
  206POPC   C2B 7400  29.540  33.530   8.349
  206POPC   C3B 7401  29.761  33.626   8.004
  206POPC   C4B 7402  29.967  33.434   7.662
  207POPC   NC3 7403  29.134  21.537   9.378
  207POPC   PO4 7404  29.451  21.042   9.489
  207POPC   GL1 7405  29.478  21.281   9.069
  207POPC   GL2 7406  29.655  21.575   9.092
  207POPC   C1A 7407  29.351  21.425   8.611
  207POPC   D2A 7408  29.006  21.493   8.269
  207POPC   C3A 7409  28.858  21.322   7.848
  207POPC   C4A 7410  28.648  21.531   7.480
  207POPC   C1B 7411  29.665  21.830   8.710
  207POPC   C2B 7412  29.350  21.949   8.438
  207POPC   C3B 7413  29.344  21.814   8.057
  207POPC   C4B 7414  29.393  21.377   7.909
  208POPC   NC3 7415  17.937  33.916   9.909
  208POPC   PO4 7416  18.451  33.609   9.506
  208POPC   GL1 7417  18.426  33.728   9.105
  208POPC   GL2 7418  18.658  34.017   9.160
  208POPC   C1A 7419  18.123  33.794   8.742
  208POPC   D2A 7420  18.108  34.114   8.444
  208POPC   C3A 7421  18.123  33.966   8.007
  208POPC   C4A 7422  18.348  33.617   7.728
  208POPC   C1B 7423  18.556  34.044   8.726
  208POPC   C2B 7424  18.501  33.804   8.338
  208POPC   C3B 7425  18.605  33.975   7.941
  208POPC   C4B 7426  18.532  33.988   7.440
  209POPC   NC3 7427   4.954   8.625   9.616
  209POPC   PO4 7428   4.781   8.031   9.791
  209POPC   GL1 7429   5.024   8.296   9.248
  209POPC   GL2 7430   5.160   8.517   9.092
  209POPC   C1A 7431   4.936   8.201   8.747
  209POPC   D2A 7432   5.093   7.973   8.352
  209POPC   C3A 7433   5.207   8.147   7.936
  209POPC   C4A 7434   5.018   8.163   7.530
  209POPC   C1B 7435   5.356   8.489   8.654
  209POPC   C2B 7436   5.050   8.496   8.318
  209POPC   C3B 7437   4.911   8.537   7.906
  209POPC   C4B 7438   5.245   8.595   7.588
  210POPC   NC3 7439  36.941  43.345   9.724
  210POPC   PO4 7440  36.572  42.937   9.438
  210POPC   GL1 7441  36.958  43.124   9.245
  210POPC   GL2 7442  36.995  43.473   9.160
  210POPC   C1A 7443  37.035  43.151   8.790
  210POPC   D2A 7444  36.790  43.135   8.411
  210POPC   C3A 7445  36.956  43.092   7.996
  210POPC   C4A 7446  36.926  42.833   7.632
  210POPC   C1B 7447  36.756  43.599   8.748
  210POPC   C2B 7448  36.814  43.625   8.283
  210POPC   C3B 7449  36.722  43.531   7.837
  210POPC   C4B 7450  36.646  43.551   7.344
  211POPC   NC3 7451  41.782  24.910   9.486
  211POPC   PO4 7452  41.784  25.647   9.543
  211POPC   GL1 7453  41.727  25.353   9.213
  211POPC   GL2 7454  42.045  25.421   9.102
  211POPC   C1A 7455  41.720  25.020   8.857
  211POPC   D2A 7456  41.837  25.075   8.442
  211POPC   C3A 7457  41.555  25.070   8.092
  211POPC   C4A 7458  41.641  25.146   7.683
  211POPC   C1B 7459  41.798  25.517   8.726
  211POPC   C2B 7460  41.584  25.530   8.322
  211POPC   C3B 7461  41.793  25.559   7.903
  211POPC   C4B 7462  41.847  25.542   7.425
  212POPC   NC3 7463  26.289   5.352   9.550
  212POPC   PO4 7464  25.801   4.839   9.569
  212POPC   GL1 7465  25.993   5.016   9.243
  212POPC   GL2 7466  26.271   4.785   9.257
  212POPC   C1A 7467  25.906   4.824   8.856
  212POPC   D2A 7468  26.096   4.840   8.479
  212POPC   C3A 7469  25.791   4.921   8.157
  212POPC   C4A 7470  25.825   5.123   7.791
  212POPC   C1B 7471  26.385   5.017   8.889
  212POPC   C2B 7472  26.506   5.220   8.522
  212POPC   C3B 7473  26.300   5.153   8.137
  212POPC   C4B 7474  26.356   5.108   7.719
  213POPC   NC3 7475  18.290  14.764   9.364
  213POPC   PO4 7476  18.393  15.324   9.602
  213POPC   GL1 7477  18.400  15.263   9.180
  213POPC   GL2 7478  18.041  15.191   9.127
  213POPC   C1A 7479  18.629  15.379   8.811
  213POPC   D2A 7480  18.644  15.141   8.466
  213POPC   C3A 7481  18.384  15.191   8.139
  213POPC   C4A 7482  18.538  15.168   7.725
  213POPC   C1B 7483  18.186  15.006   8.718
  213POPC   C2B 7484  18.035  14.851   8.308
  213POPC   C3B 7485  18.089  14.905   7.839
  213POPC   C4B 7486  17.933  14.625   7.562
  214POPC   NC3 7487   8.416  17.581   9.603
  214POPC   PO4 7488   7.908  17.221   9.668
  214POPC   GL1 7489   8.004  17.392   9.217
  214POPC   GL2 7490   8.247  17.661   9.120
  214POPC   C1A 7491   7.878  17.594   8.789
  214POPC   D2A 7492   8.113  17.643   8.390
  214POPC   C3A 7493   7.956  17.563   7.959
  214POPC   C4A 7494   8.106  17.815   7.610
  214POPC   C1B 7495   8.434  17.866   8.751
  214POPC   C2B 7496   8.487  17.992   8.305
  214POPC   C3B 7497   8.467  17.696   7.948
  214POPC   C4B 7498   8.540  17.556   7.506
  215POPC   NC3 7499  23.303   1.764   9.430
  215POPC   PO4 7500  22.705   1.938   9.592
  215POPC   GL1 7501  22.890   1.981   9.188
  215POPC   GL2 7502  23.166   2.233   9.158
  215POPC   C1A 7503  22.985   1.854   8.765
  215POPC   D2A 7504  22.907   2.046   8.353
  215POPC   C3A 7505  22.962   1.810   7.979
  215POPC   C4A 7506  23.295   1.710   7.728
  215POPC   C1B 7507  23.080   2.388   8.735
  215POPC   C2B 7508  23.306   2.405   8.340
  215POPC   C3B 7509  23.156   2.283   7.965
  215POPC   C4B 7510  22.688   2.321   7.911
  216POPC   NC3 7511  31.011  24.275   9.500
  216POPC   PO4 7512  30.584  24.801   9.548
  216POPC   GL1 7513  30.494  24.542   9.181
  216POPC   GL2 7514  30.535  24.183   9.226
  216POPC   C1A 7515  30.397  24.627   8.743
  216POPC   D2A 7516  30.553  24.532   8.330
  216POPC   C3A 7517  30.535  24.715   7.894
  216POPC   C4A 7518  30.956  24.807   7.699
  216POPC   C1B 7519  30.767  24.268   8.822
  216POPC   C2B 7520  30.921  24.170   8.386
  216POPC   C3B 7521  30.842  24.303   7.937
  216POPC   C4B 7522  31.013  24.326   7.495
  217POPC   NC3 7523   0.238  37.365   9.714
  217POPC   PO4 7524   0.737  37.784   9.775
  217POPC   GL1 7525   0.520  37.817   9.320
  217POPC   GL2 7526   0.371  37.463   9.235
  217POPC   C1A 7527   0.418  37.836   8.898
  217POPC   D2A 7528   0.393  37.633   8.513
  217POPC   C3A 7529   0.501  37.891   8.150
  217POPC   C4A 7530   0.344  37.842   7.734
  217POPC   C1B 7531   0.117  37.289   8.909
  217POPC   C2B 7532   0.111  37.177   8.466
  217POPC   C3B 7533   0.252  37.397   8.083
  217POPC   C4B 7534   0.340  37.289   7.648
  218POPC   NC3 7535  35.938   2.417   9.272
  218POPC   PO4 7536  36.457   2.750   9.533
  218POPC   GL1 7537  36.261   2.857   9.122
  218POPC   GL2 7538  35.925   2.974   9.079
  218POPC   C1A 7539  36.249   2.856   8.671
  218POPC   D2A 7540  35.989   3.094   8.375
  218POPC   C3A 7541  35.940   3.093   7.921
  218POPC   C4A 7542  36.114   2.921   7.523
  218POPC   C1B 7543  35.765   2.763   8.732
  218POPC   C2B 7544  35.854   2.595   8.340
  218POPC   C3B 7545  35.837   2.605   7.912
  218POPC   C4B 7546  35.845   2.423   7.527
  219POPC   NC3 7547  13.215  16.062   9.530
  219POPC   PO4 7548  12.790  16.581   9.614
  219POPC   GL1 7549  12.895  16.711   9.192
  219POPC   GL2 7550  13.091  16.410   9.148
  219POPC   C1A 7551  12.823  16.977   8.822
  219POPC   D2A 7552  12.515  17.167   8.529
  219POPC   C3A 7553  12.572  17.057   8.086
  219POPC   C4A 7554  12.446  16.661   7.920
  219POPC   C1B 7555  12.711  16.433   8.830
  219POPC   C2B 7556  12.645  16.659   8.446
  219POPC   C3B 7557  12.941  16.640   8.119
  219POPC   C4B 7558  12.880  16.472   7.736
  220POPC   NC3 7559  38.872  25.636   9.407
  220POPC   PO4 7560  39.409  26.028   9.483
  220POPC   GL1 7561  39.225  26.138   9.100
  220POPC   GL2 7562  39.336  25.884   8.860
  220POPC   C1A 7563  38.927  26.145   8.747
  220POPC   D2A 7564  39.038  26.333   8.365
  220POPC   C3A 7565  39.218  26.056   8.096
  220POPC   C4A 7566  39.316  26.117   7.655
  220POPC   C1B 7567  39.693  25.841   8.584
  220POPC   C2B 7568  39.653  25.790   8.158
  220POPC   C3B 7569  39.655  25.754   7.719
  220POPC   C4B 7570  39.602  25.816   7.281
  221POPC   NC3 7571  34.729  32.234   9.634
  221POPC   PO4 7572  34.472  32.544   9.191
  221POPC   GL1 7573  34.602  32.183   8.997
  221POPC   GL2 7574  34.848  31.986   9.190
  221POPC   C1A 7575  34.462  32.160   8.571
  221POPC   D2A 7576  34.599  32.433   8.229
  221POPC   C3A 7577  34.373  32.393   7.866
  221POPC   C4A 7578  34.482  32.410   7.463
  221POPC   C1B 7579  34.772  31.762   8.791
  221POPC   C2B 7580  34.860  31.907   8.373
  221POPC   C3B 7581  35.070  32.203   8.147
  221POPC   C4B 7582  34.886  32.287   7.739
  222POPC   NC3 7583  44.390   5.592   9.571
  222POPC   PO4 7584  44.809   6.061   9.505
  222POPC   GL1 7585  44.543   5.895   9.159
  222POPC   GL2 7586  44.578   5.566   9.105
  222POPC   C1A 7587  44.593   5.958   8.705
  222POPC   D2A 7588  44.811   6.132   8.349
  222POPC   C3A 7589  44.683   5.897   8.004
  222POPC   C4A 7590  44.544   5.968   7.583
  222POPC   C1B 7591  44.847   5.474   8.799
  222POPC   C2B 7592  44.830   5.601   8.412
  222POPC   C3B 7593  44.558   5.421   8.138
  222POPC   C4B 7594  44.596   5.494   7.700
  223POPC   NC3 7595  18.940  36.442   9.458
  223POPC   PO4 7596  19.086  35.770   9.489
  223POPC   GL1 7597  19.269  35.954   9.173
  223POPC   GL2 7598  19.577  35.835   9.145
  223POPC   C1A 7599  19.152  36.201   8.822
  223POPC   D2A 7600  18.799  36.168   8.514
  223POPC   C3A 7601  18.891  36.206   8.072
  223POPC   C4A 7602  19.062  35.860   7.917
  223POPC   C1B 7603  19.403  35.763   8.714
  223POPC   C2B 7604  19.296  36.036   8.356
  223POPC   C3B 7605  19.430  36.248   7.988
  223POPC   C4B 7606  19.642  36.138   7.578
  224POPC   NC3 7607  27.936   1.913   9.538
  224POPC   PO4 7608  28.571   2.241   9.507
  224POPC   GL1 7609  28.251   2.093   9.172
  224POPC   GL2 7610  28.063   1.752   9.091
  224POPC   C1A 7611  28.290   2.100   8.734
  224POPC   D2A 7612  28.499   1.960   8.383
  224POPC   C3A 7613  28.379   2.174   8.049
  224POPC   C4A 7614  28.443   1.974   7.709
  224POPC   C1B 7615  27.784   1.809   8.768
  224POPC   C2B 7616  27.993   1.799   8.415
  224POPC   C3B 7617  28.133   1.705   8.048
  224POPC   C4B 7618  27.959   1.817   7.670
  225POPC   NC3 7619  15.524   8.774   9.419
  225POPC   PO4 7620  15.044   9.196   9.573
  225POPC   GL1 7621  15.213   9.121   9.201
  225POPC   GL2 7622  15.086   8.765   9.137
  225POPC   C1A 7623  15.142   9.138   8.789
  225POPC   D2A 7624  14.960   8.849   8.528
  225POPC   C3A 7625  15.062   8.831   8.105
  225POPC   C4A 7626  14.817   9.041   7.806
  225POPC   C1B 7627  15.319   8.593   8.793
  225POPC   C2B 7628  15.476   8.783   8.412
  225POPC   C3B 7629  15.541   9.035   8.042
  225POPC   C4B 7630  15.350   8.946   7.664
  226POPC   NC3 7631  42.712  20.214   9.377
  226POPC   PO4 7632  43.194  20.659   9.534
  226POPC   GL1 7633  43.112  20.504   9.143
  226POPC   GL2 7634  43.453  20.592   9.082
  226POPC   C1A 7635  43.058  20.769   8.771
  226POPC   D2A 7636  42.904  20.917   8.356
  226POPC   C3A 7637  43.057  20.852   7.916
  226POPC   C4A 7638  42.825  20.603   7.597
  226POPC   C1B 7639  43.552  20.716   8.698
  226POPC   C2B 7640  43.354  20.665   8.313
  226POPC   C3B 7641  43.402  20.493   7.888
  226POPC   C4B 7642  43.320  20.581   7.435
  227POPC   NC3 7643  23.336  15.458   9.490
  227POPC   PO4 7644  23.824  15.017   9.382
  227POPC   GL1 7645  23.894  15.248   9.040
  227POPC   GL2 7646  23.666  15.482   9.097
  227POPC   C1A 7647  23.865  15.134   8.644
  227POPC   D2A 7648  23.585  15.067   8.349
  227POPC   C3A 7649  23.808  14.961   8.016
  227POPC   C4A 7650  23.849  15.100   7.636
  227POPC   C1B 7651  23.446  15.394   8.733
  227POPC   C2B 7652  23.549  15.575   8.374
  227POPC   C3B 7653  23.634  15.440   8.006
  227POPC   C4B 7654  23.470  15.435   7.655
  228POPC   NC3 7655  40.213  35.409   9.550
  228POPC   PO4 7656  39.545  35.171   9.545
  228POPC   GL1 7657  39.859  35.323   9.180
  228POPC   GL2 7658  40.183  35.141   9.105
  228POPC   C1A 7659  40.116  35.520   8.790
  228POPC   D2A 7660  40.044  35.643   8.352
  228POPC   C3A 7661  40.317  35.643   8.000
  228POPC   C4A 7662  40.147  35.608   7.600
  228POPC   C1B 7663  40.250  34.884   8.740
  228POPC   C2B 7664  40.220  35.163   8.388
  228POPC   C3B 7665  40.098  35.199   7.969
  228POPC   C4B 7666  40.243  35.085   7.563
  229POPC   NC3 7667  25.414  30.916   9.476
  229POPC   PO4 7668  24.863  30.496   9.454
  229POPC   GL1 7669  25.052  30.741   9.135
  229POPC   GL2 7670  25.023  31.066   8.985
  229POPC   C1A 7671  25.328  30.629   8.812
  229POPC   D2A 7672  25.461  30.398   8.463
  229POPC   C3A 7673  25.295  30.610   8.130
  229POPC   C4A 7674  25.085  30.721   7.731
  229POPC   C1B 7675  25.431  31.139   8.806
  229POPC   C2B 7676  25.506  31.028   8.386
  229POPC   C3B 7677  25.307  31.105   7.980
  229POPC   C4B 7678  24.858  31.170   7.765
  230POPC   NC3 7679  25.816  33.481   9.461
  230POPC   PO4 7680  26.030  34.094   9.751
  230POPC   GL1 7681  26.088  33.917   9.279
  230POPC   GL2 7682  25.749  33.891   9.147
  230POPC   C1A 7683  26.178  33.925   8.768
  230POPC   D2A 7684  26.161  33.764   8.278
  230POPC   C3A 7685  26.100  34.042   7.884
  230POPC   C4A 7686  26.175  34.194   7.388
  230POPC   C1B 7687  25.740  33.657   8.769
  230POPC   C2B 7688  25.639  33.828   8.382
  230POPC   C3B 7689  25.643  33.801   7.984
  230POPC   C4B 7690  25.616  33.453   7.751
  231POPC   NC3 7691  18.533  41.324   9.512
  231POPC   PO4 7692  18.054  41.801   9.555
  231POPC   GL1 7693  18.214  41.814   9.133
  231POPC   GL2 7694  18.241  41.466   9.130
  231POPC   C1A 7695  18.446  41.760   8.713
  231POPC   D2A 7696  18.420  41.941   8.330
  231POPC   C3A 7697  18.346  41.757   7.943
  231POPC   C4A 7698  18.004  41.868   7.656
  231POPC   C1B 7699  18.012  41.505   8.777
  231POPC   C2B 7700  18.008  41.659   8.392
  231POPC   C3B 7701  17.989  41.416   8.052
  231POPC   C4B 7702  17.823  41.403   7.680
  232POPC   NC3 7703   6.303  40.251   9.475
  232POPC   PO4 7704   6.534  40.884   9.603
  232POPC   GL1 7705   6.554  40.637   9.238
  232POPC   GL2 7706   6.799  40.836   9.092
  232POPC   C1A 7707   6.451  40.528   8.819
  232POPC   D2A 7708   6.613  40.735   8.454
  232POPC   C3A 7709   6.372  40.647   8.085
  232POPC   C4A 7710   6.433  40.678   7.624
  232POPC   C1B 7711   7.056  40.904   8.743
  232POPC   C2B 7712   7.055  40.985   8.334
  232POPC   C3B 7713   6.779  40.967   7.976
  232POPC   C4B 7714   6.806  41.310   7.736
  233POPC   NC3 7715  28.123  43.419   9.633
  233POPC   PO4 7716  28.482  42.861   9.392
  233POPC   GL1 7717  28.398  43.244   9.174
  233POPC   GL2 7718  28.061  43.323   9.146
  233POPC   C1A 7719  28.613  43.207   8.778
  233POPC   D2A 7720  28.578  43.007   8.392
  233POPC   C3A 7721  28.734  43.116   8.009
  233POPC   C4A 7722  28.771  42.716   7.799
  233POPC   C1B 7723  28.110  43.048   8.790
  233POPC   C2B 7724  28.083  42.968   8.360
  233POPC   C3B 7725  28.240  43.054   7.948
  233POPC   C4B 7726  28.209  42.791   7.543
  234POPC   NC3 7727   2.257  19.484   9.429
  234POPC   PO4 7728   2.062  20.170   9.476
  234POPC   GL1 7729   1.857  19.989   9.167
  234POPC   GL2 7730   1.562  19.866   9.199
  234POPC   C1A 7731   1.829  19.989   8.758
  234POPC   D2A 7732   2.158  19.845   8.523
  234POPC   C3A 7733   2.020  19.855   8.115
  234POPC   C4A 7734   2.229  19.748   7.761
  234POPC   C1B 7735   1.576  19.559   8.884
  234POPC   C2B 7736   1.741  19.534   8.485
  234POPC   C3B 7737   1.657  19.478   8.082
  234POPC   C4B 7738   1.738  19.664   7.684
  235POPC   NC3 7739   5.792  41.706   9.494
  235POPC   PO4 7740   5.811  41.060   9.209
  235POPC   GL1 7741   5.776  41.473   9.024
  235POPC   GL2 7742   5.989  41.793   9.059
  235POPC   C1A 7743   5.863  41.400   8.609
  235POPC   D2A 7744   5.641  41.344   8.225
  235POPC   C3A 7745   5.872  41.456   7.866
  235POPC   C4A 7746   5.568  41.627   7.592
  235POPC   C1B 7747   5.807  41.917   8.702
  235POPC   C2B 7748   5.901  41.791   8.293
  235POPC   C3B 7749   5.759  41.975   7.958
  235POPC   C4B 7750   5.977  41.917   7.618
  236POPC   NC3 7751  15.941  30.808   9.576
  236POPC   PO4 7752  16.507  30.592   9.220
  236POPC   GL1 7753  16.102  30.681   9.084
  236POPC   GL2 7754  16.024  31.038   9.026
  236POPC   C1A 7755  16.035  30.715   8.640
  236POPC   D2A 7756  16.283  30.584   8.296
  236POPC   C3A 7757  16.062  30.711   7.949
  236POPC   C4A 7758  15.961  30.473   7.601
  236POPC   C1B 7759  15.635  31.006   8.776
  236POPC   C2B 7760  15.511  30.768   8.397
  236POPC   C3B 7761  15.461  31.016   8.013
  236POPC   C4B 7762  15.756  31.022   7.678
  237POPC   NC3 7763  25.739  14.591   9.392
  237POPC   PO4 7764  26.278  14.218   9.458
  237POPC   GL1 7765  26.071  14.356   9.102
  237POPC   GL2 7766  26.244  14.589   8.920
  237POPC   C1A 7767  25.798  14.533   8.735
  237POPC   D2A 7768  25.967  14.676   8.341
  237POPC   C3A 7769  25.628  14.578   8.064
  237POPC   C4A 7770  25.715  14.339   7.711
  237POPC   C1B 7771  26.414  14.431   8.579
  237POPC   C2B 7772  26.288  14.191   8.255
  237POPC   C3B 7773  26.166  14.399   7.916
  237POPC   C4B 7774  26.152  14.345   7.479
  238POPC   NC3 7775  20.822  31.281  10.090
  238POPC   PO4 7776  20.785  31.583   9.476
  238POPC   GL1 7777  20.690  31.457   9.078
  238POPC   GL2 7778  20.741  31.112   9.140
  238POPC   C1A 7779  20.692  31.355   8.639
  238POPC   D2A 7780  20.810  31.591   8.278
  238POPC   C3A 7781  20.453  31.523   8.059
  238POPC   C4A 7782  20.234  31.502   7.682
  238POPC   C1B 7783  20.857  30.886   8.776
  238POPC   C2B 7784  20.660  30.794   8.393
  238POPC   C3B 7785  20.824  30.901   8.005
  238POPC   C4B 7786  20.660  31.192   7.712
  239POPC   NC3 7787   4.433  36.606   9.456
  239POPC   PO4 7788   4.439  35.984   9.654
  239POPC   GL1 7789   4.458  36.105   9.239
  239POPC   GL2 7790   4.130  36.243   9.188
  239POPC   C1A 7791   4.425  36.069   8.791
  239POPC   D2A 7792   4.238  36.202   8.416
  239POPC   C3A 7793   4.290  35.944   8.062
  239POPC   C4A 7794   4.344  36.107   7.685
  239POPC   C1B 7795   3.955  36.430   8.801
  239POPC   C2B 7796   3.956  36.631   8.397
  239POPC   C3B 7797   4.142  36.529   8.010
  239POPC   C4B 7798   3.954  36.464   7.642
  240POPC   NC3 7799  13.878  26.295   9.561
  240POPC   PO4 7800  13.392  25.968   9.416
  240POPC   GL1 7801  13.675  26.082   9.141
  240POPC   GL2 7802  13.730  25.791   8.965
  240POPC   C1A 7803  13.766  26.252   8.762
  240POPC   D2A 7804  13.599  26.176   8.381
  240POPC   C3A 7805  13.921  26.124   8.122
  240POPC   C4A 7806  14.006  25.876   7.830
  240POPC   C1B 7807  13.436  25.737   8.615
  240POPC   C2B 7808  13.594  25.681   8.197
  240POPC   C3B 7809  13.608  25.550   7.786
  240POPC   C4B 7810  13.620  25.728   7.398
  241POPC   NC3 7811   0.693   6.953   9.183
  241POPC   PO4 7812   0.347   6.477   9.509
  241POPC   GL1 7813   0.283   6.317   9.105
  241POPC   GL2 7814   0.319   6.644   8.979
  241POPC   C1A 7815   0.475   6.273   8.678
  241POPC   D2A 7816   0.624   6.339   8.266
  241POPC   C3A 7817   0.347   6.337   7.895
  241POPC   C4A 7818   0.372   6.316   7.440
  241POPC   C1B 7819   0.441   6.781   8.547
  241POPC   C2B 7820   0.486   6.811   8.091
  241POPC   C3B 7821   0.415   7.127   7.746
  241POPC   C4B 7822   0.492   7.161   7.283
  242POPC   NC3 7823  36.094  36.608   9.385
  242POPC   PO4 7824  36.428  37.217   9.481
  242POPC   GL1 7825  36.287  37.248   9.046
  242POPC   GL2 7826  36.101  36.916   8.968
  242POPC   C1A 7827  36.316  37.192   8.592
  242POPC   D2A 7828  36.024  36.896   8.402
  242POPC   C3A 7829  35.910  37.038   8.030
  242POPC   C4A 7830  36.021  37.218   7.651
  242POPC   C1B 7831  36.066  36.495   8.729
  242POPC   C2B 7832  36.162  36.335   8.319
  242POPC   C3B 7833  36.100  36.553   7.948
  242POPC   C4B 7834  36.342  36.844   7.745
  243POPC   NC3 7835   3.970  42.093   9.555
  243POPC   PO4 7836   3.538  42.588   9.735
  243POPC   GL1 7837   3.646  42.441   9.304
  243POPC   GL2 7838   3.554  42.059   9.247
  243POPC   C1A 7839   3.537  42.433   8.853
  243POPC   D2A 7840   3.637  42.588   8.442
  243POPC   C3A 7841   3.709  42.325   8.119
  243POPC   C4A 7842   3.507  42.289   7.724
  243POPC   C1B 7843   3.689  41.918   8.829
  243POPC   C2B 7844   3.475  42.033   8.483
  243POPC   C3B 7845   3.336  41.959   8.091
  243POPC   C4B 7846   3.722  41.872   7.904
  244POPC   NC3 7847  44.845   6.517   9.484
  244POPC   PO4 7848  44.519   6.994   9.292
  244POPC   GL1 7849  44.802   6.685   9.012
  244POPC   GL2 7850  44.788   6.315   9.013
  244POPC   C1A 7851  44.988   6.557   8.595
  244POPC   D2A 7852   0.014   6.864   8.242
  244POPC   C3A 7853  44.799   6.846   7.831
  244POPC   C4A 7854  44.338   6.736   7.725
  244POPC   C1B 7855  44.499   6.460   8.671
  244POPC   C2B 7856  44.564   6.601   8.249
  244POPC   C3B 7857  44.652   6.373   7.883
  244POPC   C4B 7858  44.866   6.376   7.506
  245POPC   NC3 7859  39.887  36.396   9.408
  245POPC   PO4 7860  39.899  35.747   9.499
  245POPC   GL1 7861  39.916  35.868   9.112
  245POPC   GL2 7862  40.227  36.050   9.201
  245POPC   C1A 7863  39.792  35.937   8.676
  245POPC   D2A 7864  39.970  36.193   8.334
  245POPC   C3A 7865  39.984  36.051   7.899
  245POPC   C4A 7866  40.117  36.414   7.667
  245POPC   C1B 7867  40.289  36.069   8.768
  245POPC   C2B 7868  40.441  35.960   8.375
  245POPC   C3B 7869  40.486  36.125   7.957
  245POPC   C4B 7870  40.553  35.902   7.610
  246POPC   NC3 7871  17.266   6.314   9.354
  246POPC   PO4 7872  17.761   5.821   9.439
  246POPC   GL1 7873  17.548   5.960   9.100
  246POPC   GL2 7874  17.760   6.242   9.161
  246POPC   C1A 7875  17.395   6.119   8.704
  246POPC   D2A 7876  17.312   6.209   8.262
  246POPC   C3A 7877  17.367   5.827   8.054
  246POPC   C4A 7878  17.279   5.529   7.760
  246POPC   C1B 7879  17.856   6.303   8.764
  246POPC   C2B 7880  17.800   6.375   8.353
  246POPC   C3B 7881  18.018   6.181   8.034
  246POPC   C4B 7882  17.715   6.034   7.751
  247POPC   NC3 7883  22.647   4.898   9.474
  247POPC   PO4 7884  23.291   5.212   9.566
  247POPC   GL1 7885  23.131   5.341   9.131
  247POPC   GL2 7886  22.851   5.154   9.035
  247POPC   C1A 7887  23.138   5.398   8.671
  247POPC   D2A 7888  23.219   5.496   8.249
  247POPC   C3A 7889  23.043   5.255   7.970
  247POPC   C4A 7890  22.707   5.380   7.739
  247POPC   C1B 7891  22.711   4.906   8.692
  247POPC   C2B 7892  22.790   4.779   8.285
  247POPC   C3B 7893  22.696   4.904   7.878
  247POPC   C4B 7894  22.588   5.008   7.417
  248POPC   NC3 7895  25.005  27.993   9.409
  248POPC   PO4 7896  25.257  27.324   9.544
  248POPC   GL1 7897  25.131  27.520   9.215
  248POPC   GL2 7898  24.969  27.247   9.068
  248POPC   C1A 7899  25.391  27.593   8.893
  248POPC   D2A 7900  25.518  27.497   8.495
  248POPC   C3A 7901  25.471  27.736   8.151
  248POPC   C4A 7902  25.298  27.595   7.771
  248POPC   C1B 7903  24.959  27.392   8.649
  248POPC   C2B 7904  25.018  27.484   8.231
  248POPC   C3B 7905  24.813  27.667   7.896
  248POPC   C4B 7906  24.847  27.537   7.485
  249POPC   NC3 7907  19.307  24.574   9.555
  249POPC   PO4 7908  20.001  24.420   9.505
  249POPC   GL1 7909  19.723  24.508   9.195
  249POPC   GL2 7910  19.878  24.252   9.013
  249POPC   C1A 7911  19.619  24.598   8.754
  249POPC   D2A 7912  19.840  24.776   8.394
  249POPC   C3A 7913  19.704  24.627   7.999
  249POPC   C4A 7914  19.864  24.709   7.635
  249POPC   C1B 7915  20.077  24.374   8.652
  249POPC   C2B 7916  19.955  24.253   8.253
  249POPC   C3B 7917  20.063  24.246   7.814
  249POPC   C4B 7918  20.020  24.260   7.381
  250POPC   NC3 7919  30.930  39.803   9.339
  250POPC   PO4 7920  30.690  40.380   9.667
  250POPC   GL1 7921  30.676  40.218   9.207
  250POPC   GL2 7922  30.725  40.466   9.018
  250POPC   C1A 7923  30.692  40.032   8.722
  250POPC   D2A 7924  30.492  39.789   8.345
  250POPC   C3A 7925  30.643  39.775   7.916
  250POPC   C4A 7926  30.814  40.134   7.668
  250POPC   C1B 7927  30.334  40.386   8.829
  250POPC   C2B 7928  30.261  40.230   8.454
  250POPC   C3B 7929  30.496  40.245   8.094
  250POPC   C4B 7930  30.432  40.454   7.743
  251POPC   NC3 7931   8.271  27.711   9.599
  251POPC   PO4 7932   7.644  27.587   9.620
  251POPC   GL1 7933   7.963  27.514   9.255
  251POPC   GL2 7934   8.002  27.854   9.139
  251POPC   C1A 7935   8.350  27.523   8.953
  251POPC   D2A 7936   8.325  27.611   8.508
  251POPC   C3A 7937   8.469  27.689   8.075
  251POPC   C4A 7938   8.391  27.619   7.600
  251POPC   C1B 7939   8.003  28.004   8.666
  251POPC   C2B 7940   8.064  27.966   8.204
  251POPC   C3B 7941   7.932  27.771   7.805
  251POPC   C4B 7942   7.618  27.785   7.445
  252POPC   NC3 7943  34.825  19.844   9.596
  252POPC   PO4 7944  34.337  19.555   9.185
  252POPC   GL1 7945  34.505  19.924   8.993
  252POPC   GL2 7946  34.818  20.009   9.100
  252POPC   C1A 7947  34.418  19.898   8.583
  252POPC   D2A 7948  34.397  19.533   8.359
  252POPC   C3A 7949  34.706  19.671   8.076
  252POPC   C4A 7950  34.645  19.691   7.643
  252POPC   C1B 7951  35.031  20.094   8.735
  252POPC   C2B 7952  35.163  19.913   8.353
  252POPC   C3B 7953  35.141  20.106   7.985
  252POPC   C4B 7954  34.782  20.131   7.819
  253POPC   NC3 7955  19.941  19.556   9.939
  253POPC   PO4 7956  19.828  19.856   9.314
  253POPC   GL1 7957  19.934  19.739   8.927
  253POPC   GL2 7958  19.586  19.781   8.866
  253POPC   C1A 7959  19.932  19.942   8.502
  253POPC   D2A 7960  19.595  20.142   8.278
  253POPC   C3A 7961  19.631  20.075   7.886
  253POPC   C4A 7962  19.977  19.782   7.792
  253POPC   C1B 7963  19.659  19.505   8.546
  253POPC   C2B 7964  19.634  19.637   8.146
  253POPC   C3B 7965  19.488  19.617   7.722
  253POPC   C4B 7966  19.404  19.526   7.260
  254POPC   NC3 7967  33.286  13.096   9.422
  254POPC   PO4 7968  32.851  12.576   9.334
  254POPC   GL1 7969  33.090  12.823   9.026
  254POPC   GL2 7970  33.464  12.803   8.976
  254POPC   C1A 7971  33.202  13.127   8.697
  254POPC   D2A 7972  33.424  13.161   8.301
  254POPC   C3A 7973  33.206  12.845   8.074
  254POPC   C4A 7974  32.912  12.530   7.910
  254POPC   C1B 7975  33.285  12.456   8.720
  254POPC   C2B 7976  33.184  12.291   8.330
  254POPC   C3B 7977  33.391  12.376   7.976
  254POPC   C4B 7978  33.570  12.472   7.591
  255POPC   NC3 7979  43.115  35.095   9.622
  255POPC   PO4 7980  43.132  34.403   9.577
  255POPC   GL1 7981  43.077  34.627   9.196
  255POPC   GL2 7982  43.229  34.296   9.063
  255POPC   C1A 7983  43.151  34.716   8.762
  255POPC   D2A 7984  43.298  34.857   8.363
  255POPC   C3A 7985  43.052  34.660   8.040
  255POPC   C4A 7986  43.220  34.570   7.632
  255POPC   C1B 7987  42.825  34.341   8.842
  255POPC   C2B 7988  42.679  34.465   8.446
  255POPC   C3B 7989  42.608  34.200   8.107
  255POPC   C4B 7990  42.778  34.340   7.725
  256POPC   NC3 7991  33.803  15.098   9.928
  256POPC   PO4 7992  33.578  15.442   9.472
  256POPC   GL1 7993  33.766  15.209   9.182
  256POPC   GL2 7994  34.041  15.249   9.062
  256POPC   C1A 7995  33.583  15.117   8.793
  256POPC   D2A 7996  33.440  15.344   8.423
  256POPC   C3A 7997  33.621  15.215   8.038
  256POPC   C4A 7998  33.721  14.960   7.718
  256POPC   C1B 7999  34.054  14.952   8.720
  256POPC   C2B 8000  34.035  15.024   8.273
  256POPC   C3B 8001  34.171  14.798   7.908
  256POPC   C4B 8002  34.113  14.850   7.438
  257POPC   NC3 8003   6.075  44.067   9.542
  257POPC   PO4 8004   5.582  43.607   9.431
  257POPC   GL1 8005   5.586  43.775   9.037
  257POPC   GL2 8006   5.860  43.985   9.060
  257POPC   C1A 8007   5.711  43.800   8.614
  257POPC   D2A 8008   5.798  44.002   8.223
  257POPC   C3A 8009   5.536  43.873   7.874
  257POPC   C4A 8010   5.483  43.752   7.426
  257POPC   C1B 8011   6.188  43.897   8.738
  257POPC   C2B 8012   6.334  44.124   8.355
  257POPC   C3B 8013   6.238  44.107   7.930
  257POPC   C4B 8014   5.985  43.942   7.616
  258POPC   NC3 8015  17.720  42.140   9.496
  258POPC   PO4 8016  17.347  42.730   9.356
  258POPC   GL1 8017  17.535  42.435   9.127
  258POPC   GL2 8018  17.261  42.209   9.222
  258POPC   C1A 8019  17.696  42.469   8.721
  258POPC   D2A 8020  17.564  42.747   8.386
  258POPC   C3A 8021  17.644  42.529   8.002
  258POPC   C4A 8022  17.426  42.562   7.611
  258POPC   C1B 8023  17.233  42.226   8.772
  258POPC   C2B 8024  17.403  42.231   8.350
  258POPC   C3B 8025  17.238  42.182   7.926
  258POPC   C4B 8026  17.159  42.154   7.461
  259POPC   NC3 8027   3.190  39.866   9.458
  259POPC   PO4 8028   2.557  40.082   9.485
  259POPC   GL1 8029   2.747  40.021   9.143
  259POPC   GL2 8030   2.788  39.696   9.090
  259POPC   C1A 8031   2.539  40.043   8.750
  259POPC   D2A 8032   2.681  40.075   8.338
  259POPC   C3A 8033   2.519  40.262   7.993
  259POPC   C4A 8034   2.482  40.007   7.658
  259POPC   C1B 8035   2.910  39.686   8.658
  259POPC   C2B 8036   2.958  39.623   8.236
  259POPC   C3B 8037   2.944  39.884   7.895
  259POPC   C4B 8038   2.957  39.765   7.480
  260POPC   NC3 8039   7.778  11.541   9.545
  260POPC   PO4 8040   7.245  11.092   9.642
  260POPC   GL1 8041   7.456  11.218   9.284
  260POPC   GL2 8042   7.328  11.531   9.187
  260POPC   C1A 8043   7.496  11.189   8.840
  260POPC   D2A 8044   7.407  10.919   8.515
  260POPC   C3A 8045   7.449  10.993   8.053
  260POPC   C4A 8046   7.583  11.021   7.613
  260POPC   C1B 8047   7.206  11.626   8.752
  260POPC   C2B 8048   7.430  11.699   8.362
  260POPC   C3B 8049   7.437  11.526   7.936
  260POPC   C4B 8050   7.385  11.468   7.486
  261POPC   NC3 8051   8.541   8.057   9.413
  261POPC   PO4 8052   9.221   8.246   9.542
  261POPC   GL1 8053   9.046   8.064   9.224
  261POPC   GL2 8054   8.881   8.351   9.144
  261POPC   C1A 8055   8.923   7.974   8.803
  261POPC   D2A 8056   9.047   8.262   8.486
  261POPC   C3A 8057   8.972   8.083   8.082
  261POPC   C4A 8058   9.227   8.182   7.733
  261POPC   C1B 8059   8.646   8.461   8.778
  261POPC   C2B 8060   8.532   8.340   8.391
  261POPC   C3B 8061   8.587   8.403   7.992
  261POPC   C4B 8062   8.709   8.166   7.633
  262POPC   NC3 8063  30.183  44.503   9.458
  262POPC   PO4 8064  29.548  44.218   9.434
  262POPC   GL1 8065  29.645  44.447   9.070
  262POPC   GL2 8066  29.973  44.547   9.002
  262POPC   C1A 8067  29.474  44.577   8.700
  262POPC   D2A 8068  29.484  44.809   8.327
  262POPC   C3A 8069  29.792  44.656   8.040
  262POPC   C4A 8070  29.762  44.572   7.591
  262POPC   C1B 8071  30.271  44.383   8.718
  262POPC   C2B 8072  30.487  44.412   8.369
  262POPC   C3B 8073  30.510  44.333   7.972
  262POPC   C4B 8074  30.251  44.569   7.726
  263POPC   NC3 8075   5.765  11.600   9.337
  263POPC   PO4 8076   6.061  12.069   9.729
  263POPC   GL1 8077   6.095  12.040   9.259
  263POPC   GL2 8078   5.858  12.261   9.076
  263POPC   C1A 8079   6.252  12.038   8.830
  263POPC   D2A 8080   6.253  12.211   8.435
  263POPC   C3A 8081   5.927  12.104   8.174
  263POPC   C4A 8082   5.978  12.118   7.748
  263POPC   C1B 8083   5.749  12.082   8.675
  263POPC   C2B 8084   5.455  11.767   8.546
  263POPC   C3B 8085   5.484  11.764   8.130
  263POPC   C4B 8086   5.426  12.035   7.753
  264POPC   NC3 8087  17.843  13.136   9.407
  264POPC   PO4 8088  17.289  12.813   9.573
  264POPC   GL1 8089  17.360  12.965   9.111
  264POPC   GL2 8090  17.672  13.070   8.952
  264POPC   C1A 8091  17.290  13.129   8.655
  264POPC   D2A 8092  17.131  13.289   8.300
  264POPC   C3A 8093  17.290  13.075   7.970
  264POPC   C4A 8094  17.301  12.669   7.829
  264POPC   C1B 8095  17.959  13.052   8.624
  264POPC   C2B 8096  17.988  12.845   8.230
  264POPC   C3B 8097  17.796  12.903   7.844
  264POPC   C4B 8098  17.632  13.279   7.678
  265POPC   NC3 8099  21.995   9.461   9.410
  265POPC   PO4 8100  22.091   8.793   9.551
  265POPC   GL1 8101  22.294   8.828   9.140
  265POPC   GL2 8102  22.360   9.179   9.186
  265POPC   C1A 8103  22.334   8.794   8.690
  265POPC   D2A 8104  22.455   9.054   8.343
  265POPC   C3A 8105  22.171   8.965   8.048
  265POPC   C4A 8106  22.103   8.651   7.747
  265POPC   C1B 8107  22.129   9.234   8.806
  265POPC   C2B 8108  21.971   9.280   8.395
  265POPC   C3B 8109  21.990   9.425   7.959
  265POPC   C4B 8110  21.669   9.463   7.629
  266POPC   NC3 8111  43.018  13.166   9.800
  266POPC   PO4 8112  42.899  13.810   9.599
  266POPC   GL1 8113  43.081  13.863   9.174
  266POPC   GL2 8114  43.419  14.030   9.121
  266POPC   C1A 8115  43.009  13.659   8.765
  266POPC   D2A 8116  42.944  13.734   8.329
  266POPC   C3A 8117  42.932  13.403   8.041
  266POPC   C4A 8118  42.806  13.619   7.696
  266POPC   C1B 8119  43.258  14.094   8.678
  266POPC   C2B 8120  43.413  13.906   8.283
  266POPC   C3B 8121  43.350  13.684   7.909
  266POPC   C4B 8122  43.270  13.319   7.649
  267POPC   NC3 8123  39.319  36.857   9.550
  267POPC   PO4 8124  39.006  37.316   9.206
  267POPC   GL1 8125  39.409  37.153   9.142
  267POPC   GL2 8126  39.439  36.766   9.073
  267POPC   C1A 8127  39.554  37.158   8.755
  267POPC   D2A 8128  39.358  36.960   8.411
  267POPC   C3A 8129  39.444  36.993   7.977
  267POPC   C4A 8130  39.157  37.055   7.622
  267POPC   C1B 8131  39.647  36.637   8.698
  267POPC   C2B 8132  39.805  36.711   8.288
  267POPC   C3B 8133  39.685  36.490   7.932
  267POPC   C4B 8134  39.418  36.618   7.594
  268POPC   NC3 8135  14.537  26.486   9.547
  268POPC   PO4 8136  14.158  25.917   9.568
  268POPC   GL1 8137  14.193  26.128   9.178
  268POPC   GL2 8138  14.546  26.206   9.097
  268POPC   C1A 8139  14.203  25.992   8.750
  268POPC   D2A 8140  14.546  25.932   8.489
  268POPC   C3A 8141  14.453  26.050   8.069
  268POPC   C4A 8142  14.494  25.967   7.623
  268POPC   C1B 8143  14.691  26.436   8.687
  268POPC   C2B 8144  14.726  26.563   8.248
  268POPC   C3B 8145  14.744  26.400   7.830
  268POPC   C4B 8146  14.807  26.344   7.395
  269POPC   NC3 8147  32.188  33.216   9.529
  269POPC   PO4 8148  32.433  33.871   9.547
  269POPC   GL1 8149  32.402  33.562   9.174
  269POPC   GL2 8150  32.084  33.478   9.088
  269POPC   C1A 8151  32.523  33.595   8.725
  269POPC   D2A 8152  32.726  33.470   8.312
  269POPC   C3A 8153  32.493  33.659   7.996
  269POPC   C4A 8154  32.288  33.530   7.637
  269POPC   C1B 8155  32.170  33.938   8.924
  269POPC   C2B 8156  32.339  34.174   8.560
  269POPC   C3B 8157  32.284  34.134   8.134
  269POPC   C4B 8158  32.217  34.030   7.698
  270POPC   NC3 8159   2.859  12.314   9.364
  270POPC   PO4 8160   2.485  11.694   9.225
  270POPC   GL1 8161   2.920  11.889   9.104
  270POPC   GL2 8162   3.093  12.223   8.931
  270POPC   C1A 8163   2.961  11.814   8.677
  270POPC   D2A 8164   2.652  11.844   8.344
  270POPC   C3A 8165   2.776  12.158   8.055
  270POPC   C4A 8166   2.938  12.153   7.647
  270POPC   C1B 8167   2.775  12.293   8.604
  270POPC   C2B 8168   2.607  12.584   8.330
  270POPC   C3B 8169   2.421  12.613   7.937
  270POPC   C4B 8170   2.561  12.509   7.548
  271POPC   NC3 8171   3.819   2.026   9.536
  271POPC   PO4 8172   3.362   1.540   9.527
  271POPC   GL1 8173   3.338   1.701   9.127
  271POPC   GL2 8174   3.713   1.753   9.100
  271POPC   C1A 8175   3.259   1.954   8.772
  271POPC   D2A 8176   3.435   2.104   8.393
  271POPC   C3A 8177   3.268   2.235   8.050
  271POPC   C4A 8178   3.248   2.154   7.613
  271POPC   C1B 8179   3.791   1.902   8.687
  271POPC   C2B 8180   3.728   1.716   8.251
  271POPC   C3B 8181   3.607   1.849   7.820
  271POPC   C4B 8182   3.646   1.899   7.356
  272POPC   NC3 8183   6.961  40.670   9.559
  272POPC   PO4 8184   7.521  41.025   9.675
  272POPC   GL1 8185   7.335  40.788   9.228
  272POPC   GL2 8186   7.177  40.467   9.145
  272POPC   C1A 8187   7.517  40.688   8.804
  272POPC   D2A 8188   7.772  40.499   8.457
  272POPC   C3A 8189   7.602  40.525   8.046
  272POPC   C4A 8190   7.249  40.753   7.932
  272POPC   C1B 8191   6.944  40.415   8.754
  272POPC   C2B 8192   7.049  40.452   8.319
  272POPC   C3B 8193   6.824  40.434   7.939
  272POPC   C4B 8194   6.943  40.617   7.566
  273POPC   NC3 8195   4.949   6.032   9.617
  273POPC   PO4 8196   5.187   5.357   9.650
  273POPC   GL1 8197   5.171   5.712   9.303
  273POPC   GL2 8198   5.460   5.897   9.239
  273POPC   C1A 8199   5.067   5.900   8.846
  273POPC   D2A 8200   4.802   5.781   8.441
  273POPC   C3A 8201   4.865   5.957   7.999
  273POPC   C4A 8202   4.888   6.410   7.841
  273POPC   C1B 8203   5.550   6.006   8.822
  273POPC   C2B 8204   5.373   5.818   8.436
  273POPC   C3B 8205   5.406   5.883   8.004
  273POPC   C4B 8206   5.290   6.139   7.688
  274POPC   NC3 8207  14.762  12.790   9.257
  274POPC   PO4 8208  15.319  12.735   9.606
  274POPC   GL1 8209  15.364  12.592   9.133
  274POPC   GL2 8210  15.054  12.487   8.974
  274POPC   C1A 8211  15.491  12.498   8.651
  274POPC   D2A 8212  15.438  12.478   8.162
  274POPC   C3A 8213  15.291  12.853   7.920
  274POPC   C4A 8214  15.124  12.912   7.495
  274POPC   C1B 8215  14.768  12.561   8.607
  274POPC   C2B 8216  14.864  12.811   8.229
  274POPC   C3B 8217  14.717  12.813   7.805
  274POPC   C4B 8218  14.797  12.527   7.430
  275POPC   NC3 8219  34.937  28.265   9.543
  275POPC   PO4 8220  34.313  28.403   9.665
  275POPC   GL1 8221  34.530  28.360   9.224
  275POPC   GL2 8222  34.595  28.655   9.038
  275POPC   C1A 8223  34.562  28.240   8.756
  275POPC   D2A 8224  34.771  28.087   8.384
  275POPC   C3A 8225  34.496  28.021   8.039
  275POPC   C4A 8226  34.511  28.151   7.605
  275POPC   C1B 8227  34.375  28.737   8.687
  275POPC   C2B 8228  34.605  28.626   8.354
  275POPC   C3B 8229  34.556  28.518   7.964
  275POPC   C4B 8230  34.202  28.527   7.711
  276POPC   NC3 8231  44.113  44.022   9.763
  276POPC   PO4 8232  44.655  44.005   9.311
  276POPC   GL1 8233  44.622  43.875   8.940
  276POPC   GL2 8234  44.973  43.769   8.962
  276POPC   C1A 8235  44.715  43.823   8.520
  276POPC   D2A 8236  44.880  43.578   8.212
  276POPC   C3A 8237  44.563  43.686   7.956
  276POPC   C4A 8238  44.616  43.853   7.607
  276POPC   C1B 8239  44.987  44.203   8.776
  276POPC   C2B 8240  44.845  44.311   8.356
  276POPC   C3B 8241  44.934  44.049   8.023
  276POPC   C4B 8242   0.137  44.128   7.669
  277POPC   NC3 8243   5.325  17.732   9.450
  277POPC   PO4 8244   4.917  17.124   9.524
  277POPC   GL1 8245   4.951  17.350   9.155
  277POPC   GL2 8246   5.303  17.326   9.087
  277POPC   C1A 8247   4.970  17.154   8.735
  277POPC   D2A 8248   5.306  17.227   8.411
  277POPC   C3A 8249   5.090  17.304   8.027
  277POPC   C4A 8250   4.838  17.011   7.799
  277POPC   C1B 8251   5.169  17.614   8.730
  277POPC   C2B 8252   5.454  17.868   8.465
  277POPC   C3B 8253   5.541  17.898   8.027
  277POPC   C4B 8254   5.119  17.789   7.833
  278POPC   NC3 8255  19.102  17.177   9.444
  278POPC   PO4 8256  19.393  16.537   9.451
  278POPC   GL1 8257  19.163  16.603   9.080
  278POPC   GL2 8258  18.961  16.898   9.062
  278POPC   C1A 8259  18.906  16.478   8.760
  278POPC   D2A 8260  18.794  16.323   8.360
  278POPC   C3A 8261  19.099  16.488   8.071
  278POPC   C4A 8262  19.069  16.782   7.751
  278POPC   C1B 8263  18.644  16.910   8.771
  278POPC   C2B 8264  18.815  16.831   8.389
  278POPC   C3B 8265  18.912  17.110   8.101
  278POPC   C4B 8266  18.633  17.070   7.774
  279POPC   NC3 8267  35.735  38.274   9.495
  279POPC   PO4 8268  35.005  38.143   9.463
  279POPC   GL1 8269  35.122  38.305   9.103
  279POPC   GL2 8270  35.371  38.552   9.225
  279POPC   C1A 8271  35.235  38.173   8.682
  279POPC   D2A 8272  35.084  38.244   8.260
  279POPC   C3A 8273  35.314  38.423   7.913
  279POPC   C4A 8274  35.753  38.531   7.813
  279POPC   C1B 8275  35.283  38.697   8.809
  279POPC   C2B 8276  35.479  38.590   8.409
  279POPC   C3B 8277  35.488  38.872   8.067
  279POPC   C4B 8278  35.420  38.858   7.613
  280POPC   NC3 8279  15.548   7.144   9.495
  280POPC   PO4 8280  14.934   7.459   9.454
  280POPC   GL1 8281  15.161   7.328   9.136
  280POPC   GL2 8282  15.498   7.420   9.073
  280POPC   C1A 8283  15.092   7.337   8.731
  280POPC   D2A 8284  14.981   7.474   8.353
  280POPC   C3A 8285  15.048   7.313   7.938
  280POPC   C4A 8286  14.785   7.655   7.834
  280POPC   C1B 8287  15.520   7.572   8.680
  280POPC   C2B 8288  15.486   7.382   8.242
  280POPC   C3B 8289  15.524   7.454   7.764
  280POPC   C4B 8290  15.607   7.533   7.305
  281POPC   NC3 8291  31.462  30.101   9.463
  281POPC   PO4 8292  31.170  29.491   9.593
  281POPC   GL1 8293  31.266  29.692   9.163
  281POPC   GL2 8294  31.139  30.047   9.094
  281POPC   C1A 8295  31.490  29.759   8.771
  281POPC   D2A 8296  31.679  29.693   8.330
  281POPC   C3A 8297  31.687  29.978   7.996
  281POPC   C4A 8298  31.410  29.778   7.751
  281POPC   C1B 8299  31.385  30.263   8.816
  281POPC   C2B 8300  31.396  30.119   8.419
  281POPC   C3B 8301  31.152  29.967   8.138
  281POPC   C4B 8302  31.252  30.255   7.806
  282POPC   NC3 8303  20.731   6.255   9.472
  282POPC   PO4 8304  20.588   6.967   9.401
  282POPC   GL1 8305  20.548   6.845   9.030
  282POPC   GL2 8306  20.760   6.546   9.043
  282POPC   C1A 8307  20.491   6.665   8.615
  282POPC   D2A 8308  20.663   6.492   8.243
  282POPC   C3A 8309  20.546   6.685   7.880
  282POPC   C4A 8310  20.531   6.881   7.462
  282POPC   C1B 8311  20.962   6.864   8.761
  282POPC   C2B 8312  20.861   6.981   8.347
  282POPC   C3B 8313  21.029   6.875   7.962
  282POPC   C4B 8314  20.966   6.655   7.604
  283POPC   NC3 8315  34.735  24.844   9.558
  283POPC   PO4 8316  34.315  25.397   9.627
  283POPC   GL1 8317  34.382  25.311   9.169
  283POPC   GL2 8318  34.506  24.955   9.105
  283POPC   C1A 8319  34.598  25.355   8.759
  283POPC   D2A 8320  34.762  25.588   8.391
  283POPC   C3A 8321  34.605  25.460   7.978
  283POPC   C4A 8322  34.560  25.544   7.526
  283POPC   C1B 8323  34.866  24.915   8.796
  283POPC   C2B 8324  34.876  25.081   8.396
  283POPC   C3B 8325  34.912  25.037   7.976
  283POPC   C4B 8326  34.591  25.054   7.661
  284POPC   NC3 8327  28.571  44.935   9.467
  284POPC   PO4 8328  28.720   0.542   9.752
  284POPC   GL1 8329  28.497   0.437   9.305
  284POPC   GL2 8330  28.383   0.734   9.099
  284POPC   C1A 8331  28.324   0.293   8.846
  284POPC   D2A 8332  28.175   0.318   8.385
  284POPC   C3A 8333  28.492   0.306   8.037
  284POPC   C4A 8334  28.609   0.614   7.722
  284POPC   C1B 8335  28.031   0.785   8.764
  284POPC   C2B 8336  27.747   0.887   8.415
  284POPC   C3B 8337  27.736   0.717   7.995
  284POPC   C4B 8338  28.086   0.520   7.831
  285POPC   NC3 8339  31.052  31.311   9.534
  285POPC   PO4 8340  31.748  31.238   9.470
  285POPC   GL1 8341  31.628  31.466   9.106
  285POPC   GL2 8342  31.318  31.612   9.152
  285POPC   C1A 8343  31.649  31.608   8.685
  285POPC   D2A 8344  31.815  31.444   8.308
  285POPC   C3A 8345  31.727  31.516   7.873
  285POPC   C4A 8346  31.500  31.382   7.512
  285POPC   C1B 8347  31.130  31.616   8.728
  285POPC   C2B 8348  31.293  31.626   8.305
  285POPC   C3B 8349  31.196  31.471   7.915
  285POPC   C4B 8350  31.103  31.667   7.519
  286POPC   NC3 8351   9.978   5.567   9.508
  286POPC   PO4 8352  10.126   4.930   9.470
  286POPC   GL1 8353   9.765   5.019   9.157
  286POPC   GL2 8354   9.604   5.298   9.226
  286POPC   C1A 8355   9.628   4.907   8.733
  286POPC   D2A 8356   9.586   5.043   8.324
  286POPC   C3A 8357   9.447   4.845   7.968
  286POPC   C4A 8358   9.765   4.928   7.648
  286POPC   C1B 8359   9.847   5.425   8.835
  286POPC   C2B 8360  10.000   5.298   8.426
  286POPC   C3B 8361   9.812   5.369   7.999
  286POPC   C4B 8362   9.913   5.405   7.549
  287POPC   NC3 8363  35.604  43.428   9.461
  287POPC   PO4 8364  35.122  42.989   9.292
  287POPC   GL1 8365  35.499  43.074   9.134
  287POPC   GL2 8366  35.638  42.743   9.157
  287POPC   C1A 8367  35.434  43.351   8.773
  287POPC   D2A 8368  35.231  43.148   8.409
  287POPC   C3A 8369  35.419  43.253   8.036
  287POPC   C4A 8370  35.207  43.068   7.672
  287POPC   C1B 8371  35.513  42.838   8.703
  287POPC   C2B 8372  35.548  42.712   8.282
  287POPC   C3B 8373  35.603  42.808   7.854
  287POPC   C4B 8374  35.585  42.856   7.403
  288POPC   NC3 8375  18.887  19.617   9.576
  288POPC   PO4 8376  19.550  19.368   9.726
  288POPC   GL1 8377  19.359  19.474   9.250
  288POPC   GL2 8378  19.212  19.802   9.218
  288POPC   C1A 8379  19.177  19.485   8.794
  288POPC   D2A 8380  19.229  19.784   8.436
  288POPC   C3A 8381  19.065  19.645   8.033
  288POPC   C4A 8382  19.026  19.390   7.670
  288POPC   C1B 8383  18.971  19.969   8.857
  288POPC   C2B 8384  18.935  20.217   8.454
  288POPC   C3B 8385  19.017  20.171   8.007
  288POPC   C4B 8386  18.759  20.249   7.618
  289POPC   NC3 8387  41.846  15.636   9.865
  289POPC   PO4 8388  41.646  15.071   9.480
  289POPC   GL1 8389  41.691  15.179   9.052
  289POPC   GL2 8390  41.361  15.036   8.993
  289POPC   C1A 8391  41.696  15.105   8.589
  289POPC   D2A 8392  41.894  15.386   8.337
  289POPC   C3A 8393  41.747  15.451   7.941
  289POPC   C4A 8394  41.739  15.064   7.813
  289POPC   C1B 8395  41.193  15.148   8.585
  289POPC   C2B 8396  41.373  15.153   8.164
  289POPC   C3B 8397  41.286  15.299   7.735
  289POPC   C4B 8398  41.340  15.698   7.486
  290POPC   NC3 8399   1.548  39.487   9.563
  290POPC   PO4 8400   2.120  39.183   9.502
  290POPC   GL1 8401   2.059  39.314   9.100
  290POPC   GL2 8402   1.761  39.525   9.116
  290POPC   C1A 8403   2.122  39.081   8.712
  290POPC   D2A 8404   2.215  39.182   8.283
  290POPC   C3A 8405   2.029  39.002   7.929
  290POPC   C4A 8406   2.058  39.230   7.557
  290POPC   C1B 8407   1.663  39.313   8.747
  290POPC   C2B 8408   1.723  39.031   8.404
  290POPC   C3B 8409   1.583  39.184   8.072
  290POPC   C4B 8410   1.564  39.182   7.670
  291POPC   NC3 8411  32.550  16.483   9.305
  291POPC   PO4 8412  32.251  17.074   9.606
  291POPC   GL1 8413  32.144  16.859   9.199
  291POPC   GL2 8414  32.226  16.631   8.975
  291POPC   C1A 8415  31.882  16.980   8.833
  291POPC   D2A 8416  32.031  17.139   8.430
  291POPC   C3A 8417  32.144  16.880   8.080
  291POPC   C4A 8418  31.864  16.893   7.738
  291POPC   C1B 8419  32.287  16.301   8.692
  291POPC   C2B 8420  32.360  16.407   8.284
  291POPC   C3B 8421  32.396  16.228   7.905
  291POPC   C4B 8422  32.410  16.567   7.672
  292POPC   NC3 8423   0.758  16.200   9.598
  292POPC   PO4 8424   1.406  15.867   9.436
  292POPC   GL1 8425   1.205  15.910   9.078
  292POPC   GL2 8426   0.888  15.864   9.212
  292POPC   C1A 8427   1.314  15.799   8.654
  292POPC   D2A 8428   1.367  15.577   8.274
  292POPC   C3A 8429   1.298  15.871   7.966
  292POPC   C4A 8430   1.355  16.197   7.696
  292POPC   C1B 8431   0.768  15.983   8.782
  292POPC   C2B 8432   0.927  16.025   8.352
  292POPC   C3B 8433   0.810  16.015   7.914
  292POPC   C4B 8434   0.862  16.039   7.460
  293POPC   NC3 8435  13.303  30.321   9.323
  293POPC   PO4 8436  13.048  29.738   9.600
  293POPC   GL1 8437  12.944  29.849   9.133
  293POPC   GL2 8438  12.868  30.206   9.077
  293POPC   C1A 8439  12.681  29.878   8.711
  293POPC   D2A 8440  12.474  29.945   8.298
  293POPC   C3A 8441  12.617  29.625   8.024
  293POPC   C4A 8442  13.036  29.711   7.884
  293POPC   C1B 8443  13.137  30.112   8.706
  293POPC   C2B 8444  13.050  30.031   8.280
  293POPC   C3B 8445  12.808  30.175   7.922
  293POPC   C4B 8446  12.465  30.446   7.785
  294POPC   NC3 8447  38.909   4.041   9.510
  294POPC   PO4 8448  39.169   4.720   9.529
  294POPC   GL1 8449  38.974   4.474   9.216
  294POPC   GL2 8450  39.270   4.319   9.187
  294POPC   C1A 8451  39.045   4.383   8.743
  294POPC   D2A 8452  38.852   4.421   8.333
  294POPC   C3A 8453  39.200   4.485   8.060
  294POPC   C4A 8454  39.333   4.097   7.857
  294POPC   C1B 8455  39.484   4.138   8.835
  294POPC   C2B 8456  39.414   4.119   8.409
  294POPC   C3B 8457  39.737   4.198   8.136
  294POPC   C4B 8458  39.832   3.983   7.745
  295POPC   NC3 8459  11.004  21.916   9.523
  295POPC   PO4 8460  11.038  22.611   9.486
  295POPC   GL1 8461  11.273  22.300   9.221
  295POPC   GL2 8462  11.293  21.962   9.111
  295POPC   C1A 8463  11.301  22.316   8.768
  295POPC   D2A 8464  11.183  22.155   8.385
  295POPC   C3A 8465  11.486  22.270   8.097
  295POPC   C4A 8466  11.432  22.358   7.679
  295POPC   C1B 8467  11.453  21.762   8.737
  295POPC   C2B 8468  11.543  21.778   8.327
  295POPC   C3B 8469  11.714  21.836   7.967
  295POPC   C4B 8470  11.655  21.892   7.557
  296POPC   NC3 8471  31.981  31.667   9.436
  296POPC   PO4 8472  32.614  31.965   9.379
  296POPC   GL1 8473  32.471  31.614   9.135
  296POPC   GL2 8474  32.341  31.306   9.261
  296POPC   C1A 8475  32.164  31.586   8.807
  296POPC   D2A 8476  32.146  31.810   8.432
  296POPC   C3A 8477  32.273  31.555   8.094
  296POPC   C4A 8478  32.205  31.453   7.693
  296POPC   C1B 8479  32.439  31.121   8.845
  296POPC   C2B 8480  32.378  31.124   8.384
  296POPC   C3B 8481  32.506  31.086   7.940
  296POPC   C4B 8482  32.665  31.286   7.576
  297POPC   NC3 8483   1.464  40.476   9.442
  297POPC   PO4 8484   2.162  40.745   9.441
  297POPC   GL1 8485   2.160  40.613   9.053
  297POPC   GL2 8486   1.822  40.570   9.097
  297POPC   C1A 8487   2.033  40.696   8.637
  297POPC   D2A 8488   2.134  40.433   8.296
  297POPC   C3A 8489   2.130  40.606   7.902
  297POPC   C4A 8490   1.879  40.956   7.766
  297POPC   C1B 8491   1.576  40.456   8.781
  297POPC   C2B 8492   1.595  40.588   8.395
  297POPC   C3B 8493   1.685  40.384   8.038
  297POPC   C4B 8494   1.657  40.475   7.622
  298POPC   NC3 8495  27.038  16.518   9.602
  298POPC   PO4 8496  26.662  17.051   9.693
  298POPC   GL1 8497  26.721  16.784   9.305
  298POPC   GL2 8498  26.448  16.714   9.133
  298POPC   C1A 8499  26.908  16.511   8.932
  298POPC   D2A 8500  26.962  16.345   8.498
  298POPC   C3A 8501  27.064  16.476   8.084
  298POPC   C4A 8502  26.802  16.636   7.742
  298POPC   C1B 8503  26.675  16.952   8.814
  298POPC   C2B 8504  27.007  16.861   8.481
  298POPC   C3B 8505  27.032  16.989   8.035
  298POPC   C4B 8506  27.095  17.071   7.574
  299POPC   NC3 8507  16.376  15.136   9.489
  299POPC   PO4 8508  16.377  15.775   9.413
  299POPC   GL1 8509  16.651  15.459   9.139
  299POPC   GL2 8510  16.817  15.101   9.168
  299POPC   C1A 8511  16.652  15.236   8.724
  299POPC   D2A 8512  16.893  15.107   8.371
  299POPC   C3A 8513  16.674  15.033   7.991
  299POPC   C4A 8514  16.638  15.339   7.637
  299POPC   C1B 8515  17.108  14.935   8.819
  299POPC   C2B 8516  17.145  14.683   8.401
  299POPC   C3B 8517  17.170  14.875   7.998
  299POPC   C4B 8518  17.002  14.984   7.605
  300POPC   NC3 8519  29.588  27.134   9.344
  300POPC   PO4 8520  30.005  27.631   9.700
  300POPC   GL1 8521  30.126  27.620   9.242
  300POPC   GL2 8522  30.045  27.289   9.110
  300POPC   C1A 8523  30.017  27.818   8.804
  300POPC   D2A 8524  29.877  27.772   8.355
  300POPC   C3A 8525  30.118  27.870   7.977
  300POPC   C4A 8526  30.259  27.681   7.591
  300POPC   C1B 8527  29.820  27.343   8.698
  300POPC   C2B 8528  29.861  27.259   8.265
  300POPC   C3B 8529  29.838  27.457   7.833
  300POPC   C4B 8530  29.758  27.243   7.418
  301POPC   NC3 8531  23.739  35.378   9.370
  301POPC   PO4 8532  23.412  34.926   9.602
  301POPC   GL1 8533  23.381  35.125   9.134
  301POPC   GL2 8534  23.431  35.485   8.988
  301POPC   C1A 8535  23.679  35.125   8.743
  301POPC   D2A 8536  23.962  35.011   8.403
  301POPC   C3A 8537  23.825  35.173   8.023
  301POPC   C4A 8538  24.107  35.495   7.899
  301POPC   C1B 8539  23.430  35.696   8.633
  301POPC   C2B 8540  23.717  35.599   8.331
  301POPC   C3B 8541  23.596  35.616   7.936
  301POPC   C4B 8542  23.794  35.844   7.708
  302POPC   NC3 8543  44.551  12.526   9.387
  302POPC   PO4 8544  44.862  13.010   9.538
  302POPC   GL1 8545  44.708  13.064   9.137
  302POPC   GL2 8546  44.899  12.759   9.063
  302POPC   C1A 8547  44.492  12.900   8.765
  302POPC   D2A 8548  44.538  12.661   8.372
  302POPC   C3A 8549  44.675  12.937   8.062
  302POPC   C4A 8550  44.371  13.024   7.738
  302POPC   C1B 8551  44.981  12.783   8.629
  302POPC   C2B 8552   0.040  12.611   8.219
  302POPC   C3B 8553   0.050  12.693   7.783
  302POPC   C4B 8554  44.810  12.689   7.406
  303POPC   NC3 8555   2.232  12.983   9.534
  303POPC   PO4 8556   2.472  12.463   9.144
  303POPC   GL1 8557   2.123  12.783   9.088
  303POPC   GL2 8558   2.281  13.102   9.007
  303POPC   C1A 8559   1.859  12.971   8.754
  303POPC   D2A 8560   1.873  12.711   8.396
  303POPC   C3A 8561   1.889  12.847   7.987
  303POPC   C4A 8562   1.951  12.535   7.715
  303POPC   C1B 8563   2.371  12.901   8.657
  303POPC   C2B 8564   2.272  12.999   8.297
  303POPC   C3B 8565   2.429  13.116   7.972
  303POPC   C4B 8566   2.249  13.042   7.645
  304POPC   NC3 8567  10.912  17.026   9.369
  304POPC   PO4 8568  10.351  16.539   9.649
  304POPC   GL1 8569  10.478  16.657   9.265
  304POPC   GL2 8570  10.793  16.607   9.080
  304POPC   C1A 8571  10.350  16.588   8.836
  304POPC   D2A 8572  10.084  16.559   8.496
  304POPC   C3A 8573  10.280  16.491   8.112
  304POPC   C4A 8574  10.219  16.574   7.692
  304POPC   C1B 8575  10.801  16.743   8.665
  304POPC   C2B 8576  10.487  16.876   8.400
  304POPC   C3B 8577  10.434  16.968   7.967
  304POPC   C4B 8578  10.730  16.888   7.653
  305POPC   NC3 8579  22.067  16.154   9.527
  305POPC   PO4 8580  21.900  15.554   9.368
  305POPC   GL1 8581  21.931  15.918   9.095
  305POPC   GL2 8582  22.301  16.011   9.098
  305POPC   C1A 8583  22.035  15.906   8.668
  305POPC   D2A 8584  22.393  15.847   8.395
  305POPC   C3A 8585  22.284  15.733   7.993
  305POPC   C4A 8586  21.965  15.910   7.754
  305POPC   C1B 8587  22.423  16.259   8.729
  305POPC   C2B 8588  22.563  16.323   8.290
  305POPC   C3B 8589  22.301  16.235   7.934
  305POPC   C4B 8590  22.182  16.332   7.505
  306POPC   NC3 8591  25.913  35.576   9.504
  306POPC   PO4 8592  26.017  34.888   9.522
  306POPC   GL1 8593  25.787  35.165   9.180
  306POPC   GL2 8594  25.711  35.529   9.048
  306POPC   C1A 8595  25.852  35.188   8.719
  306POPC   D2A 8596  26.158  35.222   8.417
  306POPC   C3A 8597  26.009  35.426   8.049
  306POPC   C4A 8598  25.894  35.570   7.629
  306POPC   C1B 8599  26.024  35.661   8.733
  306POPC   C2B 8600  26.050  35.879   8.308
  306POPC   C3B 8601  26.248  35.848   7.892
  306POPC   C4B 8602  26.337  35.811   7.431
  307POPC   NC3 8603   9.769  40.536   9.783
  307POPC   PO4 8604  10.093  40.672   9.207
  307POPC   GL1 8605   9.797  40.782   8.902
  307POPC   GL2 8606   9.574  41.019   9.087
  307POPC   C1A 8607   9.604  40.552   8.604
  307POPC   D2A 8608   9.871  40.354   8.342
  307POPC   C3A 8609   9.966  40.634   8.024
  307POPC   C4A 8610   9.744  40.888   7.755
  307POPC   C1B 8611   9.571  41.142   8.660
  307POPC   C2B 8612   9.475  40.965   8.294
  307POPC   C3B 8613   9.522  41.269   8.022
  307POPC   C4B 8614   9.294  41.136   7.716
  308POPC   NC3 8615   1.533  16.341   9.392
  308POPC   PO4 8616   1.009  16.673   9.581
  308POPC   GL1 8617   1.149  16.657   9.173
  308POPC   GL2 8618   0.973  16.371   9.086
  308POPC   C1A 8619   1.074  16.785   8.737
  308POPC   D2A 8620   0.806  16.763   8.347
  308POPC   C3A 8621   0.941  16.912   7.940
  308POPC   C4A 8622   1.313  16.985   7.719
  308POPC   C1B 8623   1.319  16.305   8.778
  308POPC   C2B 8624   1.416  16.221   8.352
  308POPC   C3B 8625   1.115  16.427   8.075
  308POPC   C4B 8626   0.950  16.489   7.669
  309POPC   NC3 8627  25.929  15.358   9.714
  309POPC   PO4 8628  26.147  14.817   9.354
  309POPC   GL1 8629  25.998  15.083   9.121
  309POPC   GL2 8630  26.172  15.354   9.270
  309POPC   C1A 8631  25.861  15.069   8.699
  309POPC   D2A 8632  25.574  15.014   8.359
  309POPC   C3A 8633  25.722  15.119   8.007
  309POPC   C4A 8634  25.940  14.847   7.763
  309POPC   C1B 8635  26.244  15.416   8.820
  309POPC   C2B 8636  26.071  15.451   8.398
  309POPC   C3B 8637  26.184  15.306   7.989
  309POPC   C4B 8638  26.216  15.479   7.600
  310POPC   NC3 8639  35.168  10.748   9.519
  310POPC   PO4 8640  35.705  10.417   9.259
  310POPC   GL1 8641  35.275  10.335   9.081
  310POPC   GL2 8642  35.104  10.657   9.022
  310POPC   C1A 8643  35.334  10.182   8.664
  310POPC   D2A 8644  35.403  10.386   8.281
  310POPC   C3A 8645  35.369  10.190   7.897
  310POPC   C4A 8646  35.028  10.197   7.611
  310POPC   C1B 8647  35.128  10.822   8.595
  310POPC   C2B 8648  35.302  10.887   8.189
  310POPC   C3B 8649  35.483  10.783   7.788
  310POPC   C4B 8650  35.826  10.780   7.450
  311POPC   NC3 8651  42.394  38.382   9.540
  311POPC   PO4 8652  41.843  38.012   9.415
  311POPC   GL1 8653  42.118  38.245   9.107
  311POPC   GL2 8654  42.432  38.516   9.076
  311POPC   C1A 8655  42.122  38.397   8.695
  311POPC   D2A 8656  42.031  38.237   8.302
  311POPC   C3A 8657  42.212  38.457   7.964
  311POPC   C4A 8658  42.441  38.243   7.676
  311POPC   C1B 8659  42.670  38.371   8.768
  311POPC   C2B 8660  42.545  38.298   8.363
  311POPC   C3B 8661  42.755  38.493   8.024
  311POPC   C4B 8662  42.605  38.737   7.718
  312POPC   NC3 8663  16.078   6.308   9.353
  312POPC   PO4 8664  15.862   5.730   9.635
  312POPC   GL1 8665  15.878   5.762   9.195
  312POPC   GL2 8666  15.586   5.973   9.223
  312POPC   C1A 8667  16.125   5.844   8.785
  312POPC   D2A 8668  16.325   6.052   8.383
  312POPC   C3A 8669  16.163   6.177   7.940
  312POPC   C4A 8670  15.846   6.145   7.590
  312POPC   C1B 8671  15.665   6.084   8.799
  312POPC   C2B 8672  15.778   5.900   8.399
  312POPC   C3B 8673  15.643   5.890   7.991
  312POPC   C4B 8674  15.540   5.723   7.601
  313POPC   NC3 8675  30.787  21.905   9.516
  313POPC   PO4 8676  30.156  22.011   9.520
  313POPC   GL1 8677  30.350  22.342   9.240
  313POPC   GL2 8678  30.718  22.283   9.145
  313POPC   C1A 8679  30.402  22.531   8.823
  313POPC   D2A 8680  30.501  22.603   8.388
  313POPC   C3A 8681  30.526  22.257   8.119
  313POPC   C4A 8682  30.602  22.257   7.686
  313POPC   C1B 8683  30.793  22.243   8.701
  313POPC   C2B 8684  30.954  22.067   8.363
  313POPC   C3B 8685  30.918  21.955   7.959
  313POPC   C4B 8686  30.943  21.873   7.548
  314POPC   NC3 8687   3.327   9.635   9.602
  314POPC   PO4 8688   3.723  10.150   9.725
  314POPC   GL1 8689   3.592  10.022   9.299
  314POPC   GL2 8690   3.811  10.257   9.150
  314POPC   C1A 8691   3.406   9.750   8.928
  314POPC   D2A 8692   3.452   9.432   8.580
  314POPC   C3A 8693   3.300   9.534   8.172
  314POPC   C4A 8694   3.367   9.650   7.742
  314POPC   C1B 8695   3.794  10.039   8.750
  314POPC   C2B 8696   3.526   9.950   8.398
  314POPC   C3B 8697   3.585  10.065   7.962
  314POPC   C4B 8698   3.999  10.013   7.784
  315POPC   NC3 8699   9.516  10.280   9.693
  315POPC   PO4 8700  10.116  10.408   9.528
  315POPC   GL1 8701   9.797  10.310   9.226
  315POPC   GL2 8702   9.494  10.110   9.220
  315POPC   C1A 8703   9.691  10.529   8.838
  315POPC   D2A 8704   9.863  10.771   8.467
  315POPC   C3A 8705   9.711  10.651   8.045
  315POPC   C4A 8706   9.650  10.791   7.612
  315POPC   C1B 8707   9.359  10.120   8.810
  315POPC   C2B 8708   9.453  10.342   8.424
  315POPC   C3B 8709   9.516  10.154   8.042
  315POPC   C4B 8710   9.624  10.286   7.666
  316POPC   NC3 8711  44.679  30.132   9.340
  316POPC   PO4 8712  44.451  29.457   9.473
  316POPC   GL1 8713  44.618  29.667   9.125
  316POPC   GL2 8714  44.941  29.591   9.008
  316POPC   C1A 8715  44.525  29.832   8.721
  316POPC   D2A 8716  44.403  29.641   8.328
  316POPC   C3A 8717  44.603  29.819   7.958
  316POPC   C4A 8718  44.490  29.965   7.539
  316POPC   C1B 8719   0.004  29.762   8.602
  316POPC   C2B 8720  44.913  29.490   8.286
  316POPC   C3B 8721   0.010  29.483   7.892
  316POPC   C4B 8722  44.982  29.793   7.589
  317POPC   NC3 8723  37.349   6.495   9.233
  317POPC   PO4 8724  37.870   6.666   9.521
  317POPC   GL1 8725  37.851   6.736   9.115
  317POPC   GL2 8726  37.927   7.086   9.122
  317POPC   C1A 8727  37.646   6.683   8.703
  317POPC   D2A 8728  37.364   6.611   8.364
  317POPC   C3A 8729  37.561   6.691   7.984
  317POPC   C4A 8730  37.403   6.889   7.599
  317POPC   C1B 8731  38.099   6.952   8.737
  317POPC   C2B 8732  37.924   6.900   8.339
  317POPC   C3B 8733  38.052   6.976   7.963
  317POPC   C4B 8734  37.901   6.887   7.569
  318POPC   NC3 8735  37.818  14.022   9.440
  318POPC   PO4 8736  37.571  13.401   9.431
  318POPC   GL1 8737  37.743  13.581   9.112
  318POPC   GL2 8738  37.512  13.845   9.063
  318POPC   C1A 8739  37.585  13.499   8.708
  318POPC   D2A 8740  37.411  13.744   8.370
  318POPC   C3A 8741  37.548  13.600   7.999
  318POPC   C4A 8742  37.639  13.396   7.645
  318POPC   C1B 8743  37.779  13.969   8.669
  318POPC   C2B 8744  37.876  13.936   8.198
  318POPC   C3B 8745  38.006  13.730   7.778
  318POPC   C4B 8746  38.097  13.984   7.335
  319POPC   NC3 8747  35.365  23.395   9.829
  319POPC   PO4 8748  35.813  23.893   9.513
  319POPC   GL1 8749  35.939  24.015   9.060
  319POPC   GL2 8750  36.305  23.996   8.956
  319POPC   C1A 8751  35.913  23.806   8.662
  319POPC   D2A 8752  36.154  23.526   8.411
  319POPC   C3A 8753  36.370  23.698   8.062
  319POPC   C4A 8754  36.183  23.680   7.668
  319POPC   C1B 8755  36.400  23.982   8.509
  319POPC   C2B 8756  36.028  24.076   8.227
  319POPC   C3B 8757  36.023  24.142   7.768
  319POPC   C4B 8758  36.382  24.094   7.427
  320POPC   NC3 8759  20.089  28.107   9.175
  320POPC   PO4 8760  20.611  28.438   9.427
  320POPC   GL1 8761  20.535  28.408   9.046
  320POPC   GL2 8762  20.794  28.203   8.989
  320POPC   C1A 8763  20.517  28.563   8.654
  320POPC   D2A 8764  20.492  28.337   8.297
  320POPC   C3A 8765  20.449  28.551   7.931
  320POPC   C4A 8766  20.647  28.384   7.598
  320POPC   C1B 8767  20.589  27.969   8.675
  320POPC   C2B 8768  20.373  27.836   8.309
  320POPC   C3B 8769  20.577  27.991   7.947
  320POPC   C4B 8770  20.936  27.963   7.661
  321POPC   NC3 8771  12.442   6.393   9.501
  321POPC   PO4 8772  12.094   6.940   9.628
  321POPC   GL1 8773  12.092   6.678   9.245
  321POPC   GL2 8774  11.783   6.521   9.135
  321POPC   C1A 8775  12.145   6.713   8.806
  321POPC   D2A 8776  11.968   6.680   8.403
  321POPC   C3A 8777  12.265   6.623   8.074
  321POPC   C4A 8778  12.348   6.829   7.699
  321POPC   C1B 8779  11.884   6.267   8.799
  321POPC   C2B 8780  11.701   6.240   8.424
  321POPC   C3B 8781  11.849   6.282   8.046
  321POPC   C4B 8782  11.921   6.554   7.727
  322POPC   NC3 8783  20.959  42.699   9.458
  322POPC   PO4 8784  20.723  41.984   9.513
  322POPC   GL1 8785  20.839  42.243   9.182
  322POPC   GL2 8786  20.538  42.449   9.224
  322POPC   C1A 8787  20.616  42.188   8.791
  322POPC   D2A 8788  20.544  42.409   8.412
  322POPC   C3A 8789  20.498  42.266   8.034
  322POPC   C4A 8790  20.714  42.228   7.670
  322POPC   C1B 8791  20.246  42.574   8.875
  322POPC   C2B 8792  20.171  42.743   8.441
  322POPC   C3B 8793  20.098  42.610   8.014
  322POPC   C4B 8794  20.404  42.664   7.667
  323POPC   NC3 8795  11.507  37.919   9.783
  323POPC   PO4 8796  10.915  37.770   9.561
  323POPC   GL1 8797  11.022  37.738   9.131
  323POPC   GL2 8798  11.240  38.000   9.154
  323POPC   C1A 8799  11.151  37.605   8.692
  323POPC   D2A 8800  10.965  37.667   8.257
  323POPC   C3A 8801  11.274  37.487   7.948
  323POPC   C4A 8802  11.217  37.240   7.566
  323POPC   C1B 8803  11.057  38.093   8.741
  323POPC   C2B 8804  11.314  38.034   8.330
  323POPC   C3B 8805  11.435  37.967   7.876
  323POPC   C4B 8806  11.263  37.865   7.453
  324POPC   NC3 8807  41.672  38.806   9.566
  324POPC   PO4 8808  41.531  39.501   9.581
  324POPC   GL1 8809  41.676  39.523   9.160
  324POPC   GL2 8810  41.713  39.144   9.168
  324POPC   C1A 8811  41.750  39.578   8.739
  324POPC   D2A 8812  41.479  39.570   8.399
  324POPC   C3A 8813  41.610  39.520   7.973
  324POPC   C4A 8814  41.639  39.506   7.535
  324POPC   C1B 8815  41.415  39.208   8.823
  324POPC   C2B 8816  41.447  39.063   8.397
  324POPC   C3B 8817  41.549  39.004   7.955
  324POPC   C4B 8818  41.897  38.870   7.702
  325POPC   NC3 8819  20.759  33.723   9.672
  325POPC   PO4 8820  20.284  34.190   9.715
  325POPC   GL1 8821  20.628  34.025   9.294
  325POPC   GL2 8822  20.696  33.667   9.176
  325POPC   C1A 8823  20.736  34.024   8.843
  325POPC   D2A 8824  20.901  34.067   8.439
  325POPC   C3A 8825  20.641  33.943   8.076
  325POPC   C4A 8826  20.670  34.151   7.685
  325POPC   C1B 8827  20.691  33.448   8.788
  325POPC   C2B 8828  20.843  33.555   8.383
  325POPC   C3B 8829  20.882  33.400   7.964
  325POPC   C4B 8830  20.710  33.610   7.600
  326POPC   NC3 8831  38.026  13.264   9.432
  326POPC   PO4 8832  37.776  12.546   9.466
  326POPC   GL1 8833  37.706  12.636   9.103
  326POPC   GL2 8834  37.658  12.983   9.156
  326POPC   C1A 8835  37.462  12.580   8.771
  326POPC   D2A 8836  37.414  12.804   8.430
  326POPC   C3A 8837  37.537  12.668   8.041
  326POPC   C4A 8838  37.643  12.908   7.679
  326POPC   C1B 8839  37.802  13.013   8.748
  326POPC   C2B 8840  37.736  13.185   8.342
  326POPC   C3B 8841  37.952  13.259   8.021
  326POPC   C4B 8842  38.107  13.165   7.649
  327POPC   NC3 8843  33.376  19.792   9.558
  327POPC   PO4 8844  32.719  19.702   9.506
  327POPC   GL1 8845  33.016  19.881   9.187
  327POPC   GL2 8846  33.208  20.173   9.295
  327POPC   C1A 8847  33.192  19.718   8.789
  327POPC   D2A 8848  32.969  19.630   8.382
  327POPC   C3A 8849  33.158  19.583   7.953
  327POPC   C4A 8850  32.943  19.561   7.545
  327POPC   C1B 8851  33.253  20.224   8.865
  327POPC   C2B 8852  33.172  20.118   8.442
  327POPC   C3B 8853  33.131  20.095   8.007
  327POPC   C4B 8854  33.397  20.327   7.732
  328POPC   NC3 8855  35.217  27.407   9.473
  328POPC   PO4 8856  35.705  27.837   9.345
  328POPC   GL1 8857  35.379  27.745   9.102
  328POPC   GL2 8858  35.245  28.055   9.202
  328POPC   C1A 8859  35.265  27.409   8.815
  328POPC   D2A 8860  35.184  27.202   8.441
  328POPC   C3A 8861  35.043  27.502   8.139
  328POPC   C4A 8862  35.311  27.603   7.799
  328POPC   C1B 8863  35.047  28.039   8.849
  328POPC   C2B 8864  35.223  27.854   8.508
  328POPC   C3B 8865  35.227  27.994   8.104
  328POPC   C4B 8866  34.928  27.941   7.788
  329POPC   NC3 8867  32.327  37.631   9.498
  329POPC   PO4 8868  32.002  38.176   9.615
  329POPC   GL1 8869  32.146  37.973   9.146
  329POPC   GL2 8870  32.133  37.604   9.033
  329POPC   C1A 8871  32.246  37.887   8.659
  329POPC   D2A 8872  32.068  37.688   8.302
  329POPC   C3A 8873  32.323  37.809   7.936
  329POPC   C4A 8874  32.287  37.912   7.472
  329POPC   C1B 8875  32.378  37.386   8.696
  329POPC   C2B 8876  32.380  37.312   8.225
  329POPC   C3B 8877  32.108  37.351   7.865
  329POPC   C4B 8878  32.257  37.416   7.424
  330POPC   NC3 8879   2.221  42.936   9.623
  330POPC   PO4 8880   1.587  42.857   9.445
  330POPC   GL1 8881   1.907  43.082   9.104
  330POPC   GL2 8882   2.306  43.079   9.127
  330POPC   C1A 8883   1.779  43.204   8.684
  330POPC   D2A 8884   1.574  42.879   8.416
  330POPC   C3A 8885   1.700  42.929   8.012
  330POPC   C4A 8886   1.873  43.267   7.799
  330POPC   C1B 8887   2.257  43.016   8.691
  330POPC   C2B 8888   2.134  43.132   8.261
  330POPC   C3B 8889   2.347  43.166   7.856
  330POPC   C4B 8890   2.168  43.058   7.422
  331POPC   NC3 8891  20.556  17.931   9.675
  331POPC   PO4 8892  20.776  18.533   9.515
  331POPC   GL1 8893  20.593  18.348   9.155
  331POPC   GL2 8894  20.478  18.060   9.186
  331POPC   C1A 8895  20.575  18.234   8.704
  331POPC   D2A 8896  20.742  18.405   8.339
  331POPC   C3A 8897  20.478  18.504   8.012
  331POPC   C4A 8898  20.691  18.585   7.641
  331POPC   C1B 8899  20.867  17.950   8.988
  331POPC   C2B 8900  20.948  17.919   8.531
  331POPC   C3B 8901  20.792  17.921   8.111
  331POPC   C4B 8902  20.576  18.077   7.752
  332POPC   NC3 8903   1.549  26.684   9.485
  332POPC   PO4 8904   0.937  26.952   9.365
  332POPC   GL1 8905   1.264  26.828   9.073
  332POPC   GL2 8906   1.527  27.086   9.111
  332POPC   C1A 8907   1.199  26.573   8.690
  332POPC   D2A 8908   0.882  26.581   8.367
  332POPC   C3A 8909   1.068  26.663   7.993
  332POPC   C4A 8910   1.423  26.409   7.901
  332POPC   C1B 8911   1.492  27.006   8.644
  332POPC   C2B 8912   1.604  26.826   8.239
  332POPC   C3B 8913   1.473  26.947   7.831
  332POPC   C4B 8914   1.068  27.142   7.764
  333POPC   NC3 8915  29.529  13.535   9.470
  333POPC   PO4 8916  28.963  13.835   9.479
  333POPC   GL1 8917  29.168  13.767   9.105
  333POPC   GL2 8918  29.499  13.905   9.106
  333POPC   C1A 8919  29.048  13.690   8.674
  333POPC   D2A 8920  28.858  13.603   8.272
  333POPC   C3A 8921  28.960  13.718   7.868
  333POPC   C4A 8922  28.772  13.756   7.451
  333POPC   C1B 8923  29.541  13.588   8.789
  333POPC   C2B 8924  29.423  13.613   8.350
  333POPC   C3B 8925  29.662  13.636   7.991
  333POPC   C4B 8926  29.637  13.806   7.579
  334POPC   NC3 8927  37.268  33.822   9.506
  334POPC   PO4 8928  36.671  33.500   9.582
  334POPC   GL1 8929  36.865  33.651   9.208
  334POPC   GL2 8930  36.667  33.971   9.155
  334POPC   C1A 8931  37.017  33.832   8.815
  334POPC   D2A 8932  37.027  33.973   8.400
  334POPC   C3A 8933  36.890  33.672   8.116
  334POPC   C4A 8934  36.665  33.642   7.754
  334POPC   C1B 8935  36.597  34.123   8.688
  334POPC   C2B 8936  36.576  34.108   8.220
  334POPC   C3B 8937  36.437  34.272   7.835
  334POPC   C4B 8938  36.561  34.068   7.449
  335POPC   NC3 8939   9.000  24.389   9.500
  335POPC   PO4 8940   8.534  24.650   9.337
  335POPC   GL1 8941   8.918  24.583   9.015
  335POPC   GL2 8942   9.282  24.582   9.113
  335POPC   C1A 8943   9.128  24.633   8.575
  335POPC   D2A 8944   9.111  24.663   8.103
  335POPC   C3A 8945   8.912  24.334   7.842
  335POPC   C4A 8946   8.807  24.293   7.392
  335POPC   C1B 8947   9.405  24.263   8.795
  335POPC   C2B 8948   9.383  24.217   8.325
  335POPC   C3B 8949   9.435  24.325   7.894
  335POPC   C4B 8950   9.535  24.453   7.474
  336POPC   NC3 8951  29.153  32.818   9.476
  336POPC   PO4 8952  29.538  33.445   9.490
  336POPC   GL1 8953  29.268  33.239   9.128
  336POPC   GL2 8954  28.888  33.219   9.195
  336POPC   C1A 8955  29.388  33.110   8.665
  336POPC   D2A 8956  29.580  32.975   8.299
  336POPC   C3A 8957  29.342  33.033   8.001
  336POPC   C4A 8958  29.491  33.289   7.731
  336POPC   C1B 8959  28.936  32.937   8.828
  336POPC   C2B 8960  28.999  32.845   8.387
  336POPC   C3B 8961  28.821  33.008   8.004
  336POPC   C4B 8962  29.022  33.056   7.606
  337POPC   NC3 8963  23.439  14.744   9.425
  337POPC   PO4 8964  23.795  14.176   9.602
  337POPC   GL1 8965  23.799  14.374   9.241
  337POPC   GL2 8966  23.507  14.254   9.163
  337POPC   C1A 8967  23.855  14.397   8.805
  337POPC   D2A 8968  23.842  14.642   8.437
  337POPC   C3A 8969  23.486  14.590   8.158
  337POPC   C4A 8970  23.652  14.554   7.756
  337POPC   C1B 8971  23.418  14.095   8.747
  337POPC   C2B 8972  23.660  14.158   8.370
  337POPC   C3B 8973  23.525  14.081   7.961
  337POPC   C4B 8974  23.474  14.141   7.535
  338POPC   NC3 8975  32.529  15.790   9.618
  338POPC   PO4 8976  32.124  16.349   9.447
  338POPC   GL1 8977  32.057  16.115   9.119
  338POPC   GL2 8978  32.212  15.832   9.218
  338POPC   C1A 8979  31.873  15.958   8.745
  338POPC   D2A 8980  32.016  16.018   8.341
  338POPC   C3A 8981  31.818  15.894   7.970
  338POPC   C4A 8982  31.995  16.001   7.595
  338POPC   C1B 8983  32.289  15.627   8.845
  338POPC   C2B 8984  32.508  15.715   8.472
  338POPC   C3B 8985  32.349  15.722   8.053
  338POPC   C4B 8986  32.563  15.803   7.674
  339POPC   NC3 8987  43.474   3.009   9.481
  339POPC   PO4 8988  43.048   2.549   9.685
  339POPC   GL1 8989  43.082   2.526   9.186
  339POPC   GL2 8990  43.101   2.845   9.148
  339POPC   C1A 8991  43.194   2.486   8.736
  339POPC   D2A 8992  43.377   2.641   8.328
  339POPC   C3A 8993  43.319   2.454   7.938
  339POPC   C4A 8994  43.244   2.510   7.489
  339POPC   C1B 8995  43.215   3.016   8.749
  339POPC   C2B 8996  43.349   3.160   8.327
  339POPC   C3B 8997  43.292   3.016   7.919
  339POPC   C4B 8998  42.998   3.102   7.603
  340POPC   NC3 8999  41.535  21.052   9.868
  340POPC   PO4 9000  41.529  21.671   9.569
  340POPC   GL1 9001  41.516  21.353   9.246
  340POPC   GL2 9002  41.264  21.099   9.377
  340POPC   C1A 9003  41.698  21.312   8.813
  340POPC   D2A 9004  41.599  21.497   8.403
  340POPC   C3A 9005  41.805  21.359   8.036
  340POPC   C4A 9006  41.798  21.498   7.618
  340POPC   C1B 9007  41.266  21.046   8.915
  340POPC   C2B 9008  41.407  21.021   8.497
  340POPC   C3B 9009  41.326  21.115   8.066
  340POPC   C4B 9010  41.583  21.045   7.713
  341POPC   NC3 9011  39.706  41.064   9.516
  341POPC   PO4 9012  40.223  40.563   9.533
  341POPC   GL1 9013  40.114  40.821   9.184
  341POPC   GL2 9014  39.757  40.780   9.074
  341POPC   C1A 9015  40.145  40.821   8.729
  341POPC   D2A 9016  39.995  40.665   8.338
  341POPC   C3A 9017  40.215  40.615   7.942
  341POPC   C4A 9018  40.122  40.990   7.719
  341POPC   C1B 9019  39.701  40.465   8.745
  341POPC   C2B 9020  39.668  40.282   8.332
  341POPC   C3B 9021  39.700  40.529   7.912
  341POPC   C4B 9022  39.777  40.693   7.472
  342POPC   NC3 9023   9.765  20.314   9.472
  342POPC   PO4 9024   9.936  21.051   9.560
  342POPC   GL1 9025   9.852  20.759   9.204
  342POPC   GL2 9026   9.500  20.704   9.120
  342POPC   C1A 9027   9.919  20.443   8.863
  342POPC   D2A 9028   9.978  20.592   8.465
  342POPC   C3A 9029   9.875  20.412   8.153
  342POPC   C4A 9030   9.902  20.694   7.823
  342POPC   C1B 9031   9.558  20.752   8.665
  342POPC   C2B 9032   9.577  20.809   8.199
  342POPC   C3B 9033   9.390  20.703   7.780
  342POPC   C4B 9034   9.304  20.614   7.337
  343POPC   NC3 9035   4.962  39.691   9.590
  343POPC   PO4 9036   5.098  40.362   9.493
  343POPC   GL1 9037   5.120  40.162   9.131
  343POPC   GL2 9038   5.205  39.826   9.159
  343POPC   C1A 9039   5.228  40.263   8.729
  343POPC   D2A 9040   5.001  40.081   8.393
  343POPC   C3A 9041   4.870  40.303   8.054
  343POPC   C4A 9042   4.903  40.135   7.663
  343POPC   C1B 9043   4.981  39.750   8.793
  343POPC   C2B 9044   4.801  39.606   8.404
  343POPC   C3B 9045   4.890  39.718   7.979
  343POPC   C4B 9046   4.779  39.515   7.577
  344POPC   NC3 9047   7.665  21.846   9.549
  344POPC   PO4 9048   7.546  22.353   9.399
  344POPC   GL1 9049   7.521  22.050   9.051
  344POPC   GL2 9050   7.449  21.670   9.124
  344POPC   C1A 9051   7.424  22.218   8.630
  344POPC   D2A 9052   7.278  22.449   8.258
  344POPC   C3A 9053   7.341  22.226   7.862
  344POPC   C4A 9054   7.656  21.942   7.704
  344POPC   C1B 9055   7.311  21.711   8.691
  344POPC   C2B 9056   7.381  21.850   8.258
  344POPC   C3B 9057   7.216  21.728   7.870
  344POPC   C4B 9058   7.227  21.827   7.437
  345POPC   NC3 9059  39.548  43.344   9.470
  345POPC   PO4 9060  39.021  42.852   9.476
  345POPC   GL1 9061  39.162  43.141   9.175
  345POPC   GL2 9062  38.913  43.358   9.010
  345POPC   C1A 9063  39.431  43.045   8.832
  345POPC   D2A 9064  39.512  42.817   8.452
  345POPC   C3A 9065  39.459  43.000   8.053
  345POPC   C4A 9066  39.315  43.219   7.674
  345POPC   C1B 9067  38.873  42.933   8.792
  345POPC   C2B 9068  39.014  42.831   8.379
  345POPC   C3B 9069  38.936  42.984   7.953
  345POPC   C4B 9070  38.887  42.990   7.486
  346POPC   NC3 9071  27.895  17.993   9.357
  346POPC   PO4 9072  27.451  17.549   9.552
  346POPC   GL1 9073  27.435  17.816   9.212
  346POPC   GL2 9074  27.720  17.609   9.081
  346POPC   C1A 9075  27.404  17.873   8.762
  346POPC   D2A 9076  27.692  17.758   8.399
  346POPC   C3A 9077  27.534  17.807   7.960
  346POPC   C4A 9078  27.342  17.583   7.618
  346POPC   C1B 9079  27.746  17.318   8.749
  346POPC   C2B 9080  28.065  17.332   8.453
  346POPC   C3B 9081  28.002  17.490   8.052
  346POPC   C4B 9082  28.020  17.444   7.633
  347POPC   NC3 9083  21.993  39.661   9.579
  347POPC   PO4 9084  22.428  40.062   9.811
  347POPC   GL1 9085  22.294  39.931   9.268
  347POPC   GL2 9086  22.039  39.703   9.073
  347POPC   C1A 9087  22.090  40.155   8.850
  347POPC   D2A 9088  21.965  39.893   8.503
  347POPC   C3A 9089  22.090  40.074   8.101
  347POPC   C4A 9090  22.017  40.110   7.643
  347POPC   C1B 9091  22.411  39.786   8.791
  347POPC   C2B 9092  22.492  40.013   8.425
  347POPC   C3B 9093  22.612  39.823   8.041
  347POPC   C4B 9094  22.769  39.919   7.653
  348POPC   NC3 9095  35.301  18.513   9.513
  348POPC   PO4 9096  35.358  17.848   9.747
  348POPC   GL1 9097  35.422  18.056   9.291
  348POPC   GL2 9098  35.130  18.178   9.162
  348POPC   C1A 9099  35.532  18.330   8.858
  348POPC   D2A 9100  35.535  18.237   8.370
  348POPC   C3A 9101  35.322  18.486   8.039
  348POPC   C4A 9102  35.418  18.686   7.622
  348POPC   C1B 9103  35.175  18.022   8.750
  348POPC   C2B 9104  35.047  18.107   8.353
  348POPC   C3B 9105  35.188  17.988   7.982
  348POPC   C4B 9106  35.577  18.107   7.795
  349POPC   NC3 9107  23.390  36.032   9.580
  349POPC   PO4 9108  24.014  35.872   9.453
  349POPC   GL1 9109  23.697  35.910   9.164
  349POPC   GL2 9110  23.562  36.255   9.151
  349POPC   C1A 9111  23.827  36.012   8.760
  349POPC   D2A 9112  23.681  36.140   8.386
  349POPC   C3A 9113  23.916  36.449   8.196
  349POPC   C4A 9114  23.831  36.350   7.772
  349POPC   C1B 9115  23.326  36.181   8.803
  349POPC   C2B 9116  23.178  36.238   8.377
  349POPC   C3B 9117  23.368  36.088   7.979
  349POPC   C4B 9118  23.421  36.128   7.538
  350POPC   NC3 9119  33.213   9.264   9.509
  350POPC   PO4 9120  32.767   8.801   9.418
  350POPC   GL1 9121  33.091   8.748   9.098
  350POPC   GL2 9122  33.430   8.895   9.149
  350POPC   C1A 9123  33.215   8.830   8.661
  350POPC   D2A 9124  33.088   9.117   8.358
  350POPC   C3A 9125  33.007   9.007   7.904
  350POPC   C4A 9126  32.787   9.225   7.543
  350POPC   C1B 9127  33.435   9.262   8.845
  350POPC   C2B 9128  33.592   9.298   8.420
  350POPC   C3B 9129  33.413   9.343   7.997
  350POPC   C4B 9130  33.320   9.289   7.549
  351POPC   NC3 9131  20.335  29.709   9.407
  351POPC   PO4 9132  20.151  30.350   9.470
  351POPC   GL1 9133  20.416  30.168   9.152
  351POPC   GL2 9134  20.731  29.947   9.185
  351POPC   C1A 9135  20.311  29.957   8.775
  351POPC   D2A 9136  20.136  30.069   8.404
  351POPC   C3A 9137  20.434  29.962   8.082
  351POPC   C4A 9138  20.336  29.788   7.689
  351POPC   C1B 9139  20.828  29.903   8.743
  351POPC   C2B 9140  21.001  29.975   8.323
  351POPC   C3B 9141  20.916  29.809   7.932
  351POPC   C4B 9142  20.798  29.653   7.539
  352POPC   NC3 9143  17.408   3.675   9.578
  352POPC   PO4 9144  18.026   3.681   9.342
  352POPC   GL1 9145  17.655   3.552   9.100
  352POPC   GL2 9146  17.407   3.826   9.091
  352POPC   C1A 9147  17.541   3.550   8.644
  352POPC   D2A 9148  17.336   3.716   8.246
  352POPC   C3A 9149  17.407   3.510   7.854
  352POPC   C4A 9150  17.259   3.289   7.524
  352POPC   C1B 9151  17.781   3.982   8.846
  352POPC   C2B 9152  17.942   3.831   8.469
  352POPC   C3B 9153  17.826   3.658   8.081
  352POPC   C4B 9154  17.742   3.876   7.698
  353POPC   NC3 9155  23.057  17.243   9.436
  353POPC   PO4 9156  23.264  17.822   9.321
  353POPC   GL1 9157  22.840  17.661   9.170
  353POPC   GL2 9158  22.729  17.305   9.063
  353POPC   C1A 9159  22.595  17.721   8.788
  353POPC   D2A 9160  22.659  17.540   8.377
  353POPC   C3A 9161  22.662  17.703   7.953
  353POPC   C4A 9162  22.849  17.745   7.529
  353POPC   C1B 9163  23.049  17.438   8.748
  353POPC   C2B 9164  23.162  17.232   8.358
  353POPC   C3B 9165  23.037  17.359   7.957
  353POPC   C4B 9166  23.127  17.288   7.534
  354POPC   NC3 9167  22.704  12.735   9.937
  354POPC   PO4 9168  23.083  12.890   9.382
  354POPC   GL1 9169  22.872  12.822   9.029
  354POPC   GL2 9170  22.572  12.663   9.213
  354POPC   C1A 9171  23.005  13.041   8.659
  354POPC   D2A 9172  22.848  13.110   8.251
  354POPC   C3A 9173  23.176  13.001   7.973
  354POPC   C4A 9174  22.975  12.697   7.755
  354POPC   C1B 9175  22.479  12.521   8.796
  354POPC   C2B 9176  22.608  12.510   8.346
  354POPC   C3B 9177  22.487  12.592   7.903
  354POPC   C4B 9178  22.607  12.335   7.535
  355POPC   NC3 9179  16.834  11.011   9.304
  355POPC   PO4 9180  16.460  10.453   9.467
  355POPC   GL1 9181  16.583  10.353   9.048
  355POPC   GL2 9182  16.903  10.257   9.038
  355POPC   C1A 9183  16.352  10.209   8.678
  355POPC   D2A 9184  16.326  10.253   8.212
  355POPC   C3A 9185  16.669  10.494   8.028
  355POPC   C4A 9186  16.666  10.700   7.634
  355POPC   C1B 9187  16.896  10.589   8.697
  355POPC   C2B 9188  17.124  10.559   8.263
  355POPC   C3B 9189  17.142  10.571   7.782
  355POPC   C4B 9190  17.167  10.636   7.309
  356POPC   NC3 9191  19.569  29.229   9.531
  356POPC   PO4 9192  19.633  28.603   9.554
  356POPC   GL1 9193  19.663  28.912   9.168
  356POPC   GL2 9194  19.972  29.114   9.208
  356POPC   C1A 9195  19.617  29.115   8.760
  356POPC   D2A 9196  19.783  29.007   8.366
  356POPC   C3A 9197  19.692  29.233   7.979
  356POPC   C4A 9198  19.762  29.037   7.587
  356POPC   C1B 9199  20.109  29.250   8.819
  356POPC   C2B 9200  20.318  29.048   8.452
  356POPC   C3B 9201  20.195  29.009   8.011
  356POPC   C4B 9202  20.126  29.342   7.722
  357POPC   NC3 9203   1.913  44.825   9.532
  357POPC   PO4 9204   2.223  44.234   9.382
  357POPC   GL1 9205   2.174  44.626   9.119
  357POPC   GL2 9206   1.827  44.715   9.050
  357POPC   C1A 9207   2.139  44.715   8.667
  357POPC   D2A 9208   2.102  44.473   8.296
  357POPC   C3A 9209   2.129  44.675   7.914
  357POPC   C4A 9210   2.061  44.547   7.521
  357POPC   C1B 9211   1.853  44.315   8.802
  357POPC   C2B 9212   1.643  44.265   8.423
  357POPC   C3B 9213   1.669  44.452   8.029
  357POPC   C4B 9214   1.662  44.243   7.667
  358POPC   NC3 9215   4.810  21.408   9.604
  358POPC   PO4 9216   5.036  20.756   9.508
  358POPC   GL1 9217   4.867  21.065   9.199
  358POPC   GL2 9218   4.997  21.423   9.141
  358POPC   C1A 9219   4.986  21.081   8.764
  358POPC   D2A 9220   5.265  21.240   8.421
  358POPC   C3A 9221   5.139  21.409   8.031
  358POPC   C4A 9222   4.817  21.268   7.811
  358POPC   C1B 9223   4.983  21.590   8.713
  358POPC   C2B 9224   4.754  21.489   8.337
  358POPC   C3B 9225   4.693  21.727   7.926
  358POPC   C4B 9226   4.859  21.726   7.475
  359POPC   NC3 9227  18.519  21.251   9.681
  359POPC   PO4 9228  18.018  21.299   9.535
  359POPC   GL1 9229  18.368  21.341   9.185
  359POPC   GL2 9230  18.516  21.668   9.043
  359POPC   C1A 9231  18.481  21.271   8.725
  359POPC   D2A 9232  18.386  21.412   8.273
  359POPC   C3A 9233  18.463  21.189   7.861
  359POPC   C4A 9234  18.246  20.973   7.479
  359POPC   C1B 9235  18.681  21.774   8.595
  359POPC   C2B 9236  18.767  21.714   8.147
  359POPC   C3B 9237  18.469  21.743   7.804
  359POPC   C4B 9238  18.206  21.865   7.439
  360POPC   NC3 9239  40.159   2.960   9.627
  360POPC   PO4 9240  39.737   2.476   9.340
  360POPC   GL1 9241  39.975   2.788   9.123
  360POPC   GL2 9242  40.202   2.674   9.200
  360POPC   C1A 9243  39.971   2.875   8.702
  360POPC   D2A 9244  39.651   2.984   8.392
  360POPC   C3A 9245  39.813   2.983   7.977
  360POPC   C4A 9246  39.745   2.712   7.653
  360POPC   C1B 9247  40.376   2.517   8.820
  360POPC   C2B 9248  40.437   2.676   8.438
  360POPC   C3B 9249  40.493   2.739   8.011
  360POPC   C4B 9250  40.236   2.845   7.684
  361POPC   NC3 9251  17.519  12.498   9.337
  361POPC   PO4 9252  17.461  11.840   9.424
  361POPC   GL1 9253  17.550  11.995   9.026
  361POPC   GL2 9254  17.276  12.230   8.984
  361POPC   C1A 9255  17.439  11.938   8.580
  361POPC   D2A 9256  17.277  11.770   8.192
  361POPC   C3A 9257  17.627  11.671   7.964
  361POPC   C4A 9258  17.875  12.005   7.787
  361POPC   C1B 9259  17.215  12.622   8.721
  361POPC   C2B 9260  17.479  12.752   8.343
  361POPC   C3B 9261  17.672  12.423   8.071
  361POPC   C4B 9262  17.385  12.152   7.809
  362POPC   NC3 9263  29.396  31.432   9.611
  362POPC   PO4 9264  28.814  31.435   9.634
  362POPC   GL1 9265  29.000  31.452   9.187
  362POPC   GL2 9266  29.372  31.510   9.122
  362POPC   C1A 9267  29.002  31.299   8.762
  362POPC   D2A 9268  29.077  31.128   8.352
  362POPC   C3A 9269  29.044  31.405   8.015
  362POPC   C4A 9270  29.205  31.448   7.603
  362POPC   C1B 9271  29.500  31.367   8.739
  362POPC   C2B 9272  29.373  31.564   8.383
  362POPC   C3B 9273  29.523  31.535   7.996
  362POPC   C4B 9274  29.759  31.329   7.738
  363POPC   NC3 9275  24.210  29.384   9.515
  363POPC   PO4 9276  24.455  30.016   9.575
  363POPC   GL1 9277  24.544  29.970   9.144
  363POPC   GL2 9278  24.776  29.686   9.175
  363POPC   C1A 9279  24.280  30.022   8.772
  363POPC   D2A 9280  24.135  30.064   8.347
  363POPC   C3A 9281  24.286  29.786   8.032
  363POPC   C4A 9282  24.423  29.837   7.607
  363POPC   C1B 9283  24.552  29.532   8.828
  363POPC   C2B 9284  24.576  29.737   8.452
  363POPC   C3B 9285  24.751  29.979   8.120
  363POPC   C4B 9286  24.927  29.817   7.755
  364POPC   NC3 9287  34.031  33.227   9.612
  364POPC   PO4 9288  33.552  32.786   9.498
  364POPC   GL1 9289  33.751  32.995   9.171
  364POPC   GL2 9290  33.835  33.360   9.155
  364POPC   C1A 9291  33.795  32.905   8.747
  364POPC   D2A 9292  33.599  32.760   8.387
  364POPC   C3A 9293  33.813  33.004   8.109
  364POPC   C4A 9294  34.011  32.906   7.722
  364POPC   C1B 9295  34.034  33.367   8.744
  364POPC   C2B 9296  34.187  33.319   8.325
  364POPC   C3B 9297  34.114  33.375   7.901
  364POPC   C4B 9298  34.361  33.238   7.578
  365POPC   NC3 9299   1.773  25.771   9.518
  365POPC   PO4 9300   2.276  26.225   9.640
  365POPC   GL1 9301   2.111  26.041   9.228
  365POPC   GL2 9302   2.206  25.732   9.226
  365POPC   C1A 9303   1.844  26.081   8.835
  365POPC   D2A 9304   1.739  25.827   8.471
  365POPC   C3A 9305   1.862  25.980   8.080
  365POPC   C4A 9306   1.728  26.050   7.703
  365POPC   C1B 9307   2.217  25.758   8.788
  365POPC   C2B 9308   2.257  25.876   8.362
  365POPC   C3B 9309   2.322  25.838   7.907
  365POPC   C4B 9310   2.086  25.764   7.481
  366POPC   NC3 9311  31.797  40.066   9.584
  366POPC   PO4 9312  32.434  39.865   9.543
  366POPC   GL1 9313  32.241  40.050   9.173
  366POPC   GL2 9314  31.916  39.926   9.116
  366POPC   C1A 9315  32.173  40.006   8.703
  366POPC   D2A 9316  32.206  39.834   8.312
  366POPC   C3A 9317  32.085  40.085   8.026
  366POPC   C4A 9318  32.231  40.318   7.702
  366POPC   C1B 9319  31.813  39.617   8.753
  366POPC   C2B 9320  31.908  39.421   8.315
  366POPC   C3B 9321  31.814  39.638   7.944
  366POPC   C4B 9322  31.768  39.959   7.651
  367POPC   NC3 9323   0.098  20.342   9.329
  367POPC   PO4 9324   0.562  20.817   9.582
  367POPC   GL1 9325   0.551  20.617   9.163
  367POPC   GL2 9326   0.834  20.844   9.118
  367POPC   C1A 9327   0.429  20.399   8.738
  367POPC   D2A 9328   0.149  20.217   8.415
  367POPC   C3A 9329   0.227  20.281   7.957
  367POPC   C4A 9330   0.083  20.385   7.516
  367POPC   C1B 9331   0.630  20.869   8.710
  367POPC   C2B 9332   0.779  20.706   8.334
  367POPC   C3B 9333   0.647  20.534   8.004
  367POPC   C4B 9334   0.571  20.520   7.599
  368POPC   NC3 9335   0.794  38.179   9.549
  368POPC   PO4 9336   1.213  38.681   9.398
  368POPC   GL1 9337   1.082  38.598   9.030
  368POPC   GL2 9338   0.998  38.299   9.084
  368POPC   C1A 9339   0.928  38.631   8.616
  368POPC   D2A 9340   0.885  38.266   8.331
  368POPC   C3A 9341   1.099  38.411   8.021
  368POPC   C4A 9342   1.209  38.361   7.638
  368POPC   C1B 9343   1.170  38.184   8.728
  368POPC   C2B 9344   1.372  38.026   8.384
  368POPC   C3B 9345   1.408  37.993   7.963
  368POPC   C4B 9346   1.690  38.206   7.682
  369POPC   NC3 9347  44.950  35.931   9.465
  369POPC   PO4 9348  44.486  36.500   9.574
  369POPC   GL1 9349  44.531  36.162   9.305
  369POPC   GL2 9350  44.811  36.323   9.177
  369POPC   C1A 9351  44.565  35.983   8.876
  369POPC   D2A 9352  44.365  35.976   8.478
  369POPC   C3A 9353  44.683  35.900   8.132
  369POPC   C4A 9354  44.748  35.908   7.705
  369POPC   C1B 9355  44.889  36.418   8.788
  369POPC   C2B 9356  44.795  36.292   8.411
  369POPC   C3B 9357  44.763  36.413   7.973
  369POPC   C4B 9358   0.092  36.515   7.687
  370POPC   NC3 9359  22.253  40.388   9.508
  370POPC   PO4 9360  22.059  41.043   9.681
  370POPC   GL1 9361  21.996  40.807   9.230
  370POPC   GL2 9362  22.260  40.599   9.047
  370POPC   C1A 9363  21.947  40.842   8.737
  370POPC   D2A 9364  22.167  40.597   8.369
  370POPC   C3A 9365  22.076  40.579   7.903
  370POPC   C4A 9366  21.887  40.571   7.461
  370POPC   C1B 9367  22.514  40.450   8.715
  370POPC   C2B 9368  22.669  40.494   8.294
  370POPC   C3B 9369  22.525  40.316   7.980
  370POPC   C4B 9370  22.470  40.355   7.600
  371POPC   NC3 9371   2.705  27.013   9.547
  371POPC   PO4 9372   2.590  26.482   9.244
  371POPC   GL1 9373   2.474  26.706   8.953
  371POPC   GL2 9374   2.665  26.997   9.034
  371POPC   C1A 9375   2.617  26.738   8.530
  371POPC   D2A 9376   2.830  26.609   8.189
  371POPC   C3A 9377   2.738  26.822   7.845
  371POPC   C4A 9378   2.899  26.613   7.514
  371POPC   C1B 9379   2.750  27.277   8.702
  371POPC   C2B 9380   3.001  27.232   8.367
  371POPC   C3B 9381   3.132  27.142   7.963
  371POPC   C4B 9382   2.881  27.261   7.623
  372POPC   NC3 9383  34.130  19.176   9.329
  372POPC   PO4 9384  33.497  19.362   9.472
  372POPC   GL1 9385  33.623  19.064   9.152
  372POPC   GL2 9386  33.633  18.716   9.305
  372POPC   C1A 9387  33.774  19.094   8.706
  372POPC   D2A 9388  33.795  19.316   8.291
  372POPC   C3A 9389  33.906  19.156   7.892
  372POPC   C4A 9390  33.578  19.303   7.630
  372POPC   C1B 9391  33.615  18.620   8.871
  372POPC   C2B 9392  33.703  18.647   8.427
  372POPC   C3B 9393  33.865  18.546   8.023
  372POPC   C4B 9394  33.934  18.706   7.602
  373POPC   NC3 9395  38.080   1.811   9.392
  373POPC   PO4 9396  38.597   2.213   9.448
  373POPC   GL1 9397  38.381   2.260   9.055
  373POPC   GL2 9398  38.109   2.043   8.935
  373POPC   C1A 9399  38.433   2.216   8.596
  373POPC   D2A 9400  38.267   1.954   8.285
  373POPC   C3A 9401  38.478   2.119   7.908
  373POPC   C4A 9402  38.512   2.141   7.456
  373POPC   C1B 9403  38.434   1.739   8.846
  373POPC   C2B 9404  38.512   1.481   8.497
  373POPC   C3B 9405  38.459   1.556   8.036
  373POPC   C4B 9406  38.730   1.720   7.720
  374POPC   NC3 9407  12.817  11.131   9.396
  374POPC   PO4 9408  13.159  11.661   9.458
  374POPC   GL1 9409  12.953  11.602   9.053
  374POPC   GL2 9410  12.895  11.246   8.922
  374POPC   C1A 9411  12.995  11.586   8.582
  374POPC   D2A 9412  12.654  11.347   8.359
  374POPC   C3A 9413  12.638  11.521   7.956
  374POPC   C4A 9414  13.035  11.672   7.772
  374POPC   C1B 9415  12.531  11.015   8.777
  374POPC   C2B 9416  12.421  10.831   8.368
  374POPC   C3B 9417  12.633  10.983   8.003
  374POPC   C4B 9418  12.754  11.035   7.597
  375POPC   NC3 9419  33.828  37.512   9.584
  375POPC   PO4 9420  33.720  36.845   9.546
  375POPC   GL1 9421  33.851  36.890   9.149
  375POPC   GL2 9422  33.993  37.209   9.177
  375POPC   C1A 9423  33.753  37.074   8.745
  375POPC   D2A 9424  33.722  36.850   8.358
  375POPC   C3A 9425  33.573  37.057   7.980
  375POPC   C4A 9426  33.496  36.897   7.558
  375POPC   C1B 9427  34.265  37.052   8.869
  375POPC   C2B 9428  34.246  36.993   8.448
  375POPC   C3B 9429  34.111  36.878   8.043
  375POPC   C4B 9430  34.004  36.890   7.624
  376POPC   NC3 9431  35.566  33.531   9.446
  376POPC   PO4 9432  34.958  33.777   9.602
  376POPC   GL1 9433  35.146  33.700   9.194
  376POPC   GL2 9434  35.200  34.048   9.096
  376POPC   C1A 9435  35.415  33.609   8.799
  376POPC   D2A 9436  35.419  33.516   8.345
  376POPC   C3A 9437  35.520  33.851   8.005
  376POPC   C4A 9438  35.675  33.805   7.585
  376POPC   C1B 9439  34.983  33.894   8.738
  376POPC   C2B 9440  35.077  33.896   8.329
  376POPC   C3B 9441  35.047  33.702   7.962
  376POPC   C4B 9442  35.096  33.868   7.529
  377POPC   NC3 9443   3.418  18.245   9.404
  377POPC   PO4 9444   4.036  18.663   9.460
  377POPC   GL1 9445   3.673  18.587   9.073
  377POPC   GL2 9446   3.428  18.290   8.903
  377POPC   C1A 9447   3.577  18.629   8.586
  377POPC   D2A 9448   3.546  18.221   8.342
  377POPC   C3A 9449   3.862  18.276   8.022
  377POPC   C4A 9450   3.668  18.603   7.730
  377POPC   C1B 9451   3.086  17.998   8.774
  377POPC   C2B 9452   3.039  17.768   8.362
  377POPC   C3B 9453   3.107  17.967   7.982
  377POPC   C4B 9454   3.437  18.157   7.787
  378POPC   NC3 9455  34.293  19.933   9.451
  378POPC   PO4 9456  33.669  20.173   9.598
  378POPC   GL1 9457  33.682  19.987   9.165
  378POPC   GL2 9458  33.807  19.622   9.125
  378POPC   C1A 9459  33.644  19.952   8.713
  378POPC   D2A 9460  33.481  19.719   8.351
  378POPC   C3A 9461  33.680  19.724   7.944
  378POPC   C4A 9462  33.817  20.047   7.643
  378POPC   C1B 9463  33.971  19.590   8.678
  378POPC   C2B 9464  33.988  19.866   8.323
  378POPC   C3B 9465  34.201  19.773   7.945
  378POPC   C4B 9466  34.073  19.612   7.557
  379POPC   NC3 9467  43.579  14.841   9.596
  379POPC   PO4 9468  43.774  14.222   9.459
  379POPC   GL1 9469  43.923  14.440   9.133
  379POPC   GL2 9470  44.179  14.699   9.268
  379POPC   C1A 9471  44.035  14.242   8.746
  379POPC   D2A 9472  44.367  14.311   8.432
  379POPC   C3A 9473  44.158  14.290   8.040
  379POPC   C4A 9474  43.691  14.127   7.914
  379POPC   C1B 9475  44.265  14.669   8.825
  379POPC   C2B 9476  43.985  14.694   8.446
  379POPC   C3B 9477  43.880  14.716   7.995
  379POPC   C4B 9478  43.565  14.934   7.794
  380POPC   NC3 9479   6.090   8.228   9.550
  380POPC   PO4 9480   5.592   7.814   9.541
  380POPC   GL1 9481   5.789   8.065   9.196
  380POPC   GL2 9482   5.602   8.353   9.251
  380POPC   C1A 9483   5.862   8.341   8.808
  380POPC   D2A 9484   6.089   8.307   8.402
  380POPC   C3A 9485   5.961   7.941   8.119
  380POPC   C4A 9486   5.869   7.816   7.700
  380POPC   C1B 9487   5.401   8.050   8.902
  380POPC   C2B 9488   5.580   8.031   8.480
  380POPC   C3B 9489   5.624   8.344   8.144
  380POPC   C4B 9490   5.653   8.278   7.691
  381POPC   NC3 9491   5.508  16.163   9.527
  381POPC   PO4 9492   5.156  15.591   9.538
  381POPC   GL1 9493   5.252  15.872   9.194
  381POPC   GL2 9494   5.000  16.109   9.065
  381POPC   C1A 9495   5.416  16.028   8.804
  381POPC   D2A 9496   5.338  15.756   8.474
  381POPC   C3A 9497   5.171  15.838   8.087
  381POPC   C4A 9498   5.268  15.707   7.672
  381POPC   C1B 9499   4.925  15.810   8.776
  381POPC   C2B 9500   4.740  15.813   8.381
  381POPC   C3B 9501   4.718  16.080   8.029
  381POPC   C4B 9502   4.921  16.080   7.666
  382POPC   NC3 9503  27.270  12.973   9.575
  382POPC   PO4 9504  27.869  12.581   9.466
  382POPC   GL1 9505  27.752  12.872   9.160
  382POPC   GL2 9506  27.389  12.844   9.104
  382POPC   C1A 9507  27.677  13.047   8.746
  382POPC   D2A 9508  27.729  12.777   8.400
  382POPC   C3A 9509  27.888  12.955   8.029
  382POPC   C4A 9510  27.844  12.746   7.638
  382POPC   C1B 9511  27.177  12.910   8.703
  382POPC   C2B 9512  27.295  13.034   8.283
  382POPC   C3B 9513  27.404  12.909   7.847
  382POPC   C4B 9514  27.345  12.645   7.441
  383POPC   NC3 9515  21.055  35.761   9.409
  383POPC   PO4 9516  21.280  36.322   9.660
  383POPC   GL1 9517  21.346  36.185   9.195
  383POPC   GL2 9518  21.363  35.886   9.042
  383POPC   C1A 9519  21.467  36.279   8.737
  383POPC   D2A 9520  21.204  36.269   8.375
  383POPC   C3A 9521  21.230  36.443   7.981
  383POPC   C4A 9522  21.449  36.295   7.599
  383POPC   C1B 9523  21.108  35.881   8.695
  383POPC   C2B 9524  21.084  35.718   8.289
  383POPC   C3B 9525  21.239  35.926   7.941
  383POPC   C4B 9526  21.557  35.800   7.719
  384POPC   NC3 9527  21.696   3.621   9.613
  384POPC   PO4 9528  21.202   3.259   9.505
  384POPC   GL1 9529  21.163   3.626   9.214
  384POPC   GL2 9530  21.482   3.837   9.194
  384POPC   C1A 9531  21.230   3.561   8.764
  384POPC   D2A 9532  21.064   3.535   8.332
  384POPC   C3A 9533  21.134   3.166   8.072
  384POPC   C4A 9534  21.433   3.002   7.768
  384POPC   C1B 9535  21.666   3.832   8.779
  384POPC   C2B 9536  21.575   3.653   8.380
  384POPC   C3B 9537  21.418   3.625   7.968
  384POPC   C4B 9538  21.759   3.416   7.784
  385POPC   NC3 9539   8.709  38.907   9.690
  385POPC   PO4 9540   9.111  38.357   9.561
  385POPC   GL1 9541   9.093  38.485   9.169
  385POPC   GL2 9542   9.260  38.786   9.199
  385POPC   C1A 9543   8.957  38.444   8.750
  385POPC   D2A 9544   9.192  38.590   8.393
  385POPC   C3A 9545   9.022  38.413   8.004
  385POPC   C4A 9546   8.660  38.113   8.028
  385POPC   C1B 9547   8.958  38.937   8.882
  385POPC   C2B 9548   8.736  38.841   8.490
  385POPC   C3B 9549   8.778  38.889   8.048
  385POPC   C4B 9550   9.034  38.889   7.670
  386POPC   NC3 9551   0.149  27.724   9.637
  386POPC   PO4 9552   0.835  27.622   9.694
  386POPC   GL1 9553   0.658  27.710   9.291
  386POPC   GL2 9554   0.440  27.425   9.307
  386POPC   C1A 9555   0.696  27.849   8.861
  386POPC   D2A 9556   0.758  27.623   8.441
  386POPC   C3A 9557   0.541  27.692   8.021
  386POPC   C4A 9558   0.563  27.273   7.775
  386POPC   C1B 9559   0.298  27.549   8.891
  386POPC   C2B 9560   0.243  27.670   8.453
  386POPC   C3B 9561   0.151  27.390   8.088
  386POPC   C4B 9562   0.085  27.352   7.650
  387POPC   NC3 9563  37.924   4.261   9.870
  387POPC   PO4 9564  37.563   3.888   9.384
  387POPC   GL1 9565  37.530   4.230   9.066
  387POPC   GL2 9566  37.287   4.460   9.074
  387POPC   C1A 9567  37.792   4.313   8.692
  387POPC   D2A 9568  37.947   4.031   8.370
  387POPC   C3A 9569  37.985   4.260   8.012
  387POPC   C4A 9570  37.908   4.199   7.580
  387POPC   C1B 9571  37.277   4.313   8.626
  387POPC   C2B 9572  37.505   4.442   8.268
  387POPC   C3B 9573  37.499   4.365   7.828
  387POPC   C4B 9574  37.353   4.082   7.517
  388POPC   NC3 9575   2.943   1.891   9.423
  388POPC   PO4 9576   2.217   1.726   9.482
  388POPC   GL1 9577   2.476   1.890   9.108
  388POPC   GL2 9578   2.795   1.776   8.938
  388POPC   C1A 9579   2.602   2.195   8.771
  388POPC   D2A 9580   2.919   2.188   8.456
  388POPC   C3A 9581   2.757   2.138   8.071
  388POPC   C4A 9582   2.519   2.271   7.749
  388POPC   C1B 9583   2.980   1.483   8.659
  388POPC   C2B 9584   3.171   1.675   8.329
  388POPC   C3B 9585   3.097   1.775   7.945
  388POPC   C4B 9586   2.810   1.848   7.621
  389POPC   NC3 9587  42.020  20.533   9.560
  389POPC   PO4 9588  41.360  20.688   9.653
  389POPC   GL1 9589  41.557  20.687   9.281
  389POPC   GL2 9590  41.234  20.599   9.136
  389POPC   C1A 9591  41.717  20.810   8.894
  389POPC   D2A 9592  41.816  20.627   8.516
  389POPC   C3A 9593  41.708  20.783   8.133
  389POPC   C4A 9594  41.799  20.570   7.756
  389POPC   C1B 9595  41.305  20.554   8.686
  389POPC   C2B 9596  41.153  20.652   8.245
  389POPC   C3B 9597  41.285  20.641   7.807
  389POPC   C4B 9598  41.158  20.486   7.398
  390POPC   NC3 9599  26.354  39.988   9.675
  390POPC   PO4 9600  25.772  39.782   9.497
  390POPC   GL1 9601  25.813  40.103   9.168
  390POPC   GL2 9602  26.127  40.332   9.173
  390POPC   C1A 9603  25.851  40.023   8.732
  390POPC   D2A 9604  25.905  39.747   8.369
  390POPC   C3A 9605  25.819  39.930   7.955
  390POPC   C4A 9606  26.032  39.848   7.538
  390POPC   C1B 9607  26.310  40.227   8.750
  390POPC   C2B 9608  26.181  40.217   8.301
  390POPC   C3B 9609  26.217  40.221   7.847
  390POPC   C4B 9610  26.309  40.252   7.376
  391POPC   NC3 9611  33.961  36.445   9.479
  391POPC   PO4 9612  33.424  36.122   9.536
  391POPC   GL1 9613  33.668  36.090   9.129
  391POPC   GL2 9614  33.897  36.355   8.988
  391POPC   C1A 9615  33.524  36.159   8.701
  391POPC   D2A 9616  33.551  36.303   8.271
  391POPC   C3A 9617  33.442  35.951   7.968
  391POPC   C4A 9618  33.217  35.912   7.575
  391POPC   C1B 9619  34.182  36.045   8.748
  391POPC   C2B 9620  34.223  35.881   8.322
  391POPC   C3B 9621  33.947  36.053   8.009
  391POPC   C4B 9622  33.989  36.099   7.544
  392POPC   NC3 9623  22.352  37.225   9.570
  392POPC   PO4 9624  22.099  36.713   9.522
  392POPC   GL1 9625  22.222  36.854   9.141
  392POPC   GL2 9626  22.504  37.082   9.123
  392POPC   C1A 9627  22.027  36.842   8.735
  392POPC   D2A 9628  21.762  36.626   8.426
  392POPC   C3A 9629  22.044  36.604   8.099
  392POPC   C4A 9630  22.117  36.835   7.730
  392POPC   C1B 9631  22.560  36.886   8.757
  392POPC   C2B 9632  22.371  36.914   8.344
  392POPC   C3B 9633  22.572  36.889   7.948
  392POPC   C4B 9634  22.539  37.081   7.518
  393POPC   NC3 9635   6.347  15.619   9.515
  393POPC   PO4 9636   6.866  15.203   9.521
  393POPC   GL1 9637   6.573  15.360   9.145
  393POPC   GL2 9638   6.697  15.699   9.128
  393POPC   C1A 9639   6.439  15.161   8.722
  393POPC   D2A 9640   6.462  14.837   8.395
  393POPC   C3A 9641   6.528  15.030   7.974
  393POPC   C4A 9642   6.642  15.010   7.530
  393POPC   C1B 9643   6.835  15.502   8.736
  393POPC   C2B 9644   6.769  15.307   8.359
  393POPC   C3B 9645   6.870  15.427   7.971
  393POPC   C4B 9646   6.552  15.483   7.686
  394POPC   NC3 9647  33.486  22.422   9.541
  394POPC   PO4 9648  33.811  21.877   9.700
  394POPC   GL1 9649  33.801  22.044   9.249
  394POPC   GL2 9650  33.785  22.364   9.137
  394POPC   C1A 9651  33.870  21.967   8.789
  394POPC   D2A 9652  34.178  22.111   8.478
  394POPC   C3A 9653  34.052  21.989   8.086
  394POPC   C4A 9654  33.982  22.083   7.670
  394POPC   C1B 9655  33.859  22.486   8.740
  394POPC   C2B 9656  33.719  22.292   8.365
  394POPC   C3B 9657  33.780  22.468   7.973
  394POPC   C4B 9658  33.950  22.570   7.577
  395POPC   NC3 9659  35.127  34.234   9.563
  395POPC   PO4 9660  35.507  34.829   9.704
  395POPC   GL1 9661  35.256  34.633   9.293
  395POPC   GL2 9662  34.930  34.739   9.200
  395POPC   C1A 9663  35.400  34.468   8.866
  395POPC   D2A 9664  35.702  34.651   8.553
  395POPC   C3A 9665  35.503  34.746   8.170
  395POPC   C4A 9666  35.574  34.737   7.746
  395POPC   C1B 9667  34.896  34.441   8.820
  395POPC   C2B 9668  35.175  34.406   8.427
  395POPC   C3B 9669  35.204  34.285   8.004
  395POPC   C4B 9670  35.435  34.248   7.636
  396POPC   NC3 9671  44.115   2.701   9.458
  396POPC   PO4 9672  43.532   2.543   9.418
  396POPC   GL1 9673  43.625   2.776   9.044
  396POPC   GL2 9674  43.947   2.678   8.984
  396POPC   C1A 9675  43.700   2.908   8.613
  396POPC   D2A 9676  43.871   3.000   8.218
  396POPC   C3A 9677  43.735   2.787   7.854
  396POPC   C4A 9678  43.572   2.906   7.449
  396POPC   C1B 9679  44.216   2.847   8.685
  396POPC   C2B 9680  44.377   2.827   8.286
  396POPC   C3B 9681  44.258   2.956   7.866
  396POPC   C4B 9682  44.336   3.398   7.718
  397POPC   NC3 9683  34.196  42.442   9.425
  397POPC   PO4 9684  34.868  42.038   9.427
  397POPC   GL1 9685  34.626  42.270   9.124
  397POPC   GL2 9686  34.308  42.105   9.072
  397POPC   C1A 9687  34.632  42.552   8.743
  397POPC   D2A 9688  34.431  42.549   8.314
  397POPC   C3A 9689  34.705  42.459   7.941
  397POPC   C4A 9690  34.999  42.148   7.912
  397POPC   C1B 9691  34.338  42.142   8.665
  397POPC   C2B 9692  34.629  41.906   8.444
  397POPC   C3B 9693  34.535  41.969   8.044
  397POPC   C4B 9694  34.242  42.277   7.914
  398POPC   NC3 9695  42.750  20.900   9.566
  398POPC   PO4 9696  43.123  21.463   9.529
  398POPC   GL1 9697  42.977  21.329   9.152
  398POPC   GL2 9698  43.317  21.265   9.064
  398POPC   C1A 9699  42.829  21.260   8.727
  398POPC   D2A 9700  43.007  21.397   8.298
  398POPC   C3A 9701  42.872  21.326   7.852
  398POPC   C4A 9702  43.114  21.494   7.494
  398POPC   C1B 9703  43.346  21.195   8.659
  398POPC   C2B 9704  43.510  21.270   8.299
  398POPC   C3B 9705  43.384  21.262   7.910
  398POPC   C4B 9706  43.454  21.037   7.583
  399POPC   NC3 9707  34.182  30.750   9.709
  399POPC   PO4 9708  33.543  30.515   9.542
  399POPC   GL1 9709  33.861  30.542   9.240
  399POPC   GL2 9710  33.681  30.824   9.113
  399POPC   C1A 9711  33.956  30.564   8.785
  399POPC   D2A 9712  33.780  30.779   8.435
  399POPC   C3A 9713  33.938  30.583   8.090
  399POPC   C4A 9714  33.810  30.641   7.687
  399POPC   C1B 9715  33.427  31.114   8.858
  399POPC   C2B 9716  33.377  31.169   8.426
  399POPC   C3B 9717  33.539  31.055   8.002
  399POPC   C4B 9718  33.386  30.919   7.595
  400POPC   NC3 9719  16.057   0.506   9.590
  400POPC   PO4 9720  15.581   0.888   9.400
  400POPC   GL1 9721  15.861   0.652   9.103
  400POPC   GL2 9722  15.961   0.281   9.085
  400POPC   C1A 9723  16.007   0.696   8.681
  400POPC   D2A 9724  15.870   0.493   8.301
  400POPC   C3A 9725  15.886   0.724   7.899
  400POPC   C4A 9726  15.704   0.742   7.486
  400POPC   C1B 9727  16.178   0.207   8.641
  400POPC   C2B 9728  16.257   0.162   8.196
  400POPC   C3B 9729  15.961   0.239   7.863
  400POPC   C4B 9730  15.748   0.231   7.486
  401POPC   NC3 9731   8.853  40.456   9.443
  401POPC   PO4 9732   9.468  40.825   9.560
  401POPC   GL1 9733   9.158  40.777   9.202
  401POPC   GL2 9734   8.833  40.945   9.202
  401POPC   C1A 9735   9.178  40.825   8.762
  401POPC   D2A 9736   8.952  41.095   8.456
  401POPC   C3A 9737   8.990  40.897   8.046
  401POPC   C4A 9738   9.316  40.610   7.849
  401POPC   C1B 9739   8.681  40.766   8.808
  401POPC   C2B 9740   8.609  40.705   8.374
  401POPC   C3B 9741   8.595  40.567   7.941
  401POPC   C4B 9742   8.420  40.572   7.535
  402POPC   NC3 9743   5.149  43.768   9.314
  402POPC   PO4 9744   4.844  44.218   9.717
  402POPC   GL1 9745   5.112  44.252   9.170
  402POPC   GL2 9746   5.015  43.980   8.858
  402POPC   C1A 9747   5.431  44.230   8.804
  402POPC   D2A 9748   5.289  44.000   8.412
  402POPC   C3A 9749   5.092  44.133   8.031
  402POPC   C4A 9750   5.009  43.844   7.718
  402POPC   C1B 9751   4.811  43.590   8.687
  402POPC   C2B 9752   4.701  43.455   8.275
  402POPC   C3B 9753   4.785  43.408   7.867
  402POPC   C4B 9754   4.680  43.550   7.423
  403POPC   NC3 9755  29.033  28.690   9.658
  403POPC   PO4 9756  29.111  28.077   9.705
  403POPC   GL1 9757  29.165  28.298   9.309
  403POPC   GL2 9758  29.303  27.994   9.208
  403POPC   C1A 9759  29.230  28.499   8.886
  403POPC   D2A 9760  29.123  28.659   8.435
  403POPC   C3A 9761  29.152  28.450   8.020
  403POPC   C4A 9762  29.296  28.425   7.542
  403POPC   C1B 9763  29.155  28.006   8.824
  403POPC   C2B 9764  29.249  28.159   8.444
  403POPC   C3B 9765  29.474  28.027   8.113
  403POPC   C4B 9766  29.202  27.996   7.787
  404POPC   NC3 9767  11.680  12.504   9.343
  404POPC   PO4 9768  11.155  12.866   9.603
  404POPC   GL1 9769  11.150  12.847   9.171
  404POPC   GL2 9770  11.135  12.482   9.179
  404POPC   C1A 9771  11.280  12.927   8.746
  404POPC   D2A 9772  11.492  12.889   8.348
  404POPC   C3A 9773  11.349  12.796   7.923
  404POPC   C4A 9774  11.508  12.834   7.439
  404POPC   C1B 9775  10.918  12.572   8.782
  404POPC   C2B 9776  10.981  12.714   8.349
  404POPC   C3B 9777  10.961  12.482   7.952
  404POPC   C4B 9778  11.154  12.509   7.557
  405POPC   NC3 9779  21.122  32.862   9.512
  405POPC   PO4 9780  21.605  33.224   9.728
  405POPC   GL1 9781  21.426  33.147   9.203
  405POPC   GL2 9782  21.090  33.287   9.151
  405POPC   C1A 9783  21.523  32.879   8.800
  405POPC   D2A 9784  21.283  32.673   8.464
  405POPC   C3A 9785  21.476  32.751   8.056
  405POPC   C4A 9786  21.431  32.842   7.624
  405POPC   C1B 9787  21.126  33.191   8.707
  405POPC   C2B 9788  21.317  33.370   8.332
  405POPC   C3B 9789  21.372  33.280   7.900
  405POPC   C4B 9790  21.123  33.235   7.524
  406POPC   NC3 9791  36.275  33.748   9.595
  406POPC   PO4 9792  35.636  34.025   9.422
  406POPC   GL1 9793  35.953  33.718   9.166
  406POPC   GL2 9794  36.328  33.565   9.140
  406POPC   C1A 9795  35.975  33.572   8.754
  406POPC   D2A 9796  35.844  33.790   8.397
  406POPC   C3A 9797  36.066  33.864   8.025
  406POPC   C4A 9798  36.185  33.772   7.614
  406POPC   C1B 9799  36.561  33.604   8.772
  406POPC   C2B 9800  36.387  33.651   8.379
  406POPC   C3B 9801  36.296  33.411   8.032
  406POPC   C4B 9802  36.356  33.268   7.626
  407POPC   NC3 9803  32.872  35.026   9.430
  407POPC   PO4 9804  33.388  35.431   9.502
  407POPC   GL1 9805  33.160  35.362   9.132
  407POPC   GL2 9806  33.250  35.013   9.047
  407POPC   C1A 9807  32.828  35.458   8.802
  407POPC   D2A 9808  32.688  35.648   8.402
  407POPC   C3A 9809  32.937  35.680   7.997
  407POPC   C4A 9810  32.969  35.315   7.707
  407POPC   C1B 9811  33.192  35.146   8.645
  407POPC   C2B 9812  33.022  34.982   8.258
  407POPC   C3B 9813  33.317  35.025   7.939
  407POPC   C4B 9814  33.468  35.451   7.809
  408POPC   NC3 9815  17.988  17.410   9.469
  408POPC   PO4 9816  18.620  17.597   9.708
  408POPC   GL1 9817  18.443  17.590   9.225
  408POPC   GL2 9818  18.221  17.296   9.051
  408POPC   C1A 9819  18.606  17.438   8.795
  408POPC   D2A 9820  18.477  17.203   8.386
  408POPC   C3A 9821  18.401  17.466   8.038
  408POPC   C4A 9822  18.475  17.633   7.618
  408POPC   C1B 9823  18.116  17.477   8.596
  408POPC   C2B 9824  17.875  17.527   8.211
  408POPC   C3B 9825  17.954  17.380   7.784
  408POPC   C4B 9826  17.920  17.309   7.348
  409POPC   NC3 9827  27.589  25.965   9.534
  409POPC   PO4 9828  27.495  26.569   9.381
  409POPC   GL1 9829  27.651  26.275   9.133
  409POPC   GL2 9830  27.399  26.002   9.066
  409POPC   C1A 9831  27.807  26.145   8.738
  409POPC   D2A 9832  27.687  26.390   8.381
  409POPC   C3A 9833  27.841  26.229   8.013
  409POPC   C4A 9834  27.862  25.825   7.805
  409POPC   C1B 9835  27.310  26.334   8.763
  409POPC   C2B 9836  27.188  26.180   8.389
  409POPC   C3B 9837  27.443  25.940   8.152
  409POPC   C4B 9838  27.435  26.072   7.749
  410POPC   NC3 9839  41.721   2.881   9.604
  410POPC   PO4 9840  41.118   2.550   9.433
  410POPC   GL1 9841  41.297   2.772   9.086
  410POPC   GL2 9842  41.668   2.748   9.127
  410POPC   C1A 9843  41.494   2.758   8.665
  410POPC   D2A 9844  41.513   3.003   8.307
  410POPC   C3A 9845  41.581   2.701   8.017
  410POPC   C4A 9846  41.399   2.693   7.642
  410POPC   C1B 9847  41.895   3.027   8.846
  410POPC   C2B 9848  41.994   2.889   8.434
  410POPC   C3B 9849  41.967   3.061   8.029
  410POPC   C4B 9850  41.724   3.075   7.672
  411POPC   NC3 9851  14.402  10.951   9.421
  411POPC   PO4 9852  14.151  11.596   9.347
  411POPC   GL1 9853  14.185  11.271   9.071
  411POPC   GL2 9854  14.533  11.235   9.023
  411POPC   C1A 9855  14.216  11.311   8.639
  411POPC   D2A 9856  14.186  11.644   8.367
  411POPC   C3A 9857  14.304  11.503   7.995
  411POPC   C4A 9858  14.354  11.107   7.950
  411POPC   C1B 9859  14.613  11.597   8.777
  411POPC   C2B 9860  14.661  11.410   8.363
  411POPC   C3B 9861  14.813  11.391   7.959
  411POPC   C4B 9862  15.156  11.532   7.725
  412POPC   NC3 9863  18.837  29.736   9.284
  412POPC   PO4 9864  19.214  30.225   9.464
  412POPC   GL1 9865  19.372  30.095   9.096
  412POPC   GL2 9866  19.417  30.442   9.031
  412POPC   C1A 9867  19.337  29.812   8.714
  412POPC   D2A 9868  19.498  29.580   8.321
  412POPC   C3A 9869  19.338  29.787   7.928
  412POPC   C4A 9870  18.898  29.787   7.733
  412POPC   C1B 9871  19.035  30.306   8.796
  412POPC   C2B 9872  19.128  30.195   8.383
  412POPC   C3B 9873  19.289  30.297   7.992
  412POPC   C4B 9874  18.907  30.313   7.783
  413POPC   NC3 9875   3.327  43.649   9.439
  413POPC   PO4 9876   3.855  44.116   9.614
  413POPC   GL1 9877   3.548  44.120   9.272
  413POPC   GL2 9878   3.642  43.835   9.076
  413POPC   C1A 9879   3.430  44.222   8.827
  413POPC   D2A 9880   3.384  44.003   8.418
  413POPC   C3A 9881   3.363  44.175   8.024
  413POPC   C4A 9882   3.625  43.951   7.800
  413POPC   C1B 9883   3.310  43.676   8.788
  413POPC   C2B 9884   3.328  43.459   8.385
  413POPC   C3B 9885   3.265  43.656   8.028
  413POPC   C4B 9886   3.156  43.756   7.622
  414POPC   NC3 9887  27.346  34.358   9.555
  414POPC   PO4 9888  27.667  34.953   9.651
  414POPC   GL1 9889  27.697  34.654   9.288
  414POPC   GL2 9890  27.385  34.532   9.091
  414POPC   C1A 9891  27.737  34.813   8.845
  414POPC   D2A 9892  27.685  34.856   8.386
  414POPC   C3A 9893  27.557  34.501   8.116
  414POPC   C4A 9894  27.582  34.367   7.677
  414POPC   C1B 9895  27.374  34.475   8.649
  414POPC   C2B 9896  27.098  34.634   8.360
  414POPC   C3B 9897  27.046  34.508   7.962
  414POPC   C4B 9898  27.098  34.493   7.551
  415POPC   NC3 9899  10.982  21.240   9.623
  415POPC   PO4 9900  11.417  21.686   9.513
  415POPC   GL1 9901  11.217  21.444   9.175
  415POPC   GL2 9902  10.911  21.598   9.135
  415POPC   C1A 9903  11.189  21.325   8.723
  415POPC   D2A 9904  11.303  21.168   8.291
  415POPC   C3A 9905  11.327  21.446   7.943
  415POPC   C4A 9906  11.229  21.866   7.878
  415POPC   C1B 9907  10.953  21.822   8.753
  415POPC   C2B 9908  11.048  21.652   8.339
  415POPC   C3B 9909  10.814  21.459   7.999
  415POPC   C4B 9910  10.854  21.614   7.579
  416POPC   NC3 9911  11.184  36.327  10.044
  416POPC   PO4 9912  11.064  35.887   9.729
  416POPC   GL1 9913  11.081  35.934   9.240
  416POPC   GL2 9914  11.252  36.242   9.169
  416POPC   C1A 9915  11.298  35.840   8.834
  416POPC   D2A 9916  11.388  35.854   8.372
  416POPC   C3A 9917  11.102  35.834   7.995
  416POPC   C4A 9918  11.188  36.050   7.563
  416POPC   C1B 9919  11.071  36.281   8.745
  416POPC   C2B 9920  11.093  36.269   8.290
  416POPC   C3B 9921  10.900  36.324   7.884
  416POPC   C4B 9922  10.934  36.494   7.448
  417POPC   NC3 9923   9.669  28.809   9.507
  417POPC   PO4 9924   9.995  29.432   9.550
  417POPC   GL1 9925   9.844  29.187   9.221
  417POPC   GL2 9926  10.072  28.975   9.172
  417POPC   C1A 9927   9.605  29.054   8.860
  417POPC   D2A 9928   9.783  29.274   8.505
  417POPC   C3A 9929   9.674  29.205   8.075
  417POPC   C4A 9930   9.659  29.016   7.697
  417POPC   C1B 9931  10.070  28.885   8.761
  417POPC   C2B 9932   9.899  28.797   8.369
  417POPC   C3B 9933  10.197  28.835   8.069
  417POPC   C4B 9934  10.201  28.967   7.663
  418POPC   NC3 9935  26.302   1.662   9.577
  418POPC   PO4 9936  25.877   2.203   9.563
  418POPC   GL1 9937  25.880   2.102   9.150
  418POPC   GL2 9938  26.196   1.990   9.207
  418POPC   C1A 9939  25.803   2.040   8.714
  418POPC   D2A 9940  25.963   2.053   8.328
  418POPC   C3A 9941  25.674   2.082   8.024
  418POPC   C4A 9942  25.631   1.929   7.641
  418POPC   C1B 9943  26.286   1.890   8.788
  418POPC   C2B 9944  26.435   1.901   8.381
  418POPC   C3B 9945  26.356   2.031   7.982
  418POPC   C4B 9946  26.309   1.826   7.604
  419POPC   NC3 9947  12.134  13.209   9.260
  419POPC   PO4 9948  12.135  12.539   9.475
  419POPC   GL1 9949  12.127  12.714   9.100
  419POPC   GL2 9950  12.473  12.898   9.084
  419POPC   C1A 9951  11.825  12.863   8.746
  419POPC   D2A 9952  11.929  13.180   8.389
  419POPC   C3A 9953  11.758  13.087   7.963
  419POPC   C4A 9954  11.830  12.665   7.816
  419POPC   C1B 9955  12.315  12.865   8.659
  419POPC   C2B 9956  12.139  12.689   8.281
  419POPC   C3B 9957  12.329  12.713   7.866
  419POPC   C4B 9958  12.473  12.950   7.515
  420POPC   NC3 9959  29.547  15.257   9.447
  420POPC   PO4 9960  30.193  15.445   9.514
  420POPC   GL1 9961  29.962  15.282   9.155
  420POPC   GL2 9962  29.773  14.927   9.164
  420POPC   C1A 9963  29.992  15.449   8.747
  420POPC   D2A 9964  30.114  15.252   8.402
  420POPC   C3A 9965  29.919  15.332   8.040
  420POPC   C4A 9966  29.665  15.340   7.708
  420POPC   C1B 9967  29.731  15.031   8.750
  420POPC   C2B 9968  29.573  15.131   8.372
  420POPC   C3B 9969  29.656  14.885   8.033
  420POPC   C4B 9970  29.943  14.919   7.719
  421POPC   NC3 9971  16.639  16.972   9.602
  421POPC   PO4 9972  17.269  16.948   9.739
  421POPC   GL1 9973  17.073  16.828   9.321
  421POPC   GL2 9974  16.787  16.631   9.236
  421POPC   C1A 9975  17.038  16.931   8.862
  421POPC   D2A 9976  16.983  16.792   8.416
  421POPC   C3A 9977  16.677  17.027   8.144
  421POPC   C4A 9978  16.540  17.080   7.728
  421POPC   C1B 9979  16.612  16.621   8.811
  421POPC   C2B 9980  16.509  16.582   8.389
  421POPC   C3B 9981  16.736  16.516   8.042
  421POPC   C4B 9982  16.670  16.568   7.634
  422POPC   NC3 9983  40.996  42.584   9.465
  422POPC   PO4 9984  40.831  41.945   9.491
  422POPC   GL1 9985  40.860  42.171   9.131
  422POPC   GL2 9986  40.624  42.461   9.139
  422POPC   C1A 9987  40.848  42.037   8.701
  422POPC   D2A 9988  40.629  42.124   8.328
  422POPC   C3A 9989  40.906  42.089   8.009
  422POPC   C4A 9990  40.792  42.087   7.558
  422POPC   C1B 9991  40.915  42.534   8.781
  422POPC   C2B 9992  40.896  42.602   8.321
  422POPC   C3B 9993  40.713  42.537   7.909
  422POPC   C4B 9994  40.788  42.584   7.480
  423POPC   NC3 9995  29.629  41.912   9.148
  423POPC   PO4 9996  30.116  42.299   9.549
  423POPC   GL1 9997  29.990  42.285   9.126
  423POPC   GL2 9998  29.913  42.634   9.063
  423POPC   C1A 9999  30.045  42.125   8.701
  423POPC   D2A10000  29.878  41.990   8.307
  423POPC   C3A10001  30.122  42.214   8.012
  423POPC   C4A10002  30.402  42.338   7.664
  423POPC   C1B10003  29.691  42.508   8.689
  423POPC   C2B10004  29.408  42.244   8.447
  423POPC   C3B10005  29.543  42.201   7.995
  423POPC   C4B10006  29.754  42.537   7.833
  424POPC   NC310007  29.800  37.127   9.464
  424POPC   PO410008  30.203  36.567   9.573
  424POPC   GL110009  30.142  36.656   9.133
  424POPC   GL210010  29.895  36.872   9.042
  424POPC   C1A10011  30.009  36.484   8.717
  424POPC   D2A10012  29.806  36.658   8.384
  424POPC   C3A10013  30.083  36.938   8.166
  424POPC   C4A10014  30.212  36.934   7.738
  424POPC   C1B10015  29.797  37.110   8.678
  424POPC   C2B10016  29.599  37.146   8.258
  424POPC   C3B10017  29.741  37.101   7.802
  424POPC   C4B10018  29.708  36.946   7.354
  425POPC   NC310019  28.785  15.779   9.509
  425POPC   PO410020  28.151  15.994   9.464
  425POPC   GL110021  28.434  15.855   9.138
  425POPC   GL210022  28.145  15.632   9.064
  425POPC   C1A10023  28.709  15.916   8.710
  425POPC   D2A10024  28.812  16.261   8.392
  425POPC   C3A10025  28.684  16.151   7.945
  425POPC   C4A10026  28.344  16.204   7.650
  425POPC   C1B10027  28.192  15.961   8.721
  425POPC   C2B10028  28.356  16.038   8.323
  425POPC   C3B10029  28.304  15.792   7.951
  425POPC   C4B10030  28.285  15.742   7.462
  426POPC   NC310031  44.230  29.047   9.448
  426POPC   PO410032  44.854  28.874   9.458
  426POPC   GL110033  44.634  29.124   9.137
  426POPC   GL210034  44.462  28.834   9.055
  426POPC   C1A10035  44.640  29.315   8.716
  426POPC   D2A10036  44.529  29.110   8.344
  426POPC   C3A10037  44.559  29.259   7.961
  426POPC   C4A10038  44.591  29.468   7.578
  426POPC   C1B10039  44.830  28.840   8.759
  426POPC   C2B10040   0.008  28.964   8.374
  426POPC   C3B10041  44.885  28.877   7.954
  426POPC   C4B10042  44.938  29.101   7.561
  427POPC   NC310043  35.187  42.525   9.357
  427POPC   PO410044  35.825  42.319   9.495
  427POPC   GL110045  35.731  42.248   9.080
  427POPC   GL210046  35.456  42.065   9.168
  427POPC   C1A10047  35.476  42.345   8.676
  427POPC   D2A10048  35.074  42.491   8.440
  427POPC   C3A10049  35.100  42.749   8.054
  427POPC   C4A10050  35.242  42.537   7.661
  427POPC   C1B10051  35.598  41.869   8.773
  427POPC   C2B10052  35.761  42.021   8.387
  427POPC   C3B10053  35.554  42.225   8.052
  427POPC   C4B10054  35.399  41.915   7.744
  428POPC   NC310055   2.706  26.128   9.502
  428POPC   PO410056   2.898  25.557   9.466
  428POPC   GL110057   2.704  25.698   9.069
  428POPC   GL210058   2.577  26.041   9.001
  428POPC   C1A10059   2.693  25.735   8.603
  428POPC   D2A10060   2.740  26.025   8.289
  428POPC   C3A10061   2.890  25.870   7.932
  428POPC   C4A10062   3.121  26.195   7.745
  428POPC   C1B10063   2.323  26.280   8.671
  428POPC   C2B10064   2.365  26.361   8.213
  428POPC   C3B10065   2.586  26.292   7.808
  428POPC   C4B10066   2.473  26.352   7.353
  429POPC   NC310067  31.522  15.356   9.554
  429POPC   PO410068  31.717  14.651   9.512
  429POPC   GL110069  31.554  14.957   9.197
  429POPC   GL210070  31.790  15.241   9.142
  429POPC   C1A10071  31.326  15.223   8.866
  429POPC   D2A10072  31.180  15.386   8.458
  429POPC   C3A10073  31.242  15.150   8.068
  429POPC   C4A10074  31.219  14.939   7.675
  429POPC   C1B10075  31.781  15.455   8.736
  429POPC   C2B10076  31.708  15.297   8.337
  429POPC   C3B10077  31.682  15.399   7.924
  429POPC   C4B10078  31.677  15.143   7.613
  430POPC   NC310079   7.251  19.167   9.453
  430POPC   PO410080   7.921  19.186   9.414
  430POPC   GL110081   7.651  19.180   9.078
  430POPC   GL210082   7.416  18.873   9.084
  430POPC   C1A10083   7.645  19.034   8.652
  430POPC   D2A10084   7.304  18.778   8.541
  430POPC   C3A10085   7.228  18.893   8.125
  430POPC   C4A10086   7.534  19.174   7.928
  430POPC   C1B10087   7.194  19.196   8.826
  430POPC   C2B10088   7.178  19.309   8.427
  430POPC   C3B10089   6.963  19.349   8.072
  430POPC   C4B10090   7.162  19.434   7.676
  431POPC   NC310091  25.876  42.844   9.529
  431POPC   PO410092  26.386  43.244   9.380
  431POPC   GL110093  26.126  43.015   9.118
  431POPC   GL210094  25.796  43.200   9.153
  431POPC   C1A10095  26.192  42.952   8.698
  431POPC   D2A10096  26.305  43.150   8.341
  431POPC   C3A10097  26.241  42.940   7.956
  431POPC   C4A10098  26.045  43.266   7.768
  431POPC   C1B10099  25.672  42.911   8.827
  431POPC   C2B10100  25.788  42.778   8.403
  431POPC   C3B10101  25.710  42.965   8.024
  431POPC   C4B10102  25.714  42.827   7.624
  432POPC   NC310103   7.128   4.187   9.477
  432POPC   PO410104   7.684   4.500   9.366
  432POPC   GL110105   7.393   4.427   9.097
  432POPC   GL210106   7.450   4.078   9.094
  432POPC   C1A10107   7.275   4.598   8.720
  432POPC   D2A10108   7.480   4.550   8.343
  432POPC   C3A10109   7.349   4.355   7.962
  432POPC   C4A10110   7.666   4.101   7.787
  432POPC   C1B10111   7.425   4.107   8.668
  432POPC   C2B10112   7.102   4.170   8.370
  432POPC   C3B10113   7.038   3.902   8.000
  432POPC   C4B10114   7.288   3.765   7.640
  433POPC   NC310115  21.804   5.312   9.816
  433POPC   PO410116  21.565   4.809   9.381
  433POPC   GL110117  21.507   4.890   8.982
  433POPC   GL210118  21.391   5.215   9.051
  433POPC   C1A10119  21.692   4.993   8.575
  433POPC   D2A10120  21.603   5.309   8.242
  433POPC   C3A10121  21.442   5.104   7.915
  433POPC   C4A10122  21.405   4.915   7.517
  433POPC   C1B10123  21.354   5.366   8.658
  433POPC   C2B10124  21.051   5.372   8.292
  433POPC   C3B10125  20.954   5.291   7.847
  433POPC   C4B10126  21.133   5.338   7.431
  434POPC   NC310127  33.341  23.611   9.933
  434POPC   PO410128  33.015  24.149   9.614
  434POPC   GL110129  33.078  23.830   9.276
  434POPC   GL210130  33.322  23.942   9.070
  434POPC   C1A10131  32.870  23.688   8.899
  434POPC   D2A10132  33.046  23.663   8.477
  434POPC   C3A10133  32.933  23.832   8.075
  434POPC   C4A10134  32.913  23.507   7.763
  434POPC   C1B10135  33.406  24.181   8.718
  434POPC   C2B10136  33.336  24.066   8.325
  434POPC   C3B10137  33.322  24.173   7.922
  434POPC   C4B10138  33.217  23.885   7.595
  435POPC   NC310139  31.166  23.471   9.406
  435POPC   PO410140  31.433  24.102   9.417
  435POPC   GL110141  31.649  23.873   9.130
  435POPC   GL210142  31.616  23.522   9.142
  435POPC   C1A10143  31.655  23.828   8.702
  435POPC   D2A10144  31.318  23.698   8.431
  435POPC   C3A10145  31.428  23.633   8.033
  435POPC   C4A10146  31.210  23.563   7.684
  435POPC   C1B10147  31.807  23.341   8.766
  435POPC   C2B10148  31.856  23.518   8.332
  435POPC   C3B10149  31.762  23.284   7.949
  435POPC   C4B10150  31.712  23.507   7.554
  436POPC   NC310151  19.241  10.829   9.549
  436POPC   PO410152  18.989  11.536   9.561
  436POPC   GL110153  19.189  11.507   9.150
  436POPC   GL210154  19.276  11.160   9.139
  436POPC   C1A10155  19.199  11.428   8.694
  436POPC   D2A10156  19.337  11.328   8.285
  436POPC   C3A10157  19.022  11.508   8.030
  436POPC   C4A10158  19.055  11.718   7.671
  436POPC   C1B10159  18.859  11.128   8.908
  436POPC   C2B10160  18.792  11.185   8.458
  436POPC   C3B10161  18.973  11.009   8.085
  436POPC   C4B10162  18.794  11.153   7.702
  437POPC   NC310163   5.558  43.224   9.693
  437POPC   PO410164   5.040  42.869   9.527
  437POPC   GL110165   5.178  42.862   9.114
  437POPC   GL210166   5.442  43.106   9.192
  437POPC   C1A10167   5.103  42.834   8.660
  437POPC   D2A10168   5.067  43.094   8.297
  437POPC   C3A10169   5.032  42.957   7.884
  437POPC   C4A10170   4.789  43.044   7.540
  437POPC   C1B10171   5.242  43.306   8.817
  437POPC   C2B10172   5.368  43.486   8.412
  437POPC   C3B10173   5.309  43.417   7.969
  437POPC   C4B10174   5.482  43.084   7.696
  438POPC   NC310175  42.631  43.697   9.517
  438POPC   PO410176  42.223  44.171   9.651
  438POPC   GL110177  42.169  43.998   9.204
  438POPC   GL210178  42.342  43.700   9.119
  438POPC   C1A10179  42.156  43.953   8.740
  438POPC   D2A10180  42.426  44.025   8.396
  438POPC   C3A10181  42.248  43.915   7.981
  438POPC   C4A10182  42.455  44.000   7.590
  438POPC   C1B10183  42.398  43.478   8.758
  438POPC   C2B10184  42.289  43.550   8.369
  438POPC   C3B10185  42.310  43.400   8.000
  438POPC   C4B10186  42.382  43.500   7.586
  439POPC   NC310187  37.836   9.437   9.446
  439POPC   PO410188  37.423   9.969   9.486
  439POPC   GL110189  37.667   9.838   9.144
  439POPC   GL210190  38.028   9.840   9.207
  439POPC   C1A10191  37.453   9.594   8.818
  439POPC   D2A10192  37.147   9.551   8.454
  439POPC   C3A10193  37.266   9.747   8.062
  439POPC   C4A10194  37.433   9.537   7.709
  439POPC   C1B10195  38.041   9.583   8.843
  439POPC   C2B10196  37.824   9.651   8.478
  439POPC   C3B10197  37.802   9.695   8.063
  439POPC   C4B10198  37.952   9.450   7.761
  440POPC   NC310199  33.098  35.783   9.565
  440POPC   PO410200  32.844  36.365   9.494
  440POPC   GL110201  33.053  36.175   9.194
  440POPC   GL210202  33.258  36.392   9.094
  440POPC   C1A10203  33.079  35.894   8.881
  440POPC   D2A10204  33.159  35.892   8.441
  440POPC   C3A10205  33.045  36.215   8.165
  440POPC   C4A10206  32.820  36.176   7.775
  440POPC   C1B10207  33.033  36.356   8.688
  440POPC   C2B10208  32.732  36.539   8.410
  440POPC   C3B10209  32.764  36.715   8.017
  440POPC   C4B10210  32.722  36.636   7.600
  441POPC   NC310211   8.549  43.514   9.493
  441POPC   PO410212   8.943  42.912   9.667
  441POPC   GL110213   8.940  42.958   9.207
  441POPC   GL210214   9.184  42.754   9.173
  441POPC   C1A10215   8.886  43.096   8.746
  441POPC   D2A10216   9.081  43.284   8.351
  441POPC   C3A10217   8.866  43.295   7.959
  441POPC   C4A10218   8.682  43.077   7.619
  441POPC   C1B10219   9.330  42.783   8.779
  441POPC   C2B10220   9.157  42.778   8.385
  441POPC   C3B10221   9.035  42.815   7.970
  441POPC   C4B10222   9.208  42.982   7.633
  442POPC   NC310223   1.430  23.409   9.432
  442POPC   PO410224   2.029  23.739   9.481
  442POPC   GL110225   1.855  23.560   9.125
  442POPC   GL210226   2.155  23.404   9.064
  442POPC   C1A10227   1.659  23.330   8.762
  442POPC   D2A10228   1.669  23.384   8.301
  442POPC   C3A10229   1.946  23.690   8.139
  442POPC   C4A10230   1.992  23.875   7.761
  442POPC   C1B10231   2.114  23.491   8.618
  442POPC   C2B10232   2.229  23.256   8.236
  442POPC   C3B10233   2.333  23.463   7.833
  442POPC   C4B10234   2.149  23.556   7.408
  443POPC   NC310235  31.578   7.319   9.435
  443POPC   PO410236  30.904   7.686   9.543
  443POPC   GL110237  31.232   7.646   9.190
  443POPC   GL210238  31.269   7.315   9.017
  443POPC   C1A10239  31.418   7.735   8.751
  443POPC   D2A10240  31.614   7.623   8.362
  443POPC   C3A10241  31.403   7.474   8.000
  443POPC   C4A10242  31.322   7.339   7.600
  443POPC   C1B10243  31.617   7.227   8.751
  443POPC   C2B10244  31.696   7.100   8.339
  443POPC   C3B10245  31.482   6.971   7.966
  443POPC   C4B10246  31.590   6.899   7.537
  444POPC   NC310247  13.421  29.464   9.423
  444POPC   PO410248  13.912  29.038   9.528
  444POPC   GL110249  13.855  29.053   9.098
  444POPC   GL210250  13.573  28.849   9.088
  444POPC   C1A10251  13.809  28.979   8.647
  444POPC   D2A10252  13.533  29.130   8.305
  444POPC   C3A10253  13.697  29.020   7.906
  444POPC   C4A10254  13.840  29.147   7.512
  444POPC   C1B10255  13.278  28.931   8.732
  444POPC   C2B10256  13.114  28.766   8.335
  444POPC   C3B10257  13.221  28.786   7.882
  444POPC   C4B10258  13.341  29.002   7.484
  445POPC   NC310259  44.821  13.473   9.562
  445POPC   PO410260  44.191  13.751   9.515
  445POPC   GL110261  44.489  13.585   9.178
  445POPC   GL210262  44.869  13.635   9.101
  445POPC   C1A10263  44.548  13.437   8.759
  445POPC   D2A10264  44.454  13.253   8.385
  445POPC   C3A10265  44.595  13.428   8.001
  445POPC   C4A10266  44.460  13.516   7.602
  445POPC   C1B10267  44.957  13.789   8.735
  445POPC   C2B10268  44.907  13.574   8.394
  445POPC   C3B10269   0.047  13.690   8.058
  445POPC   C4B10270  44.975  13.618   7.655
  446POPC   NC310271  26.564  41.344   9.555
  446POPC   PO410272  26.982  41.847   9.596
  446POPC   GL110273  26.801  41.804   9.217
  446POPC   GL210274  26.975  41.491   9.166
  446POPC   C1A10275  26.817  41.946   8.796
  446POPC   D2A10276  26.943  41.763   8.384
  446POPC   C3A10277  26.917  41.940   7.986
  446POPC   C4A10278  26.724  41.794   7.594
  446POPC   C1B10279  26.849  41.421   8.759
  446POPC   C2B10280  26.606  41.376   8.387
  446POPC   C3B10281  26.723  41.451   7.967
  446POPC   C4B10282  26.731  41.273   7.521
  447POPC   NC310283  35.113  41.550   9.569
  447POPC   PO410284  35.741  41.582   9.598
  447POPC   GL110285  35.469  41.530   9.166
  447POPC   GL210286  35.122  41.689   9.101
  447POPC   C1A10287  35.328  41.446   8.712
  447POPC   D2A10288  35.322  41.310   8.284
  447POPC   C3A10289  35.389  41.401   7.859
  447POPC   C4A10290  35.252  41.511   7.446
  447POPC   C1B10291  35.085  42.007   8.789
  447POPC   C2B10292  35.223  41.969   8.383
  447POPC   C3B10293  35.002  41.677   8.162
  447POPC   C4B10294  34.883  41.593   7.785
  448POPC   NC310295  34.371   9.087   9.606
  448POPC   PO410296  33.639   9.075   9.608
  448POPC   GL110297  33.934   8.938   9.263
  448POPC   GL210298  33.923   9.197   8.964
  448POPC   C1A10299  33.944   8.707   8.876
  448POPC   D2A10300  33.872   8.861   8.476
  448POPC   C3A10301  33.495   8.835   8.219
  448POPC   C4A10302  33.492   8.843   7.788
  448POPC   C1B10303  34.175   9.261   8.613
  448POPC   C2B10304  34.263   9.120   8.249
  448POPC   C3B10305  33.896   9.126   8.032
  448POPC   C4B10306  33.815   9.279   7.676
  449POPC   NC310307  36.644   6.634   9.520
  449POPC   PO410308  37.067   6.125   9.273
  449POPC   GL110309  36.792   6.413   9.067
  449POPC   GL210310  36.820   6.781   9.068
  449POPC   C1A10311  36.923   6.544   8.648
  449POPC   D2A10312  36.796   6.750   8.296
  449POPC   C3A10313  37.045   6.659   7.929
  449POPC   C4A10314  37.123   6.461   7.531
  449POPC   C1B10315  36.732   7.048   8.723
  449POPC   C2B10316  36.752   7.273   8.330
  449POPC   C3B10317  36.808   7.107   7.927
  449POPC   C4B10318  36.932   6.987   7.476
  450POPC   NC310319  37.673  34.449   9.446
  450POPC   PO410320  38.335  34.275   9.378
  450POPC   GL110321  37.997  34.373   9.046
  450POPC   GL210322  37.617  34.404   8.942
  450POPC   C1A10323  37.966  34.563   8.629
  450POPC   D2A10324  37.761  34.773   8.294
  450POPC   C3A10325  37.711  34.422   8.014
  450POPC   C4A10326  37.853  34.286   7.625
  450POPC   C1B10327  37.460  34.795   8.774
  450POPC   C2B10328  37.266  34.974   8.405
  450POPC   C3B10329  37.312  34.764   8.023
  450POPC   C4B10330  37.366  34.549   7.647
  451POPC   NC310331   3.234  29.655   9.619
  451POPC   PO410332   2.564  29.804   9.488
  451POPC   GL110333   2.862  29.968   9.220
  451POPC   GL210334   2.973  29.650   9.176
  451POPC   C1A10335   2.756  30.195   8.822
  451POPC   D2A10336   2.898  30.206   8.399
  451POPC   C3A10337   2.664  29.934   8.151
  451POPC   C4A10338   2.548  29.916   7.745
  451POPC   C1B10339   2.715  29.686   8.808
  451POPC   C2B10340   2.984  29.628   8.481
  451POPC   C3B10341   3.062  29.391   8.151
  451POPC   C4B10342   2.856  29.476   7.797
  452POPC   NC310343   4.669   0.298   9.589
  452POPC   PO410344   4.138   0.653   9.705
  452POPC   GL110345   4.343   0.617   9.293
  452POPC   GL210346   4.307   0.263   9.211
  452POPC   C1A10347   4.399   0.668   8.837
  452POPC   D2A10348   4.508   0.689   8.370
  452POPC   C3A10349   4.199   0.637   8.063
  452POPC   C4A10350   4.124   0.479   7.675
  452POPC   C1B10351   4.351   0.167   8.787
  452POPC   C2B10352   4.468   0.158   8.383
  452POPC   C3B10353   4.301   0.132   8.017
  452POPC   C4B10354   4.469  44.983   7.680
  453POPC   NC310355   3.171  42.680   9.451
  453POPC   PO410356   2.655  43.087   9.600
  453POPC   GL110357   2.859  43.121   9.172
  453POPC   GL210358   2.987  43.445   9.085
  453POPC   C1A10359   2.735  43.168   8.725
  453POPC   D2A10360   2.820  43.255   8.276
  453POPC   C3A10361   2.767  42.901   7.995
  453POPC   C4A10362   2.577  42.798   7.594
  453POPC   C1B10363   3.238  43.148   8.773
  453POPC   C2B10364   3.235  42.952   8.329
  453POPC   C3B10365   3.193  43.120   7.850
  453POPC   C4B10366   3.030  42.945   7.402
  454POPC   NC310367  12.076  24.733   9.467
  454POPC   PO410368  11.837  24.075   9.455
  454POPC   GL110369  11.958  24.392   9.065
  454POPC   GL210370  12.167  24.716   8.970
  454POPC   C1A10371  12.135  24.320   8.633
  454POPC   D2A10372  12.317  24.318   8.216
  454POPC   C3A10373  12.042  24.439   7.900
  454POPC   C4A10374  12.070  24.834   7.762
  454POPC   C1B10375  11.852  24.737   8.629
  454POPC   C2B10376  11.703  24.611   8.241
  454POPC   C3B10377  11.518  24.671   7.855
  454POPC   C4B10378  11.645  24.775   7.477
  455POPC   NC310379   4.515  19.068   9.502
  455POPC   PO410380   5.027  18.764   9.545
  455POPC   GL110381   4.731  18.895   9.091
  455POPC   GL210382   4.340  19.057   9.050
  455POPC   C1A10383   4.568  18.930   8.627
  455POPC   D2A10384   4.309  19.093   8.306
  455POPC   C3A10385   4.522  19.030   7.911
  455POPC   C4A10386   4.467  19.123   7.491
  455POPC   C1B10387   4.054  18.842   8.815
  455POPC   C2B10388   4.080  18.624   8.465
  455POPC   C3B10389   3.960  18.776   8.103
  455POPC   C4B10390   4.112  18.834   7.713
  456POPC   NC310391  36.350  43.397   9.349
  456POPC   PO410392  35.869  43.044   9.556
  456POPC   GL110393  36.061  43.017   9.166
  456POPC   GL210394  36.367  42.943   8.983
  456POPC   C1A10395  35.903  43.156   8.814
  456POPC   D2A10396  35.969  42.989   8.423
  456POPC   C3A10397  35.938  43.131   8.025
  456POPC   C4A10398  36.053  42.963   7.608
  456POPC   C1B10399  36.377  43.265   8.691
  456POPC   C2B10400  36.334  43.386   8.278
  456POPC   C3B10401  36.442  43.066   7.985
  456POPC   C4B10402  36.537  43.134   7.584
  457POPC   NC310403   8.323  19.422   9.454
  457POPC   PO410404   8.345  20.040   9.716
  457POPC   GL110405   8.162  20.031   9.291
  457POPC   GL210406   8.436  19.860   9.189
  457POPC   C1A10407   8.001  19.800   8.891
  457POPC   D2A10408   8.126  19.601   8.482
  457POPC   C3A10409   8.008  19.692   8.045
  457POPC   C4A10410   8.161  19.604   7.668
  457POPC   C1B10411   8.490  19.910   8.774
  457POPC   C2B10412   8.383  20.044   8.403
  457POPC   C3B10413   8.447  19.934   8.029
  457POPC   C4B10414   8.304  20.087   7.641
  458POPC   NC310415  44.000  32.283   9.405
  458POPC   PO410416  43.538  32.840   9.404
  458POPC   GL110417  43.665  32.475   9.075
  458POPC   GL210418  44.033  32.466   8.908
  458POPC   C1A10419  43.710  32.143   8.713
  458POPC   D2A10420  43.777  32.459   8.377
  458POPC   C3A10421  43.907  32.360   7.964
  458POPC   C4A10422  43.772  31.981   7.834
  458POPC   C1B10423  44.220  32.059   8.700
  458POPC   C2B10424  44.089  31.895   8.282
  458POPC   C3B10425  44.299  32.015   7.891
  458POPC   C4B10426  44.433  32.444   7.753
  459POPC   NC310427   2.031  18.654   9.538
  459POPC   PO410428   1.718  19.255   9.455
  459POPC   GL110429   1.824  19.014   9.078
  459POPC   GL210430   2.150  18.801   9.075
  459POPC   C1A10431   2.050  19.185   8.710
  459POPC   D2A10432   2.264  19.381   8.328
  459POPC   C3A10433   2.115  19.268   7.910
  459POPC   C4A10434   1.734  19.124   7.720
  459POPC   C1B10435   2.000  18.668   8.693
  459POPC   C2B10436   2.133  18.870   8.301
  459POPC   C3B10437   2.071  18.747   7.899
  459POPC   C4B10438   1.689  18.600   7.770
  460POPC   NC310439  13.168   8.744   9.432
  460POPC   PO410440  12.542   8.896   9.680
  460POPC   GL110441  12.710   9.014   9.229
  460POPC   GL210442  12.965   8.860   8.991
  460POPC   C1A10443  12.552   9.046   8.764
  460POPC   D2A10444  12.659   9.174   8.316
  460POPC   C3A10445  12.784   8.892   7.974
  460POPC   C4A10446  12.788   8.934   7.490
  460POPC   C1B10447  13.049   9.180   8.673
  460POPC   C2B10448  13.184   9.162   8.227
  460POPC   C3B10449  13.148   9.198   7.782
  460POPC   C4B10450  13.299   8.819   7.643
  461POPC   NC310451   8.593  15.497   9.386
  461POPC   PO410452   9.266  15.319   9.376
  461POPC   GL110453   8.963  15.334   9.071
  461POPC   GL210454   8.810  15.038   9.220
  461POPC   C1A10455   8.725  15.501   8.711
  461POPC   D2A10456   8.585  15.350   8.270
  461POPC   C3A10457   8.949  15.346   7.945
  461POPC   C4A10458   8.947  15.315   7.465
  461POPC   C1B10459   8.635  15.008   8.820
  461POPC   C2B10460   8.850  14.945   8.457
  461POPC   C3B10461   8.663  14.793   8.122
  461POPC   C4B10462   8.669  14.992   7.736
  462POPC   NC310463   6.624   4.500   9.607
  462POPC   PO410464   6.830   4.012   9.185
  462POPC   GL110465   6.580   4.340   9.035
  462POPC   GL210466   6.275   4.320   9.214
  462POPC   C1A10467   6.459   4.390   8.586
  462POPC   D2A10468   6.405   4.622   8.194
  462POPC   C3A10469   6.631   4.449   7.828
  462POPC   C4A10470   6.907   4.573   7.482
  462POPC   C1B10471   6.244   3.984   8.863
  462POPC   C2B10472   6.351   3.898   8.423
  462POPC   C3B10473   6.284   4.118   8.029
  462POPC   C4B10474   6.277   4.141   7.577
  463POPC   NC310475   7.517  20.784   9.544
  463POPC   PO410476   7.189  20.260   9.417
  463POPC   GL110477   7.248  20.532   9.096
  463POPC   GL210478   7.566  20.560   9.097
  463POPC   C1A10479   7.268  20.479   8.648
  463POPC   D2A10480   7.570  20.430   8.321
  463POPC   C3A10481   7.545  20.670   7.993
  463POPC   C4A10482   7.147  20.687   7.825
  463POPC   C1B10483   7.748  20.633   8.766
  463POPC   C2B10484   7.770  20.899   8.452
  463POPC   C3B10485   7.986  20.886   8.084
  463POPC   C4B10486   7.812  21.035   7.702
  464POPC   NC310487  42.669   2.698   9.454
  464POPC   PO410488  42.054   2.620   9.759
  464POPC   GL110489  42.153   2.609   9.282
  464POPC   GL210490  42.326   2.892   9.098
  464POPC   C1A10491  42.111   2.539   8.814
  464POPC   D2A10492  42.444   2.570   8.491
  464POPC   C3A10493  42.353   2.688   8.074
  464POPC   C4A10494  42.036   2.635   7.753
  464POPC   C1B10495  42.698   2.904   8.794
  464POPC   C2B10496  42.905   2.856   8.373
  464POPC   C3B10497  42.853   2.731   7.932
  464POPC   C4B10498  42.533   2.811   7.611
  465POPC   NC310499   1.111  31.664   9.503
  465POPC   PO410500   1.471  31.174   9.540
  465POPC   GL110501   1.165  31.283   9.171
  465POPC   GL210502   0.940  31.625   9.035
  465POPC   C1A10503   1.224  31.343   8.744
  465POPC   D2A10504   1.030  31.452   8.383
  465POPC   C3A10505   1.312  31.279   8.101
  465POPC   C4A10506   1.441  31.350   7.691
  465POPC   C1B10507   0.715  31.318   8.778
  465POPC   C2B10508   0.533  31.290   8.376
  465POPC   C3B10509   0.811  31.156   8.028
  465POPC   C4B10510   0.990  31.537   7.819
  466POPC   NC310511   4.159   4.529   9.573
  466POPC   PO410512   4.285   3.890   9.628
  466POPC   GL110513   4.275   4.148   9.257
  466POPC   GL210514   4.541   4.417   9.212
  466POPC   C1A10515   4.344   4.104   8.819
  466POPC   D2A10516   4.684   4.112   8.498
  466POPC   C3A10517   4.553   4.283   8.075
  466POPC   C4A10518   4.174   4.320   7.804
  466POPC   C1B10519   4.648   4.704   8.852
  466POPC   C2B10520   4.790   4.644   8.417
  466POPC   C3B10521   4.833   4.724   7.981
  466POPC   C4B10522   4.586   4.611   7.600
  467POPC   NC310523   2.204  34.084   9.515
  467POPC   PO410524   1.641  33.619   9.630
  467POPC   GL110525   1.778  33.770   9.246
  467POPC   GL210526   2.052  33.546   9.184
  467POPC   C1A10527   1.984  33.974   8.896
  467POPC   D2A10528   2.164  33.986   8.438
  467POPC   C3A10529   2.016  33.879   7.979
  467POPC   C4A10530   1.687  33.915   7.618
  467POPC   C1B10531   1.839  33.522   8.750
  467POPC   C2B10532   1.858  33.559   8.336
  467POPC   C3B10533   1.716  33.476   7.918
  467POPC   C4B10534   1.834  33.448   7.487
  468POPC   NC310535  32.565  18.442   9.839
  468POPC   PO410536  33.150  18.532   9.510
  468POPC   GL110537  33.226  18.300   9.138
  468POPC   GL210538  33.271  17.948   9.148
  468POPC   C1A10539  33.235  18.326   8.698
  468POPC   D2A10540  33.165  18.009   8.402
  468POPC   C3A10541  33.172  18.211   8.010
  468POPC   C4A10542  33.063  18.572   7.749
  468POPC   C1B10543  32.920  17.961   8.852
  468POPC   C2B10544  32.628  18.042   8.525
  468POPC   C3B10545  32.736  17.977   8.105
  468POPC   C4B10546  32.764  18.144   7.673
  469POPC   NC310547  17.850  32.551   9.497
  469POPC   PO410548  17.447  31.979   9.584
  469POPC   GL110549  17.389  32.167   9.154
  469POPC   GL210550  17.636  32.322   9.106
  469POPC   C1A10551  17.340  32.433   8.728
  469POPC   D2A10552  17.557  32.227   8.398
  469POPC   C3A10553  17.402  31.975   8.079
  469POPC   C4A10554  17.577  32.213   7.727
  469POPC   C1B10555  17.831  32.532   8.819
  469POPC   C2B10556  17.883  32.604   8.426
  469POPC   C3B10557  17.695  32.608   8.054
  469POPC   C4B10558  17.945  32.560   7.677
  470POPC   NC310559   3.556  10.580   9.619
  470POPC   PO410560   2.931  10.674   9.413
  470POPC   GL110561   3.237  10.872   9.109
  470POPC   GL210562   3.604  10.756   9.145
  470POPC   C1A10563   3.279  10.793   8.649
  470POPC   D2A10564   3.318  10.432   8.377
  470POPC   C3A10565   3.406  10.563   7.973
  470POPC   C4A10566   3.409  10.407   7.537
  470POPC   C1B10567   3.710  10.545   8.742
  470POPC   C2B10568   3.835  10.409   8.301
  470POPC   C3B10569   3.884  10.491   7.837
  470POPC   C4B10570   3.894  10.331   7.401
  471POPC   NC310571  32.127  14.870   9.621
  471POPC   PO410572  31.987  15.522   9.605
  471POPC   GL110573  32.307  15.331   9.298
  471POPC   GL210574  32.233  15.002   9.158
  471POPC   C1A10575  32.609  15.220   8.936
  471POPC   D2A10576  32.570  14.926   8.588
  471POPC   C3A10577  32.581  14.963   8.141
  471POPC   C4A10578  32.619  15.322   7.861
  471POPC   C1B10579  32.139  15.125   8.766
  471POPC   C2B10580  32.243  15.294   8.369
  471POPC   C3B10581  32.129  15.159   7.953
  471POPC   C4B10582  32.107  15.476   7.637
  472POPC   NC310583  25.170   2.566   9.617
  472POPC   PO410584  25.760   2.882   9.459
  472POPC   GL110585  25.457   2.897   9.127
  472POPC   GL210586  25.217   2.611   9.118
  472POPC   C1A10587  25.413   2.864   8.675
  472POPC   D2A10588  25.589   2.665   8.277
  472POPC   C3A10589  25.353   2.855   7.912
  472POPC   C4A10590  25.049   3.024   7.621
  472POPC   C1B10591  25.410   2.369   8.812
  472POPC   C2B10592  25.158   2.448   8.449
  472POPC   C3B10593  25.218   2.357   8.036
  472POPC   C4B10594  25.024   2.516   7.680
  473POPC   NC310595   6.735  33.813   9.560
  473POPC   PO410596   6.193  34.026   9.526
  473POPC   GL110597   6.430  33.918   9.141
  473POPC   GL210598   6.324  33.587   9.098
  473POPC   C1A10599   6.579  34.039   8.702
  473POPC   D2A10600   6.529  33.886   8.258
  473POPC   C3A10601   6.614  33.955   7.799
  473POPC   C4A10602   6.845  33.737   7.479
  473POPC   C1B10603   6.228  33.525   8.652
  473POPC   C2B10604   6.385  33.400   8.257
  473POPC   C3B10605   6.542  33.457   7.839
  473POPC   C4B10606   6.360  33.554   7.434
  474POPC   NC310607  12.373   5.742   9.599
  474POPC   PO410608  11.959   6.250   9.526
  474POPC   GL110609  12.150   6.051   9.177
  474POPC   GL210610  12.500   6.026   9.144
  474POPC   C1A10611  12.166   5.847   8.740
  474POPC   D2A10612  11.914   5.775   8.352
  474POPC   C3A10613  12.114   5.834   7.949
  474POPC   C4A10614  11.974   6.077   7.586
  474POPC   C1B10615  12.405   6.284   8.790
  474POPC   C2B10616  12.227   6.208   8.382
  474POPC   C3B10617  12.482   6.165   7.999
  474POPC   C4B10618  12.679   6.409   7.720
  475POPC   NC310619   7.015   2.748   9.413
  475POPC   PO410620   6.478   3.116   9.455
  475POPC   GL110621   6.586   2.809   9.147
  475POPC   GL210622   6.514   3.064   8.948
  475POPC   C1A10623   6.809   2.575   8.792
  475POPC   D2A10624   6.962   2.664   8.375
  475POPC   C3A10625   6.738   2.510   8.019
  475POPC   C4A10626   6.564   2.623   7.627
  475POPC   C1B10627   6.646   3.038   8.541
  475POPC   C2B10628   6.452   2.922   8.158
  475POPC   C3B10629   6.516   3.146   7.805
  475POPC   C4B10630   6.656   3.118   7.382
  476POPC   NC310631   6.037  41.050   9.601
  476POPC   PO410632   5.850  40.412   9.493
  476POPC   GL110633   6.012  40.584   9.114
  476POPC   GL210634   5.656  40.581   9.037
  476POPC   C1A10635   6.011  40.773   8.655
  476POPC   D2A10636   5.745  40.853   8.279
  476POPC   C3A10637   5.968  40.875   7.863
  476POPC   C4A10638   6.009  40.922   7.383
  476POPC   C1B10639   5.772  40.336   8.709
  476POPC   C2B10640   5.924  40.377   8.293
  476POPC   C3B10641   5.617  40.466   7.947
  476POPC   C4B10642   5.633  40.594   7.500
  477POPC   NC310643  17.247  30.539   9.791
  477POPC   PO410644  17.913  30.419   9.594
  477POPC   GL110645  17.815  30.527   9.143
  477POPC   GL210646  17.629  30.845   9.051
  477POPC   C1A10647  17.724  30.476   8.726
  477POPC   D2A10648  17.737  30.262   8.367
  477POPC   C3A10649  17.541  30.430   8.058
  477POPC   C4A10650  17.671  30.570   7.706
  477POPC   C1B10651  17.417  30.952   8.706
  477POPC   C2B10652  17.546  30.866   8.327
  477POPC   C3B10653  17.366  30.902   7.950
  477POPC   C4B10654  17.203  31.241   7.726
  478POPC   NC310655  40.159  37.355   9.335
  478POPC   PO410656  39.818  36.831   9.560
  478POPC   GL110657  39.900  36.971   9.139
  478POPC   GL210658  40.252  36.903   9.111
  478POPC   C1A10659  40.012  36.970   8.686
  478POPC   D2A10660  40.310  36.709   8.513
  478POPC   C3A10661  40.271  36.705   8.060
  478POPC   C4A10662  39.920  36.910   7.790
  478POPC   C1B10663  40.451  37.171   8.767
  478POPC   C2B10664  40.364  37.185   8.317
  478POPC   C3B10665  40.484  37.136   7.876
  478POPC   C4B10666  40.368  36.862   7.552
  479POPC   NC310667  38.976  11.110   9.476
  479POPC   PO410668  39.674  11.207   9.296
  479POPC   GL110669  39.232  11.286   9.052
  479POPC   GL210670  38.830  11.254   9.006
  479POPC   C1A10671  39.109  11.505   8.657
  479POPC   D2A10672  39.078  11.738   8.259
  479POPC   C3A10673  39.211  11.452   7.921
  479POPC   C4A10674  39.365  11.198   7.547
  479POPC   C1B10675  38.927  10.844   8.874
  479POPC   C2B10676  38.934  10.790   8.435
  479POPC   C3B10677  39.039  10.963   8.038
  479POPC   C4B10678  38.855  11.168   7.673
  480POPC   NC310679  18.526   2.565   9.449
  480POPC   PO410680  17.842   2.701   9.424
  480POPC   GL110681  18.020   2.839   9.032
  480POPC   GL210682  18.371   2.879   9.063
  480POPC   C1A10683  17.808   2.962   8.663
  480POPC   D2A10684  17.598   2.803   8.322
  480POPC   C3A10685  17.942   2.607   8.122
  480POPC   C4A10686  18.193   2.757   7.811
  480POPC   C1B10687  18.301   2.827   8.603
  480POPC   C2B10688  18.483   2.854   8.201
  480POPC   C3B10689  18.749   2.605   7.885
  480POPC   C4B10690  18.644   2.251   7.608
  481POPC   NC310691  25.344  17.781   9.595
  481POPC   PO410692  25.135  17.179   9.611
  481POPC   GL110693  24.994  17.233   9.197
  481POPC   GL210694  25.042  17.580   9.226
  481POPC   C1A10695  25.207  17.208   8.796
  481POPC   D2A10696  25.201  17.380   8.418
  481POPC   C3A10697  25.505  17.250   8.146
  481POPC   C4A10698  25.278  17.293   7.751
  481POPC   C1B10699  25.251  17.722   8.865
  481POPC   C2B10700  25.426  17.841   8.480
  481POPC   C3B10701  25.517  17.752   8.082
  481POPC   C4B10702  25.510  17.845   7.673
  482POPC   NC310703  27.712  39.194   9.616
  482POPC   PO410704  28.098  39.522   9.176
  482POPC   GL110705  27.682  39.338   9.103
  482POPC   GL210706  27.679  38.965   9.154
  482POPC   C1A10707  27.436  39.134   8.746
  482POPC   D2A10708  27.596  39.172   8.336
  482POPC   C3A10709  27.252  39.186   8.065
  482POPC   C4A10710  27.289  39.029   7.657
  482POPC   C1B10711  27.937  39.022   8.761
  482POPC   C2B10712  28.154  39.025   8.369
  482POPC   C3B10713  28.073  38.963   7.948
  482POPC   C4B10714  27.721  39.232   7.808
  483POPC   NC310715  33.523  20.563   9.357
  483POPC   PO410716  34.001  21.017   9.348
  483POPC   GL110717  33.943  20.661   9.079
  483POPC   GL210718  34.024  20.365   9.274
  483POPC   C1A10719  33.687  20.456   8.728
  483POPC   D2A10720  33.643  20.275   8.308
  483POPC   C3A10721  33.749  20.620   8.090
  483POPC   C4A10722  33.673  20.780   7.737
  483POPC   C1B10723  34.104  20.206   8.855
  483POPC   C2B10724  34.152  20.355   8.428
  483POPC   C3B10725  34.107  20.279   7.990
  483POPC   C4B10726  34.064  20.504   7.598
  484POPC   NC310727   1.593  43.329   9.404
  484POPC   PO410728   0.992  43.047   9.612
  484POPC   GL110729   1.164  43.052   9.232
  484POPC   GL210730   1.148  42.724   9.219
  484POPC   C1A10731   1.306  43.047   8.827
  484POPC   D2A10732   1.278  43.371   8.511
  484POPC   C3A10733   1.517  43.454   8.135
  484POPC   C4A10734   1.360  43.363   7.710
  484POPC   C1B10735   0.920  42.678   8.835
  484POPC   C2B10736   1.043  42.822   8.450
  484POPC   C3B10737   1.205  43.041   8.097
  484POPC   C4B10738   1.167  42.876   7.690
  485POPC   NC310739  11.764  18.958  10.001
  485POPC   PO410740  11.169  19.066   9.566
  485POPC   GL110741  11.394  19.067   9.138
  485POPC   GL210742  11.221  19.359   8.975
  485POPC   C1A10743  11.586  19.069   8.729
  485POPC   D2A10744  11.417  18.984   8.350
  485POPC   C3A10745  11.573  19.120   7.976
  485POPC   C4A10746  11.391  19.136   7.599
  485POPC   C1B10747  11.055  19.014   8.717
  485POPC   C2B10748  10.913  19.000   8.282
  485POPC   C3B10749  11.115  18.812   7.905
  485POPC   C4B10750  11.213  18.371   7.793
  486POPC   NC310751  26.754  32.253   9.865
  486POPC   PO410752  26.893  32.423   9.274
  486POPC   GL110753  26.717  32.350   8.951
  486POPC   GL210754  26.837  32.023   8.954
  486POPC   C1A10755  26.735  32.524   8.575
  486POPC   D2A10756  26.464  32.472   8.269
  486POPC   C3A10757  26.628  32.173   8.013
  486POPC   C4A10758  26.790  32.415   7.680
  486POPC   C1B10759  27.134  32.208   8.656
  486POPC   C2B10760  27.121  32.322   8.248
  486POPC   C3B10761  27.174  32.109   7.885
  486POPC   C4B10762  26.929  31.919   7.584
  487POPC   NC310763  36.944  30.519   9.514
  487POPC   PO410764  36.362  30.944   9.474
  487POPC   GL110765  36.653  30.724   9.186
  487POPC   GL210766  36.985  30.821   9.058
  487POPC   C1A10767  36.673  30.475   8.844
  487POPC   D2A10768  36.907  30.639   8.504
  487POPC   C3A10769  36.778  30.678   8.063
  487POPC   C4A10770  37.073  30.884   7.739
  487POPC   C1B10771  37.195  30.432   8.884
  487POPC   C2B10772  37.294  30.297   8.457
  487POPC   C3B10773  37.167  30.374   8.066
  487POPC   C4B10774  37.189  30.170   7.696
  488POPC   NC310775  40.988  39.082   9.537
  488POPC   PO410776  40.615  39.551   9.643
  488POPC   GL110777  40.763  39.460   9.217
  488POPC   GL210778  40.716  39.096   9.103
  488POPC   C1A10779  40.894  39.452   8.768
  488POPC   D2A10780  40.743  39.517   8.354
  488POPC   C3A10781  41.083  39.487   8.079
  488POPC   C4A10782  41.199  39.296   7.704
  488POPC   C1B10783  40.978  38.928   8.762
  488POPC   C2B10784  40.958  39.020   8.309
  488POPC   C3B10785  40.751  39.094   7.917
  488POPC   C4B10786  40.401  38.949   7.661
  489POPC   NC310787  24.034  32.832   9.852
  489POPC   PO410788  23.477  32.820   9.541
  489POPC   GL110789  23.466  33.016   9.120
  489POPC   GL210790  23.800  33.150   9.117
  489POPC   C1A10791  23.434  33.251   8.719
  489POPC   D2A10792  23.364  33.356   8.297
  489POPC   C3A10793  23.442  32.961   8.124
  489POPC   C4A10794  23.443  32.855   7.714
  489POPC   C1B10795  23.875  32.985   8.737
  489POPC   C2B10796  23.872  33.193   8.346
  489POPC   C3B10797  23.857  33.150   7.911
  489POPC   C4B10798  23.951  32.811   7.652
  490POPC   NC310799  33.611  34.996   9.406
  490POPC   PO410800  33.995  34.427   9.505
  490POPC   GL110801  33.754  34.557   9.187
  490POPC   GL210802  33.950  34.808   9.037
  490POPC   C1A10803  33.469  34.564   8.866
  490POPC   D2A10804  33.376  34.703   8.491
  490POPC   C3A10805  33.502  34.560   8.125
  490POPC   C4A10806  33.415  34.505   7.719
  490POPC   C1B10807  33.889  34.690   8.615
  490POPC   C2B10808  33.997  34.638   8.208
  490POPC   C3B10809  33.909  34.582   7.786
  490POPC   C4B10810  33.973  34.843   7.408
  491POPC   NC310811  11.665  15.741   9.345
  491POPC   PO410812  12.242  15.980   9.553
  491POPC   GL110813  12.121  15.894   9.135
  491POPC   GL210814  12.252  15.612   9.054
  491POPC   C1A10815  12.099  15.892   8.672
  491POPC   D2A10816  12.290  16.258   8.447
  491POPC   C3A10817  12.303  16.166   8.018
  491POPC   C4A10818  12.048  15.944   7.734
  491POPC   C1B10819  12.400  15.440   8.729
  491POPC   C2B10820  12.146  15.363   8.428
  491POPC   C3B10821  12.106  15.570   8.081
  491POPC   C4B10822  12.218  15.449   7.698
  492POPC   NC310823  38.308  39.695   9.571
  492POPC   PO410824  38.528  40.314   9.581
  492POPC   GL110825  38.298  40.157   9.218
  492POPC   GL210826  38.530  39.901   9.154
  492POPC   C1A10827  38.152  40.017   8.792
  492POPC   D2A10828  38.164  39.851   8.378
  492POPC   C3A10829  38.307  40.054   8.016
  492POPC   C4A10830  38.357  39.918   7.600
  492POPC   C1B10831  38.677  40.017   8.723
  492POPC   C2B10832  38.696  40.157   8.299
  492POPC   C3B10833  38.772  40.231   7.823
  492POPC   C4B10834  38.978  40.109   7.418
  493POPC   NC310835  23.228  29.271   9.589
  493POPC   PO410836  22.800  29.590   9.257
  493POPC   GL110837  22.873  29.256   8.996
  493POPC   GL210838  22.975  29.004   9.210
  493POPC   C1A10839  22.689  28.882   8.787
  493POPC   D2A10840  22.469  28.707   8.449
  493POPC   C3A10841  22.643  28.885   8.071
  493POPC   C4A10842  22.428  29.040   7.719
  493POPC   C1B10843  23.196  28.917   8.817
  493POPC   C2B10844  23.058  29.072   8.471
  493POPC   C3B10845  23.071  29.188   8.091
  493POPC   C4B10846  22.953  29.141   7.722
  494POPC   NC310847  40.268  21.358   9.604
  494POPC   PO410848  39.721  21.553   9.587
  494POPC   GL110849  40.007  21.624   9.208
  494POPC   GL210850  40.035  21.297   9.047
  494POPC   C1A10851  40.155  21.679   8.742
  494POPC   D2A10852  40.075  21.438   8.362
  494POPC   C3A10853  39.978  21.638   7.999
  494POPC   C4A10854  40.067  21.851   7.646
  494POPC   C1B10855  40.298  21.116   8.696
  494POPC   C2B10856  40.303  21.004   8.231
  494POPC   C3B10857  40.026  21.102   7.843
  494POPC   C4B10858  39.915  21.026   7.370
  495POPC   NC310859   7.740  44.766   9.538
  495POPC   PO410860   7.250  44.246   9.638
  495POPC   GL110861   7.386  44.505   9.285
  495POPC   GL210862   7.701  44.302   9.340
  495POPC   C1A10863   7.384  44.752   8.837
  495POPC   D2A10864   7.221  44.779   8.377
  495POPC   C3A10865   7.374  44.941   7.964
  495POPC   C4A10866   7.247  44.844   7.539
  495POPC   C1B10867   7.657  44.329   8.914
  495POPC   C2B10868   7.500  44.339   8.503
  495POPC   C3B10869   7.521  44.467   8.101
  495POPC   C4B10870   7.797  44.636   7.774
  496POPC   NC310871  10.763  25.030   9.311
  496POPC   PO410872  10.416  24.460   9.663
  496POPC   GL110873  10.578  24.537   9.248
  496POPC   GL210874  10.339  24.783   9.130
  496POPC   C1A10875  10.569  24.454   8.791
  496POPC   D2A10876  10.764  24.194   8.487
  496POPC   C3A10877  10.737  24.292   8.058
  496POPC   C4A10878  10.356  24.221   7.843
  496POPC   C1B10879  10.394  24.922   8.685
  496POPC   C2B10880  10.643  24.825   8.293
  496POPC   C3B10881  10.470  24.712   7.905
  496POPC   C4B10882  10.043  24.657   7.783
  497POPC   NC310883  30.435  14.952   9.544
  497POPC   PO410884  31.084  15.113   9.469
  497POPC   GL110885  30.764  15.121   9.129
  497POPC   GL210886  30.501  15.391   9.090
  497POPC   C1A10887  30.745  15.168   8.675
  497POPC   D2A10888  30.591  15.487   8.393
  497POPC   C3A10889  30.791  15.526   8.017
  497POPC   C4A10890  30.793  15.215   7.728
  497POPC   C1B10891  30.290  15.019   8.860
  497POPC   C2B10892  30.334  14.795   8.450
  497POPC   C3B10893  30.366  15.022   8.006
  497POPC   C4B10894  30.333  15.431   7.759
  498POPC   NC310895  12.889   7.864   9.403
  498POPC   PO410896  12.723   8.504   9.296
  498POPC   GL110897  12.852   8.217   9.045
  498POPC   GL210898  13.178   8.222   9.183
  498POPC   C1A10899  12.995   7.983   8.716
  498POPC   D2A10900  13.179   8.139   8.350
  498POPC   C3A10901  12.897   8.098   8.018
  498POPC   C4A10902  12.752   7.974   7.642
  498POPC   C1B10903  13.217   8.468   8.795
  498POPC   C2B10904  13.092   8.696   8.447
  498POPC   C3B10905  13.133   8.545   8.030
  498POPC   C4B10906  12.880   8.469   7.662
  499POPC   NC310907   7.475  38.145   9.497
  499POPC   PO410908   7.602  38.726   9.462
  499POPC   GL110909   7.231  38.727   9.205
  499POPC   GL210910   7.127  38.370   9.201
  499POPC   C1A10911   7.293  38.703   8.765
  499POPC   D2A10912   7.540  38.461   8.492
  499POPC   C3A10913   7.368  38.478   8.098
  499POPC   C4A10914   7.108  38.768   7.898
  499POPC   C1B10915   7.280  38.173   8.823
  499POPC   C2B10916   7.228  38.021   8.377
  499POPC   C3B10917   7.176  38.046   7.933
  499POPC   C4B10918   7.181  38.351   7.602
  500POPC   NC310919   3.615  39.263   9.537
  500POPC   PO410920   3.014  39.435   9.448
  500POPC   GL110921   3.311  39.455   9.111
  500POPC   GL210922   3.352  39.086   9.129
  500POPC   C1A10923   3.683  39.348   8.826
  500POPC   D2A10924   3.773  39.093   8.446
  500POPC   C3A10925   3.680  39.266   8.028
  500POPC   C4A10926   3.713  39.505   7.643
  500POPC   C1B10927   3.358  38.886   8.722
  500POPC   C2B10928   3.240  39.084   8.330
  500POPC   C3B10929   3.315  38.905   7.950
  500POPC   C4B10930   3.256  38.958   7.508
  501POPC   NC310931  38.927  40.023   9.571
  501POPC   PO410932  39.516  39.951   9.232
  501POPC   GL110933  39.249  40.277   9.165
  501POPC   GL210934  39.025  40.016   9.079
  501POPC   C1A10935  39.174  40.428   8.756
  501POPC   D2A10936  39.179  40.158   8.414
  501POPC   C3A10937  39.267  40.254   7.994
  501POPC   C4A10938  39.385  39.929   7.684
  501POPC   C1B10939  39.142  39.760   8.739
  501POPC   C2B10940  38.891  39.663   8.412
  501POPC   C3B10941  38.994  39.815   8.034
  501POPC   C4B10942  38.973  39.650   7.653
  502POPC   NC310943  40.637  40.774   9.532
  502POPC   PO410944  41.144  40.294   9.544
  502POPC   GL110945  40.989  40.595   9.165
  502POPC   GL210946  40.591  40.542   9.081
  502POPC   C1A10947  40.868  40.710   8.698
  502POPC   D2A10948  40.518  40.632   8.429
  502POPC   C3A10949  40.725  40.642   8.066
  502POPC   C4A10950  41.123  40.844   7.951
  502POPC   C1B10951  40.564  41.029   8.946
  502POPC   C2B10952  40.521  41.184   8.529
  502POPC   C3B10953  40.430  41.067   8.115
  502POPC   C4B10954  40.514  41.331   7.740
  503POPC   NC310955  29.130  18.556   9.508
  503POPC   PO410956  28.979  17.851   9.558
  503POPC   GL110957  28.980  18.085   9.209
  503POPC   GL210958  29.321  18.167   9.229
  503POPC   C1A10959  28.852  18.056   8.788
  503POPC   D2A10960  29.103  18.126   8.422
  503POPC   C3A10961  28.891  18.126   8.037
  503POPC   C4A10962  28.875  17.922   7.637
  503POPC   C1B10963  29.191  18.437   8.861
  503POPC   C2B10964  29.437  18.595   8.499
  503POPC   C3B10965  29.337  18.451   8.084
  503POPC   C4B10966  29.342  18.142   7.754
  504POPC   NC310967  23.167   8.101   9.402
  504POPC   PO410968  22.573   8.456   9.382
  504POPC   GL110969  22.808   8.213   9.059
  504POPC   GL210970  22.776   7.861   8.997
  504POPC   C1A10971  22.999   8.180   8.658
  504POPC   D2A10972  22.900   8.384   8.263
  504POPC   C3A10973  23.037   8.224   7.896
  504POPC   C4A10974  23.321   7.934   7.755
  504POPC   C1B10975  22.619   7.832   8.574
  504POPC   C2B10976  22.565   7.983   8.135
  504POPC   C3B10977  22.681   7.928   7.687
  504POPC   C4B10978  22.676   7.786   7.228
  505POPC   NC310979  37.973  32.147   9.460
  505POPC   PO410980  37.418  32.557   9.567
  505POPC   GL110981  37.712  32.518   9.192
  505POPC   GL210982  37.607  32.176   9.111
  505POPC   C1A10983  38.022  32.332   8.850
  505POPC   D2A10984  38.178  32.422   8.429
  505POPC   C3A10985  37.859  32.445   8.098
  505POPC   C4A10986  37.752  32.100   7.835
  505POPC   C1B10987  37.535  32.407   8.720
  505POPC   C2B10988  37.433  32.205   8.334
  505POPC   C3B10989  37.438  31.823   8.134
  505POPC   C4B10990  37.386  31.742   7.716
  506POPC   NC310991  14.918  12.599   9.808
  506POPC   PO410992  14.563  13.153   9.485
  506POPC   GL110993  14.344  13.053   9.142
  506POPC   GL210994  14.655  13.203   8.966
  506POPC   C1A10995  14.303  12.696   8.835
  506POPC   D2A10996  14.106  12.533   8.484
  506POPC   C3A10997  14.411  12.366   8.188
  506POPC   C4A10998  14.436  12.363   7.751
  506POPC   C1B10999  14.358  13.190   8.668
  506POPC   C2B11000  14.399  12.930   8.378
  506POPC   C3B11001  14.197  12.815   8.065
  506POPC   C4B11002  14.200  12.850   7.665
  507POPC   NC311003  38.492  44.934   9.541
  507POPC   PO411004  38.612  44.225   9.517
  507POPC   GL111005  38.578  44.517   9.176
  507POPC   GL211006  38.824  44.786   9.184
  507POPC   C1A11007  38.332  44.460   8.790
  507POPC   D2A11008  38.113  44.298   8.434
  507POPC   C3A11009  38.306  44.454   8.050
  507POPC   C4A11010  38.203  44.622   7.654
  507POPC   C1B11011  38.807  44.668   8.720
  507POPC   C2B11012  38.671  44.737   8.285
  507POPC   C3B11013  38.708  44.765   7.812
  507POPC   C4B11014  38.554  44.912   7.371
  508POPC   NC311015   2.847   7.494   9.558
  508POPC   PO411016   2.736   6.841   9.541
  508POPC   GL111017   2.812   7.122   9.134
  508POPC   GL211018   2.922   7.508   9.063
  508POPC   C1A11019   2.675   7.260   8.691
  508POPC   D2A11020   2.640   7.637   8.398
  508POPC   C3A11021   2.701   7.467   7.972
  508POPC   C4A11022   2.929   7.165   7.764
  508POPC   C1B11023   3.108   7.568   8.635
  508POPC   C2B11024   3.084   7.759   8.190
  508POPC   C3B11025   3.259   7.562   7.797
  508POPC   C4B11026   3.332   7.740   7.362
  509POPC   NC311027   8.060  14.339   9.812
  509POPC   PO411028   8.395  14.829   9.417
  509POPC   GL111029   8.254  14.404   9.261
  509POPC   GL211030   8.504  14.180   9.183
  509POPC   C1A11031   8.078  14.352   8.836
  509POPC   D2A11032   7.880  14.392   8.411
  509POPC   C3A11033   8.020  14.226   7.985
  509POPC   C4A11034   7.872  14.483   7.606
  509POPC   C1B11035   8.567  14.480   8.823
  509POPC   C2B11036   8.388  14.438   8.391
  509POPC   C3B11037   8.538  14.175   8.040
  509POPC   C4B11038   8.518  14.144   7.602
  510POPC   NC311039  39.513  41.825   9.519
  510POPC   PO411040  40.067  41.408   9.581
  510POPC   GL111041  40.063  41.584   9.200
  510POPC   GL211042  39.720  41.635   9.075
  510POPC   C1A11043  40.129  41.354   8.836
  510POPC   D2A11044  40.021  41.511   8.444
  510POPC   C3A11045  40.008  41.358   8.061
  510POPC   C4A11046  40.067  41.527   7.675
  510POPC   C1B11047  39.987  41.888   8.781
  510POPC   C2B11048  40.128  41.999   8.338
  510POPC   C3B11049  39.947  41.973   7.906
  510POPC   C4B11050  39.644  41.780   7.580
  511POPC   NC311051  31.722  26.638   9.484
  511POPC   PO411052  31.197  27.031   9.499
  511POPC   GL111053  31.441  26.929   9.145
  511POPC   GL211054  31.281  26.612   9.164
  511POPC   C1A11055  31.705  26.833   8.769
  511POPC   D2A11056  31.837  27.070   8.413
  511POPC   C3A11057  31.838  26.801   8.043
  511POPC   C4A11058  32.018  26.397   7.937
  511POPC   C1B11059  31.187  26.751   8.733
  511POPC   C2B11060  31.321  26.834   8.287
  511POPC   C3B11061  31.301  26.807   7.808
  511POPC   C4B11062  31.307  26.826   7.321
  512POPC   NC311063   7.287  12.359   9.377
  512POPC   PO411064   7.699  11.982   9.672
  512POPC   GL111065   7.609  11.956   9.228
  512POPC   GL211066   7.860  12.112   9.103
  512POPC   C1A11067   7.455  12.085   8.786
  512POPC   D2A11068   7.286  12.204   8.382
  512POPC   C3A11069   7.086  11.961   8.110
  512POPC   C4A11070   7.357  12.009   7.751
  512POPC   C1B11071   7.889  12.391   8.749
  512POPC   C2B11072   7.690  12.520   8.397
  512POPC   C3B11073   7.728  12.232   8.069
  512POPC   C4B11074   7.861  12.257   7.641
  513POPC   NC311075   5.974  30.467   9.404
  513POPC   PO411076   5.504  30.937   9.468
  513POPC   GL111077   5.747  30.830   9.074
  513POPC   GL211078   6.047  31.034   8.979
  513POPC   C1A11079   5.691  30.546   8.692
  513POPC   D2A11080   5.507  30.556   8.275
  513POPC   C3A11081   5.766  30.626   7.936
  513POPC   C4A11082   6.156  30.545   7.686
  513POPC   C1B11083   6.150  30.778   8.628
  513POPC   C2B11084   6.187  30.762   8.170
  513POPC   C3B11085   6.232  31.015   7.807
  513POPC   C4B11086   6.153  31.312   7.508
  514POPC   NC311087  25.749  28.435   9.272
  514POPC   PO411088  26.253  28.880   9.469
  514POPC   GL111089  26.189  28.619   9.116
  514POPC   GL211090  25.918  28.716   8.890
  514POPC   C1A11091  26.223  28.339   8.744
  514POPC   D2A11092  26.252  28.476   8.336
  514POPC   C3A11093  25.907  28.463   8.097
  514POPC   C4A11094  26.086  28.406   7.713
  514POPC   C1B11095  25.732  28.442   8.590
  514POPC   C2B11096  25.406  28.394   8.296
  514POPC   C3B11097  25.399  28.637   7.967
  514POPC   C4B11098  25.718  28.760   7.733
  515POPC   NC311099  24.040  25.581   9.446
  515POPC   PO411100  23.829  25.077   9.539
  515POPC   GL111101  23.759  25.251   9.129
  515POPC   GL211102  23.673  25.591   9.085
  515POPC   C1A11103  23.882  25.244   8.693
  515POPC   D2A11104  24.003  25.279   8.251
  515POPC   C3A11105  23.821  24.952   7.992
  515POPC   C4A11106  23.425  24.935   7.757
  515POPC   C1B11107  23.418  25.458   8.733
  515POPC   C2B11108  23.492  25.254   8.322
  515POPC   C3B11109  23.603  25.406   7.899
  515POPC   C4B11110  23.350  25.393   7.505
  516POPC   NC311111  27.574  17.955   9.789
  516POPC   PO411112  27.808  18.464   9.366
  516POPC   GL111113  27.602  18.298   9.076
  516POPC   GL211114  27.295  18.436   9.165
  516POPC   C1A11115  27.781  18.237   8.680
  516POPC   D2A11116  28.003  18.315   8.316
  516POPC   C3A11117  27.713  18.284   7.984
  516POPC   C4A11118  27.515  18.543   7.682
  516POPC   C1B11119  27.274  18.393   8.722
  516POPC   C2B11120  27.376  18.173   8.352
  516POPC   C3B11121  27.174  18.281   8.004
  516POPC   C4B11122  27.112  18.028   7.678
  517POPC   NC311123  21.848  12.576   9.556
  517POPC   PO411124  22.384  12.948   9.680
  517POPC   GL111125  22.196  13.053   9.252
  517POPC   GL211126  22.053  12.753   9.119
  517POPC   C1A11127  22.352  13.024   8.800
  517POPC   D2A11128  22.182  12.861   8.386
  517POPC   C3A11129  22.122  13.137   8.004
  517POPC   C4A11130  22.434  13.113   7.651
  517POPC   C1B11131  21.822  12.950   8.770
  517POPC   C2B11132  21.683  13.031   8.329
  517POPC   C3B11133  21.797  12.724   8.014
  517POPC   C4B11134  21.918  12.808   7.618
  518POPC   NC311135   0.592  31.884   9.354
  518POPC   PO411136   0.010  32.117   9.360
  518POPC   GL111137   0.301  32.364   9.087
  518POPC   GL211138   0.690  32.342   9.092
  518POPC   C1A11139   0.359  32.246   8.666
  518POPC   D2A11140   0.180  31.972   8.356
  518POPC   C3A11141   0.333  32.117   7.984
  518POPC   C4A11142   0.549  32.012   7.634
  518POPC   C1B11143   0.870  32.337   8.669
  518POPC   C2B11144   0.701  32.383   8.249
  518POPC   C3B11145   0.647  32.494   7.797
  518POPC   C4B11146   0.804  32.338   7.342
  519POPC   NC311147  27.079  15.411   9.542
  519POPC   PO411148  26.866  16.087   9.554
  519POPC   GL111149  26.676  15.904   9.207
  519POPC   GL211150  26.640  15.550   9.285
  519POPC   C1A11151  26.801  15.980   8.809
  519POPC   D2A11152  27.052  15.845   8.473
  519POPC   C3A11153  26.857  15.970   8.092
  519POPC   C4A11154  26.974  16.141   7.687
  519POPC   C1B11155  26.742  15.486   8.846
  519POPC   C2B11156  26.552  15.675   8.465
  519POPC   C3B11157  26.371  15.782   8.052
  519POPC   C4B11158  26.633  15.748   7.665
  520POPC   NC311159  10.097  21.496   9.551
  520POPC   PO411160   9.398  21.568   9.475
  520POPC   GL111161   9.604  21.239   9.201
  520POPC   GL211162   9.983  21.263   9.095
  520POPC   C1A11163   9.515  21.237   8.768
  520POPC   D2A11164   9.590  21.338   8.323
  520POPC   C3A11165   9.373  21.203   7.953
  520POPC   C4A11166   9.522  21.421   7.604
  520POPC   C1B11167  10.023  21.323   8.650
  520POPC   C2B11168  10.012  21.069   8.270
  520POPC   C3B11169   9.913  21.254   7.888
  520POPC   C4B11170   9.896  21.720   7.826
  521POPC   NC311171  23.944   4.134   9.634
  521POPC   PO411172  23.364   4.452   9.577
  521POPC   GL111173  23.671   4.449   9.248
  521POPC   GL211174  23.931   4.210   9.143
  521POPC   C1A11175  23.704   4.547   8.807
  521POPC   D2A11176  23.826   4.669   8.368
  521POPC   C3A11177  23.767   4.332   8.094
  521POPC   C4A11178  23.500   4.365   7.743
  521POPC   C1B11179  23.642   4.031   8.894
  521POPC   C2B11180  23.575   3.988   8.485
  521POPC   C3B11181  23.369   3.988   8.114
  521POPC   C4B11182  23.495   3.844   7.739
  522POPC   NC311183   9.311  38.773   9.705
  522POPC   PO411184   8.908  39.311   9.543
  522POPC   GL111185   8.994  39.395   9.150
  522POPC   GL211186   8.805  39.646   9.099
  522POPC   C1A11187   9.040  39.432   8.707
  522POPC   D2A11188   9.112  39.169   8.360
  522POPC   C3A11189   9.014  39.330   7.962
  522POPC   C4A11190   9.058  39.391   7.491
  522POPC   C1B11191   8.709  39.818   8.723
  522POPC   C2B11192   8.715  39.578   8.361
  522POPC   C3B11193   8.730  39.745   7.999
  522POPC   C4B11194   8.773  39.775   7.626
  523POPC   NC311195  30.974  16.376   9.499
  523POPC   PO411196  30.493  16.877   9.691
  523POPC   GL111197  30.563  17.032   9.264
  523POPC   GL211198  30.876  16.905   9.129
  523POPC   C1A11199  30.416  16.890   8.865
  523POPC   D2A11200  30.509  16.584   8.553
  523POPC   C3A11201  30.673  16.800   8.220
  523POPC   C4A11202  30.447  16.991   7.901
  523POPC   C1B11203  30.963  16.621   8.789
  523POPC   C2B11204  31.001  16.378   8.383
  523POPC   C3B11205  30.998  16.517   7.949
  523POPC   C4B11206  30.757  16.681   7.622
  524POPC   NC311207   9.252  19.938   9.467
  524POPC   PO411208   8.770  19.516   9.375
  524POPC   GL111209   8.947  19.813   9.093
  524POPC   GL211210   8.849  19.593   8.869
  524POPC   C1A11211   9.008  20.059   8.708
  524POPC   D2A11212   8.857  19.838   8.390
  524POPC   C3A11213   8.990  19.953   8.019
  524POPC   C4A11214   8.761  19.829   7.661
  524POPC   C1B11215   9.258  19.621   8.731
  524POPC   C2B11216   9.406  19.781   8.335
  524POPC   C3B11217   9.445  19.736   7.911
  524POPC   C4B11218   9.265  19.733   7.547
  525POPC   NC311219  22.918  26.707   9.751
  525POPC   PO411220  22.933  26.042   9.599
  525POPC   GL111221  22.901  26.357   9.222
  525POPC   GL211222  23.191  26.478   9.052
  525POPC   C1A11223  22.844  26.228   8.758
  525POPC   D2A11224  23.030  25.993   8.387
  525POPC   C3A11225  22.909  26.127   7.954
  525POPC   C4A11226  22.895  26.177   7.507
  525POPC   C1B11227  23.329  26.351   8.618
  525POPC   C2B11228  23.377  26.303   8.155
  525POPC   C3B11229  23.214  26.520   7.794
  525POPC   C4B11230  23.283  26.463   7.336
  526POPC   NC311231  31.304  32.000   9.505
  526POPC   PO411232  31.120  32.688   9.526
  526POPC   GL111233  31.393  32.439   9.170
  526POPC   GL211234  31.569  32.089   9.096
  526POPC   C1A11235  31.414  32.364   8.708
  526POPC   D2A11236  31.255  32.493   8.318
  526POPC   C3A11237  31.512  32.347   7.960
  526POPC   C4A11238  31.447  31.933   7.783
  526POPC   C1B11239  31.849  32.077   8.789
  526POPC   C2B11240  31.695  32.058   8.365
  526POPC   C3B11241  31.915  31.984   7.998
  526POPC   C4B11242  31.927  31.914   7.564
  527POPC   NC311243  18.440  34.873   9.590
  527POPC   PO411244  18.198  34.200   9.589
  527POPC   GL111245  18.390  34.468   9.227
  527POPC   GL211246  18.209  34.814   9.138
  527POPC   C1A11247  18.279  34.475   8.784
  527POPC   D2A11248  18.218  34.640   8.390
  527POPC   C3A11249  18.377  34.407   8.111
  527POPC   C4A11250  18.497  34.406   7.720
  527POPC   C1B11251  17.961  34.904   8.764
  527POPC   C2B11252  17.760  34.822   8.357
  527POPC   C3B11253  17.901  34.807   7.940
  527POPC   C4B11254  17.986  34.404   7.793
  528POPC   NC311255  14.705  31.612   9.408
  528POPC   PO411256  14.099  31.399   9.634
  528POPC   GL111257  14.275  31.413   9.239
  528POPC   GL211258  14.235  31.775   9.264
  528POPC   C1A11259  14.452  31.459   8.826
  528POPC   D2A11260  14.487  31.244   8.442
  528POPC   C3A11261  14.297  31.372   8.084
  528POPC   C4A11262  14.103  31.206   7.748
  528POPC   C1B11263  14.100  31.845   8.859
  528POPC   C2B11264  14.113  31.661   8.458
  528POPC   C3B11265  14.050  31.827   8.028
  528POPC   C4B11266  14.128  31.678   7.616
  529POPC   NC311267  44.040   3.678   9.259
  529POPC   PO411268  44.736   3.594   9.500
  529POPC   GL111269  44.570   3.671   9.113
  529POPC   GL211270  44.435   3.322   9.134
  529POPC   C1A11271  44.693   3.793   8.682
  529POPC   D2A11272  44.736   3.595   8.276
  529POPC   C3A11273  44.693   3.764   7.854
  529POPC   C4A11274  44.650   3.878   7.377
  529POPC   C1B11275  44.801   3.314   8.815
  529POPC   C2B11276   0.024   3.179   8.427
  529POPC   C3B11277   0.123   3.328   7.992
  529POPC   C4B11278  44.832   3.337   7.621
  530POPC   NC311279  37.142   4.583   9.545
  530POPC   PO411280  36.807   4.063   9.639
  530POPC   GL111281  36.833   4.265   9.240
  530POPC   GL211282  36.803   4.622   9.181
  530POPC   C1A11283  36.792   4.286   8.795
  530POPC   D2A11284  36.698   4.286   8.354
  530POPC   C3A11285  37.051   4.211   8.087
  530POPC   C4A11286  36.889   4.118   7.710
  530POPC   C1B11287  37.017   4.745   8.761
  530POPC   C2B11288  37.018   4.679   8.318
  530POPC   C3B11289  37.141   4.706   7.896
  530POPC   C4B11290  37.098   4.517   7.453
  531POPC   NC311291  14.103  30.195   9.446
  531POPC   PO411292  13.457  29.898   9.253
  531POPC   GL111293  13.699  30.193   9.015
  531POPC   GL211294  14.010  30.025   8.980
  531POPC   C1A11295  13.647  30.065   8.599
  531POPC   D2A11296  13.466  29.714   8.350
  531POPC   C3A11297  13.478  29.923   7.982
  531POPC   C4A11298  13.762  30.202   7.807
  531POPC   C1B11299  14.156  29.842   8.608
  531POPC   C2B11300  13.938  29.912   8.221
  531POPC   C3B11301  13.885  29.637   7.903
  531POPC   C4B11302  14.106  29.576   7.557
  532POPC   NC311303   7.066   0.384   9.555
  532POPC   PO411304   6.374   0.215   9.444
  532POPC   GL111305   6.722   0.280   9.172
  532POPC   GL211306   6.955  44.987   9.128
  532POPC   C1A11307   6.705   0.590   8.860
  532POPC   D2A11308   6.746   0.494   8.444
  532POPC   C3A11309   6.422   0.504   8.136
  532POPC   C4A11310   6.633   0.617   7.776
  532POPC   C1B11311   6.885   0.052   8.676
  532POPC   C2B11312   6.818   0.054   8.195
  532POPC   C3B11313   6.961   0.212   7.776
  532POPC   C4B11314   7.067   0.245   7.300
  533POPC   NC311315  33.781   8.448   9.618
  533POPC   PO411316  34.246   7.995   9.727
  533POPC   GL111317  33.947   8.172   9.244
  533POPC   GL211318  33.643   8.375   9.096
  533POPC   C1A11319  33.915   8.029   8.797
  533POPC   D2A11320  33.914   8.350   8.466
  533POPC   C3A11321  33.677   8.386   8.084
  533POPC   C4A11322  33.881   8.296   7.721
  533POPC   C1B11323  33.421   8.072   8.793
  533POPC   C2B11324  33.561   7.963   8.404
  533POPC   C3B11325  33.698   7.897   8.011
  533POPC   C4B11326  33.431   8.084   7.708
  534POPC   NC311327   9.841  19.161   9.758
  534POPC   PO411328   9.717  19.826   9.465
  534POPC   GL111329   9.669  19.988   9.059
  534POPC   GL211330   9.389  20.196   9.013
  534POPC   C1A11331   9.753  19.727   8.711
  534POPC   D2A11332   9.924  19.626   8.320
  534POPC   C3A11333   9.881  19.934   8.036
  534POPC   C4A11334  10.106  20.243   7.733
  534POPC   C1B11335   9.523  20.232   8.580
  534POPC   C2B11336   9.356  20.313   8.155
  534POPC   C3B11337   9.564  20.225   7.754
  534POPC   C4B11338   9.777  19.886   7.540
  535POPC   NC311339  37.497  12.133   9.435
  535POPC   PO411340  37.922  11.719   9.718
  535POPC   GL111341  37.931  12.053   9.221
  535POPC   GL211342  38.143  12.312   9.125
  535POPC   C1A11343  37.580  11.961   8.800
  535POPC   D2A11344  37.324  11.896   8.390
  535POPC   C3A11345  37.590  11.851   8.023
  535POPC   C4A11346  37.871  11.888   7.695
  535POPC   C1B11347  37.898  12.330   8.751
  535POPC   C2B11348  37.663  12.277   8.387
  535POPC   C3B11349  37.871  12.277   8.025
  535POPC   C4B11350  37.719  12.386   7.642
  536POPC   NC311351  27.817  19.602   9.654
  536POPC   PO411352  27.268  19.305   9.404
  536POPC   GL111353  27.500  19.618   9.227
  536POPC   GL211354  27.235  19.750   9.032
  536POPC   C1A11355  27.743  19.655   8.852
  536POPC   D2A11356  27.638  19.650   8.413
  536POPC   C3A11357  27.913  19.701   8.072
  536POPC   C4A11358  27.851  19.510   7.685
  536POPC   C1B11359  27.273  19.425   8.724
  536POPC   C2B11360  27.209  19.343   8.265
  536POPC   C3B11361  27.356  19.539   7.861
  536POPC   C4B11362  27.246  19.411   7.415
  537POPC   NC311363   0.219  15.424   9.586
  537POPC   PO411364   0.647  14.993   9.444
  537POPC   GL111365   0.609  15.207   9.098
  537POPC   GL211366   0.273  15.228   9.113
  537POPC   C1A11367   0.685  15.065   8.687
  537POPC   D2A11368   0.815  15.021   8.272
  537POPC   C3A11369   0.609  15.133   7.891
  537POPC   C4A11370   0.500  14.856   7.558
  537POPC   C1B11371   0.180  15.099   8.724
  537POPC   C2B11372   0.335  15.266   8.339
  537POPC   C3B11373   0.110  15.249   7.974
  537POPC   C4B11374  44.817  14.946   7.976
  538POPC   NC311375  22.526  42.879   9.623
  538POPC   PO411376  22.944  43.351   9.494
  538POPC   GL111377  22.863  43.061   9.167
  538POPC   GL211378  22.799  43.287   8.977
  538POPC   C1A11379  22.936  42.841   8.754
  538POPC   D2A11380  23.064  42.677   8.361
  538POPC   C3A11381  22.775  42.791   8.048
  538POPC   C4A11382  22.862  43.087   7.735
  538POPC   C1B11383  23.147  43.299   8.719
  538POPC   C2B11384  22.976  43.207   8.325
  538POPC   C3B11385  23.168  43.418   7.993
  538POPC   C4B11386  22.994  43.590   7.655
  539POPC   NC311387  37.760   0.246   9.567
  539POPC   PO411388  37.485   0.832   9.543
  539POPC   GL111389  37.784   0.688   9.200
  539POPC   GL211390  38.120   0.480   9.309
  539POPC   C1A11391  37.639   0.627   8.756
  539POPC   D2A11392  37.351   0.741   8.393
  539POPC   C3A11393  37.543   0.652   7.975
  539POPC   C4A11394  37.614   0.339   7.666
  539POPC   C1B11395  38.149   0.461   8.861
  539POPC   C2B11396  37.957   0.307   8.497
  539POPC   C3B11397  37.921   0.312   8.063
  539POPC   C4B11398  38.034   0.611   7.717
  540POPC   NC311399  22.599   3.194   9.573
  540POPC   PO411400  23.258   2.972   9.379
  540POPC   GL111401  23.085   2.764   9.090
  540POPC   GL211402  22.766   2.890   9.175
  540POPC   C1A11403  23.092   2.908   8.682
  540POPC   D2A11404  23.072   3.108   8.287
  540POPC   C3A11405  23.155   2.791   8.026
  540POPC   C4A11406  23.003   2.649   7.658
  540POPC   C1B11407  22.593   2.986   8.771
  540POPC   C2B11408  22.673   2.747   8.402
  540POPC   C3B11409  22.660   2.886   7.998
  540POPC   C4B11410  22.491   3.202   7.739
  541POPC   NC311411   1.428  34.280   9.652
  541POPC   PO411412   2.078  34.463   9.744
  541POPC   GL111413   1.981  34.441   9.228
  541POPC   GL211414   1.848  34.753   9.066
  541POPC   C1A11415   2.070  34.439   8.753
  541POPC   D2A11416   1.851  34.489   8.376
  541POPC   C3A11417   2.137  34.360   8.049
  541POPC   C4A11418   2.085  34.219   7.592
  541POPC   C1B11419   2.096  34.941   8.782
  541POPC   C2B11420   1.923  35.041   8.402
  541POPC   C3B11421   1.965  34.834   8.015
  541POPC   C4B11422   2.211  34.699   7.674
  542POPC   NC311423   2.456  22.071   9.551
  542POPC   PO411424   3.085  22.380   9.560
  542POPC   GL111425   2.902  22.415   9.139
  542POPC   GL211426   2.554  22.361   9.140
  542POPC   C1A11427   2.840  22.257   8.729
  542POPC   D2A11428   3.045  21.919   8.525
  542POPC   C3A11429   3.055  21.946   8.094
  542POPC   C4A11430   2.889  22.156   7.717
  542POPC   C1B11431   2.341  22.232   8.727
  542POPC   C2B11432   2.519  22.236   8.289
  542POPC   C3B11433   2.405  22.246   7.849
  542POPC   C4B11434   2.471  22.284   7.377
  543POPC   NC311435  24.762  11.797   9.524
  543POPC   PO411436  24.491  12.393   9.761
  543POPC   GL111437  24.447  12.199   9.317
  543POPC   GL211438  24.770  12.177   9.175
  543POPC   C1A11439  24.399  12.058   8.846
  543POPC   D2A11440  24.545  11.943   8.412
  543POPC   C3A11441  24.535  12.220   8.070
  543POPC   C4A11442  24.316  12.148   7.709
  543POPC   C1B11443  24.841  11.803   8.878
  543POPC   C2B11444  24.687  11.483   8.580
  543POPC   C3B11445  24.723  11.489   8.145
  543POPC   C4B11446  24.669  11.784   7.833
  544POPC   NC311447  18.566  33.161   9.499
  544POPC   PO411448  17.903  33.252   9.473
  544POPC   GL111449  18.201  33.165   9.152
  544POPC   GL211450  18.229  32.784   9.185
  544POPC   C1A11451  18.359  33.347   8.767
  544POPC   D2A11452  18.187  33.402   8.372
  544POPC   C3A11453  18.424  33.244   8.046
  544POPC   C4A11454  18.489  33.114   7.639
  544POPC   C1B11455  18.444  32.853   8.787
  544POPC   C2B11456  18.288  32.881   8.355
  544POPC   C3B11457  18.395  32.698   7.939
  544POPC   C4B11458  18.783  32.692   7.655
  545POPC   NC311459  41.177  41.615   9.497
  545POPC   PO411460  41.822  41.814   9.457
  545POPC   GL111461  41.583  41.553   9.188
  545POPC   GL211462  41.835  41.353   9.043
  545POPC   C1A11463  41.395  41.380   8.805
  545POPC   D2A11464  41.585  41.334   8.394
  545POPC   C3A11465  41.346  41.361   8.005
  545POPC   C4A11466  41.409  41.537   7.598
  545POPC   C1B11467  41.776  41.723   8.726
  545POPC   C2B11468  41.909  41.741   8.279
  545POPC   C3B11469  41.812  41.510   7.907
  545POPC   C4B11470  41.875  41.560   7.413
  546POPC   NC311471   1.185  44.191   9.792
  546POPC   PO411472   1.357  43.734   9.375
  546POPC   GL111473   1.107  44.047   9.234
  546POPC   GL211474   0.912  43.854   9.094
  546POPC   C1A11475   1.096  44.181   8.767
  546POPC   D2A11476   1.282  43.885   8.458
  546POPC   C3A11477   1.395  43.993   8.056
  546POPC   C4A11478   1.285  43.879   7.670
  546POPC   C1B11479   0.879  43.671   8.720
  546POPC   C2B11480   0.784  43.776   8.324
  546POPC   C3B11481   1.019  43.594   8.012
  546POPC   C4B11482   0.869  43.574   7.569
  547POPC   NC311483   5.097  38.753  10.120
  547POPC   PO411484   4.970  38.614   9.462
  547POPC   GL111485   4.966  38.551   9.071
  547POPC   GL211486   5.342  38.518   8.989
  547POPC   C1A11487   4.939  38.212   8.793
  547POPC   D2A11488   5.176  38.194   8.437
  547POPC   C3A11489   4.971  38.329   8.094
  547POPC   C4A11490   5.192  38.244   7.738
  547POPC   C1B11491   5.200  38.778   8.673
  547POPC   C2B11492   5.178  38.780   8.218
  547POPC   C3B11493   5.381  38.688   7.868
  547POPC   C4B11494   5.354  38.660   7.434
  548POPC   NC311495  15.297   1.154   9.614
  548POPC   PO411496  15.584   1.666   9.654
  548POPC   GL111497  15.586   1.393   9.233
  548POPC   GL211498  15.303   1.170   9.091
  548POPC   C1A11499  15.521   1.457   8.749
  548POPC   D2A11500  15.493   1.401   8.270
  548POPC   C3A11501  15.117   1.406   7.970
  548POPC   C4A11502  15.075   1.328   7.520
  548POPC   C1B11503  15.524   0.942   8.723
  548POPC   C2B11504  15.521   0.880   8.267
  548POPC   C3B11505  15.443   1.026   7.832
  548POPC   C4B11506  15.218   0.848   7.419
  549POPC   NC311507   6.056   2.981   9.573
  549POPC   PO411508   5.470   2.778   9.471
  549POPC   GL111509   5.714   2.911   9.117
  549POPC   GL211510   6.072   2.797   9.104
  549POPC   C1A11511   5.774   2.703   8.709
  549POPC   D2A11512   5.983   2.765   8.332
  549POPC   C3A11513   5.738   2.811   7.983
  549POPC   C4A11514   5.711   2.607   7.608
  549POPC   C1B11515   6.305   2.664   8.727
  549POPC   C2B11516   6.366   2.426   8.361
  549POPC   C3B11517   6.173   2.481   7.945
  549POPC   C4B11518   6.137   2.858   7.658
  550POPC   NC311519  38.999  35.146   9.533
  550POPC   PO411520  38.993  35.786   9.478
  550POPC   GL111521  39.054  35.523   9.121
  550POPC   GL211522  39.318  35.276   9.101
  550POPC   C1A11523  39.066  35.460   8.659
  550POPC   D2A11524  39.136  35.146   8.370
  550POPC   C3A11525  39.176  35.281   7.954
  550POPC   C4A11526  39.322  35.560   7.656
  550POPC   C1B11527  39.585  35.439   8.769
  550POPC   C2B11528  39.531  35.505   8.330
  550POPC   C3B11529  39.739  35.574   7.940
  550POPC   C4B11530  39.763  35.284   7.606
  551POPC   NC311531  25.570  26.915   9.542
  551POPC   PO411532  24.979  26.436   9.509
  551POPC   GL111533  25.203  26.737   9.165
  551POPC   GL211534  25.570  26.780   9.070
  551POPC   C1A11535  25.288  26.587   8.706
  551POPC   D2A11536  25.178  26.492   8.281
  551POPC   C3A11537  25.241  26.760   7.947
  551POPC   C4A11538  25.037  27.161   7.811
  551POPC   C1B11539  25.381  27.079   8.783
  551POPC   C2B11540  25.413  27.044   8.324
  551POPC   C3B11541  25.566  27.158   7.894
  551POPC   C4B11542  25.630  26.864   7.531
  552POPC   NC311543  11.561   9.244   9.535
  552POPC   PO411544  11.012   8.800   9.644
  552POPC   GL111545  11.208   9.085   9.249
  552POPC   GL211546  11.471   8.883   9.008
  552POPC   C1A11547  11.201   9.215   8.793
  552POPC   D2A11548  11.527   9.096   8.450
  552POPC   C3A11549  11.570   9.112   8.015
  552POPC   C4A11550  11.510   9.032   7.576
  552POPC   C1B11551  11.205   8.727   8.559
  552POPC   C2B11552  11.119   8.638   8.118
  552POPC   C3B11553  11.089   8.793   7.716
  552POPC   C4B11554  10.879   8.681   7.394
  553POPC   NC311555  38.715  42.479   9.577
  553POPC   PO411556  38.340  41.933   9.615
  553POPC   GL111557  38.386  42.234   9.256
  553POPC   GL211558  38.671  42.070   9.238
  553POPC   C1A11559  38.735  42.450   8.943
  553POPC   D2A11560  38.820  42.376   8.524
  553POPC   C3A11561  38.618  42.574   8.190
  553POPC   C4A11562  38.661  42.610   7.754
  553POPC   C1B11563  38.500  42.031   8.780
  553POPC   C2B11564  38.428  42.114   8.319
  553POPC   C3B11565  38.386  42.213   7.872
  553POPC   C4B11566  38.124  42.569   7.693
  554POPC   NC311567  33.120  21.124   9.431
  554POPC   PO411568  33.470  21.676   9.258
  554POPC   GL111569  33.163  21.413   9.012
  554POPC   GL211570  32.853  21.167   9.027
  554POPC   C1A11571  32.971  21.421   8.604
  554POPC   D2A11572  33.172  21.430   8.223
  554POPC   C3A11573  33.202  21.511   7.794
  554POPC   C4A11574  33.482  21.248   7.710
  554POPC   C1B11575  32.666  20.971   8.689
  554POPC   C2B11576  32.593  21.168   8.285
  554POPC   C3B11577  32.810  21.196   7.920
  554POPC   C4B11578  32.718  21.370   7.552
  555POPC   NC311579  38.528  24.492   9.653
  555POPC   PO411580  38.231  24.018   9.702
  555POPC   GL111581  38.394  24.193   9.258
  555POPC   GL211582  38.695  24.370   9.162
  555POPC   C1A11583  38.309  24.365   8.835
  555POPC   D2A11584  38.266  24.250   8.389
  555POPC   C3A11585  38.439  24.499   8.045
  555POPC   C4A11586  38.289  24.623   7.648
  555POPC   C1B11587  38.659  23.992   8.843
  555POPC   C2B11588  38.683  23.892   8.380
  555POPC   C3B11589  38.661  24.050   7.950
  555POPC   C4B11590  38.337  24.121   7.641
  556POPC   NC311591  23.168  38.100   9.421
  556POPC   PO411592  22.742  38.614   9.570
  556POPC   GL111593  22.969  38.519   9.191
  556POPC   GL211594  23.140  38.794   9.071
  556POPC   C1A11595  23.110  38.334   8.781
  556POPC   D2A11596  22.954  38.444   8.346
  556POPC   C3A11597  23.171  38.397   7.965
  556POPC   C4A11598  22.908  38.220   7.651
  556POPC   C1B11599  22.829  38.761   8.728
  556POPC   C2B11600  22.742  38.953   8.369
  556POPC   C3B11601  22.616  38.772   7.991
  556POPC   C4B11602  22.879  38.715   7.638
  557POPC   NC311603  41.261  29.891   9.583
  557POPC   PO411604  41.792  30.219   9.538
  557POPC   GL111605  41.641  29.959   9.238
  557POPC   GL211606  41.342  30.115   9.145
  557POPC   C1A11607  41.711  29.899   8.821
  557POPC   D2A11608  41.895  30.130   8.477
  557POPC   C3A11609  41.797  29.988   8.051
  557POPC   C4A11610  41.594  29.906   7.681
  557POPC   C1B11611  41.205  29.907   8.802
  557POPC   C2B11612  41.323  29.751   8.445
  557POPC   C3B11613  41.238  29.866   8.051
  557POPC   C4B11614  41.050  29.972   7.691
  558POPC   NC311615  13.601  14.206   9.561
  558POPC   PO411616  13.425  14.830   9.355
  558POPC   GL111617  13.588  14.489   9.127
  558POPC   GL211618  13.895  14.283   9.157
  558POPC   C1A11619  13.641  14.363   8.713
  558POPC   D2A11620  13.451  14.485   8.363
  558POPC   C3A11621  13.434  14.152   8.076
  558POPC   C4A11622  13.436  14.307   7.645
  558POPC   C1B11623  14.127  14.470   8.831
  558POPC   C2B11624  14.077  14.507   8.416
  558POPC   C3B11625  13.864  14.424   8.072
  558POPC   C4B11626  13.896  14.134   7.766
  559POPC   NC311627  19.435  23.602   9.579
  559POPC   PO411628  19.065  24.110   9.463
  559POPC   GL111629  19.127  23.778   9.147
  559POPC   GL211630  19.306  23.465   9.106
  559POPC   C1A11631  18.996  23.726   8.739
  559POPC   D2A11632  18.848  23.891   8.348
  559POPC   C3A11633  19.081  23.821   7.998
  559POPC   C4A11634  19.148  24.017   7.633
  559POPC   C1B11635  19.154  23.241   8.765
  559POPC   C2B11636  19.077  23.417   8.336
  559POPC   C3B11637  18.816  23.396   7.955
  559POPC   C4B11638  18.806  23.621   7.571
  560POPC   NC311639   3.846   0.433   9.405
  560POPC   PO411640   3.177   0.533   9.457
  560POPC   GL111641   3.297   0.348   9.097
  560POPC   GL211642   3.542   0.075   9.154
  560POPC   C1A11643   3.398   0.282   8.671
  560POPC   D2A11644   3.499   0.021   8.330
  560POPC   C3A11645   3.264   0.064   7.954
  560POPC   C4A11646   3.139   0.453   7.821
  560POPC   C1B11647   3.845   0.040   8.787
  560POPC   C2B11648   3.950   0.250   8.372
  560POPC   C3B11649   3.744   0.258   7.922
  560POPC   C4B11650   3.766   0.244   7.410
  561POPC   NC311651  30.322  14.146   9.457
  561POPC   PO411652  30.620  13.663   9.776
  561POPC   GL111653  30.518  13.730   9.274
  561POPC   GL211654  30.401  13.417   9.072
  561POPC   C1A11655  30.666  13.848   8.880
  561POPC   D2A11656  30.585  13.889   8.444
  561POPC   C3A11657  30.893  13.979   8.145
  561POPC   C4A11658  30.795  13.764   7.760
  561POPC   C1B11659  30.430  13.454   8.628
  561POPC   C2B11660  30.585  13.297   8.261
  561POPC   C3B11661  30.496  13.356   7.847
  561POPC   C4B11662  30.624  13.159   7.509
  562POPC   NC311663  13.024  26.272   9.428
  562POPC   PO411664  12.687  25.656   9.507
  562POPC   GL111665  12.786  25.866   9.143
  562POPC   GL211666  13.118  25.849   9.017
  562POPC   C1A11667  12.556  25.974   8.767
  562POPC   D2A11668  12.736  25.939   8.370
  562POPC   C3A11669  12.647  26.254   8.104
  562POPC   C4A11670  12.882  26.234   7.748
  562POPC   C1B11671  13.249  26.229   8.800
  562POPC   C2B11672  13.082  26.347   8.414
  562POPC   C3B11673  13.184  26.051   8.100
  562POPC   C4B11674  13.511  26.061   7.812
  563POPC   NC311675  16.856  27.019   9.551
  563POPC   PO411676  16.299  26.928   9.282
  563POPC   GL111677  16.666  26.784   9.078
  563POPC   GL211678  16.952  26.983   9.058
  563POPC   C1A11679  16.713  26.754   8.633
  563POPC   D2A11680  16.405  26.589   8.328
  563POPC   C3A11681  16.573  26.586   7.942
  563POPC   C4A11682  16.650  26.956   7.760
  563POPC   C1B11683  17.138  27.043   8.667
  563POPC   C2B11684  16.921  27.040   8.262
  563POPC   C3B11685  17.054  27.244   7.885
  563POPC   C4B11686  17.021  27.132   7.426
  564POPC   NC311687  20.003  28.338   9.663
  564POPC   PO411688  19.647  28.021   9.079
  564POPC   GL111689  19.732  28.437   9.031
  564POPC   GL211690  20.063  28.603   9.209
  564POPC   C1A11691  19.654  28.471   8.580
  564POPC   D2A11692  19.413  28.170   8.319
  564POPC   C3A11693  19.510  28.188   7.898
  564POPC   C4A11694  19.712  28.180   7.502
  564POPC   C1B11695  20.039  28.750   8.779
  564POPC   C2B11696  20.080  28.594   8.350
  564POPC   C3B11697  20.022  28.277   8.039
  564POPC   C4B11698  19.905  28.579   7.767
  565POPC   NC311699  38.026  28.058   9.561
  565POPC   PO411700  38.329  27.362   9.500
  565POPC   GL111701  38.503  27.729   9.252
  565POPC   GL211702  38.432  27.501   8.987
  565POPC   C1A11703  38.730  27.875   8.872
  565POPC   D2A11704  38.669  27.659   8.443
  565POPC   C3A11705  38.790  27.752   8.021
  565POPC   C4A11706  38.519  27.623   7.674
  565POPC   C1B11707  38.201  27.622   8.614
  565POPC   C2B11708  38.042  27.474   8.209
  565POPC   C3B11709  37.969  27.242   7.800
  565POPC   C4B11710  38.127  27.385   7.377
  566POPC   NC311711  21.861   2.969   9.427
  566POPC   PO411712  22.446   2.750   9.615
  566POPC   GL111713  22.276   2.743   9.219
  566POPC   GL211714  22.290   3.095   9.157
  566POPC   C1A11715  22.270   2.559   8.812
  566POPC   D2A11716  21.987   2.574   8.452
  566POPC   C3A11717  22.259   2.583   8.112
  566POPC   C4A11718  22.322   2.688   7.688
  566POPC   C1B11719  22.070   3.022   8.779
  566POPC   C2B11720  22.222   3.043   8.353
  566POPC   C3B11721  22.025   3.014   7.948
  566POPC   C4B11722  22.055   3.120   7.514
  567POPC   NC311723  37.991  11.270   9.544
  567POPC   PO411724  38.538  10.953   9.533
  567POPC   GL111725  38.395  10.934   9.147
  567POPC   GL211726  38.314  11.288   9.128
  567POPC   C1A11727  38.464  10.953   8.703
  567POPC   D2A11728  38.684  11.253   8.494
  567POPC   C3A11729  38.592  11.181   8.100
  567POPC   C4A11730  38.379  11.325   7.765
  567POPC   C1B11731  38.198  11.389   8.710
  567POPC   C2B11732  38.191  11.421   8.285
  567POPC   C3B11733  37.930  11.452   7.939
  567POPC   C4B11734  38.028  11.464   7.442
  568POPC   NC311735  28.809  43.261   9.464
  568POPC   PO411736  29.209  42.699   9.679
  568POPC   GL111737  29.195  42.757   9.201
  568POPC   GL211738  29.143  43.124   9.109
  568POPC   C1A11739  29.309  42.852   8.738
  568POPC   D2A11740  29.094  43.086   8.421
  568POPC   C3A11741  29.215  42.925   8.053
  568POPC   C4A11742  29.141  43.100   7.695
  568POPC   C1B11743  29.058  43.450   8.777
  568POPC   C2B11744  28.797  43.497   8.391
  568POPC   C3B11745  29.105  43.469   8.051
  568POPC   C4B11746  29.173  43.646   7.651
  569POPC   NC311747  32.503  32.372   9.566
  569POPC   PO411748  31.777  32.091   9.545
  569POPC   GL111749  32.115  32.147   9.253
  569POPC   GL211750  31.951  32.441   9.188
  569POPC   C1A11751  32.318  32.309   8.857
  569POPC   D2A11752  32.143  32.321   8.441
  569POPC   C3A11753  32.358  32.231   8.092
  569POPC   C4A11754  32.390  31.943   7.770
  569POPC   C1B11755  31.874  32.620   8.804
  569POPC   C2B11756  32.067  32.807   8.459
  569POPC   C3B11757  31.906  32.631   8.092
  569POPC   C4B11758  32.048  32.405   7.726
  570POPC   NC311759  12.730  25.173   9.516
  570POPC   PO411760  11.997  25.187   9.627
  570POPC   GL111761  11.980  25.242   9.230
  570POPC   GL211762  12.337  25.149   9.193
  570POPC   C1A11763  11.970  25.190   8.824
  570POPC   D2A11764  11.967  25.279   8.409
  570POPC   C3A11765  11.761  25.100   8.091
  570POPC   C4A11766  11.819  25.258   7.697
  570POPC   C1B11767  12.395  25.489   8.899
  570POPC   C2B11768  12.412  25.533   8.428
  570POPC   C3B11769  12.301  25.328   8.012
  570POPC   C4B11770  12.353  25.228   7.563
  571POPC   NC311771  36.049   6.506   9.672
  571POPC   PO411772  36.390   7.108   9.536
  571POPC   GL111773  36.329   6.861   9.160
  571POPC   GL211774  36.024   6.739   9.202
  571POPC   C1A11775  36.413   6.634   8.759
  571POPC   D2A11776  36.332   6.462   8.360
  571POPC   C3A11777  36.459   6.602   7.937
  571POPC   C4A11778  36.544   6.684   7.490
  571POPC   C1B11779  35.808   6.460   8.930
  571POPC   C2B11780  35.794   6.506   8.492
  571POPC   C3B11781  35.944   6.656   8.109
  571POPC   C4B11782  35.827   6.570   7.723
  572POPC   NC311783  16.737  23.417   9.438
  572POPC   PO411784  16.720  24.043   9.479
  572POPC   GL111785  16.597  23.855   9.119
  572POPC   GL211786  16.343  23.613   9.169
  572POPC   C1A11787  16.600  23.816   8.688
  572POPC   D2A11788  16.929  23.779   8.418
  572POPC   C3A11789  16.789  23.731   8.031
  572POPC   C4A11790  16.466  23.913   7.783
  572POPC   C1B11791  16.447  23.337   8.807
  572POPC   C2B11792  16.613  23.349   8.378
  572POPC   C3B11793  16.469  23.355   7.919
  572POPC   C4B11794  16.641  23.266   7.499
  573POPC   NC311795   1.335  21.713   9.563
  573POPC   PO411796   1.078  22.360   9.495
  573POPC   GL111797   1.245  22.090   9.207
  573POPC   GL211798   0.953  22.128   9.039
  573POPC   C1A11799   1.377  21.935   8.804
  573POPC   D2A11800   1.211  22.008   8.386
  573POPC   C3A11801   1.449  22.070   8.003
  573POPC   C4A11802   1.132  22.296   7.784
  573POPC   C1B11803   0.874  21.739   8.843
  573POPC   C2B11804   0.746  21.721   8.422
  573POPC   C3B11805   0.815  21.961   8.058
  573POPC   C4B11806   0.713  22.036   7.624
  574POPC   NC311807   9.785   8.389   9.542
  574POPC   PO411808   9.802   7.794   9.765
  574POPC   GL111809   9.592   7.991   9.298
  574POPC   GL211810   9.861   8.152   9.079
  574POPC   C1A11811   9.436   8.054   8.841
  574POPC   D2A11812   9.742   8.030   8.494
  574POPC   C3A11813   9.626   8.057   8.050
  574POPC   C4A11814   9.820   7.868   7.655
  574POPC   C1B11815  10.152   8.251   8.735
  574POPC   C2B11816  10.069   8.402   8.305
  574POPC   C3B11817   9.907   8.421   7.873
  574POPC   C4B11818   9.945   8.357   7.440
  575POPC   NC311819   4.868   5.192   9.335
  575POPC   PO411820   5.515   5.013   9.395
  575POPC   GL111821   5.314   5.081   9.059
  575POPC   GL211822   5.350   5.393   8.977
  575POPC   C1A11823   5.112   4.906   8.724
  575POPC   D2A11824   5.227   4.947   8.303
  575POPC   C3A11825   5.213   5.048   7.885
  575POPC   C4A11826   5.016   4.901   7.520
  575POPC   C1B11827   5.129   5.400   8.584
  575POPC   C2B11828   5.096   5.483   8.123
  575POPC   C3B11829   4.853   5.389   7.719
  575POPC   C4B11830   4.868   5.326   7.209
  576POPC   NC311831  21.988  29.937   9.808
  576POPC   PO411832  22.536  29.569   9.727
  576POPC   GL111833  22.294  29.717   9.300
  576POPC   GL211834  22.179  30.090   9.309
  576POPC   C1A11835  22.283  29.840   8.827
  576POPC   D2A11836  22.455  29.777   8.382
  576POPC   C3A11837  22.429  29.894   7.941
  576POPC   C4A11838  22.200  29.866   7.520
  576POPC   C1B11839  21.921  30.215   8.941
  576POPC   C2B11840  21.973  30.245   8.493
  576POPC   C3B11841  21.922  30.377   8.068
  576POPC   C4B11842  21.717  30.199   7.716
  577POPC   NC311843   0.076  35.218   9.481
  577POPC   PO411844  44.530  35.602   9.463
  577POPC   GL111845  44.792  35.554   9.120
  577POPC   GL211846  44.766  35.197   9.081
  577POPC   C1A11847  44.828  35.539   8.663
  577POPC   D2A11848  44.859  35.238   8.298
  577POPC   C3A11849  44.838  35.443   7.929
  577POPC   C4A11850  44.650  35.425   7.552
  577POPC   C1B11851  44.579  35.064   8.700
  577POPC   C2B11852  44.299  35.042   8.348
  577POPC   C3B11853  44.401  35.103   7.926
  577POPC   C4B11854  44.775  34.957   7.748
  578POPC   NC311855  42.038  39.428   9.492
  578POPC   PO411856  42.262  38.848   9.770
  578POPC   GL111857  42.341  39.076   9.269
  578POPC   GL211858  42.183  39.297   9.027
  578POPC   C1A11859  42.457  38.942   8.805
  578POPC   D2A11860  42.305  38.760   8.399
  578POPC   C3A11861  42.251  39.009   8.040
  578POPC   C4A11862  42.551  39.245   7.837
  578POPC   C1B11863  41.933  39.065   8.712
  578POPC   C2B11864  41.915  39.280   8.339
  578POPC   C3B11865  42.198  39.556   8.152
  578POPC   C4B11866  42.104  39.491   7.752
  579POPC   NC311867  38.816  13.673   9.573
  579POPC   PO411868  38.158  13.714   9.464
  579POPC   GL111869  38.460  13.588   9.171
  579POPC   GL211870  38.697  13.339   9.187
  579POPC   C1A11871  38.409  13.639   8.753
  579POPC   D2A11872  38.148  13.574   8.405
  579POPC   C3A11873  38.387  13.791   8.097
  579POPC   C4A11874  38.476  13.832   7.651
  579POPC   C1B11875  38.844  13.276   8.763
  579POPC   C2B11876  38.647  13.385   8.372
  579POPC   C3B11877  38.460  13.301   7.989
  579POPC   C4B11878  38.592  13.328   7.560
  580POPC   NC311879  21.260  13.916   9.516
  580POPC   PO411880  21.444  13.282   9.758
  580POPC   GL111881  21.458  13.278   9.259
  580POPC   GL211882  21.522  13.627   9.141
  580POPC   C1A11883  21.463  13.310   8.757
  580POPC   D2A11884  21.582  13.644   8.410
  580POPC   C3A11885  21.685  13.481   7.997
  580POPC   C4A11886  21.587  13.136   7.765
  580POPC   C1B11887  21.230  13.763   8.779
  580POPC   C2B11888  21.096  13.872   8.337
  580POPC   C3B11889  21.239  13.732   7.913
  580POPC   C4B11890  21.298  13.519   7.483
  581POPC   NC311891  42.471  24.565   9.533
  581POPC   PO411892  41.830  24.441   9.420
  581POPC   GL111893  42.206  24.379   9.135
  581POPC   GL211894  42.584  24.200   9.199
  581POPC   C1A11895  42.141  24.533   8.727
  581POPC   D2A11896  41.857  24.561   8.375
  581POPC   C3A11897  42.096  24.572   8.065
  581POPC   C4A11898  42.189  24.345   7.746
  581POPC   C1B11899  42.609  24.142   8.750
  581POPC   C2B11900  42.457  24.342   8.359
  581POPC   C3B11901  42.634  24.471   7.970
  581POPC   C4B11902  42.649  24.365   7.536
  582POPC   NC311903  34.331  27.493   9.415
  582POPC   PO411904  35.000  27.806   9.556
  582POPC   GL111905  34.856  27.675   9.155
  582POPC   GL211906  34.546  27.854   9.095
  582POPC   C1A11907  34.794  27.620   8.691
  582POPC   D2A11908  34.503  27.598   8.343
  582POPC   C3A11909  34.578  27.318   7.973
  582POPC   C4A11910  34.863  27.411   7.630
  582POPC   C1B11911  34.231  27.819   8.739
  582POPC   C2B11912  34.004  27.854   8.346
  582POPC   C3B11913  34.157  27.657   7.975
  582POPC   C4B11914  34.401  27.663   7.618
  583POPC   NC311915  39.291  22.678   9.515
  583POPC   PO411916  38.950  23.373   9.443
  583POPC   GL111917  39.103  23.032   9.171
  583POPC   GL211918  38.879  22.789   9.058
  583POPC   C1A11919  39.447  22.900   8.845
  583POPC   D2A11920  39.728  23.113   8.520
  583POPC   C3A11921  39.583  23.267   8.087
  583POPC   C4A11922  39.586  23.134   7.641
  583POPC   C1B11923  38.996  23.062   8.695
  583POPC   C2B11924  39.268  22.946   8.343
  583POPC   C3B11925  39.139  23.000   7.918
  583POPC   C4B11926  39.005  22.638   7.695
  584POPC   NC311927  23.429  41.896   9.526
  584POPC   PO411928  23.944  41.530   9.429
  584POPC   GL111929  23.702  41.688   9.114
  584POPC   GL211930  23.351  41.589   9.133
  584POPC   C1A11931  23.722  41.651   8.685
  584POPC   D2A11932  23.968  41.784   8.358
  584POPC   C3A11933  23.718  41.643   8.081
  584POPC   C4A11934  23.613  41.524   7.670
  584POPC   C1B11935  23.291  41.893   8.814
  584POPC   C2B11936  23.328  41.825   8.376
  584POPC   C3B11937  23.296  41.851   7.926
  584POPC   C4B11938  23.570  42.015   7.576
  585POPC   NC311939   0.262  21.173   9.632
  585POPC   PO411940   0.789  21.597   9.510
  585POPC   GL111941   0.621  21.320   9.163
  585POPC   GL211942   0.330  21.083   9.125
  585POPC   C1A11943   0.473  21.371   8.715
  585POPC   D2A11944   0.267  21.497   8.319
  585POPC   C3A11945   0.188  21.277   7.913
  585POPC   C4A11946   0.408  21.318   7.489
  585POPC   C1B11947   0.121  20.836   8.765
  585POPC   C2B11948   0.273  20.730   8.307
  585POPC   C3B11949   0.166  20.766   7.849
  585POPC   C4B11950   0.248  20.848   7.365
  586POPC   NC311951  31.238  34.076   9.463
  586POPC   PO411952  31.023  33.512   9.581
  586POPC   GL111953  31.166  33.664   9.165
  586POPC   GL211954  31.534  33.761   9.188
  586POPC   C1A11955  31.252  33.933   8.778
  586POPC   D2A11956  31.511  33.915   8.395
  586POPC   C3A11957  31.462  33.829   7.978
  586POPC   C4A11958  31.179  33.686   7.706
  586POPC   C1B11959  31.733  33.689   8.794
  586POPC   C2B11960  32.007  33.796   8.449
  586POPC   C3B11961  31.967  33.700   8.025
  586POPC   C4B11962  31.816  33.705   7.615
  587POPC   NC311963  30.327  29.520   9.160
  587POPC   PO411964  30.796  29.083   9.421
  587POPC   GL111965  30.829  29.375   9.118
  587POPC   GL211966  30.779  29.718   9.210
  587POPC   C1A11967  30.817  29.205   8.708
  587POPC   D2A11968  30.564  29.192   8.344
  587POPC   C3A11969  30.784  29.145   7.971
  587POPC   C4A11970  30.558  29.205   7.623
  587POPC   C1B11971  30.940  29.719   8.757
  587POPC   C2B11972  31.205  29.459   8.479
  587POPC   C3B11973  31.192  29.429   8.065
  587POPC   C4B11974  30.946  29.579   7.715
  588POPC   NC311975  24.003  11.211   9.493
  588POPC   PO411976  23.284  11.156   9.502
  588POPC   GL111977  23.435  11.063   9.090
  588POPC   GL211978  23.791  11.127   9.040
  588POPC   C1A11979  23.489  11.289   8.664
  588POPC   D2A11980  23.733  11.113   8.312
  588POPC   C3A11981  23.736  11.406   8.011
  588POPC   C4A11982  23.862  11.556   7.613
  588POPC   C1B11983  23.974  11.478   8.801
  588POPC   C2B11984  24.081  11.584   8.377
  588POPC   C3B11985  24.182  11.729   7.963
  588POPC   C4B11986  24.327  11.682   7.476
  589POPC   NC311987  35.024  22.016   9.495
  589POPC   PO411988  35.626  22.356   9.558
  589POPC   GL111989  35.442  22.135   9.208
  589POPC   GL211990  35.138  22.344   9.118
  589POPC   C1A11991  35.340  21.911   8.812
  589POPC   D2A11992  35.143  21.875   8.399
  589POPC   C3A11993  35.297  22.178   8.091
  589POPC   C4A11994  35.164  22.110   7.697
  589POPC   C1B11995  35.409  22.568   8.811
  589POPC   C2B11996  35.712  22.556   8.442
  589POPC   C3B11997  35.590  22.622   8.004
  589POPC   C4B11998  35.607  22.353   7.675
  590POPC   NC311999  32.438   9.051   9.610
  590POPC   PO412000  32.172   8.598   9.184
  590POPC   GL112001  32.194   9.023   9.150
  590POPC   GL212002  32.525   9.172   9.105
  590POPC   C1A12003  32.094   9.188   8.767
  590POPC   D2A12004  32.157   9.036   8.390
  590POPC   C3A12005  32.484   9.093   8.101
  590POPC   C4A12006  32.299   8.954   7.728
  590POPC   C1B12007  32.624   8.986   8.669
  590POPC   C2B12008  32.791   8.705   8.315
  590POPC   C3B12009  32.677   8.613   7.885
  590POPC   C4B12010  32.633   8.738   7.438
  591POPC   NC312011   8.056  28.687   9.623
  591POPC   PO412012   8.463  28.158   9.602
  591POPC   GL112013   8.495  28.425   9.223
  591POPC   GL212014   8.159  28.351   9.184
  591POPC   C1A12015   8.425  28.507   8.758
  591POPC   D2A12016   8.181  28.447   8.356
  591POPC   C3A12017   8.271  28.586   7.920
  591POPC   C4A12018   8.420  28.509   7.456
  591POPC   C1B12019   8.422  28.029   8.934
  591POPC   C2B12020   8.528  28.068   8.477
  591POPC   C3B12021   8.636  28.202   8.076
  591POPC   C4B12022   8.359  28.105   7.772
  592POPC   NC312023  42.687   5.879   9.366
  592POPC   PO412024  42.068   5.729   9.507
  592POPC   GL112025  42.118   5.838   9.103
  592POPC   GL212026  41.989   6.153   9.011
  592POPC   C1A12027  42.302   5.632   8.759
  592POPC   D2A12028  42.561   5.629   8.420
  592POPC   C3A12029  42.327   5.815   8.127
  592POPC   C4A12030  42.272   5.841   7.738
  592POPC   C1B12031  42.395   6.131   8.748
  592POPC   C2B12032  42.613   6.172   8.334
  592POPC   C3B12033  42.466   6.288   7.896
  592POPC   C4B12034  42.329   6.268   7.431
  593POPC   NC312035  19.813   8.785   9.677
  593POPC   PO412036  20.014   9.283   9.332
  593POPC   GL112037  19.818   9.009   9.065
  593POPC   GL212038  19.930   8.691   9.173
  593POPC   C1A12039  19.754   9.016   8.622
  593POPC   D2A12040  19.792   8.794   8.255
  593POPC   C3A12041  19.907   9.029   7.930
  593POPC   C4A12042  19.621   9.278   7.730
  593POPC   C1B12043  20.144   8.698   8.754
  593POPC   C2B12044  20.273   8.896   8.372
  593POPC   C3B12045  20.199   8.609   7.997
  593POPC   C4B12046  20.082   8.553   7.571
  594POPC   NC312047  28.182  37.423   9.610
  594POPC   PO412048  28.567  37.989   9.523
  594POPC   GL112049  28.405  37.844   9.143
  594POPC   GL212050  28.405  37.486   9.154
  594POPC   C1A12051  28.557  37.811   8.717
  594POPC   D2A12052  28.396  38.002   8.330
  594POPC   C3A12053  28.187  37.800   8.066
  594POPC   C4A12054  28.470  37.784   7.761
  594POPC   C1B12055  28.581  37.301   8.789
  594POPC   C2B12056  28.614  37.444   8.351
  594POPC   C3B12057  28.403  37.314   7.987
  594POPC   C4B12058  28.069  37.404   7.713
  595POPC   NC312059  42.981   1.322   9.589
  595POPC   PO412060  42.677   0.803   9.801
  595POPC   GL112061  42.659   1.013   9.311
  595POPC   GL212062  42.773   1.370   9.149
  595POPC   C1A12063  42.796   0.982   8.842
  595POPC   D2A12064  43.137   1.063   8.521
  595POPC   C3A12065  43.089   1.288   8.113
  595POPC   C4A12066  43.322   1.133   7.795
  595POPC   C1B12067  43.147   1.414   8.907
  595POPC   C2B12068  43.157   1.617   8.506
  595POPC   C3B12069  42.837   1.767   8.201
  595POPC   C4B12070  42.876   1.676   7.745
  596POPC   NC312071  39.450  33.719   9.583
  596POPC   PO412072  38.791  33.726   9.335
  596POPC   GL112073  39.069  33.803   9.015
  596POPC   GL212074  39.392  33.747   9.092
  596POPC   C1A12075  39.295  34.002   8.668
  596POPC   D2A12076  39.329  34.133   8.256
  596POPC   C3A12077  38.976  34.105   7.980
  596POPC   C4A12078  38.984  33.816   7.644
  596POPC   C1B12079  39.415  33.512   8.709
  596POPC   C2B12080  39.575  33.610   8.313
  596POPC   C3B12081  39.399  33.640   7.907
  596POPC   C4B12082  39.435  33.603   7.454
  597POPC   NC312083  15.356  11.360   9.557
  597POPC   PO412084  14.714  11.268   9.497
  597POPC   GL112085  14.984  11.435   9.154
  597POPC   GL212086  15.318  11.577   9.121
  597POPC   C1A12087  15.033  11.303   8.733
  597POPC   D2A12088  15.257  11.016   8.473
  597POPC   C3A12089  15.037  10.912   8.085
  597POPC   C4A12090  15.258  10.879   7.719
  597POPC   C1B12091  15.531  11.330   8.822
  597POPC   C2B12092  15.610  11.460   8.416
  597POPC   C3B12093  15.449  11.282   8.059
  597POPC   C4B12094  15.672  11.455   7.738
  598POPC   NC312095  43.098  32.712   9.453
  598POPC   PO412096  43.087  33.405   9.519
  598POPC   GL112097  43.176  33.148   9.164
  598POPC   GL212098  42.952  33.342   9.020
  598POPC   C1A12099  43.046  32.913   8.778
  598POPC   D2A12100  42.904  33.117   8.395
  598POPC   C3A12101  43.123  33.038   8.015
  598POPC   C4A12102  42.944  32.699   7.802
  598POPC   C1B12103  43.239  33.427   8.680
  598POPC   C2B12104  43.144  33.549   8.253
  598POPC   C3B12105  42.920  33.488   7.859
  598POPC   C4B12106  43.139  33.283   7.515
  599POPC   NC312107  41.454  40.655   9.537
  599POPC   PO412108  42.015  40.894   9.230
  599POPC   GL112109  41.607  40.864   9.104
  599POPC   GL212110  41.521  40.492   9.071
  599POPC   C1A12111  41.344  40.876   8.773
  599POPC   D2A12112  41.426  40.802   8.363
  599POPC   C3A12113  41.676  40.974   8.030
  599POPC   C4A12114  41.477  41.013   7.611
  599POPC   C1B12115  41.770  40.563   8.705
  599POPC   C2B12116  41.824  40.457   8.302
  599POPC   C3B12117  41.561  40.464   7.987
  599POPC   C4B12118  41.826  40.623   7.677
  600POPC   NC312119  24.255  10.369   9.547
  600POPC   PO412120  24.672  10.008   9.425
  600POPC   GL112121  24.398  10.302   9.065
  600POPC   GL212122  24.298  10.688   9.096
  600POPC   C1A12123  24.076  10.450   8.710
  600POPC   D2A12124  24.080  10.674   8.305
  600POPC   C3A12125  24.220  10.393   7.936
  600POPC   C4A12126  24.124   9.946   7.843
  600POPC   C1B12127  24.168  10.984   8.722
  600POPC   C2B12128  24.309  11.136   8.285
  600POPC   C3B12129  24.452  10.842   7.964
  600POPC   C4B12130  24.693  10.566   7.697
  601POPC   NC312131  29.091  35.645   9.468
  601POPC   PO412132  29.355  35.053   9.464
  601POPC   GL112133  29.326  35.322   9.102
  601POPC   GL212134  28.991  35.274   9.118
  601POPC   C1A12135  29.117  35.398   8.663
  601POPC   D2A12136  29.187  35.399   8.236
  601POPC   C3A12137  29.014  35.453   7.849
  601POPC   C4A12138  29.364  35.570   7.646
  601POPC   C1B12139  28.805  34.982   8.824
  601POPC   C2B12140  28.945  34.851   8.444
  601POPC   C3B12141  28.867  35.024   8.078
  601POPC   C4B12142  28.877  34.926   7.686
  602POPC   NC312143   2.498  23.699   9.600
  602POPC   PO412144   2.962  24.042   9.283
  602POPC   GL112145   2.550  23.871   9.117
  602POPC   GL212146   2.650  23.526   9.129
  602POPC   C1A12147   2.344  23.943   8.706
  602POPC   D2A12148   2.425  23.732   8.303
  602POPC   C3A12149   2.507  23.932   7.929
  602POPC   C4A12150   2.825  23.986   7.616
  602POPC   C1B12151   2.793  23.695   8.696
  602POPC   C2B12152   2.920  23.806   8.251
  602POPC   C3B12153   2.868  23.560   7.880
  602POPC   C4B12154   3.143  23.585   7.498
  603POPC   NC312155  25.006  34.029   9.253
  603POPC   PO412156  25.320  34.550   9.624
  603POPC   GL112157  25.129  34.542   9.212
  603POPC   GL212158  24.866  34.779   9.176
  603POPC   C1A12159  25.295  34.509   8.789
  603POPC   D2A12160  25.452  34.340   8.379
  603POPC   C3A12161  25.192  34.336   8.027
  603POPC   C4A12162  25.369  34.503   7.673
  603POPC   C1B12163  24.902  34.905   8.764
  603POPC   C2B12164  25.088  34.736   8.379
  603POPC   C3B12165  25.168  34.889   7.959
  603POPC   C4B12166  24.839  34.942   7.669
  604POPC   NC312167  20.236   9.680   9.418
  604POPC   PO412168  19.669   9.385   9.727
  604POPC   GL112169  19.664   9.646   9.249
  604POPC   GL212170  19.922   9.904   9.093
  604POPC   C1A12171  19.486   9.902   8.837
  604POPC   D2A12172  19.501  10.235   8.467
  604POPC   C3A12173  19.749  10.071   8.135
  604POPC   C4A12174  19.588   9.813   7.801
  604POPC   C1B12175  19.908   9.564   8.749
  604POPC   C2B12176  20.016   9.362   8.345
  604POPC   C3B12177  20.002   9.550   7.944
  604POPC   C4B12178  20.087   9.959   7.740
  605POPC   NC312179   7.559  41.221   9.261
  605POPC   PO412180   8.033  41.564   9.526
  605POPC   GL112181   8.236  41.694   9.151
  605POPC   GL212182   8.118  41.370   9.038
  605POPC   C1A12183   8.468  41.802   8.800
  605POPC   D2A12184   8.481  41.662   8.399
  605POPC   C3A12185   8.198  41.788   8.119
  605POPC   C4A12186   8.254  41.489   7.801
  605POPC   C1B12187   8.017  41.602   8.693
  605POPC   C2B12188   7.963  41.400   8.329
  605POPC   C3B12189   7.754  41.454   7.980
  605POPC   C4B12190   7.811  41.468   7.552
  606POPC   NC312191  40.568   0.947   9.267
  606POPC   PO412192  40.087   1.159   9.621
  606POPC   GL112193  40.031   1.421   9.264
  606POPC   GL212194  40.066   1.174   9.063
  606POPC   C1A12195  40.159   1.564   8.785
  606POPC   D2A12196  40.022   1.261   8.476
  606POPC   C3A12197  40.009   1.365   8.046
  606POPC   C4A12198  39.959   1.043   7.717
  606POPC   C1B12199  39.688   1.423   8.862
  606POPC   C2B12200  39.504   1.344   8.457
  606POPC   C3B12201  39.584   1.101   8.120
  606POPC   C4B12202  39.536   1.294   7.737
  607POPC   NC312203  23.186  27.269   9.586
  607POPC   PO412204  22.717  27.792   9.467
  607POPC   GL112205  22.999  27.730   9.119
  607POPC   GL212206  23.324  27.569   9.165
  607POPC   C1A12207  23.204  27.783   8.724
  607POPC   D2A12208  23.066  27.488   8.438
  607POPC   C3A12209  22.840  27.685   8.093
  607POPC   C4A12210  22.621  27.417   7.846
  607POPC   C1B12211  23.511  27.348   8.781
  607POPC   C2B12212  23.560  27.318   8.326
  607POPC   C3B12213  23.345  27.630   8.039
  607POPC   C4B12214  23.093  27.507   7.670
  608POPC   NC312215  34.286  39.524   9.514
  608POPC   PO412216  34.894  39.135   9.521
  608POPC   GL112217  34.715  39.106   9.129
  608POPC   GL212218  34.762  39.414   9.086
  608POPC   C1A12219  34.447  39.228   8.751
  608POPC   D2A12220  34.170  38.994   8.484
  608POPC   C3A12221  34.448  38.904   8.149
  608POPC   C4A12222  34.581  39.153   7.807
  608POPC   C1B12223  34.821  39.625   8.712
  608POPC   C2B12224  34.602  39.635   8.318
  608POPC   C3B12225  34.830  39.607   7.905
  608POPC   C4B12226  34.701  39.511   7.458
  609POPC   NC312227  24.403  30.529   9.549
  609POPC   PO412228  24.309  31.216   9.328
  609POPC   GL112229  24.529  30.907   9.048
  609POPC   GL212230  24.524  30.522   9.065
  609POPC   C1A12231  24.786  30.732   8.689
  609POPC   D2A12232  24.938  30.372   8.461
  609POPC   C3A12233  24.799  30.494   8.072
  609POPC   C4A12234  24.525  30.767   7.798
  609POPC   C1B12235  24.282  30.569   8.700
  609POPC   C2B12236  24.337  30.551   8.266
  609POPC   C3B12237  24.366  30.273   7.905
  609POPC   C4B12238  24.341  30.320   7.453
  610POPC   NC312239   2.641  10.300   9.329
  610POPC   PO412240   2.147  10.744   9.412
  610POPC   GL112241   2.502  10.706   9.067
  610POPC   GL212242   2.903  10.489   8.950
  610POPC   C1A12243   2.532  10.550   8.650
  610POPC   D2A12244   2.804  10.395   8.400
  610POPC   C3A12245   2.687  10.495   8.014
  610POPC   C4A12246   2.975  10.628   7.725
  610POPC   C1B12247   3.079  10.114   8.729
  610POPC   C2B12248   3.007   9.948   8.305
  610POPC   C3B12249   3.064  10.141   7.934
  610POPC   C4B12250   3.101  10.018   7.531
  611POPC   NC312251  36.802   2.421   9.531
  611POPC   PO412252  36.951   1.829   9.525
  611POPC   GL112253  36.972   2.043   9.137
  611POPC   GL212254  36.661   2.192   9.110
  611POPC   C1A12255  36.861   1.983   8.698
  611POPC   D2A12256  36.989   2.155   8.315
  611POPC   C3A12257  37.060   1.957   7.936
  611POPC   C4A12258  37.046   2.078   7.493
  611POPC   C1B12259  36.489   2.408   8.779
  611POPC   C2B12260  36.583   2.542   8.370
  611POPC   C3B12261  36.753   2.468   7.962
  611POPC   C4B12262  36.618   2.109   7.730
  612POPC   NC312263  22.809  11.024   9.393
  612POPC   PO412264  22.941  10.329   9.474
  612POPC   GL112265  22.958  10.617   9.118
  612POPC   GL212266  22.689  10.475   8.959
  612POPC   C1A12267  23.101  10.593   8.686
  612POPC   D2A12268  22.812  10.449   8.369
  612POPC   C3A12269  23.016  10.361   8.003
  612POPC   C4A12270  23.344  10.442   7.702
  612POPC   C1B12271  22.628  10.819   8.695
  612POPC   C2B12272  22.451  10.826   8.321
  612POPC   C3B12273  22.615  10.911   7.942
  612POPC   C4B12274  22.993  10.803   7.752
  613POPC   NC312275  30.590  37.741   9.451
  613POPC   PO412276  30.936  37.078   9.410
  613POPC   GL112277  30.693  37.346   9.140
  613POPC   GL212278  30.870  37.681   9.048
  613POPC   C1A12279  30.484  37.512   8.770
  613POPC   D2A12280  30.711  37.728   8.448
  613POPC   C3A12281  30.640  37.557   8.046
  613POPC   C4A12282  30.400  37.399   7.740
  613POPC   C1B12283  31.064  37.415   8.757
  613POPC   C2B12284  31.001  37.294   8.331
  613POPC   C3B12285  31.137  37.558   7.965
  613POPC   C4B12286  30.974  37.955   7.819
  614POPC   NC312287   3.768   7.129   9.422
  614POPC   PO412288   3.289   7.587   9.470
  614POPC   GL112289   3.442   7.534   9.089
  614POPC   GL212290   3.344   7.197   9.107
  614POPC   C1A12291   3.600   7.719   8.706
  614POPC   D2A12292   3.569   7.672   8.270
  614POPC   C3A12293   3.520   7.970   7.956
  614POPC   C4A12294   3.735   7.713   7.658
  614POPC   C1B12295   3.643   7.189   8.757
  614POPC   C2B12296   3.815   7.242   8.363
  614POPC   C3B12297   3.673   7.262   7.942
  614POPC   C4B12298   3.725   6.888   7.688
  615POPC   NC312299  16.221  44.546   9.545
  615POPC   PO412300  15.795   0.025   9.581
  615POPC   GL112301  15.838  44.705   9.228
  615POPC   GL212302  16.165  44.796   9.081
  615POPC   C1A12303  15.907  44.367   8.897
  615POPC   D2A12304  15.766  44.331   8.451
  615POPC   C3A12305  16.003  44.317   8.039
  615POPC   C4A12306  15.697  44.319   7.695
  615POPC   C1B12307  15.862  44.841   8.728
  615POPC   C2B12308  15.917  44.804   8.290
  615POPC   C3B12309  15.858  44.763   7.865
  615POPC   C4B12310  16.025  44.806   7.443
  616POPC   NC312311   6.777  38.861   9.508
  616POPC   PO412312   7.031  39.482   9.545
  616POPC   GL112313   6.963  39.215   9.177
  616POPC   GL212314   6.598  39.221   9.178
  616POPC   C1A12315   6.894  39.023   8.761
  616POPC   D2A12316   7.142  39.032   8.369
  616POPC   C3A12317   6.949  39.252   8.037
  616POPC   C4A12318   6.810  39.095   7.660
  616POPC   C1B12319   6.470  39.345   8.776
  616POPC   C2B12320   6.541  39.163   8.373
  616POPC   C3B12321   6.416  39.271   7.948
  616POPC   C4B12322   6.345  38.940   7.649
  617POPC   NC312323  27.275  26.971   9.410
  617POPC   PO412324  27.934  27.120   9.408
  617POPC   GL112325  27.716  27.240   9.045
  617POPC   GL212326  27.621  26.891   9.005
  617POPC   C1A12327  27.609  27.192   8.582
  617POPC   D2A12328  27.571  26.879   8.266
  617POPC   C3A12329  27.479  26.962   7.849
  617POPC   C4A12330  27.680  27.000   7.464
  617POPC   C1B12331  27.234  26.865   8.751
  617POPC   C2B12332  27.116  26.678   8.373
  617POPC   C3B12333  27.325  26.501   7.995
  617POPC   C4B12334  27.428  26.558   7.525
  618POPC   NC312335  40.766  39.980   9.545
  618POPC   PO412336  40.209  40.008   9.335
  618POPC   GL112337  40.560  39.959   9.077
  618POPC   GL212338  40.914  40.093   9.077
  618POPC   C1A12339  40.646  39.948   8.663
  618POPC   D2A12340  40.671  40.159   8.280
  618POPC   C3A12341  40.804  39.919   7.955
  618POPC   C4A12342  40.766  39.584   7.677
  618POPC   C1B12343  41.165  40.297   8.753
  618POPC   C2B12344  41.122  40.401   8.302
  618POPC   C3B12345  41.075  40.343   7.838
  618POPC   C4B12346  41.379  40.324   7.534
  619POPC   NC312347  24.088  16.083   9.701
  619POPC   PO412348  23.407  15.902   9.633
  619POPC   GL112349  23.591  15.978   9.208
  619POPC   GL212350  23.966  15.895   9.130
  619POPC   C1A12351  23.619  15.894   8.768
  619POPC   D2A12352  23.852  15.976   8.364
  619POPC   C3A12353  23.563  16.041   8.035
  619POPC   C4A12354  23.561  15.970   7.597
  619POPC   C1B12355  24.050  15.632   8.717
  619POPC   C2B12356  24.103  15.540   8.247
  619POPC   C3B12357  23.964  15.765   7.837
  619POPC   C4B12358  23.904  15.556   7.416
  620POPC   NC312359  38.944  28.291   9.498
  620POPC   PO412360  39.270  28.818   9.659
  620POPC   GL112361  39.408  28.634   9.241
  620POPC   GL212362  39.289  28.321   9.125
  620POPC   C1A12363  39.601  28.562   8.821
  620POPC   D2A12364  39.320  28.396   8.511
  620POPC   C3A12365  39.519  28.323   8.145
  620POPC   C4A12366  39.402  28.520   7.770
  620POPC   C1B12367  38.921  28.353   8.836
  620POPC   C2B12368  38.846  28.135   8.440
  620POPC   C3B12369  39.023  28.228   8.048
  620POPC   C4B12370  38.923  28.388   7.654
  621POPC   NC312371  12.324  16.450   9.593
  621POPC   PO412372  11.842  16.897   9.575
  621POPC   GL112373  12.042  16.697   9.242
  621POPC   GL212374  11.921  16.351   9.296
  621POPC   C1A12375  12.306  16.774   8.878
  621POPC   D2A12376  12.139  16.774   8.477
  621POPC   C3A12377  12.050  17.093   8.180
  621POPC   C4A12378  12.059  16.972   7.763
  621POPC   C1B12379  11.969  16.345   8.856
  621POPC   C2B12380  11.776  16.405   8.452
  621POPC   C3B12381  11.951  16.540   8.064
  621POPC   C4B12382  12.062  16.459   7.640
  622POPC   NC312383   0.255  17.804   9.592
  622POPC   PO412384   0.863  17.408   9.540
  622POPC   GL112385   0.677  17.557   9.187
  622POPC   GL212386   0.319  17.516   9.159
  622POPC   C1A12387   0.761  17.413   8.765
  622POPC   D2A12388   0.887  17.612   8.372
  622POPC   C3A12389   0.665  17.571   7.970
  622POPC   C4A12390   0.670  17.265   7.618
  622POPC   C1B12391   0.189  17.884   8.896
  622POPC   C2B12392   0.121  18.037   8.434
  622POPC   C3B12393   0.141  17.868   7.993
  622POPC   C4B12394   0.215  17.460   7.747
  623POPC   NC312395  41.937  42.254   9.383
  623POPC   PO412396  41.443  42.739   9.435
  623POPC   GL112397  41.339  42.395   9.131
  623POPC   GL212398  41.355  42.075   9.313
  623POPC   C1A12399  41.407  42.297   8.687
  623POPC   D2A12400  41.759  42.213   8.396
  623POPC   C3A12401  41.638  42.370   8.007
  623POPC   C4A12402  41.224  42.516   7.900
  623POPC   C1B12403  41.271  41.867   8.917
  623POPC   C2B12404  41.272  41.766   8.474
  623POPC   C3B12405  41.440  41.869   8.077
  623POPC   C4B12406  41.313  42.040   7.698
  624POPC   NC312407  20.856   7.343   9.442
  624POPC   PO412408  20.603   7.972   9.385
  624POPC   GL112409  20.664   7.636   9.084
  624POPC   GL212410  20.433   7.365   9.099
  624POPC   C1A12411  20.793   7.381   8.729
  624POPC   D2A12412  20.631   7.428   8.318
  624POPC   C3A12413  20.965   7.386   7.982
  624POPC   C4A12414  21.166   7.600   7.620
  624POPC   C1B12415  20.335   7.144   8.693
  624POPC   C2B12416  20.351   6.997   8.245
  624POPC   C3B12417  20.489   7.203   7.878
  624POPC   C4B12418  20.679   7.364   7.498
  625POPC   NC312419  19.776  25.187   9.470
  625POPC   PO412420  20.354  25.569   9.521
  625POPC   GL112421  20.063  25.444   9.139
  625POPC   GL212422  19.661  25.398   9.028
  625POPC   C1A12423  20.015  25.204   8.729
  625POPC   D2A12424  19.835  25.304   8.308
  625POPC   C3A12425  20.014  25.080   7.985
  625POPC   C4A12426  20.247  24.685   7.966
  625POPC   C1B12427  19.517  25.103   8.682
  625POPC   C2B12428  19.380  25.002   8.266
  625POPC   C3B12429  19.516  25.093   7.867
  625POPC   C4B12430  19.562  25.224   7.458
  626POPC   NC312431  23.442  34.476   9.528
  626POPC   PO412432  23.930  34.919   9.302
  626POPC   GL112433  23.664  34.691   9.080
  626POPC   GL212434  23.747  34.351   9.133
  626POPC   C1A12435  23.718  34.618   8.654
  626POPC   D2A12436  23.540  34.730   8.286
  626POPC   C3A12437  23.763  34.683   7.907
  626POPC   C4A12438  23.657  34.902   7.534
  626POPC   C1B12439  23.661  34.134   8.758
  626POPC   C2B12440  23.673  34.212   8.314
  626POPC   C3B12441  23.412  34.314   7.984
  626POPC   C4B12442  23.489  34.424   7.562
  627POPC   NC312443  18.595  37.304   9.544
  627POPC   PO412444  18.267  37.924   9.605
  627POPC   GL112445  18.153  37.720   9.236
  627POPC   GL212446  18.502  37.740   9.176
  627POPC   C1A12447  18.200  37.705   8.766
  627POPC   D2A12448  18.445  37.780   8.380
  627POPC   C3A12449  18.225  37.872   7.976
  627POPC   C4A12450  18.134  37.643   7.595
  627POPC   C1B12451  18.635  38.028   8.813
  627POPC   C2B12452  18.736  38.194   8.381
  627POPC   C3B12453  18.710  38.102   7.926
  627POPC   C4B12454  18.514  37.966   7.539
  628POPC   NC312455  17.668  28.379   9.757
  628POPC   PO412456  17.212  28.053   9.680
  628POPC   GL112457  17.508  28.307   9.290
  628POPC   GL212458  17.765  28.616   9.317
  628POPC   C1A12459  17.572  28.286   8.805
  628POPC   D2A12460  17.238  28.278   8.436
  628POPC   C3A12461  17.327  28.175   7.993
  628POPC   C4A12462  17.723  28.125   7.755
  628POPC   C1B12463  17.870  28.697   8.889
  628POPC   C2B12464  17.939  28.512   8.498
  628POPC   C3B12465  17.687  28.485   8.148
  628POPC   C4B12466  17.772  28.649   7.731
  629POPC   NC312467  26.358  38.226   9.432
  629POPC   PO412468  27.009  38.680   9.590
  629POPC   GL112469  26.854  38.685   9.164
  629POPC   GL212470  26.517  38.641   9.202
  629POPC   C1A12471  27.056  38.648   8.738
  629POPC   D2A12472  27.264  38.770   8.376
  629POPC   C3A12473  27.079  38.676   7.991
  629POPC   C4A12474  26.968  38.670   7.556
  629POPC   C1B12475  26.561  38.450   8.780
  629POPC   C2B12476  26.750  38.468   8.361
  629POPC   C3B12477  26.633  38.457   7.924
  629POPC   C4B12478  26.862  38.172   7.686
  630POPC   NC312479  16.517  16.118   9.705
  630POPC   PO412480  15.903  16.216   9.414
  630POPC   GL112481  15.713  16.119   9.071
  630POPC   GL212482  16.004  15.983   8.909
  630POPC   C1A12483  15.658  16.290   8.682
  630POPC   D2A12484  15.913  16.174   8.359
  630POPC   C3A12485  15.790  16.207   7.949
  630POPC   C4A12486  15.802  15.924   7.603
  630POPC   C1B12487  16.367  16.129   8.593
  630POPC   C2B12488  16.379  16.151   8.133
  630POPC   C3B12489  16.240  15.857   7.815
  630POPC   C4B12490  16.221  15.790   7.353
  631POPC   NC312491   2.859   3.682   9.408
  631POPC   PO412492   2.928   3.108   9.630
  631POPC   GL112493   2.906   3.265   9.134
  631POPC   GL212494   3.182   3.482   8.932
  631POPC   C1A12495   2.732   3.437   8.699
  631POPC   D2A12496   2.630   3.725   8.329
  631POPC   C3A12497   2.746   3.733   7.894
  631POPC   C4A12498   2.414   3.629   7.612
  631POPC   C1B12499   3.103   3.066   8.716
  631POPC   C2B12500   2.788   3.005   8.421
  631POPC   C3B12501   2.671   3.254   8.087
  631POPC   C4B12502   2.497   3.124   7.726
  632POPC   NC312503  27.487  28.625   9.702
  632POPC   PO412504  27.736  28.062   9.481
  632POPC   GL112505  27.490  28.218   9.113
  632POPC   GL212506  27.539  28.575   9.151
  632POPC   C1A12507  27.559  28.156   8.667
  632POPC   D2A12508  27.636  28.055   8.249
  632POPC   C3A12509  27.428  28.208   7.937
  632POPC   C4A12510  27.499  28.361   7.544
  632POPC   C1B12511  27.727  28.641   8.745
  632POPC   C2B12512  27.632  28.576   8.318
  632POPC   C3B12513  27.490  28.720   7.962
  632POPC   C4B12514  27.407  28.869   7.573
  633POPC   NC312515  11.502  22.710   9.445
  633POPC   PO412516  11.968  22.244   9.475
  633POPC   GL112517  11.758  22.245   9.067
  633POPC   GL212518  11.811  21.924   9.028
  633POPC   C1A12519  11.746  22.184   8.587
  633POPC   D2A12520  12.024  22.073   8.276
  633POPC   C3A12521  12.009  22.233   7.849
  633POPC   C4A12522  11.882  22.324   7.425
  633POPC   C1B12523  12.207  22.031   8.781
  633POPC   C2B12524  12.513  22.002   8.401
  633POPC   C3B12525  12.511  22.014   7.917
  633POPC   C4B12526  12.339  22.081   7.458
  634POPC   NC312527   4.280   8.426   9.529
  634POPC   PO412528   4.712   7.945   9.300
  634POPC   GL112529   4.516   8.165   9.045
  634POPC   GL212530   4.587   8.532   9.136
  634POPC   C1A12531   4.444   7.883   8.700
  634POPC   D2A12532   4.548   7.712   8.314
  634POPC   C3A12533   4.387   7.998   8.046
  634POPC   C4A12534   4.562   8.211   7.742
  634POPC   C1B12535   4.243   8.532   8.836
  634POPC   C2B12536   4.336   8.344   8.449
  634POPC   C3B12537   4.211   8.502   8.063
  634POPC   C4B12538   3.989   8.717   7.719
  635POPC   NC312539  37.304  12.710   9.428
  635POPC   PO412540  36.718  12.899   9.456
  635POPC   GL112541  36.717  12.865   9.052
  635POPC   GL212542  36.586  13.169   9.008
  635POPC   C1A12543  36.958  12.645   8.738
  635POPC   D2A12544  37.132  12.398   8.381
  635POPC   C3A12545  37.024  12.670   8.018
  635POPC   C4A12546  37.195  12.702   7.613
  635POPC   C1B12547  36.745  13.189   8.624
  635POPC   C2B12548  36.592  13.318   8.237
  635POPC   C3B12549  36.727  13.139   7.862
  635POPC   C4B12550  36.726  13.152   7.401
  636POPC   NC312551  37.251   5.506   9.349
  636POPC   PO412552  37.826   5.526   9.527
  636POPC   GL112553  37.720   5.597   9.117
  636POPC   GL212554  38.062   5.611   9.093
  636POPC   C1A12555  37.447   5.765   8.757
  636POPC   D2A12556  37.231   6.117   8.512
  636POPC   C3A12557  37.279   6.193   8.052
  636POPC   C4A12558  37.576   6.271   7.717
  636POPC   C1B12559  37.964   5.871   8.759
  636POPC   C2B12560  37.814   5.701   8.394
  636POPC   C3B12561  37.740   5.941   8.068
  636POPC   C4B12562  38.010   5.990   7.733
  637POPC   NC312563  37.806  33.485   9.336
  637POPC   PO412564  37.657  34.022   9.671
  637POPC   GL112565  37.726  33.959   9.187
  637POPC   GL212566  37.467  33.737   9.044
  637POPC   C1A12567  37.953  33.818   8.755
  637POPC   D2A12568  38.176  33.764   8.321
  637POPC   C3A12569  37.908  33.932   7.986
  637POPC   C4A12570  37.819  33.760   7.571
  637POPC   C1B12571  37.479  33.983   8.674
  637POPC   C2B12572  37.499  33.846   8.262
  637POPC   C3B12573  37.368  33.759   7.840
  637POPC   C4B12574  37.401  34.057   7.508
  638POPC   NC312575  22.317  38.773   9.719
  638POPC   PO412576  21.789  38.325   9.476
  638POPC   GL112577  22.111  38.289   9.158
  638POPC   GL212578  22.348  38.549   9.241
  638POPC   C1A12579  22.348  38.329   8.772
  638POPC   D2A12580  22.442  38.519   8.397
  638POPC   C3A12581  22.469  38.274   8.014
  638POPC   C4A12582  22.110  38.134   7.812
  638POPC   C1B12583  22.088  38.758   8.925
  638POPC   C2B12584  21.919  38.607   8.558
  638POPC   C3B12585  21.973  38.523   8.141
  638POPC   C4B12586  22.111  38.674   7.769
  639POPC   NC312587  19.716   6.224   9.752
  639POPC   PO412588  19.703   6.785   9.308
  639POPC   GL112589  20.003   6.788   8.940
  639POPC   GL212590  20.182   6.506   9.050
  639POPC   C1A12591  19.938   6.884   8.521
  639POPC   D2A12592  19.619   6.647   8.398
  639POPC   C3A12593  19.524   6.610   7.982
  639POPC   C4A12594  19.631   6.587   7.562
  639POPC   C1B12595  20.050   6.395   8.607
  639POPC   C2B12596  20.127   6.531   8.172
  639POPC   C3B12597  20.049   6.784   7.795
  639POPC   C4B12598  20.056   6.745   7.331
  640POPC   NC312599  11.199  29.333   9.512
  640POPC   PO412600  11.580  28.822   9.418
  640POPC   GL112601  11.378  29.059   9.129
  640POPC   GL212602  11.022  29.166   9.059
  640POPC   C1A12603  11.545  29.175   8.777
  640POPC   D2A12604  11.430  29.086   8.404
  640POPC   C3A12605  11.623  29.246   8.076
  640POPC   C4A12606  11.471  29.287   7.672
  640POPC   C1B12607  11.105  29.414   8.675
  640POPC   C2B12608  11.176  29.496   8.221
  640POPC   C3B12609  10.967  29.455   7.797
  640POPC   C4B12610  10.810  29.526   7.332
  641POPC   NC312611   0.318  30.300   9.430
  641POPC   PO412612   0.496  30.969   9.657
  641POPC   GL112613   0.541  30.986   9.221
  641POPC   GL212614   0.293  30.736   9.102
  641POPC   C1A12615   0.736  30.827   8.855
  641POPC   D2A12616   0.614  30.796   8.432
  641POPC   C3A12617   0.300  30.510   8.323
  641POPC   C4A12618   0.322  30.394   7.905
  641POPC   C1B12619   0.247  31.038   8.769
  641POPC   C2B12620   0.114  31.002   8.350
  641POPC   C3B12621   0.353  30.910   7.988
  641POPC   C4B12622   0.233  30.844   7.573
  642POPC   NC312623  21.222  37.344   9.201
  642POPC   PO412624  21.308  36.680   9.239
  642POPC   GL112625  21.538  36.756   8.914
  642POPC   GL212626  21.713  36.999   9.120
  642POPC   C1A12627  21.263  36.781   8.539
  642POPC   D2A12628  21.101  37.103   8.243
  642POPC   C3A12629  21.306  36.974   7.887
  642POPC   C4A12630  21.638  36.694   7.839
  642POPC   C1B12631  21.733  37.256   8.729
  642POPC   C2B12632  21.930  37.190   8.297
  642POPC   C3B12633  21.778  37.226   7.854
  642POPC   C4B12634  21.618  37.469   7.505
  643POPC   NC312635   1.601  32.375   9.473
  643POPC   PO412636   1.974  31.889   9.568
  643POPC   GL112637   1.918  32.053   9.111
  643POPC   GL212638   1.726  32.340   8.988
  643POPC   C1A12639   2.122  32.138   8.682
  643POPC   D2A12640   2.297  32.405   8.341
  643POPC   C3A12641   2.123  32.237   7.966
  643POPC   C4A12642   2.210  31.786   7.884
  643POPC   C1B12643   1.590  32.135   8.641
  643POPC   C2B12644   1.731  32.055   8.252
  643POPC   C3B12645   1.533  32.038   7.855
  643POPC   C4B12646   1.677  32.203   7.481
  644POPC   NC312647  21.092  41.982   9.799
  644POPC   PO412648  21.390  42.550   9.598
  644POPC   GL112649  21.360  42.452   9.189
  644POPC   GL212650  21.643  42.245   9.218
  644POPC   C1A12651  21.196  42.476   8.770
  644POPC   D2A12652  21.006  42.171   8.474
  644POPC   C3A12653  21.042  42.315   8.082
  644POPC   C4A12654  21.213  42.120   7.729
  644POPC   C1B12655  21.683  42.287   8.792
  644POPC   C2B12656  21.505  42.250   8.412
  644POPC   C3B12657  21.555  42.426   8.042
  644POPC   C4B12658  21.932  42.536   7.835
  645POPC   NC312659  18.952  16.333   9.454
  645POPC   PO412660  19.189  15.689   9.454
  645POPC   GL112661  19.185  16.012   9.113
  645POPC   GL212662  18.820  16.060   9.030
  645POPC   C1A12663  19.159  16.055   8.651
  645POPC   D2A12664  19.309  15.925   8.271
  645POPC   C3A12665  19.454  15.989   7.852
  645POPC   C4A12666  19.240  15.816   7.473
  645POPC   C1B12667  18.642  15.907   8.640
  645POPC   C2B12668  18.690  15.869   8.164
  645POPC   C3B12669  18.957  16.040   7.894
  645POPC   C4B12670  19.040  16.292   7.563
  646POPC   NC312671  36.545   8.180   9.531
  646POPC   PO412672  37.123   7.788   9.527
  646POPC   GL112673  36.871   7.904   9.236
  646POPC   GL212674  36.948   8.260   9.228
  646POPC   C1A12675  36.854   7.945   8.820
  646POPC   D2A12676  36.599   7.954   8.442
  646POPC   C3A12677  36.586   8.211   8.107
  646POPC   C4A12678  36.575   7.989   7.761
  646POPC   C1B12679  37.142   8.387   8.852
  646POPC   C2B12680  37.006   8.290   8.446
  646POPC   C3B12681  37.091   8.129   8.044
  646POPC   C4B12682  36.945   8.385   7.739
  647POPC   NC312683  20.706  25.427   9.793
  647POPC   PO412684  20.816  24.846   9.559
  647POPC   GL112685  20.560  25.088   9.243
  647POPC   GL212686  20.669  25.404   9.157
  647POPC   C1A12687  20.522  25.125   8.763
  647POPC   D2A12688  20.400  24.937   8.377
  647POPC   C3A12689  20.512  25.141   7.969
  647POPC   C4A12690  20.593  25.173   7.489
  647POPC   C1B12691  20.899  25.492   8.777
  647POPC   C2B12692  20.818  25.385   8.348
  647POPC   C3B12693  20.927  25.599   7.967
  647POPC   C4B12694  20.987  25.511   7.483
  648POPC   NC312695  19.689  30.221   9.481
  648POPC   PO412696  19.897  29.558   9.471
  648POPC   GL112697  19.777  29.767   9.112
  648POPC   GL212698  19.923  30.080   9.069
  648POPC   C1A12699  19.853  29.681   8.691
  648POPC   D2A12700  20.035  29.467   8.356
  648POPC   C3A12701  19.964  29.718   8.052
  648POPC   C4A12702  19.795  29.771   7.687
  648POPC   C1B12703  19.701  30.166   8.719
  648POPC   C2B12704  19.630  30.062   8.326
  648POPC   C3B12705  19.818  30.219   8.004
  648POPC   C4B12706  19.693  30.265   7.602
  649POPC   NC312707   1.534   6.129   9.408
  649POPC   PO412708   1.570   5.501   9.273
  649POPC   GL112709   1.911   5.757   9.099
  649POPC   GL212710   2.056   6.013   9.211
  649POPC   C1A12711   2.125   5.814   8.718
  649POPC   D2A12712   1.902   5.865   8.335
  649POPC   C3A12713   2.091   5.906   7.937
  649POPC   C4A12714   2.221   5.661   7.566
  649POPC   C1B12715   1.881   6.249   8.831
  649POPC   C2B12716   1.940   6.368   8.410
  649POPC   C3B12717   1.724   6.246   8.035
  649POPC   C4B12718   1.644   5.994   7.688
  650POPC   NC312719  22.031  26.837   9.546
  650POPC   PO412720  22.677  27.121   9.679
  650POPC   GL112721  22.513  26.867   9.307
  650POPC   GL212722  22.228  27.013   9.092
  650POPC   C1A12723  22.500  26.613   8.899
  650POPC   D2A12724  22.450  26.403   8.464
  650POPC   C3A12725  22.234  26.584   8.091
  650POPC   C4A12726  21.940  26.515   7.734
  650POPC   C1B12727  21.947  26.989   8.695
  650POPC   C2B12728  21.905  26.942   8.216
  650POPC   C3B12729  22.096  26.995   7.782
  650POPC   C4B12730  22.012  27.119   7.328
  651POPC   NC312731  20.224  44.258   9.436
  651POPC   PO412732  20.661  44.721   9.543
  651POPC   GL112733  20.508  44.580   9.166
  651POPC   GL212734  20.303  44.877   9.112
  651POPC   C1A12735  20.450  44.555   8.721
  651POPC   D2A12736  20.657  44.416   8.340
  651POPC   C3A12737  20.465  44.467   7.920
  651POPC   C4A12738  20.396  44.480   7.437
  651POPC   C1B12739  20.711  44.973   8.927
  651POPC   C2B12740  20.707  44.950   8.497
  651POPC   C3B12741  20.480  44.981   8.106
  651POPC   C4B12742  20.524  44.989   7.651
  652POPC   NC312743   2.705   9.310   9.203
  652POPC   PO412744   3.017   8.682   9.374
  652POPC   GL112745   3.016   8.907   9.026
  652POPC   GL212746   2.669   8.826   8.984
  652POPC   C1A12747   3.007   9.065   8.603
  652POPC   D2A12748   2.780   8.848   8.271
  652POPC   C3A12749   2.646   9.081   7.858
  652POPC   C4A12750   2.623   9.176   7.384
  652POPC   C1B12751   2.568   8.487   8.710
  652POPC   C2B12752   2.373   8.535   8.302
  652POPC   C3B12753   2.593   8.541   7.918
  652POPC   C4B12754   2.527   8.666   7.483
  653POPC   NC312755  18.394  28.162   9.443
  653POPC   PO412756  18.325  28.868   9.560
  653POPC   GL112757  18.274  28.575   9.163
  653POPC   GL212758  18.050  28.266   9.080
  653POPC   C1A12759  18.398  28.406   8.738
  653POPC   D2A12760  18.373  28.235   8.308
  653POPC   C3A12761  18.166  28.419   7.980
  653POPC   C4A12762  18.210  28.444   7.528
  653POPC   C1B12763  18.043  28.022   8.696
  653POPC   C2B12764  17.904  28.017   8.257
  653POPC   C3B12765  18.183  27.913   7.910
  653POPC   C4B12766  18.126  27.935   7.460
  654POPC   NC312767   1.140  24.480   9.548
  654POPC   PO412768   1.636  24.274   9.237
  654POPC   GL112769   1.429  24.645   9.153
  654POPC   GL212770   1.133  24.886   9.224
  654POPC   C1A12771   1.440  24.821   8.770
  654POPC   D2A12772   1.468  24.473   8.467
  654POPC   C3A12773   1.103  24.267   8.306
  654POPC   C4A12774   1.051  24.276   7.869
  654POPC   C1B12775   1.020  24.577   8.887
  654POPC   C2B12776   0.976  24.733   8.490
  654POPC   C3B12777   0.805  24.637   8.123
  654POPC   C4B12778   0.893  24.756   7.714
  655POPC   NC312779  36.182  14.845   9.314
  655POPC   PO412780  35.738  14.272   9.420
  655POPC   GL112781  36.065  14.365   9.159
  655POPC   GL212782  36.387  14.153   9.143
  655POPC   C1A12783  35.988  14.492   8.757
  655POPC   D2A12784  36.067  14.224   8.407
  655POPC   C3A12785  35.925  14.360   8.013
  655POPC   C4A12786  36.152  14.384   7.688
  655POPC   C1B12787  36.477  14.473   8.855
  655POPC   C2B12788  36.505  14.513   8.443
  655POPC   C3B12789  36.473  14.295   8.063
  655POPC   C4B12790  36.653  14.439   7.673
  656POPC   NC312791  30.307  23.296   9.295
  656POPC   PO412792  30.783  23.821   9.545
  656POPC   GL112793  30.777  23.723   9.137
  656POPC   GL212794  30.672  23.427   8.968
  656POPC   C1A12795  30.910  23.789   8.732
  656POPC   D2A12796  30.716  23.625   8.383
  656POPC   C3A12797  30.903  23.778   8.039
  656POPC   C4A12798  30.811  23.888   7.638
  656POPC   C1B12799  30.998  23.271   8.655
  656POPC   C2B12800  31.054  23.304   8.182
  656POPC   C3B12801  30.853  23.209   7.800
  656POPC   C4B12802  30.407  23.295   7.786
  657POPC   NC312803  33.110  44.743   9.977
  657POPC   PO412804  32.997  44.198   9.616
  657POPC   GL112805  33.005  44.377   9.156
  657POPC   GL212806  33.005  44.727   9.204
  657POPC   C1A12807  33.188  44.544   8.737
  657POPC   D2A12808  33.023  44.362   8.351
  657POPC   C3A12809  33.157  44.542   7.970
  657POPC   C4A12810  33.338  44.357   7.629
  657POPC   C1B12811  32.831  44.876   8.796
  657POPC   C2B12812  32.978  44.877   8.349
  657POPC   C3B12813  33.030   0.063   7.928
  657POPC   C4B12814  32.904   0.055   7.470
  658POPC   NC312815   4.769   5.199   9.815
  658POPC   PO412816   4.148   5.000   9.571
  658POPC   GL112817   4.206   4.811   9.168
  658POPC   GL212818   4.336   5.078   8.987
  658POPC   C1A12819   4.173   4.612   8.773
  658POPC   D2A12820   4.315   4.891   8.452
  658POPC   C3A12821   4.328   4.756   8.045
  658POPC   C4A12822   4.122   4.836   7.653
  658POPC   C1B12823   4.666   5.188   8.664
  658POPC   C2B12824   4.678   5.190   8.214
  658POPC   C3B12825   4.381   5.233   7.865
  658POPC   C4B12826   4.506   5.098   7.465
  659POPC   NC312827  28.348  33.410   9.430
  659POPC   PO412828  28.346  32.844   9.642
  659POPC   GL112829  28.324  32.922   9.205
  659POPC   GL212830  28.639  32.736   9.190
  659POPC   C1A12831  28.350  33.184   8.804
  659POPC   D2A12832  28.098  33.341   8.431
  659POPC   C3A12833  28.199  33.182   8.005
  659POPC   C4A12834  28.040  33.271   7.578
  659POPC   C1B12835  28.481  32.675   8.762
  659POPC   C2B12836  28.435  32.873   8.376
  659POPC   C3B12837  28.402  32.698   7.973
  659POPC   C4B12838  28.615  32.759   7.593
  660POPC   NC312839  22.547  29.242   9.411
  660POPC   PO412840  21.901  29.077   9.491
  660POPC   GL112841  22.065  29.280   9.168
  660POPC   GL212842  22.276  29.047   9.032
  660POPC   C1A12843  21.917  29.314   8.778
  660POPC   D2A12844  22.120  29.104   8.444
  660POPC   C3A12845  22.106  29.299   8.061
  660POPC   C4A12846  21.918  29.174   7.703
  660POPC   C1B12847  22.426  29.355   8.763
  660POPC   C2B12848  22.604  29.272   8.400
  660POPC   C3B12849  22.614  29.419   8.022
  660POPC   C4B12850  22.605  29.524   7.602
  661POPC   NC312851   0.069  38.229   9.636
  661POPC   PO412852   0.528  38.686   9.551
  661POPC   GL112853   0.551  38.529   9.157
  661POPC   GL212854   0.325  38.271   9.192
  661POPC   C1A12855   0.597  38.294   8.762
  661POPC   D2A12856   0.403  38.461   8.379
  661POPC   C3A12857   0.571  38.396   7.960
  661POPC   C4A12858   0.786  38.666   7.688
  661POPC   C1B12859   0.090  38.290   8.793
  661POPC   C2B12860   0.060  38.101   8.361
  661POPC   C3B12861   0.084  38.260   7.911
  661POPC   C4B12862   0.117  38.264   7.441
  662POPC   NC312863  10.402  26.734   9.630
  662POPC   PO412864  11.030  26.564   9.513
  662POPC   GL112865  10.738  26.853   9.234
  662POPC   GL212866  10.441  26.689   9.100
  662POPC   C1A12867  10.667  27.023   8.781
  662POPC   D2A12868  10.367  27.024   8.423
  662POPC   C3A12869  10.495  26.818   8.053
  662POPC   C4A12870  10.680  27.060   7.715
  662POPC   C1B12871  10.410  26.542   8.639
  662POPC   C2B12872  10.097  26.500   8.312
  662POPC   C3B12873   9.965  26.735   7.952
  662POPC   C4B12874  10.139  27.029   7.692
  663POPC   NC312875   6.110  10.870   9.431
  663POPC   PO412876   5.689  10.286   9.616
  663POPC   GL112877   5.868  10.378   9.206
  663POPC   GL212878   5.709  10.676   9.177
  663POPC   C1A12879   6.058  10.340   8.769
  663POPC   D2A12880   5.848  10.152   8.390
  663POPC   C3A12881   5.932  10.323   7.986
  663POPC   C4A12882   6.133  10.285   7.590
  663POPC   C1B12883   5.817  10.788   8.791
  663POPC   C2B12884   5.813  10.695   8.381
  663POPC   C3B12885   5.663  10.785   7.993
  663POPC   C4B12886   5.697  10.606   7.610
  664POPC   NC312887   1.910  27.616   9.483
  664POPC   PO412888   2.448  27.985   9.301
  664POPC   GL112889   2.016  27.901   9.057
  664POPC   GL212890   1.755  27.614   9.021
  664POPC   C1A12891   1.916  27.801   8.591
  664POPC   D2A12892   1.805  27.654   8.179
  664POPC   C3A12893   2.147  27.687   7.932
  664POPC   C4A12894   2.320  28.102   7.830
  664POPC   C1B12895   1.870  27.314   8.785
  664POPC   C2B12896   1.921  27.208   8.376
  664POPC   C3B12897   1.907  27.176   7.962
  664POPC   C4B12898   1.895  27.384   7.609
  665POPC   NC312899  35.114   6.207   9.566
  665POPC   PO412900  35.351   5.720   9.427
  665POPC   GL112901  35.442   6.051   9.151
  665POPC   GL212902  35.742   5.964   9.045
  665POPC   C1A12903  35.430   6.193   8.700
  665POPC   D2A12904  35.367   6.310   8.265
  665POPC   C3A12905  35.153   5.986   7.996
  665POPC   C4A12906  34.794   5.867   7.704
  665POPC   C1B12907  35.636   5.740   8.684
  665POPC   C2B12908  35.742   5.951   8.296
  665POPC   C3B12909  35.672   6.016   7.868
  665POPC   C4B12910  35.667   5.726   7.537
  666POPC   NC312911  35.037  39.429   9.851
  666POPC   PO412912  35.551  39.701   9.516
  666POPC   GL112913  35.551  39.343   9.201
  666POPC   GL212914  35.242  39.155   9.140
  666POPC   C1A12915  35.618  39.168   8.766
  666POPC   D2A12916  35.460  39.296   8.348
  666POPC   C3A12917  35.693  39.326   7.975
  666POPC   C4A12918  35.542  39.353   7.550
  666POPC   C1B12919  35.063  39.170   8.722
  666POPC   C2B12920  34.951  39.266   8.289
  666POPC   C3B12921  35.166  39.236   7.891
  666POPC   C4B12922  35.000  39.111   7.500
  667POPC   NC312923  23.611   4.839   9.614
  667POPC   PO412924  23.969   5.304   9.376
  667POPC   GL112925  23.715   5.028   9.129
  667POPC   GL212926  23.374   4.871   9.165
  667POPC   C1A12927  23.782   5.040   8.715
  667POPC   D2A12928  23.650   5.307   8.418
  667POPC   C3A12929  23.618   5.166   8.006
  667POPC   C4A12930  23.783   4.807   7.802
  667POPC   C1B12931  23.237   4.865   8.751
  667POPC   C2B12932  23.273   4.953   8.323
  667POPC   C3B12933  23.252   4.801   7.890
  667POPC   C4B12934  23.374   4.843   7.458
  668POPC   NC312935  26.164  29.151   9.833
  668POPC   PO412936  25.730  28.882   9.426
  668POPC   GL112937  25.945  29.154   9.155
  668POPC   GL212938  26.225  29.113   8.983
  668POPC   C1A12939  25.777  29.191   8.766
  668POPC   D2A12940  26.075  29.208   8.455
  668POPC   C3A12941  26.064  28.951   8.118
  668POPC   C4A12942  26.111  29.105   7.705
  668POPC   C1B12943  26.386  28.850   8.689
  668POPC   C2B12944  26.552  28.896   8.278
  668POPC   C3B12945  26.467  28.752   7.842
  668POPC   C4B12946  26.425  28.917   7.371
  669POPC   NC312947  18.038   6.461   9.536
  669POPC   PO412948  18.288   7.131   9.477
  669POPC   GL112949  18.350   6.732   9.214
  669POPC   GL212950  18.570   6.479   9.334
  669POPC   C1A12951  18.283   6.574   8.763
  669POPC   D2A12952  18.229   6.649   8.310
  669POPC   C3A12953  18.230   6.673   7.854
  669POPC   C4A12954  18.112   6.358   7.570
  669POPC   C1B12955  18.696   6.339   8.939
  669POPC   C2B12956  18.716   6.422   8.485
  669POPC   C3B12957  18.533   6.295   8.084
  669POPC   C4B12958  18.630   6.383   7.671
  670POPC   NC312959  18.096   5.645   9.695
  670POPC   PO412960  18.395   6.192   9.715
  670POPC   GL112961  18.215   6.008   9.315
  670POPC   GL212962  18.156   5.618   9.177
  670POPC   C1A12963  18.296   6.039   8.903
  670POPC   D2A12964  18.260   6.120   8.485
  670POPC   C3A12965  18.392   5.809   8.179
  670POPC   C4A12966  18.372   5.926   7.726
  670POPC   C1B12967  17.898   5.741   8.785
  670POPC   C2B12968  17.803   5.833   8.348
  670POPC   C3B12969  17.978   5.653   7.956
  670POPC   C4B12970  18.225   5.441   7.621
  671POPC   NC312971  36.998  27.623   9.697
  671POPC   PO412972  36.984  28.381   9.649
  671POPC   GL112973  36.937  28.413   9.189
  671POPC   GL212974  37.279  28.565   9.179
  671POPC   C1A12975  36.769  28.550   8.783
  671POPC   D2A12976  36.626  28.380   8.388
  671POPC   C3A12977  36.869  28.109   8.198
  671POPC   C4A12978  36.979  28.127   7.795
  671POPC   C1B12979  37.348  28.440   8.769
  671POPC   C2B12980  37.147  28.566   8.392
  671POPC   C3B12981  36.949  28.610   8.017
  671POPC   C4B12982  37.185  28.586   7.648
  672POPC   NC312983  37.723   3.355   9.498
  672POPC   PO412984  38.042   3.850   9.698
  672POPC   GL112985  37.983   3.674   9.191
  672POPC   GL212986  37.625   3.530   9.028
  672POPC   C1A12987  38.039   3.586   8.723
  672POPC   D2A12988  37.788   3.515   8.327
  672POPC   C3A12989  37.788   3.360   7.901
  672POPC   C4A12990  38.031   3.376   7.502
  672POPC   C1B12991  37.597   3.855   8.711
  672POPC   C2B12992  37.441   3.922   8.295
  672POPC   C3B12993  37.674   3.867   7.918
  672POPC   C4B12994  37.647   3.690   7.504
  673POPC   NC312995  20.301  33.398   9.316
  673POPC   PO412996  19.904  32.877   9.459
  673POPC   GL112997  19.874  33.154   9.138
  673POPC   GL212998  19.746  33.500   9.194
  673POPC   C1A12999  19.724  33.040   8.766
  673POPC   D2A13000  19.828  33.144   8.382
  673POPC   C3A13001  19.622  32.924   8.092
  673POPC   C4A13002  19.718  33.079   7.690
  673POPC   C1B13003  19.911  33.526   8.761
  673POPC   C2B13004  19.856  33.647   8.343
  673POPC   C3B13005  19.881  33.461   7.960
  673POPC   C4B13006  19.725  33.572   7.549
  674POPC   NC313007   6.247   5.590   9.699
  674POPC   PO413008   6.863   5.822   9.581
  674POPC   GL113009   6.870   5.846   9.149
  674POPC   GL213010   6.917   5.499   9.147
  674POPC   C1A13011   6.593   5.985   8.787
  674POPC   D2A13012   6.455   5.802   8.385
  674POPC   C3A13013   6.627   5.936   8.000
  674POPC   C4A13014   6.492   6.207   7.669
  674POPC   C1B13015   6.779   5.513   8.725
  674POPC   C2B13016   6.931   5.581   8.316
  674POPC   C3B13017   6.886   5.498   7.887
  674POPC   C4B13018   6.658   5.399   7.514
  675POPC   NC313019  36.869  23.168   9.421
  675POPC   PO413020  37.261  22.579   9.455
  675POPC   GL113021  36.985  22.638   9.093
  675POPC   GL213022  36.730  22.868   9.050
  675POPC   C1A13023  36.970  22.718   8.643
  675POPC   D2A13024  36.891  22.862   8.246
  675POPC   C3A13025  36.931  22.588   7.935
  675POPC   C4A13026  36.583  22.773   7.742
  675POPC   C1B13027  36.795  23.190   8.721
  675POPC   C2B13028  36.593  23.274   8.339
  675POPC   C3B13029  36.316  23.162   8.012
  675POPC   C4B13030  36.439  23.257   7.601
  676POPC   NC313031  29.503   5.674   9.475
  676POPC   PO413032  29.971   5.976   9.625
  676POPC   GL113033  30.013   5.943   9.184
  676POPC   GL213034  29.954   5.622   9.032
  676POPC   C1A13035  29.951   6.062   8.753
  676POPC   D2A13036  29.759   5.810   8.437
  676POPC   C3A13037  29.776   5.881   7.998
  676POPC   C4A13038  29.940   6.218   7.749
  676POPC   C1B13039  30.224   5.662   8.637
  676POPC   C2B13040  30.233   5.929   8.246
  676POPC   C3B13041  30.242   5.819   7.778
  676POPC   C4B13042  30.099   5.518   7.452
  677POPC   NC313043  15.141  27.079   9.580
  677POPC   PO413044  14.938  26.490   9.317
  677POPC   GL113045  15.166  26.669   9.009
  677POPC   GL213046  15.314  26.984   9.111
  677POPC   C1A13047  15.040  26.822   8.616
  677POPC   D2A13048  14.908  27.131   8.334
  677POPC   C3A13049  15.005  26.923   7.950
  677POPC   C4A13050  15.222  26.559   7.781
  677POPC   C1B13051  15.537  26.928   8.710
  677POPC   C2B13052  15.427  27.018   8.285
  677POPC   C3B13053  15.519  26.947   7.837
  677POPC   C4B13054  15.677  27.122   7.447
  678POPC   NC313055  35.086  11.461   9.731
  678POPC   PO413056  35.563  11.018   9.585
  678POPC   GL113057  35.290  11.160   9.220
  678POPC   GL213058  35.059  11.457   9.227
  678POPC   C1A13059  35.458  11.191   8.790
  678POPC   D2A13060  35.618  11.370   8.413
  678POPC   C3A13061  35.493  11.312   7.998
  678POPC   C4A13062  35.644  11.237   7.599
  678POPC   C1B13063  34.969  11.315   8.819
  678POPC   C2B13064  35.108  11.337   8.418
  678POPC   C3B13065  34.966  11.264   8.038
  678POPC   C4B13066  35.135  11.167   7.641
  679POPC   NC313067  29.924  18.688   9.741
  679POPC   PO413068  29.780  17.986   9.549
  679POPC   GL113069  29.837  18.077   9.102
  679POPC   GL213070  29.679  18.392   8.957
  679POPC   C1A13071  30.017  18.146   8.684
  679POPC   D2A13072  29.752  18.017   8.376
  679POPC   C3A13073  29.788  18.162   7.993
  679POPC   C4A13074  30.108  18.356   7.821
  679POPC   C1B13075  29.906  18.662   8.699
  679POPC   C2B13076  30.065  18.528   8.332
  679POPC   C3B13077  29.797  18.672   8.056
  679POPC   C4B13078  29.632  18.572   7.674
  680POPC   NC313079  17.921  24.140   9.426
  680POPC   PO413080  18.411  24.558   9.450
  680POPC   GL113081  18.481  24.771   9.080
  680POPC   GL213082  18.258  24.561   8.947
  680POPC   C1A13083  18.621  24.752   8.646
  680POPC   D2A13084  18.419  24.629   8.270
  680POPC   C3A13085  18.485  24.712   7.857
  680POPC   C4A13086  18.259  24.469   7.524
  680POPC   C1B13087  18.427  24.272   8.633
  680POPC   C2B13088  18.246  24.135   8.221
  680POPC   C3B13089  17.955  24.204   7.841
  680POPC   C4B13090  17.881  24.138   7.378
  681POPC   NC313091  30.422  12.081   9.627
  681POPC   PO413092  29.792  11.695   9.663
  681POPC   GL113093  29.850  12.162   9.449
  681POPC   GL213094  30.121  12.263   9.270
  681POPC   C1A13095  29.737  12.274   8.952
  681POPC   D2A13096  29.603  12.236   8.494
  681POPC   C3A13097  29.709  12.237   8.049
  681POPC   C4A13098  29.613  12.058   7.611
  681POPC   C1B13099  30.207  12.128   8.936
  681POPC   C2B13100  30.113  12.194   8.524
  681POPC   C3B13101  30.193  12.086   8.114
  681POPC   C4B13102  30.121  12.162   7.702
  682POPC   NC313103  24.808   1.649   9.472
  682POPC   PO413104  24.201   2.039   9.517
  682POPC   GL113105  24.259   1.815   9.134
  682POPC   GL213106  24.617   1.878   9.075
  682POPC   C1A13107  24.320   1.898   8.672
  682POPC   D2A13108  24.325   2.227   8.411
  682POPC   C3A13109  24.405   2.061   8.035
  682POPC   C4A13110  24.804   2.105   7.866
  682POPC   C1B13111  24.734   1.606   8.732
  682POPC   C2B13112  24.749   1.801   8.313
  682POPC   C3B13113  24.692   1.630   7.890
  682POPC   C4B13114  24.535   1.577   7.469
  683POPC   NC313115   4.173   9.419   9.583
  683POPC   PO413116   4.556   8.860   9.608
  683POPC   GL113117   4.376   9.007   9.243
  683POPC   GL213118   4.525   9.307   9.220
  683POPC   C1A13119   4.533   8.957   8.819
  683POPC   D2A13120   4.346   8.881   8.428
  683POPC   C3A13121   4.610   8.948   8.086
  683POPC   C4A13122   4.485   8.749   7.740
  683POPC   C1B13123   4.394   9.439   8.865
  683POPC   C2B13124   4.484   9.451   8.457
  683POPC   C3B13125   4.236   9.299   8.145
  683POPC   C4B13126   4.215   9.176   7.748
  684POPC   NC313127  37.203  28.055   9.406
  684POPC   PO413128  37.758  28.512   9.477
  684POPC   GL113129  37.780  28.429   9.097
  684POPC   GL213130  37.603  28.152   9.133
  684POPC   C1A13131  37.971  28.486   8.725
  684POPC   D2A13132  37.732  28.434   8.403
  684POPC   C3A13133  37.890  28.481   8.028
  684POPC   C4A13134  37.680  28.690   7.700
  684POPC   C1B13135  37.373  27.926   8.780
  684POPC   C2B13136  37.367  28.084   8.369
  684POPC   C3B13137  37.418  28.290   7.997
  684POPC   C4B13138  37.445  28.051   7.619
  685POPC   NC313139   0.811  23.538   9.483
  685POPC   PO413140   0.205  23.847   9.502
  685POPC   GL113141   0.318  23.864   9.101
  685POPC   GL213142   0.441  23.498   9.149
  685POPC   C1A13143   0.240  23.939   8.647
  685POPC   D2A13144   0.578  23.958   8.315
  685POPC   C3A13145   0.498  23.770   7.948
  685POPC   C4A13146   0.262  23.948   7.620
  685POPC   C1B13147   0.420  23.228   8.776
  685POPC   C2B13148   0.406  23.414   8.366
  685POPC   C3B13149   0.400  23.247   7.972
  685POPC   C4B13150   0.209  23.442   7.634
  686POPC   NC313151  19.035  39.033   9.706
  686POPC   PO413152  18.591  39.543   9.576
  686POPC   GL113153  19.036  39.426   9.306
  686POPC   GL213154  19.159  39.056   9.228
  686POPC   C1A13155  19.184  39.348   8.837
  686POPC   D2A13156  19.370  39.461   8.447
  686POPC   C3A13157  19.117  39.253   8.075
  686POPC   C4A13158  18.786  39.159   7.765
  686POPC   C1B13159  19.171  38.801   8.864
  686POPC   C2B13160  19.272  38.948   8.466
  686POPC   C3B13161  19.385  38.804   8.078
  686POPC   C4B13162  19.124  38.784   7.718
  687POPC   NC313163  32.788  28.285   9.436
  687POPC   PO413164  32.689  27.566   9.439
  687POPC   GL113165  33.063  27.472   9.206
  687POPC   GL213166  33.154  27.781   9.061
  687POPC   C1A13167  33.247  27.379   8.790
  687POPC   D2A13168  33.020  27.345   8.421
  687POPC   C3A13169  33.192  27.445   8.048
  687POPC   C4A13170  32.891  27.607   7.827
  687POPC   C1B13171  32.972  27.820   8.668
  687POPC   C2B13172  32.967  27.916   8.254
  687POPC   C3B13173  32.930  28.097   7.873
  687POPC   C4B13174  33.255  27.901   7.627
  688POPC   NC313175  41.954  13.244   9.434
  688POPC   PO413176  42.622  13.012   9.595
  688POPC   GL113177  42.492  12.829   9.182
  688POPC   GL213178  42.153  12.879   9.140
  688POPC   C1A13179  42.386  12.633   8.769
  688POPC   D2A13180  42.202  12.707   8.376
  688POPC   C3A13181  42.427  12.633   7.981
  688POPC   C4A13182  42.605  12.955   7.738
  688POPC   C1B13183  42.044  13.077   8.763
  688POPC   C2B13184  42.129  13.212   8.361
  688POPC   C3B13185  42.134  13.040   7.994
  688POPC   C4B13186  41.937  13.153   7.688
  689POPC   NC313187  18.729  18.802   9.506
  689POPC   PO413188  18.553  19.341   9.775
  689POPC   GL113189  18.475  19.209   9.252
  689POPC   GL213190  18.565  18.869   9.046
  689POPC   C1A13191  18.661  19.333   8.805
  689POPC   D2A13192  18.543  19.453   8.376
  689POPC   C3A13193  18.597  19.289   7.961
  689POPC   C4A13194  18.218  19.211   7.731
  689POPC   C1B13195  18.411  18.917   8.643
  689POPC   C2B13196  18.564  18.852   8.258
  689POPC   C3B13197  18.505  18.785   7.817
  689POPC   C4B13198  18.479  18.748   7.383
  690POPC   NC313199  38.525  38.261   9.589
  690POPC   PO413200  38.281  38.844   9.338
  690POPC   GL113201  38.285  38.442   9.144
  690POPC   GL213202  38.621  38.309   9.102
  690POPC   C1A13203  38.290  38.238   8.730
  690POPC   D2A13204  38.344  38.432   8.327
  690POPC   C3A13205  38.475  38.311   7.899
  690POPC   C4A13206  38.197  38.251   7.564
  690POPC   C1B13207  38.600  38.633   8.759
  690POPC   C2B13208  38.816  38.629   8.350
  690POPC   C3B13209  38.705  38.832   7.964
  690POPC   C4B13210  38.714  38.680   7.554
  691POPC   NC313211   0.224  12.716   9.486
  691POPC   PO413212   0.717  13.134   9.610
  691POPC   GL113213   0.533  13.175   9.200
  691POPC   GL213214   0.187  13.237   9.212
  691POPC   C1A13215   0.446  12.979   8.795
  691POPC   D2A13216   0.512  12.719   8.420
  691POPC   C3A13217   0.515  12.876   7.981
  691POPC   C4A13218   0.568  12.621   7.600
  691POPC   C1B13219   0.029  13.262   8.784
  691POPC   C2B13220   0.194  13.150   8.356
  691POPC   C3B13221   0.104  13.189   7.919
  691POPC   C4B13222  44.834  13.148   7.588
  692POPC   NC313223   2.415  20.455   9.447
  692POPC   PO413224   2.986  20.578   9.587
  692POPC   GL113225   2.971  20.793   9.218
  692POPC   GL213226   2.832  20.493   9.052
  692POPC   C1A13227   2.881  20.930   8.818
  692POPC   D2A13228   2.786  20.612   8.500
  692POPC   C3A13229   2.897  20.711   8.100
  692POPC   C4A13230   3.210  20.900   7.875
  692POPC   C1B13231   2.516  20.270   8.784
  692POPC   C2B13232   2.567  20.128   8.354
  692POPC   C3B13233   2.722  20.210   7.939
  692POPC   C4B13234   2.564  20.555   7.720
  693POPC   NC313235  25.588  37.976   9.501
  693POPC   PO413236  26.284  37.784   9.604
  693POPC   GL113237  26.041  37.847   9.253
  693POPC   GL213238  26.215  37.581   9.111
  693POPC   C1A13239  25.947  37.874   8.810
  693POPC   D2A13240  26.124  37.828   8.401
  693POPC   C3A13241  25.810  38.046   8.181
  693POPC   C4A13242  25.730  38.065   7.753
  693POPC   C1B13243  26.210  37.431   8.717
  693POPC   C2B13244  26.125  37.281   8.300
  693POPC   C3B13245  26.164  37.477   7.877
  693POPC   C4B13246  26.353  37.417   7.429
  694POPC   NC313247   6.956  38.013   9.848
  694POPC   PO413248   6.480  37.592   9.741
  694POPC   GL113249   6.540  37.672   9.298
  694POPC   GL213250   6.831  37.924   9.268
  694POPC   C1A13251   6.413  37.609   8.867
  694POPC   D2A13252   6.366  37.877   8.493
  694POPC   C3A13253   6.437  37.721   8.059
  694POPC   C4A13254   6.479  37.552   7.645
  694POPC   C1B13255   6.819  37.924   8.797
  694POPC   C2B13256   6.813  37.639   8.422
  694POPC   C3B13257   6.925  37.606   7.966
  694POPC   C4B13258   6.885  37.858   7.559
  695POPC   NC313259  20.171  36.904   9.646
  695POPC   PO413260  19.415  36.616   9.630
  695POPC   GL113261  19.708  36.811   9.312
  695POPC   GL213262  19.869  37.142   9.297
  695POPC   C1A13263  19.626  36.954   8.889
  695POPC   D2A13264  19.819  36.925   8.494
  695POPC   C3A13265  19.689  36.938   8.077
  695POPC   C4A13266  19.869  37.009   7.629
  695POPC   C1B13267  20.072  37.217   8.865
  695POPC   C2B13268  20.251  37.178   8.452
  695POPC   C3B13269  20.098  37.265   8.024
  695POPC   C4B13270  20.298  37.306   7.653
  696POPC   NC313271   3.665  11.811   9.773
  696POPC   PO413272   3.312  12.221   9.418
  696POPC   GL113273   3.550  12.053   9.113
  696POPC   GL213274   3.765  11.826   9.225
  696POPC   C1A13275   3.456  11.907   8.689
  696POPC   D2A13276   3.217  12.163   8.398
  696POPC   C3A13277   3.332  12.098   8.012
  696POPC   C4A13278   3.367  11.902   7.627
  696POPC   C1B13279   3.938  12.032   8.789
  696POPC   C2B13280   3.853  11.905   8.320
  696POPC   C3B13281   3.832  12.083   7.871
  696POPC   C4B13282   3.801  12.086   7.382
  697POPC   NC313283  27.796  39.770   9.419
  697POPC   PO413284  27.405  40.316   9.388
  697POPC   GL113285  27.403  40.171   8.997
  697POPC   GL213286  27.426  39.825   9.073
  697POPC   C1A13287  27.630  40.201   8.603
  697POPC   D2A13288  27.934  39.992   8.350
  697POPC   C3A13289  27.825  39.890   7.908
  697POPC   C4A13290  27.525  40.109   7.664
  697POPC   C1B13291  27.456  39.651   8.709
  697POPC   C2B13292  27.511  39.690   8.297
  697POPC   C3B13293  27.325  39.682   7.931
  697POPC   C4B13294  27.359  39.622   7.498
  698POPC   NC313295  23.111  11.648   9.610
  698POPC   PO413296  22.551  11.400   9.538
  698POPC   GL113297  22.729  11.585   9.201
  698POPC   GL213298  23.034  11.418   9.140
  698POPC   C1A13299  22.606  11.481   8.789
  698POPC   D2A13300  22.557  11.315   8.393
  698POPC   C3A13301  22.597  11.516   8.024
  698POPC   C4A13302  22.882  11.310   7.755
  698POPC   C1B13303  23.017  11.123   8.786
  698POPC   C2B13304  22.980  10.983   8.356
  698POPC   C3B13305  23.252  11.142   8.075
  698POPC   C4B13306  23.475  10.992   7.753
  699POPC   NC313307   2.470  31.888   9.565
  699POPC   PO413308   2.812  32.434   9.546
  699POPC   GL113309   2.849  32.336   9.132
  699POPC   GL213310   2.743  32.007   9.139
  699POPC   C1A13311   2.643  32.349   8.721
  699POPC   D2A13312   2.792  32.218   8.312
  699POPC   C3A13313   2.630  32.315   7.894
  699POPC   C4A13314   2.497  32.496   7.473
  699POPC   C1B13315   2.560  31.817   8.788
  699POPC   C2B13316   2.468  31.854   8.364
  699POPC   C3B13317   2.720  31.787   8.022
  699POPC   C4B13318   2.708  31.898   7.620
  700POPC   NC313319  18.842  24.517   9.328
  700POPC   PO413320  19.371  25.000   9.362
  700POPC   GL113321  19.226  24.730   9.055
  700POPC   GL213322  19.254  24.380   9.068
  700POPC   C1A13323  19.132  24.746   8.635
  700POPC   D2A13324  19.351  24.479   8.330
  700POPC   C3A13325  19.196  24.470   7.894
  700POPC   C4A13326  19.374  24.735   7.524
  700POPC   C1B13327  18.995  24.249   8.732
  700POPC   C2B13328  18.859  24.402   8.351
  700POPC   C3B13329  18.700  24.249   8.007
  700POPC   C4B13330  18.705  24.250   7.613
  701POPC   NC313331  10.914  16.193   9.339
  701POPC   PO413332  10.406  15.841   9.480
  701POPC   GL113333  10.444  16.141   9.159
  701POPC   GL213334  10.131  16.281   9.204
  701POPC   C1A13335  10.674  16.211   8.750
  701POPC   D2A13336  10.745  16.338   8.342
  701POPC   C3A13337  10.756  15.967   8.123
  701POPC   C4A13338  10.737  15.869   7.715
  701POPC   C1B13339  10.152  16.120   8.739
  701POPC   C2B13340  10.032  16.083   8.295
  701POPC   C3B13341  10.272  16.022   7.878
  701POPC   C4B13342  10.298  16.152   7.395
  702POPC   NC313343  33.244  43.109   9.590
  702POPC   PO413344  32.661  43.503   9.471
  702POPC   GL113345  32.906  43.277   9.114
  702POPC   GL213346  33.043  42.922   9.157
  702POPC   C1A13347  33.104  43.277   8.713
  702POPC   D2A13348  33.059  43.433   8.271
  702POPC   C3A13349  32.760  43.425   7.951
  702POPC   C4A13350  33.081  43.490   7.674
  702POPC   C1B13351  33.183  42.746   8.767
  702POPC   C2B13352  33.089  42.912   8.350
  702POPC   C3B13353  33.088  43.029   7.932
  702POPC   C4B13354  32.853  42.813   7.640
  703POPC   NC313355  14.224  33.475   9.820
  703POPC   PO413356  14.732  33.735   9.637
  703POPC   GL113357  14.660  33.633   9.186
  703POPC   GL213358  14.723  33.947   9.018
  703POPC   C1A13359  14.364  33.675   8.792
  703POPC   D2A13360  14.155  33.680   8.371
  703POPC   C3A13361  14.296  33.750   7.918
  703POPC   C4A13362  14.140  33.590   7.510
  703POPC   C1B13363  14.856  33.601   8.692
  703POPC   C2B13364  14.681  33.654   8.247
  703POPC   C3B13365  14.860  33.779   7.810
  703POPC   C4B13366  14.764  33.920   7.355
  704POPC   NC313367  21.224  22.841   9.533
  704POPC   PO413368  21.419  23.461   9.677
  704POPC   GL113369  21.350  23.231   9.189
  704POPC   GL213370  21.125  22.959   9.045
  704POPC   C1A13371  21.446  23.069   8.692
  704POPC   D2A13372  21.235  22.970   8.264
  704POPC   C3A13373  21.451  22.836   7.883
  704POPC   C4A13374  21.677  22.725   7.505
  704POPC   C1B13375  20.957  23.203   8.668
  704POPC   C2B13376  21.098  23.463   8.291
  704POPC   C3B13377  21.273  23.344   7.883
  704POPC   C4B13378  21.429  23.172   7.487
  705POPC   NC313379  24.065  44.914   9.254
  705POPC   PO413380  24.435  44.375   9.540
  705POPC   GL113381  24.494  44.574   9.143
  705POPC   GL213382  24.813  44.715   9.079
  705POPC   C1A13383  24.367  44.670   8.732
  705POPC   D2A13384  24.165  44.454   8.406
  705POPC   C3A13385  24.113  44.732   8.062
  705POPC   C4A13386  24.222  44.715   7.627
  705POPC   C1B13387  24.823  44.432   8.731
  705POPC   C2B13388  24.667  44.614   8.321
  705POPC   C3B13389  24.655  44.769   7.908
  705POPC   C4B13390  24.839   0.187   7.813
  706POPC   NC313391  25.070  43.434   9.486
  706POPC   PO413392  25.416  42.871   9.545
  706POPC   GL113393  25.261  42.836   9.163
  706POPC   GL213394  25.267  43.192   9.078
  706POPC   C1A13395  25.153  42.812   8.746
  706POPC   D2A13396  25.315  42.951   8.399
  706POPC   C3A13397  25.149  42.932   8.019
  706POPC   C4A13398  25.328  43.146   7.704
  706POPC   C1B13399  24.877  43.242   8.862
  706POPC   C2B13400  24.872  43.235   8.426
  706POPC   C3B13401  25.010  43.422   8.032
  706POPC   C4B13402  24.964  43.484   7.608
  707POPC   NC313403  15.295   9.571   9.465
  707POPC   PO413404  14.701   9.770   9.518
  707POPC   GL113405  15.008   9.916   9.201
  707POPC   GL213406  15.224   9.659   8.989
  707POPC   C1A13407  15.049  10.076   8.784
  707POPC   D2A13408  15.338   9.885   8.489
  707POPC   C3A13409  15.102   9.923   8.110
  707POPC   C4A13410  15.136  10.007   7.667
  707POPC   C1B13411  15.604   9.497   8.843
  707POPC   C2B13412  15.507   9.303   8.478
  707POPC   C3B13413  15.397   9.516   8.118
  707POPC   C4B13414  15.481   9.512   7.697
  708POPC   NC313415  35.420  13.935   9.304
  708POPC   PO413416  35.166  13.403   9.584
  708POPC   GL113417  35.130  13.512   9.156
  708POPC   GL213418  35.492  13.459   9.106
  708POPC   C1A13419  35.139  13.666   8.714
  708POPC   D2A13420  35.379  13.916   8.411
  708POPC   C3A13421  35.386  13.772   7.989
  708POPC   C4A13422  35.233  13.456   7.683
  708POPC   C1B13423  35.663  13.464   8.692
  708POPC   C2B13424  35.728  13.275   8.279
  708POPC   C3B13425  35.787  13.448   7.855
  708POPC   C4B13426  35.709  13.812   7.597
  709POPC   NC313427  29.554  23.933   9.463
  709POPC   PO413428  29.097  23.407   9.558
  709POPC   GL113429  29.385  23.551   9.163
  709POPC   GL213430  29.391  23.921   8.991
  709POPC   C1A13431  29.375  23.530   8.690
  709POPC   D2A13432  29.070  23.671   8.388
  709POPC   C3A13433  29.171  23.532   7.981
  709POPC   C4A13434  28.906  23.342   7.689
  709POPC   C1B13435  29.443  24.189   8.630
  709POPC   C2B13436  29.457  23.969   8.233
  709POPC   C3B13437  29.481  23.903   7.807
  709POPC   C4B13438  29.496  23.955   7.388
  710POPC   NC313439  35.794   5.838   9.523
  710POPC   PO413440  36.318   6.339   9.334
  710POPC   GL113441  36.239   6.053   9.077
  710POPC   GL213442  36.309   5.726   9.238
  710POPC   C1A13443  36.085   6.073   8.660
  710POPC   D2A13444  36.294   5.961   8.284
  710POPC   C3A13445  36.167   6.171   7.928
  710POPC   C4A13446  36.096   5.960   7.554
  710POPC   C1B13447  36.078   5.608   8.880
  710POPC   C2B13448  36.031   5.504   8.433
  710POPC   C3B13449  36.028   5.625   7.988
  710POPC   C4B13450  36.128   5.452   7.596
  711POPC   NC313451   5.862  31.238   9.418
  711POPC   PO413452   6.146  31.821   9.303
  711POPC   GL113453   5.838  31.621   9.044
  711POPC   GL213454   5.643  31.893   9.002
  711POPC   C1A13455   5.668  31.313   8.745
  711POPC   D2A13456   5.735  31.007   8.392
  711POPC   C3A13457   5.844  31.243   8.019
  711POPC   C4A13458   5.615  31.473   7.666
  711POPC   C1B13459   5.696  31.872   8.573
  711POPC   C2B13460   5.684  31.707   8.155
  711POPC   C3B13461   6.027  31.703   7.847
  711POPC   C4B13462   5.988  31.761   7.387
  712POPC   NC313463   8.605  37.041   9.510
  712POPC   PO413464   8.009  37.195   9.845
  712POPC   GL113465   8.126  37.073   9.314
  712POPC   GL213466   8.343  36.811   9.154
  712POPC   C1A13467   8.020  37.007   8.829
  712POPC   D2A13468   8.174  36.998   8.379
  712POPC   C3A13469   7.956  36.811   8.012
  712POPC   C4A13470   8.055  36.940   7.603
  712POPC   C1B13471   8.523  36.879   8.740
  712POPC   C2B13472   8.691  37.152   8.387
  712POPC   C3B13473   8.607  37.103   7.959
  712POPC   C4B13474   8.464  36.733   7.827
  713POPC   NC313475  35.082   7.757   9.475
  713POPC   PO413476  35.583   7.276   9.594
  713POPC   GL113477  35.349   7.376   9.213
  713POPC   GL213478  35.453   7.713   9.147
  713POPC   C1A13479  35.409   7.360   8.740
  713POPC   D2A13480  35.260   7.292   8.314
  713POPC   C3A13481  35.421   7.469   7.977
  713POPC   C4A13482  35.656   7.567   7.651
  713POPC   C1B13483  35.172   7.804   8.808
  713POPC   C2B13484  35.289   7.796   8.387
  713POPC   C3B13485  35.032   7.782   8.026
  713POPC   C4B13486  35.115   7.730   7.613
  714POPC   NC313487  37.599  37.882   9.590
  714POPC   PO413488  38.037  37.285   9.437
  714POPC   GL113489  37.665  37.533   9.192
  714POPC   GL213490  37.504  37.899   9.113
  714POPC   C1A13491  37.474  37.525   8.794
  714POPC   D2A13492  37.456  37.794   8.460
  714POPC   C3A13493  37.480  37.541   8.113
  714POPC   C4A13494  37.651  37.578   7.746
  714POPC   C1B13495  37.846  37.937   8.836
  714POPC   C2B13496  37.932  38.048   8.426
  714POPC   C3B13497  37.870  37.924   8.031
  714POPC   C4B13498  37.681  38.102   7.697
  715POPC   NC313499  44.522  37.571   9.537
  715POPC   PO413500   0.100  37.782   9.578
  715POPC   GL113501  44.898  37.682   9.179
  715POPC   GL213502  44.602  37.451   9.030
  715POPC   C1A13503  44.929  37.786   8.754
  715POPC   D2A13504  44.835  37.610   8.375
  715POPC   C3A13505  44.866  37.808   7.997
  715POPC   C4A13506  44.908  37.524   7.727
  715POPC   C1B13507  44.415  37.759   8.704
  715POPC   C2B13508  44.409  37.899   8.232
  715POPC   C3B13509  44.395  37.690   7.811
  715POPC   C4B13510  44.232  37.796   7.388
  716POPC   NC313511  35.754  34.512   9.402
  716POPC   PO413512  36.388  34.381   9.563
  716POPC   GL113513  36.271  34.594   9.214
  716POPC   GL213514  36.272  34.922   9.330
  716POPC   C1A13515  36.168  34.552   8.784
  716POPC   D2A13516  36.220  34.436   8.360
  716POPC   C3A13517  36.005  34.580   7.994
  716POPC   C4A13518  35.934  34.236   7.707
  716POPC   C1B13519  36.426  34.978   8.900
  716POPC   C2B13520  36.263  34.959   8.460
  716POPC   C3B13521  36.459  34.811   8.100
  716POPC   C4B13522  36.454  34.919   7.712
  717POPC   NC313523  23.369  43.432   9.374
  717POPC   PO413524  23.871  42.981   9.560
  717POPC   GL113525  23.667  43.093   9.152
  717POPC   GL213526  23.349  42.968   9.073
  717POPC   C1A13527  23.769  43.231   8.711
  717POPC   D2A13528  23.933  42.961   8.371
  717POPC   C3A13529  24.030  43.196   7.984
  717POPC   C4A13530  23.868  43.075   7.587
  717POPC   C1B13531  23.463  42.828   8.676
  717POPC   C2B13532  23.448  43.079   8.332
  717POPC   C3B13533  23.519  43.075   7.930
  717POPC   C4B13534  23.319  43.203   7.530
  718POPC   NC313535   5.627  36.041   9.400
  718POPC   PO413536   6.072  36.497   9.541
  718POPC   GL113537   6.095  36.525   9.093
  718POPC   GL213538   6.398  36.692   8.968
  718POPC   C1A13539   5.849  36.290   8.765
  718POPC   D2A13540   5.683  35.953   8.473
  718POPC   C3A13541   5.899  35.958   8.068
  718POPC   C4A13542   5.894  35.921   7.630
  718POPC   C1B13543   6.295  36.571   8.549
  718POPC   C2B13544   5.961  36.452   8.262
  718POPC   C3B13545   5.813  36.401   7.836
  718POPC   C4B13546   5.927  36.418   7.417
  719POPC   NC313547  42.483  32.335   9.706
  719POPC   PO413548  42.010  31.929   9.622
  719POPC   GL113549  42.218  32.173   9.260
  719POPC   GL213550  42.552  32.393   9.179
  719POPC   C1A13551  42.207  32.235   8.810
  719POPC   D2A13552  42.433  32.243   8.392
  719POPC   C3A13553  42.213  32.238   8.016
  719POPC   C4A13554  42.194  32.285   7.553
  719POPC   C1B13555  42.537  32.611   8.750
  719POPC   C2B13556  42.522  32.731   8.269
  719POPC   C3B13557  42.435  32.660   7.792
  719POPC   C4B13558  42.571  32.514   7.330
  720POPC   NC313559  44.738  41.151   9.393
  720POPC   PO413560  44.710  41.728   9.714
  720POPC   GL113561  44.726  41.659   9.247
  720POPC   GL213562  44.981  41.485   9.099
  720POPC   C1A13563  44.550  41.457   8.844
  720POPC   D2A13564  44.698  41.352   8.451
  720POPC   C3A13565  44.539  41.540   8.054
  720POPC   C4A13566  44.532  41.391   7.606
  720POPC   C1B13567  44.974  41.732   8.776
  720POPC   C2B13568  44.798  41.858   8.389
  720POPC   C3B13569  44.909  41.936   7.957
  720POPC   C4B13570  44.862  41.765   7.541
  721POPC   NC313571  39.447  38.607   9.543
  721POPC   PO413572  38.813  38.646   9.648
  721POPC   GL113573  38.912  38.715   9.207
  721POPC   GL213574  39.114  38.439   9.207
  721POPC   C1A13575  39.075  38.784   8.778
  721POPC   D2A13576  39.296  38.845   8.375
  721POPC   C3A13577  39.400  38.555   8.056
  721POPC   C4A13578  39.031  38.442   7.893
  721POPC   C1B13579  39.391  38.408   8.872
  721POPC   C2B13580  39.247  38.333   8.489
  721POPC   C3B13581  39.314  38.025   8.200
  721POPC   C4B13582  39.389  37.997   7.787
  722POPC   NC313583  27.055  28.902   9.452
  722POPC   PO413584  27.679  29.051   9.704
  722POPC   GL113585  27.534  29.082   9.259
  722POPC   GL213586  27.238  29.255   9.156
  722POPC   C1A13587  27.644  29.178   8.816
  722POPC   D2A13588  27.819  29.041   8.429
  722POPC   C3A13589  27.717  29.188   8.038
  722POPC   C4A13590  27.904  28.960   7.718
  722POPC   C1B13591  27.168  29.345   8.729
  722POPC   C2B13592  27.453  29.469   8.397
  722POPC   C3B13593  27.415  29.628   7.967
  722POPC   C4B13594  27.435  29.370   7.635
  723POPC   NC313595  38.459   9.671   9.689
  723POPC   PO413596  38.799  10.082   9.391
  723POPC   GL113597  38.528   9.902   9.172
  723POPC   GL213598  38.537   9.548   9.184
  723POPC   C1A13599  38.438  10.018   8.774
  723POPC   D2A13600  38.654   9.940   8.392
  723POPC   C3A13601  38.533  10.138   8.021
  723POPC   C4A13602  38.164   9.982   7.802
  723POPC   C1B13603  38.535   9.533   8.743
  723POPC   C2B13604  38.317   9.558   8.361
  723POPC   C3B13605  38.529   9.608   7.977
  723POPC   C4B13606  38.421   9.466   7.578
  724POPC   NC313607   7.733  39.121   9.644
  724POPC   PO413608   7.712  39.731   9.414
  724POPC   GL113609   7.475  39.367   9.219
  724POPC   GL213610   7.697  39.089   9.136
  724POPC   C1A13611   7.392  39.264   8.765
  724POPC   D2A13612   7.327  39.531   8.377
  724POPC   C3A13613   7.414  39.454   7.935
  724POPC   C4A13614   7.323  39.165   7.610
  724POPC   C1B13615   7.807  38.825   8.796
  724POPC   C2B13616   7.683  38.963   8.421
  724POPC   C3B13617   7.551  38.964   8.025
  724POPC   C4B13618   7.563  38.709   7.677
  725POPC   NC313619   3.694  33.782   9.445
  725POPC   PO413620   3.374  34.071   9.033
  725POPC   GL113621   3.584  33.741   8.950
  725POPC   GL213622   3.321  33.556   9.131
  725POPC   C1A13623   3.666  33.765   8.532
  725POPC   D2A13624   3.372  33.803   8.193
  725POPC   C3A13625   3.566  33.921   7.805
  725POPC   C4A13626   3.917  34.173   7.817
  725POPC   C1B13627   3.300  33.402   8.693
  725POPC   C2B13628   3.552  33.311   8.332
  725POPC   C3B13629   3.507  33.425   7.895
  725POPC   C4B13630   3.545  33.541   7.461
  726POPC   NC313631  33.694   6.034   9.705
  726POPC   PO413632  33.470   5.548   9.610
  726POPC   GL113633  33.725   5.782   9.254
  726POPC   GL213634  33.621   6.132   9.158
  726POPC   C1A13635  33.856   5.830   8.801
  726POPC   D2A13636  33.654   5.656   8.423
  726POPC   C3A13637  33.803   5.717   7.988
  726POPC   C4A13638  33.749   5.813   7.522
  726POPC   C1B13639  33.526   6.198   8.685
  726POPC   C2B13640  33.787   6.160   8.318
  726POPC   C3B13641  33.706   6.195   7.865
  726POPC   C4B13642  33.439   6.237   7.485
  727POPC   NC313643  44.658  18.714   9.508
  727POPC   PO413644  44.566  18.088   9.567
  727POPC   GL113645  44.848  18.158   9.221
  727POPC   GL213646   0.019  18.505   9.201
  727POPC   C1A13647  44.820  18.237   8.793
  727POPC   D2A13648  44.602  18.450   8.465
  727POPC   C3A13649  44.822  18.321   8.090
  727POPC   C4A13650  44.657  18.315   7.693
  727POPC   C1B13651  44.873  18.731   8.817
  727POPC   C2B13652   0.076  18.622   8.411
  727POPC   C3B13653   0.017  18.794   7.990
  727POPC   C4B13654  44.905  18.782   7.569
  728POPC   NC313655  35.659  21.192   9.420
  728POPC   PO413656  35.319  21.698   9.666
  728POPC   GL113657  35.225  21.616   9.226
  728POPC   GL213658  35.580  21.629   9.160
  728POPC   C1A13659  35.005  21.525   8.799
  728POPC   D2A13660  35.090  21.170   8.488
  728POPC   C3A13661  35.120  21.335   8.067
  728POPC   C4A13662  35.351  21.690   7.904
  728POPC   C1B13663  35.483  21.376   8.800
  728POPC   C2B13664  35.509  21.508   8.377
  728POPC   C3B13665  35.701  21.326   8.001
  728POPC   C4B13666  35.819  21.078   7.683
  729POPC   NC313667  31.700  30.761   9.526
  729POPC   PO413668  31.099  30.477   9.442
  729POPC   GL113669  31.380  30.646   9.177
  729POPC   GL213670  31.346  31.012   9.202
  729POPC   C1A13671  31.638  30.711   8.832
  729POPC   D2A13672  31.507  30.613   8.429
  729POPC   C3A13673  31.723  30.589   8.027
  729POPC   C4A13674  31.585  30.628   7.594
  729POPC   C1B13675  31.356  31.147   8.780
  729POPC   C2B13676  31.421  31.115   8.346
  729POPC   C3B13677  31.496  31.052   7.927
  729POPC   C4B13678  31.217  30.970   7.599
  730POPC   NC313679  20.994   5.360   9.361
  730POPC   PO413680  20.433   5.023   9.389
  730POPC   GL113681  20.652   4.876   9.062
  730POPC   GL213682  21.019   4.841   9.186
  730POPC   C1A13683  20.420   4.678   8.714
  730POPC   D2A13684  20.258   4.903   8.335
  730POPC   C3A13685  20.406   5.198   7.971
  730POPC   C4A13686  20.208   5.640   7.907
  730POPC   C1B13687  21.041   4.982   8.746
  730POPC   C2B13688  21.232   4.894   8.343
  730POPC   C3B13689  21.049   4.791   7.909
  730POPC   C4B13690  20.886   4.905   7.463
  731POPC   NC313691  34.306  34.050   9.515
  731POPC   PO413692  34.334  33.418   9.331
  731POPC   GL113693  34.606  33.617   9.077
  731POPC   GL213694  34.676  33.933   9.164
  731POPC   C1A13695  34.512  33.562   8.662
  731POPC   D2A13696  34.572  33.774   8.309
  731POPC   C3A13697  34.270  33.843   8.015
  731POPC   C4A13698  34.420  33.733   7.626
  731POPC   C1B13699  34.515  34.074   8.765
  731POPC   C2B13700  34.703  34.251   8.340
  731POPC   C3B13701  34.735  34.075   7.890
  731POPC   C4B13702  34.621  34.171   7.442
  732POPC   NC313703   0.985  41.210   9.923
  732POPC   PO413704   1.201  40.732   9.717
  732POPC   GL113705   1.364  40.936   9.252
  732POPC   GL213706   1.088  41.065   9.052
  732POPC   C1A13707   1.601  40.979   8.805
  732POPC   D2A13708   1.633  41.097   8.323
  732POPC   C3A13709   1.435  40.819   7.967
  732POPC   C4A13710   1.171  40.389   7.902
  732POPC   C1B13711   1.160  40.753   8.692
  732POPC   C2B13712   1.053  40.729   8.283
  732POPC   C3B13713   0.987  41.055   7.956
  732POPC   C4B13714   0.828  41.394   7.711
  733POPC   NC313715  26.375  29.978   9.395
  733POPC   PO413716  26.880  29.521   9.417
  733POPC   GL113717  26.979  29.706   9.054
  733POPC   GL213718  26.648  29.766   9.019
  733POPC   C1A13719  26.957  29.802   8.606
  733POPC   D2A13720  27.037  30.159   8.349
  733POPC   C3A13721  26.879  30.131   7.939
  733POPC   C4A13722  26.764  30.119   7.498
  733POPC   C1B13723  26.388  29.986   8.733
  733POPC   C2B13724  26.478  30.139   8.326
  733POPC   C3B13725  26.374  29.990   7.938
  733POPC   C4B13726  26.405  29.699   7.626
  734POPC   NC313727  29.741  31.047   9.295
  734POPC   PO413728  30.122  30.541   9.645
  734POPC   GL113729  29.956  30.573   9.226
  734POPC   GL213730  30.184  30.409   9.071
  734POPC   C1A13731  29.896  30.687   8.757
  734POPC   D2A13732  30.034  30.838   8.336
  734POPC   C3A13733  29.865  30.809   7.902
  734POPC   C4A13734  30.013  30.978   7.492
  734POPC   C1B13735  30.121  30.220   8.698
  734POPC   C2B13736  30.238  30.333   8.304
  734POPC   C3B13737  30.276  30.273   7.870
  734POPC   C4B13738  30.070  30.456   7.524
  735POPC   NC313739   8.446  13.768   9.514
  735POPC   PO413740   9.166  13.804   9.449
  735POPC   GL113741   9.043  13.632   9.091
  735POPC   GL213742   8.831  13.405   9.234
  735POPC   C1A13743   9.200  13.611   8.685
  735POPC   D2A13744   9.115  13.812   8.309
  735POPC   C3A13745   9.273  13.638   7.939
  735POPC   C4A13746   9.135  13.541   7.527
  735POPC   C1B13747   8.616  13.524   8.847
  735POPC   C2B13748   8.602  13.721   8.435
  735POPC   C3B13749   8.735  13.630   8.038
  735POPC   C4B13750   8.596  13.662   7.668
  736POPC   NC313751   8.485  20.420   9.495
  736POPC   PO413752   9.243  20.394   9.454
  736POPC   GL113753   8.975  20.524   9.123
  736POPC   GL213754   8.735  20.272   9.084
  736POPC   C1A13755   9.090  20.577   8.697
  736POPC   D2A13756   9.139  20.910   8.400
  736POPC   C3A13757   8.964  20.788   8.035
  736POPC   C4A13758   8.878  20.723   7.612
  736POPC   C1B13759   8.621  20.395   8.683
  736POPC   C2B13760   8.787  20.359   8.294
  736POPC   C3B13761   8.700  20.344   7.869
  736POPC   C4B13762   9.075  20.242   7.606
  737POPC   NC313763  31.919  23.204   9.413
  737POPC   PO413764  32.356  22.723   9.583
  737POPC   GL113765  32.468  22.871   9.193
  737POPC   GL213766  32.505  22.536   9.102
  737POPC   C1A13767  32.310  23.168   8.856
  737POPC   D2A13768  32.130  23.106   8.428
  737POPC   C3A13769  32.262  23.135   7.992
  737POPC   C4A13770  32.058  23.102   7.579
  737POPC   C1B13771  32.448  22.707   8.694
  737POPC   C2B13772  32.240  22.611   8.342
  737POPC   C3B13773  32.380  22.639   7.946
  737POPC   C4B13774  32.565  22.897   7.627
  738POPC   NC313775  42.985   0.353   9.340
  738POPC   PO413776  42.343   0.388   9.651
  738POPC   GL113777  42.478   0.534   9.277
  738POPC   GL213778  42.150   0.521   9.158
  738POPC   C1A13779  42.532   0.394   8.839
  738POPC   D2A13780  42.335   0.507   8.440
  738POPC   C3A13781  42.550   0.425   8.058
  738POPC   C4A13782  42.891   0.359   7.760
  738POPC   C1B13783  42.024   0.222   8.862
  738POPC   C2B13784  42.004   0.105   8.441
  738POPC   C3B13785  42.017   0.326   8.066
  738POPC   C4B13786  42.159   0.426   7.674
  739POPC   NC313787   9.541  14.104   9.460
  739POPC   PO413788   9.957  14.663   9.421
  739POPC   GL113789   9.757  14.600   9.038
  739POPC   GL213790   9.540  14.313   9.013
  739POPC   C1A13791   9.697  14.551   8.602
  739POPC   D2A13792   9.912  14.396   8.241
  739POPC   C3A13793   9.792  14.525   7.860
  739POPC   C4A13794   9.749  14.283   7.505
  739POPC   C1B13795   9.318  14.100   8.735
  739POPC   C2B13796   9.482  14.151   8.358
  739POPC   C3B13797   9.470  14.141   7.940
  739POPC   C4B13798   9.308  14.445   7.648
  740POPC   NC313799  26.774  39.123   9.581
  740POPC   PO413800  27.389  39.531   9.506
  740POPC   GL113801  27.171  39.359   9.122
  740POPC   GL213802  26.864  39.182   9.100
  740POPC   C1A13803  26.987  39.409   8.679
  740POPC   D2A13804  26.965  39.657   8.331
  740POPC   C3A13805  26.766  39.519   8.003
  740POPC   C4A13806  26.950  39.391   7.698
  740POPC   C1B13807  26.679  38.976   8.750
  740POPC   C2B13808  26.794  38.975   8.298
  740POPC   C3B13809  26.657  38.988   7.854
  740POPC   C4B13810  26.552  38.900   7.401
  741POPC   NC313811  13.244   3.702   9.740
  741POPC   PO413812  13.653   4.130   9.708
  741POPC   GL113813  13.631   3.945   9.278
  741POPC   GL213814  13.403   3.656   9.207
  741POPC   C1A13815  13.593   3.938   8.805
  741POPC   D2A13816  13.789   3.892   8.384
  741POPC   C3A13817  13.563   3.802   7.971
  741POPC   C4A13818  13.681   3.664   7.521
  741POPC   C1B13819  13.340   3.490   8.753
  741POPC   C2B13820  13.532   3.413   8.321
  741POPC   C3B13821  13.579   3.282   7.856
  741POPC   C4B13822  13.641   3.178   7.379
  742POPC   NC313823  11.890  27.232   9.416
  742POPC   PO413824  12.400  27.648   9.630
  742POPC   GL113825  12.223  27.758   9.155
  742POPC   GL213826  12.119  27.454   9.020
  742POPC   C1A13827  11.994  27.796   8.683
  742POPC   D2A13828  12.002  27.651   8.240
  742POPC   C3A13829  12.115  27.765   7.795
  742POPC   C4A13830  11.863  27.692   7.430
  742POPC   C1B13831  11.887  27.287   8.660
  742POPC   C2B13832  12.080  27.125   8.311
  742POPC   C3B13833  12.107  27.262   7.906
  742POPC   C4B13834  12.224  27.339   7.489
  743POPC   NC313835  36.552  29.278   9.350
  743POPC   PO413836  37.210  29.348   9.506
  743POPC   GL113837  36.978  29.244   9.118
  743POPC   GL213838  36.885  28.913   9.181
  743POPC   C1A13839  36.668  29.098   8.746
  743POPC   D2A13840  36.640  28.897   8.355
  743POPC   C3A13841  36.708  29.207   8.056
  743POPC   C4A13842  36.719  29.179   7.641
  743POPC   C1B13843  37.134  28.912   8.780
  743POPC   C2B13844  37.133  29.112   8.368
  743POPC   C3B13845  37.186  29.050   7.909
  743POPC   C4B13846  37.507  29.245   7.681
  744POPC   NC313847  28.447  39.069   9.386
  744POPC   PO413848  28.108  39.553   9.696
  744POPC   GL113849  28.576  39.520   9.235
  744POPC   GL213850  28.639  39.189   8.956
  744POPC   C1A13851  28.595  39.631   8.765
  744POPC   D2A13852  28.299  39.530   8.459
  744POPC   C3A13853  28.488  39.342   8.092
  744POPC   C4A13854  28.369  39.307   7.672
  744POPC   C1B13855  28.549  38.844   8.619
  744POPC   C2B13856  28.620  38.842   8.188
  744POPC   C3B13857  28.666  38.913   7.779
  744POPC   C4B13858  28.463  38.744   7.403
  745POPC   NC313859   8.438   0.966   9.527
  745POPC   PO413860   7.847   0.821   9.759
  745POPC   GL113861   7.951   0.991   9.317
  745POPC   GL213862   8.111   1.329   9.266
  745POPC   C1A13863   8.109   0.996   8.877
  745POPC   D2A13864   7.993   1.000   8.437
  745POPC   C3A13865   8.104   1.094   8.007
  745POPC   C4A13866   8.112   1.362   7.655
  745POPC   C1B13867   8.142   1.509   8.817
  745POPC   C2B13868   8.090   1.492   8.362
  745POPC   C3B13869   8.383   1.556   8.020
  745POPC   C4B13870   8.520   1.706   7.603
  746POPC   NC313871  13.628  17.240   9.289
  746POPC   PO413872  13.968  17.807   9.505
  746POPC   GL113873  13.836  17.636   9.086
  746POPC   GL213874  13.454  17.596   8.966
  746POPC   C1A13875  13.805  17.412   8.659
  746POPC   D2A13876  13.482  17.549   8.405
  746POPC   C3A13877  13.573  17.612   7.972
  746POPC   C4A13878  13.916  17.462   7.690
  746POPC   C1B13879  13.309  17.185   8.724
  746POPC   C2B13880  13.067  17.072   8.369
  746POPC   C3B13881  13.290  17.189   8.031
  746POPC   C4B13882  13.430  17.259   7.620
  747POPC   NC313883  19.840  17.444   9.268
  747POPC   PO413884  20.103  18.047   9.523
  747POPC   GL113885  19.993  17.885   9.068
  747POPC   GL213886  19.641  17.809   8.989
  747POPC   C1A13887  20.019  17.651   8.633
  747POPC   D2A13888  20.087  17.258   8.356
  747POPC   C3A13889  19.918  17.338   7.942
  747POPC   C4A13890  19.748  17.769   7.891
  747POPC   C1B13891  19.546  17.455   8.695
  747POPC   C2B13892  19.538  17.330   8.279
  747POPC   C3B13893  19.390  17.411   7.847
  747POPC   C4B13894  19.350  17.303   7.382
  748POPC   NC313895  13.160  25.585   9.497
  748POPC   PO413896  13.093  25.006   9.278
  748POPC   GL113897  12.882  25.357   9.080
  748POPC   GL213898  12.761  25.112   8.869
  748POPC   C1A13899  12.858  25.562   8.688
  748POPC   D2A13900  12.889  25.288   8.328
  748POPC   C3A13901  13.110  25.541   8.029
  748POPC   C4A13902  12.766  25.766   7.882
  748POPC   C1B13903  12.404  25.053   8.617
  748POPC   C2B13904  12.224  24.833   8.277
  748POPC   C3B13905  12.546  24.853   7.983
  748POPC   C4B13906  12.804  25.199   7.816
  749POPC   NC313907  25.600   1.804   9.478
  749POPC   PO413908  25.011   2.115   9.569
  749POPC   GL113909  25.124   2.032   9.151
  749POPC   GL213910  25.429   1.877   9.009
  749POPC   C1A13911  25.033   2.016   8.720
  749POPC   D2A13912  25.346   1.984   8.422
  749POPC   C3A13913  25.206   1.838   8.028
  749POPC   C4A13914  25.132   1.819   7.609
  749POPC   C1B13915  25.519   1.571   8.699
  749POPC   C2B13916  25.624   1.603   8.261
  749POPC   C3B13917  25.521   1.486   7.848
  749POPC   C4B13918  25.428   1.453   7.413
  750POPC   NC313919  16.877  41.846   9.668
  750POPC   PO413920  16.813  41.202   9.732
  750POPC   GL113921  16.923  41.439   9.333
  750POPC   GL213922  17.025  41.740   9.199
  750POPC   C1A13923  16.664  41.542   8.924
  750POPC   D2A13924  16.716  41.500   8.464
  750POPC   C3A13925  16.557  41.632   8.040
  750POPC   C4A13926  16.577  41.503   7.583
  750POPC   C1B13927  17.135  41.727   8.796
  750POPC   C2B13928  17.016  41.908   8.415
  750POPC   C3B13929  17.098  41.688   8.086
  750POPC   C4B13930  16.938  41.804   7.739
  751POPC   NC313931  23.262   8.954   9.660
  751POPC   PO413932  23.878   9.122   9.762
  751POPC   GL113933  23.641   9.053   9.304
  751POPC   GL213934  23.290   9.178   9.214
  751POPC   C1A13935  23.651   9.002   8.805
  751POPC   D2A13936  23.847   9.042   8.349
  751POPC   C3A13937  23.848   8.751   7.954
  751POPC   C4A13938  23.740   8.715   7.514
  751POPC   C1B13939  23.170   9.171   8.798
  751POPC   C2B13940  23.354   9.194   8.388
  751POPC   C3B13941  23.483   9.130   7.972
  751POPC   C4B13942  23.341   9.024   7.585
  752POPC   NC313943   1.158   2.406   9.884
  752POPC   PO413944   1.514   2.822   9.565
  752POPC   GL113945   1.193   2.977   9.342
  752POPC   GL213946   1.113   2.651   9.225
  752POPC   C1A13947   1.133   3.067   8.925
  752POPC   D2A13948   1.053   3.115   8.479
  752POPC   C3A13949   1.312   2.895   8.196
  752POPC   C4A13950   1.338   2.910   7.762
  752POPC   C1B13951   1.266   2.519   8.828
  752POPC   C2B13952   1.284   2.386   8.397
  752POPC   C3B13953   1.194   2.456   7.961
  752POPC   C4B13954   1.353   2.442   7.516
  753POPC   NC313955   4.521  17.404   9.484
  753POPC   PO413956   3.970  17.762   9.644
  753POPC   GL113957   4.144  17.619   9.181
  753POPC   GL213958   3.826  17.551   8.986
  753POPC   C1A13959   4.460  17.392   8.836
  753POPC   D2A13960   4.691  17.473   8.432
  753POPC   C3A13961   4.547  17.373   8.010
  753POPC   C4A13962   4.634  17.655   7.684
  753POPC   C1B13963   3.979  17.231   8.767
  753POPC   C2B13964   4.181  17.233   8.390
  753POPC   C3B13965   4.016  17.295   7.987
  753POPC   C4B13966   4.175  17.468   7.603
  754POPC   NC313967  17.374  33.318   9.338
  754POPC   PO413968  17.381  32.634   9.431
  754POPC   GL113969  17.407  32.813   9.068
  754POPC   GL213970  17.730  32.928   9.116
  754POPC   C1A13971  17.452  33.044   8.693
  754POPC   D2A13972  17.249  33.352   8.441
  754POPC   C3A13973  17.254  33.282   8.017
  754POPC   C4A13974  17.467  32.922   7.750
  754POPC   C1B13975  17.950  33.031   8.714
  754POPC   C2B13976  17.790  33.094   8.251
  754POPC   C3B13977  17.989  33.039   7.824
  754POPC   C4B13978  18.084  32.933   7.373
  755POPC   NC313979  25.171  34.998   9.515
  755POPC   PO413980  25.435  35.651   9.468
  755POPC   GL113981  25.224  35.379   9.167
  755POPC   GL213982  24.923  35.594   9.132
  755POPC   C1A13983  25.381  35.033   8.869
  755POPC   D2A13984  25.588  34.829   8.479
  755POPC   C3A13985  25.586  35.140   8.135
  755POPC   C4A13986  25.422  35.397   7.777
  755POPC   C1B13987  24.949  35.407   8.731
  755POPC   C2B13988  24.872  35.210   8.340
  755POPC   C3B13989  24.947  35.378   7.957
  755POPC   C4B13990  25.080  35.792   7.917
  756POPC   NC313991   4.822  15.248   9.599
  756POPC   PO413992   5.402  14.882   9.490
  756POPC   GL113993   5.185  15.186   9.204
  756POPC   GL213994   4.889  15.423   9.130
  756POPC   C1A13995   5.198  15.125   8.785
  756POPC   D2A13996   5.119  14.875   8.411
  756POPC   C3A13997   4.986  14.993   7.992
  756POPC   C4A13998   5.286  15.186   7.704
  756POPC   C1B13999   4.753  15.331   8.721
  756POPC   C2B14000   4.996  15.384   8.314
  756POPC   C3B14001   4.809  15.557   7.894
  756POPC   C4B14002   4.702  15.667   7.443
  757POPC   NC314003  13.915  40.027   9.566
  757POPC   PO414004  14.488  40.262   9.466
  757POPC   GL114005  14.403  40.364   9.048
  757POPC   GL214006  14.076  40.287   9.106
  757POPC   C1A14007  14.545  40.248   8.622
  757POPC   D2A14008  14.417  40.009   8.252
  757POPC   C3A14009  14.613  40.008   7.807
  757POPC   C4A14010  14.844  39.800   7.454
  757POPC   C1B14011  14.038  40.269   8.651
  757POPC   C2B14012  14.028  40.328   8.204
  757POPC   C3B14013  14.110  40.055   7.841
  757POPC   C4B14014  13.898  40.007   7.454
  758POPC   NC314015  43.706  30.333   9.456
  758POPC   PO414016  43.928  30.898   9.701
  758POPC   GL114017  43.842  30.882   9.235
  758POPC   GL214018  43.592  30.644   9.078
  758POPC   C1A14019  43.698  31.057   8.820
  758POPC   D2A14020  43.436  30.948   8.427
  758POPC   C3A14021  43.585  31.176   8.042
  758POPC   C4A14022  43.985  30.990   7.961
  758POPC   C1B14023  43.976  30.628   8.764
  758POPC   C2B14024  44.105  30.610   8.297
  758POPC   C3B14025  43.973  30.460   7.868
  758POPC   C4B14026  44.067  30.245   7.458
  759POPC   NC314027   2.099   3.858   9.407
  759POPC   PO414028   1.917   4.577   9.434
  759POPC   GL114029   2.037   4.322   9.099
  759POPC   GL214030   1.671   4.238   9.118
  759POPC   C1A14031   2.213   4.455   8.675
  759POPC   D2A14032   2.341   4.553   8.240
  759POPC   C3A14033   2.135   4.469   7.820
  759POPC   C4A14034   2.363   4.435   7.436
  759POPC   C1B14035   1.769   4.210   8.679
  759POPC   C2B14036   1.852   4.425   8.285
  759POPC   C3B14037   1.723   4.178   7.956
  759POPC   C4B14038   1.469   4.071   7.604
  760POPC   NC314039  37.433  39.451   9.153
  760POPC   PO414040  37.916  39.449   9.585
  760POPC   GL114041  37.910  39.294   9.147
  760POPC   GL214042  37.926  39.680   9.101
  760POPC   C1A14043  37.729  39.033   8.752
  760POPC   D2A14044  37.503  38.964   8.369
  760POPC   C3A14045  37.761  38.929   8.033
  760POPC   C4A14046  37.866  39.196   7.698
  760POPC   C1B14047  37.941  39.495   8.681
  760POPC   C2B14048  37.908  39.388   8.255
  760POPC   C3B14049  38.042  39.616   7.900
  760POPC   C4B14050  37.905  39.665   7.472
  761POPC   NC314051   4.780  32.355   9.611
  761POPC   PO414052   5.431  32.418   9.665
  761POPC   GL114053   5.298  32.146   9.289
  761POPC   GL214054   4.949  32.096   9.216
  761POPC   C1A14055   5.244  32.142   8.809
  761POPC   D2A14056   5.231  32.435   8.449
  761POPC   C3A14057   5.040  32.293   8.072
  761POPC   C4A14058   5.209  32.300   7.676
  761POPC   C1B14059   4.790  31.889   8.853
  761POPC   C2B14060   4.732  32.014   8.445
  761POPC   C3B14061   4.725  31.829   8.058
  761POPC   C4B14062   4.785  32.003   7.664
  762POPC   NC314063   7.699  15.317   9.497
  762POPC   PO414064   7.427  14.771   9.372
  762POPC   GL114065   7.394  15.077   9.077
  762POPC   GL214066   7.101  15.270   9.084
  762POPC   C1A14067   7.422  15.303   8.686
  762POPC   D2A14068   7.259  15.260   8.276
  762POPC   C3A14069   7.451  15.312   7.895
  762POPC   C4A14070   7.747  15.005   7.732
  762POPC   C1B14071   7.006  14.993   8.704
  762POPC   C2B14072   6.963  14.847   8.265
  762POPC   C3B14073   7.057  14.967   7.819
  762POPC   C4B14074   7.094  14.841   7.337
  763POPC   NC314075   5.764  28.736   9.667
  763POPC   PO414076   6.062  29.373   9.528
  763POPC   GL114077   5.877  29.095   9.198
  763POPC   GL214078   5.793  28.741   9.174
  763POPC   C1A14079   5.798  29.199   8.787
  763POPC   D2A14080   5.908  29.340   8.379
  763POPC   C3A14081   5.648  29.296   8.010
  763POPC   C4A14082   5.836  29.248   7.580
  763POPC   C1B14083   5.886  28.703   8.744
  763POPC   C2B14084   5.772  28.854   8.325
  763POPC   C3B14085   5.838  28.825   7.875
  763POPC   C4B14086   5.607  28.665   7.504
  764POPC   NC314087  10.727  12.756   9.455
  764POPC   PO414088  10.160  12.498   9.355
  764POPC   GL114089  10.383  12.743   9.059
  764POPC   GL214090  10.262  13.065   9.115
  764POPC   C1A14091  10.568  12.970   8.682
  764POPC   D2A14092  10.580  13.162   8.255
  764POPC   C3A14093  10.835  12.979   7.925
  764POPC   C4A14094  10.695  12.724   7.547
  764POPC   C1B14095  10.032  13.044   8.754
  764POPC   C2B14096  10.118  12.869   8.356
  764POPC   C3B14097  10.152  13.067   7.964
  764POPC   C4B14098  10.451  13.182   7.656
  765POPC   NC314099  22.642  32.368   9.761
  765POPC   PO414100  23.130  32.015   9.492
  765POPC   GL114101  22.923  32.353   9.258
  765POPC   GL214102  22.566  32.330   9.266
  765POPC   C1A14103  22.962  32.469   8.809
  765POPC   D2A14104  23.103  32.635   8.367
  765POPC   C3A14105  23.065  32.332   8.002
  765POPC   C4A14106  23.070  31.880   7.952
  765POPC   C1B14107  22.596  32.083   8.876
  765POPC   C2B14108  22.773  32.062   8.461
  765POPC   C3B14109  22.569  32.172   8.101
  765POPC   C4B14110  22.641  32.032   7.695
  766POPC   NC314111  42.080   3.494   9.596
  766POPC   PO414112  42.620   3.179   9.394
  766POPC   GL114113  42.332   3.420   9.116
  766POPC   GL214114  41.968   3.565   9.098
  766POPC   C1A14115  42.255   3.373   8.683
  766POPC   D2A14116  42.447   3.094   8.372
  766POPC   C3A14117  42.438   3.201   7.935
  766POPC   C4A14118  42.556   3.612   7.837
  766POPC   C1B14119  41.963   3.869   8.727
  766POPC   C2B14120  42.027   3.890   8.257
  766POPC   C3B14121  42.093   3.889   7.790
  766POPC   C4B14122  41.966   3.897   7.343
  767POPC   NC314123  20.355   4.325   9.483
  767POPC   PO414124  20.960   4.209   9.637
  767POPC   GL114125  20.778   4.087   9.247
  767POPC   GL214126  20.748   4.392   9.138
  767POPC   C1A14127  20.570   4.090   8.791
  767POPC   D2A14128  20.539   4.290   8.400
  767POPC   C3A14129  20.557   4.125   8.004
  767POPC   C4A14130  20.363   3.892   7.712
  767POPC   C1B14131  20.912   4.497   8.715
  767POPC   C2B14132  20.754   4.752   8.347
  767POPC   C3B14133  20.517   4.643   7.989
  767POPC   C4B14134  20.740   4.471   7.678
  768POPC   NC314135   3.346   2.926   9.561
  768POPC   PO414136   3.664   2.434   9.693
  768POPC   GL114137   3.568   2.568   9.252
  768POPC   GL214138   3.495   2.224   9.159
  768POPC   C1A14139   3.553   2.877   8.871
  768POPC   D2A14140   3.539   3.003   8.409
  768POPC   C3A14141   3.724   2.893   8.008
  768POPC   C4A14142   3.480   2.607   7.753
  768POPC   C1B14143   3.626   2.388   8.770
  768POPC   C2B14144   3.710   2.521   8.364
  768POPC   C3B14145   3.777   2.275   8.019
  768POPC   C4B14146   3.872   2.284   7.590
  769POPC   NC314147  35.449   9.153   9.568
  769POPC   PO414148  34.818   8.948   9.558
  769POPC   GL114149  35.159   8.970   9.180
  769POPC   GL214150  35.453   9.241   9.079
  769POPC   C1A14151  35.405   8.819   8.783
  769POPC   D2A14152  35.418   8.648   8.354
  769POPC   C3A14153  35.195   8.807   8.014
  769POPC   C4A14154  35.425   8.899   7.668
  769POPC   C1B14155  35.177   9.279   8.734
  769POPC   C2B14156  35.365   9.171   8.350
  769POPC   C3B14157  35.290   9.332   7.950
  769POPC   C4B14158  35.442   9.692   7.761
  770POPC   NC314159  42.191  31.159   9.496
  770POPC   PO414160  42.849  31.340   9.336
  770POPC   GL114161  42.447  31.425   9.128
  770POPC   GL214162  42.159  31.619   9.255
  770POPC   C1A14163  42.113  31.286   8.855
  770POPC   D2A14164  42.151  31.296   8.439
  770POPC   C3A14165  42.566  31.365   8.248
  770POPC   C4A14166  42.572  31.383   7.825
  770POPC   C1B14167  41.971  31.778   8.884
  770POPC   C2B14168  42.179  31.826   8.490
  770POPC   C3B14169  42.190  31.690   8.076
  770POPC   C4B14170  42.411  31.845   7.723
  771POPC   NC314171  29.626  14.390   9.720
  771POPC   PO414172  30.298  14.539   9.699
  771POPC   GL114173  29.957  14.487   9.331
  771POPC   GL214174  29.944  14.191   9.131
  771POPC   C1A14175  29.975  14.596   8.847
  771POPC   D2A14176  29.799  14.574   8.429
  771POPC   C3A14177  30.079  14.566   8.064
  771POPC   C4A14178  30.257  14.538   7.652
  771POPC   C1B14179  29.781  14.121   8.731
  771POPC   C2B14180  29.661  14.060   8.326
  771POPC   C3B14181  29.850  14.123   7.949
  771POPC   C4B14182  29.676  14.465   7.714
  772POPC   NC314183  23.020  32.818   9.498
  772POPC   PO414184  23.141  33.445   9.453
  772POPC   GL114185  22.953  33.140   9.109
  772POPC   GL214186  22.696  32.823   9.133
  772POPC   C1A14187  22.880  32.964   8.702
  772POPC   D2A14188  22.673  33.106   8.387
  772POPC   C3A14189  22.954  33.100   8.089
  772POPC   C4A14190  22.810  33.054   7.719
  772POPC   C1B14191  22.449  32.587   8.852
  772POPC   C2B14192  22.598  32.549   8.457
  772POPC   C3B14193  22.687  32.673   8.070
  772POPC   C4B14194  22.510  32.544   7.737
  773POPC   NC314195  22.068   0.579   9.599
  773POPC   PO414196  22.691   0.259   9.615
  773POPC   GL114197  22.400   0.379   9.272
  773POPC   GL214198  22.086   0.210   9.225
  773POPC   C1A14199  22.315   0.655   8.917
  773POPC   D2A14200  22.466   0.633   8.482
  773POPC   C3A14201  22.246   0.644   8.073
  773POPC   C4A14202  22.419   0.671   7.655
  773POPC   C1B14203  22.082   0.169   8.782
  773POPC   C2B14204  21.978  44.895   8.417
  773POPC   C3B14205  22.040   0.078   7.988
  773POPC   C4B14206  22.026   0.232   7.571
  774POPC   NC314207  10.147  41.843   9.523
  774POPC   PO414208  10.473  42.408   9.521
  774POPC   GL114209  10.251  42.233   9.163
  774POPC   GL214210  10.433  41.928   9.089
  774POPC   C1A14211  10.223  42.395   8.726
  774POPC   D2A14212  10.464  42.367   8.370
  774POPC   C3A14213  10.483  42.587   7.990
  774POPC   C4A14214  10.631  42.504   7.593
  774POPC   C1B14215  10.685  42.167   8.801
  774POPC   C2B14216  10.923  42.150   8.396
  774POPC   C3B14217  10.743  42.149   7.973
  774POPC   C4B14218  10.981  42.136   7.601
  775POPC   NC314219  18.010  33.703   9.414
  775POPC   PO414220  17.377  33.765   9.219
  775POPC   GL114221  17.705  33.775   9.019
  775POPC   GL214222  17.793  33.440   9.015
  775POPC   C1A14223  17.636  33.980   8.661
  775POPC   D2A14224  17.258  34.090   8.472
  775POPC   C3A14225  17.306  33.845   8.123
  775POPC   C4A14226  17.638  33.956   7.837
  775POPC   C1B14227  17.719  33.477   8.607
  775POPC   C2B14228  17.787  33.704   8.275
  775POPC   C3B14229  17.901  33.522   7.937
  775POPC   C4B14230  17.618  33.395   7.703
  776POPC   NC314231  20.230   5.478   9.491
  776POPC   PO414232  20.809   5.796   9.381
  776POPC   GL114233  20.500   5.737   9.098
  776POPC   GL214234  20.338   6.029   9.211
  776POPC   C1A14235  20.580   5.720   8.645
  776POPC   D2A14236  20.863   6.062   8.445
  776POPC   C3A14237  20.927   5.921   8.041
  776POPC   C4A14238  20.690   5.720   7.764
  776POPC   C1B14239  20.479   6.183   8.793
  776POPC   C2B14240  20.354   6.080   8.337
  776POPC   C3B14241  20.436   6.157   7.896
  776POPC   C4B14242  20.387   6.380   7.501
  777POPC   NC314243  30.322  26.308   9.529
  777POPC   PO414244  29.843  25.809   9.402
  777POPC   GL114245  29.945  25.961   9.032
  777POPC   GL214246  30.308  26.016   9.093
  777POPC   C1A14247  29.710  26.282   8.799
  777POPC   D2A14248  29.558  26.343   8.427
  777POPC   C3A14249  29.686  26.102   8.129
  777POPC   C4A14250  29.627  26.207   7.728
  777POPC   C1B14251  30.274  25.904   8.652
  777POPC   C2B14252  30.215  26.127   8.285
  777POPC   C3B14253  30.137  26.017   7.899
  777POPC   C4B14254  29.854  25.739   7.747
  778POPC   NC314255  28.367  22.033   9.616
  778POPC   PO414256  28.690  22.590   9.342
  778POPC   GL114257  28.559  22.211   9.150
  778POPC   GL214258  28.227  22.095   9.126
  778POPC   C1A14259  28.581  22.180   8.702
  778POPC   D2A14260  28.354  22.212   8.319
  778POPC   C3A14261  28.530  22.255   7.920
  778POPC   C4A14262  28.576  22.035   7.491
  778POPC   C1B14263  28.319  21.765   8.820
  778POPC   C2B14264  28.449  21.699   8.374
  778POPC   C3B14265  28.322  21.795   7.944
  778POPC   C4B14266  28.091  21.913   7.588
  779POPC   NC314267  16.283   2.627   9.412
  779POPC   PO414268  15.958   3.180   9.467
  779POPC   GL114269  16.192   3.085   9.080
  779POPC   GL214270  16.072   2.759   8.978
  779POPC   C1A14271  16.209   3.115   8.635
  779POPC   D2A14272  16.053   2.808   8.356
  779POPC   C3A14273  16.054   2.929   7.955
  779POPC   C4A14274  15.755   2.922   7.637
  779POPC   C1B14275  16.009   2.324   8.840
  779POPC   C2B14276  16.095   2.224   8.413
  779POPC   C3B14277  15.963   2.421   8.011
  779POPC   C4B14278  15.570   2.423   7.777
  780POPC   NC314279  40.426  34.433   9.504
  780POPC   PO414280  41.047  34.625   9.479
  780POPC   GL114281  41.008  34.808   9.095
  780POPC   GL214282  40.634  34.796   9.095
  780POPC   C1A14283  41.025  34.988   8.708
  780POPC   D2A14284  41.186  34.871   8.306
  780POPC   C3A14285  40.889  34.625   8.041
  780POPC   C4A14286  40.809  34.854   7.684
  780POPC   C1B14287  40.704  34.589   8.717
  780POPC   C2B14288  40.634  34.871   8.390
  780POPC   C3B14289  40.393  34.797   8.015
  780POPC   C4B14290  40.431  34.524   7.671
  781POPC   NC314291  36.289  44.150   9.553
  781POPC   PO414292  36.710  43.675   9.502
  781POPC   GL114293  36.451  43.842   9.106
  781POPC   GL214294  36.196  44.123   9.063
  781POPC   C1A14295  36.205  43.741   8.708
  781POPC   D2A14296  35.857  43.526   8.452
  781POPC   C3A14297  35.881  43.627   7.998
  781POPC   C4A14298  36.218  43.493   7.773
  781POPC   C1B14299  36.186  44.265   8.649
  781POPC   C2B14300  36.116  44.015   8.278
  781POPC   C3B14301  36.285  43.997   7.894
  781POPC   C4B14302  36.358  44.305   7.583
  782POPC   NC314303   5.051  30.794   9.604
  782POPC   PO414304   5.055  30.064   9.630
  782POPC   GL114305   5.158  30.402   9.264
  782POPC   GL214306   5.169  30.796   9.120
  782POPC   C1A14307   5.145  30.402   8.813
  782POPC   D2A14308   5.140  30.237   8.418
  782POPC   C3A14309   5.006  30.557   8.073
  782POPC   C4A14310   4.928  30.936   7.824
  782POPC   C1B14311   5.334  30.912   8.742
  782POPC   C2B14312   5.199  30.979   8.333
  782POPC   C3B14313   5.394  31.047   7.931
  782POPC   C4B14314   5.271  31.162   7.472
  783POPC   NC314315  43.587  20.359   9.526
  783POPC   PO414316  43.965  20.930   9.612
  783POPC   GL114317  43.927  20.719   9.206
  783POPC   GL214318  43.945  20.347   9.166
  783POPC   C1A14319  44.054  20.711   8.758
  783POPC   D2A14320  43.884  20.949   8.408
  783POPC   C3A14321  43.722  20.877   8.025
  783POPC   C4A14322  43.824  20.675   7.675
  783POPC   C1B14323  43.814  20.262   8.748
  783POPC   C2B14324  43.840  20.444   8.307
  783POPC   C3B14325  43.824  20.210   7.911
  783POPC   C4B14326  43.557  20.143   7.532
  784POPC   NC314327  18.777  32.189   9.596
  784POPC   PO414328  19.252  32.588   9.438
  784POPC   GL114329  18.972  32.319   9.139
  784POPC   GL214330  18.638  32.097   9.123
  784POPC   C1A14331  18.835  32.446   8.747
  784POPC   D2A14332  18.961  32.657   8.362
  784POPC   C3A14333  19.271  32.496   8.067
  784POPC   C4A14334  19.185  32.374   7.647
  784POPC   C1B14335  18.585  31.996   8.688
  784POPC   C2B14336  18.890  32.042   8.386
  784POPC   C3B14337  18.983  32.067   7.984
  784POPC   C4B14338  18.932  31.952   7.544
  785POPC   NC314339  17.692  43.501   9.587
  785POPC   PO414340  17.803  44.274   9.496
  785POPC   GL114341  17.494  44.068   9.178
  785POPC   GL214342  17.481  43.707   9.171
  785POPC   C1A14343  17.256  43.953   8.781
  785POPC   D2A14344  17.236  43.973   8.353
  785POPC   C3A14345  17.285  43.833   7.971
  785POPC   C4A14346  17.239  44.043   7.581
  785POPC   C1B14347  17.720  43.738   8.762
  785POPC   C2B14348  17.737  44.048   8.440
  785POPC   C3B14349  17.685  44.157   8.016
  785POPC   C4B14350  17.724  43.795   7.736
  786POPC   NC314351  43.082  30.939   9.948
  786POPC   PO414352  43.143  30.395   9.476
  786POPC   GL114353  43.207  30.263   9.075
  786POPC   GL214354  43.069  30.605   9.008
  786POPC   C1A14355  43.181  30.334   8.631
  786POPC   D2A14356  43.180  30.515   8.263
  786POPC   C3A14357  43.050  30.277   7.904
  786POPC   C4A14358  43.271  30.364   7.538
  786POPC   C1B14359  42.936  30.822   8.636
  786POPC   C2B14360  42.895  30.940   8.211
  786POPC   C3B14361  43.084  30.785   7.857
  786POPC   C4B14362  43.522  30.722   7.860
  787POPC   NC314363  14.517  25.527   9.609
  787POPC   PO414364  14.037  25.279   9.319
  787POPC   GL114365  14.295  25.386   9.023
  787POPC   GL214366  14.502  25.682   9.022
  787POPC   C1A14367  14.189  25.468   8.620
  787POPC   D2A14368  14.126  25.694   8.291
  787POPC   C3A14369  14.372  25.531   7.955
  787POPC   C4A14370  14.374  25.122   7.760
  787POPC   C1B14371  14.688  25.444   8.646
  787POPC   C2B14372  14.784  25.348   8.205
  787POPC   C3B14373  14.886  25.173   7.786
  787POPC   C4B14374  14.951  25.174   7.314
  788POPC   NC314375  23.226  30.435   9.182
  788POPC   PO414376  22.625  30.441   9.411
  788POPC   GL114377  22.762  30.524   9.027
  788POPC   GL214378  22.910  30.831   9.061
  788POPC   C1A14379  22.819  30.614   8.605
  788POPC   D2A14380  22.631  30.919   8.390
  788POPC   C3A14381  22.796  30.881   8.014
  788POPC   C4A14382  22.799  30.588   7.669
  788POPC   C1B14383  23.256  30.895   8.744
  788POPC   C2B14384  23.331  30.800   8.327
  788POPC   C3B14385  23.280  30.954   7.922
  788POPC   C4B14386  23.018  31.040   7.589
  789POPC   NC314387   1.678  20.453   9.513
  789POPC   PO414388   2.233  20.876   9.568
  789POPC   GL114389   2.105  20.789   9.172
  789POPC   GL214390   2.445  20.841   9.079
  789POPC   C1A14391   1.969  20.468   8.874
  789POPC   D2A14392   2.068  20.335   8.440
  789POPC   C3A14393   1.840  20.346   8.035
  789POPC   C4A14394   2.135  20.249   7.709
  789POPC   C1B14395   2.320  20.752   8.664
  789POPC   C2B14396   2.366  20.696   8.199
  789POPC   C3B14397   2.182  20.890   7.834
  789POPC   C4B14398   2.271  21.007   7.385
  790POPC   NC314399  23.368  16.377   9.461
  790POPC   PO414400  22.858  16.839   9.539
  790POPC   GL114401  23.161  16.779   9.209
  790POPC   GL214402  22.870  16.633   9.069
  790POPC   C1A14403  23.294  16.598   8.792
  790POPC   D2A14404  22.997  16.579   8.422
  790POPC   C3A14405  23.096  16.599   7.967
  790POPC   C4A14406  22.733  16.432   7.755
  790POPC   C1B14407  22.927  16.945   8.770
  790POPC   C2B14408  22.691  17.047   8.427
  790POPC   C3B14409  22.551  17.171   8.022
  790POPC   C4B14410  22.782  16.948   7.761
  791POPC   NC314411   2.587  30.350   9.425
  791POPC   PO414412   3.093  30.815   9.516
  791POPC   GL114413   2.896  30.698   9.140
  791POPC   GL214414   2.810  31.016   9.037
  791POPC   C1A14415   2.952  30.633   8.679
  791POPC   D2A14416   2.622  30.664   8.312
  791POPC   C3A14417   2.753  30.433   7.946
  791POPC   C4A14418   3.160  30.336   7.774
  791POPC   C1B14419   2.489  30.818   8.782
  791POPC   C2B14420   2.188  30.922   8.477
  791POPC   C3B14421   2.162  30.818   8.038
  791POPC   C4B14422   2.449  30.847   7.712
  792POPC   NC314423  22.154   4.380   9.715
  792POPC   PO414424  22.127   5.010   9.659
  792POPC   GL114425  22.162   4.723   9.284
  792POPC   GL214426  22.129   4.340   9.203
  792POPC   C1A14427  22.298   4.646   8.847
  792POPC   D2A14428  22.283   4.752   8.395
  792POPC   C3A14429  22.111   4.422   8.129
  792POPC   C4A14430  21.973   4.337   7.719
  792POPC   C1B14431  21.936   4.286   8.765
  792POPC   C2B14432  21.741   4.140   8.373
  792POPC   C3B14433  21.850   3.908   8.000
  792POPC   C4B14434  21.723   3.890   7.585
  793POPC   NC314435   6.824  16.534   9.399
  793POPC   PO414436   6.534  17.145   9.475
  793POPC   GL114437   6.571  16.890   9.100
  793POPC   GL214438   6.309  16.645   9.100
  793POPC   C1A14439   6.537  16.815   8.656
  793POPC   D2A14440   6.776  16.873   8.296
  793POPC   C3A14441   6.651  16.750   7.935
  793POPC   C4A14442   6.359  16.952   7.681
  793POPC   C1B14443   6.284  16.365   8.745
  793POPC   C2B14444   6.509  16.364   8.344
  793POPC   C3B14445   6.272  16.410   7.961
  793POPC   C4B14446   6.350  16.478   7.528
  794POPC   NC314447  37.435  44.604   9.497
  794POPC   PO414448  38.039  44.898   9.505
  794POPC   GL114449  37.749  44.868   9.172
  794POPC   GL214450  37.755   0.191   9.062
  794POPC   C1A14451  37.783  44.601   8.794
  794POPC   D2A14452  37.600  44.437   8.425
  794POPC   C3A14453  37.802  44.522   8.074
  794POPC   C4A14454  37.587  44.489   7.749
  794POPC   C1B14455  37.557   0.066   8.718
  794POPC   C2B14456  37.482   0.240   8.310
  794POPC   C3B14457  37.516  44.958   7.978
  794POPC   C4B14458  37.249  44.871   7.654
  795POPC   NC314459  10.909   8.350   9.463
  795POPC   PO414460  10.216   8.227   9.448
  795POPC   GL114461  10.513   8.250   9.139
  795POPC   GL214462  10.507   7.938   9.057
  795POPC   C1A14463  10.712   8.312   8.730
  795POPC   D2A14464  10.577   8.361   8.317
  795POPC   C3A14465  10.783   8.117   8.014
  795POPC   C4A14466  11.060   8.281   7.696
  795POPC   C1B14467  10.499   7.879   8.590
  795POPC   C2B14468  10.179   7.747   8.357
  795POPC   C3B14469  10.132   7.963   8.031
  795POPC   C4B14470  10.347   8.203   7.748
  796POPC   NC314471  21.162  10.050   9.494
  796POPC   PO414472  20.655   9.471   9.493
  796POPC   GL114473  20.691   9.555   9.106
  796POPC   GL214474  20.632   9.910   9.188
  796POPC   C1A14475  20.929   9.393   8.754
  796POPC   D2A14476  21.060   9.620   8.360
  796POPC   C3A14477  20.898   9.460   7.955
  796POPC   C4A14478  20.784   9.757   7.599
  796POPC   C1B14479  20.375   9.835   8.786
  796POPC   C2B14480  20.239   9.861   8.351
  796POPC   C3B14481  20.472   9.750   7.987
  796POPC   C4B14482  20.361   9.486   7.567
  797POPC   NC314483  36.043   7.404   9.513
  797POPC   PO414484  35.873   7.949   9.364
  797POPC   GL114485  35.937   7.606   9.072
  797POPC   GL214486  36.229   7.361   9.060
  797POPC   C1A14487  35.886   7.497   8.689
  797POPC   D2A14488  35.785   7.633   8.303
  797POPC   C3A14489  35.975   7.374   7.986
  797POPC   C4A14490  36.130   7.431   7.534
  797POPC   C1B14491  36.220   7.105   8.677
  797POPC   C2B14492  36.312   7.016   8.227
  797POPC   C3B14493  36.346   7.062   7.755
  797POPC   C4B14494  36.520   7.190   7.272
  798POPC   NC314495  16.144   4.295   9.622
  798POPC   PO414496  15.495   4.065   9.506
  798POPC   GL114497  15.817   4.203   9.219
  798POPC   GL214498  16.064   4.467   9.150
  798POPC   C1A14499  15.983   4.069   8.791
  798POPC   D2A14500  15.818   4.076   8.333
  798POPC   C3A14501  16.090   4.054   7.949
  798POPC   C4A14502  16.074   3.852   7.530
  798POPC   C1B14503  15.745   4.532   8.849
  798POPC   C2B14504  16.006   4.513   8.512
  798POPC   C3B14505  16.060   4.570   8.103
  798POPC   C4B14506  15.851   4.550   7.732
  799POPC   NC314507  41.520  35.732   9.733
  799POPC   PO414508  41.623  35.173   9.485
  799POPC   GL114509  41.415  35.214   9.099
  799POPC   GL214510  41.408  35.584   9.174
  799POPC   C1A14511  41.508  35.127   8.656
  799POPC   D2A14512  41.726  35.285   8.307
  799POPC   C3A14513  41.580  35.096   7.997
  799POPC   C4A14514  41.445  34.861   7.714
  799POPC   C1B14515  41.607  35.616   8.770
  799POPC   C2B14516  41.481  35.768   8.394
  799POPC   C3B14517  41.482  35.618   7.990
  799POPC   C4B14518  41.382  35.564   7.604
  800POPC   NC314519  30.130   6.390   9.506
  800POPC   PO414520  29.401   6.172   9.399
  800POPC   GL114521  29.746   6.376   9.099
  800POPC   GL214522  30.000   6.667   9.094
  800POPC   C1A14523  29.776   6.532   8.658
  800POPC   D2A14524  29.892   6.320   8.278
  800POPC   C3A14525  29.666   6.567   7.983
  800POPC   C4A14526  29.775   6.899   7.702
  800POPC   C1B14527  30.127   6.921   8.735
  800POPC   C2B14528  30.069   6.804   8.306
  800POPC   C3B14529  30.177   6.650   7.922
  800POPC   C4B14530  30.282   6.852   7.552
  801POPC   NC314531  23.650  29.872   9.557
  801POPC   PO414532  23.661  30.456   9.283
  801POPC   GL114533  23.621  30.063   9.057
  801POPC   GL214534  23.579  29.684   9.101
  801POPC   C1A14535  23.729  29.927   8.645
  801POPC   D2A14536  23.593  29.906   8.229
  801POPC   C3A14537  23.844  30.125   7.921
  801POPC   C4A14538  23.625  30.146   7.517
  801POPC   C1B14539  24.006  29.604   8.922
  801POPC   C2B14540  24.086  29.529   8.470
  801POPC   C3B14541  23.868  29.512   8.062
  801POPC   C4B14542  23.924  29.707   7.682
  802POPC   NC314543   3.138   1.109   9.435
  802POPC   PO414544   3.830   0.867   9.226
  802POPC   GL114545   3.589   1.249   9.099
  802POPC   GL214546   3.243   1.168   8.961
  802POPC   C1A14547   3.503   1.476   8.689
  802POPC   D2A14548   3.341   1.195   8.372
  802POPC   C3A14549   3.425   1.378   7.967
  802POPC   C4A14550   3.846   1.409   7.794
  802POPC   C1B14551   3.230   0.784   8.724
  802POPC   C2B14552   3.055   0.719   8.293
  802POPC   C3B14553   3.177   0.935   7.884
  802POPC   C4B14554   3.114   0.837   7.430
  803POPC   NC314555   1.517  35.662   9.447
  803POPC   PO414556   0.904  35.316   9.447
  803POPC   GL114557   1.187  35.341   9.146
  803POPC   GL214558   1.217  34.965   9.125
  803POPC   C1A14559   1.178  35.610   8.774
  803POPC   D2A14560   0.960  35.529   8.379
  803POPC   C3A14561   1.220  35.543   8.026
  803POPC   C4A14562   1.426  35.435   7.613
  803POPC   C1B14563   1.041  35.100   8.709
  803POPC   C2B14564   1.158  35.066   8.277
  803POPC   C3B14565   1.121  35.063   7.843
  803POPC   C4B14566   1.386  34.866   7.590
  804POPC   NC314567  21.107  12.989   9.611
  804POPC   PO414568  21.486  12.630   9.292
  804POPC   GL114569  21.264  12.865   9.003
  804POPC   GL214570  20.960  12.977   9.116
  804POPC   C1A14571  21.255  12.855   8.568
  804POPC   D2A14572  21.381  12.559   8.273
  804POPC   C3A14573  21.290  12.729   7.898
  804POPC   C4A14574  21.430  12.669   7.497
  804POPC   C1B14575  20.937  13.219   8.729
  804POPC   C2B14576  21.146  13.344   8.332
  804POPC   C3B14577  21.124  13.232   7.897
  804POPC   C4B14578  21.095  13.044   7.459
  805POPC   NC314579   8.737  14.518   9.478
  805POPC   PO414580   9.352  14.539   9.418
  805POPC   GL114581   9.071  14.521   9.061
  805POPC   GL214582   9.023  14.187   9.161
  805POPC   C1A14583   9.173  14.566   8.599
  805POPC   D2A14584   9.415  14.686   8.200
  805POPC   C3A14585   9.140  14.850   7.892
  805POPC   C4A14586   8.827  14.529   7.723
  805POPC   C1B14587   8.818  14.004   8.829
  805POPC   C2B14588   8.829  14.200   8.472
  805POPC   C3B14589   9.034  14.313   8.125
  805POPC   C4B14590   8.995  14.031   7.758
  806POPC   NC314591   1.524   7.077   9.492
  806POPC   PO414592   1.896   6.429   9.461
  806POPC   GL114593   1.920   6.679   9.132
  806POPC   GL214594   1.591   6.724   9.135
  806POPC   C1A14595   2.155   6.718   8.742
  806POPC   D2A14596   2.328   6.722   8.313
  806POPC   C3A14597   2.016   6.661   7.959
  806POPC   C4A14598   1.777   6.490   7.582
  806POPC   C1B14599   1.708   7.011   8.817
  806POPC   C2B14600   1.927   7.061   8.443
  806POPC   C3B14601   1.809   7.125   8.034
  806POPC   C4B14602   1.865   7.019   7.601
  807POPC   NC314603   5.924  20.061   9.472
  807POPC   PO414604   5.913  19.370   9.309
  807POPC   GL114605   5.741  19.711   9.055
  807POPC   GL214606   5.961  19.975   8.981
  807POPC   C1A14607   5.845  19.633   8.623
  807POPC   D2A14608   6.152  19.662   8.310
  807POPC   C3A14609   5.983  19.889   7.948
  807POPC   C4A14610   6.050  19.774   7.555
  807POPC   C1B14611   5.640  20.086   8.684
  807POPC   C2B14612   5.539  19.947   8.272
  807POPC   C3B14613   5.551  20.168   7.871
  807POPC   C4B14614   5.860  20.245   7.541
  808POPC   NC314615  15.457  31.627   9.431
  808POPC   PO414616  14.880  31.190   9.336
  808POPC   GL114617  15.113  31.485   9.077
  808POPC   GL214618  14.993  31.789   8.977
  808POPC   C1A14619  15.428  31.574   8.746
  808POPC   D2A14620  15.619  31.724   8.347
  808POPC   C3A14621  15.378  31.698   7.959
  808POPC   C4A14622  15.162  31.354   7.761
  808POPC   C1B14623  14.907  31.557   8.590
  808POPC   C2B14624  14.836  31.463   8.141
  808POPC   C3B14625  14.653  31.352   7.734
  808POPC   C4B14626  14.660  31.678   7.389
  809POPC   NC314627  25.180   3.982   9.326
  809POPC   PO414628  25.107   4.473   9.794
  809POPC   GL114629  25.329   4.448   9.306
  809POPC   GL214630  25.048   4.370   9.024
  809POPC   C1A14631  25.501   4.448   8.857
  809POPC   D2A14632  25.290   4.410   8.440
  809POPC   C3A14633  25.427   4.296   8.029
  809POPC   C4A14634  25.425   4.290   7.604
  809POPC   C1B14635  24.908   4.654   8.679
  809POPC   C2B14636  24.809   4.521   8.239
  809POPC   C3B14637  24.985   4.474   7.838
  809POPC   C4B14638  25.062   4.641   7.440
  810POPC   NC314639  26.853  30.679   9.556
  810POPC   PO414640  26.501  31.190   9.423
  810POPC   GL114641  26.747  31.006   9.088
  810POPC   GL214642  27.104  30.996   9.088
  810POPC   C1A14643  26.735  30.702   8.723
  810POPC   D2A14644  26.763  30.575   8.267
  810POPC   C3A14645  26.603  30.560   7.854
  810POPC   C4A14646  26.617  30.978   7.670
  810POPC   C1B14647  27.158  30.983   8.639
  810POPC   C2B14648  27.257  30.651   8.316
  810POPC   C3B14649  27.119  30.608   7.870
  810POPC   C4B14650  27.141  30.475   7.423
  811POPC   NC314651  20.903   1.534   9.488
  811POPC   PO414652  20.990   2.283   9.540
  811POPC   GL114653  20.829   2.014   9.205
  811POPC   GL214654  20.471   1.946   9.112
  811POPC   C1A14655  20.868   1.778   8.818
  811POPC   D2A14656  20.791   1.856   8.391
  811POPC   C3A14657  20.977   1.791   7.988
  811POPC   C4A14658  20.777   2.079   7.695
  811POPC   C1B14659  20.367   1.731   8.708
  811POPC   C2B14660  20.296   1.882   8.280
  811POPC   C3B14661  20.253   1.994   7.855
  811POPC   C4B14662  20.084   1.733   7.491
  812POPC   NC314663  19.798  10.578   9.460
  812POPC   PO414664  20.245  10.159   9.463
  812POPC   GL114665  20.163  10.393   9.102
  812POPC   GL214666  20.044  10.746   9.060
  812POPC   C1A14667  19.932  10.324   8.745
  812POPC   D2A14668  19.913  10.573   8.374
  812POPC   C3A14669  20.150  10.385   8.036
  812POPC   C4A14670  19.882  10.431   7.735
  812POPC   C1B14671  19.611  10.742   8.841
  812POPC   C2B14672  19.389  10.800   8.446
  812POPC   C3B14673  19.565  10.849   8.042
  812POPC   C4B14674  19.556  10.791   7.622
  813POPC   NC314675   5.668   9.143   9.455
  813POPC   PO414676   6.151   8.628   9.339
  813POPC   GL114677   5.891   8.872   9.060
  813POPC   GL214678   5.549   8.838   8.989
  813POPC   C1A14679   5.984   9.218   8.764
  813POPC   D2A14680   5.903   9.265   8.326
  813POPC   C3A14681   6.173   9.352   7.992
  813POPC   C4A14682   6.205   9.004   7.694
  813POPC   C1B14683   5.427   9.194   8.684
  813POPC   C2B14684   5.411   9.345   8.222
  813POPC   C3B14685   5.668   9.232   7.855
  813POPC   C4B14686   5.685   8.798   7.763
  814POPC   NC314687   5.488  40.830   9.449
  814POPC   PO414688   4.858  41.104   9.508
  814POPC   GL114689   4.913  40.967   9.099
  814POPC   GL214690   5.136  40.692   9.097
  814POPC   C1A14691   4.830  40.792   8.690
  814POPC   D2A14692   4.885  41.012   8.310
  814POPC   C3A14693   4.696  40.800   7.993
  814POPC   C4A14694   4.808  40.629   7.613
  814POPC   C1B14695   5.348  40.772   8.689
  814POPC   C2B14696   5.242  40.582   8.292
  814POPC   C3B14697   5.220  40.785   7.885
  814POPC   C4B14698   5.529  41.081   7.731
  815POPC   NC314699   3.400  28.831   9.272
  815POPC   PO414700   3.655  29.452   9.496
  815POPC   GL114701   3.700  29.243   9.129
  815POPC   GL214702   3.355  29.317   9.078
  815POPC   C1A14703   3.704  29.113   8.702
  815POPC   D2A14704   3.871  28.968   8.352
  815POPC   C3A14705   3.778  29.150   7.955
  815POPC   C4A14706   3.887  29.438   7.637
  815POPC   C1B14707   3.498  29.571   8.745
  815POPC   C2B14708   3.533  29.470   8.362
  815POPC   C3B14709   3.561  29.612   7.999
  815POPC   C4B14710   3.378  29.366   7.694
  816POPC   NC314711   2.809  33.541   9.473
  816POPC   PO414712   2.992  34.140   9.673
  816POPC   GL114713   2.878  33.960   9.206
  816POPC   GL214714   2.507  33.808   9.173
  816POPC   C1A14715   2.871  33.654   8.822
  816POPC   D2A14716   2.909  33.500   8.363
  816POPC   C3A14717   2.895  33.806   8.018
  816POPC   C4A14718   3.118  33.693   7.674
  816POPC   C1B14719   2.358  33.619   8.793
  816POPC   C2B14720   2.388  33.492   8.385
  816POPC   C3B14721   2.456  33.560   7.950
  816POPC   C4B14722   2.659  33.452   7.568
  817POPC   NC314723  22.502  41.354   9.443
  817POPC   PO414724  22.984  41.809   9.423
  817POPC   GL114725  22.787  41.663   9.061
  817POPC   GL214726  22.766  41.291   8.987
  817POPC   C1A14727  22.825  41.738   8.624
  817POPC   D2A14728  22.950  41.489   8.278
  817POPC   C3A14729  22.830  41.639   7.866
  817POPC   C4A14730  22.661  41.681   7.438
  817POPC   C1B14731  23.165  41.345   8.740
  817POPC   C2B14732  23.455  41.317   8.402
  817POPC   C3B14733  23.311  41.282   7.986
  817POPC   C4B14734  23.182  41.194   7.590
  818POPC   NC314735  29.339  40.365   9.821
  818POPC   PO414736  28.980  40.835   9.494
  818POPC   GL114737  28.943  40.762   9.093
  818POPC   GL214738  29.289  40.750   9.068
  818POPC   C1A14739  29.001  40.933   8.683
  818POPC   D2A14740  28.866  40.923   8.272
  818POPC   C3A14741  29.158  40.891   7.962
  818POPC   C4A14742  28.926  40.731   7.685
  818POPC   C1B14743  29.213  40.458   8.714
  818POPC   C2B14744  29.300  40.570   8.323
  818POPC   C3B14745  29.235  40.366   7.925
  818POPC   C4B14746  29.394  40.514   7.534
  819POPC   NC314747  39.365   5.148   9.448
  819POPC   PO414748  38.734   5.312   9.539
  819POPC   GL114749  38.986   5.362   9.194
  819POPC   GL214750  38.964   4.997   9.153
  819POPC   C1A14751  39.200   5.291   8.796
  819POPC   D2A14752  39.483   5.141   8.514
  819POPC   C3A14753  39.350   5.004   8.145
  819POPC   C4A14754  39.231   5.126   7.768
  819POPC   C1B14755  38.716   4.745   8.868
  819POPC   C2B14756  38.991   4.861   8.535
  819POPC   C3B14757  38.864   4.898   8.124
  819POPC   C4B14758  38.792   4.755   7.751
  820POPC   NC314759  19.378  12.727   9.468
  820POPC   PO414760  18.800  13.109   9.428
  820POPC   GL114761  19.075  12.955   9.115
  820POPC   GL214762  19.076  12.578   9.088
  820POPC   C1A14763  18.940  13.045   8.724
  820POPC   D2A14764  18.929  12.846   8.352
  820POPC   C3A14765  19.004  13.040   7.974
  820POPC   C4A14766  18.814  12.945   7.581
  820POPC   C1B14767  19.135  12.310   8.749
  820POPC   C2B14768  19.093  12.372   8.341
  820POPC   C3B14769  19.000  12.529   7.957
  820POPC   C4B14770  19.184  12.552   7.577
  821POPC   NC314771   2.383  12.113   9.428
  821POPC   PO414772   1.839  11.845   9.642
  821POPC   GL114773   1.793  11.750   9.212
  821POPC   GL214774   2.058  11.950   9.069
  821POPC   C1A14775   1.606  11.960   8.834
  821POPC   D2A14776   1.644  12.254   8.479
  821POPC   C3A14777   1.816  12.162   8.051
  821POPC   C4A14778   1.820  12.041   7.615
  821POPC   C1B14779   2.275  12.053   8.661
  821POPC   C2B14780   2.289  12.197   8.225
  821POPC   C3B14781   2.311  12.111   7.765
  821POPC   C4B14782   2.166  12.280   7.340
  822POPC   NC314783   3.908  29.848   9.474
  822POPC   PO414784   3.329  30.112   9.613
  822POPC   GL114785   3.552  30.149   9.227
  822POPC   GL214786   3.482  29.821   9.173
  822POPC   C1A14787   3.653  30.205   8.770
  822POPC   D2A14788   3.840  29.938   8.440
  822POPC   C3A14789   3.708  30.147   8.049
  822POPC   C4A14790   3.615  29.978   7.649
  822POPC   C1B14791   3.210  29.971   8.834
  822POPC   C2B14792   3.344  29.976   8.398
  822POPC   C3B14793   3.147  29.891   8.020
  822POPC   C4B14794   3.132  29.846   7.588
  823POPC   NC314795   2.556  29.351   9.406
  823POPC   PO414796   3.020  28.915   9.536
  823POPC   GL114797   2.986  28.975   9.055
  823POPC   GL214798   2.795  29.207   8.983
  823POPC   C1A14799   3.175  29.132   8.620
  823POPC   D2A14800   3.339  28.962   8.199
  823POPC   C3A14801   3.042  28.995   7.802
  823POPC   C4A14802   3.163  28.957   7.339
  823POPC   C1B14803   2.668  29.218   8.577
  823POPC   C2B14804   2.509  29.458   8.244
  823POPC   C3B14805   2.347  29.437   7.828
  823POPC   C4B14806   2.561  29.091   7.590
  824POPC   NC314807  11.280  39.730   9.576
  824POPC   PO414808  11.364  40.302   9.469
  824POPC   GL114809  11.168  40.026   9.131
  824POPC   GL214810  10.972  39.685   9.160
  824POPC   C1A14811  11.323  40.108   8.675
  824POPC   D2A14812  11.626  40.020   8.327
  824POPC   C3A14813  11.438  39.938   7.949
  824POPC   C4A14814  11.069  40.174   7.834
  824POPC   C1B14815  11.032  39.713   8.745
  824POPC   C2B14816  11.041  39.866   8.315
  824POPC   C3B14817  10.694  39.921   8.039
  824POPC   C4B14818  10.782  39.765   7.673
  825POPC   NC314819  34.851  13.101   9.428
  825POPC   PO414820  34.396  12.618   9.553
  825POPC   GL114821  34.425  12.648   9.143
  825POPC   GL214822  34.456  13.010   9.090
  825POPC   C1A14823  34.757  12.650   8.868
  825POPC   D2A14824  34.835  12.645   8.435
  825POPC   C3A14825  34.519  12.686   8.129
  825POPC   C4A14826  34.451  12.701   7.706
  825POPC   C1B14827  34.748  13.154   8.737
  825POPC   C2B14828  34.757  13.136   8.259
  825POPC   C3B14829  34.583  13.234   7.828
  825POPC   C4B14830  34.372  13.111   7.406
  826POPC   NC314831   0.979  25.898   9.520
  826POPC   PO414832   1.629  26.230   9.425
  826POPC   GL114833   1.358  26.301   9.097
  826POPC   GL214834   1.020  26.384   9.210
  826POPC   C1A14835   1.307  26.054   8.717
  826POPC   D2A14836   1.239  25.675   8.440
  826POPC   C3A14837   1.398  25.791   8.043
  826POPC   C4A14838   1.249  25.870   7.648
  826POPC   C1B14839   0.801  26.261   8.828
  826POPC   C2B14840   0.860  26.040   8.449
  826POPC   C3B14841   1.012  26.136   8.038
  826POPC   C4B14842   1.013  26.343   7.606
  827POPC   NC314843  26.140   2.617   9.535
  827POPC   PO414844  26.331   3.256   9.269
  827POPC   GL114845  26.127   2.843   9.088
  827POPC   GL214846  26.213   2.482   9.063
  827POPC   C1A14847  25.913   2.717   8.712
  827POPC   D2A14848  26.057   2.934   8.341
  827POPC   C3A14849  25.861   2.938   7.938
  827POPC   C4A14850  26.002   2.724   7.561
  827POPC   C1B14851  26.311   2.367   8.668
  827POPC   C2B14852  26.355   2.466   8.279
  827POPC   C3B14853  26.034   2.459   8.001
  827POPC   C4B14854  26.028   2.232   7.638
  828POPC   NC314855  29.398  44.684   9.441
  828POPC   PO414856  28.686  44.490   9.601
  828POPC   GL114857  28.933  44.593   9.242
  828POPC   GL214858  28.856  44.877   9.079
  828POPC   C1A14859  28.969  44.446   8.815
  828POPC   D2A14860  28.856  44.301   8.412
  828POPC   C3A14861  29.079  44.419   8.049
  828POPC   C4A14862  28.882  44.601   7.689
  828POPC   C1B14863  29.128  44.944   8.792
  828POPC   C2B14864  29.102   0.151   8.436
  828POPC   C3B14865  29.032  44.922   8.094
  828POPC   C4B14866  29.337  44.802   7.783
  829POPC   NC314867  13.945  32.686   9.528
  829POPC   PO414868  13.337  32.768   9.500
  829POPC   GL114869  13.619  32.949   9.173
  829POPC   GL214870  13.945  33.129   9.228
  829POPC   C1A14871  13.755  32.894   8.739
  829POPC   D2A14872  13.555  32.807   8.332
  829POPC   C3A14873  13.648  33.026   7.949
  829POPC   C4A14874  13.660  33.008   7.505
  829POPC   C1B14875  13.960  33.354   8.806
  829POPC   C2B14876  13.858  33.265   8.361
  829POPC   C3B14877  13.865  33.478   7.941
  829POPC   C4B14878  13.639  33.525   7.522
  830POPC   NC314879  32.805  22.823   9.617
  830POPC   PO414880  33.144  23.337   9.614
  830POPC   GL114881  33.040  23.063   9.235
  830POPC   GL214882  33.118  22.685   9.187
  830POPC   C1A14883  32.835  23.032   8.842
  830POPC   D2A14884  32.998  22.908   8.439
  830POPC   C3A14885  32.807  23.070   8.056
  830POPC   C4A14886  33.069  23.033   7.677
  830POPC   C1B14887  32.910  22.516   8.801
  830POPC   C2B14888  32.751  22.473   8.330
  830POPC   C3B14889  32.901  22.586   7.887
  830POPC   C4B14890  32.967  22.603   7.410
  831POPC   NC314891  32.783   8.347   9.481
  831POPC   PO414892  33.484   8.107   9.487
  831POPC   GL114893  33.147   8.236   9.168
  831POPC   GL214894  32.960   7.977   9.023
  831POPC   C1A14895  33.001   8.381   8.739
  831POPC   D2A14896  33.258   8.381   8.373
  831POPC   C3A14897  33.160   8.469   7.939
  831POPC   C4A14898  33.003   8.360   7.508
  831POPC   C1B14899  32.706   7.973   8.657
  831POPC   C2B14900  32.790   8.188   8.247
  831POPC   C3B14901  32.657   8.088   7.804
  831POPC   C4B14902  32.728   7.963   7.340
  832POPC   NC314903  30.587  35.900   9.461
  832POPC   PO414904  31.214  36.119   9.454
  832POPC   GL114905  30.951  36.054   9.077
  832POPC   GL214906  30.939  36.355   8.923
  832POPC   C1A14907  30.642  36.061   8.668
  832POPC   D2A14908  30.443  35.906   8.301
  832POPC   C3A14909  30.549  35.975   7.854
  832POPC   C4A14910  30.480  36.249   7.481
  832POPC   C1B14911  31.108  36.194   8.533
  832POPC   C2B14912  30.874  36.231   8.177
  832POPC   C3B14913  30.941  36.278   7.760
  832POPC   C4B14914  30.989  35.976   7.453
  833POPC   NC314915  40.831  35.044   9.508
  833POPC   PO414916  40.664  35.594   9.610
  833POPC   GL114917  40.605  35.410   9.203
  833POPC   GL214918  40.931  35.385   9.114
  833POPC   C1A14919  40.586  35.259   8.772
  833POPC   D2A14920  40.646  35.450   8.378
  833POPC   C3A14921  40.630  35.238   8.032
  833POPC   C4A14922  40.640  35.364   7.645
  833POPC   C1B14923  41.124  35.481   8.713
  833POPC   C2B14924  41.158  35.373   8.293
  833POPC   C3B14925  41.108  35.221   7.875
  833POPC   C4B14926  41.100  35.191   7.420
  834POPC   NC314927   7.534  41.620   9.651
  834POPC   PO414928   7.113  41.282   9.254
  834POPC   GL114929   7.356  41.651   9.104
  834POPC   GL214930   7.714  41.766   9.172
  834POPC   C1A14931   7.525  41.489   8.688
  834POPC   D2A14932   7.355  41.490   8.315
  834POPC   C3A14933   7.266  41.278   7.966
  834POPC   C4A14934   7.264  41.570   7.662
  834POPC   C1B14935   7.584  41.975   8.795
  834POPC   C2B14936   7.686  41.897   8.381
  834POPC   C3B14937   7.464  41.897   8.010
  834POPC   C4B14938   7.826  41.923   7.799
  835POPC   NC314939  19.201  34.721   9.601
  835POPC   PO414940  18.706  34.886   9.225
  835POPC   GL114941  18.940  34.490   9.210
  835POPC   GL214942  19.320  34.477   9.173
  835POPC   C1A14943  18.962  34.395   8.801
  835POPC   D2A14944  18.701  34.495   8.491
  835POPC   C3A14945  18.883  34.483   8.090
  835POPC   C4A14946  18.982  34.671   7.727
  835POPC   C1B14947  19.287  34.806   8.895
  835POPC   C2B14948  19.130  34.796   8.469
  835POPC   C3B14949  19.366  34.828   8.085
  835POPC   C4B14950  19.474  34.772   7.632
  836POPC   NC314951  12.113  38.476   9.716
  836POPC   PO414952  12.595  38.468   9.473
  836POPC   GL114953  12.165  38.417   9.202
  836POPC   GL214954  11.909  38.694   9.143
  836POPC   C1A14955  11.973  38.346   8.758
  836POPC   D2A14956  12.147  38.328   8.314
  836POPC   C3A14957  11.906  38.262   7.916
  836POPC   C4A14958  11.765  38.117   7.494
  836POPC   C1B14959  11.776  38.815   8.688
  836POPC   C2B14960  11.673  38.584   8.289
  836POPC   C3B14961  11.665  38.702   7.819
  836POPC   C4B14962  11.699  38.927   7.408
  837POPC   NC314963  16.840   3.922   9.742
  837POPC   PO414964  16.533   4.532   9.681
  837POPC   GL114965  16.587   4.453   9.257
  837POPC   GL214966  16.826   4.212   9.321
  837POPC   C1A14967  16.848   4.468   8.854
  837POPC   D2A14968  16.923   4.449   8.391
  837POPC   C3A14969  16.520   4.321   8.131
  837POPC   C4A14970  16.377   4.501   7.712
  837POPC   C1B14971  16.906   3.930   8.985
  837POPC   C2B14972  16.960   3.939   8.520
  837POPC   C3B14973  16.955   4.049   8.079
  837POPC   C4B14974  16.884   4.396   7.787
  838POPC   NC314975  33.871  17.312   9.638
  838POPC   PO414976  33.578  17.809   9.554
  838POPC   GL114977  33.645  17.519   9.183
  838POPC   GL214978  33.979  17.270   9.153
  838POPC   C1A14979  33.766  17.497   8.754
  838POPC   D2A14980  33.959  17.740   8.460
  838POPC   C3A14981  33.852  17.595   8.079
  838POPC   C4A14982  34.025  17.704   7.724
  838POPC   C1B14983  33.954  17.030   8.783
  838POPC   C2B14984  34.023  17.199   8.359
  838POPC   C3B14985  34.039  17.124   7.897
  838POPC   C4B14986  33.884  17.262   7.514
  839POPC   NC314987  29.274  16.041   9.782
  839POPC   PO414988  28.850  16.158   9.270
  839POPC   GL114989  29.278  16.044   9.221
  839POPC   GL214990  29.389  15.697   9.110
  839POPC   C1A14991  29.357  16.065   8.772
  839POPC   D2A14992  29.211  15.899   8.421
  839POPC   C3A14993  29.190  16.157   8.056
  839POPC   C4A14994  29.098  15.966   7.673
  839POPC   C1B14995  29.488  15.532   8.717
  839POPC   C2B14996  29.677  15.670   8.346
  839POPC   C3B14997  29.459  15.729   7.962
  839POPC   C4B14998  29.183  15.466   7.722
  840POPC   NC314999  44.975  20.238   9.842
  840POPC   PO415000   0.505  20.148   9.439
  840POPC   GL115001   0.286  19.886   9.212
  840POPC   GL215002   0.572  19.790   9.060
  840POPC   C1A15003   0.125  19.849   8.805
  840POPC   D2A15004   0.110  19.641   8.425
  840POPC   C3A15005   0.380  19.842   8.136
  840POPC   C4A15006   0.438  19.897   7.689
  840POPC   C1B15007   0.757  19.981   8.721
  840POPC   C2B15008   0.772  20.148   8.303
  840POPC   C3B15009   0.893  20.132   7.844
  840POPC   C4B15010   0.896  20.141   7.393
  841POPC   NC315011   8.346   5.295   9.512
  841POPC   PO415012   8.575   6.016   9.418
  841POPC   GL115013   8.242   5.887   9.113
  841POPC   GL215014   8.092   5.543   9.114
  841POPC   C1A15015   8.064   5.919   8.681
  841POPC   D2A15016   7.852   6.032   8.283
  841POPC   C3A15017   8.068   6.117   7.874
  841POPC   C4A15018   7.932   6.077   7.432
  841POPC   C1B15019   8.390   5.514   8.768
  841POPC   C2B15020   8.470   5.695   8.360
  841POPC   C3B15021   8.157   5.663   8.076
  841POPC   C4B15022   8.108   5.549   7.645
  842POPC   NC315023  42.583  33.376   9.468
  842POPC   PO415024  42.346  32.734   9.524
  842POPC   GL115025  42.287  32.980   9.177
  842POPC   GL215026  42.634  32.964   9.118
  842POPC   C1A15027  42.042  32.864   8.804
  842POPC   D2A15028  42.052  32.585   8.469
  842POPC   C3A15029  41.992  32.745   8.067
  842POPC   C4A15030  42.129  33.100   7.836
  842POPC   C1B15031  42.477  33.093   8.698
  842POPC   C2B15032  42.406  33.235   8.309
  842POPC   C3B15033  42.615  33.114   7.932
  842POPC   C4B15034  42.522  33.321   7.541
  843POPC   NC315035   0.245   5.385   9.352
  843POPC   PO415036   0.819   5.008   9.473
  843POPC   GL115037   0.595   5.109   9.127
  843POPC   GL215038   0.264   4.911   9.183
  843POPC   C1A15039   0.500   5.253   8.722
  843POPC   D2A15040   0.561   5.014   8.361
  843POPC   C3A15041   0.507   5.175   7.971
  843POPC   C4A15042   0.713   5.147   7.561
  843POPC   C1B15043   0.018   4.985   8.793
  843POPC   C2B15044   0.066   5.150   8.351
  843POPC   C3B15045  44.986   5.216   7.902
  843POPC   C4B15046   0.199   5.011   7.569
  844POPC   NC315047  34.285  25.789   9.399
  844POPC   PO415048  34.874  26.164   9.488
  844POPC   GL115049  34.628  26.099   9.174
  844POPC   GL215050  34.710  25.773   9.048
  844POPC   C1A15051  34.409  26.104   8.796
  844POPC   D2A15052  34.603  26.102   8.419
  844POPC   C3A15053  34.404  26.266   8.107
  844POPC   C4A15054  34.539  25.972   7.831
  844POPC   C1B15055  34.930  26.156   8.794
  844POPC   C2B15056  35.051  26.364   8.457
  844POPC   C3B15057  34.934  26.272   8.048
  844POPC   C4B15058  34.930  26.449   7.665
  845POPC   NC315059  10.225  38.758   9.489
  845POPC   PO415060  10.181  39.442   9.656
  845POPC   GL115061  10.303  39.349   9.186
  845POPC   GL215062  10.405  39.008   9.088
  845POPC   C1A15063  10.328  39.310   8.697
  845POPC   D2A15064  10.448  39.177   8.279
  845POPC   C3A15065  10.401  39.273   7.828
  845POPC   C4A15066  10.416  39.384   7.389
  845POPC   C1B15067  10.582  38.849   8.684
  845POPC   C2B15068  10.826  38.863   8.295
  845POPC   C3B15069  10.770  38.931   7.846
  845POPC   C4B15070  10.809  39.081   7.393
  846POPC   NC315071   7.663   4.964   9.522
  846POPC   PO415072   6.974   4.828   9.580
  846POPC   GL115073   7.137   5.021   9.168
  846POPC   GL215074   7.498   4.940   9.045
  846POPC   C1A15075   7.139   5.110   8.705
  846POPC   D2A15076   7.506   5.078   8.421
  846POPC   C3A15077   7.505   4.893   7.982
  846POPC   C4A15078   7.371   4.698   7.590
  846POPC   C1B15079   7.684   5.310   8.860
  846POPC   C2B15080   7.862   5.477   8.476
  846POPC   C3B15081   7.864   5.263   8.081
  846POPC   C4B15082   7.691   5.259   7.690
  847POPC   NC315083  41.267  14.803   9.462
  847POPC   PO415084  41.761  14.355   9.492
  847POPC   GL115085  41.520  14.449   9.174
  847POPC   GL215086  41.715  14.685   9.106
  847POPC   C1A15087  41.437  14.327   8.762
  847POPC   D2A15088  41.476  14.008   8.443
  847POPC   C3A15089  41.650  14.150   8.071
  847POPC   C4A15090  41.389  14.271   7.717
  847POPC   C1B15091  41.967  14.742   8.799
  847POPC   C2B15092  41.769  14.602   8.424
  847POPC   C3B15093  41.510  14.658   8.073
  847POPC   C4B15094  41.805  14.559   7.788
  848POPC   NC315095  10.653   6.619   9.653
  848POPC   PO415096  10.083   6.581   9.271
  848POPC   GL115097  10.471   6.558   9.078
  848POPC   GL215098  10.810   6.679   9.191
  848POPC   C1A15099  10.432   6.608   8.631
  848POPC   D2A15100  10.301   6.458   8.249
  848POPC   C3A15101  10.309   6.735   7.919
  848POPC   C4A15102  10.393   6.562   7.534
  848POPC   C1B15103  10.909   6.503   8.810
  848POPC   C2B15104  10.823   6.350   8.408
  848POPC   C3B15105  10.793   6.565   8.040
  848POPC   C4B15106  10.976   6.398   7.704
  849POPC   NC315107   7.640  10.886   9.759
  849POPC   PO415108   7.410  10.405   9.330
  849POPC   GL115109   7.396  10.212   9.001
  849POPC   GL215110   7.750  10.242   8.973
  849POPC   C1A15111   7.184  10.350   8.655
  849POPC   D2A15112   7.363  10.468   8.296
  849POPC   C3A15113   7.121  10.493   7.947
  849POPC   C4A15114   7.082  10.852   7.658
  849POPC   C1B15115   7.720  10.549   8.683
  849POPC   C2B15116   7.834  10.733   8.310
  849POPC   C3B15117   7.710  10.519   7.929
  849POPC   C4B15118   7.474  10.527   7.558
  850POPC   NC315119  32.633   7.359   9.521
  850POPC   PO415120  32.011   7.125   9.482
  850POPC   GL115121  32.232   7.398   9.181
  850POPC   GL215122  32.416   7.123   9.058
  850POPC   C1A15123  32.318   7.563   8.757
  850POPC   D2A15124  32.126   7.672   8.357
  850POPC   C3A15125  32.439   7.635   8.042
  850POPC   C4A15126  32.592   7.592   7.645
  850POPC   C1B15127  32.131   7.096   8.676
  850POPC   C2B15128  32.187   7.186   8.214
  850POPC   C3B15129  31.995   7.036   7.825
  850POPC   C4B15130  32.065   7.027   7.348
  851POPC   NC315131  33.507  30.053   9.487
  851POPC   PO415132  34.161  30.116   9.438
  851POPC   GL115133  33.843  30.016   9.107
  851POPC   GL215134  33.615  29.710   9.124
  851POPC   C1A15135  33.748  30.112   8.677
  851POPC   D2A15136  33.611  30.225   8.273
  851POPC   C3A15137  33.806  30.150   7.849
  851POPC   C4A15138  34.062  30.250   7.455
  851POPC   C1B15139  33.799  29.603   8.743
  851POPC   C2B15140  33.950  29.746   8.365
  851POPC   C3B15141  33.631  29.723   8.078
  851POPC   C4B15142  33.719  29.677   7.667
  852POPC   NC315143   4.946  18.308   9.516
  852POPC   PO415144   5.525  18.379   9.320
  852POPC   GL115145   5.225  18.140   9.142
  852POPC   GL215146   5.416  17.939   8.990
  852POPC   C1A15147   4.928  18.091   8.815
  852POPC   D2A15148   4.920  18.216   8.398
  852POPC   C3A15149   4.725  17.936   8.127
  852POPC   C4A15150   4.735  18.151   7.765
  852POPC   C1B15151   5.365  18.328   8.691
  852POPC   C2B15152   5.424  18.359   8.270
  852POPC   C3B15153   5.220  18.273   7.906
  852POPC   C4B15154   5.390  18.095   7.509
  853POPC   NC315155  36.552  12.460   9.440
  853POPC   PO415156  36.169  11.949   9.225
  853POPC   GL115157  35.902  12.115   8.982
  853POPC   GL215158  35.802  12.453   9.063
  853POPC   C1A15159  35.825  11.940   8.609
  853POPC   D2A15160  35.981  11.704   8.319
  853POPC   C3A15161  36.205  11.902   8.010
  853POPC   C4A15162  36.064  12.136   7.673
  853POPC   C1B15163  36.049  12.486   8.672
  853POPC   C2B15164  36.077  12.351   8.238
  853POPC   C3B15165  36.135  12.603   7.869
  853POPC   C4B15166  36.383  12.548   7.486
  854POPC   NC315167  35.152  35.244   9.520
  854POPC   PO415168  35.640  34.933   9.205
  854POPC   GL115169  35.287  35.100   9.023
  854POPC   GL215170  35.288  35.484   9.094
  854POPC   C1A15171  35.245  34.929   8.611
  854POPC   D2A15172  35.243  35.195   8.278
  854POPC   C3A15173  35.299  35.152   7.870
  854POPC   C4A15174  35.111  35.430   7.620
  854POPC   C1B15175  35.539  35.510   8.767
  854POPC   C2B15176  35.525  35.603   8.381
  854POPC   C3B15177  35.335  35.662   8.028
  854POPC   C4B15178  35.520  35.816   7.699
  855POPC   NC315179  34.303   2.399   9.797
  855POPC   PO415180  34.780   2.645   9.645
  855POPC   GL115181  34.938   2.647   9.176
  855POPC   GL215182  34.960   2.990   9.105
  855POPC   C1A15183  34.905   2.610   8.679
  855POPC   D2A15184  34.767   2.553   8.218
  855POPC   C3A15185  34.444   2.827   7.966
  855POPC   C4A15186  34.121   2.947   7.619
  855POPC   C1B15187  34.838   3.122   8.674
  855POPC   C2B15188  34.967   3.038   8.245
  855POPC   C3B15189  34.945   2.848   7.845
  855POPC   C4B15190  35.131   2.927   7.444
  856POPC   NC315191  40.948   9.614   9.407
  856POPC   PO415192  40.402   9.518   9.471
  856POPC   GL115193  40.385   9.731   9.066
  856POPC   GL215194  40.639   9.979   9.160
  856POPC   C1A15195  40.339   9.675   8.583
  856POPC   D2A15196  40.522   9.472   8.173
  856POPC   C3A15197  40.758   9.711   7.864
  856POPC   C4A15198  41.146   9.935   7.770
  856POPC   C1B15199  40.663  10.072   8.711
  856POPC   C2B15200  40.658   9.977   8.272
  856POPC   C3B15201  40.733  10.231   7.874
  856POPC   C4B15202  41.051  10.392   7.541
  857POPC   NC315203  14.514   9.444  10.076
  857POPC   PO415204  14.415   8.898   9.621
  857POPC   GL115205  14.317   9.035   9.185
  857POPC   GL215206  14.693   9.062   9.051
  857POPC   C1A15207  14.334   9.296   8.815
  857POPC   D2A15208  14.584   9.207   8.477
  857POPC   C3A15209  14.349   9.136   8.131
  857POPC   C4A15210  14.366   9.319   7.759
  857POPC   C1B15211  14.520   8.777   8.783
  857POPC   C2B15212  14.563   8.534   8.429
  857POPC   C3B15213  14.597   8.636   8.048
  857POPC   C4B15214  14.356   8.780   7.745
  858POPC   NC315215  20.130   3.099   9.467
  858POPC   PO415216  20.045   2.410   9.531
  858POPC   GL115217  19.984   2.728   9.113
  858POPC   GL215218  19.748   2.531   8.909
  858POPC   C1A15219  19.949   2.887   8.643
  858POPC   D2A15220  19.812   2.787   8.240
  858POPC   C3A15221  19.850   3.129   7.957
  858POPC   C4A15222  19.796   3.045   7.536
  858POPC   C1B15223  19.554   2.358   8.539
  858POPC   C2B15224  19.364   2.521   8.151
  858POPC   C3B15225  19.558   2.554   7.732
  858POPC   C4B15226  19.443   2.347   7.322
  859POPC   NC315227  19.481  39.689   9.533
  859POPC   PO415228  20.050  40.062   9.372
  859POPC   GL115229  19.719  39.858   9.100
  859POPC   GL215230  19.591  39.541   9.048
  859POPC   C1A15231  19.651  39.967   8.689
  859POPC   D2A15232  19.993  40.079   8.447
  859POPC   C3A15233  19.856  40.205   8.063
  859POPC   C4A15234  20.051  40.441   7.779
  859POPC   C1B15235  19.914  39.534   8.687
  859POPC   C2B15236  20.000  39.605   8.234
  859POPC   C3B15237  20.077  39.791   7.828
  859POPC   C4B15238  20.087  39.678   7.369
  860POPC   NC315239  17.762  14.039   9.327
  860POPC   PO415240  17.198  14.317   9.643
  860POPC   GL115241  17.289  14.270   9.204
  860POPC   GL215242  17.373  14.619   9.147
  860POPC   C1A15243  17.348  14.104   8.764
  860POPC   D2A15244  17.116  14.171   8.373
  860POPC   C3A15245  17.321  14.135   7.982
  860POPC   C4A15246  17.754  14.198   7.866
  860POPC   C1B15247  17.532  14.591   8.740
  860POPC   C2B15248  17.607  14.462   8.316
  860POPC   C3B15249  17.627  14.689   7.948
  860POPC   C4B15250  17.428  14.715   7.519
  861POPC   NC315251  43.593  41.143   9.410
  861POPC   PO415252  43.484  40.534   9.506
  861POPC   GL115253  43.825  40.594   9.191
  861POPC   GL215254  44.015  40.888   9.266
  861POPC   C1A15255  43.962  40.674   8.788
  861POPC   D2A15256  43.759  40.927   8.496
  861POPC   C3A15257  43.635  40.710   8.135
  861POPC   C4A15258  43.852  40.677   7.757
  861POPC   C1B15259  44.191  41.109   8.921
  861POPC   C2B15260  44.215  41.183   8.490
  861POPC   C3B15261  44.116  40.982   8.112
  861POPC   C4B15262  44.076  41.153   7.730
  862POPC   NC315263  39.333  26.494   9.499
  862POPC   PO415264  38.881  26.964   9.572
  862POPC   GL115265  38.965  26.701   9.207
  862POPC   GL215266  39.281  26.892   9.191
  862POPC   C1A15267  39.163  26.601   8.796
  862POPC   D2A15268  39.303  26.820   8.426
  862POPC   C3A15269  39.143  26.746   8.049
  862POPC   C4A15270  39.243  26.682   7.634
  862POPC   C1B15271  39.248  27.128   8.836
  862POPC   C2B15272  39.489  27.302   8.516
  862POPC   C3B15273  39.453  27.269   8.090
  862POPC   C4B15274  39.457  27.189   7.665
  863POPC   NC315275  14.986  14.166   9.547
  863POPC   PO415276  15.389  14.673   9.633
  863POPC   GL115277  15.319  14.480   9.194
  863POPC   GL215278  14.991  14.420   9.098
  863POPC   C1A15279  15.278  14.591   8.720
  863POPC   D2A15280  15.501  14.393   8.364
  863POPC   C3A15281  15.349  14.372   7.943
  863POPC   C4A15282  15.023  14.526   7.694
  863POPC   C1B15283  14.970  14.205   8.688
  863POPC   C2B15284  14.948  14.399   8.290
  863POPC   C3B15285  14.846  14.128   7.966
  863POPC   C4B15286  14.902  14.049   7.521
  864POPC   NC315287  23.697  44.249   9.394
  864POPC   PO415288  23.598  44.858   9.292
  864POPC   GL115289  23.721  44.579   8.983
  864POPC   GL215290  24.024  44.388   9.017
  864POPC   C1A15291  23.693  44.643   8.556
  864POPC   D2A15292  23.397  44.678   8.249
  864POPC   C3A15293  23.606  44.623   7.868
  864POPC   C4A15294  23.697  44.859   7.510
  864POPC   C1B15295  23.791  44.153   8.677
  864POPC   C2B15296  23.758  44.228   8.200
  864POPC   C3B15297  23.984  44.293   7.831
  864POPC   C4B15298  23.888  44.397   7.398
  865POPC   NC315299  36.494   5.125   9.563
  865POPC   PO415300  37.231   5.039   9.514
  865POPC   GL115301  37.072   5.075   9.140
  865POPC   GL215302  36.723   5.103   9.091
  865POPC   C1A15303  37.150   5.240   8.753
  865POPC   D2A15304  36.850   5.147   8.463
  865POPC   C3A15305  36.913   5.211   8.041
  865POPC   C4A15306  37.294   5.240   7.887
  865POPC   C1B15307  36.519   4.807   8.790
  865POPC   C2B15308  36.510   4.804   8.315
  865POPC   C3B15309  36.646   4.786   7.873
  865POPC   C4B15310  36.608   4.694   7.418
  866POPC   NC315311  33.545  42.169   9.434
  866POPC   PO415312  33.809  42.719   9.402
  866POPC   GL115313  33.585  42.562   9.078
  866POPC   GL215314  33.834  42.294   9.043
  866POPC   C1A15315  33.674  42.555   8.641
  866POPC   D2A15316  33.940  42.350   8.340
  866POPC   C3A15317  33.765  42.417   7.935
  866POPC   C4A15318  33.935  42.684   7.642
  866POPC   C1B15319  33.816  42.009   8.718
  866POPC   C2B15320  34.034  41.840   8.382
  866POPC   C3B15321  33.907  41.911   8.015
  866POPC   C4B15322  33.510  41.971   7.873
  867POPC   NC315323  31.406  37.245   9.467
  867POPC   PO415324  31.042  37.935   9.477
  867POPC   GL115325  31.406  37.718   9.240
  867POPC   GL215326  31.330  37.882   8.973
  867POPC   C1A15327  31.618  37.530   8.811
  867POPC   D2A15328  31.397  37.650   8.407
  867POPC   C3A15329  31.642  37.543   8.023
  867POPC   C4A15330  31.850  37.851   7.765
  867POPC   C1B15331  31.026  38.054   8.724
  867POPC   C2B15332  31.059  38.066   8.302
  867POPC   C3B15333  31.421  38.018   8.015
  867POPC   C4B15334  31.422  38.224   7.601
  868POPC   NC315335  39.613  34.696   9.448
  868POPC   PO415336  40.357  34.903   9.506
  868POPC   GL115337  40.082  34.643   9.184
  868POPC   GL215338  39.802  34.822   9.012
  868POPC   C1A15339  40.137  34.372   8.804
  868POPC   D2A15340  40.326  34.431   8.390
  868POPC   C3A15341  40.086  34.396   8.009
  868POPC   C4A15342  39.925  34.736   7.720
  868POPC   C1B15343  39.765  34.968   8.622
  868POPC   C2B15344  39.882  34.824   8.241
  868POPC   C3B15345  39.603  35.015   8.007
  868POPC   C4B15346  39.416  34.929   7.633
  869POPC   NC315347  23.394  13.912   9.587
  869POPC   PO415348  23.867  13.413   9.483
  869POPC   GL115349  23.826  13.789   9.233
  869POPC   GL215350  23.491  13.721   9.121
  869POPC   C1A15351  23.856  13.859   8.786
  869POPC   D2A15352  23.649  13.663   8.440
  869POPC   C3A15353  23.913  13.748   8.093
  869POPC   C4A15354  23.946  13.908   7.698
  869POPC   C1B15355  23.672  13.368   8.860
  869POPC   C2B15356  23.561  13.136   8.479
  869POPC   C3B15357  23.608  13.300   8.043
  869POPC   C4B15358  23.458  13.264   7.619
  870POPC   NC315359  42.952   2.156   9.486
  870POPC   PO415360  43.309   1.681   9.587
  870POPC   GL115361  43.264   1.874   9.181
  870POPC   GL215362  42.939   1.873   9.056
  870POPC   C1A15363  43.384   1.972   8.778
  870POPC   D2A15364  43.290   2.111   8.374
  870POPC   C3A15365  43.303   1.823   8.037
  870POPC   C4A15366  43.420   2.015   7.690
  870POPC   C1B15367  42.849   2.075   8.658
  870POPC   C2B15368  42.872   2.352   8.294
  870POPC   C3B15369  42.875   2.190   7.877
  870POPC   C4B15370  42.762   2.363   7.490
  871POPC   NC315371  36.499  32.059   9.435
  871POPC   PO415372  35.864  32.375   9.470
  871POPC   GL115373  36.080  32.177   9.146
  871POPC   GL215374  36.309  32.409   9.077
  871POPC   C1A15375  36.183  32.051   8.713
  871POPC   D2A15376  36.376  32.032   8.290
  871POPC   C3A15377  36.048  31.974   7.974
  871POPC   C4A15378  36.023  31.918   7.520
  871POPC   C1B15379  36.170  32.661   8.757
  871POPC   C2B15380  36.130  32.478   8.371
  871POPC   C3B15381  36.181  32.466   7.935
  871POPC   C4B15382  36.275  32.386   7.514
  872POPC   NC315383  16.694  10.899   9.790
  872POPC   PO415384  16.567  11.405   9.312
  872POPC   GL115385  16.515  11.229   8.968
  872POPC   GL215386  16.860  11.363   8.909
  872POPC   C1A15387  16.528  11.231   8.552
  872POPC   D2A15388  16.367  11.397   8.221
  872POPC   C3A15389  16.468  11.150   7.921
  872POPC   C4A15390  16.725  11.418   7.739
  872POPC   C1B15391  17.022  11.585   8.599
  872POPC   C2B15392  16.896  11.416   8.210
  872POPC   C3B15393  16.955  11.013   7.969
  872POPC   C4B15394  16.986  11.046   7.510
  873POPC   NC315395  21.544  33.570   9.442
  873POPC   PO415396  21.110  34.067   9.606
  873POPC   GL115397  21.159  33.873   9.219
  873POPC   GL215398  21.487  33.988   9.110
  873POPC   C1A15399  21.145  33.725   8.788
  873POPC   D2A15400  21.381  33.909   8.430
  873POPC   C3A15401  21.153  33.835   8.056
  873POPC   C4A15402  21.211  33.720   7.648
  873POPC   C1B15403  21.643  33.651   8.799
  873POPC   C2B15404  21.775  33.586   8.359
  873POPC   C3B15405  21.639  33.726   7.948
  873POPC   C4B15406  21.838  33.719   7.534
  874POPC   NC315407   9.453  11.508   9.545
  874POPC   PO415408  10.132  11.691   9.493
  874POPC   GL115409   9.852  11.513   9.132
  874POPC   GL215410   9.481  11.449   9.029
  874POPC   C1A15411   9.854  11.335   8.696
  874POPC   D2A15412   9.714  11.460   8.288
  874POPC   C3A15413   9.808  11.180   7.943
  874POPC   C4A15414   9.740  11.285   7.482
  874POPC   C1B15415   9.428  11.038   8.778
  874POPC   C2B15416   9.363  10.875   8.355
  874POPC   C3B15417   9.304  11.045   7.921
  874POPC   C4B15418   9.270  11.097   7.462
  875POPC   NC315419  40.171  33.711   9.432
  875POPC   PO415420  39.667  34.180   9.496
  875POPC   GL115421  39.847  33.994   9.117
  875POPC   GL215422  39.876  33.615   9.045
  875POPC   C1A15423  39.816  33.928   8.679
  875POPC   D2A15424  40.098  33.964   8.381
  875POPC   C3A15425  39.820  33.973   8.048
  875POPC   C4A15426  39.844  33.813   7.679
  875POPC   C1B15427  40.215  33.557   8.728
  875POPC   C2B15428  40.413  33.502   8.373
  875POPC   C3B15429  40.197  33.602   8.035
  875POPC   C4B15430  40.283  33.484   7.638
  876POPC   NC315431   6.450  20.840   9.713
  876POPC   PO415432   7.070  20.926   9.614
  876POPC   GL115433   6.773  20.660   9.273
  876POPC   GL215434   6.776  20.307   9.125
  876POPC   C1A15435   6.579  20.609   8.804
  876POPC   D2A15436   6.512  20.365   8.397
  876POPC   C3A15437   6.607  20.626   8.045
  876POPC   C4A15438   6.409  20.697   7.654
  876POPC   C1B15439   6.879  20.163   8.691
  876POPC   C2B15440   6.991  20.291   8.230
  876POPC   C3B15441   6.851  20.290   7.766
  876POPC   C4B15442   7.113  20.392   7.369
  877POPC   NC315443   8.749  29.250   9.445
  877POPC   PO415444   9.204  28.822   9.505
  877POPC   GL115445   9.049  29.004   9.115
  877POPC   GL215446   8.725  28.864   9.058
  877POPC   C1A15447   9.126  29.118   8.677
  877POPC   D2A15448   9.389  28.908   8.384
  877POPC   C3A15449   9.226  28.906   7.966
  877POPC   C4A15450   9.175  29.081   7.521
  877POPC   C1B15451   8.641  29.220   8.793
  877POPC   C2B15452   8.699  29.188   8.344
  877POPC   C3B15453   8.818  29.225   7.892
  877POPC   C4B15454   8.768  29.401   7.461
  878POPC   NC315455  10.909  40.385   9.563
  878POPC   PO415456  10.199  40.411   9.668
  878POPC   GL115457  10.569  40.610   9.293
  878POPC   GL215458  10.715  40.957   9.173
  878POPC   C1A15459  10.600  40.620   8.811
  878POPC   D2A15460  10.299  40.626   8.462
  878POPC   C3A15461  10.433  40.870   8.123
  878POPC   C4A15462  10.819  40.828   7.829
  878POPC   C1B15463  10.668  41.142   8.744
  878POPC   C2B15464  10.834  41.208   8.326
  878POPC   C3B15465  10.620  41.275   7.912
  878POPC   C4B15466  10.349  41.052   7.622
  879POPC   NC315467  29.954  38.678   9.511
  879POPC   PO415468  30.233  38.018   9.559
  879POPC   GL115469  30.168  38.254   9.178
  879POPC   GL215470  29.845  38.401   9.101
  879POPC   C1A15471  30.236  38.498   8.790
  879POPC   D2A15472  29.978  38.578   8.425
  879POPC   C3A15473  30.029  38.224   8.154
  879POPC   C4A15474  30.137  38.171   7.733
  879POPC   C1B15475  29.841  38.843   8.892
  879POPC   C2B15476  29.561  38.978   8.561
  879POPC   C3B15477  29.640  38.884   8.137
  879POPC   C4B15478  29.992  38.664   7.899
  880POPC   NC315479  44.984  36.685   9.494
  880POPC   PO415480   0.585  37.048   9.563
  880POPC   GL115481   0.465  36.838   9.190
  880POPC   GL215482   0.684  37.074   9.068
  880POPC   C1A15483   0.272  36.773   8.779
  880POPC   D2A15484   0.136  36.664   8.359
  880POPC   C3A15485   0.251  36.886   7.987
  880POPC   C4A15486   0.562  36.762   7.688
  880POPC   C1B15487   0.583  37.169   8.701
  880POPC   C2B15488   0.607  36.940   8.346
  880POPC   C3B15489   0.698  37.142   7.968
  880POPC   C4B15490   0.864  37.299   7.565
  881POPC   NC315491  18.535   7.453   9.716
  881POPC   PO415492  17.992   7.546   9.219
  881POPC   GL115493  18.158   7.495   8.866
  881POPC   GL215494  18.295   7.185   8.977
  881POPC   C1A15495  18.177   7.551   8.466
  881POPC   D2A15496  18.475   7.669   8.187
  881POPC   C3A15497  18.295   7.591   7.809
  881POPC   C4A15498  18.197   7.629   7.369
  881POPC   C1B15499  18.220   7.064   8.602
  881POPC   C2B15500  18.296   7.149   8.157
  881POPC   C3B15501  18.649   7.254   7.907
  881POPC   C4B15502  18.449   7.174   7.514
  882POPC   NC315503   4.356  34.035   9.478
  882POPC   PO415504   4.009  33.421   9.450
  882POPC   GL115505   4.322  33.642   9.192
  882POPC   GL215506   4.059  33.939   9.076
  882POPC   C1A15507   4.483  33.877   8.803
  882POPC   D2A15508   4.179  33.943   8.462
  882POPC   C3A15509   4.310  33.960   8.044
  882POPC   C4A15510   4.361  34.050   7.588
  882POPC   C1B15511   4.050  33.562   8.801
  882POPC   C2B15512   4.051  33.399   8.434
  882POPC   C3B15513   3.908  33.651   8.114
  882POPC   C4B15514   4.001  33.653   7.738
  883POPC   NC315515   8.293  37.633   9.756
  883POPC   PO415516   8.536  37.373   9.192
  883POPC   GL115517   8.180  37.505   9.006
  883POPC   GL215518   7.931  37.560   9.255
  883POPC   C1A15519   8.134  37.489   8.557
  883POPC   D2A15520   8.270  37.794   8.234
  883POPC   C3A15521   8.292  37.704   7.787
  883POPC   C4A15522   8.384  37.816   7.363
  883POPC   C1B15523   7.699  37.384   8.881
  883POPC   C2B15524   7.706  37.214   8.447
  883POPC   C3B15525   7.917  37.360   8.066
  883POPC   C4B15526   7.761  37.367   7.646
  884POPC   NC315527  12.155  10.117   9.314
  884POPC   PO415528  11.917   9.548   9.610
  884POPC   GL115529  12.063   9.590   9.161
  884POPC   GL215530  11.807   9.782   9.160
  884POPC   C1A15531  11.885   9.583   8.687
  884POPC   D2A15532  11.855   9.514   8.204
  884POPC   C3A15533  12.179   9.655   7.861
  884POPC   C4A15534  12.369   9.588   7.456
  884POPC   C1B15535  11.686  10.032   8.847
  884POPC   C2B15536  11.694   9.999   8.418
  884POPC   C3B15537  11.982  10.028   8.120
  884POPC   C4B15538  12.028  10.141   7.695
  885POPC   NC315539  16.417  13.392   9.444
  885POPC   PO415540  16.869  13.761   9.580
  885POPC   GL115541  16.702  13.833   9.186
  885POPC   GL215542  16.682  13.518   9.019
  885POPC   C1A15543  16.823  13.974   8.775
  885POPC   D2A15544  16.857  13.726   8.404
  885POPC   C3A15545  16.831  13.932   7.991
  885POPC   C4A15546  16.605  13.855   7.616
  885POPC   C1B15547  16.368  13.301   8.757
  885POPC   C2B15548  16.414  13.453   8.347
  885POPC   C3B15549  16.709  13.422   8.023
  885POPC   C4B15550  16.587  13.360   7.647
  886POPC   NC315551  26.022  18.875   9.518
  886POPC   PO415552  26.581  18.713   9.637
  886POPC   GL115553  26.477  18.928   9.168
  886POPC   GL215554  26.166  19.107   9.074
  886POPC   C1A15555  26.475  18.955   8.682
  886POPC   D2A15556  26.265  19.142   8.327
  886POPC   C3A15557  26.152  19.101   7.911
  886POPC   C4A15558  25.877  18.950   7.569
  886POPC   C1B15559  25.915  19.145   8.712
  886POPC   C2B15560  25.733  19.112   8.293
  886POPC   C3B15561  25.701  19.350   7.927
  886POPC   C4B15562  25.888  19.466   7.543
  887POPC   NC315563  34.405  28.810   9.468
  887POPC   PO415564  34.695  29.396   9.575
  887POPC   GL115565  34.758  29.146   9.180
  887POPC   GL215566  34.476  29.164   9.006
  887POPC   C1A15567  34.867  28.976   8.751
  887POPC   D2A15568  34.707  29.132   8.369
  887POPC   C3A15569  34.813  28.957   7.984
  887POPC   C4A15570  34.880  29.089   7.586
  887POPC   C1B15571  34.454  29.486   8.644
  887POPC   C2B15572  34.485  29.664   8.224
  887POPC   C3B15573  34.559  29.389   7.880
  887POPC   C4B15574  34.353  29.004   7.773
  888POPC   NC315575   2.302   6.693   9.489
  888POPC   PO415576   2.819   6.167   9.481
  888POPC   GL115577   2.669   6.454   9.208
  888POPC   GL215578   2.346   6.405   9.088
  888POPC   C1A15579   2.706   6.670   8.830
  888POPC   D2A15580   2.915   6.521   8.474
  888POPC   C3A15581   2.840   6.755   8.136
  888POPC   C4A15582   2.924   6.641   7.734
  888POPC   C1B15583   2.393   6.255   8.666
  888POPC   C2B15584   2.407   6.196   8.234
  888POPC   C3B15585   2.476   6.459   7.881
  888POPC   C4B15586   2.464   6.950   7.847
  889POPC   NC315587  28.145  42.518   9.276
  889POPC   PO415588  28.561  42.049   9.472
  889POPC   GL115589  28.583  42.310   9.112
  889POPC   GL215590  28.322  42.094   9.023
  889POPC   C1A15591  28.482  42.407   8.648
  889POPC   D2A15592  28.478  42.507   8.196
  889POPC   C3A15593  28.086  42.584   8.019
  889POPC   C4A15594  27.851  42.367   7.739
  889POPC   C1B15595  28.328  41.808   8.729
  889POPC   C2B15596  28.384  41.958   8.355
  889POPC   C3B15597  28.224  42.078   7.998
  889POPC   C4B15598  28.401  42.336   7.686
  890POPC   NC315599   4.562  20.783   9.501
  890POPC   PO415600   4.528  20.126   9.506
  890POPC   GL115601   4.254  20.344   9.200
  890POPC   GL215602   4.193  20.719   9.149
  890POPC   C1A15603   4.042  20.382   8.806
  890POPC   D2A15604   4.239  20.593   8.457
  890POPC   C3A15605   4.316  20.380   8.065
  890POPC   C4A15606   4.154  20.628   7.755
  890POPC   C1B15607   4.507  20.850   8.842
  890POPC   C2B15608   4.636  20.963   8.431
  890POPC   C3B15609   4.494  20.857   8.073
  890POPC   C4B15610   4.645  20.808   7.697
  891POPC   NC315611  24.319   5.058   9.553
  891POPC   PO415612  24.839   4.651   9.371
  891POPC   GL115613  24.585   4.905   9.074
  891POPC   GL215614  24.304   5.151   9.047
  891POPC   C1A15615  24.558   5.037   8.645
  891POPC   D2A15616  24.753   5.016   8.291
  891POPC   C3A15617  24.591   5.197   7.970
  891POPC   C4A15618  24.694   4.894   7.692
  891POPC   C1B15619  24.171   5.373   8.679
  891POPC   C2B15620  24.134   5.182   8.258
  891POPC   C3B15621  24.091   5.232   7.788
  891POPC   C4B15622  24.121   5.433   7.366
  892POPC   NC315623  29.808  21.711   9.575
  892POPC   PO415624  29.953  21.079   9.597
  892POPC   GL115625  30.001  21.212   9.148
  892POPC   GL215626  30.149  21.576   9.217
  892POPC   C1A15627  29.834  21.205   8.693
  892POPC   D2A15628  29.775  21.465   8.279
  892POPC   C3A15629  29.899  21.267   7.847
  892POPC   C4A15630  29.727  21.278   7.390
  892POPC   C1B15631  30.110  21.612   8.779
  892POPC   C2B15632  30.277  21.380   8.429
  892POPC   C3B15633  30.414  21.264   8.005
  892POPC   C4B15634  30.311  21.222   7.563
  893POPC   NC315635  26.241  36.497   9.714
  893POPC   PO415636  26.335  35.835   9.541
  893POPC   GL115637  26.135  36.004   9.164
  893POPC   GL215638  25.989  36.323   9.282
  893POPC   C1A15639  25.930  36.152   8.767
  893POPC   D2A15640  25.770  36.293   8.349
  893POPC   C3A15641  25.851  36.179   7.888
  893POPC   C4A15642  25.591  36.391   7.551
  893POPC   C1B15643  26.285  36.490   8.984
  893POPC   C2B15644  26.291  36.444   8.533
  893POPC   C3B15645  26.240  36.461   8.083
  893POPC   C4B15646  26.375  36.300   7.690
  894POPC   NC315647  18.248  44.095   9.529
  894POPC   PO415648  18.150  43.434   9.727
  894POPC   GL115649  18.311  43.622   9.315
  894POPC   GL215650  17.994  43.821   9.193
  894POPC   C1A15651  18.333  43.643   8.852
  894POPC   D2A15652  18.177  43.803   8.488
  894POPC   C3A15653  18.094  43.708   8.084
  894POPC   C4A15654  18.384  43.663   7.756
  894POPC   C1B15655  18.052  44.141   8.867
  894POPC   C2B15656  18.215  44.311   8.474
  894POPC   C3B15657  18.407  44.148   8.118
  894POPC   C4B15658  18.155  44.132   7.776
  895POPC   NC315659  17.082   8.498   9.163
  895POPC   PO415660  16.666   7.942   9.391
  895POPC   GL115661  16.617   8.214   9.064
  895POPC   GL215662  16.398   8.499   9.126
  895POPC   C1A15663  16.846   8.120   8.695
  895POPC   D2A15664  16.781   7.981   8.314
  895POPC   C3A15665  17.032   8.322   8.161
  895POPC   C4A15666  16.867   8.570   7.826
  895POPC   C1B15667  16.344   8.445   8.685
  895POPC   C2B15668  16.563   8.460   8.292
  895POPC   C3B15669  16.566   8.165   7.902
  895POPC   C4B15670  16.340   8.007   7.560
  896POPC   NC315671  35.916  37.300   9.452
  896POPC   PO415672  36.125  37.986   9.503
  896POPC   GL115673  36.243  37.762   9.138
  896POPC   GL215674  35.927  37.646   9.100
  896POPC   C1A15675  36.194  37.721   8.699
  896POPC   D2A15676  36.073  37.726   8.317
  896POPC   C3A15677  36.245  37.464   8.029
  896POPC   C4A15678  36.189  37.682   7.646
  896POPC   C1B15679  35.842  37.343   8.757
  896POPC   C2B15680  35.694  37.396   8.339
  896POPC   C3B15681  35.753  37.599   7.929
  896POPC   C4B15682  35.716  37.606   7.466
  897POPC   NC315683  43.050  21.923   9.468
  897POPC   PO415684  42.916  22.577   9.601
  897POPC   GL115685  43.068  22.372   9.148
  897POPC   GL215686  43.229  22.012   9.006
  897POPC   C1A15687  43.072  22.357   8.669
  897POPC   D2A15688  43.365  22.303   8.329
  897POPC   C3A15689  43.110  22.230   7.936
  897POPC   C4A15690  42.787  22.330   7.660
  897POPC   C1B15691  43.103  21.709   8.724
  897POPC   C2B15692  43.074  21.888   8.336
  897POPC   C3B15693  43.220  21.741   7.936
  897POPC   C4B15694  43.262  21.981   7.519
  898POPC   NC315695   5.510  35.113   9.438
  898POPC   PO415696   4.919  35.490   9.493
  898POPC   GL115697   5.243  35.427   9.145
  898POPC   GL215698   5.308  35.080   8.975
  898POPC   C1A15699   5.246  35.558   8.726
  898POPC   D2A15700   4.955  35.762   8.434
  898POPC   C3A15701   5.032  35.642   8.020
  898POPC   C4A15702   5.201  35.572   7.613
  898POPC   C1B15703   4.894  35.199   8.827
  898POPC   C2B15704   4.800  35.285   8.390
  898POPC   C3B15705   4.934  35.142   7.998
  898POPC   C4B15706   4.904  34.738   7.845
  899POPC   NC315707   7.906   4.120   9.494
  899POPC   PO415708   8.573   4.061   9.416
  899POPC   GL115709   8.305   4.209   9.089
  899POPC   GL215710   7.928   4.251   8.980
  899POPC   C1A15711   8.333   4.127   8.656
  899POPC   D2A15712   8.219   4.375   8.316
  899POPC   C3A15713   8.432   4.277   7.964
  899POPC   C4A15714   8.167   4.190   7.656
  899POPC   C1B15715   7.808   4.627   8.733
  899POPC   C2B15716   7.952   4.819   8.354
  899POPC   C3B15717   8.026   4.789   7.951
  899POPC   C4B15718   7.846   4.583   7.648
  900POPC   NC315719  27.096  39.959   9.427
  900POPC   PO415720  26.503  39.542   9.570
  900POPC   GL115721  26.567  39.589   9.110
  900POPC   GL215722  26.841  39.737   9.068
  900POPC   C1A15723  26.534  39.737   8.669
  900POPC   D2A15724  26.675  40.081   8.424
  900POPC   C3A15725  26.655  40.022   8.033
  900POPC   C4A15726  26.531  39.860   7.659
  900POPC   C1B15727  27.025  39.947   8.760
  900POPC   C2B15728  27.196  40.097   8.401
  900POPC   C3B15729  27.146  40.192   8.013
  900POPC   C4B15730  27.013  39.973   7.668
  901POPC   NC315731  40.357  12.701   9.399
  901POPC   PO415732  40.884  13.070   9.560
  901POPC   GL115733  40.770  12.882   9.197
  901POPC   GL215734  40.584  13.146   9.031
  901POPC   C1A15735  40.698  12.716   8.799
  901POPC   D2A15736  40.754  12.940   8.459
  901POPC   C3A15737  40.737  12.775   8.073
  901POPC   C4A15738  40.649  12.956   7.708
  901POPC   C1B15739  41.051  13.104   8.858
  901POPC   C2B15740  41.229  13.118   8.432
  901POPC   C3B15741  41.106  13.121   8.026
  901POPC   C4B15742  41.108  13.144   7.614
  902POPC   NC315743  27.924  27.621   9.457
  902POPC   PO415744  27.232  27.447   9.435
  902POPC   GL115745  27.426  27.689   9.077
  902POPC   GL215746  27.783  27.789   9.004
  902POPC   C1A15747  27.420  27.659   8.654
  902POPC   D2A15748  27.169  27.398   8.397
  902POPC   C3A15749  27.287  27.508   8.002
  902POPC   C4A15750  27.628  27.429   7.766
  902POPC   C1B15751  27.947  27.817   8.575
  902POPC   C2B15752  27.862  27.616   8.174
  902POPC   C3B15753  27.843  27.895   7.761
  902POPC   C4B15754  27.811  28.034   7.301
  903POPC   NC315755  44.030  23.487   9.510
  903POPC   PO415756  43.625  24.019   9.330
  903POPC   GL115757  43.854  23.763   9.105
  903POPC   GL215758  44.170  23.877   9.224
  903POPC   C1A15759  43.896  23.483   8.751
  903POPC   D2A15760  44.005  23.379   8.330
  903POPC   C3A15761  43.706  23.518   8.026
  903POPC   C4A15762  43.735  23.695   7.590
  903POPC   C1B15763  44.236  23.872   8.796
  903POPC   C2B15764  44.220  23.880   8.375
  903POPC   C3B15765  44.078  23.845   7.964
  903POPC   C4B15766  44.261  23.865   7.569
  904POPC   NC315767  41.348  14.042   9.444
  904POPC   PO415768  41.738  13.583   9.654
  904POPC   GL115769  41.660  13.664   9.218
  904POPC   GL215770  41.527  13.367   9.081
  904POPC   C1A15771  41.735  13.762   8.791
  904POPC   D2A15772  41.709  13.470   8.430
  904POPC   C3A15773  41.917  13.573   8.020
  904POPC   C4A15774  41.761  13.849   7.665
  904POPC   C1B15775  41.286  13.545   8.705
  904POPC   C2B15776  41.246  13.583   8.232
  904POPC   C3B15777  41.447  13.468   7.820
  904POPC   C4B15778  41.549  13.278   7.381
  905POPC   NC315779  18.136   0.608   9.413
  905POPC   PO415780  18.421   1.199   9.512
  905POPC   GL115781  18.275   1.061   9.165
  905POPC   GL215782  17.932   1.093   9.221
  905POPC   C1A15783  18.428   0.945   8.795
  905POPC   D2A15784  18.306   1.170   8.451
  905POPC   C3A15785  18.409   1.031   8.060
  905POPC   C4A15786  18.308   1.164   7.656
  905POPC   C1B15787  17.912   0.943   8.767
  905POPC   C2B15788  17.833   1.001   8.312
  905POPC   C3B15789  17.840   1.122   7.872
  905POPC   C4B15790  17.882   0.934   7.465
  906POPC   NC315791  19.984  26.719   9.472
  906POPC   PO415792  19.554  27.263   9.506
  906POPC   GL115793  19.489  26.930   9.152
  906POPC   GL215794  19.800  26.756   9.011
  906POPC   C1A15795  19.479  26.897   8.665
  906POPC   D2A15796  19.851  26.890   8.346
  906POPC   C3A15797  19.700  26.767   7.925
  906POPC   C4A15798  19.674  26.863   7.483
  906POPC   C1B15799  20.143  26.618   8.733
  906POPC   C2B15800  20.206  26.418   8.318
  906POPC   C3B15801  20.197  26.637   7.931
  906POPC   C4B15802  20.014  26.481   7.547
  907POPC   NC315803  30.953  33.126   9.340
  907POPC   PO415804  31.652  33.082   9.595
  907POPC   GL115805  31.432  32.961   9.245
  907POPC   GL215806  31.469  33.257   9.114
  907POPC   C1A15807  31.390  32.857   8.814
  907POPC   D2A15808  31.570  32.891   8.420
  907POPC   C3A15809  31.421  32.869   8.005
  907POPC   C4A15810  31.697  32.809   7.667
  907POPC   C1B15811  31.349  33.376   8.695
  907POPC   C2B15812  31.561  33.396   8.269
  907POPC   C3B15813  31.542  33.326   7.803
  907POPC   C4B15814  31.467  33.457   7.342
  908POPC   NC315815  44.796  16.059   9.836
  908POPC   PO415816  44.553  16.337   9.252
  908POPC   GL115817  44.720  16.047   8.986
  908POPC   GL215818  44.599  15.754   9.075
  908POPC   C1A15819  44.604  15.946   8.601
  908POPC   D2A15820  44.470  16.270   8.361
  908POPC   C3A15821  44.670  16.167   8.016
  908POPC   C4A15822  44.501  16.031   7.657
  908POPC   C1B15823  44.930  15.582   8.742
  908POPC   C2B15824  44.967  15.665   8.270
  908POPC   C3B15825  44.869  15.686   7.804
  908POPC   C4B15826   0.019  15.724   7.348
  909POPC   NC315827   0.819  36.628   9.510
  909POPC   PO415828   1.220  36.028   9.453
  909POPC   GL115829   1.189  36.313   9.151
  909POPC   GL215830   0.844  36.294   9.128
  909POPC   C1A15831   1.195  36.253   8.716
  909POPC   D2A15832   1.139  35.993   8.359
  909POPC   C3A15833   1.350  36.018   7.956
  909POPC   C4A15834   1.162  35.977   7.617
  909POPC   C1B15835   0.754  36.572   8.794
  909POPC   C2B15836   0.847  36.462   8.382
  909POPC   C3B15837   0.952  36.328   7.981
  909POPC   C4B15838   0.903  36.409   7.562
  910POPC   NC315839   0.073  43.963   9.490
  910POPC   PO415840   0.753  44.170   9.615
  910POPC   GL115841   0.503  44.116   9.232
  910POPC   GL215842   0.434  43.735   9.178
  910POPC   C1A15843   0.509  44.065   8.780
  910POPC   D2A15844   0.252  43.947   8.425
  910POPC   C3A15845   0.452  44.103   8.078
  910POPC   C4A15846   0.837  44.033   7.852
  910POPC   C1B15847   0.385  43.543   8.745
  910POPC   C2B15848   0.367  43.463   8.281
  910POPC   C3B15849   0.461  43.638   7.880
  910POPC   C4B15850   0.169  43.631   7.536
  911POPC   NC315851   0.756  13.620   9.605
  911POPC   PO415852   0.064  13.884   9.510
  911POPC   GL115853   0.408  13.708   9.233
  911POPC   GL215854   0.741  13.872   9.074
  911POPC   C1A15855   0.463  13.528   8.822
  911POPC   D2A15856   0.432  13.710   8.417
  911POPC   C3A15857   0.515  13.439   8.082
  911POPC   C4A15858   0.569  13.314   7.669
  911POPC   C1B15859   0.378  14.055   8.863
  911POPC   C2B15860   0.246  14.183   8.468
  911POPC   C3B15861   0.384  14.216   8.054
  911POPC   C4B15862   0.431  13.841   7.772
  912POPC   NC315863  32.924  41.161   9.464
  912POPC   PO415864  33.261  41.808   9.449
  912POPC   GL115865  33.105  41.519   9.171
  912POPC   GL215866  32.899  41.703   9.064
  912POPC   C1A15867  33.021  41.328   8.733
  912POPC   D2A15868  33.019  41.469   8.296
  912POPC   C3A15869  32.918  41.201   7.937
  912POPC   C4A15870  32.700  41.371   7.569
  912POPC   C1B15871  32.828  41.982   8.793
  912POPC   C2B15872  33.051  41.942   8.464
  912POPC   C3B15873  33.014  41.981   8.055
  912POPC   C4B15874  33.096  41.666   7.800
  913POPC   NC315875  40.125  24.890   9.515
  913POPC   PO415876  40.575  25.153   9.294
  913POPC   GL115877  40.223  25.077   9.026
  913POPC   GL215878  39.871  25.086   9.097
  913POPC   C1A15879  40.077  25.350   8.705
  913POPC   D2A15880  40.131  25.596   8.366
  913POPC   C3A15881  39.989  25.456   7.983
  913POPC   C4A15882  40.150  25.624   7.633
  913POPC   C1B15883  39.805  24.924   8.709
  913POPC   C2B15884  40.023  24.879   8.303
  913POPC   C3B15885  39.827  24.973   7.903
  913POPC   C4B15886  39.791  25.292   7.514
  914POPC   NC315887  25.855   3.254   9.201
  914POPC   PO415888  26.123   3.551   9.729
  914POPC   GL115889  26.077   3.710   9.236
  914POPC   GL215890  26.410   3.727   9.021
  914POPC   C1A15891  25.956   3.731   8.791
  914POPC   D2A15892  26.182   3.462   8.496
  914POPC   C3A15893  25.938   3.435   8.125
  914POPC   C4A15894  25.890   3.391   7.706
  914POPC   C1B15895  26.381   3.985   8.667
  914POPC   C2B15896  26.192   3.918   8.251
  914POPC   C3B15897  26.175   3.809   7.803
  914POPC   C4B15898  26.143   3.686   7.364
  915POPC   NC315899  18.615  31.202   9.615
  915POPC   PO415900  18.010  31.400   9.426
  915POPC   GL115901  18.192  31.364   9.030
  915POPC   GL215902  18.540  31.241   9.095
  915POPC   C1A15903  18.127  31.489   8.651
  915POPC   D2A15904  17.942  31.265   8.373
  915POPC   C3A15905  18.153  31.460   8.078
  915POPC   C4A15906  18.136  31.345   7.679
  915POPC   C1B15907  18.621  31.512   8.774
  915POPC   C2B15908  18.570  31.589   8.364
  915POPC   C3B15909  18.699  31.625   7.968
  915POPC   C4B15910  18.448  31.742   7.680
  916POPC   NC315911  27.298  32.167   9.291
  916POPC   PO415912  27.848  32.522   9.445
  916POPC   GL115913  27.712  32.379   9.100
  916POPC   GL215914  27.831  32.046   9.145
  916POPC   C1A15915  27.543  32.527   8.716
  916POPC   D2A15916  27.659  32.365   8.326
  916POPC   C3A15917  27.492  32.526   7.938
  916POPC   C4A15918  27.287  32.527   7.546
  916POPC   C1B15919  27.619  32.006   8.738
  916POPC   C2B15920  27.442  31.893   8.351
  916POPC   C3B15921  27.557  31.692   8.001
  916POPC   C4B15922  27.466  31.809   7.596
  917POPC   NC315923  35.468  32.595   9.575
  917POPC   PO415924  35.232  33.158   9.405
  917POPC   GL115925  35.379  32.822   9.107
  917POPC   GL215926  35.746  32.709   9.081
  917POPC   C1A15927  35.306  33.002   8.709
  917POPC   D2A15928  35.399  33.007   8.293
  917POPC   C3A15929  35.182  33.209   7.981
  917POPC   C4A15930  35.360  33.434   7.659
  917POPC   C1B15931  35.647  32.562   8.623
  917POPC   C2B15932  35.715  32.660   8.146
  917POPC   C3B15933  35.573  32.924   7.764
  917POPC   C4B15934  35.471  32.697   7.340
  918POPC   NC315935  37.381  36.292   9.802
  918POPC   PO415936  36.948  35.852   9.582
  918POPC   GL115937  36.954  36.042   9.137
  918POPC   GL215938  36.947  36.400   9.099
  918POPC   C1A15939  37.034  36.079   8.671
  918POPC   D2A15940  36.902  36.281   8.265
  918POPC   C3A15941  36.944  36.126   7.832
  918POPC   C4A15942  36.733  35.791   7.646
  918POPC   C1B15943  37.160  36.571   8.737
  918POPC   C2B15944  37.131  36.732   8.332
  918POPC   C3B15945  37.263  36.526   7.924
  918POPC   C4B15946  37.214  36.498   7.451
  919POPC   NC315947  34.174   7.760   9.346
  919POPC   PO415948  34.023   7.153   9.602
  919POPC   GL115949  33.896   7.369   9.185
  919POPC   GL215950  33.679   7.713   9.170
  919POPC   C1A15951  34.109   7.515   8.780
  919POPC   D2A15952  34.006   7.704   8.399
  919POPC   C3A15953  34.025   7.497   8.045
  919POPC   C4A15954  33.920   7.610   7.639
  919POPC   C1B15955  33.609   7.568   8.736
  919POPC   C2B15956  33.428   7.490   8.300
  919POPC   C3B15957  33.448   7.506   7.842
  919POPC   C4B15958  33.446   7.573   7.390
  920POPC   NC315959  12.344  19.072   9.382
  920POPC   PO415960  11.739  19.132   9.558
  920POPC   GL115961  11.874  18.863   9.226
  920POPC   GL215962  11.941  19.144   9.074
  920POPC   C1A15963  12.000  18.688   8.807
  920POPC   D2A15964  11.900  18.817   8.371
  920POPC   C3A15965  12.036  18.874   7.938
  920POPC   C4A15966  11.910  19.062   7.532
  920POPC   C1B15967  12.093  19.189   8.672
  920POPC   C2B15968  11.893  19.340   8.299
  920POPC   C3B15969  11.997  19.441   7.871
  920POPC   C4B15970  12.357  19.299   7.599
  921POPC   NC315971   4.201  37.196   9.764
  921POPC   PO415972   4.177  37.911   9.603
  921POPC   GL115973   4.331  37.886   9.194
  921POPC   GL215974   4.103  37.659   9.108
  921POPC   C1A15975   4.424  37.863   8.760
  921POPC   D2A15976   4.130  37.664   8.494
  921POPC   C3A15977   4.362  37.530   8.153
  921POPC   C4A15978   4.683  37.577   7.868
  921POPC   C1B15979   3.904  37.991   8.907
  921POPC   C2B15980   3.782  38.059   8.494
  921POPC   C3B15981   3.935  37.969   8.084
  921POPC   C4B15982   4.234  37.842   7.775
  922POPC   NC315983  24.692   4.282   9.639
  922POPC   PO415984  24.074   4.603   9.693
  922POPC   GL115985  24.321   4.507   9.337
  922POPC   GL215986  24.105   4.707   9.182
  922POPC   C1A15987  24.389   4.235   8.951
  922POPC   D2A15988  24.072   4.180   8.586
  922POPC   C3A15989  24.266   4.139   8.158
  922POPC   C4A15990  24.609   4.118   7.824
  922POPC   C1B15991  24.197   4.688   8.772
  922POPC   C2B15992  24.340   4.681   8.368
  922POPC   C3B15993  24.278   4.753   7.969
  922POPC   C4B15994  24.134   4.420   7.729
  923POPC   NC315995  28.879  42.397   9.532
  923POPC   PO415996  29.518  42.355   9.296
  923POPC   GL115997  29.202  42.226   9.065
  923POPC   GL215998  29.014  41.998   9.238
  923POPC   C1A15999  28.971  42.467   8.805
  923POPC   D2A16000  28.926  42.625   8.395
  923POPC   C3A16001  29.107  42.428   8.052
  923POPC   C4A16002  29.258  42.560   7.655
  923POPC   C1B16003  28.809  41.973   8.824
  923POPC   C2B16004  28.877  42.126   8.425
  923POPC   C3B16005  28.752  42.090   8.017
  923POPC   C4B16006  28.870  42.204   7.581
  924POPC   NC316007  21.143  29.381   9.701
  924POPC   PO416008  21.595  29.868   9.569
  924POPC   GL116009  21.525  29.899   9.150
  924POPC   GL216010  21.833  29.751   9.091
  924POPC   C1A16011  21.328  29.974   8.740
  924POPC   D2A16012  21.521  30.095   8.359
  924POPC   C3A16013  21.417  29.889   7.996
  924POPC   C4A16014  21.295  29.735   7.583
  924POPC   C1B16015  21.788  29.794   8.699
  924POPC   C2B16016  21.966  29.661   8.401
  924POPC   C3B16017  21.939  29.862   8.069
  924POPC   C4B16018  21.802  29.662   7.749
  925POPC   NC316019   2.933  27.947   9.293
  925POPC   PO416020   3.057  27.295   9.567
  925POPC   GL116021   2.954  27.438   9.152
  925POPC   GL216022   2.604  27.491   9.198
  925POPC   C1A16023   3.067  27.673   8.751
  925POPC   D2A16024   2.847  27.807   8.394
  925POPC   C3A16025   2.927  27.618   8.010
  925POPC   C4A16026   2.600  27.676   7.711
  925POPC   C1B16027   2.326  27.553   8.844
  925POPC   C2B16028   2.352  27.527   8.408
  925POPC   C3B16029   2.544  27.286   8.094
  925POPC   C4B16030   2.369  27.209   7.707
  926POPC   NC316031  16.918  26.047   9.561
  926POPC   PO416032  16.358  26.368   9.741
  926POPC   GL116033  16.483  26.300   9.269
  926POPC   GL216034  16.757  26.078   9.096
  926POPC   C1A16035  16.479  26.339   8.786
  926POPC   D2A16036  16.282  26.114   8.437
  926POPC   C3A16037  16.504  26.080   8.049
  926POPC   C4A16038  16.727  25.717   7.862
  926POPC   C1B16039  16.987  26.035   8.693
  926POPC   C2B16040  16.908  26.299   8.300
  926POPC   C3B16041  16.960  26.230   7.842
  926POPC   C4B16042  17.039  26.120   7.428
  927POPC   NC316043  10.224  21.809   9.941
  927POPC   PO416044  10.530  21.310   9.657
  927POPC   GL116045  10.483  21.352   9.266
  927POPC   GL216046  10.703  21.129   9.171
  927POPC   C1A16047  10.444  21.512   8.891
  927POPC   D2A16048  10.576  21.556   8.491
  927POPC   C3A16049  10.324  21.713   8.159
  927POPC   C4A16050  10.353  21.535   7.746
  927POPC   C1B16051  10.750  21.075   8.746
  927POPC   C2B16052  10.500  21.049   8.385
  927POPC   C3B16053  10.418  21.075   7.957
  927POPC   C4B16054  10.619  21.152   7.569
  928POPC   NC316055   0.303  28.746   9.427
  928POPC   PO416056   0.530  28.131   9.541
  928POPC   GL116057   0.637  28.364   9.210
  928POPC   GL216058   0.810  28.633   9.366
  928POPC   C1A16059   0.448  28.386   8.800
  928POPC   D2A16060   0.278  28.517   8.418
  928POPC   C3A16061   0.367  28.242   8.073
  928POPC   C4A16062   0.259  28.397   7.706
  928POPC   C1B16063   0.841  28.778   8.949
  928POPC   C2B16064   0.914  28.738   8.545
  928POPC   C3B16065   0.755  28.562   8.206
  928POPC   C4B16066   0.739  28.526   7.783
  929POPC   NC316067  44.840  19.386   9.470
  929POPC   PO416068  44.312  19.051   9.489
  929POPC   GL116069  44.568  19.050   9.134
  929POPC   GL216070  44.518  19.370   9.070
  929POPC   C1A16071  44.431  18.999   8.703
  929POPC   D2A16072  44.678  18.925   8.351
  929POPC   C3A16073  44.519  18.726   7.993
  929POPC   C4A16074  44.364  19.059   7.830
  929POPC   C1B16075  44.830  19.301   8.729
  929POPC   C2B16076  44.653  19.422   8.316
  929POPC   C3B16077  44.663  19.516   7.874
  929POPC   C4B16078   0.035  19.512   7.606
  930POPC   NC316079  13.026  18.605   9.491
  930POPC   PO416080  12.744  18.051   9.658
  930POPC   GL116081  12.645  18.098   9.215
  930POPC   GL216082  12.787  18.393   9.109
  930POPC   C1A16083  12.836  17.974   8.809
  930POPC   D2A16084  12.768  18.028   8.360
  930POPC   C3A16085  13.002  18.116   7.977
  930POPC   C4A16086  12.842  18.216   7.560
  930POPC   C1B16087  12.879  18.493   8.693
  930POPC   C2B16088  13.048  18.525   8.272
  930POPC   C3B16089  12.866  18.646   7.839
  930POPC   C4B16090  12.819  18.697   7.372
  931POPC   NC316091   3.752  40.783   9.305
  931POPC   PO416092   3.274  40.342   9.498
  931POPC   GL116093   3.370  40.552   9.063
  931POPC   GL216094   3.758  40.447   8.942
  931POPC   C1A16095   3.491  40.907   8.739
  931POPC   D2A16096   3.728  41.044   8.355
  931POPC   C3A16097   3.464  41.065   7.952
  931POPC   C4A16098   3.828  40.992   7.664
  931POPC   C1B16099   3.508  40.379   8.609
  931POPC   C2B16100   3.415  40.636   8.318
  931POPC   C3B16101   3.686  40.632   8.034
  931POPC   C4B16102   3.481  40.550   7.678
  932POPC   NC316103  38.280  29.550   9.393
  932POPC   PO416104  38.611  28.948   9.362
  932POPC   GL116105  38.396  29.183   9.041
  932POPC   GL216106  38.557  29.543   8.973
  932POPC   C1A16107  38.105  29.014   8.714
  932POPC   D2A16108  38.178  28.804   8.330
  932POPC   C3A16109  38.535  29.026   8.148
  932POPC   C4A16110  38.687  28.985   7.731
  932POPC   C1B16111  38.163  29.538   8.723
  932POPC   C2B16112  38.126  29.349   8.307
  932POPC   C3B16113  38.286  29.353   7.857
  932POPC   C4B16114  38.417  29.409   7.445
  933POPC   NC316115  34.068  43.122   9.439
  933POPC   PO416116  33.581  43.350   9.800
  933POPC   GL116117  33.612  43.233   9.271
  933POPC   GL216118  33.849  43.453   9.130
  933POPC   C1A16119  33.706  43.054   8.821
  933POPC   D2A16120  34.007  42.898   8.457
  933POPC   C3A16121  33.820  42.983   8.029
  933POPC   C4A16122  33.573  43.218   7.714
  933POPC   C1B16123  34.011  43.453   8.699
  933POPC   C2B16124  34.070  43.364   8.252
  933POPC   C3B16125  33.959  43.534   7.850
  933POPC   C4B16126  33.999  43.458   7.403
  934POPC   NC316127  28.228  30.090   9.422
  934POPC   PO416128  28.568  29.504   9.638
  934POPC   GL116129  28.546  29.683   9.236
  934POPC   GL216130  28.736  29.972   9.168
  934POPC   C1A16131  28.372  29.752   8.834
  934POPC   D2A16132  28.522  29.799   8.433
  934POPC   C3A16133  28.322  30.015   8.100
  934POPC   C4A16134  28.277  29.797   7.742
  934POPC   C1B16135  28.630  30.234   8.819
  934POPC   C2B16136  28.768  30.257   8.417
  934POPC   C3B16137  28.809  30.005   8.053
  934POPC   C4B16138  28.565  30.190   7.656
  935POPC   NC316139  20.384   9.074   9.548
  935POPC   PO416140  21.057   8.855   9.498
  935POPC   GL116141  20.764   9.026   9.145
  935POPC   GL216142  20.391   8.951   9.083
  935POPC   C1A16143  20.706   8.891   8.701
  935POPC   D2A16144  20.892   8.648   8.401
  935POPC   C3A16145  20.695   8.804   8.067
  935POPC   C4A16146  20.817   8.689   7.676
  935POPC   C1B16147  20.378   9.288   8.780
  935POPC   C2B16148  20.550   9.401   8.388
  935POPC   C3B16149  20.416   9.235   8.007
  935POPC   C4B16150  20.384   8.962   7.674
  936POPC   NC316151  13.422  42.281   9.464
  936POPC   PO416152  13.973  42.644   9.319
  936POPC   GL116153  13.706  42.418   9.008
  936POPC   GL216154  13.519  42.073   8.996
  936POPC   C1A16155  13.601  42.350   8.578
  936POPC   D2A16156  13.520  42.231   8.171
  936POPC   C3A16157  13.709  42.533   7.978
  936POPC   C4A16158  13.901  42.646   7.630
  936POPC   C1B16159  13.882  41.961   8.729
  936POPC   C2B16160  13.815  41.830   8.270
  936POPC   C3B16161  13.881  42.033   7.838
  936POPC   C4B16162  14.101  41.809   7.478
  937POPC   NC316163   2.026  34.857   9.522
  937POPC   PO416164   2.007  35.591   9.482
  937POPC   GL116165   1.970  35.283   9.187
  937POPC   GL216166   1.658  35.167   9.299
  937POPC   C1A16167   2.044  35.431   8.774
  937POPC   D2A16168   2.009  35.566   8.376
  937POPC   C3A16169   2.116  35.366   8.023
  937POPC   C4A16170   2.348  35.178   7.722
  937POPC   C1B16171   1.588  35.181   8.839
  937POPC   C2B16172   1.522  35.385   8.442
  937POPC   C3B16173   1.604  35.209   8.032
  937POPC   C4B16174   1.823  35.126   7.650
  938POPC   NC316175  28.864   4.259  10.033
  938POPC   PO416176  28.476   4.643   9.543
  938POPC   GL116177  28.486   4.379   9.148
  938POPC   GL216178  28.176   4.521   9.038
  938POPC   C1A16179  28.339   4.094   8.804
  938POPC   D2A16180  28.337   4.150   8.352
  938POPC   C3A16181  28.672   4.400   8.130
  938POPC   C4A16182  29.064   4.217   7.865
  938POPC   C1B16183  28.151   4.617   8.617
  938POPC   C2B16184  28.131   4.609   8.187
  938POPC   C3B16185  28.195   4.286   7.875
  938POPC   C4B16186  28.190   4.330   7.417
  939POPC   NC316187  32.840   9.967   9.608
  939POPC   PO416188  33.459   9.685   9.486
  939POPC   GL116189  33.073   9.708   9.222
  939POPC   GL216190  32.939  10.056   9.111
  939POPC   C1A16191  32.981   9.527   8.826
  939POPC   D2A16192  33.180   9.612   8.419
  939POPC   C3A16193  32.923   9.491   8.062
  939POPC   C4A16194  32.801   9.713   7.741
  939POPC   C1B16195  32.907  10.007   8.656
  939POPC   C2B16196  32.809   9.961   8.229
  939POPC   C3B16197  32.844  10.201   7.858
  939POPC   C4B16198  32.770  10.114   7.397
  940POPC   NC316199   2.488  38.434   9.491
  940POPC   PO416200   3.202  38.117   9.438
  940POPC   GL116201   2.931  38.339   9.081
  940POPC   GL216202   2.574  38.256   9.027
  940POPC   C1A16203   2.847  38.688   8.784
  940POPC   D2A16204   2.858  38.716   8.348
  940POPC   C3A16205   2.539  38.810   8.060
  940POPC   C4A16206   2.874  38.727   7.788
  940POPC   C1B16207   2.552  38.323   8.584
  940POPC   C2B16208   2.436  38.321   8.174
  940POPC   C3B16209   2.629  38.297   7.790
  940POPC   C4B16210   2.499  38.329   7.346
  941POPC   NC316211  25.675   3.493   9.659
  941POPC   PO416212  25.031   3.563   9.389
  941POPC   GL116213  25.392   3.541   9.091
  941POPC   GL216214  25.464   3.881   8.907
  941POPC   C1A16215  25.485   3.417   8.668
  941POPC   D2A16216  25.489   3.190   8.284
  941POPC   C3A16217  25.180   3.359   8.009
  941POPC   C4A16218  25.370   3.431   7.639
  941POPC   C1B16219  25.091   3.989   8.655
  941POPC   C2B16220  24.992   4.048   8.202
  941POPC   C3B16221  25.176   3.877   7.822
  941POPC   C4B16222  25.641   3.836   7.767
  942POPC   NC316223   7.939  14.769   9.414
  942POPC   PO416224   8.141  15.462   9.485
  942POPC   GL116225   8.234  15.238   9.131
  942POPC   GL216226   7.901  15.130   9.040
  942POPC   C1A16227   8.238  15.371   8.718
  942POPC   D2A16228   7.882  15.366   8.507
  942POPC   C3A16229   7.909  15.306   8.112
  942POPC   C4A16230   8.224  15.136   7.873
  942POPC   C1B16231   8.141  14.862   8.775
  942POPC   C2B16232   8.221  14.948   8.375
  942POPC   C3B16233   8.032  14.724   8.058
  942POPC   C4B16234   8.332  14.595   7.765
  943POPC   NC316235  14.154  13.377   9.637
  943POPC   PO416236  14.633  13.857   9.498
  943POPC   GL116237  14.450  13.635   9.119
  943POPC   GL216238  14.103  13.509   9.125
  943POPC   C1A16239  14.290  13.687   8.677
  943POPC   D2A16240  14.444  13.710   8.276
  943POPC   C3A16241  14.146  13.706   7.920
  943POPC   C4A16242  14.067  13.762   7.480
  943POPC   C1B16243  13.880  13.388   8.711
  943POPC   C2B16244  14.065  13.337   8.266
  943POPC   C3B16245  14.439  13.274   7.989
  943POPC   C4B16246  14.639  13.645   7.812
  944POPC   NC316247  40.735   6.170   9.573
  944POPC   PO416248  40.506   5.558   9.611
  944POPC   GL116249  40.671   5.666   9.167
  944POPC   GL216250  40.978   5.861   9.159
  944POPC   C1A16251  40.609   5.847   8.758
  944POPC   D2A16252  40.396   5.915   8.359
  944POPC   C3A16253  40.494   6.231   8.114
  944POPC   C4A16254  40.719   6.209   7.798
  944POPC   C1B16255  41.001   5.524   8.801
  944POPC   C2B16256  40.827   5.578   8.358
  944POPC   C3B16257  40.867   5.723   7.889
  944POPC   C4B16258  41.087   5.599   7.497
  945POPC   NC316259  16.968  29.583   9.881
  945POPC   PO416260  16.814  29.095   9.438
  945POPC   GL116261  16.966  29.114   9.070
  945POPC   GL216262  16.634  29.167   8.967
  945POPC   C1A16263  17.007  28.989   8.662
  945POPC   D2A16264  16.694  29.030   8.366
  945POPC   C3A16265  16.821  29.004   7.949
  945POPC   C4A16266  16.935  28.771   7.599
  945POPC   C1B16267  16.611  29.444   8.672
  945POPC   C2B16268  16.375  29.424   8.312
  945POPC   C3B16269  16.292  29.070   8.064
  945POPC   C4B16270  16.402  29.197   7.682
  946POPC   NC316271   8.666   3.314   9.816
  946POPC   PO416272   9.039   3.623   9.464
  946POPC   GL116273   8.940   3.847   9.087
  946POPC   GL216274   8.864   3.522   8.947
  946POPC   C1A16275   8.990   3.897   8.623
  946POPC   D2A16276   9.247   3.738   8.266
  946POPC   C3A16277   9.113   3.596   7.832
  946POPC   C4A16278   9.342   3.487   7.447
  946POPC   C1B16279   8.532   3.658   8.678
  946POPC   C2B16280   8.595   3.874   8.285
  946POPC   C3B16281   8.873   4.027   7.971
  946POPC   C4B16282   8.599   3.886   7.653
  947POPC   NC316283  27.251  38.372   9.283
  947POPC   PO416284  27.828  38.634   9.547
  947POPC   GL116285  27.748  38.445   9.150
  947POPC   GL216286  27.999  38.181   9.065
  947POPC   C1A16287  27.589  38.619   8.748
  947POPC   D2A16288  27.771  38.690   8.339
  947POPC   C3A16289  27.586  38.745   7.957
  947POPC   C4A16290  27.419  38.415   7.714
  947POPC   C1B16291  27.618  38.102   8.809
  947POPC   C2B16292  27.317  38.245   8.486
  947POPC   C3B16293  27.207  38.110   8.066
  947POPC   C4B16294  27.315  37.931   7.609
  948POPC   NC316295  40.524   2.208   9.418
  948POPC   PO416296  40.948   1.649   9.483
  948POPC   GL116297  40.916   1.902   9.053
  948POPC   GL216298  40.597   1.933   9.011
  948POPC   C1A16299  40.761   2.188   8.623
  948POPC   D2A16300  40.677   2.304   8.184
  948POPC   C3A16301  40.822   2.007   7.883
  948POPC   C4A16302  41.160   1.717   7.994
  948POPC   C1B16303  40.649   1.681   8.689
  948POPC   C2B16304  40.789   1.751   8.342
  948POPC   C3B16305  40.429   1.854   8.189
  948POPC   C4B16306  40.382   1.661   7.838
  949POPC   NC316307  40.011  29.594   9.462
  949POPC   PO416308  40.126  30.258   9.547
  949POPC   GL116309  39.938  30.052   9.197
  949POPC   GL216310  39.646  29.826   9.151
  949POPC   C1A16311  39.964  30.064   8.764
  949POPC   D2A16312  39.913  30.361   8.461
  949POPC   C3A16313  40.104  30.204   8.059
  949POPC   C4A16314  40.117  29.794   7.844
  949POPC   C1B16315  39.759  29.596   8.785
  949POPC   C2B16316  39.948  29.685   8.380
  949POPC   C3B16317  39.725  29.521   8.037
  949POPC   C4B16318  39.695  29.564   7.656
  950POPC   NC316319   7.947   3.085   9.550
  950POPC   PO416320   7.317   3.073   9.529
  950POPC   GL116321   7.407   2.820   9.127
  950POPC   GL216322   7.530   2.484   9.151
  950POPC   C1A16323   7.339   2.654   8.716
  950POPC   D2A16324   7.520   2.737   8.310
  950POPC   C3A16325   7.267   2.674   7.970
  950POPC   C4A16326   6.977   2.889   7.728
  950POPC   C1B16327   7.699   2.313   8.771
  950POPC   C2B16328   7.872   2.314   8.369
  950POPC   C3B16329   7.894   2.537   7.981
  950POPC   C4B16330   7.716   2.844   7.722
  951POPC   NC316331  18.181  10.308   9.342
  951POPC   PO416332  18.736  10.724   9.457
  951POPC   GL116333  18.513  10.634   9.061
  951POPC   GL216334  18.163  10.785   9.134
  951POPC   C1A16335  18.510  10.358   8.664
  951POPC   D2A16336  18.482  10.118   8.235
  951POPC   C3A16337  18.369  10.281   7.847
  951POPC   C4A16338  18.462  10.333   7.401
  951POPC   C1B16339  18.038  10.568   8.753
  951POPC   C2B16340  18.147  10.486   8.331
  951POPC   C3B16341  18.121  10.710   7.980
  951POPC   C4B16342  18.124  10.665   7.548
  952POPC   NC316343  20.752  26.561   9.620
  952POPC   PO416344  20.344  27.086   9.529
  952POPC   GL116345  20.544  26.862   9.225
  952POPC   GL216346  20.365  26.564   9.178
  952POPC   C1A16347  20.571  26.918   8.783
  952POPC   D2A16348  20.381  26.890   8.380
  952POPC   C3A16349  20.520  27.041   8.018
  952POPC   C4A16350  20.676  26.992   7.640
  952POPC   C1B16351  20.686  26.427   8.916
  952POPC   C2B16352  20.694  26.476   8.482
  952POPC   C3B16353  20.735  26.600   8.070
  952POPC   C4B16354  20.597  26.441   7.692
  953POPC   NC316355  23.195   6.421   9.650
  953POPC   PO416356  22.746   6.902   9.489
  953POPC   GL116357  22.827   6.515   9.230
  953POPC   GL216358  23.070   6.627   9.172
  953POPC   C1A16359  22.885   6.273   8.830
  953POPC   D2A16360  23.098   6.336   8.430
  953POPC   C3A16361  22.922   6.698   8.221
  953POPC   C4A16362  22.639   6.776   7.863
  953POPC   C1B16363  23.267   6.613   8.818
  953POPC   C2B16364  23.378   6.811   8.441
  953POPC   C3B16365  23.402   6.550   8.071
  953POPC   C4B16366  23.137   6.644   7.745
  954POPC   NC316367  30.969  36.549   9.388
  954POPC   PO416368  31.548  36.768   9.579
  954POPC   GL116369  31.432  36.776   9.202
  954POPC   GL216370  31.752  36.647   9.084
  954POPC   C1A16371  31.431  37.042   8.831
  954POPC   D2A16372  31.550  37.171   8.428
  954POPC   C3A16373  31.353  37.084   8.050
  954POPC   C4A16374  31.660  37.040   7.808
  954POPC   C1B16375  31.811  36.612   8.633
  954POPC   C2B16376  31.794  36.711   8.180
  954POPC   C3B16377  31.857  36.595   7.731
  954POPC   C4B16378  31.987  36.950   7.420
  955POPC   NC316379  43.660  17.474   9.254
  955POPC   PO416380  43.161  17.477   9.610
  955POPC   GL116381  43.158  17.493   9.155
  955POPC   GL216382  43.097  17.154   9.147
  955POPC   C1A16383  43.342  17.623   8.708
  955POPC   D2A16384  43.596  17.814   8.362
  955POPC   C3A16385  43.363  17.764   7.959
  955POPC   C4A16386  42.956  17.616   7.758
  955POPC   C1B16387  42.943  17.282   8.742
  955POPC   C2B16388  42.932  17.419   8.320
  955POPC   C3B16389  42.867  17.137   7.992
  955POPC   C4B16390  42.862  17.142   7.552
  956POPC   NC316391  40.816  38.101   9.443
  956POPC   PO416392  41.219  38.685   9.466
  956POPC   GL116393  40.831  38.548   9.173
  956POPC   GL216394  40.453  38.664   9.250
  956POPC   C1A16395  40.649  38.210   8.828
  956POPC   D2A16396  40.757  37.989   8.442
  956POPC   C3A16397  40.685  38.230   8.076
  956POPC   C4A16398  40.776  38.556   7.783
  956POPC   C1B16399  40.513  38.704   8.814
  956POPC   C2B16400  40.708  38.586   8.446
  956POPC   C3B16401  40.419  38.692   8.124
  956POPC   C4B16402  40.270  38.440   7.794
  957POPC   NC316403  16.415  40.965   9.771
  957POPC   PO416404  16.859  40.571   9.583
  957POPC   GL116405  16.807  40.941   9.259
  957POPC   GL216406  16.500  41.160   9.283
  957POPC   C1A16407  17.046  41.192   8.907
  957POPC   D2A16408  17.182  41.316   8.471
  957POPC   C3A16409  16.972  41.183   8.064
  957POPC   C4A16410  16.833  40.740   7.929
  957POPC   C1B16411  16.553  41.056   8.810
  957POPC   C2B16412  16.566  41.027   8.337
  957POPC   C3B16413  16.470  41.102   7.889
  957POPC   C4B16414  16.440  40.789   7.542
  958POPC   NC316415  22.056  33.276   9.727
  958POPC   PO416416  22.487  32.773   9.593
  958POPC   GL116417  22.306  33.110   9.292
  958POPC   GL216418  21.938  33.151   9.237
  958POPC   C1A16419  22.386  33.100   8.843
  958POPC   D2A16420  22.210  32.870   8.492
  958POPC   C3A16421  22.287  32.977   8.065
  958POPC   C4A16422  22.117  32.894   7.675
  958POPC   C1B16423  21.902  33.215   8.777
  958POPC   C2B16424  21.771  33.081   8.354
  958POPC   C3B16425  21.882  33.267   7.959
  958POPC   C4B16426  21.742  33.226   7.536
  959POPC   NC316427  41.733  23.957   9.352
  959POPC   PO416428  41.132  23.738   9.543
  959POPC   GL116429  41.351  23.757   9.099
  959POPC   GL216430  41.738  23.682   8.943
  959POPC   C1A16431  41.355  23.904   8.692
  959POPC   D2A16432  41.310  23.704   8.312
  959POPC   C3A16433  41.582  23.554   8.007
  959POPC   C4A16434  41.308  23.671   7.679
  959POPC   C1B16435  41.792  23.646   8.518
  959POPC   C2B16436  41.894  23.961   8.238
  959POPC   C3B16437  41.978  23.875   7.825
  959POPC   C4B16438  41.714  23.913   7.483
  960POPC   NC316439  32.433  30.775   9.432
  960POPC   PO416440  31.906  30.313   9.498
  960POPC   GL116441  32.075  30.558   9.127
  960POPC   GL216442  32.011  30.926   9.145
  960POPC   C1A16443  32.441  30.592   8.801
  960POPC   D2A16444  32.602  30.636   8.372
  960POPC   C3A16445  32.258  30.663   8.117
  960POPC   C4A16446  32.216  30.718   7.688
  960POPC   C1B16447  31.898  31.144   8.770
  960POPC   C2B16448  31.899  30.941   8.384
  960POPC   C3B16449  31.997  31.082   7.987
  960POPC   C4B16450  31.880  31.063   7.563
  961POPC   NC316451   5.454  27.767   9.504
  961POPC   PO416452   4.914  27.452   9.512
  961POPC   GL116453   4.961  27.689   9.133
  961POPC   GL216454   5.295  27.521   9.081
  961POPC   C1A16455   4.704  27.770   8.726
  961POPC   D2A16456   4.480  27.584   8.339
  961POPC   C3A16457   4.691  27.578   7.919
  961POPC   C4A16458   4.996  27.857   7.753
  961POPC   C1B16459   5.243  27.734   8.689
  961POPC   C2B16460   5.074  27.624   8.278
  961POPC   C3B16461   5.326  27.506   7.913
  961POPC   C4B16462   5.596  27.878   7.873
  962POPC   NC316463  35.680  36.094   9.532
  962POPC   PO416464  35.135  35.738   9.514
  962POPC   GL116465  35.275  36.007   9.176
  962POPC   GL216466  35.627  35.927   9.050
  962POPC   C1A16467  35.184  35.919   8.740
  962POPC   D2A16468  35.332  36.085   8.347
  962POPC   C3A16469  35.211  36.180   7.902
  962POPC   C4A16470  35.239  36.208   7.421
  962POPC   C1B16471  35.566  36.323   8.822
  962POPC   C2B16472  35.661  36.490   8.409
  962POPC   C3B16473  35.706  36.265   8.063
  962POPC   C4B16474  35.666  36.301   7.680
  963POPC   NC316475  33.533  18.267   9.552
  963POPC   PO416476  34.162  18.618   9.490
  963POPC   GL116477  34.038  18.401   9.122
  963POPC   GL216478  33.753  18.163   9.119
  963POPC   C1A16479  33.994  18.316   8.689
  963POPC   D2A16480  34.238  18.415   8.354
  963POPC   C3A16481  34.121  18.109   8.048
  963POPC   C4A16482  34.020  18.204   7.633
  963POPC   C1B16483  33.594  17.978   8.744
  963POPC   C2B16484  33.655  18.122   8.321
  963POPC   C3B16485  33.624  18.017   7.906
  963POPC   C4B16486  33.531  18.369   7.677
  964POPC   NC316487   3.924  16.594   9.414
  964POPC   PO416488   3.456  17.061   9.396
  964POPC   GL116489   3.385  16.664   9.162
  964POPC   GL216490   3.657  16.435   8.983
  964POPC   C1A16491   3.265  16.612   8.731
  964POPC   D2A16492   3.531  16.541   8.386
  964POPC   C3A16493   3.434  16.722   7.995
  964POPC   C4A16494   3.397  16.676   7.556
  964POPC   C1B16495   3.799  16.764   8.771
  964POPC   C2B16496   4.028  16.749   8.398
  964POPC   C3B16497   3.935  16.704   7.979
  964POPC   C4B16498   3.813  16.944   7.653
  965POPC   NC316499  37.550   7.950   9.420
  965POPC   PO416500  38.124   8.378   9.494
  965POPC   GL116501  37.838   8.456   9.141
  965POPC   GL216502  37.496   8.615   9.214
  965POPC   C1A16503  37.628   8.204   8.800
  965POPC   D2A16504  37.492   8.082   8.383
  965POPC   C3A16505  37.801   7.994   8.046
  965POPC   C4A16506  37.904   7.910   7.609
  965POPC   C1B16507  37.579   8.709   8.774
  965POPC   C2B16508  37.696   8.752   8.346
  965POPC   C3B16509  37.602   8.478   8.063
  965POPC   C4B16510  37.475   8.245   7.729
  966POPC   NC316511   9.220   1.392   9.658
  966POPC   PO416512   8.603   1.402   9.467
  966POPC   GL116513   8.946   1.257   9.217
  966POPC   GL216514   8.794   0.969   9.119
  966POPC   C1A16515   9.057   1.322   8.761
  966POPC   D2A16516   8.824   1.575   8.428
  966POPC   C3A16517   8.881   1.424   8.020
  966POPC   C4A16518   9.183   1.086   7.899
  966POPC   C1B16519   8.565   1.210   8.783
  966POPC   C2B16520   8.513   1.165   8.321
  966POPC   C3B16521   8.582   1.054   7.854
  966POPC   C4B16522   8.402   0.864   7.465
  967POPC   NC316523  20.506  15.791   9.446
  967POPC   PO416524  21.103  16.119   9.583
  967POPC   GL116525  20.862  16.039   9.130
  967POPC   GL216526  20.492  15.949   8.980
  967POPC   C1A16527  20.876  15.883   8.669
  967POPC   D2A16528  20.670  15.805   8.244
  967POPC   C3A16529  20.840  15.569   7.872
  967POPC   C4A16530  20.901  15.662   7.396
  967POPC   C1B16531  20.449  16.163   8.584
  967POPC   C2B16532  20.795  16.294   8.306
  967POPC   C3B16533  20.766  16.160   7.884
  967POPC   C4B16534  20.372  15.930   7.837
  968POPC   NC316535   1.678  24.027   9.615
  968POPC   PO416536   1.177  23.717   9.698
  968POPC   GL116537   1.165  23.960   9.270
  968POPC   GL216538   0.834  23.902   9.099
  968POPC   C1A16539   1.200  24.033   8.769
  968POPC   D2A16540   1.050  23.772   8.392
  968POPC   C3A16541   1.123  23.785   7.941
  968POPC   C4A16542   1.508  23.708   7.784
  968POPC   C1B16543   0.677  23.683   8.738
  968POPC   C2B16544   0.882  23.318   8.532
  968POPC   C3B16545   0.872  23.372   8.097
  968POPC   C4B16546   0.744  23.438   7.643
  969POPC   NC316547  44.497  32.998   9.644
  969POPC   PO416548  44.384  32.535   9.251
  969POPC   GL116549  44.466  32.910   9.093
  969POPC   GL216550  44.613  33.232   9.090
  969POPC   C1A16551  44.575  32.934   8.680
  969POPC   D2A16552  44.827  33.138   8.433
  969POPC   C3A16553  44.596  33.114   8.076
  969POPC   C4A16554  44.719  32.895   7.779
  969POPC   C1B16555  44.773  33.517   8.797
  969POPC   C2B16556   0.045  33.617   8.491
  969POPC   C3B16557  44.909  33.508   8.093
  969POPC   C4B16558   0.009  33.322   7.729
  970POPC   NC316559   4.577  42.124   9.926
  970POPC   PO416560   4.214  42.572   9.595
  970POPC   GL116561   4.337  42.284   9.230
  970POPC   GL216562   4.034  42.166   9.072
  970POPC   C1A16563   4.410  42.185   8.770
  970POPC   D2A16564   4.071  42.271   8.479
  970POPC   C3A16565   4.206  42.211   8.041
  970POPC   C4A16566   4.579  42.125   7.810
  970POPC   C1B16567   4.027  42.580   8.903
  970POPC   C2B16568   4.147  42.795   8.535
  970POPC   C3B16569   4.080  42.691   8.143
  970POPC   C4B16570   3.952  42.536   7.721
  971POPC   NC316571  23.194  33.901   9.408
  971POPC   PO416572  22.737  34.312   9.194
  971POPC   GL116573  22.937  34.005   8.966
  971POPC   GL216574  22.919  33.652   9.039
  971POPC   C1A16575  22.799  33.951   8.583
  971POPC   D2A16576  22.510  33.908   8.267
  971POPC   C3A16577  22.736  33.927   7.871
  971POPC   C4A16578  22.801  33.914   7.409
  971POPC   C1B16579  22.971  33.458   8.637
  971POPC   C2B16580  22.895  33.581   8.226
  971POPC   C3B16581  23.010  33.518   7.794
  971POPC   C4B16582  23.401  33.360   7.733
  972POPC   NC316583  17.256  13.853   9.785
  972POPC   PO416584  17.859  13.633   9.515
  972POPC   GL116585  17.599  13.563   9.147
  972POPC   GL216586  17.263  13.746   9.219
  972POPC   C1A16587  17.675  13.489   8.692
  972POPC   D2A16588  17.668  13.299   8.265
  972POPC   C3A16589  17.774  13.658   8.001
  972POPC   C4A16590  17.629  13.787   7.597
  972POPC   C1B16591  17.190  13.615   8.783
  972POPC   C2B16592  17.371  13.729   8.349
  972POPC   C3B16593  17.251  13.609   7.914
  972POPC   C4B16594  17.100  13.804   7.531
  973POPC   NC316595  33.537  41.454   9.565
  973POPC   PO416596  34.000  41.969   9.458
  973POPC   GL116597  33.771  41.712   9.139
  973POPC   GL216598  33.578  41.363   9.089
  973POPC   C1A16599  33.887  41.493   8.744
  973POPC   D2A16600  33.782  41.321   8.416
  973POPC   C3A16601  34.006  41.411   8.058
  973POPC   C4A16602  33.878  41.568   7.644
  973POPC   C1B16603  33.402  41.676   8.773
  973POPC   C2B16604  33.500  41.727   8.333
  973POPC   C3B16605  33.500  41.429   7.990
  973POPC   C4B16606  33.382  41.343   7.567
  974POPC   NC316607  41.530   3.825   9.338
  974POPC   PO416608  41.038   4.295   9.576
  974POPC   GL116609  41.359   4.285   9.178
  974POPC   GL216610  41.748   4.268   9.150
  974POPC   C1A16611  41.466   4.075   8.753
  974POPC   D2A16612  41.536   4.242   8.357
  974POPC   C3A16613  41.640   4.088   7.961
  974POPC   C4A16614  41.425   4.146   7.557
  974POPC   C1B16615  42.017   4.421   8.799
  974POPC   C2B16616  42.005   4.397   8.356
  974POPC   C3B16617  42.087   4.363   7.959
  974POPC   C4B16618  41.883   4.359   7.566
  975POPC   NC316619  27.978  26.637   9.418
  975POPC   PO416620  28.685  26.862   9.373
  975POPC   GL116621  28.490  26.840   8.977
  975POPC   GL216622  28.155  26.920   8.997
  975POPC   C1A16623  28.446  26.805   8.519
  975POPC   D2A16624  28.238  26.506   8.221
  975POPC   C3A16625  28.392  26.684   7.848
  975POPC   C4A16626  28.490  27.119   7.938
  975POPC   C1B16627  27.956  26.806   8.621
  975POPC   C2B16628  28.057  27.068   8.258
  975POPC   C3B16629  27.991  27.033   7.858
  975POPC   C4B16630  27.918  26.611   7.686
  976POPC   NC316631  22.951  44.915   9.401
  976POPC   PO416632  23.205   0.539   9.566
  976POPC   GL116633  23.222   0.355   9.166
  976POPC   GL216634  22.888   0.368   9.151
  976POPC   C1A16635  23.123   0.403   8.712
  976POPC   D2A16636  22.915   0.286   8.363
  976POPC   C3A16637  23.077   0.435   8.005
  976POPC   C4A16638  22.995   0.368   7.586
  976POPC   C1B16639  22.618   0.241   8.801
  976POPC   C2B16640  22.440   0.125   8.377
  976POPC   C3B16641  22.573   0.243   7.931
  976POPC   C4B16642  22.528   0.227   7.463
  977POPC   NC316643  32.764  42.002   9.457
  977POPC   PO416644  32.841  42.693   9.652
  977POPC   GL116645  32.769  42.490   9.257
  977POPC   GL216646  33.079  42.302   9.160
  977POPC   C1A16647  32.740  42.478   8.798
  977POPC   D2A16648  32.948  42.425   8.383
  977POPC   C3A16649  32.740  42.408   7.937
  977POPC   C4A16650  32.714  42.375   7.450
  977POPC   C1B16651  33.329  42.206   8.789
  977POPC   C2B16652  33.436  42.234   8.326
  977POPC   C3B16653  33.257  42.449   7.971
  977POPC   C4B16654  33.422  42.734   7.695
  978POPC   NC316655  39.830  40.290   9.377
  978POPC   PO416656  39.716  39.723   9.721
  978POPC   GL116657  39.903  39.676   9.125
  978POPC   GL216658  39.929  40.023   8.933
  978POPC   C1A16659  39.679  39.715   8.639
  978POPC   D2A16660  39.503  39.800   8.211
  978POPC   C3A16661  39.809  40.005   7.928
  978POPC   C4A16662  39.908  39.804   7.563
  978POPC   C1B16663  40.201  40.261   8.675
  978POPC   C2B16664  40.164  40.184   8.258
  978POPC   C3B16665  40.321  40.085   7.891
  978POPC   C4B16666  40.584  40.344   7.667
  979POPC   NC316667  16.385   3.353   9.462
  979POPC   PO416668  17.013   3.455   9.699
  979POPC   GL116669  17.067   3.377   9.220
  979POPC   GL216670  16.695   3.327   9.051
  979POPC   C1A16671  17.038   3.489   8.749
  979POPC   D2A16672  16.641   3.481   8.476
  979POPC   C3A16673  16.627   3.684   8.071
  979POPC   C4A16674  16.939   3.671   7.732
  979POPC   C1B16675  16.719   3.021   8.679
  979POPC   C2B16676  16.557   2.985   8.283
  979POPC   C3B16677  16.675   3.191   7.959
  979POPC   C4B16678  16.783   3.126   7.586
  980POPC   NC316679   4.129   1.076   9.505
  980POPC   PO416680   4.501   1.560   9.490
  980POPC   GL116681   4.193   1.462   9.168
  980POPC   GL216682   4.336   1.141   9.035
  980POPC   C1A16683   4.007   1.435   8.773
  980POPC   D2A16684   4.168   1.457   8.364
  980POPC   C3A16685   4.244   1.178   8.012
  980POPC   C4A16686   4.323   1.339   7.578
  980POPC   C1B16687   4.548   1.430   8.720
  980POPC   C2B16688   4.684   1.540   8.261
  980POPC   C3B16689   4.723   1.268   7.874
  980POPC   C4B16690   4.513   0.860   7.689
  981POPC   NC316691   7.535  42.605   9.638
  981POPC   PO416692   7.213  41.959   9.547
  981POPC   GL116693   7.438  42.254   9.274
  981POPC   GL216694   7.121  42.472   9.342
  981POPC   C1A16695   7.659  42.454   8.899
  981POPC   D2A16696   7.464  42.368   8.467
  981POPC   C3A16697   7.707  42.349   8.070
  981POPC   C4A16698   7.714  42.366   7.572
  981POPC   C1B16699   7.154  42.453   8.898
  981POPC   C2B16700   7.012  42.613   8.512
  981POPC   C3B16701   7.134  42.649   8.097
  981POPC   C4B16702   7.272  42.345   7.804
  982POPC   NC316703  37.602  37.140   9.507
  982POPC   PO416704  37.738  36.465   9.560
  982POPC   GL116705  37.617  36.752   9.174
  982POPC   GL216706  37.899  36.935   9.065
  982POPC   C1A16707  37.465  36.975   8.795
  982POPC   D2A16708  37.585  37.152   8.445
  982POPC   C3A16709  37.457  37.005   8.055
  982POPC   C4A16710  37.590  36.982   7.650
  982POPC   C1B16711  37.802  36.621   8.702
  982POPC   C2B16712  37.977  36.513   8.316
  982POPC   C3B16713  38.213  36.707   7.970
  982POPC   C4B16714  38.109  36.977   7.608
  983POPC   NC316715  15.787  14.005   9.352
  983POPC   PO416716  15.993  13.370   9.297
  983POPC   GL116717  15.968  13.661   9.004
  983POPC   GL216718  16.203  13.915   9.059
  983POPC   C1A16719  15.859  13.618   8.602
  983POPC   D2A16720  15.920  13.373   8.280
  983POPC   C3A16721  15.812  13.554   7.921
  983POPC   C4A16722  16.094  13.402   7.690
  983POPC   C1B16723  16.355  13.819   8.696
  983POPC   C2B16724  16.426  13.991   8.311
  983POPC   C3B16725  16.265  13.793   7.975
  983POPC   C4B16726  16.066  13.945   7.586
  984POPC   NC316727   0.162  24.298   9.445
  984POPC   PO416728   0.729  24.699   9.495
  984POPC   GL116729   0.628  24.378   9.170
  984POPC   GL216730   0.302  24.435   8.989
  984POPC   C1A16731   0.678  24.238   8.726
  984POPC   D2A16732   0.356  24.427   8.449
  984POPC   C3A16733   0.270  24.281   8.048
  984POPC   C4A16734   0.573  24.358   7.740
  984POPC   C1B16735   0.555  24.755   8.806
  984POPC   C2B16736   0.487  24.918   8.410
  984POPC   C3B16737   0.361  24.814   7.990
  984POPC   C4B16738   0.511  25.087   7.700
  985POPC   NC316739   3.471  35.426   9.508
  985POPC   PO416740   3.367  34.757   9.494
  985POPC   GL116741   3.381  35.082   9.124
  985POPC   GL216742   3.276  35.431   9.030
  985POPC   C1A16743   3.426  35.092   8.656
  985POPC   D2A16744   3.550  35.308   8.275
  985POPC   C3A16745   3.339  35.298   7.864
  985POPC   C4A16746   3.405  35.147   7.397
  985POPC   C1B16747   3.492  35.671   8.685
  985POPC   C2B16748   3.432  35.788   8.252
  985POPC   C3B16749   3.419  35.801   7.826
  985POPC   C4B16750   3.599  35.579   7.489
  986POPC   NC316751  44.955  16.979   9.614
  986POPC   PO416752  44.532  16.494   9.769
  986POPC   GL116753  44.576  16.815   9.321
  986POPC   GL216754  44.901  16.741   9.154
  986POPC   C1A16755  44.504  16.842   8.846
  986POPC   D2A16756  44.323  16.913   8.418
  986POPC   C3A16757  44.568  16.711   8.115
  986POPC   C4A16758  44.420  16.538   7.773
  986POPC   C1B16759  44.978  17.063   8.861
  986POPC   C2B16760  44.826  17.118   8.434
  986POPC   C3B16761  44.946  17.033   8.012
  986POPC   C4B16762   0.074  16.613   7.848
  987POPC   NC316763  26.584  43.772   9.713
  987POPC   PO416764  26.089  44.101   9.400
  987POPC   GL116765  25.902  43.834   9.072
  987POPC   GL216766  25.770  44.153   8.956
  987POPC   C1A16767  26.049  43.553   8.685
  987POPC   D2A16768  26.404  43.709   8.408
  987POPC   C3A16769  26.288  43.897   7.998
  987POPC   C4A16770  25.966  43.770   7.739
  987POPC   C1B16771  26.089  44.062   8.642
  987POPC   C2B16772  25.890  43.901   8.301
  987POPC   C3B16773  25.689  44.110   7.985
  987POPC   C4B16774  25.887  44.325   7.663
  988POPC   NC316775  21.835  27.799   9.354
  988POPC   PO416776  21.139  27.589   9.451
  988POPC   GL116777  21.389  27.653   9.109
  988POPC   GL216778  21.312  27.981   9.154
  988POPC   C1A16779  21.517  27.630   8.668
  988POPC   D2A16780  21.287  27.406   8.330
  988POPC   C3A16781  21.523  27.245   8.003
  988POPC   C4A16782  21.794  27.384   7.718
  988POPC   C1B16783  21.231  28.051   8.769
  988POPC   C2B16784  21.427  28.087   8.377
  988POPC   C3B16785  21.346  28.017   7.954
  988POPC   C4B16786  21.373  27.663   7.716
  989POPC   NC316787  35.859   8.386   9.471
  989POPC   PO416788  36.313   7.783   9.628
  989POPC   GL116789  36.363   7.869   9.165
  989POPC   GL216790  36.253   8.243   9.119
  989POPC   C1A16791  36.187   7.917   8.736
  989POPC   D2A16792  36.183   8.264   8.440
  989POPC   C3A16793  36.036   8.235   8.008
  989POPC   C4A16794  36.061   7.883   7.754
  989POPC   C1B16795  36.567   8.366   8.793
  989POPC   C2B16796  36.570   8.624   8.408
  989POPC   C3B16797  36.317   8.661   8.060
  989POPC   C4B16798  36.375   8.448   7.668
  990POPC   NC316799  28.904  41.323   9.505
  990POPC   PO416800  29.412  41.732   9.523
  990POPC   GL116801  29.392  41.398   9.226
  990POPC   GL216802  29.134  41.541   9.071
  990POPC   C1A16803  29.428  41.241   8.777
  990POPC   D2A16804  29.183  41.310   8.387
  990POPC   C3A16805  29.265  41.380   7.952
  990POPC   C4A16806  29.002  41.248   7.594
  990POPC   C1B16807  29.230  41.746   8.664
  990POPC   C2B16808  29.251  41.812   8.224
  990POPC   C3B16809  29.189  41.882   7.812
  990POPC   C4B16810  29.393  42.075   7.464
  991POPC   NC316811  20.146  30.579   9.864
  991POPC   PO416812  20.635  30.981   9.792
  991POPC   GL116813  20.607  30.642   9.362
  991POPC   GL216814  20.420  30.709   9.054
  991POPC   C1A16815  20.784  30.405   8.915
  991POPC   D2A16816  20.604  30.290   8.481
  991POPC   C3A16817  20.788  30.381   8.042
  991POPC   C4A16818  20.913  30.588   7.602
  991POPC   C1B16819  20.216  31.006   8.754
  991POPC   C2B16820  20.083  31.181   8.357
  991POPC   C3B16821  20.303  31.010   8.020
  991POPC   C4B16822  20.451  30.730   7.711
  992POPC   NC316823  42.724  23.001   9.489
  992POPC   PO416824  42.097  22.780   9.660
  992POPC   GL116825  42.081  23.042   9.287
  992POPC   GL216826  42.400  23.173   9.122
  992POPC   C1A16827  41.964  23.119   8.870
  992POPC   D2A16828  42.228  22.981   8.547
  992POPC   C3A16829  42.170  22.944   8.090
  992POPC   C4A16830  41.927  23.135   7.746
  992POPC   C1B16831  42.692  23.240   8.786
  992POPC   C2B16832  42.742  22.943   8.453
  992POPC   C3B16833  42.757  23.062   8.021
  992POPC   C4B16834  42.842  23.173   7.616
  993POPC   NC316835  44.928  29.380   9.476
  993POPC   PO416836   0.592  29.126   9.459
  993POPC   GL116837   0.396  29.344   9.110
  993POPC   GL216838   0.138  29.111   9.087
  993POPC   C1A16839   0.269  29.353   8.658
  993POPC   D2A16840   0.458  29.481   8.272
  993POPC   C3A16841   0.485  29.303   7.877
  993POPC   C4A16842   0.329  29.420   7.489
  993POPC   C1B16843   0.376  28.889   8.781
  993POPC   C2B16844   0.511  28.982   8.372
  993POPC   C3B16845   0.374  28.819   7.991
  993POPC   C4B16846   0.447  28.899   7.559
  994POPC   NC316847  20.162  42.131   9.463
  994POPC   PO416848  19.800  42.637   9.714
  994POPC   GL116849  19.706  42.382   9.322
  994POPC   GL216850  19.586  42.634   9.109
  994POPC   C1A16851  19.797  42.224   8.878
  994POPC   D2A16852  20.061  42.248   8.503
  994POPC   C3A16853  19.921  42.116   8.092
  994POPC   C4A16854  20.116  42.188   7.699
  994POPC   C1B16855  19.749  42.721   8.721
  994POPC   C2B16856  19.666  42.537   8.335
  994POPC   C3B16857  19.565  42.657   7.922
  994POPC   C4B16858  19.538  42.348   7.626
  995POPC   NC316859   2.491  35.578   9.659
  995POPC   PO416860   2.855  35.082   9.629
  995POPC   GL116861   2.690  35.301   9.225
  995POPC   GL216862   2.410  35.568   9.156
  995POPC   C1A16863   2.804  35.541   8.851
  995POPC   D2A16864   3.061  35.485   8.499
  995POPC   C3A16865   2.890  35.259   8.166
  995POPC   C4A16866   2.746  35.480   7.829
  995POPC   C1B16867   2.391  35.802   8.744
  995POPC   C2B16868   2.520  35.656   8.335
  995POPC   C3B16869   2.415  35.842   7.961
  995POPC   C4B16870   2.482  35.792   7.505
  996POPC   NC316871  17.201   7.070   9.877
  996POPC   PO416872  17.561   6.674   9.449
  996POPC   GL116873  17.536   6.663   9.026
  996POPC   GL216874  17.878   6.749   9.019
  996POPC   C1A16875  17.334   6.610   8.616
  996POPC   D2A16876  17.432   6.778   8.211
  996POPC   C3A16877  17.236   6.541   7.872
  996POPC   C4A16878  17.122   6.150   7.724
  996POPC   C1B16879  17.786   6.829   8.606
  996POPC   C2B16880  17.801   7.167   8.317
  996POPC   C3B16881  17.802   6.976   7.906
  996POPC   C4B16882  17.732   6.554   7.841
  997POPC   NC316883  27.390  33.632   9.555
  997POPC   PO416884  27.803  34.220   9.591
  997POPC   GL116885  27.707  33.915   9.261
  997POPC   GL216886  27.392  33.986   9.162
  997POPC   C1A16887  27.765  33.723   8.796
  997POPC   D2A16888  27.632  33.774   8.361
  997POPC   C3A16889  27.791  33.569   7.970
  997POPC   C4A16890  27.587  33.852   7.668
  997POPC   C1B16891  27.267  33.691   8.800
  997POPC   C2B16892  27.125  33.637   8.360
  997POPC   C3B16893  27.273  33.545   7.930
  997POPC   C4B16894  27.254  33.551   7.449
  998POPC   NC316895  31.514  40.961   9.445
  998POPC   PO416896  31.155  40.444   9.288
  998POPC   GL116897  31.551  40.597   9.068
  998POPC   GL216898  31.812  40.931   9.052
  998POPC   C1A16899  31.601  40.669   8.622
  998POPC   D2A16900  31.363  40.865   8.294
  998POPC   C3A16901  31.398  40.616   7.981
  998POPC   C4A16902  31.780  40.474   7.909
  998POPC   C1B16903  31.558  41.142   8.769
  998POPC   C2B16904  31.726  41.219   8.394
  998POPC   C3B16905  31.838  41.016   8.057
  998POPC   C4B16906  31.556  41.045   7.745
  999POPC   NC316907  43.503  21.175   9.539
  999POPC   PO416908  44.160  21.462   9.528
  999POPC   GL116909  43.848  21.407   9.229
  999POPC   GL216910  43.571  21.661   9.286
  999POPC   C1A16911  43.860  21.222   8.831
  999POPC   D2A16912  43.988  21.448   8.446
  999POPC   C3A16913  44.118  21.225   8.057
  999POPC   C4A16914  43.921  21.222   7.690
  999POPC   C1B16915  43.605  21.665   8.822
  999POPC   C2B16916  43.572  21.771   8.378
  999POPC   C3B16917  43.755  21.617   7.999
  999POPC   C4B16918  43.605  21.613   7.586
 1000POPC   NC316919   5.993  36.955   9.578
 1000POPC   PO416920   5.497  37.252   9.227
 1000POPC   GL116921   5.723  36.900   9.131
 1000POPC   GL216922   6.052  37.037   9.085
 1000POPC   C1A16923   5.845  36.803   8.700
 1000POPC   D2A16924   5.873  37.105   8.370
 1000POPC   C3A16925   5.858  36.897   7.982
 1000POPC   C4A16926   5.735  36.867   7.555
 1000POPC   C1B16927   6.279  37.105   8.730
 1000POPC   C2B16928   6.375  37.346   8.412
 1000POPC   C3B16929   6.242  37.247   8.028
 1000POPC   C4B16930   6.063  37.239   7.664
 1001POPC   NC316931  21.135  15.656   9.693
 1001POPC   PO416932  21.711  15.941   9.719
 1001POPC   GL116933  21.469  15.854   9.311
 1001POPC   GL216934  21.397  16.103   9.123
 1001POPC   C1A16935  21.491  15.710   8.811
 1001POPC   D2A16936  21.225  15.610   8.437
 1001POPC   C3A16937  21.155  15.947   8.163
 1001POPC   C4A16938  21.191  15.903   7.737
 1001POPC   C1B16939  21.630  16.208   8.768
 1001POPC   C2B16940  21.627  16.001   8.355
 1001POPC   C3B16941  21.576  16.173   7.930
 1001POPC   C4B16942  21.566  16.064   7.456
 1002POPC   NC316943  35.584  24.316   9.560
 1002POPC   PO416944  35.175  24.795   9.376
 1002POPC   GL116945  35.420  24.648   9.064
 1002POPC   GL216946  35.482  24.308   9.059
 1002POPC   C1A16947  35.297  24.587   8.648
 1002POPC   D2A16948  35.318  24.830   8.307
 1002POPC   C3A16949  35.199  24.614   7.943
 1002POPC   C4A16950  34.935  24.654   7.617
 1002POPC   C1B16951  35.707  24.279   8.644
 1002POPC   C2B16952  35.585  24.383   8.203
 1002POPC   C3B16953  35.504  24.166   7.775
 1002POPC   C4B16954  35.461  24.037   7.326
 1003POPC   NC316955  32.495  22.292   9.549
 1003POPC   PO416956  31.850  21.979   9.496
 1003POPC   GL116957  32.078  22.142   9.142
 1003POPC   GL216958  32.419  21.994   9.130
 1003POPC   C1A16959  31.999  22.039   8.700
 1003POPC   D2A16960  31.817  22.245   8.362
 1003POPC   C3A16961  31.985  22.296   7.962
 1003POPC   C4A16962  32.170  22.004   7.720
 1003POPC   C1B16963  32.490  22.190   8.721
 1003POPC   C2B16964  32.357  22.126   8.295
 1003POPC   C3B16965  32.591  22.159   7.945
 1003POPC   C4B16966  32.567  22.357   7.573
 1004POPC   NC316967  40.748  24.046   9.502
 1004POPC   PO416968  40.532  23.418   9.451
 1004POPC   GL116969  40.821  23.639   9.152
 1004POPC   GL216970  41.027  23.382   9.018
 1004POPC   C1A16971  40.847  23.982   8.837
 1004POPC   D2A16972  40.953  24.100   8.390
 1004POPC   C3A16973  40.903  23.845   8.016
 1004POPC   C4A16974  40.842  23.841   7.566
 1004POPC   C1B16975  40.996  23.525   8.676
 1004POPC   C2B16976  40.852  23.415   8.348
 1004POPC   C3B16977  41.074  23.334   8.023
 1004POPC   C4B16978  40.881  23.342   7.675
 1005POPC   NC316979  14.794   8.622   9.581
 1005POPC   PO416980  14.243   8.167   9.599
 1005POPC   GL116981  14.380   8.176   9.197
 1005POPC   GL216982  14.388   8.528   9.210
 1005POPC   C1A16983  14.464   7.968   8.790
 1005POPC   D2A16984  14.520   7.736   8.379
 1005POPC   C3A16985  14.430   7.980   7.987
 1005POPC   C4A16986  14.525   8.292   7.673
 1005POPC   C1B16987  14.166   8.411   8.814
 1005POPC   C2B16988  14.182   8.214   8.407
 1005POPC   C3B16989  14.140   8.393   8.005
 1005POPC   C4B16990  13.991   8.305   7.624
 1006POPC   NC316991   7.353  30.271   9.513
 1006POPC   PO416992   7.182  30.820   9.482
 1006POPC   GL116993   7.193  30.537   9.106
 1006POPC   GL216994   6.873  30.450   9.021
 1006POPC   C1A16995   7.479  30.479   8.727
 1006POPC   D2A16996   7.674  30.307   8.314
 1006POPC   C3A16997   7.536  30.436   7.894
 1006POPC   C4A16998   7.648  30.620   7.475
 1006POPC   C1B16999   7.028  30.219   8.681
 1006POPC   C2B17000   7.182  30.332   8.295
 1006POPC   C3B17001   7.019  30.490   7.943
 1006POPC   C4B17002   7.110  30.845   7.689
 1007POPC   NC317003  33.423  26.732   9.547
 1007POPC   PO417004  32.762  26.682   9.454
 1007POPC   GL117005  33.038  26.905   9.135
 1007POPC   GL217006  33.231  26.634   9.058
 1007POPC   C1A17007  33.133  26.897   8.647
 1007POPC   D2A17008  33.290  26.682   8.282
 1007POPC   C3A17009  33.138  26.919   7.935
 1007POPC   C4A17010  32.739  27.163   8.012
 1007POPC   C1B17011  32.835  26.545   8.810
 1007POPC   C2B17012  32.704  26.518   8.387
 1007POPC   C3B17013  32.924  26.417   8.013
 1007POPC   C4B17014  33.078  26.479   7.598
 1008POPC   NC317015  21.528   6.857   9.509
 1008POPC   PO417016  21.166   6.320   9.612
 1008POPC   GL117017  21.263   6.550   9.217
 1008POPC   GL217018  21.546   6.383   9.086
 1008POPC   C1A17019  21.468   6.793   8.821
 1008POPC   D2A17020  21.761   6.732   8.469
 1008POPC   C3A17021  21.567   6.653   8.067
 1008POPC   C4A17022  21.482   6.799   7.653
 1008POPC   C1B17023  21.173   6.358   8.772
 1008POPC   C2B17024  21.151   6.554   8.385
 1008POPC   C3B17025  21.141   6.372   7.990
 1008POPC   C4B17026  21.361   6.317   7.597
 1009POPC   NC317027  37.829  42.968   9.460
 1009POPC   PO417028  37.359  43.415   9.570
 1009POPC   GL117029  37.516  43.379   9.144
 1009POPC   GL217030  37.891  43.331   9.103
 1009POPC   C1A17031  37.537  43.210   8.726
 1009POPC   D2A17032  37.318  42.987   8.391
 1009POPC   C3A17033  37.453  43.163   8.018
 1009POPC   C4A17034  37.420  42.881   7.700
 1009POPC   C1B17035  37.972  42.949   8.803
 1009POPC   C2B17036  37.947  42.634   8.449
 1009POPC   C3B17037  37.760  42.717   8.051
 1009POPC   C4B17038  37.889  43.069   7.786
 1010POPC   NC317039  30.748  11.164   9.396
 1010POPC   PO417040  31.258  11.451   9.180
 1010POPC   GL117041  31.047  11.761   8.992
 1010POPC   GL217042  30.757  11.592   9.072
 1010POPC   C1A17043  30.933  11.579   8.600
 1010POPC   D2A17044  30.766  11.229   8.441
 1010POPC   C3A17045  30.693  11.347   8.077
 1010POPC   C4A17046  30.916  11.279   7.730
 1010POPC   C1B17047  30.472  11.363   8.809
 1010POPC   C2B17048  30.288  11.083   8.476
 1010POPC   C3B17049  30.406  10.929   8.041
 1010POPC   C4B17050  30.405  11.208   7.689
 1011POPC   NC317051   6.138  44.805   9.396
 1011POPC   PO417052   5.665  44.286   9.435
 1011POPC   GL117053   5.860  44.505   9.096
 1011POPC   GL217054   6.175  44.379   9.032
 1011POPC   C1A17055   5.958  44.815   8.758
 1011POPC   D2A17056   5.763   0.070   8.459
 1011POPC   C3A17057   5.630  44.908   8.093
 1011POPC   C4A17058   5.927  44.834   7.800
 1011POPC   C1B17059   5.920  44.318   8.635
 1011POPC   C2B17060   5.941  44.503   8.230
 1011POPC   C3B17061   5.800  44.355   7.826
 1011POPC   C4B17062   6.111  44.417   7.465
 1012POPC   NC317063  21.850  14.423   9.348
 1012POPC   PO417064  21.286  14.354   9.692
 1012POPC   GL117065  21.355  14.367   9.251
 1012POPC   GL217066  21.440  14.123   9.078
 1012POPC   C1A17067  21.347  14.573   8.831
 1012POPC   D2A17068  21.259  14.784   8.439
 1012POPC   C3A17069  21.575  14.724   8.163
 1012POPC   C4A17070  21.680  14.511   7.800
 1012POPC   C1B17071  21.562  14.125   8.685
 1012POPC   C2B17072  21.489  14.233   8.302
 1012POPC   C3B17073  21.693  14.002   8.000
 1012POPC   C4B17074  21.603  13.943   7.611
 1013POPC   NC317075  25.113  35.991   9.415
 1013POPC   PO417076  25.211  36.625   9.428
 1013POPC   GL117077  25.496  36.432   9.128
 1013POPC   GL217078  25.567  36.037   9.136
 1013POPC   C1A17079  25.413  36.281   8.715
 1013POPC   D2A17080  25.270  36.041   8.367
 1013POPC   C3A17081  25.345  36.231   7.992
 1013POPC   C4A17082  25.093  36.201   7.616
 1013POPC   C1B17083  25.321  35.767   8.811
 1013POPC   C2B17084  25.353  35.538   8.402
 1013POPC   C3B17085  25.598  35.758   8.071
 1013POPC   C4B17086  25.498  35.885   7.639
 1014POPC   NC317087   8.892  11.911   9.621
 1014POPC   PO417088   8.532  12.532   9.610
 1014POPC   GL117089   8.779  12.356   9.243
 1014POPC   GL217090   9.082  12.169   9.200
 1014POPC   C1A17091   8.732  12.166   8.823
 1014POPC   D2A17092   8.751  12.350   8.407
 1014POPC   C3A17093   8.799  12.112   8.044
 1014POPC   C4A17094   9.081  12.142   7.708
 1014POPC   C1B17095   9.143  11.863   8.875
 1014POPC   C2B17096   9.082  11.871   8.441
 1014POPC   C3B17097   9.203  11.762   8.037
 1014POPC   C4B17098   9.312  11.586   7.624
 1015POPC   NC317099   3.408  20.722   9.495
 1015POPC   PO417100   3.640  20.182   9.355
 1015POPC   GL117101   3.360  20.428   9.093
 1015POPC   GL217102   3.645  20.674   9.025
 1015POPC   C1A17103   3.259  20.598   8.699
 1015POPC   D2A17104   3.441  20.800   8.362
 1015POPC   C3A17105   3.590  20.559   8.061
 1015POPC   C4A17106   3.318  20.405   7.767
 1015POPC   C1B17107   3.884  20.897   8.676
 1015POPC   C2B17108   3.936  20.948   8.198
 1015POPC   C3B17109   3.705  20.955   7.779
 1015POPC   C4B17110   3.853  20.803   7.362
 1016POPC   NC317111   0.791   0.968   9.323
 1016POPC   PO417112   0.602   1.558   9.624
 1016POPC   GL117113   0.541   1.379   9.159
 1016POPC   GL217114   0.212   1.498   9.041
 1016POPC   C1A17115   0.450   1.234   8.692
 1016POPC   D2A17116   0.167   1.379   8.326
 1016POPC   C3A17117   0.428   1.340   7.945
 1016POPC   C4A17118   0.465   1.386   7.480
 1016POPC   C1B17119  44.960   1.206   8.791
 1016POPC   C2B17120  44.998   0.907   8.444
 1016POPC   C3B17121   0.186   0.861   8.032
 1016POPC   C4B17122   0.101   1.083   7.642
 1017POPC   NC317123   2.448   5.728   9.471
 1017POPC   PO417124   3.110   5.728   9.372
 1017POPC   GL117125   2.786   5.680   9.077
 1017POPC   GL217126   2.563   5.959   9.058
 1017POPC   C1A17127   2.605   5.684   8.643
 1017POPC   D2A17128   2.377   5.656   8.257
 1017POPC   C3A17129   2.604   5.863   7.898
 1017POPC   C4A17130   3.026   5.722   7.843
 1017POPC   C1B17131   2.870   6.108   8.781
 1017POPC   C2B17132   2.872   5.985   8.348
 1017POPC   C3B17133   2.940   6.235   8.030
 1017POPC   C4B17134   2.974   6.153   7.615
 1018POPC   NC317135  33.878  21.465   9.470
 1018POPC   PO417136  33.465  20.940   9.660
 1018POPC   GL117137  33.528  21.019   9.151
 1018POPC   GL217138  33.694  21.299   9.031
 1018POPC   C1A17139  33.722  20.954   8.689
 1018POPC   D2A17140  33.558  21.064   8.282
 1018POPC   C3A17141  33.875  21.180   8.015
 1018POPC   C4A17142  33.957  21.168   7.552
 1018POPC   C1B17143  33.540  21.460   8.626
 1018POPC   C2B17144  33.645  21.613   8.205
 1018POPC   C3B17145  33.842  21.618   7.783
 1018POPC   C4B17146  33.985  21.686   7.343
 1019POPC   NC317147  32.084   8.178   9.353
 1019POPC   PO417148  32.718   7.832   9.447
 1019POPC   GL117149  32.443   7.932   9.099
 1019POPC   GL217150  32.544   8.269   9.045
 1019POPC   C1A17151  32.199   8.050   8.700
 1019POPC   D2A17152  32.298   8.139   8.245
 1019POPC   C3A17153  32.091   7.975   7.881
 1019POPC   C4A17154  32.246   7.947   7.470
 1019POPC   C1B17155  32.501   8.454   8.654
 1019POPC   C2B17156  32.109   8.533   8.507
 1019POPC   C3B17157  32.188   8.620   8.089
 1019POPC   C4B17158  32.261   8.418   7.682
 1020POPC   NC317159  44.348  17.840   9.881
 1020POPC   PO417160  44.868  17.442   9.633
 1020POPC   GL117161  44.801  17.609   9.221
 1020POPC   GL217162  44.599  17.316   9.137
 1020POPC   C1A17163  44.712  17.729   8.776
 1020POPC   D2A17164  44.589  17.957   8.411
 1020POPC   C3A17165  44.638  17.850   8.017
 1020POPC   C4A17166  44.721  17.468   7.836
 1020POPC   C1B17167  44.430  17.317   8.710
 1020POPC   C2B17168  44.447  17.421   8.285
 1020POPC   C3B17169  44.358  17.141   7.934
 1020POPC   C4B17170  44.640  16.989   7.615
 1021POPC   NC317171  24.270  16.289   9.256
 1021POPC   PO417172  24.511  17.013   9.441
 1021POPC   GL117173  24.549  16.689   9.159
 1021POPC   GL217174  24.197  16.743   9.067
 1021POPC   C1A17175  24.588  16.529   8.733
 1021POPC   D2A17176  24.712  16.843   8.435
 1021POPC   C3A17177  24.667  16.697   8.042
 1021POPC   C4A17178  24.630  16.418   7.724
 1021POPC   C1B17179  24.408  17.024   8.799
 1021POPC   C2B17180  24.185  17.065   8.423
 1021POPC   C3B17181  24.152  16.843   8.037
 1021POPC   C4B17182  24.405  16.923   7.667
 1022POPC   NC317183  32.704  34.274   9.523
 1022POPC   PO417184  33.237  34.703   9.460
 1022POPC   GL117185  32.935  34.584   9.167
 1022POPC   GL217186  33.109  34.305   9.144
 1022POPC   C1A17187  32.937  34.607   8.725
 1022POPC   D2A17188  32.716  34.477   8.329
 1022POPC   C3A17189  32.977  34.543   7.977
 1022POPC   C4A17190  32.998  34.806   7.626
 1022POPC   C1B17191  33.301  34.094   8.814
 1022POPC   C2B17192  33.183  34.234   8.415
 1022POPC   C3B17193  33.284  34.100   8.027
 1022POPC   C4B17194  33.157  34.073   7.607
 1023POPC   NC317195   1.847  31.429   9.685
 1023POPC   PO417196   2.421  31.449   9.688
 1023POPC   GL117197   2.119  31.481   9.267
 1023POPC   GL217198   1.724  31.586   9.236
 1023POPC   C1A17199   2.067  31.643   8.849
 1023POPC   D2A17200   2.029  31.648   8.423
 1023POPC   C3A17201   2.147  31.328   8.128
 1023POPC   C4A17202   2.059  31.274   7.689
 1023POPC   C1B17203   1.557  31.694   8.879
 1023POPC   C2B17204   1.536  31.602   8.437
 1023POPC   C3B17205   1.728  31.591   8.016
 1023POPC   C4B17206   1.808  31.702   7.566
 1024POPC   NC317207  20.714   3.462   9.513
 1024POPC   PO417208  20.188   3.935   9.317
 1024POPC   GL117209  20.535   3.675   9.092
 1024POPC   GL217210  20.545   3.293   9.057
 1024POPC   C1A17211  20.725   3.618   8.705
 1024POPC   D2A17212  20.577   3.715   8.297
 1024POPC   C3A17213  20.810   3.669   7.899
 1024POPC   C4A17214  20.801   3.280   7.697
 1024POPC   C1B17215  20.339   3.259   8.671
 1024POPC   C2B17216  20.144   3.374   8.303
 1024POPC   C3B17217  20.337   3.428   7.903
 1024POPC   C4B17218  20.412   3.470   7.428
 1025POPC   NC317219  16.952  11.684   9.459
 1025POPC   PO417220  16.652  12.273   9.563
 1025POPC   GL117221  16.574  11.923   9.201
 1025POPC   GL217222  16.885  11.883   9.005
 1025POPC   C1A17223  16.484  11.712   8.762
 1025POPC   D2A17224  16.651  11.860   8.375
 1025POPC   C3A17225  16.564  11.843   7.979
 1025POPC   C4A17226  16.972  11.858   7.769
 1025POPC   C1B17227  16.876  12.201   8.693
 1025POPC   C2B17228  17.108  12.290   8.318
 1025POPC   C3B17229  16.916  12.353   7.941
 1025POPC   C4B17230  16.728  12.281   7.566
 1026POPC   NC317231  39.508  39.508   9.376
 1026POPC   PO417232  38.864  39.459   9.269
 1026POPC   GL117233  39.162  39.254   9.050
 1026POPC   GL217234  39.348  38.974   9.168
 1026POPC   C1A17235  39.137  39.264   8.637
 1026POPC   D2A17236  38.828  39.135   8.398
 1026POPC   C3A17237  38.961  39.284   8.024
 1026POPC   C4A17238  39.027  39.115   7.634
 1026POPC   C1B17239  39.557  39.020   8.775
 1026POPC   C2B17240  39.594  39.256   8.363
 1026POPC   C3B17241  39.468  39.081   7.949
 1026POPC   C4B17242  39.441  38.794   7.592
 1027POPC   NC317243  13.643   7.811   9.450
 1027POPC   PO417244  13.531   8.449   9.490
 1027POPC   GL117245  13.859   8.221   9.218
 1027POPC   GL217246  13.639   8.296   8.999
 1027POPC   C1A17247  13.902   7.968   8.765
 1027POPC   D2A17248  13.685   8.099   8.386
 1027POPC   C3A17249  13.904   7.959   8.044
 1027POPC   C4A17250  13.853   7.750   7.719
 1027POPC   C1B17251  13.701   8.539   8.654
 1027POPC   C2B17252  13.581   8.660   8.267
 1027POPC   C3B17253  13.602   8.378   7.940
 1027POPC   C4B17254  13.404   7.965   7.895
 1028POPC   NC317255  30.336  28.722   9.400
 1028POPC   PO417256  30.786  28.238   9.553
 1028POPC   GL117257  30.807  28.190   9.134
 1028POPC   GL217258  30.536  28.409   9.020
 1028POPC   C1A17259  31.017  28.119   8.751
 1028POPC   D2A17260  30.981  28.273   8.352
 1028POPC   C3A17261  30.611  28.195   8.094
 1028POPC   C4A17262  30.628  28.467   7.731
 1028POPC   C1B17263  30.794  28.633   8.687
 1028POPC   C2B17264  30.688  28.699   8.228
 1028POPC   C3B17265  30.349  28.856   7.941
 1028POPC   C4B17266  30.231  28.711   7.519
 1029POPC   NC317267  15.602   6.243   9.724
 1029POPC   PO417268  16.131   6.671   9.670
 1029POPC   GL117269  15.977   6.818   9.258
 1029POPC   GL217270  16.277   6.960   9.148
 1029POPC   C1A17271  15.779   6.617   8.849
 1029POPC   D2A17272  15.911   6.396   8.448
 1029POPC   C3A17273  15.715   6.434   8.035
 1029POPC   C4A17274  15.833   6.646   7.662
 1029POPC   C1B17275  15.965   7.094   8.818
 1029POPC   C2B17276  15.995   7.091   8.357
 1029POPC   C3B17277  16.151   6.725   8.108
 1029POPC   C4B17278  16.344   6.688   7.717
 1030POPC   NC317279   7.160  35.775   9.590
 1030POPC   PO417280   6.702  35.377   9.717
 1030POPC   GL117281   6.685  35.518   9.252
 1030POPC   GL217282   6.979  35.714   9.091
 1030POPC   C1A17283   6.586  35.269   8.860
 1030POPC   D2A17284   6.369  35.215   8.450
 1030POPC   C3A17285   6.597  35.258   8.021
 1030POPC   C4A17286   6.695  34.976   7.645
 1030POPC   C1B17287   6.644  35.753   8.754
 1030POPC   C2B17288   6.512  35.686   8.309
 1030POPC   C3B17289   6.282  35.661   7.922
 1030POPC   C4B17290   6.342  35.666   7.492
 1031POPC   NC317291  38.809  34.188   9.321
 1031POPC   PO417292  39.178  34.806   9.291
 1031POPC   GL117293  39.123  34.487   9.043
 1031POPC   GL217294  39.325  34.249   9.134
 1031POPC   C1A17295  39.173  34.488   8.634
 1031POPC   D2A17296  39.383  34.703   8.358
 1031POPC   C3A17297  39.122  34.747   8.009
 1031POPC   C4A17298  39.073  34.553   7.606
 1031POPC   C1B17299  39.627  34.385   8.827
 1031POPC   C2B17300  39.764  34.366   8.405
 1031POPC   C3B17301  39.581  34.452   7.960
 1031POPC   C4B17302  39.421  34.108   7.723
 1032POPC   NC317303  37.478  35.343   9.501
 1032POPC   PO417304  37.914  34.869   9.472
 1032POPC   GL117305  37.794  35.061   9.089
 1032POPC   GL217306  37.810  35.436   9.111
 1032POPC   C1A17307  37.829  35.161   8.650
 1032POPC   D2A17308  37.690  35.382   8.305
 1032POPC   C3A17309  37.685  35.196   7.917
 1032POPC   C4A17310  37.357  35.091   7.645
 1032POPC   C1B17311  37.802  35.680   8.738
 1032POPC   C2B17312  37.795  35.880   8.316
 1032POPC   C3B17313  37.755  35.713   7.881
 1032POPC   C4B17314  37.631  35.675   7.436
 1033POPC   NC317315  29.649  42.765   9.493
 1033POPC   PO417316  29.938  43.365   9.524
 1033POPC   GL117317  30.017  43.143   9.177
 1033POPC   GL217318  30.366  43.120   9.126
 1033POPC   C1A17319  29.812  43.083   8.781
 1033POPC   D2A17320  29.520  43.324   8.512
 1033POPC   C3A17321  29.594  43.272   8.063
 1033POPC   C4A17322  29.933  43.008   7.949
 1033POPC   C1B17323  30.297  43.370   8.776
 1033POPC   C2B17324  30.064  43.359   8.393
 1033POPC   C3B17325  30.290  43.370   8.025
 1033POPC   C4B17326  30.373  43.091   7.717
 1034POPC   NC317327  25.852  42.038   9.660
 1034POPC   PO417328  26.256  42.531   9.531
 1034POPC   GL117329  25.995  42.475   9.187
 1034POPC   GL217330  25.844  42.171   9.183
 1034POPC   C1A17331  25.981  42.498   8.769
 1034POPC   D2A17332  26.238  42.505   8.392
 1034POPC   C3A17333  25.998  42.484   8.008
 1034POPC   C4A17334  26.094  42.514   7.579
 1034POPC   C1B17335  25.789  42.025   8.791
 1034POPC   C2B17336  25.844  42.150   8.397
 1034POPC   C3B17337  25.899  41.969   8.015
 1034POPC   C4B17338  25.675  42.200   7.685
 1035POPC   NC317339  13.830  43.020   9.534
 1035POPC   PO417340  13.286  42.739   9.557
 1035POPC   GL117341  13.421  42.838   9.123
 1035POPC   GL217342  13.735  43.024   9.045
 1035POPC   C1A17343  13.502  42.832   8.657
 1035POPC   D2A17344  13.708  42.971   8.265
 1035POPC   C3A17345  13.507  42.974   7.830
 1035POPC   C4A17346  13.497  42.833   7.393
 1035POPC   C1B17347  14.031  42.932   8.718
 1035POPC   C2B17348  14.197  42.825   8.326
 1035POPC   C3B17349  14.102  43.026   7.902
 1035POPC   C4B17350  13.973  43.087   7.424
 1036POPC   NC317351  10.737  19.298   9.590
 1036POPC   PO417352  10.205  18.885   9.372
 1036POPC   GL117353  10.413  19.091   9.063
 1036POPC   GL217354  10.779  19.097   9.130
 1036POPC   C1A17355  10.534  18.977   8.637
 1036POPC   D2A17356  10.346  18.753   8.290
 1036POPC   C3A17357  10.553  18.915   7.934
 1036POPC   C4A17358  10.401  19.270   7.707
 1036POPC   C1B17359  10.687  19.438   8.832
 1036POPC   C2B17360  10.555  19.647   8.444
 1036POPC   C3B17361  10.723  19.632   8.035
 1036POPC   C4B17362  10.915  19.285   7.832
 1037POPC   NC317363  19.170  25.458   9.409
 1037POPC   PO417364  18.933  24.865   9.629
 1037POPC   GL117365  18.874  25.062   9.222
 1037POPC   GL217366  19.133  25.228   8.973
 1037POPC   C1A17367  18.661  25.204   8.854
 1037POPC   D2A17368  18.901  25.267   8.498
 1037POPC   C3A17369  18.839  24.956   8.204
 1037POPC   C4A17370  19.024  24.938   7.822
 1037POPC   C1B17371  19.299  25.573   8.728
 1037POPC   C2B17372  19.430  25.601   8.332
 1037POPC   C3B17373  19.156  25.422   8.075
 1037POPC   C4B17374  19.093  25.425   7.680
 1038POPC   NC317375   4.905  31.524   9.453
 1038POPC   PO417376   5.552  31.612   9.468
 1038POPC   GL117377   5.349  31.353   9.151
 1038POPC   GL217378   5.197  31.665   9.074
 1038POPC   C1A17379   4.973  31.263   8.846
 1038POPC   D2A17380   4.817  31.498   8.476
 1038POPC   C3A17381   5.006  31.390   8.086
 1038POPC   C4A17382   4.884  31.459   7.660
 1038POPC   C1B17383   5.265  31.638   8.670
 1038POPC   C2B17384   5.220  31.885   8.329
 1038POPC   C3B17385   5.218  31.820   7.905
 1038POPC   C4B17386   5.219  31.782   7.472
 1039POPC   NC317387   3.106  36.307   9.454
 1039POPC   PO417388   2.531  36.027   9.591
 1039POPC   GL117389   2.704  35.990   9.211
 1039POPC   GL217390   2.962  35.748   9.309
 1039POPC   C1A17391   2.690  36.244   8.822
 1039POPC   D2A17392   2.582  36.159   8.402
 1039POPC   C3A17393   2.378  36.396   8.100
 1039POPC   C4A17394   2.690  36.377   7.830
 1039POPC   C1B17395   3.102  35.924   8.910
 1039POPC   C2B17396   3.086  36.059   8.507
 1039POPC   C3B17397   2.941  35.887   8.116
 1039POPC   C4B17398   2.942  35.969   7.688
 1040POPC   NC317399  31.817  13.941   9.824
 1040POPC   PO417400  32.406  14.109   9.507
 1040POPC   GL117401  32.256  13.753   9.273
 1040POPC   GL217402  31.944  13.739   9.352
 1040POPC   C1A17403  32.340  13.486   8.899
 1040POPC   D2A17404  32.366  13.305   8.483
 1040POPC   C3A17405  32.287  13.635   8.174
 1040POPC   C4A17406  32.221  13.703   7.740
 1040POPC   C1B17407  31.868  13.676   8.917
 1040POPC   C2B17408  31.838  13.656   8.463
 1040POPC   C3B17409  31.788  13.757   8.018
 1040POPC   C4B17410  31.780  13.894   7.581
 1041POPC   NC317411  34.107  38.024   9.374
 1041POPC   PO417412  33.470  37.777   9.454
 1041POPC   GL117413  33.578  37.515   9.124
 1041POPC   GL217414  33.894  37.689   9.060
 1041POPC   C1A17415  33.544  37.591   8.700
 1041POPC   D2A17416  33.764  37.842   8.403
 1041POPC   C3A17417  33.622  37.684   8.007
 1041POPC   C4A17418  33.588  37.901   7.645
 1041POPC   C1B17419  34.037  37.480   8.667
 1041POPC   C2B17420  33.930  37.351   8.279
 1041POPC   C3B17421  34.020  37.341   7.867
 1041POPC   C4B17422  33.706  37.371   7.574
 1042POPC   NC317423   9.356  15.683   9.638
 1042POPC   PO417424   8.671  15.933   9.561
 1042POPC   GL117425   8.882  15.857   9.171
 1042POPC   GL217426   9.219  15.831   9.163
 1042POPC   C1A17427   8.883  16.011   8.761
 1042POPC   D2A17428   8.838  16.146   8.339
 1042POPC   C3A17429   8.626  15.844   8.121
 1042POPC   C4A17430   8.700  15.711   7.694
 1042POPC   C1B17431   9.241  15.631   8.756
 1042POPC   C2B17432   9.046  15.636   8.349
 1042POPC   C3B17433   9.122  15.861   7.969
 1042POPC   C4B17434   9.349  16.142   7.714
 1043POPC   NC317435  32.138  26.238   9.693
 1043POPC   PO417436  32.600  25.874   9.406
 1043POPC   GL117437  32.288  26.141   9.211
 1043POPC   GL217438  32.550  26.332   9.159
 1043POPC   C1A17439  32.037  26.171   8.824
 1043POPC   D2A17440  32.003  25.804   8.527
 1043POPC   C3A17441  31.885  25.945   8.135
 1043POPC   C4A17442  31.970  25.800   7.741
 1043POPC   C1B17443  32.537  26.146   8.748
 1043POPC   C2B17444  32.326  26.154   8.361
 1043POPC   C3B17445  32.402  25.958   7.989
 1043POPC   C4B17446  32.486  26.309   7.788
 1044POPC   NC317447  32.325  25.592   9.182
 1044POPC   PO417448  32.095  25.010   9.400
 1044POPC   GL117449  32.128  25.108   9.018
 1044POPC   GL217450  32.471  25.131   9.007
 1044POPC   C1A17451  32.139  25.110   8.591
 1044POPC   D2A17452  32.275  25.010   8.186
 1044POPC   C3A17453  32.399  25.368   7.920
 1044POPC   C4A17454  32.248  25.465   7.509
 1044POPC   C1B17455  32.656  24.890   8.698
 1044POPC   C2B17456  32.811  24.854   8.287
 1044POPC   C3B17457  32.669  24.889   7.873
 1044POPC   C4B17458  32.592  25.116   7.505
 1045POPC   NC317459  42.758  19.966   9.925
 1045POPC   PO417460  42.957  19.809   9.333
 1045POPC   GL117461  43.140  19.911   9.019
 1045POPC   GL217462  43.439  20.078   9.122
 1045POPC   C1A17463  43.045  19.702   8.652
 1045POPC   D2A17464  43.135  19.709   8.278
 1045POPC   C3A17465  42.881  19.651   7.925
 1045POPC   C4A17466  42.866  19.747   7.510
 1045POPC   C1B17467  43.308  20.263   8.716
 1045POPC   C2B17468  43.409  20.150   8.318
 1045POPC   C3B17469  43.068  20.153   8.046
 1045POPC   C4B17470  43.065  20.175   7.640
 1046POPC   NC317471   6.629   9.404   9.402
 1046POPC   PO417472   7.038   9.897   9.420
 1046POPC   GL117473   6.735   9.815   9.103
 1046POPC   GL217474   6.737  10.115   8.961
 1046POPC   C1A17475   6.700   9.601   8.695
 1046POPC   D2A17476   6.890   9.440   8.341
 1046POPC   C3A17477   6.662   9.590   8.039
 1046POPC   C4A17478   6.575   9.383   7.680
 1046POPC   C1B17479   6.501  10.115   8.595
 1046POPC   C2B17480   6.647  10.317   8.221
 1046POPC   C3B17481   6.790  10.072   7.874
 1046POPC   C4B17482   6.916   9.772   7.562
 1047POPC   NC317483  25.602  29.346   9.439
 1047POPC   PO417484  25.364  28.970   9.878
 1047POPC   GL117485  25.285  28.830   9.259
 1047POPC   GL217486  25.261  29.141   9.077
 1047POPC   C1A17487  25.412  28.770   8.797
 1047POPC   D2A17488  25.573  28.899   8.377
 1047POPC   C3A17489  25.219  29.105   8.128
 1047POPC   C4A17490  25.227  29.034   7.690
 1047POPC   C1B17491  25.288  29.246   8.628
 1047POPC   C2B17492  25.603  29.423   8.325
 1047POPC   C3B17493  25.675  29.216   7.936
 1047POPC   C4B17494  25.645  29.210   7.456
 1048POPC   NC317495   0.303  42.840   9.515
 1048POPC   PO417496   0.363  42.084   9.481
 1048POPC   GL117497   0.280  42.232   9.095
 1048POPC   GL217498   0.315  42.583   9.048
 1048POPC   C1A17499   0.148  42.193   8.689
 1048POPC   D2A17500   0.292  42.063   8.308
 1048POPC   C3A17501   0.284  42.418   8.035
 1048POPC   C4A17502   0.583  42.237   7.821
 1048POPC   C1B17503   0.458  42.585   8.613
 1048POPC   C2B17504   0.729  42.413   8.319
 1048POPC   C3B17505   0.836  42.655   8.017
 1048POPC   C4B17506   0.565  42.732   7.711
 1049POPC   NC317507  38.591   8.427   9.573
 1049POPC   PO417508  38.806   7.783   9.468
 1049POPC   GL117509  38.626   8.084   9.193
 1049POPC   GL217510  38.303   8.089   9.124
 1049POPC   C1A17511  38.686   8.045   8.780
 1049POPC   D2A17512  38.486   8.180   8.427
 1049POPC   C3A17513  38.687   8.015   8.101
 1049POPC   C4A17514  38.666   8.131   7.677
 1049POPC   C1B17515  38.141   8.255   8.790
 1049POPC   C2B17516  37.995   8.310   8.394
 1049POPC   C3B17517  38.223   8.260   8.002
 1049POPC   C4B17518  37.993   8.414   7.723
 1050POPC   NC317519  38.681  20.065   9.924
 1050POPC   PO417520  38.679  19.707   9.630
 1050POPC   GL117521  38.404  19.880   9.239
 1050POPC   GL217522  38.312  20.243   9.202
 1050POPC   C1A17523  38.264  19.767   8.793
 1050POPC   D2A17524  38.464  19.569   8.409
 1050POPC   C3A17525  38.393  19.643   7.943
 1050POPC   C4A17526  38.690  19.518   7.559
 1050POPC   C1B17527  38.502  20.216   8.763
 1050POPC   C2B17528  38.336  20.073   8.349
 1050POPC   C3B17529  38.352  20.199   7.905
 1050POPC   C4B17530  38.267  20.385   7.472
 1051POPC   NC317531  11.882  21.788   9.519
 1051POPC   PO417532  12.325  21.318   9.602
 1051POPC   GL117533  11.961  21.346   9.286
 1051POPC   GL217534  12.122  21.533   9.025
 1051POPC   C1A17535  11.683  21.306   8.899
 1051POPC   D2A17536  11.777  21.108   8.489
 1051POPC   C3A17537  11.793  21.366   8.143
 1051POPC   C4A17538  11.777  21.403   7.712
 1051POPC   C1B17539  11.971  21.622   8.584
 1051POPC   C2B17540  12.223  21.630   8.190
 1051POPC   C3B17541  12.148  21.723   7.762
 1051POPC   C4B17542  12.263  21.543   7.385
 1052POPC   NC317543  41.153  28.272   9.385
 1052POPC   PO417544  40.526  28.045   9.236
 1052POPC   GL117545  40.697  28.273   8.940
 1052POPC   GL217546  40.851  28.573   8.993
 1052POPC   C1A17547  40.640  28.434   8.546
 1052POPC   D2A17548  40.864  28.206   8.246
 1052POPC   C3A17549  40.772  28.420   7.877
 1052POPC   C4A17550  40.642  28.618   7.491
 1052POPC   C1B17551  41.146  28.437   8.655
 1052POPC   C2B17552  41.218  28.573   8.220
 1052POPC   C3B17553  41.277  28.280   7.874
 1052POPC   C4B17554  41.075  28.255   7.456
 1053POPC   NC317555  33.060  21.733   9.438
 1053POPC   PO417556  32.957  22.381   9.569
 1053POPC   GL117557  32.910  22.188   9.193
 1053POPC   GL217558  33.265  22.139   9.182
 1053POPC   C1A17559  32.975  21.979   8.785
 1053POPC   D2A17560  33.266  21.912   8.434
 1053POPC   C3A17561  33.009  21.893   8.057
 1053POPC   C4A17562  33.031  22.114   7.657
 1053POPC   C1B17563  33.395  22.282   8.810
 1053POPC   C2B17564  33.243  22.444   8.440
 1053POPC   C3B17565  33.282  22.316   8.072
 1053POPC   C4B17566  33.526  22.019   7.940
 1054POPC   NC317567  20.905   8.341   9.465
 1054POPC   PO417568  20.238   8.570   9.615
 1054POPC   GL117569  20.332   8.380   9.177
 1054POPC   GL217570  20.641   8.501   9.048
 1054POPC   C1A17571  20.312   8.206   8.747
 1054POPC   D2A17572  20.439   8.422   8.405
 1054POPC   C3A17573  20.622   8.303   8.033
 1054POPC   C4A17574  20.534   8.252   7.592
 1054POPC   C1B17575  20.821   8.258   8.717
 1054POPC   C2B17576  20.663   7.935   8.429
 1054POPC   C3B17577  20.656   7.805   7.972
 1054POPC   C4B17578  20.976   8.049   7.754
 1055POPC   NC317579  42.345  40.340   9.764
 1055POPC   PO417580  42.454  39.655   9.418
 1055POPC   GL117581  42.176  39.801   9.094
 1055POPC   GL217582  42.400  40.073   9.051
 1055POPC   C1A17583  42.152  39.846   8.611
 1055POPC   D2A17584  42.261  40.174   8.302
 1055POPC   C3A17585  42.224  40.005   7.879
 1055POPC   C4A17586  42.552  39.738   7.753
 1055POPC   C1B17587  42.628  39.962   8.695
 1055POPC   C2B17588  42.784  40.204   8.360
 1055POPC   C3B17589  42.691  40.184   7.952
 1055POPC   C4B17590  42.882  40.363   7.616
 1056POPC   NC317591  28.491  40.832   9.535
 1056POPC   PO417592  27.949  41.151   9.319
 1056POPC   GL117593  28.239  40.857   9.088
 1056POPC   GL217594  28.457  40.550   9.095
 1056POPC   C1A17595  28.314  40.830   8.653
 1056POPC   D2A17596  28.012  41.054   8.379
 1056POPC   C3A17597  28.153  40.989   7.988
 1056POPC   C4A17598  28.573  41.092   7.836
 1056POPC   C1B17599  28.700  40.505   8.714
 1056POPC   C2B17600  28.838  40.398   8.306
 1056POPC   C3B17601  28.566  40.566   8.007
 1056POPC   C4B17602  28.445  40.533   7.573
 1057POPC   NC317603   4.712  16.689   9.528
 1057POPC   PO417604   4.179  17.066   9.426
 1057POPC   GL117605   4.345  16.709   9.155
 1057POPC   GL217606   4.627  16.446   9.111
 1057POPC   C1A17607   4.412  16.737   8.747
 1057POPC   D2A17608   4.613  16.949   8.433
 1057POPC   C3A17609   4.403  16.874   8.079
 1057POPC   C4A17610   4.320  16.959   7.708
 1057POPC   C1B17611   4.582  16.215   8.739
 1057POPC   C2B17612   4.502  16.395   8.374
 1057POPC   C3B17613   4.802  16.581   8.123
 1057POPC   C4B17614   4.665  16.528   7.720
 1058POPC   NC317615  20.585  43.363   9.345
 1058POPC   PO417616  20.583  44.015   9.596
 1058POPC   GL117617  20.598  44.052   9.164
 1058POPC   GL217618  20.372  43.777   9.174
 1058POPC   C1A17619  20.697  44.053   8.726
 1058POPC   D2A17620  20.835  43.859   8.341
 1058POPC   C3A17621  20.865  44.115   7.984
 1058POPC   C4A17622  20.609  44.062   7.612
 1058POPC   C1B17623  20.212  43.592   8.819
 1058POPC   C2B17624  20.346  43.764   8.449
 1058POPC   C3B17625  20.389  43.944   8.074
 1058POPC   C4B17626  20.221  43.702   7.771
 1059POPC   NC317627  33.260  36.607   9.557
 1059POPC   PO417628  32.768  37.138   9.456
 1059POPC   GL117629  32.953  36.820   9.204
 1059POPC   GL217630  33.323  36.922   9.148
 1059POPC   C1A17631  32.918  36.842   8.782
 1059POPC   D2A17632  32.760  37.066   8.435
 1059POPC   C3A17633  33.043  37.162   8.104
 1059POPC   C4A17634  33.052  37.042   7.697
 1059POPC   C1B17635  33.416  36.699   8.746
 1059POPC   C2B17636  33.211  36.713   8.339
 1059POPC   C3B17637  33.265  36.609   7.919
 1059POPC   C4B17638  33.202  36.468   7.508
 1060POPC   NC317639  23.061  19.265   9.542
 1060POPC   PO417640  23.182  18.703   9.304
 1060POPC   GL117641  22.972  18.963   9.025
 1060POPC   GL217642  22.657  18.989   9.199
 1060POPC   C1A17643  22.872  19.084   8.575
 1060POPC   D2A17644  22.686  19.234   8.163
 1060POPC   C3A17645  22.918  19.233   7.774
 1060POPC   C4A17646  23.254  19.271   7.435
 1060POPC   C1B17647  22.541  18.749   8.811
 1060POPC   C2B17648  22.596  18.690   8.390
 1060POPC   C3B17649  22.812  18.761   8.017
 1060POPC   C4B17650  22.522  18.900   7.674
 1061POPC   NC317651   2.917  34.622   9.672
 1061POPC   PO417652   2.502  34.314   9.257
 1061POPC   GL117653   2.555  34.725   9.110
 1061POPC   GL217654   2.931  34.799   9.180
 1061POPC   C1A17655   2.557  34.722   8.658
 1061POPC   D2A17656   2.900  34.765   8.353
 1061POPC   C3A17657   2.848  34.382   8.093
 1061POPC   C4A17658   2.556  34.288   7.760
 1061POPC   C1B17659   2.916  35.056   8.815
 1061POPC   C2B17660   2.528  35.215   8.582
 1061POPC   C3B17661   2.414  34.998   8.219
 1061POPC   C4B17662   2.652  34.801   7.893
 1062POPC   NC317663  20.947  20.396   9.460
 1062POPC   PO417664  21.590  20.437   9.449
 1062POPC   GL117665  21.299  20.504   9.116
 1062POPC   GL217666  21.185  20.188   9.001
 1062POPC   C1A17667  21.155  20.599   8.704
 1062POPC   D2A17668  21.267  20.374   8.346
 1062POPC   C3A17669  21.435  20.610   8.034
 1062POPC   C4A17670  21.261  20.497   7.686
 1062POPC   C1B17671  21.556  20.230   8.749
 1062POPC   C2B17672  21.781  20.361   8.360
 1062POPC   C3B17673  21.829  20.300   7.908
 1062POPC   C4B17674  21.723  20.437   7.497
 1063POPC   NC317675  39.999  24.121   9.447
 1063POPC   PO417676  39.657  24.796   9.465
 1063POPC   GL117677  39.980  24.573   9.158
 1063POPC   GL217678  39.889  24.257   8.965
 1063POPC   C1A17679  40.185  24.611   8.763
 1063POPC   D2A17680  39.953  24.377   8.450
 1063POPC   C3A17681  39.996  24.357   8.024
 1063POPC   C4A17682  40.246  24.635   7.832
 1063POPC   C1B17683  40.233  24.089   8.784
 1063POPC   C2B17684  40.453  24.002   8.451
 1063POPC   C3B17685  40.408  24.036   8.051
 1063POPC   C4B17686  40.190  23.966   7.709
 1064POPC   NC317687  40.991   3.001   9.511
 1064POPC   PO417688  40.467   2.603   9.630
 1064POPC   GL117689  40.680   2.715   9.225
 1064POPC   GL217690  40.816   2.413   9.067
 1064POPC   C1A17691  40.458   3.005   8.883
 1064POPC   D2A17692  40.702   3.116   8.509
 1064POPC   C3A17693  40.669   3.197   8.076
 1064POPC   C4A17694  40.727   3.034   7.654
 1064POPC   C1B17695  40.879   2.693   8.756
 1064POPC   C2B17696  41.059   2.735   8.388
 1064POPC   C3B17697  41.045   2.821   7.992
 1064POPC   C4B17698  40.876   2.519   7.712
 1065POPC   NC317699  27.644  13.769   9.490
 1065POPC   PO417700  27.625  13.155   9.798
 1065POPC   GL117701  27.569  13.322   9.257
 1065POPC   GL217702  27.407  13.577   9.023
 1065POPC   C1A17703  27.849  13.522   8.827
 1065POPC   D2A17704  27.772  13.760   8.413
 1065POPC   C3A17705  27.872  13.572   8.005
 1065POPC   C4A17706  27.874  13.750   7.582
 1065POPC   C1B17707  27.384  13.464   8.591
 1065POPC   C2B17708  27.385  13.524   8.152
 1065POPC   C3B17709  27.418  13.503   7.724
 1065POPC   C4B17710  27.517  13.505   7.320
 1066POPC   NC317711  30.850  44.071   9.444
 1066POPC   PO417712  30.609  44.673   9.537
 1066POPC   GL117713  30.567  44.597   9.116
 1066POPC   GL217714  30.496  44.259   9.131
 1066POPC   C1A17715  30.534  44.801   8.713
 1066POPC   D2A17716  30.737  44.951   8.351
 1066POPC   C3A17717  30.634  44.835   7.957
 1066POPC   C4A17718  30.542  44.942   7.544
 1066POPC   C1B17719  30.799  44.296   8.793
 1066POPC   C2B17720  30.978  44.501   8.424
 1066POPC   C3B17721  31.021  44.506   7.972
 1066POPC   C4B17722  30.784  44.475   7.577
 1067POPC   NC317723  34.642  38.066   9.759
 1067POPC   PO417724  34.278  37.574   9.493
 1067POPC   GL117725  34.526  37.794   9.158
 1067POPC   GL217726  34.390  37.533   8.998
 1067POPC   C1A17727  34.691  37.750   8.678
 1067POPC   D2A17728  34.469  37.489   8.366
 1067POPC   C3A17729  34.575  37.626   7.956
 1067POPC   C4A17730  34.934  37.611   7.680
 1067POPC   C1B17731  34.230  37.936   8.759
 1067POPC   C2B17732  34.290  37.982   8.359
 1067POPC   C3B17733  34.112  37.815   8.019
 1067POPC   C4B17734  34.072  37.752   7.574
 1068POPC   NC317735  24.064  18.021   9.220
 1068POPC   PO417736  23.558  18.240   9.602
 1068POPC   GL117737  23.548  18.298   9.113
 1068POPC   GL217738  23.844  18.292   8.874
 1068POPC   C1A17739  23.507  18.612   8.736
 1068POPC   D2A17740  23.706  18.483   8.343
 1068POPC   C3A17741  23.748  18.671   7.944
 1068POPC   C4A17742  23.665  18.531   7.527
 1068POPC   C1B17743  23.479  18.110   8.642
 1068POPC   C2B17744  23.508  18.024   8.202
 1068POPC   C3B17745  23.675  18.142   7.851
 1068POPC   C4B17746  24.111  18.255   7.925
 1069POPC   NC317747  36.536   9.044   9.242
 1069POPC   PO417748  35.898   8.930   9.558
 1069POPC   GL117749  36.098   8.790   9.198
 1069POPC   GL217750  36.033   9.140   9.082
 1069POPC   C1A17751  36.199   8.749   8.749
 1069POPC   D2A17752  35.907   8.677   8.429
 1069POPC   C3A17753  35.788   8.889   8.075
 1069POPC   C4A17754  35.933   8.726   7.705
 1069POPC   C1B17755  35.900   9.172   8.645
 1069POPC   C2B17756  36.200   9.112   8.307
 1069POPC   C3B17757  36.242   9.121   7.850
 1069POPC   C4B17758  36.311   8.917   7.439
 1070POPC   NC317759  35.909   2.378   9.980
 1070POPC   PO417760  36.048   2.008   9.479
 1070POPC   GL117761  36.252   1.888   9.077
 1070POPC   GL217762  36.541   1.659   9.094
 1070POPC   C1A17763  36.369   1.922   8.627
 1070POPC   D2A17764  36.493   2.052   8.219
 1070POPC   C3A17765  36.146   2.202   7.974
 1070POPC   C4A17766  35.823   1.953   7.765
 1070POPC   C1B17767  36.637   1.475   8.701
 1070POPC   C2B17768  36.743   1.615   8.314
 1070POPC   C3B17769  36.682   1.609   7.899
 1070POPC   C4B17770  36.292   1.739   7.814
 1071POPC   NC317771   2.687  14.462   9.831
 1071POPC   PO417772   3.021  14.064   9.388
 1071POPC   GL117773   2.759  14.339   9.123
 1071POPC   GL217774   2.634  14.053   8.974
 1071POPC   C1A17775   2.659  14.653   8.760
 1071POPC   D2A17776   2.754  14.873   8.345
 1071POPC   C3A17777   2.660  14.684   7.956
 1071POPC   C4A17778   2.967  14.568   7.637
 1071POPC   C1B17779   2.869  14.134   8.635
 1071POPC   C2B17780   2.832  14.274   8.216
 1071POPC   C3B17781   3.078  14.137   7.893
 1071POPC   C4B17782   2.940  13.809   7.664
 1072POPC   NC317783  21.429  10.620   9.912
 1072POPC   PO417784  21.532  10.344   9.316
 1072POPC   GL117785  21.270  10.277   9.036
 1072POPC   GL217786  21.213  10.630   9.015
 1072POPC   C1A17787  21.324  10.171   8.647
 1072POPC   D2A17788  21.519  10.076   8.297
 1072POPC   C3A17789  21.608  10.440   8.038
 1072POPC   C4A17790  21.504  10.295   7.673
 1072POPC   C1B17791  20.973  10.547   8.645
 1072POPC   C2B17792  21.136  10.416   8.247
 1072POPC   C3B17793  21.067  10.535   7.855
 1072POPC   C4B17794  20.889  10.944   7.810
 1073POPC   NC317795  39.996  38.641   9.529
 1073POPC   PO417796  40.353  38.188   9.423
 1073POPC   GL117797  39.970  38.333   9.120
 1073POPC   GL217798  39.767  38.651   9.093
 1073POPC   C1A17799  39.886  38.345   8.663
 1073POPC   D2A17800  40.295  38.239   8.413
 1073POPC   C3A17801  40.213  37.999   8.030
 1073POPC   C4A17802  39.817  38.232   8.011
 1073POPC   C1B17803  40.017  38.816   8.743
 1073POPC   C2B17804  39.828  38.776   8.319
 1073POPC   C3B17805  39.871  38.729   7.869
 1073POPC   C4B17806  40.002  38.681   7.394
 1074POPC   NC317807  20.883  25.764   9.421
 1074POPC   PO417808  20.397  26.240   9.557
 1074POPC   GL117809  20.372  26.027   9.152
 1074POPC   GL217810  20.683  25.918   8.990
 1074POPC   C1A17811  20.314  26.118   8.724
 1074POPC   D2A17812  20.613  25.936   8.457
 1074POPC   C3A17813  20.603  26.100   8.065
 1074POPC   C4A17814  20.716  25.928   7.659
 1074POPC   C1B17815  20.384  25.625   8.805
 1074POPC   C2B17816  20.315  25.467   8.420
 1074POPC   C3B17817  20.425  25.632   8.069
 1074POPC   C4B17818  20.334  25.540   7.697
 1075POPC   NC317819   2.549  39.361   9.456
 1075POPC   PO417820   2.819  38.743   9.427
 1075POPC   GL117821   2.843  39.054   9.154
 1075POPC   GL217822   2.518  39.043   9.042
 1075POPC   C1A17823   2.955  39.199   8.763
 1075POPC   D2A17824   2.706  39.203   8.389
 1075POPC   C3A17825   2.848  39.210   7.954
 1075POPC   C4A17826   3.198  39.395   7.787
 1075POPC   C1B17827   2.476  39.436   8.800
 1075POPC   C2B17828   2.427  39.644   8.414
 1075POPC   C3B17829   2.483  39.597   7.989
 1075POPC   C4B17830   2.495  39.518   7.552
 1076POPC   NC317831  34.470  29.801   9.582
 1076POPC   PO417832  34.819  30.381   9.451
 1076POPC   GL117833  34.651  30.036   9.146
 1076POPC   GL217834  34.489  29.682   9.101
 1076POPC   C1A17835  34.734  29.931   8.713
 1076POPC   D2A17836  34.979  29.846   8.343
 1076POPC   C3A17837  34.850  30.044   7.985
 1076POPC   C4A17838  34.743  29.800   7.662
 1076POPC   C1B17839  34.225  29.924   8.786
 1076POPC   C2B17840  34.180  30.223   8.419
 1076POPC   C3B17841  34.310  30.214   7.981
 1076POPC   C4B17842  34.232  29.850   7.731
 1077POPC   NC317843  14.387  42.581   9.530
 1077POPC   PO417844  14.576  41.897   9.415
 1077POPC   GL117845  14.328  42.224   9.147
 1077POPC   GL217846  14.564  42.481   9.085
 1077POPC   C1A17847  14.183  42.426   8.732
 1077POPC   D2A17848  14.030  42.305   8.322
 1077POPC   C3A17849  14.215  42.455   7.963
 1077POPC   C4A17850  14.293  42.284   7.559
 1077POPC   C1B17851  14.728  42.409   8.735
 1077POPC   C2B17852  14.550  42.423   8.349
 1077POPC   C3B17853  14.699  42.324   7.946
 1077POPC   C4B17854  14.922  42.595   7.721
 1078POPC   NC317855  22.346  34.163   9.368
 1078POPC   PO417856  21.998  33.634   9.452
 1078POPC   GL117857  22.144  33.618   9.040
 1078POPC   GL217858  22.447  33.848   8.994
 1078POPC   C1A17859  22.079  33.867   8.652
 1078POPC   D2A17860  21.997  34.035   8.255
 1078POPC   C3A17861  22.138  33.786   7.950
 1078POPC   C4A17862  22.317  33.936   7.594
 1078POPC   C1B17863  22.484  33.558   8.669
 1078POPC   C2B17864  22.276  33.428   8.334
 1078POPC   C3B17865  22.502  33.425   7.956
 1078POPC   C4B17866  22.264  33.394   7.630
 1079POPC   NC317867  42.804   0.364   9.816
 1079POPC   PO417868  43.165   0.791   9.368
 1079POPC   GL117869  43.167   0.653   8.943
 1079POPC   GL217870  43.400   0.426   9.015
 1079POPC   C1A17871  42.910   0.594   8.535
 1079POPC   D2A17872  42.946   0.770   8.113
 1079POPC   C3A17873  43.328   0.617   7.893
 1079POPC   C4A17874  43.332   0.444   7.473
 1079POPC   C1B17875  43.212   0.200   8.673
 1079POPC   C2B17876  43.105   0.225   8.211
 1079POPC   C3B17877  43.252  44.984   7.811
 1079POPC   C4B17878  43.394  44.954   7.350
 1080POPC   NC317879  31.115  11.698   9.541
 1080POPC   PO417880  30.847  12.291   9.547
 1080POPC   GL117881  30.671  12.085   9.180
 1080POPC   GL217882  30.597  12.398   9.105
 1080POPC   C1A17883  30.610  11.945   8.722
 1080POPC   D2A17884  30.459  11.713   8.357
 1080POPC   C3A17885  30.590  11.829   7.909
 1080POPC   C4A17886  30.870  11.757   7.563
 1080POPC   C1B17887  30.499  12.463   8.699
 1080POPC   C2B17888  30.581  12.321   8.323
 1080POPC   C3B17889  30.575  12.347   7.896
 1080POPC   C4B17890  30.922  12.255   7.666
 1081POPC   NC317891  14.048  30.974   9.459
 1081POPC   PO417892  14.479  30.483   9.506
 1081POPC   GL117893  14.488  30.805   9.214
 1081POPC   GL217894  14.685  30.583   8.974
 1081POPC   C1A17895  14.352  30.956   8.832
 1081POPC   D2A17896  14.446  30.699   8.458
 1081POPC   C3A17897  14.524  30.879   8.073
 1081POPC   C4A17898  14.428  30.858   7.663
 1081POPC   C1B17899  14.247  30.458   8.863
 1081POPC   C2B17900  14.071  30.348   8.475
 1081POPC   C3B17901  14.153  30.475   8.041
 1081POPC   C4B17902  14.127  30.466   7.576
 1082POPC   NC317903  38.658  43.156   9.408
 1082POPC   PO417904  38.200  42.673   9.523
 1082POPC   GL117905  38.400  42.775   9.133
 1082POPC   GL217906  38.412  43.133   8.982
 1082POPC   C1A17907  38.401  42.693   8.686
 1082POPC   D2A17908  38.387  43.019   8.445
 1082POPC   C3A17909  38.247  42.897   8.089
 1082POPC   C4A17910  38.425  43.069   7.747
 1082POPC   C1B17911  38.201  43.418   8.722
 1082POPC   C2B17912  37.929  43.324   8.378
 1082POPC   C3B17913  38.179  43.408   8.038
 1082POPC   C4B17914  38.180  43.559   7.650
 1083POPC   NC317915  10.384  14.688   9.567
 1083POPC   PO417916  10.763  14.147   9.460
 1083POPC   GL117917  10.731  14.554   9.186
 1083POPC   GL217918  10.347  14.572   9.086
 1083POPC   C1A17919  10.682  14.598   8.709
 1083POPC   D2A17920  10.554  14.175   8.488
 1083POPC   C3A17921  10.376  14.194   8.075
 1083POPC   C4A17922  10.234  14.323   7.671
 1083POPC   C1B17923  10.176  14.429   8.712
 1083POPC   C2B17924  10.333  14.648   8.348
 1083POPC   C3B17925  10.245  14.754   7.949
 1083POPC   C4B17926  10.119  14.808   7.518
 1084POPC   NC317927  33.210  25.295   9.540
 1084POPC   PO417928  33.240  25.937   9.707
 1084POPC   GL117929  33.162  25.713   9.266
 1084POPC   GL217930  32.848  25.476   9.183
 1084POPC   C1A17931  33.254  25.428   8.895
 1084POPC   D2A17932  33.152  25.087   8.605
 1084POPC   C3A17933  33.323  25.073   8.182
 1084POPC   C4A17934  33.355  25.065   7.728
 1084POPC   C1B17935  32.764  25.410   8.704
 1084POPC   C2B17936  32.906  25.388   8.270
 1084POPC   C3B17937  32.933  25.332   7.830
 1084POPC   C4B17938  32.793  25.573   7.474
 1085POPC   NC317939  43.734  13.779   9.540
 1085POPC   PO417940  43.287  13.327   9.459
 1085POPC   GL117941  43.673  13.515   9.112
 1085POPC   GL217942  43.926  13.845   9.085
 1085POPC   C1A17943  44.017  13.436   8.750
 1085POPC   D2A17944  43.991  13.434   8.271
 1085POPC   C3A17945  43.942  13.293   7.825
 1085POPC   C4A17946  44.040  13.358   7.360
 1085POPC   C1B17947  43.717  13.853   8.701
 1085POPC   C2B17948  43.948  13.934   8.328
 1085POPC   C3B17949  44.081  13.790   7.902
 1085POPC   C4B17950  43.744  13.715   7.590
 1086POPC   NC317951  13.278  31.073   9.454
 1086POPC   PO417952  13.776  30.582   9.387
 1086POPC   GL117953  13.530  30.708   9.064
 1086POPC   GL217954  13.591  31.040   9.022
 1086POPC   C1A17955  13.445  30.531   8.656
 1086POPC   D2A17956  13.632  30.474   8.225
 1086POPC   C3A17957  13.399  30.561   7.805
 1086POPC   C4A17958  13.234  30.576   7.369
 1086POPC   C1B17959  13.876  30.824   8.695
 1086POPC   C2B17960  14.017  30.926   8.261
 1086POPC   C3B17961  13.827  30.811   7.855
 1086POPC   C4B17962  13.682  30.833   7.418
 1087POPC   NC317963  39.324   6.876   9.450
 1087POPC   PO417964  39.532   6.179   9.625
 1087POPC   GL117965  39.530   6.379   9.212
 1087POPC   GL217966  39.174   6.432   9.218
 1087POPC   C1A17967  39.452   6.577   8.798
 1087POPC   D2A17968  39.272   6.463   8.386
 1087POPC   C3A17969  39.401   6.636   7.991
 1087POPC   C4A17970  39.434   6.897   7.635
 1087POPC   C1B17971  38.949   6.394   8.821
 1087POPC   C2B17972  38.783   6.331   8.389
 1087POPC   C3B17973  38.901   6.455   7.979
 1087POPC   C4B17974  39.105   6.483   7.597
 1088POPC   NC317975   9.139   8.697   9.508
 1088POPC   PO417976   8.751   9.274   9.522
 1088POPC   GL117977   8.993   9.109   9.193
 1088POPC   GL217978   8.787   8.840   9.159
 1088POPC   C1A17979   9.030   9.218   8.750
 1088POPC   D2A17980   8.878   9.351   8.358
 1088POPC   C3A17981   9.015   9.111   8.004
 1088POPC   C4A17982   9.137   9.089   7.557
 1088POPC   C1B17983   9.082   8.716   8.818
 1088POPC   C2B17984   9.231   8.774   8.408
 1088POPC   C3B17985   9.061   8.595   8.058
 1088POPC   C4B17986   8.982   8.614   7.644
 1089POPC   NC317987  17.431  16.513   9.611
 1089POPC   PO417988  17.754  17.042   9.333
 1089POPC   GL117989  17.530  16.782   9.093
 1089POPC   GL217990  17.699  16.488   9.161
 1089POPC   C1A17991  17.416  16.626   8.696
 1089POPC   D2A17992  17.327  16.423   8.299
 1089POPC   C3A17993  17.426  16.720   7.970
 1089POPC   C4A17994  17.056  16.901   7.790
 1089POPC   C1B17995  17.910  16.508   8.781
 1089POPC   C2B17996  17.839  16.485   8.346
 1089POPC   C3B17997  17.956  16.559   7.912
 1089POPC   C4B17998  18.100  16.386   7.492
 1090POPC   NC317999   0.047  34.286   9.249
 1090POPC   PO418000   0.604  34.665   9.440
 1090POPC   GL118001   0.490  34.482   9.041
 1090POPC   GL218002   0.197  34.639   8.882
 1090POPC   C1A18003   0.343  34.195   8.691
 1090POPC   D2A18004   0.087  34.326   8.361
 1090POPC   C3A18005   0.335  34.426   7.993
 1090POPC   C4A18006   0.222  34.716   7.638
 1090POPC   C1B18007   0.543  34.842   8.662
 1090POPC   C2B18008   0.665  34.979   8.298
 1090POPC   C3B18009   0.668  34.821   7.908
 1090POPC   C4B18010   0.676  35.057   7.552
 1091POPC   NC318011  40.541  31.181   9.180
 1091POPC   PO418012  40.072  31.671   9.400
 1091POPC   GL118013  40.103  31.401   9.059
 1091POPC   GL218014  39.790  31.411   8.903
 1091POPC   C1A18015  40.191  31.278   8.642
 1091POPC   D2A18016  39.892  31.391   8.360
 1091POPC   C3A18017  40.062  31.460   7.977
 1091POPC   C4A18018  40.348  31.293   7.712
 1091POPC   C1B18019  39.509  31.696   8.683
 1091POPC   C2B18020  39.593  31.782   8.238
 1091POPC   C3B18021  39.565  31.513   7.905
 1091POPC   C4B18022  39.737  31.587   7.527
 1092POPC   NC318023  10.653  27.897   9.654
 1092POPC   PO418024  10.467  27.213   9.557
 1092POPC   GL118025  10.547  27.361   9.149
 1092POPC   GL218026  10.561  27.731   9.152
 1092POPC   C1A18027  10.334  27.433   8.759
 1092POPC   D2A18028  10.466  27.588   8.361
 1092POPC   C3A18029  10.373  27.402   7.959
 1092POPC   C4A18030  10.405  27.395   7.468
 1092POPC   C1B18031  10.399  27.934   8.776
 1092POPC   C2B18032  10.547  28.106   8.402
 1092POPC   C3B18033  10.691  27.963   8.033
 1092POPC   C4B18034  10.474  27.841   7.683
 1093POPC   NC318035  44.358  39.461   9.476
 1093POPC   PO418036   0.070  39.320   9.566
 1093POPC   GL118037  44.846  39.204   9.176
 1093POPC   GL218038  44.514  39.061   9.166
 1093POPC   C1A18039  44.948  39.219   8.751
 1093POPC   D2A18040   0.167  39.439   8.457
 1093POPC   C3A18041   0.010  39.290   8.097
 1093POPC   C4A18042  44.723  39.432   7.786
 1093POPC   C1B18043  44.416  39.283   8.827
 1093POPC   C2B18044  44.485  39.093   8.464
 1093POPC   C3B18045  44.371  39.292   8.111
 1093POPC   C4B18046  44.286  39.160   7.733
 1094POPC   NC318047  23.645  17.785   9.587
 1094POPC   PO418048  23.520  17.132   9.485
 1094POPC   GL118049  23.715  17.416   9.195
 1094POPC   GL218050  23.675  17.778   9.039
 1094POPC   C1A18051  23.742  17.367   8.759
 1094POPC   D2A18052  23.475  17.603   8.494
 1094POPC   C3A18053  23.504  17.541   8.051
 1094POPC   C4A18054  23.324  17.756   7.702
 1094POPC   C1B18055  23.908  17.834   8.636
 1094POPC   C2B18056  23.959  17.540   8.318
 1094POPC   C3B18057  23.990  17.738   7.970
 1094POPC   C4B18058  23.817  17.669   7.626
 1095POPC   NC318059   1.949  33.296   9.809
 1095POPC   PO418060   1.519  32.839   9.451
 1095POPC   GL118061   1.882  32.800   9.190
 1095POPC   GL218062   2.117  33.023   9.299
 1095POPC   C1A18063   2.072  32.650   8.802
 1095POPC   D2A18064   1.812  32.559   8.457
 1095POPC   C3A18065   1.972  32.716   8.104
 1095POPC   C4A18066   2.349  32.735   7.900
 1095POPC   C1B18067   2.158  33.148   8.867
 1095POPC   C2B18068   2.190  33.024   8.457
 1095POPC   C3B18069   2.122  33.195   8.062
 1095POPC   C4B18070   2.250  33.163   7.641
 1096POPC   NC318071  14.289  10.001   9.532
 1096POPC   PO418072  14.672  10.552   9.402
 1096POPC   GL118073  14.332  10.380   9.168
 1096POPC   GL218074  14.051  10.510   9.351
 1096POPC   C1A18075  14.271  10.281   8.717
 1096POPC   D2A18076  14.384  10.296   8.278
 1096POPC   C3A18077  14.558  10.677   8.130
 1096POPC   C4A18078  14.576  10.754   7.686
 1096POPC   C1B18079  14.045  10.713   8.921
 1096POPC   C2B18080  14.193  10.752   8.488
 1096POPC   C3B18081  14.039  10.655   8.043
 1096POPC   C4B18082  14.003  10.874   7.640
 1097POPC   NC318083   5.897   4.802   9.288
 1097POPC   PO418084   5.530   4.331   9.640
 1097POPC   GL118085   5.766   4.288   9.222
 1097POPC   GL218086   5.836   3.913   9.177
 1097POPC   C1A18087   5.975   4.409   8.787
 1097POPC   D2A18088   5.921   4.199   8.391
 1097POPC   C3A18089   5.893   4.445   7.996
 1097POPC   C4A18090   6.120   4.714   7.767
 1097POPC   C1B18091   5.610   4.043   8.786
 1097POPC   C2B18092   5.464   3.875   8.411
 1097POPC   C3B18093   5.548   4.072   8.029
 1097POPC   C4B18094   5.767   4.090   7.622
 1098POPC   NC318095  19.118  27.114   9.522
 1098POPC   PO418096  18.862  26.544   9.574
 1098POPC   GL118097  19.034  26.692   9.210
 1098POPC   GL218098  18.931  26.392   9.091
 1098POPC   C1A18099  18.940  26.972   8.832
 1098POPC   D2A18100  18.924  26.868   8.377
 1098POPC   C3A18101  18.807  26.903   7.929
 1098POPC   C4A18102  19.209  26.899   7.734
 1098POPC   C1B18103  19.102  26.489   8.733
 1098POPC   C2B18104  18.969  26.325   8.398
 1098POPC   C3B18105  19.086  26.487   8.045
 1098POPC   C4B18106  18.951  26.422   7.657
 1099POPC   NC318107   9.352   3.958   9.477
 1099POPC   PO418108   9.387   4.642   9.393
 1099POPC   GL118109   9.031   4.349   9.275
 1099POPC   GL218110   9.226   4.274   9.063
 1099POPC   C1A18111   8.783   4.309   8.837
 1099POPC   D2A18112   8.734   4.354   8.392
 1099POPC   C3A18113   8.988   4.633   8.115
 1099POPC   C4A18114   8.927   4.484   7.707
 1099POPC   C1B18115   9.362   4.237   8.695
 1099POPC   C2B18116   9.220   4.236   8.305
 1099POPC   C3B18117   9.353   4.282   7.899
 1099POPC   C4B18118   9.421   4.001   7.544
 1100POPC   NC318119  26.976  17.522   9.676
 1100POPC   PO418120  26.357  17.552   9.364
 1100POPC   GL118121  26.571  17.732   9.005
 1100POPC   GL218122  26.431  18.065   9.000
 1100POPC   C1A18123  26.873  17.694   8.616
 1100POPC   D2A18124  27.049  17.793   8.185
 1100POPC   C3A18125  26.931  17.467   7.881
 1100POPC   C4A18126  26.871  17.502   7.414
 1100POPC   C1B18127  26.426  17.952   8.550
 1100POPC   C2B18128  26.531  17.716   8.162
 1100POPC   C3B18129  26.646  17.832   7.721
 1100POPC   C4B18130  26.428  17.721   7.290
 1101POPC   NC318131  15.771  13.015   9.493
 1101POPC   PO418132  15.826  12.396   9.247
 1101POPC   GL118133  15.884  12.778   9.071
 1101POPC   GL218134  16.216  12.819   9.068
 1101POPC   C1A18135  15.862  13.073   8.714
 1101POPC   D2A18136  15.644  12.941   8.329
 1101POPC   C3A18137  15.783  13.044   7.912
 1101POPC   C4A18138  15.641  12.877   7.495
 1101POPC   C1B18139  16.094  12.617   8.653
 1101POPC   C2B18140  16.221  12.914   8.375
 1101POPC   C3B18141  16.318  13.073   8.023
 1101POPC   C4B18142  16.319  12.935   7.646
 1102POPC   NC318143  22.405   3.929   9.424
 1102POPC   PO418144  22.089   3.365   9.534
 1102POPC   GL118145  21.953   3.504   9.141
 1102POPC   GL218146  22.026   3.843   9.117
 1102POPC   C1A18147  22.116   3.526   8.712
 1102POPC   D2A18148  22.471   3.500   8.434
 1102POPC   C3A18149  22.222   3.500   8.051
 1102POPC   C4A18150  22.199   3.609   7.612
 1102POPC   C1B18151  22.337   3.985   8.783
 1102POPC   C2B18152  22.219   3.945   8.366
 1102POPC   C3B18153  22.351   3.985   7.948
 1102POPC   C4B18154  22.356   4.069   7.529
 1103POPC   NC318155  28.956   3.506   9.779
 1103POPC   PO418156  29.256   4.022   9.623
 1103POPC   GL118157  28.989   3.814   9.283
 1103POPC   GL218158  29.036   3.462   9.184
 1103POPC   C1A18159  29.092   3.841   8.818
 1103POPC   D2A18160  29.206   3.644   8.424
 1103POPC   C3A18161  29.063   3.715   8.028
 1103POPC   C4A18162  28.728   3.450   7.807
 1103POPC   C1B18163  29.360   3.367   8.822
 1103POPC   C2B18164  29.436   3.193   8.370
 1103POPC   C3B18165  29.332   3.290   7.913
 1103POPC   C4B18166  29.551   3.334   7.483
 1104POPC   NC318167  15.096  42.018   9.430
 1104POPC   PO418168  14.859  42.671   9.447
 1104POPC   GL118169  15.175  42.468   9.154
 1104POPC   GL218170  15.525  42.319   9.214
 1104POPC   C1A18171  15.245  42.344   8.725
 1104POPC   D2A18172  15.030  42.191   8.369
 1104POPC   C3A18173  15.212  42.278   7.983
 1104POPC   C4A18174  15.032  42.136   7.574
 1104POPC   C1B18175  15.721  42.207   8.793
 1104POPC   C2B18176  15.571  42.095   8.337
 1104POPC   C3B18177  15.693  42.152   7.881
 1104POPC   C4B18178  15.521  42.276   7.467
 1105POPC   NC318179  35.495  40.491   9.424
 1105POPC   PO418180  35.283  41.128   9.430
 1105POPC   GL118181  35.344  40.876   9.135
 1105POPC   GL218182  35.584  41.042   8.980
 1105POPC   C1A18183  35.247  40.672   8.775
 1105POPC   D2A18184  35.182  40.817   8.374
 1105POPC   C3A18185  35.402  40.623   8.095
 1105POPC   C4A18186  35.420  40.618   7.673
 1105POPC   C1B18187  35.614  41.027   8.573
 1105POPC   C2B18188  35.708  41.027   8.134
 1105POPC   C3B18189  35.763  41.046   7.713
 1105POPC   C4B18190  35.535  41.120   7.309
 1106POPC   NC318191  23.533   0.221   9.559
 1106POPC   PO418192  23.952   0.737   9.610
 1106POPC   GL118193  23.689   0.610   9.182
 1106POPC   GL218194  23.893   0.706   8.893
 1106POPC   C1A18195  23.606   0.313   8.801
 1106POPC   D2A18196  23.437   0.165   8.376
 1106POPC   C3A18197  23.687   0.165   7.978
 1106POPC   C4A18198  23.498   0.388   7.637
 1106POPC   C1B18199  24.139   0.939   8.593
 1106POPC   C2B18200  24.219   0.930   8.166
 1106POPC   C3B18201  23.952   0.659   7.912
 1106POPC   C4B18202  23.760   0.808   7.586
 1107POPC   NC318203   7.301  36.523   9.408
 1107POPC   PO418204   7.589  35.953   9.633
 1107POPC   GL118205   7.445  36.006   9.183
 1107POPC   GL218206   7.296  36.306   8.970
 1107POPC   C1A18207   7.350  35.867   8.757
 1107POPC   D2A18208   7.399  36.151   8.413
 1107POPC   C3A18209   7.397  35.948   8.043
 1107POPC   C4A18210   7.126  36.204   7.855
 1107POPC   C1B18211   7.711  36.246   8.792
 1107POPC   C2B18212   7.897  36.232   8.360
 1107POPC   C3B18213   7.744  36.309   7.949
 1107POPC   C4B18214   7.807  36.494   7.542
 1108POPC   NC318215  17.837   7.135   9.350
 1108POPC   PO418216  17.371   7.465   9.694
 1108POPC   GL118217  17.466   7.455   9.154
 1108POPC   GL218218  17.719   7.257   8.887
 1108POPC   C1A18219  17.390   7.588   8.658
 1108POPC   D2A18220  17.255   7.834   8.244
 1108POPC   C3A18221  17.423   7.706   7.821
 1108POPC   C4A18222  17.804   7.463   7.812
 1108POPC   C1B18223  17.358   7.076   8.814
 1108POPC   C2B18224  17.173   7.164   8.473
 1108POPC   C3B18225  17.357   7.315   8.135
 1108POPC   C4B18226  17.196   7.199   7.765
 1109POPC   NC318227  25.310  39.845   9.575
 1109POPC   PO418228  24.902  40.400   9.261
 1109POPC   GL118229  25.291  40.168   9.180
 1109POPC   GL218230  25.336  39.798   9.085
 1109POPC   C1A18231  25.364  40.176   8.756
 1109POPC   D2A18232  25.080  40.234   8.443
 1109POPC   C3A18233  25.189  40.303   8.051
 1109POPC   C4A18234  25.211  40.142   7.658
 1109POPC   C1B18235  25.487  39.651   8.698
 1109POPC   C2B18236  25.392  39.853   8.330
 1109POPC   C3B18237  25.089  39.803   8.035
 1109POPC   C4B18238  25.437  39.618   7.834
 1110POPC   NC318239  18.366  27.346   9.443
 1110POPC   PO418240  17.960  27.955   9.475
 1110POPC   GL118241  18.268  27.775   9.138
 1110POPC   GL218242  18.629  27.907   9.073
 1110POPC   C1A18243  18.262  27.506   8.784
 1110POPC   D2A18244  18.205  27.620   8.384
 1110POPC   C3A18245  18.066  27.340   8.106
 1110POPC   C4A18246  18.280  27.428   7.764
 1110POPC   C1B18247  18.588  27.904   8.612
 1110POPC   C2B18248  18.636  27.768   8.150
 1110POPC   C3B18249  18.709  27.954   7.736
 1110POPC   C4B18250  18.585  28.115   7.317
 1111POPC   NC318251  27.622   2.862   9.583
 1111POPC   PO418252  27.044   2.674   9.491
 1111POPC   GL118253  27.396   2.609   9.154
 1111POPC   GL218254  27.654   2.878   9.061
 1111POPC   C1A18255  27.438   2.608   8.686
 1111POPC   D2A18256  27.639   2.828   8.343
 1111POPC   C3A18257  27.483   2.666   7.997
 1111POPC   C4A18258  27.243   2.996   7.903
 1111POPC   C1B18259  27.944   2.662   8.728
 1111POPC   C2B18260  28.037   2.521   8.264
 1111POPC   C3B18261  27.969   2.802   7.889
 1111POPC   C4B18262  27.710   3.192   7.916
 1112POPC   NC318263   6.279  19.162   9.686
 1112POPC   PO418264   6.861  18.935   9.359
 1112POPC   GL118265   6.900  18.811   8.975
 1112POPC   GL218266   6.560  18.779   8.951
 1112POPC   C1A18267   6.814  18.951   8.540
 1112POPC   D2A18268   6.545  19.307   8.435
 1112POPC   C3A18269   6.404  19.313   8.015
 1112POPC   C4A18270   6.653  19.361   7.661
 1112POPC   C1B18271   6.273  18.836   8.621
 1112POPC   C2B18272   6.026  19.044   8.307
 1112POPC   C3B18273   6.096  18.911   7.892
 1112POPC   C4B18274   6.541  18.843   7.739
 1113POPC   NC318275  35.037  37.730   9.246
 1113POPC   PO418276  35.457  37.256   9.365
 1113POPC   GL118277  35.437  37.534   9.015
 1113POPC   GL218278  35.496  37.925   9.112
 1113POPC   C1A18279  35.193  37.608   8.634
 1113POPC   D2A18280  34.987  37.695   8.251
 1113POPC   C3A18281  35.270  37.428   8.025
 1113POPC   C4A18282  35.508  37.183   7.750
 1113POPC   C1B18283  35.665  37.838   8.689
 1113POPC   C2B18284  35.473  37.868   8.295
 1113POPC   C3B18285  35.298  37.916   7.910
 1113POPC   C4B18286  35.610  38.042   7.723
 1114POPC   NC318287  17.552   2.342   9.495
 1114POPC   PO418288  17.743   1.709   9.493
 1114POPC   GL118289  17.705   1.886   9.093
 1114POPC   GL218290  17.510   2.163   9.036
 1114POPC   C1A18291  17.709   1.930   8.631
 1114POPC   D2A18292  18.050   2.049   8.341
 1114POPC   C3A18293  17.927   2.090   7.914
 1114POPC   C4A18294  17.512   2.060   7.785
 1114POPC   C1B18295  17.286   2.242   8.666
 1114POPC   C2B18296  17.087   2.260   8.221
 1114POPC   C3B18297  17.066   2.278   7.748
 1114POPC   C4B18298  17.376   2.320   7.360
 1115POPC   NC318299  21.947  37.890   9.428
 1115POPC   PO418300  22.535  37.636   9.600
 1115POPC   GL118301  22.333  37.604   9.174
 1115POPC   GL218302  22.069  37.363   9.160
 1115POPC   C1A18303  22.264  37.827   8.772
 1115POPC   D2A18304  22.134  38.007   8.347
 1115POPC   C3A18305  21.953  37.689   8.069
 1115POPC   C4A18306  22.079  37.662   7.615
 1115POPC   C1B18307  22.253  37.311   8.729
 1115POPC   C2B18308  22.460  37.552   8.391
 1115POPC   C3B18309  22.446  37.728   7.991
 1115POPC   C4B18310  22.287  37.309   7.891
 1116POPC   NC318311   9.170  37.280   9.656
 1116POPC   PO418312   8.966  36.733   9.530
 1116POPC   GL118313   8.996  37.060   9.186
 1116POPC   GL218314   9.321  37.211   9.124
 1116POPC   C1A18315   9.030  36.968   8.741
 1116POPC   D2A18316   9.191  36.983   8.314
 1116POPC   C3A18317   9.015  36.757   7.971
 1116POPC   C4A18318   8.899  36.694   7.567
 1116POPC   C1B18319   9.427  37.303   8.659
 1116POPC   C2B18320   9.263  37.494   8.247
 1116POPC   C3B18321   9.113  37.243   7.870
 1116POPC   C4B18322   9.379  36.889   7.653
 1117POPC   NC318323  43.877   3.600   9.825
 1117POPC   PO418324  43.950   3.130   9.390
 1117POPC   GL118325  43.678   3.308   9.125
 1117POPC   GL218326  43.966   3.226   8.899
 1117POPC   C1A18327  43.535   3.410   8.742
 1117POPC   D2A18328  43.808   3.459   8.428
 1117POPC   C3A18329  43.641   3.501   8.036
 1117POPC   C4A18330  43.868   3.609   7.675
 1117POPC   C1B18331  44.293   3.411   8.663
 1117POPC   C2B18332  44.213   3.788   8.481
 1117POPC   C3B18333  44.181   3.745   8.073
 1117POPC   C4B18334  44.260   3.944   7.690
 1118POPC   NC318335  34.891  13.776   9.705
 1118POPC   PO418336  34.446  13.403   9.483
 1118POPC   GL118337  34.605  13.512   9.104
 1118POPC   GL218338  34.256  13.494   9.007
 1118POPC   C1A18339  34.616  13.719   8.702
 1118POPC   D2A18340  34.813  13.915   8.353
 1118POPC   C3A18341  34.888  13.621   8.011
 1118POPC   C4A18342  34.780  13.687   7.552
 1118POPC   C1B18343  34.285  13.328   8.608
 1118POPC   C2B18344  34.431  13.540   8.228
 1118POPC   C3B18345  34.477  13.892   7.900
 1118POPC   C4B18346  34.271  13.576   7.614
 1119POPC   NC318347  20.645  38.745   9.559
 1119POPC   PO418348  20.848  37.996   9.546
 1119POPC   GL118349  20.648  38.334   9.237
 1119POPC   GL218350  20.854  38.648   9.113
 1119POPC   C1A18351  20.508  38.455   8.795
 1119POPC   D2A18352  20.577  38.222   8.393
 1119POPC   C3A18353  20.453  38.360   7.967
 1119POPC   C4A18354  20.284  38.257   7.548
 1119POPC   C1B18355  21.069  38.846   8.750
 1119POPC   C2B18356  20.921  38.728   8.322
 1119POPC   C3B18357  20.713  38.842   7.939
 1119POPC   C4B18358  20.733  38.966   7.478
 1120POPC   NC318359  38.655   0.916   9.453
 1120POPC   PO418360  38.236   1.351   9.416
 1120POPC   GL118361  38.401   1.223   9.053
 1120POPC   GL218362  38.286   0.902   9.090
 1120POPC   C1A18363  38.683   1.028   8.767
 1120POPC   D2A18364  38.579   0.873   8.381
 1120POPC   C3A18365  38.739   1.155   8.105
 1120POPC   C4A18366  38.853   1.233   7.692
 1120POPC   C1B18367  38.121   0.929   8.681
 1120POPC   C2B18368  37.975   0.794   8.284
 1120POPC   C3B18369  38.237   0.973   7.995
 1120POPC   C4B18370  38.354   1.197   7.681
 1121POPC   NC318371   8.528  42.706   9.573
 1121POPC   PO418372   8.722  42.063   9.603
 1121POPC   GL118373   8.708  42.035   9.179
 1121POPC   GL218374   8.817  42.397   9.189
 1121POPC   C1A18375   8.879  42.094   8.762
 1121POPC   D2A18376   9.230  42.286   8.534
 1121POPC   C3A18377   9.198  42.357   8.090
 1121POPC   C4A18378   9.125  42.055   7.762
 1121POPC   C1B18379   8.849  42.593   8.788
 1121POPC   C2B18380   8.753  42.457   8.357
 1121POPC   C3B18381   8.730  42.388   7.911
 1121POPC   C4B18382   8.855  42.604   7.516
 1122POPC   NC318383   4.025  36.224   9.746
 1122POPC   PO418384   3.414  35.908   9.554
 1122POPC   GL118385   3.537  35.889   9.162
 1122POPC   GL218386   3.767  35.620   9.139
 1122POPC   C1A18387   3.502  36.205   8.838
 1122POPC   D2A18388   3.629  36.228   8.442
 1122POPC   C3A18389   3.336  36.257   8.092
 1122POPC   C4A18390   3.468  36.302   7.696
 1122POPC   C1B18391   3.929  35.907   8.812
 1122POPC   C2B18392   3.917  35.820   8.386
 1122POPC   C3B18393   3.823  36.086   7.995
 1122POPC   C4B18394   3.877  35.978   7.546
 1123POPC   NC318395   9.185   5.055   9.480
 1123POPC   PO418396   8.556   5.005   9.204
 1123POPC   GL118397   8.911   4.770   9.024
 1123POPC   GL218398   9.214   4.956   9.002
 1123POPC   C1A18399   9.102   4.666   8.620
 1123POPC   D2A18400   9.103   5.063   8.438
 1123POPC   C3A18401   8.818   5.182   8.141
 1123POPC   C4A18402   8.862   4.997   7.748
 1123POPC   C1B18403   9.340   5.333   8.810
 1123POPC   C2B18404   9.487   5.539   8.457
 1123POPC   C3B18405   9.302   5.396   8.076
 1123POPC   C4B18406   9.397   5.275   7.685
 1124POPC   NC318407  43.526  17.090   9.652
 1124POPC   PO418408  42.992  16.710   9.529
 1124POPC   GL118409  43.317  16.690   9.149
 1124POPC   GL218410  43.576  16.967   9.134
 1124POPC   C1A18411  43.272  16.601   8.685
 1124POPC   D2A18412  43.247  16.840   8.289
 1124POPC   C3A18413  43.305  16.633   7.902
 1124POPC   C4A18414  43.507  16.252   7.806
 1124POPC   C1B18415  43.425  17.108   8.718
 1124POPC   C2B18416  43.442  17.304   8.267
 1124POPC   C3B18417  43.337  17.151   7.811
 1124POPC   C4B18418  43.308  17.067   7.323
 1125POPC   NC318419  29.901  22.412   9.528
 1125POPC   PO418420  29.413  21.909   9.460
 1125POPC   GL118421  29.740  22.071   9.174
 1125POPC   GL218422  29.662  22.409   9.080
 1125POPC   C1A18423  30.051  22.153   8.841
 1125POPC   D2A18424  30.061  22.333   8.405
 1125POPC   C3A18425  29.822  22.098   8.093
 1125POPC   C4A18426  29.802  21.756   7.802
 1125POPC   C1B18427  29.598  22.341   8.652
 1125POPC   C2B18428  29.460  22.418   8.240
 1125POPC   C3B18429  29.687  22.602   7.886
 1125POPC   C4B18430  30.135  22.488   7.898
 1126POPC   NC318431   8.211  15.898   9.649
 1126POPC   PO418432   8.403  16.403   9.257
 1126POPC   GL118433   8.375  15.948   9.100
 1126POPC   GL218434   8.052  15.769   9.111
 1126POPC   C1A18435   8.377  15.894   8.630
 1126POPC   D2A18436   8.303  16.237   8.291
 1126POPC   C3A18437   8.228  16.081   7.874
 1126POPC   C4A18438   8.243  15.628   7.872
 1126POPC   C1B18439   7.864  15.824   8.727
 1126POPC   C2B18440   7.987  15.815   8.279
 1126POPC   C3B18441   7.764  15.778   7.885
 1126POPC   C4B18442   7.823  16.043   7.532
 1127POPC   NC318443  20.333  35.253   9.198
 1127POPC   PO418444  20.696  35.511   9.650
 1127POPC   GL118445  20.827  35.249   9.152
 1127POPC   GL218446  20.754  34.946   9.180
 1127POPC   C1A18447  20.727  35.310   8.633
 1127POPC   D2A18448  20.715  35.376   8.145
 1127POPC   C3A18449  20.393  35.500   7.793
 1127POPC   C4A18450  20.273  35.601   7.326
 1127POPC   C1B18451  20.590  34.839   8.769
 1127POPC   C2B18452  20.385  34.962   8.395
 1127POPC   C3B18453  20.353  35.010   7.978
 1127POPC   C4B18454  20.706  35.114   7.706
 1128POPC   NC318455  28.593  13.583   9.603
 1128POPC   PO418456  28.014  13.450   9.445
 1128POPC   GL118457  28.308  13.603   9.155
 1128POPC   GL218458  28.673  13.589   9.104
 1128POPC   C1A18459  28.269  13.852   8.814
 1128POPC   D2A18460  28.272  13.745   8.366
 1128POPC   C3A18461  28.095  14.026   8.056
 1128POPC   C4A18462  28.348  13.899   7.726
 1128POPC   C1B18463  28.584  13.463   8.688
 1128POPC   C2B18464  28.581  13.188   8.313
 1128POPC   C3B18465  28.684  13.280   7.849
 1128POPC   C4B18466  28.425  13.336   7.434
 1129POPC   NC318467   7.684  16.981   9.344
 1129POPC   PO418468   7.276  16.474   9.471
 1129POPC   GL118469   7.215  16.705   9.078
 1129POPC   GL218470   7.535  16.845   8.897
 1129POPC   C1A18471   7.135  16.748   8.634
 1129POPC   D2A18472   7.471  16.666   8.345
 1129POPC   C3A18473   7.416  16.763   7.914
 1129POPC   C4A18474   7.316  16.878   7.489
 1129POPC   C1B18475   7.804  16.995   8.566
 1129POPC   C2B18476   7.685  17.136   8.156
 1129POPC   C3B18477   7.900  17.029   7.762
 1129POPC   C4B18478   8.087  17.305   7.490
 1130POPC   NC318479  28.580  36.490   9.471
 1130POPC   PO418480  28.648  37.198   9.548
 1130POPC   GL118481  28.428  36.967   9.203
 1130POPC   GL218482  28.175  36.686   9.192
 1130POPC   C1A18483  28.536  36.764   8.817
 1130POPC   D2A18484  28.405  36.577   8.438
 1130POPC   C3A18485  28.673  36.714   8.110
 1130POPC   C4A18486  28.574  36.911   7.723
 1130POPC   C1B18487  28.021  36.811   8.782
 1130POPC   C2B18488  27.890  36.773   8.366
 1130POPC   C3B18489  28.171  36.823   8.030
 1130POPC   C4B18490  28.074  36.878   7.602
 1131POPC   NC318491   6.008  11.629   9.851
 1131POPC   PO418492   5.607  11.184   9.545
 1131POPC   GL118493   5.604  11.180   9.091
 1131POPC   GL218494   5.975  11.216   9.037
 1131POPC   C1A18495   5.647  11.239   8.638
 1131POPC   D2A18496   6.039  11.160   8.440
 1131POPC   C3A18497   5.928  11.221   8.052
 1131POPC   C4A18498   6.078  11.254   7.677
 1131POPC   C1B18499   5.980  11.602   8.745
 1131POPC   C2B18500   6.209  11.698   8.391
 1131POPC   C3B18501   6.138  11.681   7.972
 1131POPC   C4B18502   5.745  11.628   7.727
 1132POPC   NC318503  29.317  39.436   9.657
 1132POPC   PO418504  28.786  38.952   9.682
 1132POPC   GL118505  29.049  39.071   9.286
 1132POPC   GL218506  29.062  39.402   9.221
 1132POPC   C1A18507  29.086  39.025   8.799
 1132POPC   D2A18508  28.849  39.223   8.459
 1132POPC   C3A18509  29.065  39.095   8.089
 1132POPC   C4A18510  29.109  39.180   7.666
 1132POPC   C1B18511  29.094  39.536   8.803
 1132POPC   C2B18512  29.226  39.545   8.378
 1132POPC   C3B18513  29.065  39.599   7.976
 1132POPC   C4B18514  29.303  39.664   7.632
 1133POPC   NC318515  13.667   9.600   9.568
 1133POPC   PO418516  13.207  10.160   9.603
 1133POPC   GL118517  13.344   9.872   9.215
 1133POPC   GL218518  13.682   9.709   9.061
 1133POPC   C1A18519  13.272   9.679   8.783
 1133POPC   D2A18520  13.474   9.546   8.399
 1133POPC   C3A18521  13.614   9.821   8.076
 1133POPC   C4A18522  13.547  10.096   7.750
 1133POPC   C1B18523  13.855   9.458   8.713
 1133POPC   C2B18524  14.035   9.588   8.258
 1133POPC   C3B18525  13.968   9.620   7.777
 1133POPC   C4B18526  14.023   9.439   7.343
 1134POPC   NC318527  21.777  28.621   9.559
 1134POPC   PO418528  22.272  28.148   9.493
 1134POPC   GL118529  21.997  28.248   9.160
 1134POPC   GL218530  22.065  28.590   9.151
 1134POPC   C1A18531  21.880  28.113   8.734
 1134POPC   D2A18532  22.156  28.021   8.384
 1134POPC   C3A18533  22.163  28.258   7.985
 1134POPC   C4A18534  22.495  28.500   7.773
 1134POPC   C1B18535  21.881  28.796   8.818
 1134POPC   C2B18536  21.917  28.625   8.414
 1134POPC   C3B18537  22.138  28.762   8.058
 1134POPC   C4B18538  22.021  28.683   7.669
 1135POPC   NC318539  44.332  30.818   9.494
 1135POPC   PO418540  44.921  30.553   9.411
 1135POPC   GL118541  44.764  30.725   9.081
 1135POPC   GL218542  44.429  30.629   9.018
 1135POPC   C1A18543  44.880  30.647   8.673
 1135POPC   D2A18544  44.633  30.690   8.328
 1135POPC   C3A18545  44.885  30.687   7.984
 1135POPC   C4A18546  44.729  30.794   7.608
 1135POPC   C1B18547  44.419  30.342   8.662
 1135POPC   C2B18548  44.372  30.188   8.228
 1135POPC   C3B18549  44.462  30.405   7.818
 1135POPC   C4B18550  44.504  30.437   7.322
 1136POPC   NC318551  38.593  22.962   9.428
 1136POPC   PO418552  38.001  23.238   9.590
 1136POPC   GL118553  38.133  23.188   9.149
 1136POPC   GL218554  38.394  22.950   8.967
 1136POPC   C1A18555  38.172  23.278   8.696
 1136POPC   D2A18556  38.260  22.999   8.344
 1136POPC   C3A18557  38.178  23.142   7.933
 1136POPC   C4A18558  38.268  23.183   7.458
 1136POPC   C1B18559  38.598  22.737   8.630
 1136POPC   C2B18560  38.754  22.954   8.271
 1136POPC   C3B18561  38.610  22.867   7.906
 1136POPC   C4B18562  38.670  22.895   7.453
 1137POPC   NC318563  20.201  30.972   9.423
 1137POPC   PO418564  19.706  30.616   9.733
 1137POPC   GL118565  19.678  30.813   9.295
 1137POPC   GL218566  19.900  30.608   9.139
 1137POPC   C1A18567  19.651  30.862   8.802
 1137POPC   D2A18568  19.541  30.562   8.442
 1137POPC   C3A18569  19.639  30.707   8.048
 1137POPC   C4A18570  19.957  30.689   7.794
 1137POPC   C1B18571  20.085  30.483   8.762
 1137POPC   C2B18572  20.065  30.641   8.372
 1137POPC   C3B18573  20.290  30.460   8.097
 1137POPC   C4B18574  20.223  30.271   7.704
 1138POPC   NC318575  11.470  26.329   9.482
 1138POPC   PO418576  11.231  25.674   9.494
 1138POPC   GL118577  11.311  25.919   9.153
 1138POPC   GL218578  11.132  26.226   9.130
 1138POPC   C1A18579  11.464  25.895   8.748
 1138POPC   D2A18580  11.252  25.981   8.387
 1138POPC   C3A18581  11.420  25.992   8.021
 1138POPC   C4A18582  11.220  26.053   7.685
 1138POPC   C1B18583  11.332  26.373   8.737
 1138POPC   C2B18584  11.641  26.290   8.404
 1138POPC   C3B18585  11.711  26.409   7.997
 1138POPC   C4B18586  11.437  26.531   7.713
 1139POPC   NC318587  14.856  17.136   9.496
 1139POPC   PO418588  15.408  16.755   9.592
 1139POPC   GL118589  15.128  16.591   9.257
 1139POPC   GL218590  15.150  16.812   8.987
 1139POPC   C1A18591  15.197  16.318   8.894
 1139POPC   D2A18592  15.160  16.535   8.543
 1139POPC   C3A18593  15.054  16.465   8.166
 1139POPC   C4A18594  15.298  16.347   7.835
 1139POPC   C1B18595  14.896  16.966   8.624
 1139POPC   C2B18596  15.092  16.959   8.226
 1139POPC   C3B18597  15.130  16.827   7.806
 1139POPC   C4B18598  14.943  16.866   7.397
 1140POPC   NC318599  29.212   0.601   9.794
 1140POPC   PO418600  29.024  44.965   9.616
 1140POPC   GL118601  29.245   0.160   9.261
 1140POPC   GL218602  29.030   0.436   9.310
 1140POPC   C1A18603  29.344   0.399   8.849
 1140POPC   D2A18604  29.430   0.538   8.387
 1140POPC   C3A18605  29.389   0.293   7.990
 1140POPC   C4A18606  29.387   0.339   7.505
 1140POPC   C1B18607  28.829   0.361   8.909
 1140POPC   C2B18608  28.701   0.483   8.494
 1140POPC   C3B18609  28.943   0.531   8.109
 1140POPC   C4B18610  28.950   0.261   7.750
 1141POPC   NC318611  20.639   1.106   9.660
 1141POPC   PO418612  20.273   1.603   9.428
 1141POPC   GL118613  20.571   1.430   9.121
 1141POPC   GL218614  20.553   1.072   9.155
 1141POPC   C1A18615  20.727   1.283   8.726
 1141POPC   D2A18616  20.933   1.372   8.353
 1141POPC   C3A18617  20.607   1.433   8.078
 1141POPC   C4A18618  20.556   1.599   7.666
 1141POPC   C1B18619  20.525   0.804   8.807
 1141POPC   C2B18620  20.366   0.858   8.423
 1141POPC   C3B18621  20.490   0.912   8.058
 1141POPC   C4B18622  20.587   1.031   7.687
 1142POPC   NC318623  16.719  14.200   9.568
 1142POPC   PO418624  16.731  14.857   9.592
 1142POPC   GL118625  16.867  14.575   9.244
 1142POPC   GL218626  16.602  14.333   9.101
 1142POPC   C1A18627  16.979  14.453   8.812
 1142POPC   D2A18628  16.683  14.419   8.443
 1142POPC   C3A18629  16.851  14.465   7.998
 1142POPC   C4A18630  16.870  14.312   7.540
 1142POPC   C1B18631  16.544  14.739   8.869
 1142POPC   C2B18632  16.433  14.860   8.438
 1142POPC   C3B18633  16.337  14.636   8.056
 1142POPC   C4B18634  16.405  14.277   7.807
 1143POPC   NC318635  39.027   2.122   9.551
 1143POPC   PO418636  39.471   1.679   9.551
 1143POPC   GL118637  39.376   1.865   9.137
 1143POPC   GL218638  39.014   1.955   9.074
 1143POPC   C1A18639  39.342   1.765   8.690
 1143POPC   D2A18640  39.388   1.972   8.303
 1143POPC   C3A18641  39.475   1.851   7.867
 1143POPC   C4A18642  39.428   2.012   7.436
 1143POPC   C1B18643  38.864   1.925   8.674
 1143POPC   C2B18644  38.783   1.876   8.270
 1143POPC   C3B18645  39.014   2.030   7.976
 1143POPC   C4B18646  38.988   2.177   7.596
 1144POPC   NC318647   4.690  10.887   9.486
 1144POPC   PO418648   4.001  10.642   9.476
 1144POPC   GL118649   4.219  10.572   9.139
 1144POPC   GL218650   4.117  10.858   8.988
 1144POPC   C1A18651   4.205  10.419   8.719
 1144POPC   D2A18652   4.383  10.544   8.346
 1144POPC   C3A18653   4.445  10.280   8.001
 1144POPC   C4A18654   4.341  10.417   7.621
 1144POPC   C1B18655   4.556  10.821   8.795
 1144POPC   C2B18656   4.803  10.838   8.406
 1144POPC   C3B18657   4.610  10.786   7.950
 1144POPC   C4B18658   4.626  10.833   7.469
 1145POPC   NC318659  12.727  17.652   9.431
 1145POPC   PO418660  13.181  17.237   9.362
 1145POPC   GL118661  12.955  17.446   9.017
 1145POPC   GL218662  12.582  17.439   8.990
 1145POPC   C1A18663  12.925  17.512   8.585
 1145POPC   D2A18664  13.044  17.625   8.184
 1145POPC   C3A18665  12.883  17.406   7.838
 1145POPC   C4A18666  13.157  17.691   7.680
 1145POPC   C1B18667  12.439  17.689   8.638
 1145POPC   C2B18668  12.551  17.579   8.230
 1145POPC   C3B18669  12.600  17.822   7.878
 1145POPC   C4B18670  12.709  17.731   7.472
 1146POPC   NC318671  44.733   4.056   9.582
 1146POPC   PO418672  44.340   4.502   9.423
 1146POPC   GL118673  44.547   4.214   9.118
 1146POPC   GL218674  44.923   4.070   9.130
 1146POPC   C1A18675  44.429   4.208   8.685
 1146POPC   D2A18676  44.529   4.109   8.225
 1146POPC   C3A18677  44.396   4.418   7.894
 1146POPC   C4A18678  44.373   4.343   7.417
 1146POPC   C1B18679  44.943   4.291   8.787
 1146POPC   C2B18680   0.024   4.125   8.414
 1146POPC   C3B18681  44.981   4.308   8.046
 1146POPC   C4B18682  44.816   4.225   7.693
 1147POPC   NC318683   4.028  19.939   9.447
 1147POPC   PO418684   3.457  19.482   9.443
 1147POPC   GL118685   3.668  19.714   9.099
 1147POPC   GL218686   3.428  19.951   8.948
 1147POPC   C1A18687   3.846  19.859   8.687
 1147POPC   D2A18688   3.748  20.205   8.408
 1147POPC   C3A18689   3.644  20.063   7.998
 1147POPC   C4A18690   3.803  19.790   7.729
 1147POPC   C1B18691   3.260  19.674   8.707
 1147POPC   C2B18692   3.433  19.772   8.344
 1147POPC   C3B18693   3.484  19.541   7.998
 1147POPC   C4B18694   3.315  19.501   7.634
 1148POPC   NC318695  42.897  30.888   9.376
 1148POPC   PO418696  43.337  31.335   9.673
 1148POPC   GL118697  43.514  31.366   9.203
 1148POPC   GL218698  43.303  31.082   9.129
 1148POPC   C1A18699  43.453  31.673   8.786
 1148POPC   D2A18700  43.051  31.793   8.520
 1148POPC   C3A18701  42.915  31.775   8.057
 1148POPC   C4A18702  42.931  31.687   7.604
 1148POPC   C1B18703  43.161  31.270   8.735
 1148POPC   C2B18704  43.183  31.372   8.287
 1148POPC   C3B18705  43.072  31.280   7.872
 1148POPC   C4B18706  42.876  31.138   7.490
 1149POPC   NC318707  34.994  30.620   9.815
 1149POPC   PO418708  35.557  30.560   9.585
 1149POPC   GL118709  35.462  30.712   9.169
 1149POPC   GL218710  35.711  30.788   8.983
 1149POPC   C1A18711  35.257  30.672   8.734
 1149POPC   D2A18712  35.308  30.686   8.269
 1149POPC   C3A18713  35.011  30.563   7.935
 1149POPC   C4A18714  35.308  30.821   7.707
 1149POPC   C1B18715  35.767  30.575   8.570
 1149POPC   C2B18716  35.785  30.519   8.140
 1149POPC   C3B18717  35.472  30.363   7.858
 1149POPC   C4B18718  35.526  30.366   7.412
 1150POPC   NC318719  11.585   5.198   9.311
 1150POPC   PO418720  12.123   5.277   9.688
 1150POPC   GL118721  12.141   5.205   9.232
 1150POPC   GL218722  12.192   5.530   9.125
 1150POPC   C1A18723  12.140   5.021   8.776
 1150POPC   D2A18724  12.349   4.920   8.338
 1150POPC   C3A18725  12.219   5.029   7.895
 1150POPC   C4A18726  11.952   5.018   7.516
 1150POPC   C1B18727  11.862   5.440   8.757
 1150POPC   C2B18728  11.917   5.258   8.315
 1150POPC   C3B18729  11.865   5.393   7.872
 1150POPC   C4B18730  12.025   5.579   7.467
 1151POPC   NC318731  33.396  10.789   9.723
 1151POPC   PO418732  32.828  10.437   9.675
 1151POPC   GL118733  32.879  10.570   9.255
 1151POPC   GL218734  33.246  10.605   9.240
 1151POPC   C1A18735  32.801  10.510   8.806
 1151POPC   D2A18736  32.917  10.450   8.355
 1151POPC   C3A18737  32.928  10.710   7.971
 1151POPC   C4A18738  32.891  10.592   7.527
 1151POPC   C1B18739  33.335  10.442   8.814
 1151POPC   C2B18740  33.407  10.614   8.400
 1151POPC   C3B18741  33.328  10.427   7.988
 1151POPC   C4B18742  33.364  10.682   7.644
 1152POPC   NC318743  21.627  29.426   9.395
 1152POPC   PO418744  21.218  28.943   9.574
 1152POPC   GL118745  21.204  29.142   9.179
 1152POPC   GL218746  21.155  29.517   9.176
 1152POPC   C1A18747  21.372  28.959   8.796
 1152POPC   D2A18748  21.612  29.090   8.444
 1152POPC   C3A18749  21.668  28.927   8.062
 1152POPC   C4A18750  21.510  28.806   7.678
 1152POPC   C1B18751  21.398  29.470   8.797
 1152POPC   C2B18752  21.448  29.569   8.377
 1152POPC   C3B18753  21.441  29.373   7.963
 1152POPC   C4B18754  21.107  29.261   7.691
 1153POPC   NC318755  15.828  28.326   9.402
 1153POPC   PO418756  16.534  28.495   9.453
 1153POPC   GL118757  16.229  28.468   9.088
 1153POPC   GL218758  15.923  28.665   8.994
 1153POPC   C1A18759  16.015  28.223   8.740
 1153POPC   D2A18760  16.170  28.074   8.342
 1153POPC   C3A18761  15.973  28.095   7.913
 1153POPC   C4A18762  16.247  28.230   7.569
 1153POPC   C1B18763  15.580  28.467   8.701
 1153POPC   C2B18764  15.680  28.328   8.284
 1153POPC   C3B18765  15.814  28.578   7.936
 1153POPC   C4B18766  15.499  28.825   7.698
 1154POPC   NC318767  26.249   5.972  10.125
 1154POPC   PO418768  25.973   5.716   9.590
 1154POPC   GL118769  25.951   5.621   9.144
 1154POPC   GL218770  26.238   5.456   9.047
 1154POPC   C1A18771  26.088   5.829   8.732
 1154POPC   D2A18772  25.913   5.947   8.335
 1154POPC   C3A18773  26.083   6.034   7.916
 1154POPC   C4A18774  26.055   5.875   7.480
 1154POPC   C1B18775  26.008   5.323   8.660
 1154POPC   C2B18776  25.867   5.424   8.238
 1154POPC   C3B18777  26.093   5.534   7.858
 1154POPC   C4B18778  26.483   5.716   7.763
 1155POPC   NC318779  11.664   6.845   9.503
 1155POPC   PO418780  11.100   6.451   9.624
 1155POPC   GL118781  11.273   6.429   9.229
 1155POPC   GL218782  11.314   6.780   9.136
 1155POPC   C1A18783  11.395   6.385   8.812
 1155POPC   D2A18784  11.287   6.605   8.433
 1155POPC   C3A18785  11.286   6.322   8.099
 1155POPC   C4A18786  11.470   6.304   7.699
 1155POPC   C1B18787  11.381   7.010   8.759
 1155POPC   C2B18788  11.309   7.144   8.348
 1155POPC   C3B18789  11.225   6.898   7.976
 1155POPC   C4B18790  11.573   6.892   7.673
 1156POPC   NC318791  22.519  14.882   9.510
 1156POPC   PO418792  22.943  15.365   9.702
 1156POPC   GL118793  22.974  15.208   9.244
 1156POPC   GL218794  23.313  15.110   9.123
 1156POPC   C1A18795  22.940  15.194   8.781
 1156POPC   D2A18796  22.574  15.115   8.494
 1156POPC   C3A18797  22.671  14.970   8.072
 1156POPC   C4A18798  22.847  14.972   7.659
 1156POPC   C1B18799  23.363  14.854   8.759
 1156POPC   C2B18800  23.101  14.885   8.380
 1156POPC   C3B18801  23.214  15.077   7.998
 1156POPC   C4B18802  23.356  14.936   7.623
 1157POPC   NC318803  28.971  12.773   9.747
 1157POPC   PO418804  29.622  13.086   9.554
 1157POPC   GL118805  29.227  13.001   9.344
 1157POPC   GL218806  29.020  13.312   9.392
 1157POPC   C1A18807  29.120  12.759   8.947
 1157POPC   D2A18808  29.364  12.693   8.552
 1157POPC   C3A18809  29.178  12.742   8.129
 1157POPC   C4A18810  29.056  12.923   7.713
 1157POPC   C1B18811  29.048  13.273   8.950
 1157POPC   C2B18812  29.073  13.169   8.517
 1157POPC   C3B18813  29.190  13.250   8.085
 1157POPC   C4B18814  29.308  13.398   7.689
 1158POPC   NC318815  34.044  31.513   9.527
 1158POPC   PO418816  33.344  31.493   9.481
 1158POPC   GL118817  33.680  31.598   9.163
 1158POPC   GL218818  33.858  31.292   9.130
 1158POPC   C1A18819  33.796  31.524   8.694
 1158POPC   D2A18820  33.728  31.494   8.261
 1158POPC   C3A18821  34.023  31.539   7.948
 1158POPC   C4A18822  33.688  31.581   7.690
 1158POPC   C1B18823  34.025  31.080   8.785
 1158POPC   C2B18824  34.118  31.188   8.361
 1158POPC   C3B18825  34.058  31.042   7.936
 1158POPC   C4B18826  33.858  31.129   7.520
 1159POPC   NC318827   7.678  37.167   9.501
 1159POPC   PO418828   7.227  37.754   9.571
 1159POPC   GL118829   7.461  37.785   9.143
 1159POPC   GL218830   7.779  38.045   9.121
 1159POPC   C1A18831   7.309  37.669   8.732
 1159POPC   D2A18832   7.281  37.478   8.338
 1159POPC   C3A18833   7.450  37.613   7.987
 1159POPC   C4A18834   7.333  37.647   7.601
 1159POPC   C1B18835   7.839  37.864   8.761
 1159POPC   C2B18836   7.733  37.761   8.372
 1159POPC   C3B18837   7.847  37.923   7.958
 1159POPC   C4B18838   7.601  38.076   7.640
 1160POPC   NC318839   3.195  34.363   9.323
 1160POPC   PO418840   3.895  34.194   9.579
 1160POPC   GL118841   3.784  34.404   9.116
 1160POPC   GL218842   3.495  34.600   9.016
 1160POPC   C1A18843   3.870  34.857   8.834
 1160POPC   D2A18844   3.866  34.890   8.383
 1160POPC   C3A18845   3.464  34.809   8.179
 1160POPC   C4A18846   3.379  34.790   7.759
 1160POPC   C1B18847   3.580  34.515   8.593
 1160POPC   C2B18848   3.628  34.266   8.243
 1160POPC   C3B18849   3.329  34.328   7.951
 1160POPC   C4B18850   3.044  34.186   7.642
 1161POPC   NC318851  34.461  41.826   9.472
 1161POPC   PO418852  34.734  41.322   9.667
 1161POPC   GL118853  34.654  41.422   9.218
 1161POPC   GL218854  34.265  41.420   9.199
 1161POPC   C1A18855  34.796  41.497   8.777
 1161POPC   D2A18856  34.888  41.194   8.515
 1161POPC   C3A18857  34.908  41.130   8.056
 1161POPC   C4A18858  34.623  41.153   7.732
 1161POPC   C1B18859  34.334  41.661   8.842
 1161POPC   C2B18860  34.346  41.465   8.469
 1161POPC   C3B18861  34.520  41.463   8.124
 1161POPC   C4B18862  34.370  41.597   7.737
 1162POPC   NC318863  30.031  16.800   9.668
 1162POPC   PO418864  29.726  16.413   9.247
 1162POPC   GL118865  29.851  16.782   9.061
 1162POPC   GL218866  30.053  17.059   9.218
 1162POPC   C1A18867  29.988  16.705   8.631
 1162POPC   D2A18868  30.149  16.700   8.217
 1162POPC   C3A18869  29.910  16.597   7.898
 1162POPC   C4A18870  30.068  16.272   7.688
 1162POPC   C1B18871  29.985  17.187   8.797
 1162POPC   C2B18872  30.203  17.167   8.403
 1162POPC   C3B18873  29.988  17.150   7.985
 1162POPC   C4B18874  29.768  16.979   7.600
 1163POPC   NC318875  31.204  13.338   9.593
 1163POPC   PO418876  31.632  12.868   9.324
 1163POPC   GL118877  31.300  12.844   9.100
 1163POPC   GL218878  31.170  13.163   9.103
 1163POPC   C1A18879  31.317  12.860   8.652
 1163POPC   D2A18880  31.506  12.643   8.305
 1163POPC   C3A18881  31.536  12.824   7.920
 1163POPC   C4A18882  31.857  12.905   7.649
 1163POPC   C1B18883  30.932  13.223   8.710
 1163POPC   C2B18884  31.091  13.180   8.286
 1163POPC   C3B18885  31.019  13.237   7.851
 1163POPC   C4B18886  31.344  13.175   7.558
 1164POPC   NC318887  21.908  13.506   9.915
 1164POPC   PO418888  21.731  13.997   9.465
 1164POPC   GL118889  22.010  13.633   9.336
 1164POPC   GL218890  22.363  13.705   9.203
 1164POPC   C1A18891  22.017  13.430   8.912
 1164POPC   D2A18892  22.211  13.405   8.490
 1164POPC   C3A18893  22.096  13.723   8.209
 1164POPC   C4A18894  22.136  13.720   7.778
 1164POPC   C1B18895  22.383  13.849   8.756
 1164POPC   C2B18896  22.419  14.085   8.367
 1164POPC   C3B18897  22.520  14.012   7.956
 1164POPC   C4B18898  22.550  14.069   7.472
 1165POPC   NC318899  43.582  33.343   9.436
 1165POPC   PO418900  44.309  33.443   9.607
 1165POPC   GL118901  44.105  33.329   9.199
 1165POPC   GL218902  43.954  32.974   9.158
 1165POPC   C1A18903  44.148  33.199   8.767
 1165POPC   D2A18904  43.979  32.931   8.459
 1165POPC   C3A18905  44.058  33.091   8.062
 1165POPC   C4A18906  44.083  33.156   7.659
 1165POPC   C1B18907  43.618  33.063   8.807
 1165POPC   C2B18908  43.439  32.875   8.424
 1165POPC   C3B18909  43.589  32.797   7.999
 1165POPC   C4B18910  43.583  33.175   7.769
 1166POPC   NC318911  23.636  18.671   9.435
 1166POPC   PO418912  23.536  19.318   9.568
 1166POPC   GL118913  23.460  19.114   9.172
 1166POPC   GL218914  23.764  18.966   9.036
 1166POPC   C1A18915  23.378  19.105   8.714
 1166POPC   D2A18916  23.301  18.866   8.321
 1166POPC   C3A18917  23.385  19.049   7.921
 1166POPC   C4A18918  23.686  19.057   7.598
 1166POPC   C1B18919  23.992  18.793   8.665
 1166POPC   C2B18920  24.158  18.729   8.238
 1166POPC   C3B18921  24.155  18.957   7.822
 1166POPC   C4B18922  24.375  19.028   7.416
 1167POPC   NC318923   4.084  18.168   9.439
 1167POPC   PO418924   4.730  17.901   9.425
 1167POPC   GL118925   4.549  18.235   9.149
 1167POPC   GL218926   4.246  18.083   8.973
 1167POPC   C1A18927   4.512  18.413   8.709
 1167POPC   D2A18928   4.346  18.218   8.319
 1167POPC   C3A18929   4.382  18.474   7.948
 1167POPC   C4A18930   4.511  18.604   7.497
 1167POPC   C1B18931   4.172  17.773   8.655
 1167POPC   C2B18932   4.247  17.720   8.224
 1167POPC   C3B18933   4.233  17.941   7.845
 1167POPC   C4B18934   3.840  17.886   7.627
 1168POPC   NC318935  39.849  12.477   9.573
 1168POPC   PO418936  40.161  13.113   9.459
 1168POPC   GL118937  40.007  12.995   9.117
 1168POPC   GL218938  39.919  12.648   9.110
 1168POPC   C1A18939  40.223  12.902   8.759
 1168POPC   D2A18940  40.310  12.703   8.385
 1168POPC   C3A18941  40.222  12.902   8.008
 1168POPC   C4A18942  40.085  12.564   7.765
 1168POPC   C1B18943  39.767  12.699   8.720
 1168POPC   C2B18944  39.823  12.915   8.350
 1168POPC   C3B18945  39.691  12.790   7.965
 1168POPC   C4B18946  39.531  12.376   7.890
 1169POPC   NC318947  10.718   4.931   9.524
 1169POPC   PO418948  10.431   5.624   9.511
 1169POPC   GL118949  10.560   5.363   9.161
 1169POPC   GL218950  10.239   5.264   9.107
 1169POPC   C1A18951  10.564   5.197   8.715
 1169POPC   D2A18952  10.535   4.966   8.330
 1169POPC   C3A18953  10.790   5.173   8.015
 1169POPC   C4A18954  10.704   5.573   7.761
 1169POPC   C1B18955  10.130   4.948   8.807
 1169POPC   C2B18956  10.046   4.796   8.407
 1169POPC   C3B18957  10.121   4.946   8.010
 1169POPC   C4B18958  10.366   5.167   7.720
 1170POPC   NC318959  36.063  23.490   9.392
 1170POPC   PO418960  36.477  22.877   9.500
 1170POPC   GL118961  36.239  22.789   9.132
 1170POPC   GL218962  35.975  23.005   9.174
 1170POPC   C1A18963  36.141  22.627   8.739
 1170POPC   D2A18964  36.389  22.755   8.403
 1170POPC   C3A18965  36.103  22.663   8.095
 1170POPC   C4A18966  36.066  22.753   7.711
 1170POPC   C1B18967  36.198  23.143   8.773
 1170POPC   C2B18968  35.962  23.036   8.407
 1170POPC   C3B18969  35.785  23.092   8.003
 1170POPC   C4B18970  35.928  23.244   7.646
 1171POPC   NC318971  41.412  27.922   9.798
 1171POPC   PO418972  41.755  27.359   9.567
 1171POPC   GL118973  41.652  27.330   9.143
 1171POPC   GL218974  42.004  27.275   9.100
 1171POPC   C1A18975  41.370  27.429   8.807
 1171POPC   D2A18976  41.385  27.648   8.416
 1171POPC   C3A18977  41.439  27.469   8.008
 1171POPC   C4A18978  41.267  27.592   7.624
 1171POPC   C1B18979  41.883  27.601   8.776
 1171POPC   C2B18980  41.962  27.892   8.438
 1171POPC   C3B18981  42.031  27.725   8.038
 1171POPC   C4B18982  41.756  27.734   7.690
 1172POPC   NC318983   3.137  16.172   9.471
 1172POPC   PO418984   3.069  15.488   9.474
 1172POPC   GL118985   2.735  15.794   9.249
 1172POPC   GL218986   2.750  16.142   9.115
 1172POPC   C1A18987   2.722  15.776   8.785
 1172POPC   D2A18988   2.940  15.829   8.415
 1172POPC   C3A18989   2.666  15.647   8.152
 1172POPC   C4A18990   2.920  15.511   7.874
 1172POPC   C1B18991   2.806  16.372   8.720
 1172POPC   C2B18992   2.997  16.346   8.287
 1172POPC   C3B18993   2.843  16.069   7.929
 1172POPC   C4B18994   2.565  16.152   7.528
 1173POPC   NC318995  39.790  44.981   9.395
 1173POPC   PO418996  39.993  44.408   9.559
 1173POPC   GL118997  39.987  44.587   9.166
 1173POPC   GL218998  40.317  44.695   9.189
 1173POPC   C1A18999  39.970  44.774   8.749
 1173POPC   D2A19000  40.142  44.909   8.360
 1173POPC   C3A19001  40.013  44.834   7.950
 1173POPC   C4A19002  39.658  44.701   7.714
 1173POPC   C1B19003  40.304  44.373   8.838
 1173POPC   C2B19004  40.167  44.386   8.432
 1173POPC   C3B19005  40.386  44.490   8.072
 1173POPC   C4B19006  40.549  44.211   7.762
 1174POPC   NC319007  31.772  44.044   9.830
 1174POPC   PO419008  31.314  44.009   9.289
 1174POPC   GL119009  31.670  43.776   9.087
 1174POPC   GL219010  31.738  43.410   9.114
 1174POPC   C1A19011  31.674  43.716   8.632
 1174POPC   D2A19012  31.366  43.975   8.401
 1174POPC   C3A19013  31.613  44.126   8.073
 1174POPC   C4A19014  31.424  44.292   7.738
 1174POPC   C1B19015  31.325  43.445   8.902
 1174POPC   C2B19016  31.266  43.427   8.450
 1174POPC   C3B19017  31.529  43.593   8.111
 1174POPC   C4B19018  31.427  43.791   7.734
 1175POPC   NC319019  35.020  21.358   9.766
 1175POPC   PO419020  34.402  21.476   9.516
 1175POPC   GL119021  34.376  21.350   9.107
 1175POPC   GL219022  34.744  21.258   9.122
 1175POPC   C1A19023  34.114  21.308   8.739
 1175POPC   D2A19024  34.115  21.532   8.367
 1175POPC   C3A19025  34.371  21.376   8.044
 1175POPC   C4A19026  34.410  21.401   7.620
 1175POPC   C1B19027  34.608  21.200   8.668
 1175POPC   C2B19028  34.646  20.993   8.256
 1175POPC   C3B19029  34.789  21.015   7.801
 1175POPC   C4B19030  34.820  21.226   7.363
 1176POPC   NC319031  44.738  38.973   9.630
 1176POPC   PO419032  44.605  38.312   9.649
 1176POPC   GL119033  44.610  38.575   9.298
 1176POPC   GL219034  44.974  38.665   9.269
 1176POPC   C1A19035  44.382  38.467   8.908
 1176POPC   D2A19036  44.606  38.234   8.586
 1176POPC   C3A19037  44.647  38.377   8.162
 1176POPC   C4A19038  44.468  38.216   7.772
 1176POPC   C1B19039  44.817  38.739   8.845
 1176POPC   C2B19040  44.909  38.810   8.404
 1176POPC   C3B19041  44.692  38.891   8.011
 1176POPC   C4B19042  44.776  38.616   7.693
 1177POPC   NC319043  41.885   0.347   9.541
 1177POPC   PO419044  41.190   0.156   9.437
 1177POPC   GL119045  41.301   0.327   9.056
 1177POPC   GL219046  41.626   0.461   9.105
 1177POPC   C1A19047  41.277   0.631   8.739
 1177POPC   D2A19048  41.384   0.782   8.327
 1177POPC   C3A19049  41.481   0.430   8.093
 1177POPC   C4A19050  41.642   0.294   7.727
 1177POPC   C1B19051  41.808   0.695   8.757
 1177POPC   C2B19052  41.891   0.777   8.307
 1177POPC   C3B19053  41.800   0.786   7.843
 1177POPC   C4B19054  41.901   0.763   7.370
 1178POPC   NC319055  26.753  40.745   9.435
 1178POPC   PO419056  26.666  40.134   9.379
 1178POPC   GL119057  26.914  40.364   9.098
 1178POPC   GL219058  26.586  40.548   9.011
 1178POPC   C1A19059  26.932  40.464   8.661
 1178POPC   D2A19060  26.583  40.579   8.394
 1178POPC   C3A19061  26.611  40.530   7.951
 1178POPC   C4A19062  26.972  40.560   7.708
 1178POPC   C1B19063  26.709  40.924   8.790
 1178POPC   C2B19064  26.994  41.003   8.456
 1178POPC   C3B19065  26.875  40.968   8.035
 1178POPC   C4B19066  26.457  41.021   7.857
 1179POPC   NC319067  38.931  36.241   9.518
 1179POPC   PO419068  38.327  36.181   9.356
 1179POPC   GL119069  38.594  36.257   9.030
 1179POPC   GL219070  38.901  36.074   9.048
 1179POPC   C1A19071  38.651  36.218   8.600
 1179POPC   D2A19072  38.753  36.196   8.165
 1179POPC   C3A19073  38.482  36.292   7.816
 1179POPC   C4A19074  38.181  36.460   7.506
 1179POPC   C1B19075  38.683  35.755   8.830
 1179POPC   C2B19076  38.662  35.718   8.373
 1179POPC   C3B19077  38.488  35.803   7.956
 1179POPC   C4B19078  38.508  35.829   7.500
 1180POPC   NC319079  15.656  33.162   9.458
 1180POPC   PO419080  15.046  32.807   9.591
 1180POPC   GL119081  15.225  32.969   9.229
 1180POPC   GL219082  15.420  32.716   9.177
 1180POPC   C1A19083  15.151  33.145   8.818
 1180POPC   D2A19084  15.019  32.989   8.421
 1180POPC   C3A19085  14.994  33.285   8.127
 1180POPC   C4A19086  15.081  33.178   7.743
 1180POPC   C1B19087  15.249  32.643   8.800
 1180POPC   C2B19088  15.387  32.621   8.396
 1180POPC   C3B19089  15.272  32.767   8.010
 1180POPC   C4B19090  15.518  32.879   7.679
 1181POPC   NC319091  44.445  27.518   9.482
 1181POPC   PO419092   0.046  27.269   9.690
 1181POPC   GL119093  44.912  27.499   9.231
 1181POPC   GL219094  44.637  27.761   9.096
 1181POPC   C1A19095  44.827  27.476   8.730
 1181POPC   D2A19096  44.757  27.625   8.317
 1181POPC   C3A19097  44.640  27.355   8.010
 1181POPC   C4A19098  44.597  27.430   7.574
 1181POPC   C1B19099  44.593  27.948   8.686
 1181POPC   C2B19100  44.468  28.031   8.233
 1181POPC   C3B19101  44.679  27.864   7.832
 1181POPC   C4B19102  44.487  27.874   7.380
 1182POPC   NC319103  10.063   7.791   9.384
 1182POPC   PO419104  10.599   7.333   9.681
 1182POPC   GL119105  10.593   7.160   9.272
 1182POPC   GL219106  10.260   7.342   9.224
 1182POPC   C1A19107  10.682   7.001   8.831
 1182POPC   D2A19108  10.847   6.912   8.415
 1182POPC   C3A19109  10.671   7.114   8.020
 1182POPC   C4A19110  10.747   7.394   7.616
 1182POPC   C1B19111  10.532   7.473   8.883
 1182POPC   C2B19112  10.551   7.380   8.440
 1182POPC   C3B19113  10.565   7.627   8.041
 1182POPC   C4B19114  10.293   7.618   7.676
 1183POPC   NC319115   1.595  22.423   9.415
 1183POPC   PO419116   2.299  22.567   9.527
 1183POPC   GL119117   2.062  22.261   9.213
 1183POPC   GL219118   2.217  21.952   9.134
 1183POPC   C1A19119   1.834  22.161   8.808
 1183POPC   D2A19120   1.774  21.961   8.403
 1183POPC   C3A19121   1.971  22.294   8.133
 1183POPC   C4A19122   1.999  22.521   7.710
 1183POPC   C1B19123   2.117  21.733   8.785
 1183POPC   C2B19124   2.256  21.810   8.385
 1183POPC   C3B19125   2.103  21.789   7.997
 1183POPC   C4B19126   1.901  22.028   7.717
 1184POPC   NC319127  30.775  25.484   9.871
 1184POPC   PO419128  30.740  26.159   9.673
 1184POPC   GL119129  30.799  26.060   9.253
 1184POPC   GL219130  30.796  26.399   9.206
 1184POPC   C1A19131  30.743  25.872   8.840
 1184POPC   D2A19132  30.697  26.150   8.477
 1184POPC   C3A19133  30.657  25.950   8.084
 1184POPC   C4A19134  30.590  26.178   7.725
 1184POPC   C1B19135  31.049  26.264   8.854
 1184POPC   C2B19136  31.183  26.326   8.436
 1184POPC   C3B19137  31.012  26.334   8.029
 1184POPC   C4B19138  31.098  26.029   7.708
 1185POPC   NC319139  38.806  30.716   9.466
 1185POPC   PO419140  38.216  30.404   9.658
 1185POPC   GL119141  38.383  30.492   9.206
 1185POPC   GL219142  38.606  30.763   9.005
 1185POPC   C1A19143  38.223  30.535   8.777
 1185POPC   D2A19144  38.244  30.837   8.456
 1185POPC   C3A19145  38.339  30.699   8.077
 1185POPC   C4A19146  38.417  30.447   7.765
 1185POPC   C1B19147  38.993  30.938   8.812
 1185POPC   C2B19148  39.046  30.976   8.357
 1185POPC   C3B19149  38.683  31.081   8.077
 1185POPC   C4B19150  38.539  30.952   7.646
 1186POPC   NC319151  39.175   0.535   9.956
 1186POPC   PO419152  38.608   0.433   9.550
 1186POPC   GL119153  38.625   0.494   9.141
 1186POPC   GL219154  38.496   0.164   9.073
 1186POPC   C1A19155  38.700   0.474   8.717
 1186POPC   D2A19156  38.456   0.225   8.455
 1186POPC   C3A19157  38.389   0.490   8.091
 1186POPC   C4A19158  38.656   0.749   7.800
 1186POPC   C1B19159  38.172  44.951   8.834
 1186POPC   C2B19160  38.117  44.815   8.407
 1186POPC   C3B19161  38.294  44.974   8.024
 1186POPC   C4B19162  38.159   0.127   7.632
 1187POPC   NC319163  27.270  27.927   9.490
 1187POPC   PO419164  26.589  27.735   9.691
 1187POPC   GL119165  26.829  27.699   9.274
 1187POPC   GL219166  26.947  27.992   9.121
 1187POPC   C1A19167  26.911  27.529   8.841
 1187POPC   D2A19168  26.692  27.666   8.461
 1187POPC   C3A19169  26.764  27.506   8.052
 1187POPC   C4A19170  26.661  27.245   7.708
 1187POPC   C1B19171  27.052  28.030   8.712
 1187POPC   C2B19172  27.136  27.900   8.297
 1187POPC   C3B19173  27.002  27.951   7.892
 1187POPC   C4B19174  26.877  27.706   7.573
 1188POPC   NC319175  21.196   0.713   9.430
 1188POPC   PO419176  21.695   0.309   9.533
 1188POPC   GL119177  21.534   0.208   9.123
 1188POPC   GL219178  21.169   0.188   9.167
 1188POPC   C1A19179  21.391   0.490   8.766
 1188POPC   D2A19180  21.388   0.781   8.394
 1188POPC   C3A19181  21.443   0.546   8.030
 1188POPC   C4A19182  21.196   0.555   7.702
 1188POPC   C1B19183  21.202   0.012   8.751
 1188POPC   C2B19184  21.153   0.204   8.335
 1188POPC   C3B19185  21.009   0.027   7.940
 1188POPC   C4B19186  21.007   0.125   7.517
 1189POPC   NC319187  24.225   0.867   9.249
 1189POPC   PO419188  24.773   1.105   9.576
 1189POPC   GL119189  24.714   1.030   9.155
 1189POPC   GL219190  24.528   1.345   9.144
 1189POPC   C1A19191  24.601   1.104   8.695
 1189POPC   D2A19192  24.654   1.296   8.302
 1189POPC   C3A19193  24.603   1.131   7.886
 1189POPC   C4A19194  24.567   1.066   7.406
 1189POPC   C1B19195  24.225   1.415   8.812
 1189POPC   C2B19196  24.167   1.430   8.397
 1189POPC   C3B19197  24.216   1.445   7.971
 1189POPC   C4B19198  24.143   1.118   7.669
 1190POPC   NC319199  24.916  30.049   9.506
 1190POPC   PO419200  25.142  29.447   9.447
 1190POPC   GL119201  25.323  29.776   9.233
 1190POPC   GL219202  25.492  29.594   8.972
 1190POPC   C1A19203  25.349  30.087   8.898
 1190POPC   D2A19204  25.478  29.892   8.518
 1190POPC   C3A19205  25.269  30.063   8.119
 1190POPC   C4A19206  25.362  30.286   7.746
 1190POPC   C1B19207  25.069  29.674   8.748
 1190POPC   C2B19208  25.098  29.612   8.288
 1190POPC   C3B19209  25.338  29.576   7.888
 1190POPC   C4B19210  25.233  29.528   7.437
 1191POPC   NC319211  37.115   0.550   9.556
 1191POPC   PO419212  36.531   0.329   9.491
 1191POPC   GL119213  36.858   0.328   9.140
 1191POPC   GL219214  37.272   0.396   9.107
 1191POPC   C1A19215  36.651   0.377   8.737
 1191POPC   D2A19216  36.502   0.138   8.361
 1191POPC   C3A19217  36.523   0.367   7.958
 1191POPC   C4A19218  36.588   0.508   7.534
 1191POPC   C1B19219  37.150   0.356   8.695
 1191POPC   C2B19220  36.968   0.350   8.298
 1191POPC   C3B19221  37.122   0.336   7.883
 1191POPC   C4B19222  37.186   0.578   7.527
 1192POPC   NC319223  26.580  27.322   9.889
 1192POPC   PO419224  25.990  27.239   9.511
 1192POPC   GL119225  26.052  26.968   9.163
 1192POPC   GL219226  26.343  26.786   9.209
 1192POPC   C1A19227  25.888  26.960   8.720
 1192POPC   D2A19228  25.726  26.640   8.449
 1192POPC   C3A19229  25.788  26.684   8.009
 1192POPC   C4A19230  26.064  26.980   7.803
 1192POPC   C1B19231  26.321  26.672   8.777
 1192POPC   C2B19232  26.232  26.800   8.355
 1192POPC   C3B19233  26.504  26.893   8.035
 1192POPC   C4B19234  26.531  26.750   7.616
 1193POPC   NC319235  40.773  36.040   9.625
 1193POPC   PO419236  40.353  36.528   9.434
 1193POPC   GL119237  40.699  36.305   9.178
 1193POPC   GL219238  40.736  35.919   9.145
 1193POPC   C1A19239  40.785  36.266   8.730
 1193POPC   D2A19240  40.662  36.403   8.338
 1193POPC   C3A19241  40.935  36.364   8.020
 1193POPC   C4A19242  41.014  36.128   7.646
 1193POPC   C1B19243  40.718  35.768   8.759
 1193POPC   C2B19244  40.949  35.866   8.343
 1193POPC   C3B19245  40.935  35.702   7.906
 1193POPC   C4B19246  40.941  35.665   7.396
 1194POPC   NC319247   7.196  12.966   9.568
 1194POPC   PO419248   7.735  12.555   9.342
 1194POPC   GL119249   7.383  12.795   9.133
 1194POPC   GL219250   7.514  12.721   8.852
 1194POPC   C1A19251   7.174  13.114   8.831
 1194POPC   D2A19252   7.351  13.145   8.413
 1194POPC   C3A19253   7.167  13.168   8.005
 1194POPC   C4A19254   7.519  13.041   7.808
 1194POPC   C1B19255   7.209  12.666   8.561
 1194POPC   C2B19256   7.233  12.669   8.123
 1194POPC   C3B19257   7.444  12.525   7.769
 1194POPC   C4B19258   7.388  12.327   7.364
 1195POPC   NC319259   6.265  32.890   9.372
 1195POPC   PO419260   6.659  33.355   9.499
 1195POPC   GL119261   6.619  33.155   9.066
 1195POPC   GL219262   6.296  33.098   8.920
 1195POPC   C1A19263   6.661  33.089   8.596
 1195POPC   D2A19264   6.615  32.892   8.208
 1195POPC   C3A19265   6.766  33.007   7.816
 1195POPC   C4A19266   6.821  33.235   7.434
 1195POPC   C1B19267   6.414  32.662   8.714
 1195POPC   C2B19268   6.307  32.514   8.283
 1195POPC   C3B19269   6.424  32.592   7.834
 1195POPC   C4B19270   6.594  32.275   7.532
 1196POPC   NC319271  18.846   9.114   9.815
 1196POPC   PO419272  18.212   9.095   9.431
 1196POPC   GL119273  18.292   8.981   9.032
 1196POPC   GL219274  18.547   8.780   9.122
 1196POPC   C1A19275  18.361   8.980   8.584
 1196POPC   D2A19276  18.087   9.018   8.235
 1196POPC   C3A19277  18.307   9.182   7.925
 1196POPC   C4A19278  18.182   9.108   7.546
 1196POPC   C1B19279  18.807   8.758   8.778
 1196POPC   C2B19280  18.796   8.629   8.359
 1196POPC   C3B19281  18.492   8.714   8.051
 1196POPC   C4B19282  18.609   8.846   7.634
 1197POPC   NC319283  44.189  44.066   9.285
 1197POPC   PO419284  43.793  43.582   9.591
 1197POPC   GL119285  43.704  43.777   9.162
 1197POPC   GL219286  43.802  44.095   8.946
 1197POPC   C1A19287  43.781  43.649   8.712
 1197POPC   D2A19288  43.801  43.838   8.327
 1197POPC   C3A19289  43.639  43.644   7.992
 1197POPC   C4A19290  43.889  43.430   7.738
 1197POPC   C1B19291  44.172  43.985   8.646
 1197POPC   C2B19292  44.286  44.034   8.225
 1197POPC   C3B19293  44.114  43.898   7.812
 1197POPC   C4B19294  44.183  43.710   7.378
 1198POPC   NC319295  26.875   0.264   9.701
 1198POPC   PO419296  26.524   0.768   9.485
 1198POPC   GL119297  26.741   0.454   9.192
 1198POPC   GL219298  26.951   0.166   9.178
 1198POPC   C1A19299  26.706   0.329   8.748
 1198POPC   D2A19300  26.531   0.141   8.358
 1198POPC   C3A19301  26.733   0.385   8.068
 1198POPC   C4A19302  26.715   0.448   7.664
 1198POPC   C1B19303  27.200   0.136   8.783
 1198POPC   C2B19304  27.071   0.102   8.351
 1198POPC   C3B19305  27.005  44.951   7.935
 1198POPC   C4B19306  26.933   0.061   7.446
 1199POPC   NC319307   6.859  43.276   9.333
 1199POPC   PO419308   7.471  43.056   9.590
 1199POPC   GL119309   7.361  43.164   9.193
 1199POPC   GL219310   7.428  42.826   9.140
 1199POPC   C1A19311   7.376  43.399   8.809
 1199POPC   D2A19312   7.268  43.277   8.404
 1199POPC   C3A19313   7.273  43.499   8.060
 1199POPC   C4A19314   7.151  43.302   7.708
 1199POPC   C1B19315   7.393  42.885   8.727
 1199POPC   C2B19316   7.555  42.846   8.337
 1199POPC   C3B19317   7.514  43.034   7.982
 1199POPC   C4B19318   7.465  42.812   7.640
 1200POPC   NC319319  18.727  11.943   9.616
 1200POPC   PO419320  19.273  12.269   9.498
 1200POPC   GL119321  19.058  12.021   9.206
 1200POPC   GL219322  19.383  11.997   9.068
 1200POPC   C1A19323  18.917  11.856   8.816
 1200POPC   D2A19324  18.709  12.042   8.457
 1200POPC   C3A19325  18.804  12.037   8.001
 1200POPC   C4A19326  18.873  12.166   7.557
 1200POPC   C1B19327  19.420  11.876   8.707
 1200POPC   C2B19328  19.200  11.874   8.328
 1200POPC   C3B19329  19.303  12.116   7.944
 1200POPC   C4B19330  19.384  12.079   7.519
 1201POPC   NC319331  25.813  13.946   9.404
 1201POPC   PO419332  26.249  13.489   9.560
 1201POPC   GL119333  26.055  13.523   9.195
 1201POPC   GL219334  26.169  13.832   9.068
 1201POPC   C1A19335  25.898  13.497   8.802
 1201POPC   D2A19336  26.016  13.651   8.407
 1201POPC   C3A19337  25.857  13.398   8.075
 1201POPC   C4A19338  25.636  13.469   7.725
 1201POPC   C1B19339  26.043  14.071   8.705
 1201POPC   C2B19340  25.794  14.167   8.341
 1201POPC   C3B19341  25.906  13.934   7.973
 1201POPC   C4B19342  25.942  13.844   7.537
 1202POPC   NC319343  15.847  16.843   9.546
 1202POPC   PO419344  16.382  16.539   9.524
 1202POPC   GL119345  16.058  16.604   9.127
 1202POPC   GL219346  15.656  16.626   9.127
 1202POPC   C1A19347  16.066  16.603   8.665
 1202POPC   D2A19348  16.059  16.868   8.275
 1202POPC   C3A19349  16.216  16.671   7.880
 1202POPC   C4A19350  16.257  16.777   7.421
 1202POPC   C1B19351  15.577  16.798   8.701
 1202POPC   C2B19352  15.585  16.617   8.269
 1202POPC   C3B19353  15.668  16.722   7.841
 1202POPC   C4B19354  15.858  16.474   7.517
 1203POPC   NC319355  31.674  24.958   9.592
 1203POPC   PO419356  31.221  25.398   9.721
 1203POPC   GL119357  31.338  25.209   9.295
 1203POPC   GL219358  31.647  25.232   9.154
 1203POPC   C1A19359  31.234  25.093   8.858
 1203POPC   D2A19360  31.189  25.259   8.407
 1203POPC   C3A19361  31.357  25.117   7.980
 1203POPC   C4A19362  31.266  25.205   7.529
 1203POPC   C1B19363  31.665  25.348   8.710
 1203POPC   C2B19364  31.658  25.472   8.265
 1203POPC   C3B19365  31.846  25.309   7.875
 1203POPC   C4B19366  31.758  25.354   7.416
 1204POPC   NC319367  15.786   9.707   9.663
 1204POPC   PO419368  16.421   9.538   9.539
 1204POPC   GL119369  16.124   9.563   9.236
 1204POPC   GL219370  15.988   9.901   9.209
 1204POPC   C1A19371  16.202   9.591   8.799
 1204POPC   D2A19372  15.952   9.529   8.443
 1204POPC   C3A19373  15.899   9.589   8.012
 1204POPC   C4A19374  16.074   9.866   7.725
 1204POPC   C1B19375  15.861  10.023   8.777
 1204POPC   C2B19376  15.826  10.025   8.318
 1204POPC   C3B19377  15.589  10.013   7.947
 1204POPC   C4B19378  15.611   9.981   7.507
 1205POPC   NC319379  22.646  38.963   9.285
 1205POPC   PO419380  22.018  39.093   9.535
 1205POPC   GL119381  22.187  39.225   9.168
 1205POPC   GL219382  22.491  39.436   9.159
 1205POPC   C1A19383  22.060  39.251   8.748
 1205POPC   D2A19384  22.237  38.986   8.427
 1205POPC   C3A19385  22.167  39.103   8.014
 1205POPC   C4A19386  22.010  39.208   7.588
 1205POPC   C1B19387  22.563  39.312   8.705
 1205POPC   C2B19388  22.312  39.506   8.347
 1205POPC   C3B19389  22.183  39.600   7.898
 1205POPC   C4B19390  22.463  39.516   7.551
 1206POPC   NC319391   3.153  21.786   9.511
 1206POPC   PO419392   3.398  21.153   9.647
 1206POPC   GL119393   3.259  21.234   9.249
 1206POPC   GL219394   3.499  21.490   9.167
 1206POPC   C1A19395   3.397  21.091   8.839
 1206POPC   D2A19396   3.581  21.265   8.473
 1206POPC   C3A19397   3.359  21.542   8.219
 1206POPC   C4A19398   3.352  21.387   7.815
 1206POPC   C1B19399   3.859  21.435   8.859
 1206POPC   C2B19400   3.884  21.645   8.422
 1206POPC   C3B19401   3.837  21.431   8.025
 1206POPC   C4B19402   3.775  21.573   7.596
 1207POPC   NC319403   2.453  41.994   9.571
 1207POPC   PO419404   3.050  42.226   9.310
 1207POPC   GL119405   2.613  42.319   9.190
 1207POPC   GL219406   2.627  42.675   9.172
 1207POPC   C1A19407   2.380  42.453   8.798
 1207POPC   D2A19408   2.613  42.701   8.474
 1207POPC   C3A19409   2.727  42.423   8.162
 1207POPC   C4A19410   2.625  42.308   7.771
 1207POPC   C1B19411   2.975  42.691   8.834
 1207POPC   C2B19412   3.116  42.403   8.522
 1207POPC   C3B19413   3.223  42.466   8.113
 1207POPC   C4B19414   3.071  42.561   7.719
 1208POPC   NC319415  38.203  35.747   9.455
 1208POPC   PO419416  38.557  35.216   9.673
 1208POPC   GL119417  38.581  35.352   9.281
 1208POPC   GL219418  38.265  35.220   9.232
 1208POPC   C1A19419  38.715  35.170   8.906
 1208POPC   D2A19420  38.582  35.226   8.489
 1208POPC   C3A19421  38.704  35.069   8.101
 1208POPC   C4A19422  38.702  35.389   7.797
 1208POPC   C1B19423  38.263  35.455   8.852
 1208POPC   C2B19424  38.185  35.567   8.440
 1208POPC   C3B19425  38.158  35.427   8.057
 1208POPC   C4B19426  38.245  35.091   7.825
 1209POPC   NC319427  13.404  35.322   9.840
 1209POPC   PO419428  13.777  35.687   9.404
 1209POPC   GL119429  13.573  35.354   9.165
 1209POPC   GL219430  13.816  35.108   9.152
 1209POPC   C1A19431  13.476  35.235   8.721
 1209POPC   D2A19432  13.464  35.441   8.296
 1209POPC   C3A19433  13.481  35.202   7.877
 1209POPC   C4A19434  13.300  35.238   7.422
 1209POPC   C1B19435  13.979  35.153   8.719
 1209POPC   C2B19436  13.846  35.094   8.281
 1209POPC   C3B19437  13.993  35.073   7.836
 1209POPC   C4B19438  14.118  35.027   7.378
 1210POPC   NC319439  32.765  24.426   9.868
 1210POPC   PO419440  32.940  24.934   9.454
 1210POPC   GL119441  32.943  24.660   9.084
 1210POPC   GL219442  32.938  24.297   9.103
 1210POPC   C1A19443  33.093  24.593   8.669
 1210POPC   D2A19444  33.324  24.570   8.305
 1210POPC   C3A19445  33.127  24.657   7.929
 1210POPC   C4A19446  33.218  24.598   7.511
 1210POPC   C1B19447  32.903  24.135   8.654
 1210POPC   C2B19448  32.854  24.322   8.224
 1210POPC   C3B19449  32.844  24.268   7.752
 1210POPC   C4B19450  32.970  24.206   7.300
 1211POPC   NC319451  10.371  15.442   9.716
 1211POPC   PO419452  10.760  14.951   9.592
 1211POPC   GL119453  10.527  15.055   9.215
 1211POPC   GL219454  10.433  15.408   9.194
 1211POPC   C1A19455  10.518  15.132   8.764
 1211POPC   D2A19456  10.352  15.173   8.350
 1211POPC   C3A19457  10.674  14.998   8.100
 1211POPC   C4A19458  10.808  14.974   7.668
 1211POPC   C1B19459  10.551  15.704   8.841
 1211POPC   C2B19460  10.388  15.759   8.420
 1211POPC   C3B19461  10.443  15.554   8.011
 1211POPC   C4B19462  10.347  15.212   7.747
 1212POPC   NC319463  39.415  21.884   9.531
 1212POPC   PO419464  38.878  22.374   9.526
 1212POPC   GL119465  39.146  22.365   9.124
 1212POPC   GL219466  39.381  22.092   9.061
 1212POPC   C1A19467  39.094  22.539   8.666
 1212POPC   D2A19468  38.988  22.519   8.198
 1212POPC   C3A19469  39.113  22.180   7.877
 1212POPC   C4A19470  39.052  22.097   7.419
 1212POPC   C1B19471  39.572  22.396   8.780
 1212POPC   C2B19472  39.485  22.451   8.328
 1212POPC   C3B19473  39.439  22.579   7.912
 1212POPC   C4B19474  39.424  22.441   7.488
 1213POPC   NC319475  40.276  36.907   9.672
 1213POPC   PO419476  40.921  36.957   9.661
 1213POPC   GL119477  40.730  36.865   9.315
 1213POPC   GL219478  40.642  37.191   9.272
 1213POPC   C1A19479  40.710  36.747   8.895
 1213POPC   D2A19480  40.968  36.738   8.552
 1213POPC   C3A19481  40.774  36.882   8.204
 1213POPC   C4A19482  40.868  36.801   7.778
 1213POPC   C1B19483  40.940  37.216   8.912
 1213POPC   C2B19484  40.843  37.352   8.473
 1213POPC   C3B19485  40.997  37.332   8.053
 1213POPC   C4B19486  40.903  37.278   7.619
 1214POPC   NC319487  35.857  40.036   9.618
 1214POPC   PO419488  36.340  39.583   9.463
 1214POPC   GL119489  36.142  39.924   9.143
 1214POPC   GL219490  35.865  40.194   9.134
 1214POPC   C1A19491  35.968  39.956   8.694
 1214POPC   D2A19492  36.107  40.202   8.321
 1214POPC   C3A19493  36.188  40.077   7.918
 1214POPC   C4A19494  36.530  40.217   7.720
 1214POPC   C1B19495  35.620  40.324   8.765
 1214POPC   C2B19496  35.596  40.159   8.335
 1214POPC   C3B19497  35.812  39.805   8.155
 1214POPC   C4B19498  35.885  39.712   7.715
 1215POPC   NC319499   3.405  31.539   9.518
 1215POPC   PO419500   3.934  31.142   9.442
 1215POPC   GL119501   3.835  31.438   9.090
 1215POPC   GL219502   3.463  31.449   9.037
 1215POPC   C1A19503   3.726  31.258   8.660
 1215POPC   D2A19504   3.474  31.087   8.338
 1215POPC   C3A19505   3.673  31.223   7.984
 1215POPC   C4A19506   3.680  31.046   7.570
 1215POPC   C1B19507   3.502  31.736   8.703
 1215POPC   C2B19508   3.557  31.621   8.304
 1215POPC   C3B19509   3.465  31.721   7.901
 1215POPC   C4B19510   3.606  31.542   7.523
 1216POPC   NC319511  13.795  25.636   9.447
 1216POPC   PO419512  13.355  25.278   9.802
 1216POPC   GL119513  13.540  25.224   9.283
 1216POPC   GL219514  13.382  25.426   9.088
 1216POPC   C1A19515  13.731  25.317   8.777
 1216POPC   D2A19516  13.884  25.073   8.470
 1216POPC   C3A19517  13.914  25.259   8.089
 1216POPC   C4A19518  13.881  25.044   7.739
 1216POPC   C1B19519  13.247  25.256   8.695
 1216POPC   C2B19520  13.408  25.187   8.290
 1216POPC   C3B19521  13.347  25.124   7.828
 1216POPC   C4B19522  13.199  25.382   7.501
 1217POPC   NC319523  17.978  29.186   9.643
 1217POPC   PO419524  17.457  28.789   9.703
 1217POPC   GL119525  17.419  28.988   9.285
 1217POPC   GL219526  17.322  28.726   9.036
 1217POPC   C1A19527  17.595  29.143   8.889
 1217POPC   D2A19528  17.875  29.073   8.530
 1217POPC   C3A19529  17.782  28.976   8.118
 1217POPC   C4A19530  17.741  29.171   7.694
 1217POPC   C1B19531  17.456  28.740   8.593
 1217POPC   C2B19532  17.246  28.761   8.223
 1217POPC   C3B19533  17.331  28.935   7.854
 1217POPC   C4B19534  17.249  29.381   7.799
 1218POPC   NC319535  37.686   5.109   9.650
 1218POPC   PO419536  37.609   4.461   9.576
 1218POPC   GL119537  37.706   4.740   9.192
 1218POPC   GL219538  37.593   5.102   9.139
 1218POPC   C1A19539  37.543   4.776   8.741
 1218POPC   D2A19540  37.397   5.008   8.364
 1218POPC   C3A19541  37.613   4.868   8.018
 1218POPC   C4A19542  37.913   4.692   7.753
 1218POPC   C1B19543  37.671   5.287   8.709
 1218POPC   C2B19544  37.934   5.181   8.332
 1218POPC   C3B19545  37.975   5.193   7.895
 1218POPC   C4B19546  37.727   5.492   7.845
 1219POPC   NC319547  43.656   5.130   9.982
 1219POPC   PO419548  43.869   5.683   9.579
 1219POPC   GL119549  44.054   5.639   9.180
 1219POPC   GL219550  44.028   5.977   9.099
 1219POPC   C1A19551  44.218   5.643   8.761
 1219POPC   D2A19552  44.043   5.743   8.349
 1219POPC   C3A19553  44.197   5.726   7.941
 1219POPC   C4A19554  43.828   5.678   7.774
 1219POPC   C1B19555  44.100   6.137   8.670
 1219POPC   C2B19556  44.299   6.165   8.238
 1219POPC   C3B19557  44.152   6.225   7.790
 1219POPC   C4B19558  43.891   6.370   7.420
 1220POPC   NC319559  21.623  25.358   9.452
 1220POPC   PO419560  21.115  25.635   9.806
 1220POPC   GL119561  21.107  25.261   9.378
 1220POPC   GL219562  21.356  25.310   9.019
 1220POPC   C1A19563  20.978  25.010   8.961
 1220POPC   D2A19564  21.213  24.942   8.590
 1220POPC   C3A19565  21.217  25.090   8.181
 1220POPC   C4A19566  20.985  25.127   7.829
 1220POPC   C1B19567  21.577  25.645   8.726
 1220POPC   C2B19568  21.520  25.926   8.369
 1220POPC   C3B19569  21.644  25.747   7.970
 1220POPC   C4B19570  21.392  25.437   7.799
 1221POPC   NC319571  42.344  23.500   9.497
 1221POPC   PO419572  42.075  24.044   9.673
 1221POPC   GL119573  42.187  23.880   9.177
 1221POPC   GL219574  42.468  23.703   9.041
 1221POPC   C1A19575  42.119  23.998   8.724
 1221POPC   D2A19576  42.395  23.846   8.355
 1221POPC   C3A19577  42.485  23.957   7.909
 1221POPC   C4A19578  42.330  23.967   7.447
 1221POPC   C1B19579  42.262  23.494   8.701
 1221POPC   C2B19580  42.425  23.355   8.276
 1221POPC   C3B19581  42.407  23.411   7.813
 1221POPC   C4B19582  42.627  23.563   7.415
 1222POPC   NC319583  41.716  22.130   9.583
 1222POPC   PO419584  41.289  22.750   9.556
 1222POPC   GL119585  41.356  22.419   9.206
 1222POPC   GL219586  41.382  22.001   9.200
 1222POPC   C1A19587  41.584  22.278   8.835
 1222POPC   D2A19588  41.451  21.990   8.529
 1222POPC   C3A19589  41.530  22.223   8.185
 1222POPC   C4A19590  41.534  22.208   7.751
 1222POPC   C1B19591  41.745  21.806   8.910
 1222POPC   C2B19592  41.975  21.833   8.471
 1222POPC   C3B19593  41.875  21.875   8.000
 1222POPC   C4B19594  41.944  21.983   7.543
 1223POPC   NC319595   9.988   1.722  10.206
 1223POPC   PO419596   9.617   1.359   9.849
 1223POPC   GL119597   9.573   1.220   9.338
 1223POPC   GL219598   9.410   1.483   9.133
 1223POPC   C1A19599   9.512   1.067   8.854
 1223POPC   D2A19600   9.474   0.977   8.360
 1223POPC   C3A19601   9.686   1.218   7.978
 1223POPC   C4A19602   9.740   1.403   7.539
 1223POPC   C1B19603   9.502   1.549   8.660
 1223POPC   C2B19604   9.319   1.443   8.260
 1223POPC   C3B19605   9.314   1.566   7.786
 1223POPC   C4B19606   9.309   1.578   7.312
 1224POPC   NC319607  18.714  35.443   9.468
 1224POPC   PO419608  18.095  35.193   9.526
 1224POPC   GL119609  18.071  35.302   9.086
 1224POPC   GL219610  18.423  35.280   9.045
 1224POPC   C1A19611  18.106  35.381   8.630
 1224POPC   D2A19612  18.165  35.135   8.259
 1224POPC   C3A19613  18.313  35.326   7.890
 1224POPC   C4A19614  18.072  35.225   7.548
 1224POPC   C1B19615  18.461  35.008   8.668
 1224POPC   C2B19616  18.663  34.958   8.290
 1224POPC   C3B19617  18.538  34.872   7.912
 1224POPC   C4B19618  18.672  35.056   7.541
 1225POPC   NC319619  43.672  26.414   9.431
 1225POPC   PO419620  43.841  26.896   9.876
 1225POPC   GL119621  43.898  26.890   9.363
 1225POPC   GL219622  44.215  26.750   9.149
 1225POPC   C1A19623  43.735  26.876   8.897
 1225POPC   D2A19624  43.743  27.033   8.435
 1225POPC   C3A19625  43.805  26.858   8.016
 1225POPC   C4A19626  43.959  26.768   7.606
 1225POPC   C1B19627  44.205  26.936   8.676
 1225POPC   C2B19628  44.238  27.043   8.226
 1225POPC   C3B19629  44.244  27.138   7.786
 1225POPC   C4B19630  44.346  27.045   7.330
 1226POPC   NC319631  30.449  36.949   9.459
 1226POPC   PO419632  30.559  36.334   9.255
 1226POPC   GL119633  30.679  36.778   9.056
 1226POPC   GL219634  30.433  36.984   8.887
 1226POPC   C1A19635  30.934  36.886   8.704
 1226POPC   D2A19636  30.847  36.732   8.279
 1226POPC   C3A19637  30.617  37.010   8.056
 1226POPC   C4A19638  30.857  37.172   7.768
 1226POPC   C1B19639  30.505  36.579   8.643
 1226POPC   C2B19640  30.355  36.422   8.281
 1226POPC   C3B19641  30.508  36.523   7.901
 1226POPC   C4B19642  30.624  36.750   7.531
 1227POPC   NC319643  39.436  35.636   9.483
 1227POPC   PO419644  39.364  36.390   9.475
 1227POPC   GL119645  39.405  36.073   9.225
 1227POPC   GL219646  39.596  36.258   9.017
 1227POPC   C1A19647  39.319  35.864   8.851
 1227POPC   D2A19648  39.087  35.969   8.507
 1227POPC   C3A19649  39.124  35.789   8.106
 1227POPC   C4A19650  38.940  35.966   7.738
 1227POPC   C1B19651  39.218  36.377   8.798
 1227POPC   C2B19652  39.103  36.498   8.384
 1227POPC   C3B19653  39.205  36.334   7.978
 1227POPC   C4B19654  39.477  36.030   7.769
 1228POPC   NC319655  10.388  20.910   9.534
 1228POPC   PO419656  10.236  20.317   9.543
 1228POPC   GL119657  10.316  20.536   9.184
 1228POPC   GL219658  10.630  20.614   9.151
 1228POPC   C1A19659  10.331  20.759   8.789
 1228POPC   D2A19660  10.441  20.444   8.477
 1228POPC   C3A19661  10.368  20.574   8.092
 1228POPC   C4A19662  10.475  20.625   7.689
 1228POPC   C1B19663  10.825  20.554   8.774
 1228POPC   C2B19664  10.861  20.697   8.383
 1228POPC   C3B19665  10.905  20.935   8.050
 1228POPC   C4B19666  10.985  20.648   7.766
 1229POPC   NC319667  37.009  38.718   9.378
 1229POPC   PO419668  36.834  38.130   9.524
 1229POPC   GL119669  36.857  38.252   9.122
 1229POPC   GL219670  36.617  38.508   9.113
 1229POPC   C1A19671  36.593  38.165   8.753
 1229POPC   D2A19672  36.575  38.375   8.353
 1229POPC   C3A19673  36.910  38.351   8.020
 1229POPC   C4A19674  37.008  38.638   7.655
 1229POPC   C1B19675  36.679  38.730   8.770
 1229POPC   C2B19676  36.487  38.892   8.403
 1229POPC   C3B19677  36.627  38.821   8.009
 1229POPC   C4B19678  36.670  39.034   7.641
 1230POPC   NC319679  19.190  37.008   9.807
 1230POPC   PO419680  18.693  36.847   9.470
 1230POPC   GL119681  19.120  36.893   9.266
 1230POPC   GL219682  19.338  37.185   9.321
 1230POPC   C1A19683  19.175  36.724   8.836
 1230POPC   D2A19684  19.153  36.522   8.407
 1230POPC   C3A19685  19.125  36.674   7.991
 1230POPC   C4A19686  19.382  36.845   7.686
 1230POPC   C1B19687  19.206  37.238   8.865
 1230POPC   C2B19688  19.279  37.036   8.416
 1230POPC   C3B19689  19.074  37.179   7.982
 1230POPC   C4B19690  19.002  37.139   7.498
 1231POPC   NC319691   6.815  20.061   9.561
 1231POPC   PO419692   6.509  19.532   9.505
 1231POPC   GL119693   6.436  19.873   9.198
 1231POPC   GL219694   6.777  19.804   9.103
 1231POPC   C1A19695   6.411  19.933   8.724
 1231POPC   D2A19696   6.665  19.816   8.345
 1231POPC   C3A19697   6.496  19.820   7.920
 1231POPC   C4A19698   6.350  20.172   7.689
 1231POPC   C1B19699   6.972  19.656   8.746
 1231POPC   C2B19700   7.190  19.831   8.389
 1231POPC   C3B19701   7.010  19.842   7.957
 1231POPC   C4B19702   6.987  19.887   7.499
 1232POPC   NC319703  16.246   8.098   9.441
 1232POPC   PO419704  15.973   8.662   9.362
 1232POPC   GL119705  15.912   8.280   9.090
 1232POPC   GL219706  15.743   7.946   9.146
 1232POPC   C1A19707  15.982   8.089   8.695
 1232POPC   D2A19708  16.218   8.094   8.305
 1232POPC   C3A19709  15.968   8.126   7.942
 1232POPC   C4A19710  15.884   7.826   7.621
 1232POPC   C1B19711  15.480   8.102   8.814
 1232POPC   C2B19712  15.577   8.267   8.395
 1232POPC   C3B19713  15.410   8.449   8.006
 1232POPC   C4B19714  15.472   8.466   7.536
 1233POPC   NC319715   5.421  38.664   9.471
 1233POPC   PO419716   5.843  38.133   9.550
 1233POPC   GL119717   5.832  38.355   9.165
 1233POPC   GL219718   5.895  38.715   9.198
 1233POPC   C1A19719   5.815  38.497   8.753
 1233POPC   D2A19720   5.578  38.535   8.411
 1233POPC   C3A19721   5.792  38.478   8.058
 1233POPC   C4A19722   5.777  38.270   7.647
 1233POPC   C1B19723   6.166  38.877   8.840
 1233POPC   C2B19724   6.130  38.768   8.406
 1233POPC   C3B19725   6.020  38.938   8.024
 1233POPC   C4B19726   5.856  38.779   7.640
 1234POPC   NC319727  17.780  30.002   9.436
 1234POPC   PO419728  17.365  30.561   9.358
 1234POPC   GL119729  17.387  30.206   9.131
 1234POPC   GL219730  17.282  29.884   9.256
 1234POPC   C1A19731  17.401  30.065   8.725
 1234POPC   D2A19732  17.265  29.846   8.387
 1234POPC   C3A19733  17.496  29.924   8.053
 1234POPC   C4A19734  17.532  30.060   7.671
 1234POPC   C1B19735  17.556  29.645   8.963
 1234POPC   C2B19736  17.638  29.540   8.547
 1234POPC   C3B19737  17.635  29.454   8.128
 1234POPC   C4B19738  17.825  29.661   7.754
 1235POPC   NC319739  37.753  23.628   9.507
 1235POPC   PO419740  37.295  24.236   9.610
 1235POPC   GL119741  37.458  24.084   9.164
 1235POPC   GL219742  37.471  23.708   9.107
 1235POPC   C1A19743  37.541  23.967   8.707
 1235POPC   D2A19744  37.811  24.009   8.372
 1235POPC   C3A19745  37.622  23.927   7.985
 1235POPC   C4A19746  37.819  23.895   7.615
 1235POPC   C1B19747  37.711  23.488   8.776
 1235POPC   C2B19748  37.593  23.555   8.357
 1235POPC   C3B19749  37.733  23.416   7.974
 1235POPC   C4B19750  37.381  23.388   7.746
 1236POPC   NC319751  10.072  12.929   9.559
 1236POPC   PO419752   9.350  12.953   9.578
 1236POPC   GL119753   9.613  12.996   9.208
 1236POPC   GL219754   9.807  12.736   9.098
 1236POPC   C1A19755   9.504  13.004   8.773
 1236POPC   D2A19756   9.656  13.113   8.373
 1236POPC   C3A19757   9.505  12.972   8.014
 1236POPC   C4A19758   9.742  13.030   7.660
 1236POPC   C1B19759   9.371  12.559   9.005
 1236POPC   C2B19760   9.233  12.315   8.639
 1236POPC   C3B19761   9.259  12.299   8.175
 1236POPC   C4B19762   9.434  12.509   7.779
 1237POPC   NC319763   0.156  41.636   9.560
 1237POPC   PO419764   0.558  41.151   9.760
 1237POPC   GL119765   0.601  41.371   9.238
 1237POPC   GL219766   0.432  41.713   9.125
 1237POPC   C1A19767   0.337  41.313   8.783
 1237POPC   D2A19768   0.183  41.517   8.363
 1237POPC   C3A19769   0.368  41.398   7.966
 1237POPC   C4A19770   0.363  41.746   7.671
 1237POPC   C1B19771   0.494  41.772   8.700
 1237POPC   C2B19772   0.686  41.511   8.391
 1237POPC   C3B19773   0.703  41.768   8.028
 1237POPC   C4B19774   0.858  41.891   7.587
 1238POPC   NC319775  37.379  40.435   9.321
 1238POPC   PO419776  37.754  40.947   9.574
 1238POPC   GL119777  37.519  40.944   9.197
 1238POPC   GL219778  37.774  40.699   9.126
 1238POPC   C1A19779  37.414  40.836   8.764
 1238POPC   D2A19780  37.387  40.612   8.398
 1238POPC   C3A19781  37.453  40.733   7.975
 1238POPC   C4A19782  37.463  40.346   7.790
 1238POPC   C1B19783  37.918  40.614   8.775
 1238POPC   C2B19784  37.884  40.781   8.382
 1238POPC   C3B19785  37.936  40.570   8.006
 1238POPC   C4B19786  37.958  40.840   7.675
 1239POPC   NC319787  38.029   8.827   9.451
 1239POPC   PO419788  37.468   9.131   9.464
 1239POPC   GL119789  37.704   9.087   9.080
 1239POPC   GL219790  38.061   9.091   9.024
 1239POPC   C1A19791  37.756   9.179   8.637
 1239POPC   D2A19792  37.935   9.207   8.223
 1239POPC   C3A19793  37.624   9.066   7.911
 1239POPC   C4A19794  37.627   8.727   7.618
 1239POPC   C1B19795  38.095   8.761   8.657
 1239POPC   C2B19796  38.174   8.752   8.156
 1239POPC   C3B19797  38.097   8.939   7.719
 1239POPC   C4B19798  38.007   8.765   7.274
 1240POPC   NC319799  21.636  41.089   9.865
 1240POPC   PO419800  21.222  41.562   9.707
 1240POPC   GL119801  21.325  41.848   9.334
 1240POPC   GL219802  21.663  41.730   9.112
 1240POPC   C1A19803  21.259  41.993   8.908
 1240POPC   D2A19804  21.404  41.758   8.544
 1240POPC   C3A19805  21.458  41.836   8.102
 1240POPC   C4A19806  21.231  41.619   7.799
 1240POPC   C1B19807  21.809  41.434   8.738
 1240POPC   C2B19808  21.611  41.307   8.372
 1240POPC   C3B19809  21.617  41.300   7.950
 1240POPC   C4B19810  21.723  41.570   7.651
 1241POPC   NC319811   3.734  33.044   9.428
 1241POPC   PO419812   3.097  33.183   9.400
 1241POPC   GL119813   3.385  33.043   9.062
 1241POPC   GL219814   3.704  33.231   8.963
 1241POPC   C1A19815   3.434  32.908   8.660
 1241POPC   D2A19816   3.137  33.012   8.354
 1241POPC   C3A19817   3.411  32.931   8.017
 1241POPC   C4A19818   3.399  33.039   7.606
 1241POPC   C1B19819   3.949  32.918   8.705
 1241POPC   C2B19820   3.945  32.867   8.275
 1241POPC   C3B19821   3.922  33.155   7.994
 1241POPC   C4B19822   3.874  33.191   7.579
 1242POPC   NC319823   3.143  41.559   9.466
 1242POPC   PO419824   3.830  41.650   9.545
 1242POPC   GL119825   3.897  41.494   9.152
 1242POPC   GL219826   3.531  41.526   9.123
 1242POPC   C1A19827   3.803  41.421   8.699
 1242POPC   D2A19828   3.574  41.532   8.303
 1242POPC   C3A19829   3.834  41.399   7.970
 1242POPC   C4A19830   3.834  41.525   7.542
 1242POPC   C1B19831   3.312  41.567   8.743
 1242POPC   C2B19832   3.026  41.745   8.470
 1242POPC   C3B19833   3.078  41.490   8.128
 1242POPC   C4B19834   3.338  41.540   7.793
 1243POPC   NC319835   5.894  13.805   9.468
 1243POPC   PO419836   5.741  13.165   9.403
 1243POPC   GL119837   5.654  13.390   9.022
 1243POPC   GL219838   5.961  13.516   9.040
 1243POPC   C1A19839   5.610  13.816   8.831
 1243POPC   D2A19840   5.706  13.982   8.422
 1243POPC   C3A19841   5.790  13.783   8.046
 1243POPC   C4A19842   5.592  13.681   7.652
 1243POPC   C1B19843   6.118  13.725   8.697
 1243POPC   C2B19844   6.238  13.574   8.307
 1243POPC   C3B19845   6.342  13.760   7.939
 1243POPC   C4B19846   6.106  13.740   7.623
 1244POPC   NC319847   9.681  40.485   9.270
 1244POPC   PO419848   9.699  39.893   9.725
 1244POPC   GL119849   9.787  39.982   9.266
 1244POPC   GL219850  10.106  40.164   9.198
 1244POPC   C1A19851   9.767  40.042   8.786
 1244POPC   D2A19852   9.712  39.862   8.361
 1244POPC   C3A19853   9.557  40.108   8.021
 1244POPC   C4A19854   9.744  39.882   7.710
 1244POPC   C1B19855  10.276  40.197   8.772
 1244POPC   C2B19856  10.325  40.123   8.330
 1244POPC   C3B19857  10.112  40.173   7.906
 1244POPC   C4B19858  10.109  40.132   7.409
 1245POPC   NC319859  21.712  17.077   9.374
 1245POPC   PO419860  22.156  17.548   9.472
 1245POPC   GL119861  22.240  17.443   9.083
 1245POPC   GL219862  22.261  17.058   9.178
 1245POPC   C1A19863  22.094  17.643   8.687
 1245POPC   D2A19864  21.941  17.707   8.250
 1245POPC   C3A19865  22.019  17.567   7.837
 1245POPC   C4A19866  22.352  17.606   7.531
 1245POPC   C1B19867  22.058  17.092   8.775
 1245POPC   C2B19868  22.210  17.249   8.395
 1245POPC   C3B19869  22.023  17.099   8.036
 1245POPC   C4B19870  22.201  17.140   7.624
 1246POPC   NC319871  21.563   6.087   9.525
 1246POPC   PO419872  21.414   5.353   9.552
 1246POPC   GL119873  21.324   5.705   9.212
 1246POPC   GL219874  21.194   6.034   9.175
 1246POPC   C1A19875  21.071   5.744   8.783
 1246POPC   D2A19876  21.319   5.808   8.365
 1246POPC   C3A19877  21.353   5.630   7.945
 1246POPC   C4A19878  21.649   5.453   7.618
 1246POPC   C1B19879  21.508   5.971   8.816
 1246POPC   C2B19880  21.556   6.246   8.436
 1246POPC   C3B19881  21.613   6.140   8.012
 1246POPC   C4B19882  21.713   5.953   7.598
 1247POPC   NC319883  26.350  37.330   9.537
 1247POPC   PO419884  25.938  36.842   9.633
 1247POPC   GL119885  25.888  36.835   9.193
 1247POPC   GL219886  25.866  37.201   9.188
 1247POPC   C1A19887  25.826  36.651   8.775
 1247POPC   D2A19888  25.952  36.782   8.354
 1247POPC   C3A19889  25.704  36.658   8.007
 1247POPC   C4A19890  25.989  36.646   7.673
 1247POPC   C1B19891  25.786  37.152   8.742
 1247POPC   C2B19892  25.547  37.054   8.377
 1247POPC   C3B19893  25.747  37.156   7.981
 1247POPC   C4B19894  25.933  37.142   7.562
 1248POPC   NC319895  13.198  15.232   9.465
 1248POPC   PO419896  12.529  15.023   9.597
 1248POPC   GL119897  12.731  15.061   9.204
 1248POPC   GL219898  12.718  15.407   9.112
 1248POPC   C1A19899  12.898  15.055   8.785
 1248POPC   D2A19900  13.096  14.858   8.431
 1248POPC   C3A19901  13.056  15.067   8.033
 1248POPC   C4A19902  12.685  15.271   7.824
 1248POPC   C1B19903  12.921  15.562   8.703
 1248POPC   C2B19904  12.912  15.527   8.247
 1248POPC   C3B19905  13.088  15.561   7.837
 1248POPC   C4B19906  12.947  15.530   7.409
 1249POPC   NC319907  36.923  25.648   9.613
 1249POPC   PO419908  37.244  25.918   9.096
 1249POPC   GL119909  36.880  26.046   8.979
 1249POPC   GL219910  36.743  25.699   9.063
 1249POPC   C1A19911  36.924  26.166   8.545
 1249POPC   D2A19912  36.903  25.852   8.205
 1249POPC   C3A19913  37.092  26.014   7.844
 1249POPC   C4A19914  37.038  25.917   7.421
 1249POPC   C1B19915  36.556  25.822   8.628
 1249POPC   C2B19916  36.484  26.174   8.297
 1249POPC   C3B19917  36.639  26.270   7.914
 1249POPC   C4B19918  36.608  25.894   7.704
 1250POPC   NC319919  35.145  36.912   9.463
 1250POPC   PO419920  35.682  36.558   9.571
 1250POPC   GL119921  35.555  36.730   9.168
 1250POPC   GL219922  35.198  36.656   9.018
 1250POPC   C1A19923  35.632  36.866   8.749
 1250POPC   D2A19924  35.436  36.964   8.331
 1250POPC   C3A19925  35.506  36.717   7.952
 1250POPC   C4A19926  35.790  36.775   7.599
 1250POPC   C1B19927  35.163  37.084   8.783
 1250POPC   C2B19928  34.959  37.192   8.378
 1250POPC   C3B19929  35.047  36.979   7.974
 1250POPC   C4B19930  35.041  36.631   7.711
 1251POPC   NC319931  20.125   7.041   9.346
 1251POPC   PO419932  19.972   7.609   9.545
 1251POPC   GL119933  19.973   7.616   9.113
 1251POPC   GL219934  20.206   7.845   9.058
 1251POPC   C1A19935  19.837   7.343   8.779
 1251POPC   D2A19936  19.526   7.184   8.467
 1251POPC   C3A19937  19.711   7.155   8.051
 1251POPC   C4A19938  19.610   7.468   7.708
 1251POPC   C1B19939  20.316   7.647   8.684
 1251POPC   C2B19940  20.094   7.435   8.338
 1251POPC   C3B19941  20.082   7.553   7.914
 1251POPC   C4B19942  20.322   7.713   7.575
 1252POPC   NC319943  37.032  32.223   9.558
 1252POPC   PO419944  36.717  31.750   9.173
 1252POPC   GL119945  36.783  32.202   9.030
 1252POPC   GL219946  37.124  32.369   9.077
 1252POPC   C1A19947  36.608  32.386   8.632
 1252POPC   D2A19948  36.648  32.603   8.198
 1252POPC   C3A19949  36.723  32.363   7.808
 1252POPC   C4A19950  36.502  31.999   7.753
 1252POPC   C1B19951  37.206  32.007   8.785
 1252POPC   C2B19952  36.950  31.868   8.425
 1252POPC   C3B19953  36.968  31.953   7.999
 1252POPC   C4B19954  37.263  32.255   7.830
 1253POPC   NC319955  21.966  35.664   9.549
 1253POPC   PO419956  22.559  35.249   9.495
 1253POPC   GL119957  22.338  35.223   9.141
 1253POPC   GL219958  22.224  35.587   9.138
 1253POPC   C1A19959  22.277  34.999   8.749
 1253POPC   D2A19960  21.991  34.961   8.420
 1253POPC   C3A19961  21.991  35.226   8.072
 1253POPC   C4A19962  22.281  35.203   7.749
 1253POPC   C1B19963  22.001  35.416   8.810
 1253POPC   C2B19964  22.066  35.620   8.433
 1253POPC   C3B19965  21.927  35.742   8.061
 1253POPC   C4B19966  22.014  35.617   7.637
 1254POPC   NC319967  30.742   6.951   9.440
 1254POPC   PO419968  30.658   6.343   9.527
 1254POPC   GL119969  30.542   6.558   9.154
 1254POPC   GL219970  30.352   6.295   9.047
 1254POPC   C1A19971  30.717   6.660   8.733
 1254POPC   D2A19972  30.578   6.916   8.355
 1254POPC   C3A19973  30.691   6.725   7.932
 1254POPC   C4A19974  30.877   6.438   7.636
 1254POPC   C1B19975  30.268   6.444   8.664
 1254POPC   C2B19976  30.448   6.424   8.301
 1254POPC   C3B19977  30.505   6.239   7.931
 1254POPC   C4B19978  30.392   6.364   7.550
 1255POPC   NC319979   0.811  41.883   9.413
 1255POPC   PO419980   1.223  41.348   9.544
 1255POPC   GL119981   1.231  41.604   9.163
 1255POPC   GL219982   0.961  41.747   8.950
 1255POPC   C1A19983   1.344  41.425   8.768
 1255POPC   D2A19984   1.128  41.218   8.449
 1255POPC   C3A19985   1.144  41.522   8.136
 1255POPC   C4A19986   1.288  41.669   7.771
 1255POPC   C1B19987   1.352  41.939   8.750
 1255POPC   C2B19988   1.490  41.872   8.327
 1255POPC   C3B19989   1.550  42.076   7.940
 1255POPC   C4B19990   1.376  42.070   7.485
 1256POPC   NC319991  31.560  38.233   9.476
 1256POPC   PO419992  31.114  38.784   9.573
 1256POPC   GL119993  31.227  38.662   9.179
 1256POPC   GL219994  31.183  38.336   9.135
 1256POPC   C1A19995  31.265  38.665   8.726
 1256POPC   D2A19996  31.422  38.420   8.372
 1256POPC   C3A19997  31.178  38.474   7.992
 1256POPC   C4A19998  31.356  38.811   7.827
 1256POPC   C1B19999  31.576  38.295   8.852
 1256POPC   C2B20000  31.737  38.007   8.573
 1256POPC   C3B20001  31.878  38.137   8.192
 1256POPC   C4B20002  31.714  38.459   7.927
 1257POPC   NC320003  11.823  42.023   9.460
 1257POPC   PO420004  12.079  42.676   9.582
 1257POPC   GL120005  12.009  42.425   9.197
 1257POPC   GL220006  12.308  42.220   9.184
 1257POPC   C1A20007  12.060  42.276   8.752
 1257POPC   D2A20008  11.790  42.154   8.392
 1257POPC   C3A20009  11.874  42.390   8.024
 1257POPC   C4A20010  12.031  42.777   7.904
 1257POPC   C1B20011  12.470  41.992   8.779
 1257POPC   C2B20012  12.302  42.100   8.346
 1257POPC   C3B20013  12.321  42.113   7.930
 1257POPC   C4B20014  12.214  42.415   7.614
 1258POPC   NC320015   1.448   0.639   9.483
 1258POPC   PO420016   0.830   0.177   9.535
 1258POPC   GL120017   1.183   0.280   9.250
 1258POPC   GL220018   1.002   0.539   9.134
 1258POPC   C1A20019   1.427   0.435   8.843
 1258POPC   D2A20020   1.402   0.676   8.427
 1258POPC   C3A20021   1.320   0.518   8.021
 1258POPC   C4A20022   1.365   0.182   7.721
 1258POPC   C1B20023   0.969   0.699   8.732
 1258POPC   C2B20024   0.882   0.666   8.323
 1258POPC   C3B20025   0.622   0.569   8.012
 1258POPC   C4B20026   0.928   0.560   7.693
 1259POPC   NC320027   4.429  37.362   9.344
 1259POPC   PO420028   4.064  36.739   9.686
 1259POPC   GL120029   4.025  36.758   9.190
 1259POPC   GL220030   4.339  36.937   9.094
 1259POPC   C1A20031   3.978  36.980   8.761
 1259POPC   D2A20032   4.316  37.154   8.518
 1259POPC   C3A20033   4.333  37.019   8.086
 1259POPC   C4A20034   4.445  37.148   7.685
 1259POPC   C1B20035   4.418  36.616   8.810
 1259POPC   C2B20036   4.474  36.661   8.412
 1259POPC   C3B20037   4.662  36.585   8.029
 1259POPC   C4B20038   4.507  36.575   7.617
 1260POPC   NC320039  22.675  13.147   9.383
 1260POPC   PO420040  22.936  13.771   9.549
 1260POPC   GL120041  22.875  13.560   9.156
 1260POPC   GL220042  23.132  13.320   9.112
 1260POPC   C1A20043  22.695  13.439   8.762
 1260POPC   D2A20044  22.691  13.635   8.370
 1260POPC   C3A20045  22.525  13.464   8.042
 1260POPC   C4A20046  22.671  13.617   7.695
 1260POPC   C1B20047  23.206  13.552   8.741
 1260POPC   C2B20048  23.192  13.460   8.342
 1260POPC   C3B20049  23.099  13.524   7.946
 1260POPC   C4B20050  23.182  13.680   7.540
 1261POPC   NC320051  24.580  43.917   9.591
 1261POPC   PO420052  24.037  43.959   9.308
 1261POPC   GL120053  24.429  43.789   9.116
 1261POPC   GL220054  24.645  44.067   9.101
 1261POPC   C1A20055  24.651  43.708   8.708
 1261POPC   D2A20056  24.539  43.607   8.255
 1261POPC   C3A20057  24.718  43.863   7.878
 1261POPC   C4A20058  24.648  43.823   7.398
 1261POPC   C1B20059  24.391  44.147   8.756
 1261POPC   C2B20060  24.575  44.117   8.368
 1261POPC   C3B20061  24.454  44.282   8.003
 1261POPC   C4B20062  24.551  44.307   7.605
 1262POPC   NC320063  44.402   0.706   9.363
 1262POPC   PO420064  44.845   0.262   9.687
 1262POPC   GL120065  44.807   0.363   9.233
 1262POPC   GL220066  44.493   0.347   9.041
 1262POPC   C1A20067  44.817   0.686   8.868
 1262POPC   D2A20068  44.522   0.667   8.511
 1262POPC   C3A20069  44.722   0.599   8.125
 1262POPC   C4A20070  44.776   0.709   7.722
 1262POPC   C1B20071  44.765   0.187   8.731
 1262POPC   C2B20072  44.547   0.175   8.351
 1262POPC   C3B20073  44.315   0.077   7.990
 1262POPC   C4B20074  44.680   0.186   7.782
 1263POPC   NC320075  14.441  14.900   9.621
 1263POPC   PO420076  14.212  15.446   9.366
 1263POPC   GL120077  14.358  15.095   9.140
 1263POPC   GL220078  14.708  15.008   9.054
 1263POPC   C1A20079  14.246  14.991   8.728
 1263POPC   D2A20080  14.269  15.276   8.370
 1263POPC   C3A20081  14.515  15.146   8.055
 1263POPC   C4A20082  14.466  14.981   7.636
 1263POPC   C1B20083  14.640  15.361   8.775
 1263POPC   C2B20084  14.783  15.547   8.382
 1263POPC   C3B20085  14.656  15.609   7.936
 1263POPC   C4B20086  14.587  15.476   7.532
 1264POPC   NC320087  17.659  25.765   9.415
 1264POPC   PO420088  17.278  26.365   9.518
 1264POPC   GL120089  17.298  26.116   9.144
 1264POPC   GL220090  17.192  25.807   9.157
 1264POPC   C1A20091  17.543  26.038   8.769
 1264POPC   D2A20092  17.404  26.167   8.389
 1264POPC   C3A20093  17.573  26.172   7.984
 1264POPC   C4A20094  17.439  26.453   7.651
 1264POPC   C1B20095  17.327  25.558   8.825
 1264POPC   C2B20096  17.366  25.645   8.426
 1264POPC   C3B20097  17.175  25.833   8.092
 1264POPC   C4B20098  17.204  25.701   7.688
 1265POPC   NC320099  17.350   0.368   9.612
 1265POPC   PO420100  17.929   0.260   9.212
 1265POPC   GL120101  17.511   0.368   9.080
 1265POPC   GL220102  17.233   0.586   9.158
 1265POPC   C1A20103  17.536   0.584   8.705
 1265POPC   D2A20104  17.750   0.490   8.358
 1265POPC   C3A20105  17.778   0.631   7.948
 1265POPC   C4A20106  17.636   0.498   7.554
 1265POPC   C1B20107  17.050   0.651   8.768
 1265POPC   C2B20108  17.126   0.392   8.409
 1265POPC   C3B20109  17.343   0.394   8.010
 1265POPC   C4B20110  17.331   0.821   7.791
 1266POPC   NC320111  37.823  38.838   9.398
 1266POPC   PO420112  37.903  38.232   9.625
 1266POPC   GL120113  37.778  38.339   9.218
 1266POPC   GL220114  37.454  38.446   9.328
 1266POPC   C1A20115  37.862  38.515   8.791
 1266POPC   D2A20116  37.721  38.509   8.364
 1266POPC   C3A20117  37.954  38.442   7.996
 1266POPC   C4A20118  37.880  38.652   7.607
 1266POPC   C1B20119  37.363  38.356   8.913
 1266POPC   C2B20120  37.273  38.305   8.514
 1266POPC   C3B20121  37.392  38.177   8.120
 1266POPC   C4B20122  37.453  38.526   7.864
 1267POPC   NC320123   4.102  41.291   9.640
 1267POPC   PO420124   4.495  41.739   9.712
 1267POPC   GL120125   4.407  41.741   9.255
 1267POPC   GL220126   4.521  41.391   9.231
 1267POPC   C1A20127   4.215  41.721   8.809
 1267POPC   D2A20128   4.025  41.777   8.337
 1267POPC   C3A20129   4.239  41.730   7.884
 1267POPC   C4A20130   4.382  41.806   7.432
 1267POPC   C1B20131   4.522  41.209   8.819
 1267POPC   C2B20132   4.267  41.338   8.479
 1267POPC   C3B20133   4.300  41.274   8.099
 1267POPC   C4B20134   4.634  41.304   7.932
 1268POPC   NC320135  26.052  19.871   9.601
 1268POPC   PO420136  26.276  19.290   9.530
 1268POPC   GL120137  26.463  19.497   9.165
 1268POPC   GL220138  26.269  19.804   9.129
 1268POPC   C1A20139  26.308  19.485   8.714
 1268POPC   D2A20140  25.984  19.562   8.372
 1268POPC   C3A20141  26.143  19.649   7.951
 1268POPC   C4A20142  26.400  19.903   7.652
 1268POPC   C1B20143  26.062  19.941   8.748
 1268POPC   C2B20144  26.236  20.011   8.340
 1268POPC   C3B20145  26.077  20.180   7.945
 1268POPC   C4B20146  26.178  20.397   7.541
 1269POPC   NC320147  39.699  28.946   9.530
 1269POPC   PO420148  40.347  29.284   9.494
 1269POPC   GL120149  40.207  29.139   9.114
 1269POPC   GL220150  39.866  29.222   9.124
 1269POPC   C1A20151  40.174  29.302   8.697
 1269POPC   D2A20152  39.889  29.174   8.382
 1269POPC   C3A20153  40.037  29.117   7.978
 1269POPC   C4A20154  40.123  29.309   7.600
 1269POPC   C1B20155  39.619  29.077   8.804
 1269POPC   C2B20156  39.461  28.889   8.425
 1269POPC   C3B20157  39.544  28.999   8.016
 1269POPC   C4B20158  39.691  29.037   7.589
 1270POPC   NC320159  13.262  12.536   9.557
 1270POPC   PO420160  13.763  12.097   9.486
 1270POPC   GL120161  13.654  12.146   9.095
 1270POPC   GL220162  13.919  12.362   8.962
 1270POPC   C1A20163  13.355  11.984   8.789
 1270POPC   D2A20164  13.457  11.870   8.393
 1270POPC   C3A20165  13.506  12.093   8.037
 1270POPC   C4A20166  13.617  12.046   7.655
 1270POPC   C1B20167  13.611  12.406   8.648
 1270POPC   C2B20168  13.657  12.509   8.252
 1270POPC   C3B20169  13.931  12.404   7.896
 1270POPC   C4B20170  14.023  12.253   7.459
 1271POPC   NC320171  20.301  18.604   9.499
 1271POPC   PO420172  19.640  18.545   9.449
 1271POPC   GL120173  19.751  18.362   9.094
 1271POPC   GL220174  20.064  18.390   9.122
 1271POPC   C1A20175  19.564  18.206   8.732
 1271POPC   D2A20176  19.728  17.996   8.396
 1271POPC   C3A20177  19.575  18.222   8.082
 1271POPC   C4A20178  19.622  18.284   7.670
 1271POPC   C1B20179  20.072  18.241   8.713
 1271POPC   C2B20180  20.235  18.148   8.329
 1271POPC   C3B20181  20.082  18.145   7.937
 1271POPC   C4B20182  20.143  18.400   7.640
 1272POPC   NC320183  30.274  30.984   9.739
 1272POPC   PO420184  29.825  31.483   9.486
 1272POPC   GL120185  29.905  31.464   9.058
 1272POPC   GL220186  30.119  31.686   8.972
 1272POPC   C1A20187  30.004  31.256   8.663
 1272POPC   D2A20188  29.952  31.386   8.244
 1272POPC   C3A20189  30.220  31.185   7.962
 1272POPC   C4A20190  30.378  31.511   7.751
 1272POPC   C1B20191  29.813  31.752   8.608
 1272POPC   C2B20192  29.688  31.962   8.211
 1272POPC   C3B20193  29.699  31.931   7.726
 1272POPC   C4B20194  29.551  31.700   7.326
 1273POPC   NC320195  33.716  14.714   9.363
 1273POPC   PO420196  34.056  14.136   9.432
 1273POPC   GL120197  33.861  14.302   9.092
 1273POPC   GL220198  33.556  14.227   9.163
 1273POPC   C1A20199  33.687  14.553   8.737
 1273POPC   D2A20200  33.566  14.801   8.400
 1273POPC   C3A20201  33.671  14.579   8.058
 1273POPC   C4A20202  33.838  14.474   7.670
 1273POPC   C1B20203  33.597  14.052   8.738
 1273POPC   C2B20204  33.779  14.133   8.353
 1273POPC   C3B20205  33.596  14.090   7.922
 1273POPC   C4B20206  33.545  14.136   7.436
 1274POPC   NC320207  29.459  17.613   9.557
 1274POPC   PO420208  29.103  17.089   9.266
 1274POPC   GL120209  28.969  17.501   9.115
 1274POPC   GL220210  29.263  17.675   9.097
 1274POPC   C1A20211  28.990  17.567   8.658
 1274POPC   D2A20212  29.083  17.259   8.325
 1274POPC   C3A20213  28.871  17.308   7.906
 1274POPC   C4A20214  28.925  17.436   7.454
 1274POPC   C1B20215  29.420  17.878   8.746
 1274POPC   C2B20216  29.360  17.699   8.300
 1274POPC   C3B20217  29.261  17.647   7.863
 1274POPC   C4B20218  29.333  17.748   7.434
 1275POPC   NC320219  38.659  39.066   9.471
 1275POPC   PO420220  38.720  39.642   9.751
 1275POPC   GL120221  38.400  39.397   9.209
 1275POPC   GL220222  38.626  39.128   8.971
 1275POPC   C1A20223  38.433  39.566   8.779
 1275POPC   D2A20224  38.395  39.393   8.396
 1275POPC   C3A20225  38.531  39.587   8.048
 1275POPC   C4A20226  38.550  39.390   7.676
 1275POPC   C1B20227  38.242  39.071   8.761
 1275POPC   C2B20228  38.111  38.908   8.398
 1275POPC   C3B20229  38.258  39.082   8.008
 1275POPC   C4B20230  38.295  38.953   7.590
 1276POPC   NC320231   4.571  44.426   9.403
 1276POPC   PO420232   3.991  44.901   9.428
 1276POPC   GL120233   4.212  44.741   9.049
 1276POPC   GL220234   4.552  44.790   9.058
 1276POPC   C1A20235   4.380  44.689   8.596
 1276POPC   D2A20236   4.362  44.339   8.331
 1276POPC   C3A20237   4.557  44.322   7.935
 1276POPC   C4A20238   4.312  44.485   7.591
 1276POPC   C1B20239   4.761  44.424   8.793
 1276POPC   C2B20240   4.883  44.459   8.389
 1276POPC   C3B20241   4.699  44.766   8.135
 1276POPC   C4B20242   4.848  44.679   7.739
 1277POPC   NC320243  25.113  14.801   9.559
 1277POPC   PO420244  25.420  14.216   9.406
 1277POPC   GL120245  25.037  14.368   9.224
 1277POPC   GL220246  25.021  14.112   8.985
 1277POPC   C1A20247  24.955  14.610   8.857
 1277POPC   D2A20248  25.179  14.678   8.423
 1277POPC   C3A20249  25.106  14.510   8.036
 1277POPC   C4A20250  25.293  14.591   7.645
 1277POPC   C1B20251  25.330  14.298   8.745
 1277POPC   C2B20252  25.271  14.159   8.352
 1277POPC   C3B20253  25.380  14.068   7.946
 1277POPC   C4B20254  25.293  14.103   7.534
 1278POPC   NC320255  11.382  11.704   9.356
 1278POPC   PO420256  11.544  11.070   9.468
 1278POPC   GL120257  11.269  11.187   9.125
 1278POPC   GL220258  11.573  11.353   9.029
 1278POPC   C1A20259  11.090  11.198   8.684
 1278POPC   D2A20260  11.194  11.384   8.245
 1278POPC   C3A20261  10.928  11.229   7.895
 1278POPC   C4A20262  10.988  11.192   7.457
 1278POPC   C1B20263  11.529  11.488   8.637
 1278POPC   C2B20264  11.708  11.312   8.285
 1278POPC   C3B20265  11.781  11.465   7.908
 1278POPC   C4B20266  11.418  11.313   7.777
 1279POPC   NC320267  39.304   9.372  10.133
 1279POPC   PO420268  39.479   9.354   9.475
 1279POPC   GL120269  39.304   9.180   9.081
 1279POPC   GL220270  38.949   9.289   8.979
 1279POPC   C1A20271  39.465   8.883   8.750
 1279POPC   D2A20272  39.698   8.865   8.357
 1279POPC   C3A20273  39.496   9.037   8.038
 1279POPC   C4A20274  39.441   8.853   7.625
 1279POPC   C1B20275  38.968   8.915   8.729
 1279POPC   C2B20276  39.135   8.789   8.329
 1279POPC   C3B20277  39.035   8.849   7.912
 1279POPC   C4B20278  38.904   8.765   7.477
 1280POPC   NC320279   3.022   6.518   9.689
 1280POPC   PO420280   3.676   6.675   9.564
 1280POPC   GL120281   3.510   6.707   9.179
 1280POPC   GL220282   3.136   6.699   9.199
 1280POPC   C1A20283   3.710   6.677   8.788
 1280POPC   D2A20284   3.583   6.784   8.382
 1280POPC   C3A20285   3.628   6.492   8.060
 1280POPC   C4A20286   3.402   6.446   7.681
 1280POPC   C1B20287   3.196   6.867   8.763
 1280POPC   C2B20288   3.184   7.102   8.362
 1280POPC   C3B20289   3.305   6.900   7.958
 1280POPC   C4B20290   3.261   6.899   7.469
 1281POPC   NC320291  23.808  37.950   9.533
 1281POPC   PO420292  23.496  37.381   9.706
 1281POPC   GL120293  23.705  37.352   9.206
 1281POPC   GL220294  23.414  37.323   9.051
 1281POPC   C1A20295  23.949  37.598   8.866
 1281POPC   D2A20296  24.046  37.897   8.499
 1281POPC   C3A20297  24.114  37.763   8.059
 1281POPC   C4A20298  23.933  37.677   7.638
 1281POPC   C1B20299  23.462  37.555   8.699
 1281POPC   C2B20300  23.757  37.486   8.395
 1281POPC   C3B20301  23.644  37.534   8.015
 1281POPC   C4B20302  23.489  37.292   7.708
 1282POPC   NC320303  20.144   8.041   9.509
 1282POPC   PO420304  19.544   8.442   9.520
 1282POPC   GL120305  19.500   8.428   9.115
 1282POPC   GL220306  19.788   8.168   9.066
 1282POPC   C1A20307  19.662   8.519   8.721
 1282POPC   D2A20308  19.929   8.352   8.430
 1282POPC   C3A20309  19.712   8.281   8.077
 1282POPC   C4A20310  19.623   8.585   7.804
 1282POPC   C1B20311  19.876   7.907   8.666
 1282POPC   C2B20312  20.178   7.944   8.274
 1282POPC   C3B20313  20.125   8.095   7.852
 1282POPC   C4B20314  19.730   8.093   7.583
 1283POPC   NC320315  33.277  15.817   9.472
 1283POPC   PO420316  32.694  16.225   9.668
 1283POPC   GL120317  32.811  15.974   9.235
 1283POPC   GL220318  33.149  16.025   9.023
 1283POPC   C1A20319  32.850  15.656   8.878
 1283POPC   D2A20320  33.099  15.739   8.497
 1283POPC   C3A20321  32.895  15.700   8.076
 1283POPC   C4A20322  33.043  15.631   7.657
 1283POPC   C1B20323  32.788  16.126   8.717
 1283POPC   C2B20324  32.766  16.123   8.292
 1283POPC   C3B20325  32.978  16.177   7.903
 1283POPC   C4B20326  32.826  16.263   7.511
 1284POPC   NC320327  16.330  30.273   9.496
 1284POPC   PO420328  16.981  30.060   9.641
 1284POPC   GL120329  16.728  29.940   9.246
 1284POPC   GL220330  16.850  29.622   9.111
 1284POPC   C1A20331  16.629  29.971   8.778
 1284POPC   D2A20332  16.750  29.810   8.350
 1284POPC   C3A20333  16.981  29.969   7.973
 1284POPC   C4A20334  17.128  30.346   7.751
 1284POPC   C1B20335  17.117  29.496   8.741
 1284POPC   C2B20336  17.054  29.385   8.292
 1284POPC   C3B20337  16.757  29.501   7.942
 1284POPC   C4B20338  16.822  29.395   7.513
 1285POPC   NC320339  14.062   4.253   9.575
 1285POPC   PO420340  14.626   4.198   9.342
 1285POPC   GL120341  14.422   4.213   9.044
 1285POPC   GL220342  14.642   4.519   8.920
 1285POPC   C1A20343  14.472   4.140   8.619
 1285POPC   D2A20344  14.759   4.419   8.404
 1285POPC   C3A20345  14.661   4.374   7.973
 1285POPC   C4A20346  14.649   4.120   7.585
 1285POPC   C1B20347  14.254   4.583   8.778
 1285POPC   C2B20348  14.203   4.485   8.368
 1285POPC   C3B20349  14.214   4.663   8.006
 1285POPC   C4B20350  14.213   4.376   7.683
 1286POPC   NC320351  21.297  18.544   9.565
 1286POPC   PO420352  21.527  17.872   9.536
 1286POPC   GL120353  21.468  18.221   9.212
 1286POPC   GL220354  21.111  18.350   9.146
 1286POPC   C1A20355  21.451  18.409   8.780
 1286POPC   D2A20356  21.250  18.310   8.383
 1286POPC   C3A20357  21.551  18.357   8.071
 1286POPC   C4A20358  21.763  18.089   7.844
 1286POPC   C1B20359  20.951  18.584   8.798
 1286POPC   C2B20360  21.174  18.818   8.454
 1286POPC   C3B20361  21.169  18.679   8.019
 1286POPC   C4B20362  21.065  18.295   7.839
 1287POPC   NC320363  24.905   6.618   9.365
 1287POPC   PO420364  24.362   6.217   9.490
 1287POPC   GL120365  24.538   6.314   9.125
 1287POPC   GL220366  24.496   6.705   9.061
 1287POPC   C1A20367  24.575   6.356   8.706
 1287POPC   D2A20368  24.488   6.738   8.509
 1287POPC   C3A20369  24.598   6.643   8.118
 1287POPC   C4A20370  24.494   6.627   7.692
 1287POPC   C1B20371  24.717   7.065   8.817
 1287POPC   C2B20372  24.855   7.074   8.354
 1287POPC   C3B20373  24.793   7.048   7.879
 1287POPC   C4B20374  24.611   7.085   7.453
 1288POPC   NC320375  43.959  29.622   9.516
 1288POPC   PO420376  44.180  30.323   9.375
 1288POPC   GL120377  44.174  30.068   9.037
 1288POPC   GL220378  43.860  29.906   9.094
 1288POPC   C1A20379  44.042  29.946   8.613
 1288POPC   D2A20380  43.707  29.895   8.343
 1288POPC   C3A20381  43.978  29.940   7.981
 1288POPC   C4A20382  44.180  29.569   7.858
 1288POPC   C1B20383  43.668  30.214   8.818
 1288POPC   C2B20384  43.652  30.406   8.414
 1288POPC   C3B20385  43.548  30.253   8.011
 1288POPC   C4B20386  43.634  30.027   7.616
 1289POPC   NC320387  14.633  32.588   9.615
 1289POPC   PO420388  14.092  32.232   9.573
 1289POPC   GL120389  14.384  32.328   9.231
 1289POPC   GL220390  14.628  32.084   9.187
 1289POPC   C1A20391  14.396  32.414   8.785
 1289POPC   D2A20392  14.229  32.168   8.425
 1289POPC   C3A20393  14.367  32.280   8.013
 1289POPC   C4A20394  14.464  32.557   7.683
 1289POPC   C1B20395  14.577  31.935   8.730
 1289POPC   C2B20396  14.689  31.954   8.288
 1289POPC   C3B20397  14.543  31.822   7.881
 1289POPC   C4B20398  14.405  32.091   7.504
 1290POPC   NC320399  19.646   3.654   9.270
 1290POPC   PO420400  20.243   3.511   9.636
 1290POPC   GL120401  20.085   3.481   9.147
 1290POPC   GL220402  19.959   3.236   8.994
 1290POPC   C1A20403  20.051   3.697   8.713
 1290POPC   D2A20404  20.127   3.933   8.321
 1290POPC   C3A20405  19.945   3.750   7.978
 1290POPC   C4A20406  19.931   3.522   7.588
 1290POPC   C1B20407  19.649   3.311   8.673
 1290POPC   C2B20408  19.623   3.514   8.285
 1290POPC   C3B20409  19.464   3.504   7.864
 1290POPC   C4B20410  19.061   3.468   7.631
 1291POPC   NC320411  18.458  12.789   9.519
 1291POPC   PO420412  17.896  12.704   9.201
 1291POPC   GL120413  18.241  12.968   9.081
 1291POPC   GL220414  18.587  12.791   9.034
 1291POPC   C1A20415  18.435  13.186   8.774
 1291POPC   D2A20416  18.438  12.913   8.463
 1291POPC   C3A20417  18.493  12.954   8.026
 1291POPC   C4A20418  18.296  12.945   7.631
 1291POPC   C1B20419  18.679  12.522   8.682
 1291POPC   C2B20420  18.528  12.466   8.246
 1291POPC   C3B20421  18.204  12.509   7.918
 1291POPC   C4B20422  18.568  12.530   7.701
 1292POPC   NC320423  19.045   3.405   9.602
 1292POPC   PO420424  19.642   3.182   9.372
 1292POPC   GL120425  19.257   3.267   9.106
 1292POPC   GL220426  18.955   3.523   9.120
 1292POPC   C1A20427  19.088   3.278   8.676
 1292POPC   D2A20428  19.076   3.472   8.279
 1292POPC   C3A20429  19.229   3.836   8.181
 1292POPC   C4A20430  19.153   3.946   7.792
 1292POPC   C1B20431  18.766   3.715   8.760
 1292POPC   C2B20432  18.747   3.914   8.362
 1292POPC   C3B20433  18.741   3.746   7.972
 1292POPC   C4B20434  18.574   3.365   7.791
 1293POPC   NC320435  13.383  19.107   9.651
 1293POPC   PO420436  12.786  18.993   9.428
 1293POPC   GL120437  13.166  18.907   9.114
 1293POPC   GL220438  13.450  19.132   9.139
 1293POPC   C1A20439  13.366  18.736   8.711
 1293POPC   D2A20440  13.591  18.894   8.312
 1293POPC   C3A20441  13.407  19.092   7.926
 1293POPC   C4A20442  13.293  18.952   7.478
 1293POPC   C1B20443  13.729  19.146   8.777
 1293POPC   C2B20444  13.943  19.269   8.391
 1293POPC   C3B20445  13.890  19.256   7.945
 1293POPC   C4B20446  13.696  19.295   7.532
 1294POPC   NC320447   4.052  32.214   9.610
 1294POPC   PO420448   4.593  31.889   9.530
 1294POPC   GL120449   4.405  32.182   9.215
 1294POPC   GL220450   4.027  32.284   9.119
 1294POPC   C1A20451   4.398  32.254   8.776
 1294POPC   D2A20452   4.283  32.498   8.431
 1294POPC   C3A20453   4.525  32.340   8.095
 1294POPC   C4A20454   4.432  32.416   7.701
 1294POPC   C1B20455   3.971  31.937   8.851
 1294POPC   C2B20456   3.940  31.991   8.403
 1294POPC   C3B20457   4.006  32.292   8.041
 1294POPC   C4B20458   3.870  32.299   7.597
 1295POPC   NC320459  19.360   7.126   9.505
 1295POPC   PO420460  19.300   6.448   9.668
 1295POPC   GL120461  19.087   6.603   9.262
 1295POPC   GL220462  18.869   6.909   9.305
 1295POPC   C1A20463  19.150   6.499   8.801
 1295POPC   D2A20464  19.233   6.293   8.389
 1295POPC   C3A20465  19.042   6.427   8.050
 1295POPC   C4A20466  19.136   6.445   7.636
 1295POPC   C1B20467  18.700   6.845   8.868
 1295POPC   C2B20468  18.675   6.950   8.438
 1295POPC   C3B20469  18.684   6.775   8.043
 1295POPC   C4B20470  18.850   6.866   7.624
 1296POPC   NC320471  23.143   4.033   9.553
 1296POPC   PO420472  22.551   4.370   9.493
 1296POPC   GL120473  22.890   4.320   9.210
 1296POPC   GL220474  22.901   4.645   9.093
 1296POPC   C1A20475  23.227   4.331   8.869
 1296POPC   D2A20476  23.347   4.449   8.433
 1296POPC   C3A20477  23.054   4.385   8.102
 1296POPC   C4A20478  23.035   4.154   7.742
 1296POPC   C1B20479  22.724   4.393   8.727
 1296POPC   C2B20480  22.581   4.304   8.301
 1296POPC   C3B20481  22.597   4.415   7.839
 1296POPC   C4B20482  22.907   4.618   7.533
 1297POPC   NC320483   6.351  19.199   9.200
 1297POPC   PO420484   5.861  18.959   9.672
 1297POPC   GL120485   5.842  18.912   9.141
 1297POPC   GL220486   5.797  18.607   8.976
 1297POPC   C1A20487   5.683  19.100   8.717
 1297POPC   D2A20488   5.560  19.354   8.314
 1297POPC   C3A20489   5.857  19.402   7.967
 1297POPC   C4A20490   5.683  19.432   7.556
 1297POPC   C1B20491   5.795  18.613   8.547
 1297POPC   C2B20492   5.550  18.844   8.236
 1297POPC   C3B20493   5.586  19.006   7.833
 1297POPC   C4B20494   5.810  18.905   7.431
 1298POPC   NC320495  14.880  29.782   9.373
 1298POPC   PO420496  14.226  29.700   9.527
 1298POPC   GL120497  14.418  29.745   9.131
 1298POPC   GL220498  14.523  30.094   9.119
 1298POPC   C1A20499  14.648  29.623   8.764
 1298POPC   D2A20500  14.709  29.499   8.331
 1298POPC   C3A20501  14.383  29.713   8.119
 1298POPC   C4A20502  14.240  30.020   7.814
 1298POPC   C1B20503  14.614  30.136   8.665
 1298POPC   C2B20504  14.553  30.224   8.220
 1298POPC   C3B20505  14.633  30.406   7.804
 1298POPC   C4B20506  14.599  30.262   7.377
 1299POPC   NC320507  28.916  34.850   9.502
 1299POPC   PO420508  29.315  34.283   9.514
 1299POPC   GL120509  29.119  34.467   9.144
 1299POPC   GL220510  29.184  34.801   9.071
 1299POPC   C1A20511  29.195  34.481   8.700
 1299POPC   D2A20512  29.376  34.482   8.334
 1299POPC   C3A20513  29.163  34.606   7.993
 1299POPC   C4A20514  29.057  34.342   7.688
 1299POPC   C1B20515  29.400  34.968   8.714
 1299POPC   C2B20516  29.428  34.977   8.269
 1299POPC   C3B20517  29.359  35.048   7.828
 1299POPC   C4B20518  29.391  34.736   7.486
 1300POPC   NC320519  21.265  39.878   9.449
 1300POPC   PO420520  21.857  40.092   9.447
 1300POPC   GL120521  21.616  40.000   9.104
 1300POPC   GL220522  21.433  40.307   9.203
 1300POPC   C1A20523  21.465  39.978   8.688
 1300POPC   D2A20524  21.310  40.047   8.258
 1300POPC   C3A20525  21.362  39.865   7.844
 1300POPC   C4A20526  21.131  39.655   7.508
 1300POPC   C1B20527  21.660  40.441   8.849
 1300POPC   C2B20528  21.718  40.346   8.423
 1300POPC   C3B20529  21.650  40.309   7.982
 1300POPC   C4B20530  21.410  40.351   7.630
 1301POPC   NC320531  25.011  29.025   9.598
 1301POPC   PO420532  24.313  28.927   9.482
 1301POPC   GL120533  24.383  29.132   9.108
 1301POPC   GL220534  24.738  29.177   9.189
 1301POPC   C1A20535  24.313  29.087   8.683
 1301POPC   D2A20536  24.482  28.803   8.417
 1301POPC   C3A20537  24.614  28.935   8.016
 1301POPC   C4A20538  24.399  28.873   7.644
 1301POPC   C1B20539  24.839  29.011   8.790
 1301POPC   C2B20540  24.778  29.234   8.425
 1301POPC   C3B20541  24.685  29.444   8.043
 1301POPC   C4B20542  24.813  29.313   7.656
 1302POPC   NC320543  23.121  18.254   9.403
 1302POPC   PO420544  22.410  18.330   9.435
 1302POPC   GL120545  22.691  18.151   9.113
 1302POPC   GL220546  22.834  18.441   9.040
 1302POPC   C1A20547  22.968  18.057   8.709
 1302POPC   D2A20548  23.052  17.845   8.288
 1302POPC   C3A20549  22.999  18.094   7.894
 1302POPC   C4A20550  22.768  18.399   7.647
 1302POPC   C1B20551  23.009  18.572   8.664
 1302POPC   C2B20552  23.150  18.379   8.303
 1302POPC   C3B20553  23.268  18.526   7.896
 1302POPC   C4B20554  23.090  18.786   7.566
 1303POPC   NC320555  26.570  14.589   9.289
 1303POPC   PO420556  26.643  15.114   9.711
 1303POPC   GL120557  26.808  15.051   9.270
 1303POPC   GL220558  26.530  15.052   9.085
 1303POPC   C1A20559  26.982  15.046   8.811
 1303POPC   D2A20560  27.013  15.330   8.428
 1303POPC   C3A20561  27.153  15.194   7.985
 1303POPC   C4A20562  27.009  14.809   7.780
 1303POPC   C1B20563  26.468  14.957   8.679
 1303POPC   C2B20564  26.528  15.185   8.368
 1303POPC   C3B20565  26.692  15.395   8.039
 1303POPC   C4B20566  26.624  15.169   7.706
 1304POPC   NC320567  19.970  41.157   9.568
 1304POPC   PO420568  19.796  41.828   9.422
 1304POPC   GL120569  19.653  41.450   9.224
 1304POPC   GL220570  19.953  41.406   9.142
 1304POPC   C1A20571  19.564  41.308   8.811
 1304POPC   D2A20572  19.553  41.231   8.360
 1304POPC   C3A20573  19.656  41.630   8.084
 1304POPC   C4A20574  19.867  41.740   7.698
 1304POPC   C1B20575  20.094  41.365   8.798
 1304POPC   C2B20576  20.040  41.531   8.419
 1304POPC   C3B20577  20.068  41.338   8.042
 1304POPC   C4B20578  20.239  41.406   7.655
 1305POPC   NC320579  22.639  44.885   9.894
 1305POPC   PO420580  23.098  44.518   9.617
 1305POPC   GL120581  23.077  44.437   9.199
 1305POPC   GL220582  22.711  44.476   9.239
 1305POPC   C1A20583  23.136  44.593   8.755
 1305POPC   D2A20584  22.830  44.744   8.453
 1305POPC   C3A20585  22.941  44.856   8.048
 1305POPC   C4A20586  23.247  44.976   7.784
 1305POPC   C1B20587  22.666  44.331   8.830
 1305POPC   C2B20588  22.794  44.187   8.454
 1305POPC   C3B20589  22.683  44.324   8.064
 1305POPC   C4B20590  22.765  44.524   7.696
 1306POPC   NC320591  35.805  41.171   9.415
 1306POPC   PO420592  35.945  40.489   9.539
 1306POPC   GL120593  36.156  40.606   9.170
 1306POPC   GL220594  36.479  40.709   9.035
 1306POPC   C1A20595  36.141  40.448   8.756
 1306POPC   D2A20596  35.868  40.629   8.425
 1306POPC   C3A20597  35.887  40.530   7.990
 1306POPC   C4A20598  36.183  40.589   7.705
 1306POPC   C1B20599  36.106  40.955   8.824
 1306POPC   C2B20600  36.114  41.111   8.447
 1306POPC   C3B20601  36.202  41.026   8.031
 1306POPC   C4B20602  36.327  41.281   7.726
 1307POPC   NC320603  18.539   9.401   9.327
 1307POPC   PO420604  18.511  10.024   9.213
 1307POPC   GL120605  18.160   9.869   9.008
 1307POPC   GL220606  18.039   9.574   9.202
 1307POPC   C1A20607  18.398   9.799   8.618
 1307POPC   D2A20608  18.635   9.626   8.236
 1307POPC   C3A20609  18.324   9.743   7.895
 1307POPC   C4A20610  18.101   9.975   7.552
 1307POPC   C1B20611  18.104   9.398   8.767
 1307POPC   C2B20612  18.140   9.501   8.319
 1307POPC   C3B20613  17.901   9.479   7.959
 1307POPC   C4B20614  17.878   9.491   7.508
 1308POPC   NC320615  18.766  28.741   9.680
 1308POPC   PO420616  18.929  29.306   9.450
 1308POPC   GL120617  18.899  29.113   9.089
 1308POPC   GL220618  18.691  28.857   9.181
 1308POPC   C1A20619  19.091  29.139   8.682
 1308POPC   D2A20620  19.286  29.119   8.277
 1308POPC   C3A20621  19.089  29.334   7.943
 1308POPC   C4A20622  18.642  29.349   7.859
 1308POPC   C1B20623  18.801  28.712   8.786
 1308POPC   C2B20624  18.704  28.642   8.378
 1308POPC   C3B20625  18.755  28.870   8.014
 1308POPC   C4B20626  19.060  28.889   7.702
 1309POPC   NC320627   3.840   5.345   9.474
 1309POPC   PO420628   3.242   5.015   9.632
 1309POPC   GL120629   3.378   4.923   9.220
 1309POPC   GL220630   3.698   4.783   9.355
 1309POPC   C1A20631   3.323   5.109   8.787
 1309POPC   D2A20632   3.519   5.270   8.410
 1309POPC   C3A20633   3.317   5.238   8.034
 1309POPC   C4A20634   3.052   5.220   7.701
 1309POPC   C1B20635   3.770   4.885   8.913
 1309POPC   C2B20636   3.803   4.832   8.471
 1309POPC   C3B20637   3.916   5.076   8.110
 1309POPC   C4B20638   3.718   5.146   7.718
 1310POPC   NC320639   0.776  35.803   9.436
 1310POPC   PO420640   0.259  36.301   9.463
 1310POPC   GL120641   0.339  36.328   9.053
 1310POPC   GL220642   0.429  35.972   9.059
 1310POPC   C1A20643   0.336  36.242   8.613
 1310POPC   D2A20644   0.135  35.888   8.387
 1310POPC   C3A20645   0.161  36.070   7.999
 1310POPC   C4A20646   0.453  36.403   8.037
 1310POPC   C1B20647   0.750  35.949   8.728
 1310POPC   C2B20648   0.648  35.980   8.295
 1310POPC   C3B20649   0.648  35.882   7.899
 1310POPC   C4B20650   0.299  35.624   7.773
 1311POPC   NC320651  17.782  30.865   9.521
 1311POPC   PO420652  18.479  30.741   9.719
 1311POPC   GL120653  18.327  30.616   9.290
 1311POPC   GL220654  18.171  30.893   9.199
 1311POPC   C1A20655  18.240  30.517   8.829
 1311POPC   D2A20656  18.238  30.274   8.451
 1311POPC   C3A20657  18.321  30.498   8.064
 1311POPC   C4A20658  18.401  30.287   7.687
 1311POPC   C1B20659  18.022  30.966   8.780
 1311POPC   C2B20660  18.029  30.746   8.407
 1311POPC   C3B20661  17.952  30.883   8.009
 1311POPC   C4B20662  18.144  30.813   7.639
 1312POPC   NC320663  44.084  35.431   9.443
 1312POPC   PO420664  43.478  35.084   9.346
 1312POPC   GL120665  43.786  35.212   9.070
 1312POPC   GL220666  43.877  35.575   8.991
 1312POPC   C1A20667  43.938  35.183   8.670
 1312POPC   D2A20668  43.952  35.561   8.382
 1312POPC   C3A20669  43.894  35.362   7.992
 1312POPC   C4A20670  43.632  35.385   7.604
 1312POPC   C1B20671  44.307  35.526   8.770
 1312POPC   C2B20672  44.443  35.509   8.314
 1312POPC   C3B20673  44.324  35.614   7.884
 1312POPC   C4B20674  44.141  35.351   7.533
 1313POPC   NC320675   0.293   0.256   9.425
 1313POPC   PO420676   0.334   0.903   9.255
 1313POPC   GL120677   0.480   0.702   8.934
 1313POPC   GL220678   0.239   0.398   8.941
 1313POPC   C1A20679   0.413   0.598   8.509
 1313POPC   D2A20680   0.114   0.320   8.344
 1313POPC   C3A20681   0.133   0.348   7.912
 1313POPC   C4A20682   0.219   0.585   7.539
 1313POPC   C1B20683   0.646   0.241   8.824
 1313POPC   C2B20684   0.630   0.106   8.423
 1313POPC   C3B20685   0.466  44.960   8.052
 1313POPC   C4B20686   0.543   0.196   7.669
 1314POPC   NC320687   9.351  13.386   9.412
 1314POPC   PO420688   9.924  13.720   9.456
 1314POPC   GL120689   9.775  13.501   9.127
 1314POPC   GL220690   9.532  13.773   9.068
 1314POPC   C1A20691   9.705  13.478   8.705
 1314POPC   D2A20692   9.621  13.662   8.324
 1314POPC   C3A20693   9.772  13.438   7.981
 1314POPC   C4A20694  10.029  13.463   7.624
 1314POPC   C1B20695   9.834  13.978   8.768
 1314POPC   C2B20696  10.068  13.921   8.384
 1314POPC   C3B20697   9.950  13.936   7.930
 1314POPC   C4B20698   9.643  13.788   7.624
 1315POPC   NC320699   7.747  36.823   9.970
 1315POPC   PO420700   7.240  36.978   9.529
 1315POPC   GL120701   7.400  36.972   9.114
 1315POPC   GL220702   7.638  36.736   9.062
 1315POPC   C1A20703   7.279  37.140   8.727
 1315POPC   D2A20704   7.174  36.989   8.314
 1315POPC   C3A20705   7.235  37.160   7.903
 1315POPC   C4A20706   7.042  36.876   7.594
 1315POPC   C1B20707   7.494  36.684   8.672
 1315POPC   C2B20708   7.555  36.634   8.291
 1315POPC   C3B20709   7.379  36.662   7.911
 1315POPC   C4B20710   7.543  36.910   7.582
 1316POPC   NC320711  32.748  40.152   9.364
 1316POPC   PO420712  33.411  40.179   9.611
 1316POPC   GL120713  33.324  40.008   9.214
 1316POPC   GL220714  33.071  39.792   9.138
 1316POPC   C1A20715  33.273  40.182   8.809
 1316POPC   D2A20716  33.054  40.263   8.426
 1316POPC   C3A20717  33.131  39.989   8.097
 1316POPC   C4A20718  33.308  40.181   7.769
 1316POPC   C1B20719  33.004  39.714   8.700
 1316POPC   C2B20720  32.712  39.884   8.392
 1316POPC   C3B20721  32.640  40.100   7.987
 1316POPC   C4B20722  32.862  39.857   7.656
 1317POPC   NC320723   3.504  14.120   9.404
 1317POPC   PO420724   3.803  14.707   9.617
 1317POPC   GL120725   3.737  14.692   9.188
 1317POPC   GL220726   3.772  14.362   9.037
 1317POPC   C1A20727   3.453  14.706   8.837
 1317POPC   D2A20728   3.126  14.567   8.534
 1317POPC   C3A20729   3.218  14.596   8.094
 1317POPC   C4A20730   3.613  14.730   7.957
 1317POPC   C1B20731   3.418  14.184   8.765
 1317POPC   C2B20732   3.334  14.116   8.344
 1317POPC   C3B20733   3.600  14.209   8.004
 1317POPC   C4B20734   3.887  13.930   7.776
 1318POPC   NC320735  36.546  28.498   9.550
 1318POPC   PO420736  36.012  28.149   9.704
 1318POPC   GL120737  36.062  28.235   9.243
 1318POPC   GL220738  36.395  28.377   9.101
 1318POPC   C1A20739  35.959  28.440   8.864
 1318POPC   D2A20740  36.265  28.655   8.625
 1318POPC   C3A20741  36.221  28.601   8.157
 1318POPC   C4A20742  35.986  28.447   7.762
 1318POPC   C1B20743  36.375  28.125   8.770
 1318POPC   C2B20744  36.219  28.037   8.373
 1318POPC   C3B20745  36.314  28.031   7.949
 1318POPC   C4B20746  36.540  28.369   7.823
 1319POPC   NC320747   1.335  19.514   9.493
 1319POPC   PO420748   1.308  20.166   9.517
 1319POPC   GL120749   1.099  20.073   9.121
 1319POPC   GL220750   1.068  19.706   9.119
 1319POPC   C1A20751   1.286  19.945   8.706
 1319POPC   D2A20752   1.548  19.990   8.334
 1319POPC   C3A20753   1.331  19.876   7.984
 1319POPC   C4A20754   1.321  19.926   7.578
 1319POPC   C1B20755   1.001  19.501   8.744
 1319POPC   C2B20756   1.023  19.678   8.351
 1319POPC   C3B20757   0.835  19.654   7.977
 1319POPC   C4B20758   0.906  19.655   7.571
 1320POPC   NC320759  13.936  28.608   9.386
 1320POPC   PO420760  13.444  28.160   9.579
 1320POPC   GL120761  13.449  28.359   9.176
 1320POPC   GL220762  13.654  28.136   9.056
 1320POPC   C1A20763  13.602  28.496   8.727
 1320POPC   D2A20764  13.803  28.305   8.351
 1320POPC   C3A20765  13.642  28.492   7.962
 1320POPC   C4A20766  13.685  28.642   7.526
 1320POPC   C1B20767  13.320  28.032   8.775
 1320POPC   C2B20768  13.286  28.261   8.400
 1320POPC   C3B20769  13.309  28.066   8.028
 1320POPC   C4B20770  13.734  27.986   7.950
 1321POPC   NC320771   1.465   1.622   9.666
 1321POPC   PO420772   1.243   1.076   9.390
 1321POPC   GL120773   1.365   1.444   9.154
 1321POPC   GL220774   1.085   1.641   9.035
 1321POPC   C1A20775   1.480   1.502   8.718
 1321POPC   D2A20776   1.315   1.261   8.368
 1321POPC   C3A20777   1.352   1.336   7.946
 1321POPC   C4A20778   1.413   0.937   7.716
 1321POPC   C1B20779   0.966   1.300   8.758
 1321POPC   C2B20780   0.804   1.197   8.337
 1321POPC   C3B20781   0.940   1.036   7.962
 1321POPC   C4B20782   0.939   1.337   7.643
 1322POPC   NC320783   1.055  29.036   9.553
 1322POPC   PO420784   1.184  29.641   9.505
 1322POPC   GL120785   1.241  29.343   9.160
 1322POPC   GL220786   0.924  29.250   9.106
 1322POPC   C1A20787   1.267  29.039   8.784
 1322POPC   D2A20788   1.362  28.876   8.357
 1322POPC   C3A20789   1.337  29.136   8.004
 1322POPC   C4A20790   1.532  28.988   7.701
 1322POPC   C1B20791   0.780  29.290   8.716
 1322POPC   C2B20792   0.963  29.229   8.339
 1322POPC   C3B20793   0.865  28.992   7.976
 1322POPC   C4B20794   0.975  28.902   7.560
 1323POPC   NC320795   9.701   6.640   9.512
 1323POPC   PO420796   9.609   7.226   9.779
 1323POPC   GL120797   9.517   7.057   9.261
 1323POPC   GL220798   9.571   6.716   9.047
 1323POPC   C1A20799   9.545   7.120   8.751
 1323POPC   D2A20800   9.484   6.903   8.322
 1323POPC   C3A20801   9.814   6.884   7.948
 1323POPC   C4A20802   9.936   6.821   7.506
 1323POPC   C1B20803   9.797   6.573   8.670
 1323POPC   C2B20804   9.777   6.480   8.240
 1323POPC   C3B20805   9.646   6.354   7.818
 1323POPC   C4B20806   9.950   6.311   7.467
 1324POPC   NC320807  33.518  34.233   9.529
 1324POPC   PO420808  33.963  33.704   9.665
 1324POPC   GL120809  33.881  33.958   9.259
 1324POPC   GL220810  34.127  33.805   9.058
 1324POPC   C1A20811  33.954  34.231   8.855
 1324POPC   D2A20812  33.689  34.230   8.480
 1324POPC   C3A20813  33.822  34.136   8.054
 1324POPC   C4A20814  33.645  34.039   7.676
 1324POPC   C1B20815  33.728  33.771   8.800
 1324POPC   C2B20816  33.759  33.692   8.359
 1324POPC   C3B20817  33.596  33.607   7.960
 1324POPC   C4B20818  33.623  33.241   7.701
 1325POPC   NC320819  24.673  39.314   9.549
 1325POPC   PO420820  24.118  39.784   9.346
 1325POPC   GL120821  24.331  39.409   9.147
 1325POPC   GL220822  24.278  39.064   9.061
 1325POPC   C1A20823  24.640  39.331   8.805
 1325POPC   D2A20824  24.836  39.268   8.392
 1325POPC   C3A20825  24.557  39.142   8.066
 1325POPC   C4A20826  24.675  38.968   7.695
 1325POPC   C1B20827  24.184  38.776   8.732
 1325POPC   C2B20828  24.276  38.773   8.296
 1325POPC   C3B20829  24.210  38.791   7.854
 1325POPC   C4B20830  24.289  38.780   7.414
 1326POPC   NC320831  16.220  12.477   9.466
 1326POPC   PO420832  15.823  11.872   9.557
 1326POPC   GL120833  16.052  11.975   9.121
 1326POPC   GL220834  16.269  12.285   9.017
 1326POPC   C1A20835  15.861  12.114   8.695
 1326POPC   D2A20836  15.629  12.015   8.331
 1326POPC   C3A20837  15.768  12.137   7.893
 1326POPC   C4A20838  15.968  11.935   7.492
 1326POPC   C1B20839  16.365  12.179   8.639
 1326POPC   C2B20840  16.184  12.202   8.270
 1326POPC   C3B20841  15.950  12.531   8.166
 1326POPC   C4B20842  15.954  12.606   7.777
 1327POPC   NC320843  31.212   9.097   9.582
 1327POPC   PO420844  30.668   9.379   9.721
 1327POPC   GL120845  30.781   9.183   9.276
 1327POPC   GL220846  30.943   8.858   9.195
 1327POPC   C1A20847  30.693   9.148   8.802
 1327POPC   D2A20848  30.771   9.353   8.377
 1327POPC   C3A20849  30.684   9.106   8.000
 1327POPC   C4A20850  30.997   8.845   7.798
 1327POPC   C1B20851  31.192   9.113   8.882
 1327POPC   C2B20852  31.274   9.148   8.428
 1327POPC   C3B20853  31.165   9.301   8.014
 1327POPC   C4B20854  31.325   9.227   7.617
 1328POPC   NC320855  21.446   2.146   9.500
 1328POPC   PO420856  21.347   1.528   9.382
 1328POPC   GL120857  21.662   1.787   9.150
 1328POPC   GL220858  21.596   2.149   9.036
 1328POPC   C1A20859  21.609   1.767   8.710
 1328POPC   D2A20860  21.313   1.782   8.394
 1328POPC   C3A20861  21.571   1.830   8.045
 1328POPC   C4A20862  21.479   1.714   7.638
 1328POPC   C1B20863  21.241   2.114   8.784
 1328POPC   C2B20864  21.103   2.278   8.381
 1328POPC   C3B20865  21.224   2.240   7.924
 1328POPC   C4B20866  21.226   2.161   7.449
 1329POPC   NC320867   4.957  20.286   9.590
 1329POPC   PO420868   5.511  20.155   9.306
 1329POPC   GL120869   5.159  20.345   9.094
 1329POPC   GL220870   4.792  20.478   9.151
 1329POPC   C1A20871   5.144  20.330   8.658
 1329POPC   D2A20872   5.175  20.730   8.443
 1329POPC   C3A20873   5.017  20.882   8.064
 1329POPC   C4A20874   5.165  20.946   7.617
 1329POPC   C1B20875   4.585  20.351   8.798
 1329POPC   C2B20876   4.724  20.434   8.386
 1329POPC   C3B20877   5.082  20.326   8.131
 1329POPC   C4B20878   5.042  20.476   7.734
 1330POPC   NC320879  30.218  25.538   9.277
 1330POPC   PO420880  29.742  25.066   9.440
 1330POPC   GL120881  29.772  25.187   9.025
 1330POPC   GL220882  29.690  25.504   9.017
 1330POPC   C1A20883  29.520  25.234   8.624
 1330POPC   D2A20884  29.776  25.131   8.305
 1330POPC   C3A20885  29.815  25.252   7.901
 1330POPC   C4A20886  30.021  24.907   7.672
 1330POPC   C1B20887  29.955  25.506   8.651
 1330POPC   C2B20888  30.087  25.627   8.248
 1330POPC   C3B20889  30.336  25.552   7.918
 1330POPC   C4B20890  30.185  25.400   7.562
 1331POPC   NC320891  22.509  36.503   9.523
 1331POPC   PO420892  22.940  36.035   9.638
 1331POPC   GL120893  22.995  35.975   9.193
 1331POPC   GL220894  22.636  36.091   9.138
 1331POPC   C1A20895  22.932  35.869   8.727
 1331POPC   D2A20896  23.010  35.712   8.311
 1331POPC   C3A20897  22.858  36.018   8.031
 1331POPC   C4A20898  22.946  36.189   7.665
 1331POPC   C1B20899  22.364  35.945   8.800
 1331POPC   C2B20900  22.507  35.876   8.379
 1331POPC   C3B20901  22.396  35.848   7.924
 1331POPC   C4B20902  22.629  35.815   7.548
 1332POPC   NC320903  36.739  34.671   9.474
 1332POPC   PO420904  37.292  34.226   9.284
 1332POPC   GL120905  37.126  34.620   9.146
 1332POPC   GL220906  36.771  34.464   9.027
 1332POPC   C1A20907  36.937  34.879   8.820
 1332POPC   D2A20908  36.658  34.650   8.556
 1332POPC   C3A20909  36.884  34.526   8.215
 1332POPC   C4A20910  36.857  34.587   7.788
 1332POPC   C1B20911  37.078  34.384   8.700
 1332POPC   C2B20912  37.373  34.412   8.402
 1332POPC   C3B20913  37.254  34.228   8.015
 1332POPC   C4B20914  36.927  34.079   7.811
 1333POPC   NC320915  20.439  12.254   9.495
 1333POPC   PO420916  20.924  11.831   9.503
 1333POPC   GL120917  20.821  12.104   9.182
 1333POPC   GL220918  20.828  12.483   9.211
 1333POPC   C1A20919  20.819  11.973   8.792
 1333POPC   D2A20920  20.630  11.719   8.518
 1333POPC   C3A20921  20.747  11.825   8.115
 1333POPC   C4A20922  20.506  11.838   7.743
 1333POPC   C1B20923  20.544  12.400   8.846
 1333POPC   C2B20924  20.563  12.233   8.429
 1333POPC   C3B20925  20.515  12.305   7.998
 1333POPC   C4B20926  20.193  12.250   7.687
 1334POPC   NC320927   3.272   6.153   9.317
 1334POPC   PO420928   3.876   5.793   9.342
 1334POPC   GL120929   3.528   5.746   9.082
 1334POPC   GL220930   3.449   5.420   9.148
 1334POPC   C1A20931   3.297   5.809   8.694
 1334POPC   D2A20932   3.330   6.183   8.404
 1334POPC   C3A20933   3.414   6.024   7.991
 1334POPC   C4A20934   3.781   6.059   7.752
 1334POPC   C1B20935   3.796   5.410   8.810
 1334POPC   C2B20936   3.798   5.695   8.452
 1334POPC   C3B20937   3.751   5.583   8.030
 1334POPC   C4B20938   3.486   5.605   7.679
 1335POPC   NC320939  19.442  37.804   9.363
 1335POPC   PO420940  19.007  37.433   9.727
 1335POPC   GL120941  18.975  37.541   9.255
 1335POPC   GL220942  18.996  37.890   9.146
 1335POPC   C1A20943  18.778  37.522   8.822
 1335POPC   D2A20944  18.971  37.446   8.426
 1335POPC   C3A20945  18.818  37.628   8.058
 1335POPC   C4A20946  18.908  37.636   7.630
 1335POPC   C1B20947  19.225  37.762   8.749
 1335POPC   C2B20948  19.164  37.917   8.333
 1335POPC   C3B20949  19.290  37.819   7.930
 1335POPC   C4B20950  19.401  37.761   7.515
 1336POPC   NC320951  20.100  21.762   9.490
 1336POPC   PO420952  19.964  21.081   9.497
 1336POPC   GL120953  19.855  21.164   9.084
 1336POPC   GL220954  19.863  21.491   8.996
 1336POPC   C1A20955  19.809  21.139   8.638
 1336POPC   D2A20956  19.770  21.368   8.279
 1336POPC   C3A20957  20.013  21.235   7.971
 1336POPC   C4A20958  19.889  21.423   7.609
 1336POPC   C1B20959  20.038  21.650   8.589
 1336POPC   C2B20960  20.306  21.579   8.257
 1336POPC   C3B20961  20.301  21.630   7.807
 1336POPC   C4B20962  20.263  21.689   7.331
 1337POPC   NC320963  26.406  43.668   9.207
 1337POPC   PO420964  26.736  44.171   9.515
 1337POPC   GL120965  26.813  43.980   9.108
 1337POPC   GL220966  27.053  43.719   9.078
 1337POPC   C1A20967  26.627  44.091   8.696
 1337POPC   D2A20968  26.639  44.154   8.252
 1337POPC   C3A20969  26.871  43.822   8.100
 1337POPC   C4A20970  27.217  43.785   7.844
 1337POPC   C1B20971  26.859  43.612   8.680
 1337POPC   C2B20972  26.778  43.354   8.320
 1337POPC   C3B20973  26.520  43.454   7.983
 1337POPC   C4B20974  26.609  43.743   7.622
 1338POPC   NC320975  28.263  14.542   9.634
 1338POPC   PO420976  28.938  14.591   9.576
 1338POPC   GL120977  28.676  14.400   9.278
 1338POPC   GL220978  28.522  14.063   9.313
 1338POPC   C1A20979  28.421  14.435   8.909
 1338POPC   D2A20980  28.231  14.264   8.524
 1338POPC   C3A20981  28.253  14.518   8.172
 1338POPC   C4A20982  28.347  14.418   7.772
 1338POPC   C1B20983  28.751  14.045   8.910
 1338POPC   C2B20984  28.676  14.006   8.527
 1338POPC   C3B20985  28.603  14.108   8.132
 1338POPC   C4B20986  28.806  14.186   7.768
 1339POPC   NC320987  19.908  43.960   9.798
 1339POPC   PO420988  20.268  43.488   9.651
 1339POPC   GL120989  19.905  43.621   9.359
 1339POPC   GL220990  19.898  43.970   9.199
 1339POPC   C1A20991  19.696  43.614   8.932
 1339POPC   D2A20992  19.838  43.835   8.569
 1339POPC   C3A20993  19.917  43.577   8.222
 1339POPC   C4A20994  19.708  43.706   7.873
 1339POPC   C1B20995  20.182  44.108   8.834
 1339POPC   C2B20996  20.161  44.240   8.443
 1339POPC   C3B20997  19.902  44.102   8.121
 1339POPC   C4B20998  20.063  44.196   7.736
 1340POPC   NC320999  23.866  31.148   9.466
 1340POPC   PO421000  23.407  31.567   9.762
 1340POPC   GL121001  23.518  31.563   9.309
 1340POPC   GL221002  23.853  31.555   9.156
 1340POPC   C1A21003  23.400  31.692   8.893
 1340POPC   D2A21004  23.198  31.742   8.482
 1340POPC   C3A21005  23.484  31.632   8.165
 1340POPC   C4A21006  23.420  31.415   7.807
 1340POPC   C1B21007  23.862  31.505   8.722
 1340POPC   C2B21008  24.035  31.548   8.325
 1340POPC   C3B21009  23.893  31.397   7.951
 1340POPC   C4B21010  23.807  31.515   7.503
 1341POPC   NC321011   2.137  26.521   9.325
 1341POPC   PO421012   1.911  27.143   9.486
 1341POPC   GL121013   2.182  27.136   9.143
 1341POPC   GL221014   1.974  26.866   9.002
 1341POPC   C1A21015   2.289  27.075   8.689
 1341POPC   D2A21016   2.097  26.738   8.473
 1341POPC   C3A21017   2.273  26.846   8.097
 1341POPC   C4A21018   2.275  26.693   7.692
 1341POPC   C1B21019   1.706  26.573   8.801
 1341POPC   C2B21020   1.701  26.353   8.406
 1341POPC   C3B21021   1.912  26.482   8.011
 1341POPC   C4B21022   1.781  26.594   7.601
 1342POPC   NC321023  24.479  40.188   9.275
 1342POPC   PO421024  24.855  39.753   9.609
 1342POPC   GL121025  24.741  39.745   9.123
 1342POPC   GL221026  24.396  39.853   8.910
 1342POPC   C1A21027  24.838  39.809   8.658
 1342POPC   D2A21028  24.592  40.114   8.413
 1342POPC   C3A21029  24.676  40.158   7.976
 1342POPC   C4A21030  24.318  40.208   7.687
 1342POPC   C1B21031  24.325  39.651   8.519
 1342POPC   C2B21032  24.596  39.655   8.156
 1342POPC   C3B21033  24.623  39.706   7.717
 1342POPC   C4B21034  24.744  40.062   7.441
 1343POPC   NC321035  34.773  33.304   9.457
 1343POPC   PO421036  34.323  32.847   9.694
 1343POPC   GL121037  34.262  32.982   9.155
 1343POPC   GL221038  34.613  33.092   9.030
 1343POPC   C1A21039  34.294  32.928   8.687
 1343POPC   D2A21040  34.597  32.990   8.393
 1343POPC   C3A21041  34.428  32.905   8.012
 1343POPC   C4A21042  34.672  32.837   7.671
 1343POPC   C1B21043  34.949  33.352   8.816
 1343POPC   C2B21044  34.925  33.398   8.386
 1343POPC   C3B21045  34.659  33.363   8.009
 1343POPC   C4B21046  34.834  33.414   7.606
 1344POPC   NC321047  19.640  38.534   9.320
 1344POPC   PO421048  20.200  38.591   9.603
 1344POPC   GL121049  20.140  38.413   9.153
 1344POPC   GL221050  19.911  38.151   9.122
 1344POPC   C1A21051  20.031  38.332   8.665
 1344POPC   D2A21052  19.781  38.612   8.370
 1344POPC   C3A21053  19.851  38.645   7.900
 1344POPC   C4A21054  19.554  38.571   7.575
 1344POPC   C1B21055  19.583  38.128   8.811
 1344POPC   C2B21056  19.645  38.042   8.398
 1344POPC   C3B21057  19.592  38.225   8.008
 1344POPC   C4B21058  19.794  38.114   7.625
 1345POPC   NC321059  36.613  39.990   9.390
 1345POPC   PO421060  37.119  39.592   9.455
 1345POPC   GL121061  36.971  39.693   9.039
 1345POPC   GL221062  36.640  39.625   9.046
 1345POPC   C1A21063  37.024  39.902   8.613
 1345POPC   D2A21064  37.181  39.862   8.141
 1345POPC   C3A21065  37.030  40.077   7.742
 1345POPC   C4A21066  37.232  40.239   7.343
 1345POPC   C1B21067  36.510  40.002   8.760
 1345POPC   C2B21068  36.616  40.163   8.368
 1345POPC   C3B21069  36.676  39.875   8.062
 1345POPC   C4B21070  36.674  39.711   7.672
 1346POPC   NC321071   0.479  18.753   9.372
 1346POPC   PO421072   0.594  18.124   9.546
 1346POPC   GL121073   0.491  18.214   9.163
 1346POPC   GL221074   0.792  18.042   9.078
 1346POPC   C1A21075   0.319  18.382   8.794
 1346POPC   D2A21076   0.525  18.378   8.405
 1346POPC   C3A21077   0.370  18.429   8.020
 1346POPC   C4A21078   0.166  18.348   7.671
 1346POPC   C1B21079   0.669  17.963   8.708
 1346POPC   C2B21080   0.953  18.105   8.426
 1346POPC   C3B21081   0.820  18.170   8.028
 1346POPC   C4B21082   0.544  18.017   7.737
 1347POPC   NC321083   0.664  25.156   9.553
 1347POPC   PO421084   0.068  25.537   9.630
 1347POPC   GL121085   0.262  25.334   9.250
 1347POPC   GL221086   0.308  24.946   9.225
 1347POPC   C1A21087   0.394  25.291   8.821
 1347POPC   D2A21088   0.170  25.299   8.472
 1347POPC   C3A21089   0.414  25.371   8.116
 1347POPC   C4A21090   0.381  25.572   7.712
 1347POPC   C1B21091   0.074  24.880   8.831
 1347POPC   C2B21092  44.974  24.825   8.391
 1347POPC   C3B21093  44.959  25.111   8.044
 1347POPC   C4B21094   0.017  25.012   7.607
 1348POPC   NC321095  21.720  19.150   9.600
 1348POPC   PO421096  21.142  18.977   9.646
 1348POPC   GL121097  21.129  18.887   9.236
 1348POPC   GL221098  21.458  18.897   9.198
 1348POPC   C1A21099  21.040  19.078   8.876
 1348POPC   D2A21100  20.999  19.358   8.507
 1348POPC   C3A21101  21.135  19.197   8.099
 1348POPC   C4A21102  20.963  19.033   7.739
 1348POPC   C1B21103  21.649  18.886   8.828
 1348POPC   C2B21104  21.837  18.995   8.467
 1348POPC   C3B21105  21.611  18.952   8.120
 1348POPC   C4B21106  21.471  19.019   7.724
 1349POPC   NC321107  26.080   0.931   9.383
 1349POPC   PO421108  25.872   1.497   9.692
 1349POPC   GL121109  25.774   1.413   9.211
 1349POPC   GL221110  25.938   1.612   8.990
 1349POPC   C1A21111  25.833   1.176   8.787
 1349POPC   D2A21112  25.988   0.856   8.495
 1349POPC   C3A21113  26.048   0.879   8.063
 1349POPC   C4A21114  25.878   1.146   7.781
 1349POPC   C1B21115  26.245   1.418   8.631
 1349POPC   C2B21116  26.039   1.332   8.288
 1349POPC   C3B21117  26.043   1.598   7.964
 1349POPC   C4B21118  26.431   1.396   7.840
 1350POPC   NC321119  43.532  34.598   9.417
 1350POPC   PO421120  44.102  34.698   9.595
 1350POPC   GL121121  43.977  34.738   9.173
 1350POPC   GL221122  44.261  34.973   9.102
 1350POPC   C1A21123  43.671  34.735   8.787
 1350POPC   D2A21124  43.549  34.406   8.441
 1350POPC   C3A21125  43.615  34.614   8.007
 1350POPC   C4A21126  43.840  34.914   7.735
 1350POPC   C1B21127  44.219  34.692   8.744
 1350POPC   C2B21128  43.982  34.651   8.394
 1350POPC   C3B21129  44.169  34.643   8.031
 1350POPC   C4B21130  44.329  34.652   7.652
 1351POPC   NC321131  32.648  43.970   9.353
 1351POPC   PO421132  32.122  43.741   9.779
 1351POPC   GL121133  32.127  43.805   9.336
 1351POPC   GL221134  32.229  43.486   9.225
 1351POPC   C1A21135  32.126  43.855   8.861
 1351POPC   D2A21136  32.096  43.989   8.398
 1351POPC   C3A21137  31.998  43.782   8.010
 1351POPC   C4A21138  31.900  44.012   7.626
 1351POPC   C1B21139  32.424  43.437   8.858
 1351POPC   C2B21140  32.200  43.480   8.499
 1351POPC   C3B21141  32.251  43.337   8.109
 1351POPC   C4B21142  32.305  43.491   7.713
 1352POPC   NC321143  10.543  37.656   9.782
 1352POPC   PO421144  10.351  37.149   9.457
 1352POPC   GL121145  10.545  37.538   9.217
 1352POPC   GL221146  10.289  37.733   9.054
 1352POPC   C1A21147  10.655  37.694   8.738
 1352POPC   D2A21148  10.415  37.507   8.382
 1352POPC   C3A21149  10.539  37.555   7.949
 1352POPC   C4A21150  10.876  37.625   7.674
 1352POPC   C1B21151  10.155  37.856   8.708
 1352POPC   C2B21152  10.349  38.006   8.368
 1352POPC   C3B21153  10.449  38.047   7.964
 1352POPC   C4B21154  10.508  37.948   7.530
 1353POPC   NC321155  15.645   3.537   9.562
 1353POPC   PO421156  16.315   3.806   9.604
 1353POPC   GL121157  16.051   3.676   9.228
 1353POPC   GL221158  15.699   3.730   9.090
 1353POPC   C1A21159  16.228   3.593   8.824
 1353POPC   D2A21160  16.205   3.736   8.389
 1353POPC   C3A21161  16.209   3.401   8.088
 1353POPC   C4A21162  15.961   3.383   7.714
 1353POPC   C1B21163  15.745   3.635   8.635
 1353POPC   C2B21164  15.729   3.581   8.185
 1353POPC   C3B21165  15.647   3.800   7.801
 1353POPC   C4B21166  15.594   3.825   7.340
 1354POPC   NC321167  12.538  12.742   9.613
 1354POPC   PO421168  12.983  13.189   9.439
 1354POPC   GL121169  12.997  12.910   9.098
 1354POPC   GL221170  12.865  12.605   9.214
 1354POPC   C1A21171  12.824  12.860   8.659
 1354POPC   D2A21172  12.590  12.976   8.254
 1354POPC   C3A21173  12.835  13.072   7.873
 1354POPC   C4A21174  12.909  13.134   7.402
 1354POPC   C1B21175  12.557  12.446   8.894
 1354POPC   C2B21176  12.645  12.425   8.444
 1354POPC   C3B21177  12.796  12.567   8.048
 1354POPC   C4B21178  12.749  12.532   7.609
 1355POPC   NC321179  16.360  16.189   9.218
 1355POPC   PO421180  16.961  16.159   9.569
 1355POPC   GL121181  16.883  16.132   9.159
 1355POPC   GL221182  17.194  16.358   9.104
 1355POPC   C1A21183  16.787  15.839   8.791
 1355POPC   D2A21184  16.783  15.596   8.389
 1355POPC   C3A21185  16.701  15.739   7.990
 1355POPC   C4A21186  16.688  16.074   7.728
 1355POPC   C1B21187  17.009  16.310   8.699
 1355POPC   C2B21188  16.867  16.103   8.346
 1355POPC   C3B21189  17.122  16.013   8.014
 1355POPC   C4B21190  17.130  16.348   7.777
 1356POPC   NC321191  42.814   5.157   9.520
 1356POPC   PO421192  43.449   4.906   9.626
 1356POPC   GL121193  43.233   4.852   9.198
 1356POPC   GL221194  43.163   5.186   9.141
 1356POPC   C1A21195  42.996   4.897   8.761
 1356POPC   D2A21196  42.820   4.980   8.338
 1356POPC   C3A21197  43.049   4.811   7.993
 1356POPC   C4A21198  43.126   5.115   7.673
 1356POPC   C1B21199  43.382   5.292   8.777
 1356POPC   C2B21200  43.308   5.220   8.353
 1356POPC   C3B21201  43.456   5.369   7.947
 1356POPC   C4B21202  43.601   5.316   7.518
 1357POPC   NC321203   9.437  41.431   9.483
 1357POPC   PO421204  10.144  41.393   9.626
 1357POPC   GL121205   9.941  41.456   9.233
 1357POPC   GL221206  10.034  41.188   9.086
 1357POPC   C1A21207   9.744  41.585   8.841
 1357POPC   D2A21208   9.861  41.508   8.399
 1357POPC   C3A21209   9.827  41.693   7.985
 1357POPC   C4A21210   9.489  41.690   7.706
 1357POPC   C1B21211  10.155  41.070   8.693
 1357POPC   C2B21212   9.979  41.021   8.334
 1357POPC   C3B21213  10.047  41.234   7.973
 1357POPC   C4B21214   9.876  41.348   7.576
 1358POPC   NC321215  44.615  26.700   9.600
 1358POPC   PO421216  44.511  27.178   9.189
 1358POPC   GL121217  44.774  26.864   9.102
 1358POPC   GL221218  44.723  26.533   9.136
 1358POPC   C1A21219  44.965  26.765   8.728
 1358POPC   D2A21220  44.932  27.074   8.421
 1358POPC   C3A21221  44.913  26.921   8.021
 1358POPC   C4A21222  44.759  26.959   7.632
 1358POPC   C1B21223  44.514  26.531   8.747
 1358POPC   C2B21224  44.592  26.687   8.343
 1358POPC   C3B21225  44.441  26.667   7.908
 1358POPC   C4B21226  44.762  26.457   7.651
 1359POPC   NC321227  28.971  15.035   9.453
 1359POPC   PO421228  28.295  15.017   9.621
 1359POPC   GL121229  28.515  15.245   9.285
 1359POPC   GL221230  28.586  14.904   9.158
 1359POPC   C1A21231  28.551  15.428   8.856
 1359POPC   D2A21232  28.525  15.545   8.413
 1359POPC   C3A21233  28.205  15.341   8.176
 1359POPC   C4A21234  28.220  15.325   7.744
 1359POPC   C1B21235  28.728  14.954   8.759
 1359POPC   C2B21236  28.605  15.039   8.351
 1359POPC   C3B21237  28.686  15.163   7.941
 1359POPC   C4B21238  28.539  14.896   7.613
 1360POPC   NC321239  15.410  17.276   9.689
 1360POPC   PO421240  14.897  17.531   9.750
 1360POPC   GL121241  15.219  17.572   9.333
 1360POPC   GL221242  15.302  17.252   9.161
 1360POPC   C1A21243  15.548  17.630   8.941
 1360POPC   D2A21244  15.590  17.786   8.484
 1360POPC   C3A21245  15.455  17.569   8.084
 1360POPC   C4A21246  15.117  17.623   7.774
 1360POPC   C1B21247  15.281  17.300   8.651
 1360POPC   C2B21248  14.967  17.435   8.283
 1360POPC   C3B21249  14.808  17.233   7.860
 1360POPC   C4B21250  14.863  17.362   7.401
 1361POPC   NC321251  21.633  38.840   9.435
 1361POPC   PO421252  21.533  39.521   9.643
 1361POPC   GL121253  21.611  39.342   9.244
 1361POPC   GL221254  21.316  39.114   9.121
 1361POPC   C1A21255  21.603  39.498   8.826
 1361POPC   D2A21256  21.307  39.537   8.473
 1361POPC   C3A21257  21.228  39.176   8.199
 1361POPC   C4A21258  21.405  39.299   7.803
 1361POPC   C1B21259  21.602  38.980   8.781
 1361POPC   C2B21260  21.738  39.085   8.350
 1361POPC   C3B21261  21.691  38.911   7.925
 1361POPC   C4B21262  21.626  38.900   7.461
 1362POPC   NC321263   5.491  20.588   9.451
 1362POPC   PO421264   6.191  20.449   9.581
 1362POPC   GL121265   6.241  20.375   9.159
 1362POPC   GL221266   5.880  20.470   9.135
 1362POPC   C1A21267   6.116  20.375   8.716
 1362POPC   D2A21268   6.036  20.156   8.368
 1362POPC   C3A21269   6.031  20.425   8.003
 1362POPC   C4A21270   5.888  20.750   7.698
 1362POPC   C1B21271   5.612  20.580   8.765
 1362POPC   C2B21272   5.591  20.453   8.321
 1362POPC   C3B21273   5.467  20.673   7.968
 1362POPC   C4B21274   5.546  21.124   7.892
 1363POPC   NC321275  39.515  32.961   9.510
 1363POPC   PO421276  39.097  33.420   9.684
 1363POPC   GL121277  39.151  33.296   9.224
 1363POPC   GL221278  39.490  33.250   9.116
 1363POPC   C1A21279  38.976  33.028   8.851
 1363POPC   D2A21280  39.135  32.735   8.510
 1363POPC   C3A21281  39.012  32.832   8.100
 1363POPC   C4A21282  38.707  33.132   7.886
 1363POPC   C1B21283  39.481  32.935   8.824
 1363POPC   C2B21284  39.454  33.099   8.385
 1363POPC   C3B21285  39.388  33.126   7.955
 1363POPC   C4B21286  39.522  33.082   7.540
 1364POPC   NC321287  10.630  11.734   9.414
 1364POPC   PO421288  10.790  11.030   9.387
 1364POPC   GL121289  10.726  11.305   9.054
 1364POPC   GL221290  10.945  11.558   9.007
 1364POPC   C1A21291  10.569  11.388   8.637
 1364POPC   D2A21292  10.262  11.162   8.357
 1364POPC   C3A21293  10.399  11.142   7.925
 1364POPC   C4A21294  10.134  10.995   7.596
 1364POPC   C1B21295  10.994  11.703   8.592
 1364POPC   C2B21296  10.772  11.648   8.206
 1364POPC   C3B21297  10.561  11.619   7.815
 1364POPC   C4B21298  10.130  11.525   7.695
 1365POPC   NC321299  34.684  14.744   9.613
 1365POPC   PO421300  34.124  15.119   9.601
 1365POPC   GL121301  34.473  15.222   9.309
 1365POPC   GL221302  34.702  14.998   9.176
 1365POPC   C1A21303  34.478  15.224   8.814
 1365POPC   D2A21304  34.527  14.970   8.444
 1365POPC   C3A21305  34.671  15.196   8.113
 1365POPC   C4A21306  34.388  15.234   7.778
 1365POPC   C1B21307  34.976  15.081   8.818
 1365POPC   C2B21308  35.170  15.255   8.415
 1365POPC   C3B21309  35.175  15.372   7.972
 1365POPC   C4B21310  34.892  15.251   7.631
 1366POPC   NC321311  21.549  30.335   9.526
 1366POPC   PO421312  21.540  30.971   9.366
 1366POPC   GL121313  21.297  30.924   9.052
 1366POPC   GL221314  21.091  30.713   9.219
 1366POPC   C1A21315  21.382  30.873   8.649
 1366POPC   D2A21316  21.602  30.668   8.355
 1366POPC   C3A21317  21.450  30.887   7.985
 1366POPC   C4A21318  21.462  30.669   7.607
 1366POPC   C1B21319  21.299  30.446   8.903
 1366POPC   C2B21320  21.133  30.446   8.475
 1366POPC   C3B21321  21.289  30.406   8.040
 1366POPC   C4B21322  21.205  30.209   7.679
 1367POPC   NC321323   8.283  20.365  10.032
 1367POPC   PO421324   7.877  20.470   9.488
 1367POPC   GL121325   8.106  20.516   9.134
 1367POPC   GL221326   8.425  20.682   9.060
 1367POPC   C1A21327   8.134  20.290   8.793
 1367POPC   D2A21328   8.108  20.505   8.432
 1367POPC   C3A21329   8.198  20.381   8.052
 1367POPC   C4A21330   8.045  20.523   7.682
 1367POPC   C1B21331   8.438  20.854   8.644
 1367POPC   C2B21332   8.481  20.768   8.206
 1367POPC   C3B21333   8.411  20.861   7.785
 1367POPC   C4B21334   8.425  20.728   7.367
 1368POPC   NC321335  40.975  23.305   9.501
 1368POPC   PO421336  40.421  22.803   9.525
 1368POPC   GL121337  40.698  23.002   9.174
 1368POPC   GL221338  41.044  22.894   9.128
 1368POPC   C1A21339  40.668  23.086   8.731
 1368POPC   D2A21340  40.813  22.875   8.344
 1368POPC   C3A21341  40.637  23.046   8.038
 1368POPC   C4A21342  40.533  22.951   7.677
 1368POPC   C1B21343  41.153  22.954   8.705
 1368POPC   C2B21344  41.309  22.669   8.393
 1368POPC   C3B21345  41.194  22.563   7.995
 1368POPC   C4B21346  41.040  22.874   7.764
 1369POPC   NC321347  35.351  30.202   9.331
 1369POPC   PO421348  35.492  29.532   9.485
 1369POPC   GL121349  35.352  29.688   9.128
 1369POPC   GL221350  34.998  29.634   9.180
 1369POPC   C1A21351  35.270  29.891   8.757
 1369POPC   D2A21352  35.378  30.218   8.474
 1369POPC   C3A21353  35.637  30.019   8.206
 1369POPC   C4A21354  35.464  29.837   7.842
 1369POPC   C1B21355  34.958  29.474   8.752
 1369POPC   C2B21356  35.144  29.365   8.338
 1369POPC   C3B21357  35.077  29.455   7.925
 1369POPC   C4B21358  35.187  29.558   7.519
 1370POPC   NC321359  13.229  16.795   9.548
 1370POPC   PO421360  13.946  16.975   9.466
 1370POPC   GL121361  13.771  16.742   9.140
 1370POPC   GL221362  13.413  16.814   9.082
 1370POPC   C1A21363  13.750  16.890   8.715
 1370POPC   D2A21364  13.531  16.826   8.321
 1370POPC   C3A21365  13.736  16.942   7.934
 1370POPC   C4A21366  13.776  16.582   7.644
 1370POPC   C1B21367  13.430  16.485   8.764
 1370POPC   C2B21368  13.348  16.322   8.348
 1370POPC   C3B21369  13.375  16.393   7.914
 1370POPC   C4B21370  13.290  16.771   7.741
 1371POPC   NC321371  44.232  14.201   9.449
 1371POPC   PO421372  44.707  14.657   9.507
 1371POPC   GL121373  44.623  14.431   9.139
 1371POPC   GL221374  44.674  14.090   9.209
 1371POPC   C1A21375  44.829  14.308   8.749
 1371POPC   D2A21376  44.917  14.547   8.343
 1371POPC   C3A21377  44.668  14.439   8.008
 1371POPC   C4A21378  44.492  14.323   7.613
 1371POPC   C1B21379  44.452  13.945   8.816
 1371POPC   C2B21380  44.438  13.791   8.363
 1371POPC   C3B21381  44.585  13.929   7.937
 1371POPC   C4B21382  44.976  14.109   7.767
 1372POPC   NC321383   7.702  13.390   9.474
 1372POPC   PO421384   8.014  13.977   9.530
 1372POPC   GL121385   8.098  13.885   9.140
 1372POPC   GL221386   8.102  13.550   9.145
 1372POPC   C1A21387   8.293  13.911   8.784
 1372POPC   D2A21388   8.052  13.903   8.436
 1372POPC   C3A21389   8.231  13.756   8.062
 1372POPC   C4A21390   8.070  13.813   7.665
 1372POPC   C1B21391   8.127  13.423   8.691
 1372POPC   C2B21392   8.301  13.285   8.290
 1372POPC   C3B21393   8.061  13.304   7.877
 1372POPC   C4B21394   8.248  13.372   7.458
 1373POPC   NC321395  12.747  27.227   9.530
 1373POPC   PO421396  13.195  26.700   9.503
 1373POPC   GL121397  12.921  26.868   9.159
 1373POPC   GL221398  13.144  27.133   9.117
 1373POPC   C1A21399  12.711  26.724   8.736
 1373POPC   D2A21400  12.531  26.882   8.320
 1373POPC   C3A21401  12.669  26.745   7.948
 1373POPC   C4A21402  12.805  26.668   7.558
 1373POPC   C1B21403  13.150  26.969   8.696
 1373POPC   C2B21404  13.045  26.882   8.276
 1373POPC   C3B21405  13.160  26.593   7.964
 1373POPC   C4B21406  13.367  26.596   7.578
 1374POPC   NC321407   8.808  28.553   9.593
 1374POPC   PO421408   9.280  28.156   9.705
 1374POPC   GL121409   9.011  28.181   9.291
 1374POPC   GL221410   9.064  28.488   9.175
 1374POPC   C1A21411   8.855  28.259   8.819
 1374POPC   D2A21412   9.030  28.172   8.436
 1374POPC   C3A21413   9.117  28.397   8.037
 1374POPC   C4A21414   8.991  28.258   7.616
 1374POPC   C1B21415   9.196  28.631   8.800
 1374POPC   C2B21416   8.911  28.684   8.462
 1374POPC   C3B21417   8.723  28.743   8.072
 1374POPC   C4B21418   8.842  28.732   7.651
 1375POPC   NC321419  12.557   7.194   9.487
 1375POPC   PO421420  13.238   7.544   9.434
 1375POPC   GL121421  12.893   7.430   9.160
 1375POPC   GL221422  12.803   7.109   9.032
 1375POPC   C1A21423  12.695   7.555   8.804
 1375POPC   D2A21424  12.774   7.330   8.443
 1375POPC   C3A21425  12.753   7.621   8.130
 1375POPC   C4A21426  13.038   7.596   7.812
 1375POPC   C1B21427  12.402   7.148   8.767
 1375POPC   C2B21428  12.365   7.071   8.297
 1375POPC   C3B21429  12.544   7.246   7.867
 1375POPC   C4B21430  12.476   7.213   7.375
 1376POPC   NC321431  36.901  37.171   9.563
 1376POPC   PO421432  37.259  36.663   9.523
 1376POPC   GL121433  37.072  36.900   9.144
 1376POPC   GL221434  37.234  37.212   9.146
 1376POPC   C1A21435  36.726  36.854   8.780
 1376POPC   D2A21436  36.525  36.731   8.343
 1376POPC   C3A21437  36.776  36.676   7.947
 1376POPC   C4A21438  37.066  36.945   7.698
 1376POPC   C1B21439  37.038  37.275   8.732
 1376POPC   C2B21440  37.024  37.241   8.278
 1376POPC   C3B21441  36.694  37.207   7.954
 1376POPC   C4B21442  36.573  37.244   7.500
 1377POPC   NC321443  19.456  27.692   9.351
 1377POPC   PO421444  18.838  27.478   9.430
 1377POPC   GL121445  19.170  27.375   9.092
 1377POPC   GL221446  19.133  27.751   8.967
 1377POPC   C1A21447  19.241  27.372   8.643
 1377POPC   D2A21448  19.074  27.746   8.441
 1377POPC   C3A21449  19.187  27.768   8.000
 1377POPC   C4A21450  19.435  27.353   7.932
 1377POPC   C1B21451  18.774  27.489   8.813
 1377POPC   C2B21452  18.689  27.352   8.471
 1377POPC   C3B21453  18.948  27.336   8.149
 1377POPC   C4B21454  18.814  27.428   7.756
 1378POPC   NC321455  35.792  44.916   9.617
 1378POPC   PO421456  36.352  44.586   9.705
 1378POPC   GL121457  36.331  44.589   9.262
 1378POPC   GL221458  35.962  44.592   9.184
 1378POPC   C1A21459  36.356  44.736   8.842
 1378POPC   D2A21460  36.176  44.731   8.431
 1378POPC   C3A21461  36.375  44.460   8.129
 1378POPC   C4A21462  36.391  44.761   7.809
 1378POPC   C1B21463  35.770  44.559   8.761
 1378POPC   C2B21464  35.792  44.411   8.321
 1378POPC   C3B21465  35.927  44.483   7.901
 1378POPC   C4B21466  35.608  44.562   7.614
 1379POPC   NC321467  37.307  22.046   9.429
 1379POPC   PO421468  37.994  21.908   9.570
 1379POPC   GL121469  37.936  22.173   9.191
 1379POPC   GL221470  37.688  22.477   9.137
 1379POPC   C1A21471  37.767  22.127   8.777
 1379POPC   D2A21472  37.738  22.404   8.447
 1379POPC   C3A21473  37.823  22.201   8.096
 1379POPC   C4A21474  37.870  22.353   7.703
 1379POPC   C1B21475  37.348  22.418   8.801
 1379POPC   C2B21476  37.233  22.272   8.370
 1379POPC   C3B21477  37.406  22.426   7.973
 1379POPC   C4B21478  37.413  22.566   7.546
 1380POPC   NC321479   3.242  38.616   9.376
 1380POPC   PO421480   3.801  38.835   9.595
 1380POPC   GL121481   3.734  38.470   9.277
 1380POPC   GL221482   3.709  38.729   9.073
 1380POPC   C1A21483   3.494  38.312   8.859
 1380POPC   D2A21484   3.134  38.322   8.554
 1380POPC   C3A21485   3.155  38.390   8.072
 1380POPC   C4A21486   3.335  38.471   7.652
 1380POPC   C1B21487   3.964  38.505   8.789
 1380POPC   C2B21488   3.715  38.562   8.438
 1380POPC   C3B21489   3.680  38.464   8.032
 1380POPC   C4B21490   3.757  38.772   7.717
 1381POPC   NC321491  30.390  43.432   9.572
 1381POPC   PO421492  31.020  43.777   9.746
 1381POPC   GL121493  30.957  43.658   9.199
 1381POPC   GL221494  30.645  43.560   9.138
 1381POPC   C1A21495  30.990  43.801   8.738
 1381POPC   D2A21496  30.801  44.018   8.373
 1381POPC   C3A21497  30.972  43.999   7.978
 1381POPC   C4A21498  30.707  43.746   7.712
 1381POPC   C1B21499  30.488  43.855   8.812
 1381POPC   C2B21500  30.240  43.843   8.472
 1381POPC   C3B21501  30.348  43.871   8.059
 1381POPC   C4B21502  30.205  43.716   7.642
 1382POPC   NC321503  40.569  28.464   9.425
 1382POPC   PO421504  39.839  28.472   9.461
 1382POPC   GL121505  40.090  28.349   9.103
 1382POPC   GL221506  40.313  28.622   9.023
 1382POPC   C1A21507  40.138  28.289   8.648
 1382POPC   D2A21508  40.349  28.106   8.268
 1382POPC   C3A21509  40.223  28.256   7.862
 1382POPC   C4A21510  39.788  28.170   7.744
 1382POPC   C1B21511  40.055  28.802   8.721
 1382POPC   C2B21512  39.895  28.646   8.337
 1382POPC   C3B21513  39.883  28.640   7.905
 1382POPC   C4B21514  40.154  28.768   7.603
 1383POPC   NC321515  16.441  17.645   9.613
 1383POPC   PO421516  15.867  17.296   9.645
 1383POPC   GL121517  15.820  17.235   9.209
 1383POPC   GL221518  16.030  17.520   9.127
 1383POPC   C1A21519  15.950  17.140   8.779
 1383POPC   D2A21520  15.756  17.300   8.407
 1383POPC   C3A21521  15.949  17.386   7.999
 1383POPC   C4A21522  15.981  17.120   7.663
 1383POPC   C1B21523  16.064  17.644   8.676
 1383POPC   C2B21524  16.053  17.823   8.248
 1383POPC   C3B21525  15.841  17.963   7.873
 1383POPC   C4B21526  15.817  18.118   7.425
 1384POPC   NC321527  33.128  38.212   9.444
 1384POPC   PO421528  32.700  38.832   9.490
 1384POPC   GL121529  32.805  38.509   9.209
 1384POPC   GL221530  32.534  38.300   9.171
 1384POPC   C1A21531  33.056  38.492   8.816
 1384POPC   D2A21532  33.265  38.728   8.479
 1384POPC   C3A21533  33.146  38.531   8.089
 1384POPC   C4A21534  33.032  38.756   7.711
 1384POPC   C1B21535  32.676  38.133   8.793
 1384POPC   C2B21536  32.898  38.178   8.418
 1384POPC   C3B21537  32.710  38.138   8.048
 1384POPC   C4B21538  32.796  38.278   7.650
 1385POPC   NC321539  30.567  33.689   9.554
 1385POPC   PO421540  30.889  34.357   9.579
 1385POPC   GL121541  30.784  34.052   9.204
 1385POPC   GL221542  30.414  33.995   9.178
 1385POPC   C1A21543  30.786  33.726   8.829
 1385POPC   D2A21544  31.008  33.654   8.399
 1385POPC   C3A21545  30.982  33.997   8.072
 1385POPC   C4A21546  30.821  34.032   7.599
 1385POPC   C1B21547  30.271  33.706   8.824
 1385POPC   C2B21548  30.081  33.740   8.408
 1385POPC   C3B21549  30.284  33.633   8.033
 1385POPC   C4B21550  30.375  33.740   7.613
 1386POPC   NC321551  42.237  44.616   9.510
 1386POPC   PO421552  42.872  44.924   9.539
 1386POPC   GL121553  42.654  44.741   9.204
 1386POPC   GL221554  42.379   0.026   9.217
 1386POPC   C1A21555  42.659  44.394   8.834
 1386POPC   D2A21556  42.840  44.329   8.377
 1386POPC   C3A21557  42.492  44.384   8.043
 1386POPC   C4A21558  42.018  44.378   7.914
 1386POPC   C1B21559  42.413  44.876   8.779
 1386POPC   C2B21560  42.255  44.635   8.428
 1386POPC   C3B21561  42.222  44.837   8.030
 1386POPC   C4B21562  42.514   0.017   7.753
 1387POPC   NC321563  41.264   0.637   9.446
 1387POPC   PO421564  40.540   0.604   9.576
 1387POPC   GL121565  40.797   0.475   9.191
 1387POPC   GL221566  40.826   0.102   9.065
 1387POPC   C1A21567  40.646   0.512   8.769
 1387POPC   D2A21568  40.520   0.756   8.407
 1387POPC   C3A21569  40.470   0.537   8.049
 1387POPC   C4A21570  40.588   0.676   7.661
 1387POPC   C1B21571  41.012   0.162   8.669
 1387POPC   C2B21572  40.969   0.476   8.339
 1387POPC   C3B21573  40.979   0.439   7.915
 1387POPC   C4B21574  41.163   0.104   7.709
 1388POPC   NC321575  12.523  42.716   9.429
 1388POPC   PO421576  12.982  42.247   9.631
 1388POPC   GL121577  12.964  42.439   9.269
 1388POPC   GL221578  12.810  42.170   9.134
 1388POPC   C1A21579  13.181  42.448   8.880
 1388POPC   D2A21580  13.122  42.277   8.475
 1388POPC   C3A21581  13.010  42.285   7.986
 1388POPC   C4A21582  12.708  42.215   7.593
 1388POPC   C1B21583  12.672  42.456   8.801
 1388POPC   C2B21584  12.679  42.467   8.354
 1388POPC   C3B21585  12.551  42.561   7.959
 1388POPC   C4B21586  12.612  42.746   7.580
 1389POPC   NC321587  16.511   9.992   9.410
 1389POPC   PO421588  17.180   9.780   9.515
 1389POPC   GL121589  16.901   9.737   9.155
 1389POPC   GL221590  16.643   9.498   9.108
 1389POPC   C1A21591  16.709   9.852   8.763
 1389POPC   D2A21592  16.819  10.153   8.456
 1389POPC   C3A21593  16.844  10.003   8.065
 1389POPC   C4A21594  16.632   9.823   7.725
 1389POPC   C1B21595  16.660   9.323   8.727
 1389POPC   C2B21596  16.425   9.244   8.388
 1389POPC   C3B21597  16.402   9.498   8.054
 1389POPC   C4B21598  16.451   9.353   7.652
 1390POPC   NC321599  22.427   2.292   9.564
 1390POPC   PO421600  22.060   1.737   9.535
 1390POPC   GL121601  22.186   1.908   9.160
 1390POPC   GL221602  22.069   2.253   9.185
 1390POPC   C1A21603  22.322   1.711   8.753
 1390POPC   D2A21604  22.637   1.596   8.441
 1390POPC   C3A21605  22.464   1.790   8.074
 1390POPC   C4A21606  22.062   1.703   7.882
 1390POPC   C1B21607  21.989   2.126   8.736
 1390POPC   C2B21608  22.077   2.050   8.304
 1390POPC   C3B21609  22.038   2.201   7.885
 1390POPC   C4B21610  21.673   2.196   7.687
 1391POPC   NC321611  43.605  27.321   9.988
 1391POPC   PO421612  43.830  27.608   9.445
 1391POPC   GL121613  43.652  27.626   9.086
 1391POPC   GL221614  43.690  27.862   8.867
 1391POPC   C1A21615  43.581  27.365   8.769
 1391POPC   D2A21616  43.677  27.567   8.410
 1391POPC   C3A21617  43.818  27.374   8.047
 1391POPC   C4A21618  43.771  27.237   7.638
 1391POPC   C1B21619  44.061  27.569   8.772
 1391POPC   C2B21620  44.254  27.538   8.364
 1391POPC   C3B21621  44.221  27.668   7.928
 1391POPC   C4B21622  43.845  27.821   7.753
 1392POPC   NC321623   4.481  27.546   9.431
 1392POPC   PO421624   3.928  27.359   9.653
 1392POPC   GL121625   3.990  27.627   9.223
 1392POPC   GL221626   4.058  28.009   9.189
 1392POPC   C1A21627   4.121  27.572   8.760
 1392POPC   D2A21628   3.978  27.364   8.346
 1392POPC   C3A21629   4.161  27.439   7.919
 1392POPC   C4A21630   4.409  27.386   7.518
 1392POPC   C1B21631   4.095  28.079   8.730
 1392POPC   C2B21632   4.039  27.863   8.325
 1392POPC   C3B21633   4.307  27.910   7.949
 1392POPC   C4B21634   4.212  27.847   7.513
 1393POPC   NC321635  31.967   9.753   9.578
 1393POPC   PO421636  32.627   9.545   9.601
 1393POPC   GL121637  32.533   9.696   9.203
 1393POPC   GL221638  32.276   9.955   9.218
 1393POPC   C1A21639  32.462   9.559   8.768
 1393POPC   D2A21640  32.202   9.547   8.404
 1393POPC   C3A21641  32.412   9.616   8.073
 1393POPC   C4A21642  32.331   9.445   7.701
 1393POPC   C1B21643  32.464  10.065   8.860
 1393POPC   C2B21644  32.346  10.051   8.464
 1393POPC   C3B21645  32.327  10.125   8.062
 1393POPC   C4B21646  32.342   9.942   7.666
 1394POPC   NC321647  39.093   6.008   9.615
 1394POPC   PO421648  39.585   5.560   9.398
 1394POPC   GL121649  39.301   5.900   9.134
 1394POPC   GL221650  38.956   5.965   9.134
 1394POPC   C1A21651  39.262   6.011   8.661
 1394POPC   D2A21652  39.242   5.610   8.374
 1394POPC   C3A21653  39.377   5.644   7.941
 1394POPC   C4A21654  39.309   6.020   7.612
 1394POPC   C1B21655  38.902   5.704   8.803
 1394POPC   C2B21656  38.769   5.825   8.411
 1394POPC   C3B21657  39.004   5.971   8.079
 1394POPC   C4B21658  38.820   5.944   7.696
 1395POPC   NC321659   1.266  42.706   9.750
 1395POPC   PO421660   1.239  42.097   9.419
 1395POPC   GL121661   1.126  42.249   9.082
 1395POPC   GL221662   0.776  42.356   9.200
 1395POPC   C1A21663   1.371  42.479   8.747
 1395POPC   D2A21664   1.235  42.351   8.410
 1395POPC   C3A21665   1.336  42.549   8.076
 1395POPC   C4A21666   1.549  42.522   7.726
 1395POPC   C1B21667   0.740  42.192   8.780
 1395POPC   C2B21668   0.939  41.950   8.441
 1395POPC   C3B21669   1.061  42.104   8.012
 1395POPC   C4B21670   1.042  42.379   7.659
 1396POPC   NC321671  29.676  43.740   9.420
 1396POPC   PO421672  30.405  43.889   9.463
 1396POPC   GL121673  30.139  43.705   9.166
 1396POPC   GL221674  29.998  44.045   9.139
 1396POPC   C1A21675  29.859  43.625   8.801
 1396POPC   D2A21676  29.681  43.786   8.411
 1396POPC   C3A21677  29.868  43.698   8.048
 1396POPC   C4A21678  29.683  43.653   7.656
 1396POPC   C1B21679  29.851  44.134   8.725
 1396POPC   C2B21680  29.982  44.255   8.309
 1396POPC   C3B21681  29.953  44.173   7.890
 1396POPC   C4B21682  30.053  44.174   7.469
 1397POPC   NC321683  33.565   7.024   9.641
 1397POPC   PO421684  33.878   6.453   9.729
 1397POPC   GL121685  33.972   6.489   9.294
 1397POPC   GL221686  33.891   6.828   9.234
 1397POPC   C1A21687  33.934   6.474   8.839
 1397POPC   D2A21688  33.701   6.683   8.509
 1397POPC   C3A21689  33.850   6.635   8.098
 1397POPC   C4A21690  33.696   6.662   7.673
 1397POPC   C1B21691  33.970   7.010   8.826
 1397POPC   C2B21692  33.840   7.199   8.445
 1397POPC   C3B21693  33.678   7.105   8.053
 1397POPC   C4B21694  33.959   7.095   7.733
 1398POPC   NC321695  13.326   4.455   9.665
 1398POPC   PO421696  14.023   4.709   9.478
 1398POPC   GL121697  13.899   4.460   9.127
 1398POPC   GL221698  13.562   4.443   9.197
 1398POPC   C1A21699  13.798   4.390   8.680
 1398POPC   D2A21700  13.728   4.624   8.304
 1398POPC   C3A21701  13.839   4.290   8.043
 1398POPC   C4A21702  13.761   4.137   7.646
 1398POPC   C1B21703  13.312   4.370   8.822
 1398POPC   C2B21704  13.389   4.211   8.371
 1398POPC   C3B21705  13.348   4.278   7.915
 1398POPC   C4B21706  13.401   4.451   7.468
 1399POPC   NC321707  18.357  31.704   9.337
 1399POPC   PO421708  18.342  32.372   9.523
 1399POPC   GL121709  18.134  32.220   9.198
 1399POPC   GL221710  17.889  31.922   9.294
 1399POPC   C1A21711  18.301  32.379   8.821
 1399POPC   D2A21712  18.479  32.416   8.393
 1399POPC   C3A21713  18.469  32.065   8.121
 1399POPC   C4A21714  18.562  32.229   7.747
 1399POPC   C1B21715  17.937  31.939   8.837
 1399POPC   C2B21716  18.075  32.116   8.460
 1399POPC   C3B21717  18.002  32.211   8.037
 1399POPC   C4B21718  18.078  32.081   7.577
 1400POPC   NC321719   8.032  12.286   9.595
 1400POPC   PO421720   8.394  11.659   9.558
 1400POPC   GL121721   8.361  12.037   9.217
 1400POPC   GL221722   8.275  12.403   9.166
 1400POPC   C1A21723   8.227  12.017   8.756
 1400POPC   D2A21724   8.059  11.761   8.372
 1400POPC   C3A21725   8.107  11.895   7.916
 1400POPC   C4A21726   8.464  12.056   7.658
 1400POPC   C1B21727   8.382  12.552   8.782
 1400POPC   C2B21728   8.229  12.543   8.363
 1400POPC   C3B21729   8.274  12.423   7.938
 1400POPC   C4B21730   8.289  12.493   7.478
 1401POPC   NC321731   9.840  26.032   9.645
 1401POPC   PO421732   9.576  25.553   9.550
 1401POPC   GL121733   9.884  25.696   9.223
 1401POPC   GL221734   9.816  26.041   9.119
 1401POPC   C1A21735   9.962  25.695   8.767
 1401POPC   D2A21736   9.916  26.046   8.512
 1401POPC   C3A21737   9.928  25.965   8.107
 1401POPC   C4A21738   9.684  26.202   7.783
 1401POPC   C1B21739   9.502  25.894   8.775
 1401POPC   C2B21740   9.541  25.710   8.318
 1401POPC   C3B21741   9.551  25.687   7.823
 1401POPC   C4B21742   9.656  25.576   7.364
 1402POPC   NC321743  42.474  35.843   9.452
 1402POPC   PO421744  42.013  36.339   9.355
 1402POPC   GL121745  42.377  36.243   9.093
 1402POPC   GL221746  42.167  36.294   8.807
 1402POPC   C1A21747  42.605  36.074   8.700
 1402POPC   D2A21748  42.351  36.052   8.309
 1402POPC   C3A21749  42.571  35.883   7.924
 1402POPC   C4A21750  42.480  36.048   7.489
 1402POPC   C1B21751  42.164  35.832   8.792
 1402POPC   C2B21752  41.993  35.689   8.453
 1402POPC   C3B21753  41.907  35.887   8.075
 1402POPC   C4B21754  42.080  35.847   7.690
 1403POPC   NC321755   8.777  19.072   9.509
 1403POPC   PO421756   8.655  18.537   9.212
 1403POPC   GL121757   8.927  18.794   9.004
 1403POPC   GL221758   9.090  19.131   9.106
 1403POPC   C1A21759   8.846  18.693   8.569
 1403POPC   D2A21760   8.708  18.979   8.270
 1403POPC   C3A21761   8.890  18.988   7.912
 1403POPC   C4A21762   8.792  18.937   7.493
 1403POPC   C1B21763   8.991  19.169   8.668
 1403POPC   C2B21764   9.060  19.378   8.313
 1403POPC   C3B21765   9.016  19.465   7.919
 1403POPC   C4B21766   9.282  19.229   7.691
 1404POPC   NC321767   7.972  29.334   9.537
 1404POPC   PO421768   8.472  28.874   9.522
 1404POPC   GL121769   8.219  28.882   9.142
 1404POPC   GL221770   8.196  29.227   9.085
 1404POPC   C1A21771   8.238  28.952   8.662
 1404POPC   D2A21772   8.130  29.283   8.401
 1404POPC   C3A21773   8.284  29.093   8.061
 1404POPC   C4A21774   8.414  29.005   7.674
 1404POPC   C1B21775   7.820  29.156   8.823
 1404POPC   C2B21776   7.715  28.941   8.418
 1404POPC   C3B21777   7.820  28.922   7.975
 1404POPC   C4B21778   7.927  29.239   7.679
 1405POPC   NC321779  21.844  42.595   9.561
 1405POPC   PO421780  22.367  42.548   9.349
 1405POPC   GL121781  22.062  42.520   9.093
 1405POPC   GL221782  22.139  42.179   9.030
 1405POPC   C1A21783  22.085  42.620   8.694
 1405POPC   D2A21784  22.013  42.351   8.360
 1405POPC   C3A21785  22.368  42.407   8.100
 1405POPC   C4A21786  22.415  42.601   7.706
 1405POPC   C1B21787  21.992  41.900   8.720
 1405POPC   C2B21788  21.942  41.755   8.311
 1405POPC   C3B21789  21.986  42.015   7.973
 1405POPC   C4B21790  21.718  42.076   7.711
 1406POPC   NC321791  26.482   3.740   9.511
 1406POPC   PO421792  27.099   3.423   9.552
 1406POPC   GL121793  26.851   3.503   9.192
 1406POPC   GL221794  26.982   3.818   9.213
 1406POPC   C1A21795  26.784   3.302   8.766
 1406POPC   D2A21796  27.044   3.164   8.402
 1406POPC   C3A21797  26.806   3.256   8.022
 1406POPC   C4A21798  26.405   3.346   7.811
 1406POPC   C1B21799  26.862   3.826   8.782
 1406POPC   C2B21800  26.684   3.666   8.395
 1406POPC   C3B21801  26.763   3.762   7.982
 1406POPC   C4B21802  26.629   3.765   7.584
 1407POPC   NC321803  23.279   5.673   9.493
 1407POPC   PO421804  22.739   6.129   9.577
 1407POPC   GL121805  22.905   5.962   9.248
 1407POPC   GL221806  23.190   6.128   9.204
 1407POPC   C1A21807  22.813   5.759   8.892
 1407POPC   D2A21808  22.912   5.856   8.486
 1407POPC   C3A21809  22.764   5.725   8.110
 1407POPC   C4A21810  22.662   5.864   7.711
 1407POPC   C1B21811  23.298   5.904   8.852
 1407POPC   C2B21812  23.423   5.920   8.445
 1407POPC   C3B21813  23.213   5.992   8.067
 1407POPC   C4B21814  23.164   5.689   7.759
 1408POPC   NC321815  31.221  41.700   9.459
 1408POPC   PO421816  31.841  41.300   9.467
 1408POPC   GL121817  31.543  41.423   9.182
 1408POPC   GL221818  31.652  41.748   9.148
 1408POPC   C1A21819  31.306  41.585   8.798
 1408POPC   D2A21820  31.227  41.344   8.398
 1408POPC   C3A21821  31.375  41.447   7.997
 1408POPC   C4A21822  31.172  41.468   7.586
 1408POPC   C1B21823  31.809  41.599   8.767
 1408POPC   C2B21824  31.621  41.713   8.383
 1408POPC   C3B21825  31.508  41.951   8.011
 1408POPC   C4B21826  31.483  41.870   7.556
 1409POPC   NC321827   9.066   9.747   9.578
 1409POPC   PO421828   8.401   9.906   9.508
 1409POPC   GL121829   8.730   9.798   9.172
 1409POPC   GL221830   8.984  10.029   9.153
 1409POPC   C1A21831   8.962   9.740   8.748
 1409POPC   D2A21832   9.076   9.983   8.399
 1409POPC   C3A21833   9.225   9.734   8.081
 1409POPC   C4A21834   9.046   9.562   7.753
 1409POPC   C1B21835   8.746  10.219   8.781
 1409POPC   C2B21836   8.571  10.195   8.335
 1409POPC   C3B21837   8.773   9.969   7.980
 1409POPC   C4B21838   8.661   9.818   7.567
 1410POPC   NC321839  14.821  43.134   9.471
 1410POPC   PO421840  14.243  42.984   9.715
 1410POPC   GL121841  14.373  42.978   9.237
 1410POPC   GL221842  14.213  43.234   9.113
 1410POPC   C1A21843  14.540  42.893   8.803
 1410POPC   D2A21844  14.707  43.069   8.418
 1410POPC   C3A21845  14.609  42.841   8.033
 1410POPC   C4A21846  14.432  42.772   7.614
 1410POPC   C1B21847  14.422  43.379   8.731
 1410POPC   C2B21848  14.308  43.344   8.294
 1410POPC   C3B21849  14.540  43.334   7.920
 1410POPC   C4B21850  14.429  43.273   7.504
 1411POPC   NC321851  22.573   8.889   9.563
 1411POPC   PO421852  23.156   8.506   9.613
 1411POPC   GL121853  23.006   8.684   9.212
 1411POPC   GL221854  22.824   8.966   9.144
 1411POPC   C1A21855  22.825   8.651   8.771
 1411POPC   D2A21856  22.967   8.874   8.438
 1411POPC   C3A21857  22.866   8.924   8.039
 1411POPC   C4A21858  22.955   8.707   7.653
 1411POPC   C1B21859  22.666   9.191   8.779
 1411POPC   C2B21860  22.876   9.402   8.433
 1411POPC   C3B21861  23.035   9.441   8.029
 1411POPC   C4B21862  22.916   9.291   7.650
 1412POPC   NC321863  11.919  13.903   9.591
 1412POPC   PO421864  11.684  13.290   9.283
 1412POPC   GL121865  11.926  13.645   9.157
 1412POPC   GL221866  11.681  13.816   9.110
 1412POPC   C1A21867  12.241  13.710   8.841
 1412POPC   D2A21868  12.490  13.402   8.603
 1412POPC   C3A21869  12.363  13.437   8.174
 1412POPC   C4A21870  12.198  13.243   7.818
 1412POPC   C1B21871  11.713  13.568   8.705
 1412POPC   C2B21872  11.853  13.686   8.320
 1412POPC   C3B21873  11.798  13.620   7.911
 1412POPC   C4B21874  12.145  13.747   7.672
 1413POPC   NC321875  42.439  22.505   9.479
 1413POPC   PO421876  42.146  21.945   9.510
 1413POPC   GL121877  42.017  22.182   9.163
 1413POPC   GL221878  41.873  22.524   9.261
 1413POPC   C1A21879  42.282  22.100   8.805
 1413POPC   D2A21880  42.613  22.096   8.479
 1413POPC   C3A21881  42.331  22.088   8.119
 1413POPC   C4A21882  42.286  22.283   7.738
 1413POPC   C1B21883  42.083  22.592   8.862
 1413POPC   C2B21884  42.304  22.492   8.458
 1413POPC   C3B21885  42.549  22.565   8.097
 1413POPC   C4B21886  42.520  22.759   7.704
 1414POPC   NC321887  25.045  13.895   9.438
 1414POPC   PO421888  25.549  13.474   9.389
 1414POPC   GL121889  25.419  13.754   9.096
 1414POPC   GL221890  25.106  13.601   9.002
 1414POPC   C1A21891  25.565  13.859   8.698
 1414POPC   D2A21892  25.530  13.725   8.283
 1414POPC   C3A21893  25.104  13.682   8.134
 1414POPC   C4A21894  25.100  13.660   7.700
 1414POPC   C1B21895  25.246  13.455   8.599
 1414POPC   C2B21896  25.370  13.248   8.178
 1414POPC   C3B21897  25.523  12.984   7.791
 1414POPC   C4B21898  25.409  13.179   7.342
 1415POPC   NC321899   8.380   1.793   9.355
 1415POPC   PO421900   7.994   2.339   9.592
 1415POPC   GL121901   7.956   2.140   9.172
 1415POPC   GL221902   7.864   1.785   9.198
 1415POPC   C1A21903   8.163   2.060   8.739
 1415POPC   D2A21904   8.254   1.977   8.281
 1415POPC   C3A21905   8.357   2.255   7.902
 1415POPC   C4A21906   8.366   2.181   7.416
 1415POPC   C1B21907   7.728   1.806   8.770
 1415POPC   C2B21908   7.690   1.808   8.338
 1415POPC   C3B21909   7.902   1.812   7.932
 1415POPC   C4B21910   7.936   2.134   7.661
 1416POPC   NC321911  27.323  35.358   9.552
 1416POPC   PO421912  27.970  35.547   9.447
 1416POPC   GL121913  27.691  35.327   9.151
 1416POPC   GL221914  27.430  35.064   9.169
 1416POPC   C1A21915  27.552  35.341   8.726
 1416POPC   D2A21916  27.437  35.602   8.371
 1416POPC   C3A21917  27.575  35.438   8.022
 1416POPC   C4A21918  27.646  35.585   7.636
 1416POPC   C1B21919  27.231  34.952   8.798
 1416POPC   C2B21920  27.229  35.108   8.408
 1416POPC   C3B21921  27.327  34.972   8.002
 1416POPC   C4B21922  27.727  34.958   7.844
 1417POPC   NC321923  36.145  27.777   9.467
 1417POPC   PO421924  36.525  27.252   9.519
 1417POPC   GL121925  36.351  27.454   9.132
 1417POPC   GL221926  35.960  27.439   9.097
 1417POPC   C1A21927  36.258  27.619   8.724
 1417POPC   D2A21928  36.061  27.523   8.331
 1417POPC   C3A21929  36.283  27.511   7.956
 1417POPC   C4A21930  36.187  27.653   7.550
 1417POPC   C1B21931  35.723  27.612   8.712
 1417POPC   C2B21932  35.557  27.557   8.269
 1417POPC   C3B21933  35.790  27.507   7.867
 1417POPC   C4B21934  35.687  27.727   7.467
 1418POPC   NC321935  24.702   3.273   9.492
 1418POPC   PO421936  24.347   3.850   9.609
 1418POPC   GL121937  24.420   3.663   9.190
 1418POPC   GL221938  24.362   3.309   9.115
 1418POPC   C1A21939  24.556   3.642   8.750
 1418POPC   D2A21940  24.879   3.564   8.435
 1418POPC   C3A21941  24.729   3.654   8.035
 1418POPC   C4A21942  24.727   3.423   7.703
 1418POPC   C1B21943  24.256   3.211   8.716
 1418POPC   C2B21944  24.460   3.253   8.327
 1418POPC   C3B21945  24.280   3.425   7.994
 1418POPC   C4B21946  24.210   3.804   7.745
 1419POPC   NC321947  41.427  30.516   9.541
 1419POPC   PO421948  42.034  30.738   9.339
 1419POPC   GL121949  41.639  30.832   9.191
 1419POPC   GL221950  41.658  30.499   9.077
 1419POPC   C1A21951  41.452  30.879   8.764
 1419POPC   D2A21952  41.678  31.045   8.379
 1419POPC   C3A21953  41.561  30.842   7.980
 1419POPC   C4A21954  41.329  30.810   7.565
 1419POPC   C1B21955  41.451  30.360   8.721
 1419POPC   C2B21956  41.418  30.249   8.320
 1419POPC   C3B21957  41.344  30.365   7.924
 1419POPC   C4B21958  41.704  30.400   7.746
 1420POPC   NC321959  41.106  44.034   9.541
 1420POPC   PO421960  40.614  43.667   9.490
 1420POPC   GL121961  40.762  43.872   9.143
 1420POPC   GL221962  41.106  43.756   9.126
 1420POPC   C1A21963  40.573  43.932   8.729
 1420POPC   D2A21964  40.540  44.034   8.273
 1420POPC   C3A21965  40.856  43.881   7.968
 1420POPC   C4A21966  41.071  44.161   7.668
 1420POPC   C1B21967  41.103  43.930   8.699
 1420POPC   C2B21968  41.271  43.898   8.296
 1420POPC   C3B21969  41.276  43.592   7.976
 1420POPC   C4B21970  41.037  43.555   7.573
 1421POPC   NC321971  41.442  28.946   9.498
 1421POPC   PO421972  41.606  28.293   9.563
 1421POPC   GL121973  41.638  28.460   9.152
 1421POPC   GL221974  41.367  28.640   9.068
 1421POPC   C1A21975  41.657  28.243   8.750
 1421POPC   D2A21976  41.485  28.151   8.351
 1421POPC   C3A21977  41.775  28.171   8.022
 1421POPC   C4A21978  41.722  28.235   7.615
 1421POPC   C1B21979  41.594  28.748   8.671
 1421POPC   C2B21980  41.731  28.624   8.251
 1421POPC   C3B21981  41.573  28.683   7.827
 1421POPC   C4B21982  41.126  28.713   7.646
 1422POPC   NC321983  36.327  11.347   9.819
 1422POPC   PO421984  36.934  11.595   9.629
 1422POPC   GL121985  36.821  11.373   9.281
 1422POPC   GL221986  37.129  11.214   9.161
 1422POPC   C1A21987  36.798  11.380   8.822
 1422POPC   D2A21988  37.081  11.438   8.479
 1422POPC   C3A21989  36.919  11.286   8.105
 1422POPC   C4A21990  37.005  11.342   7.700
 1422POPC   C1B21991  37.082  10.974   8.749
 1422POPC   C2B21992  37.293  10.982   8.353
 1422POPC   C3B21993  37.223  10.891   7.926
 1422POPC   C4B21994  37.274  10.974   7.484
 1423POPC   NC321995  29.657  26.255   9.470
 1423POPC   PO421996  28.985  26.081   9.520
 1423POPC   GL121997  29.243  26.240   9.183
 1423POPC   GL221998  29.431  25.947   9.098
 1423POPC   C1A21999  29.172  26.253   8.745
 1423POPC   D2A22000  29.167  26.011   8.368
 1423POPC   C3A22001  29.177  26.217   7.997
 1423POPC   C4A22002  29.016  26.013   7.674
 1423POPC   C1B22003  29.555  25.830   8.658
 1423POPC   C2B22004  29.582  25.625   8.273
 1423POPC   C3B22005  29.354  25.704   7.913
 1423POPC   C4B22006  29.426  25.783   7.486
 1424POPC   NC322007  28.557  25.824   9.484
 1424POPC   PO422008  27.994  26.194   9.587
 1424POPC   GL122009  28.147  26.167   9.175
 1424POPC   GL222010  27.956  25.868   9.161
 1424POPC   C1A22011  28.297  26.368   8.769
 1424POPC   D2A22012  28.688  26.339   8.478
 1424POPC   C3A22013  28.635  26.194   8.041
 1424POPC   C4A22014  28.278  26.173   7.767
 1424POPC   C1B22015  28.232  25.795   8.815
 1424POPC   C2B22016  28.266  25.978   8.424
 1424POPC   C3B22017  28.287  25.773   8.074
 1424POPC   C4B22018  28.597  25.730   7.781
 1425POPC   NC322019  34.598  11.605   9.404
 1425POPC   PO422020  34.860  11.060   9.663
 1425POPC   GL122021  34.763  11.011   9.186
 1425POPC   GL222022  34.505  11.313   8.988
 1425POPC   C1A22023  34.650  10.901   8.760
 1425POPC   D2A22024  34.583  11.268   8.473
 1425POPC   C3A22025  34.443  11.114   8.121
 1425POPC   C4A22026  34.632  11.063   7.716
 1425POPC   C1B22027  34.593  11.709   8.763
 1425POPC   C2B22028  34.839  11.774   8.436
 1425POPC   C3B22029  34.672  11.698   8.057
 1425POPC   C4B22030  34.803  11.574   7.649
 1426POPC   NC322031  43.168  33.912   9.556
 1426POPC   PO422032  42.530  34.030   9.371
 1426POPC   GL122033  42.877  33.852   9.078
 1426POPC   GL222034  43.263  33.743   9.092
 1426POPC   C1A22035  43.013  33.919   8.635
 1426POPC   D2A22036  43.094  34.201   8.306
 1426POPC   C3A22037  43.048  33.961   7.950
 1426POPC   C4A22038  43.374  33.663   7.763
 1426POPC   C1B22039  43.490  33.966   8.757
 1426POPC   C2B22040  43.516  33.897   8.296
 1426POPC   C3B22041  43.517  34.131   7.898
 1426POPC   C4B22042  43.640  33.990   7.486
 1427POPC   NC322043   3.886  42.897   9.702
 1427POPC   PO422044   3.320  43.184   9.407
 1427POPC   GL122045   3.642  42.991   9.192
 1427POPC   GL222046   3.752  43.331   9.111
 1427POPC   C1A22047   3.721  42.979   8.745
 1427POPC   D2A22048   3.755  43.106   8.294
 1427POPC   C3A22049   3.578  42.807   7.972
 1427POPC   C4A22050   3.526  42.853   7.527
 1427POPC   C1B22051   3.765  43.496   8.669
 1427POPC   C2B22052   3.775  43.652   8.215
 1427POPC   C3B22053   3.648  43.420   7.813
 1427POPC   C4B22054   3.841  43.308   7.405
 1428POPC   NC322055  26.846   1.182   9.503
 1428POPC   PO422056  26.281   1.343   9.251
 1428POPC   GL122057  26.696   1.260   9.028
 1428POPC   GL222058  26.862   0.927   9.061
 1428POPC   C1A22059  26.941   1.173   8.633
 1428POPC   D2A22060  26.940   0.940   8.235
 1428POPC   C3A22061  26.937   1.258   7.905
 1428POPC   C4A22062  27.129   1.403   7.557
 1428POPC   C1B22063  26.532   0.842   8.758
 1428POPC   C2B22064  26.461   0.724   8.317
 1428POPC   C3B22065  26.534   0.882   7.862
 1428POPC   C4B22066  26.736   1.065   7.470
 1429POPC   NC322067  15.315   7.782   9.431
 1429POPC   PO422068  15.204   8.418   9.485
 1429POPC   GL122069  14.892   8.258   9.216
 1429POPC   GL222070  14.815   7.892   9.197
 1429POPC   C1A22071  14.835   8.350   8.808
 1429POPC   D2A22072  15.067   8.364   8.412
 1429POPC   C3A22073  14.925   8.229   8.016
 1429POPC   C4A22074  14.985   8.527   7.672
 1429POPC   C1B22075  14.998   7.848   8.780
 1429POPC   C2B22076  15.242   7.890   8.410
 1429POPC   C3B22077  15.244   7.802   8.016
 1429POPC   C4B22078  15.436   8.011   7.731
 1430POPC   NC322079  16.659   0.900   9.601
 1430POPC   PO422080  16.523   1.546   9.459
 1430POPC   GL122081  16.818   1.399   9.169
 1430POPC   GL222082  16.911   1.035   9.174
 1430POPC   C1A22083  16.897   1.467   8.771
 1430POPC   D2A22084  17.006   1.300   8.415
 1430POPC   C3A22085  16.787   1.500   8.102
 1430POPC   C4A22086  16.715   1.407   7.655
 1430POPC   C1B22087  16.703   0.999   8.772
 1430POPC   C2B22088  16.819   0.834   8.339
 1430POPC   C3B22089  16.892   1.035   7.943
 1430POPC   C4B22090  16.926   0.964   7.468
 1431POPC   NC322091   7.271  39.892   9.468
 1431POPC   PO422092   7.681  40.482   9.448
 1431POPC   GL122093   7.575  40.146   9.108
 1431POPC   GL222094   7.335  39.809   8.994
 1431POPC   C1A22095   7.404  40.205   8.708
 1431POPC   D2A22096   7.118  39.979   8.506
 1431POPC   C3A22097   7.320  40.004   8.125
 1431POPC   C4A22098   7.267  40.244   7.759
 1431POPC   C1B22099   7.649  39.745   8.758
 1431POPC   C2B22100   7.804  39.972   8.442
 1431POPC   C3B22101   7.786  39.760   8.096
 1431POPC   C4B22102   7.657  39.896   7.751
 1432POPC   NC322103  16.700   5.644   9.540
 1432POPC   PO422104  16.891   6.266   9.629
 1432POPC   GL122105  16.915   5.974   9.224
 1432POPC   GL222106  17.104   5.648   9.169
 1432POPC   C1A22107  16.665   5.836   8.877
 1432POPC   D2A22108  16.655   5.655   8.475
 1432POPC   C3A22109  16.849   5.911   8.152
 1432POPC   C4A22110  16.694   5.875   7.731
 1432POPC   C1B22111  17.127   5.688   8.702
 1432POPC   C2B22112  17.097   5.458   8.301
 1432POPC   C3B22113  16.818   5.408   7.902
 1432POPC   C4B22114  16.917   5.531   7.413
 1433POPC   NC322115   2.304   0.557   9.468
 1433POPC   PO422116   1.723   0.254   9.522
 1433POPC   GL122117   1.867   0.474   9.194
 1433POPC   GL222118   2.067   0.182   9.123
 1433POPC   C1A22119   2.026   0.664   8.835
 1433POPC   D2A22120   1.975   0.544   8.419
 1433POPC   C3A22121   1.802   0.695   8.044
 1433POPC   C4A22122   1.763   0.530   7.627
 1433POPC   C1B22123   1.857   0.146   8.734
 1433POPC   C2B22124   1.985   0.046   8.299
 1433POPC   C3B22125   1.849   0.099   7.887
 1433POPC   C4B22126   1.985   0.070   7.459
 1434POPC   NC322127  28.452  20.282   9.689
 1434POPC   PO422128  28.251  20.834   9.446
 1434POPC   GL122129  28.382  20.405   9.195
 1434POPC   GL222130  28.745  20.323   9.242
 1434POPC   C1A22131  28.295  20.248   8.756
 1434POPC   D2A22132  28.299  20.601   8.451
 1434POPC   C3A22133  28.571  20.726   8.095
 1434POPC   C4A22134  28.375  20.769   7.699
 1434POPC   C1B22135  28.764  20.429   8.792
 1434POPC   C2B22136  28.683  20.285   8.346
 1434POPC   C3B22137  28.868  20.352   7.919
 1434POPC   C4B22138  28.679  20.409   7.488
 1435POPC   NC322139  32.927  14.880   9.497
 1435POPC   PO422140  32.908  15.535   9.536
 1435POPC   GL122141  33.089  15.299   9.200
 1435POPC   GL222142  33.309  15.017   9.208
 1435POPC   C1A22143  33.081  15.207   8.760
 1435POPC   D2A22144  32.855  15.301   8.395
 1435POPC   C3A22145  33.112  15.257   8.019
 1435POPC   C4A22146  33.273  15.131   7.616
 1435POPC   C1B22147  33.211  14.725   8.868
 1435POPC   C2B22148  33.025  14.714   8.482
 1435POPC   C3B22149  33.156  14.759   8.090
 1435POPC   C4B22150  32.907  14.849   7.769
 1436POPC   NC322151  30.356  31.689   9.431
 1436POPC   PO422152  30.687  31.188   9.772
 1436POPC   GL122153  30.635  31.307   9.259
 1436POPC   GL222154  30.915  31.314   9.066
 1436POPC   C1A22155  30.488  31.426   8.806
 1436POPC   D2A22156  30.447  31.407   8.372
 1436POPC   C3A22157  30.734  31.617   8.107
 1436POPC   C4A22158  30.741  31.889   7.776
 1436POPC   C1B22159  30.844  31.102   8.741
 1436POPC   C2B22160  30.938  31.240   8.377
 1436POPC   C3B22161  30.845  31.084   7.994
 1436POPC   C4B22162  30.806  31.273   7.635
 1437POPC   NC322163   6.281  35.300   9.555
 1437POPC   PO422164   5.672  35.585   9.448
 1437POPC   GL122165   5.771  35.347   9.070
 1437POPC   GL222166   6.114  35.264   9.050
 1437POPC   C1A22167   5.675  35.270   8.641
 1437POPC   D2A22168   5.466  35.494   8.277
 1437POPC   C3A22169   5.459  35.248   7.925
 1437POPC   C4A22170   5.771  35.448   7.706
 1437POPC   C1B22171   6.131  35.601   8.755
 1437POPC   C2B22172   5.994  35.550   8.344
 1437POPC   C3B22173   6.013  35.202   8.068
 1437POPC   C4B22174   6.226  35.197   7.669
 1438POPC   NC322175  41.968  26.570   9.726
 1438POPC   PO422176  42.543  26.087   9.659
 1438POPC   GL122177  42.201  26.072   9.310
 1438POPC   GL222178  42.449  26.128   9.083
 1438POPC   C1A22179  42.071  25.926   8.861
 1438POPC   D2A22180  42.337  26.021   8.506
 1438POPC   C3A22181  42.258  26.107   8.075
 1438POPC   C4A22182  42.493  25.980   7.738
 1438POPC   C1B22183  42.556  26.417   8.764
 1438POPC   C2B22184  42.452  26.498   8.348
 1438POPC   C3B22185  42.645  26.431   7.955
 1438POPC   C4B22186  42.712  26.567   7.530
 1439POPC   NC322187   2.034   7.837   9.522
 1439POPC   PO422188   2.046   8.484   9.509
 1439POPC   GL122189   2.207   8.399   9.100
 1439POPC   GL222190   2.324   8.085   9.163
 1439POPC   C1A22191   2.074   8.342   8.698
 1439POPC   D2A22192   1.865   8.555   8.388
 1439POPC   C3A22193   1.759   8.307   8.051
 1439POPC   C4A22194   1.826   8.510   7.671
 1439POPC   C1B22195   2.429   7.972   8.747
 1439POPC   C2B22196   2.292   8.036   8.328
 1439POPC   C3B22197   2.223   8.187   7.899
 1439POPC   C4B22198   2.305   7.819   7.593
 1440POPC   NC322199  10.193   9.956   9.459
 1440POPC   PO422200   9.566   9.800   9.628
 1440POPC   GL122201   9.484   9.599   9.247
 1440POPC   GL222202   9.830   9.699   9.153
 1440POPC   C1A22203   9.461   9.593   8.790
 1440POPC   D2A22204   9.594   9.842   8.437
 1440POPC   C3A22205   9.757   9.711   8.044
 1440POPC   C4A22206   9.891   9.529   7.684
 1440POPC   C1B22207   9.875  10.007   8.834
 1440POPC   C2B22208   9.946  10.249   8.475
 1440POPC   C3B22209  10.016  10.214   8.079
 1440POPC   C4B22210  10.031  10.007   7.695
 1441POPC   NC322211  42.326  25.649   9.573
 1441POPC   PO422212  42.299  24.994   9.485
 1441POPC   GL122213  42.527  25.233   9.161
 1441POPC   GL222214  42.524  25.617   9.111
 1441POPC   C1A22215  42.457  25.034   8.749
 1441POPC   D2A22216  42.342  25.156   8.330
 1441POPC   C3A22217  42.072  25.077   7.989
 1441POPC   C4A22218  42.358  24.859   7.736
 1441POPC   C1B22219  42.363  25.534   8.705
 1441POPC   C2B22220  42.113  25.594   8.351
 1441POPC   C3B22221  42.283  25.602   7.994
 1441POPC   C4B22222  42.310  25.367   7.656
 1442POPC   NC322223  21.508   8.751   9.568
 1442POPC   PO422224  21.555   9.361   9.313
 1442POPC   GL122225  21.435   9.007   9.119
 1442POPC   GL222226  21.790   8.917   9.147
 1442POPC   C1A22227  21.223   8.930   8.726
 1442POPC   D2A22228  21.058   9.112   8.339
 1442POPC   C3A22229  21.187   8.900   7.974
 1442POPC   C4A22230  21.266   9.178   7.675
 1442POPC   C1B22231  21.748   8.899   8.702
 1442POPC   C2B22232  21.571   8.964   8.304
 1442POPC   C3B22233  21.692   8.998   7.893
 1442POPC   C4B22234  21.646   8.798   7.509
 1443POPC   NC322235  43.684  37.234   9.393
 1443POPC   PO422236  43.656  36.570   9.586
 1443POPC   GL122237  43.827  36.638   9.154
 1443POPC   GL222238  43.794  36.971   8.982
 1443POPC   C1A22239  43.855  36.542   8.695
 1443POPC   D2A22240  43.971  36.776   8.323
 1443POPC   C3A22241  43.953  36.516   7.915
 1443POPC   C4A22242  43.724  36.656   7.555
 1443POPC   C1B22243  43.504  37.255   8.755
 1443POPC   C2B22244  43.587  37.382   8.341
 1443POPC   C3B22245  43.464  37.243   7.929
 1443POPC   C4B22246  43.602  37.175   7.515
 1444POPC   NC322247  25.106  41.687   9.540
 1444POPC   PO422248  25.488  41.086   9.382
 1444POPC   GL122249  25.332  41.447   9.155
 1444POPC   GL222250  25.472  41.795   9.199
 1444POPC   C1A22251  25.134  41.462   8.755
 1444POPC   D2A22252  25.307  41.196   8.469
 1444POPC   C3A22253  25.252  41.343   8.070
 1444POPC   C4A22254  24.997  41.417   7.759
 1444POPC   C1B22255  25.273  41.946   8.879
 1444POPC   C2B22256  25.368  41.870   8.493
 1444POPC   C3B22257  25.406  42.004   8.127
 1444POPC   C4B22258  25.225  41.865   7.805
 1445POPC   NC322259  22.600  42.124   9.316
 1445POPC   PO422260  22.957  42.721   9.517
 1445POPC   GL122261  22.858  42.507   9.104
 1445POPC   GL222262  22.547  42.490   8.881
 1445POPC   C1A22263  22.939  42.255   8.693
 1445POPC   D2A22264  22.922  42.113   8.248
 1445POPC   C3A22265  23.200  42.347   7.976
 1445POPC   C4A22266  23.205  42.723   7.759
 1445POPC   C1B22267  22.444  42.118   8.587
 1445POPC   C2B22268  22.457  41.910   8.161
 1445POPC   C3B22269  22.436  42.072   7.693
 1445POPC   C4B22270  22.453  42.068   7.180
 1446POPC   NC322271  11.066  35.498   9.497
 1446POPC   PO422272  11.128  34.998   9.274
 1446POPC   GL122273  11.243  35.356   9.026
 1446POPC   GL222274  10.940  35.497   8.942
 1446POPC   C1A22275  11.370  35.397   8.598
 1446POPC   D2A22276  11.608  35.129   8.341
 1446POPC   C3A22277  11.510  35.241   7.920
 1446POPC   C4A22278  11.441  35.616   7.674
 1446POPC   C1B22279  10.944  35.134   8.640
 1446POPC   C2B22280  11.110  35.099   8.223
 1446POPC   C3B22281  11.009  35.312   7.822
 1446POPC   C4B22282  10.793  35.144   7.426
 1447POPC   NC322283  33.177   7.780   9.421
 1447POPC   PO422284  33.090   7.189   9.573
 1447POPC   GL122285  33.046   7.388   9.128
 1447POPC   GL222286  32.738   7.519   9.042
 1447POPC   C1A22287  33.107   7.618   8.707
 1447POPC   D2A22288  32.893   7.663   8.318
 1447POPC   C3A22289  33.138   7.867   8.059
 1447POPC   C4A22290  33.058   7.771   7.654
 1447POPC   C1B22291  32.737   7.266   8.660
 1447POPC   C2B22292  33.006   7.176   8.284
 1447POPC   C3B22293  32.993   7.246   7.827
 1447POPC   C4B22294  32.963   6.911   7.483
 1448POPC   NC322295  20.693  18.969   9.639
 1448POPC   PO422296  20.314  19.381   9.257
 1448POPC   GL122297  20.562  19.163   8.995
 1448POPC   GL222298  20.633  18.858   9.138
 1448POPC   C1A22299  20.646  18.976   8.580
 1448POPC   D2A22300  20.732  18.910   8.181
 1448POPC   C3A22301  20.605  19.300   7.991
 1448POPC   C4A22302  20.314  19.423   7.650
 1448POPC   C1B22303  20.364  18.669   8.842
 1448POPC   C2B22304  20.256  18.660   8.446
 1448POPC   C3B22305  20.233  18.968   8.149
 1448POPC   C4B22306  20.341  18.932   7.719
 1449POPC   NC322307  44.043  44.865   9.567
 1449POPC   PO422308  43.762  44.245   9.479
 1449POPC   GL122309  43.856  44.532   9.199
 1449POPC   GL222310  44.121  44.646   9.123
 1449POPC   C1A22311  43.755  44.682   8.776
 1449POPC   D2A22312  43.886  44.860   8.400
 1449POPC   C3A22313  43.633  44.724   8.094
 1449POPC   C4A22314  43.737  44.732   7.683
 1449POPC   C1B22315  44.208  44.460   8.755
 1449POPC   C2B22316  43.907  44.348   8.403
 1449POPC   C3B22317  43.710  44.215   8.001
 1449POPC   C4B22318  43.814  44.250   7.586
 1450POPC   NC322319   9.345  43.069   9.549
 1450POPC   PO422320   9.923  43.084   9.571
 1450POPC   GL122321   9.711  42.962   9.170
 1450POPC   GL222322   9.656  42.626   9.301
 1450POPC   C1A22323   9.799  42.996   8.679
 1450POPC   D2A22324  10.014  42.871   8.258
 1450POPC   C3A22325   9.845  43.147   7.927
 1450POPC   C4A22326   9.518  43.392   7.685
 1450POPC   C1B22327   9.766  42.538   8.879
 1450POPC   C2B22328   9.655  42.541   8.427
 1450POPC   C3B22329   9.592  42.692   7.989
 1450POPC   C4B22330   9.687  42.862   7.540
 1451POPC   NC322331  28.009  13.000   9.596
 1451POPC   PO422332  28.663  13.130   9.727
 1451POPC   GL122333  28.514  13.128   9.288
 1451POPC   GL222334  28.303  12.831   9.225
 1451POPC   C1A22335  28.633  12.982   8.842
 1451POPC   D2A22336  28.807  12.727   8.491
 1451POPC   C3A22337  28.664  12.768   8.038
 1451POPC   C4A22338  28.345  12.919   7.732
 1451POPC   C1B22339  28.138  12.815   8.797
 1451POPC   C2B22340  28.254  12.763   8.356
 1451POPC   C3B22341  28.175  12.507   7.975
 1451POPC   C4B22342  28.248  12.460   7.503
 1452POPC   NC322343  40.905  33.472   9.872
 1452POPC   PO422344  40.572  33.981   9.472
 1452POPC   GL122345  40.803  33.733   9.191
 1452POPC   GL222346  40.553  33.543   9.087
 1452POPC   C1A22347  40.951  33.773   8.762
 1452POPC   D2A22348  41.053  33.698   8.333
 1452POPC   C3A22349  41.037  34.085   8.041
 1452POPC   C4A22350  40.787  34.165   7.660
 1452POPC   C1B22351  40.481  33.964   8.811
 1452POPC   C2B22352  40.630  33.990   8.372
 1452POPC   C3B22353  40.659  33.763   7.961
 1452POPC   C4B22354  40.324  33.991   7.737
 1453POPC   NC322355  17.036  43.414   9.422
 1453POPC   PO422356  16.570  43.036   9.595
 1453POPC   GL122357  16.589  42.925   9.159
 1453POPC   GL222358  16.941  42.976   9.137
 1453POPC   C1A22359  16.582  42.948   8.676
 1453POPC   D2A22360  16.548  43.179   8.277
 1453POPC   C3A22361  16.756  43.171   7.878
 1453POPC   C4A22362  17.060  43.440   7.757
 1453POPC   C1B22363  17.130  42.935   8.736
 1453POPC   C2B22364  17.032  43.015   8.321
 1453POPC   C3B22365  17.201  42.915   7.945
 1453POPC   C4B22366  17.137  43.001   7.501
 1454POPC   NC322367  36.095  10.353   9.513
 1454POPC   PO422368  36.406  11.019   9.508
 1454POPC   GL122369  36.229  10.722   9.145
 1454POPC   GL222370  36.347  10.377   9.083
 1454POPC   C1A22371  36.099  10.594   8.685
 1454POPC   D2A22372  35.822  10.674   8.311
 1454POPC   C3A22373  35.975  10.875   7.945
 1454POPC   C4A22374  36.294  10.771   7.665
 1454POPC   C1B22375  36.367  10.107   8.747
 1454POPC   C2B22376  36.553  10.234   8.405
 1454POPC   C3B22377  36.325  10.524   8.176
 1454POPC   C4B22378  36.030  10.373   7.877
 1455POPC   NC322379   2.760  32.872   9.457
 1455POPC   PO422380   2.353  33.377   9.571
 1455POPC   GL122381   2.569  33.235   9.141
 1455POPC   GL222382   2.528  32.827   9.017
 1455POPC   C1A22383   2.693  33.166   8.701
 1455POPC   D2A22384   2.658  32.805   8.414
 1455POPC   C3A22385   2.660  33.088   8.081
 1455POPC   C4A22386   3.014  33.254   7.890
 1455POPC   C1B22387   2.972  32.743   8.841
 1455POPC   C2B22388   3.163  32.516   8.499
 1455POPC   C3B22389   3.035  32.586   8.079
 1455POPC   C4B22390   2.884  32.768   7.731
 1456POPC   NC322391  26.412  16.215   9.534
 1456POPC   PO422392  25.931  15.782   9.501
 1456POPC   GL122393  26.164  15.858   9.148
 1456POPC   GL222394  26.118  16.200   9.116
 1456POPC   C1A22395  26.133  15.900   8.696
 1456POPC   D2A22396  25.819  15.950   8.394
 1456POPC   C3A22397  25.838  15.743   8.027
 1456POPC   C4A22398  26.017  15.952   7.684
 1456POPC   C1B22399  26.426  16.317   8.825
 1456POPC   C2B22400  26.473  16.174   8.418
 1456POPC   C3B22401  26.194  16.252   8.095
 1456POPC   C4B22402  26.441  16.244   7.726
 1457POPC   NC322403  44.846   3.118   9.450
 1457POPC   PO422404  44.490   2.645   9.694
 1457POPC   GL122405  44.514   2.806   9.190
 1457POPC   GL222406  44.425   2.513   9.053
 1457POPC   C1A22407  44.724   2.803   8.742
 1457POPC   D2A22408  44.883   2.691   8.322
 1457POPC   C3A22409  44.786   2.968   7.981
 1457POPC   C4A22410  44.929   2.814   7.587
 1457POPC   C1B22411  44.299   2.333   8.678
 1457POPC   C2B22412  44.530   2.312   8.304
 1457POPC   C3B22413  44.576   2.528   7.921
 1457POPC   C4B22414  44.522   2.477   7.519
 1458POPC   NC322415  18.451   7.612   9.245
 1458POPC   PO422416  18.999   7.401   9.638
 1458POPC   GL122417  18.983   7.560   9.233
 1458POPC   GL222418  18.810   7.326   9.009
 1458POPC   C1A22419  19.253   7.521   8.865
 1458POPC   D2A22420  19.032   7.362   8.500
 1458POPC   C3A22421  19.227   7.526   8.151
 1458POPC   C4A22422  19.101   7.461   7.764
 1458POPC   C1B22423  19.166   7.017   8.861
 1458POPC   C2B22424  19.153   6.829   8.435
 1458POPC   C3B22425  19.132   7.016   8.071
 1458POPC   C4B22426  19.346   7.016   7.721
 1459POPC   NC322427  17.155  40.906   9.639
 1459POPC   PO422428  17.779  40.945   9.711
 1459POPC   GL122429  17.572  41.084   9.292
 1459POPC   GL222430  17.863  41.118   9.103
 1459POPC   C1A22431  17.488  40.914   8.824
 1459POPC   D2A22432  17.611  40.766   8.390
 1459POPC   C3A22433  17.336  40.812   8.025
 1459POPC   C4A22434  17.340  40.705   7.571
 1459POPC   C1B22435  18.027  40.970   8.704
 1459POPC   C2B22436  18.081  40.934   8.249
 1459POPC   C3B22437  17.801  40.941   7.876
 1459POPC   C4B22438  17.744  40.967   7.403
 1460POPC   NC322439   8.808  21.986   9.675
 1460POPC   PO422440   9.170  22.388   9.464
 1460POPC   GL122441   8.920  22.177   9.192
 1460POPC   GL222442   8.870  22.485   9.007
 1460POPC   C1A22443   8.802  22.033   8.787
 1460POPC   D2A22444   9.083  21.940   8.450
 1460POPC   C3A22445   9.038  22.104   8.031
 1460POPC   C4A22446   8.752  22.059   7.690
 1460POPC   C1B22447   9.251  22.292   8.788
 1460POPC   C2B22448   9.474  22.307   8.395
 1460POPC   C3B22449   9.431  22.442   7.971
 1460POPC   C4B22450   9.544  22.316   7.579
 1461POPC   NC322451  27.349   0.423   9.386
 1461POPC   PO422452  27.994   0.648   9.417
 1461POPC   GL122453  27.744   0.552   9.094
 1461POPC   GL222454  27.482   0.771   9.032
 1461POPC   C1A22455  27.659   0.425   8.683
 1461POPC   D2A22456  27.603   0.095   8.398
 1461POPC   C3A22457  27.651   0.207   7.970
 1461POPC   C4A22458  27.390   0.066   7.642
 1461POPC   C1B22459  27.189   0.686   8.712
 1461POPC   C2B22460  27.330   0.555   8.312
 1461POPC   C3B22461  27.212   0.469   7.929
 1461POPC   C4B22462  27.057   0.799   7.730
 1462POPC   NC322463  37.071   9.020   9.664
 1462POPC   PO422464  36.600   8.633   9.421
 1462POPC   GL122465  36.978   8.782   9.192
 1462POPC   GL222466  37.037   9.163   9.162
 1462POPC   C1A22467  36.862   8.805   8.772
 1462POPC   D2A22468  36.702   9.143   8.519
 1462POPC   C3A22469  36.685   9.045   8.107
 1462POPC   C4A22470  36.712   8.829   7.742
 1462POPC   C1B22471  37.253   9.110   8.759
 1462POPC   C2B22472  37.203   8.773   8.417
 1462POPC   C3B22473  37.177   8.788   7.991
 1462POPC   C4B22474  37.079   9.202   7.824
 1463POPC   NC322475  40.902  20.713   9.567
 1463POPC   PO422476  40.509  20.223   9.410
 1463POPC   GL122477  40.713  20.564   9.111
 1463POPC   GL222478  40.809  20.936   9.131
 1463POPC   C1A22479  40.809  20.652   8.669
 1463POPC   D2A22480  40.619  20.573   8.251
 1463POPC   C3A22481  40.801  20.472   7.834
 1463POPC   C4A22482  40.693  20.681   7.437
 1463POPC   C1B22483  40.808  21.156   8.747
 1463POPC   C2B22484  40.809  21.046   8.303
 1463POPC   C3B22485  40.864  20.977   7.861
 1463POPC   C4B22486  41.119  21.001   7.477
 1464POPC   NC322487  26.544  42.102   9.592
 1464POPC   PO422488  27.019  42.604   9.512
 1464POPC   GL122489  26.866  42.351   9.176
 1464POPC   GL222490  26.503  42.317   9.145
 1464POPC   C1A22491  26.751  42.454   8.737
 1464POPC   D2A22492  26.932  42.346   8.348
 1464POPC   C3A22493  26.633  42.387   8.002
 1464POPC   C4A22494  26.838  42.296   7.623
 1464POPC   C1B22495  26.324  42.139   8.795
 1464POPC   C2B22496  26.501  42.050   8.408
 1464POPC   C3B22497  26.417  41.869   8.044
 1464POPC   C4B22498  26.275  42.049   7.682
 1465POPC   NC322499  19.161  21.932   9.330
 1465POPC   PO422500  19.007  21.331   9.683
 1465POPC   GL122501  19.106  21.339   9.256
 1465POPC   GL222502  19.398  21.464   9.156
 1465POPC   C1A22503  18.991  21.464   8.838
 1465POPC   D2A22504  18.887  21.311   8.431
 1465POPC   C3A22505  19.025  21.213   8.019
 1465POPC   C4A22506  18.900  21.435   7.689
 1465POPC   C1B22507  19.470  21.528   8.687
 1465POPC   C2B22508  19.296  21.576   8.275
 1465POPC   C3B22509  19.435  21.503   7.854
 1465POPC   C4B22510  19.322  21.366   7.411
 1466POPC   NC322511  28.859  44.058   9.597
 1466POPC   PO422512  29.219  43.536   9.408
 1466POPC   GL122513  28.902  43.771   9.178
 1466POPC   GL222514  29.111  44.099   9.163
 1466POPC   C1A22515  28.858  43.915   8.757
 1466POPC   D2A22516  29.136  43.857   8.398
 1466POPC   C3A22517  28.901  43.931   8.032
 1466POPC   C4A22518  29.009  44.113   7.641
 1466POPC   C1B22519  29.356  44.088   8.788
 1466POPC   C2B22520  29.464  44.237   8.346
 1466POPC   C3B22521  29.430  43.999   7.984
 1466POPC   C4B22522  29.527  44.133   7.603
 1467POPC   NC322523  40.618   0.119   9.517
 1467POPC   PO422524  40.834  44.434   9.479
 1467POPC   GL122525  40.795  44.566   9.065
 1467POPC   GL222526  41.020  44.317   8.995
 1467POPC   C1A22527  40.549  44.821   8.733
 1467POPC   D2A22528  40.580   0.150   8.400
 1467POPC   C3A22529  40.792  44.971   8.057
 1467POPC   C4A22530  40.681  44.705   7.709
 1467POPC   C1B22531  40.811  44.366   8.589
 1467POPC   C2B22532  40.956  44.356   8.164
 1467POPC   C3B22533  41.151  44.627   7.866
 1467POPC   C4B22534  41.101  44.666   7.402
 1468POPC   NC322535  10.200  23.352   9.827
 1468POPC   PO422536  10.423  22.878   9.539
 1468POPC   GL122537  10.640  22.767   9.167
 1468POPC   GL222538  10.714  23.091   9.094
 1468POPC   C1A22539  10.459  22.765   8.742
 1468POPC   D2A22540  10.310  22.820   8.320
 1468POPC   C3A22541  10.538  22.780   7.947
 1468POPC   C4A22542  10.511  22.498   7.602
 1468POPC   C1B22543  10.558  23.277   8.708
 1468POPC   C2B22544  10.389  23.347   8.291
 1468POPC   C3B22545  10.584  23.331   7.888
 1468POPC   C4B22546  10.409  23.419   7.491
 1469POPC   NC322547  28.408  35.711   9.480
 1469POPC   PO422548  28.159  36.326   9.552
 1469POPC   GL122549  28.297  36.151   9.187
 1469POPC   GL222550  28.025  35.949   9.138
 1469POPC   C1A22551  28.478  36.206   8.781
 1469POPC   D2A22552  28.427  36.029   8.351
 1469POPC   C3A22553  28.402  36.303   7.997
 1469POPC   C4A22554  28.678  36.415   7.694
 1469POPC   C1B22555  28.157  35.792   8.732
 1469POPC   C2B22556  27.955  35.731   8.332
 1469POPC   C3B22557  28.136  35.845   7.938
 1469POPC   C4B22558  28.569  35.849   7.839
 1470POPC   NC322559  43.589  28.005   9.519
 1470POPC   PO422560  44.027  28.586   9.371
 1470POPC   GL122561  43.924  28.274   9.076
 1470POPC   GL222562  44.110  27.940   9.140
 1470POPC   C1A22563  43.684  28.322   8.654
 1470POPC   D2A22564  43.707  28.043   8.281
 1470POPC   C3A22565  43.594  28.238   7.911
 1470POPC   C4A22566  43.796  28.634   7.966
 1470POPC   C1B22567  44.115  28.065   8.662
 1470POPC   C2B22568  44.087  28.371   8.324
 1470POPC   C3B22569  44.103  28.233   7.926
 1470POPC   C4B22570  44.403  28.264   7.684
 1471POPC   NC322571  25.926  32.701   9.654
 1471POPC   PO422572  26.264  33.310   9.484
 1471POPC   GL122573  25.999  33.026   9.227
 1471POPC   GL222574  26.113  32.668   9.171
 1471POPC   C1A22575  25.933  33.051   8.771
 1471POPC   D2A22576  25.874  33.341   8.400
 1471POPC   C3A22577  25.973  33.205   8.000
 1471POPC   C4A22578  26.339  33.408   7.838
 1471POPC   C1B22579  26.238  32.611   8.735
 1471POPC   C2B22580  26.125  32.849   8.340
 1471POPC   C3B22581  26.363  32.871   7.955
 1471POPC   C4B22582  26.255  32.484   7.781
 1472POPC   NC322583  38.381   3.410   9.821
 1472POPC   PO422584  38.957   3.552   9.429
 1472POPC   GL122585  38.582   3.624   9.155
 1472POPC   GL222586  38.367   3.346   9.271
 1472POPC   C1A22587  38.562   3.592   8.670
 1472POPC   D2A22588  38.743   3.417   8.239
 1472POPC   C3A22589  38.633   3.682   7.859
 1472POPC   C4A22590  38.200   3.818   7.771
 1472POPC   C1B22591  38.319   3.157   8.875
 1472POPC   C2B22592  38.280   3.212   8.441
 1472POPC   C3B22593  38.265   3.374   8.049
 1472POPC   C4B22594  38.470   3.186   7.709
 1473POPC   NC322595   3.483   8.716   9.412
 1473POPC   PO422596   3.711   9.385   9.531
 1473POPC   GL122597   3.714   9.116   9.178
 1473POPC   GL222598   3.915   8.784   9.148
 1473POPC   C1A22599   3.498   8.967   8.806
 1473POPC   D2A22600   3.436   8.851   8.391
 1473POPC   C3A22601   3.203   9.035   8.084
 1473POPC   C4A22602   3.048   8.737   7.786
 1473POPC   C1B22603   4.040   9.029   8.818
 1473POPC   C2B22604   3.870   9.126   8.469
 1473POPC   C3B22605   3.807   9.029   8.077
 1473POPC   C4B22606   3.579   9.192   7.780
 1474POPC   NC322607  12.813  11.665   9.754
 1474POPC   PO422608  12.765  12.341   9.638
 1474POPC   GL122609  12.802  12.082   9.252
 1474POPC   GL222610  13.138  12.163   9.201
 1474POPC   C1A22611  12.781  12.006   8.782
 1474POPC   D2A22612  12.595  11.867   8.380
 1474POPC   C3A22613  12.502  12.133   8.026
 1474POPC   C4A22614  12.639  12.012   7.617
 1474POPC   C1B22615  13.082  12.420   8.800
 1474POPC   C2B22616  13.159  12.308   8.390
 1474POPC   C3B22617  13.005  12.104   8.039
 1474POPC   C4B22618  13.135  12.186   7.616
 1475POPC   NC322619  11.505  24.374   9.317
 1475POPC   PO422620  10.984  24.706   9.548
 1475POPC   GL122621  11.074  24.649   9.091
 1475POPC   GL222622  11.013  24.323   8.971
 1475POPC   C1A22623  11.001  24.675   8.619
 1475POPC   D2A22624  11.169  24.533   8.229
 1475POPC   C3A22625  10.984  24.707   7.840
 1475POPC   C4A22626  11.175  24.621   7.433
 1475POPC   C1B22627  11.395  24.352   8.678
 1475POPC   C2B22628  11.670  24.132   8.396
 1475POPC   C3B22629  11.578  24.169   7.965
 1475POPC   C4B22630  11.178  24.244   7.786
 1476POPC   NC322631  22.668  29.976   9.494
 1476POPC   PO422632  23.307  30.189   9.580
 1476POPC   GL122633  23.131  29.951   9.172
 1476POPC   GL222634  22.769  30.008   8.979
 1476POPC   C1A22635  23.213  29.979   8.712
 1476POPC   D2A22636  22.843  30.113   8.461
 1476POPC   C3A22637  22.838  30.206   8.015
 1476POPC   C4A22638  23.134  30.182   7.670
 1476POPC   C1B22639  22.849  29.641   8.657
 1476POPC   C2B22640  23.050  29.641   8.317
 1476POPC   C3B22641  23.030  29.699   7.901
 1476POPC   C4B22642  23.425  29.597   7.769
 1477POPC   NC322643  34.315  37.104   9.543
 1477POPC   PO422644  34.740  36.657   9.523
 1477POPC   GL122645  34.640  36.693   9.125
 1477POPC   GL222646  34.310  36.636   9.164
 1477POPC   C1A22647  34.717  36.840   8.717
 1477POPC   D2A22648  34.666  36.758   8.293
 1477POPC   C3A22649  34.560  37.100   8.022
 1477POPC   C4A22650  34.521  36.825   7.689
 1477POPC   C1B22651  34.299  36.546   8.721
 1477POPC   C2B22652  34.131  36.442   8.310
 1477POPC   C3B22653  34.250  36.428   7.847
 1477POPC   C4B22654  34.291  36.478   7.383
 1478POPC   NC322655  30.608  42.486   9.540
 1478POPC   PO422656  30.793  41.851   9.537
 1478POPC   GL122657  30.863  42.190   9.201
 1478POPC   GL222658  30.495  42.190   9.125
 1478POPC   C1A22659  30.833  42.288   8.726
 1478POPC   D2A22660  30.600  42.293   8.294
 1478POPC   C3A22661  30.842  42.175   7.898
 1478POPC   C4A22662  30.909  41.918   7.523
 1478POPC   C1B22663  30.360  42.510   8.839
 1478POPC   C2B22664  30.162  42.575   8.433
 1478POPC   C3B22665  30.336  42.693   8.036
 1478POPC   C4B22666  30.724  42.679   7.810
 1479POPC   NC322667   6.888  17.468   9.515
 1479POPC   PO422668   6.519  18.005   9.494
 1479POPC   GL122669   6.579  17.699   9.142
 1479POPC   GL222670   6.713  17.384   9.057
 1479POPC   C1A22671   6.654  17.742   8.705
 1479POPC   D2A22672   6.882  17.559   8.339
 1479POPC   C3A22673   6.651  17.479   7.983
 1479POPC   C4A22674   6.476  17.695   7.598
 1479POPC   C1B22675   6.909  17.201   8.690
 1479POPC   C2B22676   7.191  17.143   8.298
 1479POPC   C3B22677   7.052  17.152   7.855
 1479POPC   C4B22678   6.736  17.260   7.530
 1480POPC   NC322679  11.487  18.705   9.525
 1480POPC   PO422680  10.969  18.259   9.531
 1480POPC   GL122681  11.075  18.324   9.116
 1480POPC   GL222682  11.096  18.669   9.144
 1480POPC   C1A22683  11.094  18.407   8.665
 1480POPC   D2A22684  11.181  18.179   8.281
 1480POPC   C3A22685  11.555  18.039   8.053
 1480POPC   C4A22686  11.495  17.985   7.598
 1480POPC   C1B22687  11.498  18.594   8.904
 1480POPC   C2B22688  11.605  18.420   8.504
 1480POPC   C3B22689  11.546  18.570   8.098
 1480POPC   C4B22690  11.604  18.693   7.689
 1481POPC   NC322691  33.171  28.460   9.769
 1481POPC   PO422692  32.600  28.695   9.372
 1481POPC   GL122693  32.952  28.602   9.085
 1481POPC   GL222694  32.944  28.260   8.951
 1481POPC   C1A22695  33.128  28.690   8.693
 1481POPC   D2A22696  33.065  28.427   8.335
 1481POPC   C3A22697  32.939  28.616   7.940
 1481POPC   C4A22698  32.664  28.454   7.634
 1481POPC   C1B22699  33.338  28.190   8.724
 1481POPC   C2B22700  33.593  28.282   8.356
 1481POPC   C3B22701  33.380  28.336   7.928
 1481POPC   C4B22702  33.189  28.388   7.510
 1482POPC   NC322703   1.704  10.637   9.422
 1482POPC   PO422704   2.245  10.056   9.423
 1482POPC   GL122705   2.150  10.310   9.059
 1482POPC   GL222706   1.794  10.307   9.015
 1482POPC   C1A22707   2.073  10.674   8.750
 1482POPC   D2A22708   2.281  10.874   8.352
 1482POPC   C3A22709   2.249  10.742   7.924
 1482POPC   C4A22710   2.202  10.361   7.698
 1482POPC   C1B22711   1.747  10.356   8.541
 1482POPC   C2B22712   1.918  10.420   8.141
 1482POPC   C3B22713   1.706  10.380   7.760
 1482POPC   C4B22714   1.285  10.309   7.610
 1483POPC   NC322715  40.197  42.631   9.394
 1483POPC   PO422716  39.789  42.211   9.502
 1483POPC   GL122717  40.156  42.112   9.223
 1483POPC   GL222718  39.966  42.339   9.046
 1483POPC   C1A22719  40.377  42.207   8.796
 1483POPC   D2A22720  40.410  42.559   8.511
 1483POPC   C3A22721  40.225  42.451   8.095
 1483POPC   C4A22722  40.320  42.313   7.674
 1483POPC   C1B22723  39.815  42.614   8.802
 1483POPC   C2B22724  39.803  42.382   8.442
 1483POPC   C3B22725  39.651  42.507   8.064
 1483POPC   C4B22726  39.831  42.439   7.727
 1484POPC   NC322727  10.160  39.937   9.661
 1484POPC   PO422728  10.834  39.878   9.604
 1484POPC   GL122729  10.525  39.874   9.310
 1484POPC   GL222730  10.656  40.142   9.146
 1484POPC   C1A22731  10.509  39.737   8.893
 1484POPC   D2A22732  10.591  39.673   8.467
 1484POPC   C3A22733  10.256  39.648   8.151
 1484POPC   C4A22734  10.283  39.757   7.718
 1484POPC   C1B22735  10.793  40.152   8.715
 1484POPC   C2B22736  10.781  40.396   8.339
 1484POPC   C3B22737  10.558  40.410   7.960
 1484POPC   C4B22738  10.603  40.251   7.571
 1485POPC   NC322739  24.015  27.883   9.421
 1485POPC   PO422740  23.617  27.439   9.552
 1485POPC   GL122741  23.879  27.453   9.150
 1485POPC   GL222742  23.776  27.762   8.985
 1485POPC   C1A22743  24.010  27.452   8.672
 1485POPC   D2A22744  23.817  27.752   8.370
 1485POPC   C3A22745  23.838  27.647   7.930
 1485POPC   C4A22746  23.618  27.309   7.774
 1485POPC   C1B22747  24.129  27.986   8.730
 1485POPC   C2B22748  24.168  28.094   8.279
 1485POPC   C3B22749  23.913  28.144   7.889
 1485POPC   C4B22750  23.940  27.986   7.451
 1486POPC   NC322751  34.385  10.762   9.584
 1486POPC   PO422752  34.907  10.309   9.496
 1486POPC   GL122753  34.712  10.313   9.114
 1486POPC   GL222754  34.420  10.559   9.096
 1486POPC   C1A22755  34.818  10.393   8.693
 1486POPC   D2A22756  34.919  10.197   8.321
 1486POPC   C3A22757  34.931  10.512   8.007
 1486POPC   C4A22758  34.635  10.523   7.672
 1486POPC   C1B22759  34.285  10.529   8.650
 1486POPC   C2B22760  34.406  10.587   8.203
 1486POPC   C3B22761  34.236  10.756   7.818
 1486POPC   C4B22762  34.300  10.911   7.372
 1487POPC   NC322763  20.580  17.031   9.284
 1487POPC   PO422764  20.822  17.559   9.724
 1487POPC   GL122765  20.736  17.535   9.274
 1487POPC   GL222766  20.366  17.571   9.300
 1487POPC   C1A22767  20.937  17.477   8.814
 1487POPC   D2A22768  21.123  17.449   8.386
 1487POPC   C3A22769  20.826  17.236   8.122
 1487POPC   C4A22770  20.635  17.505   7.823
 1487POPC   C1B22771  20.462  17.674   8.864
 1487POPC   C2B22772  20.532  17.601   8.431
 1487POPC   C3B22773  20.255  17.694   8.099
 1487POPC   C4B22774  20.216  17.722   7.647
 1488POPC   NC322775  30.850  19.321   9.495
 1488POPC   PO422776  30.369  18.767   9.557
 1488POPC   GL122777  30.553  19.011   9.246
 1488POPC   GL222778  30.404  19.346   9.234
 1488POPC   C1A22779  30.770  19.151   8.871
 1488POPC   D2A22780  30.697  19.274   8.451
 1488POPC   C3A22781  30.793  19.030   8.101
 1488POPC   C4A22782  30.736  18.744   7.745
 1488POPC   C1B22783  30.351  19.444   8.803
 1488POPC   C2B22784  30.279  19.554   8.364
 1488POPC   C3B22785  30.380  19.330   7.993
 1488POPC   C4B22786  30.674  19.231   7.631
 1489POPC   NC322787  11.418  19.444   9.453
 1489POPC   PO422788  10.856  19.807   9.526
 1489POPC   GL122789  10.938  19.791   9.097
 1489POPC   GL222790  11.254  19.934   9.072
 1489POPC   C1A22791  11.030  19.753   8.630
 1489POPC   D2A22792  11.176  19.442   8.314
 1489POPC   C3A22793  11.313  19.569   7.895
 1489POPC   C4A22794  11.057  19.888   7.719
 1489POPC   C1B22795  11.517  19.843   8.689
 1489POPC   C2B22796  11.406  19.930   8.238
 1489POPC   C3B22797  11.677  19.915   7.845
 1489POPC   C4B22798  11.865  20.164   7.525
 1490POPC   NC322799   1.780  44.038   9.388
 1490POPC   PO422800   2.099  43.408   9.452
 1490POPC   GL122801   1.895  43.620   9.114
 1490POPC   GL222802   2.134  43.894   9.005
 1490POPC   C1A22803   1.728  43.760   8.719
 1490POPC   D2A22804   2.034  43.933   8.452
 1490POPC   C3A22805   1.935  44.019   8.048
 1490POPC   C4A22806   1.765  43.746   7.750
 1490POPC   C1B22807   2.215  43.526   8.735
 1490POPC   C2B22808   2.400  43.565   8.322
 1490POPC   C3B22809   2.273  43.675   7.888
 1490POPC   C4B22810   2.189  43.548   7.453
 1491POPC   NC322811  32.210  40.976   9.541
 1491POPC   PO422812  31.678  40.530   9.629
 1491POPC   GL122813  32.027  40.535   9.277
 1491POPC   GL222814  32.318  40.794   9.088
 1491POPC   C1A22815  32.021  40.472   8.846
 1491POPC   D2A22816  31.978  40.401   8.400
 1491POPC   C3A22817  32.229  40.659   8.089
 1491POPC   C4A22818  32.087  40.798   7.662
 1491POPC   C1B22819  32.615  40.987   8.758
 1491POPC   C2B22820  32.552  41.205   8.332
 1491POPC   C3B22821  32.397  41.134   7.910
 1491POPC   C4B22822  32.596  40.847   7.573
 1492POPC   NC322823  27.278  38.293   9.817
 1492POPC   PO422824  27.632  37.666   9.587
 1492POPC   GL122825  27.601  37.585   9.160
 1492POPC   GL222826  27.921  37.636   9.046
 1492POPC   C1A22827  27.379  37.641   8.782
 1492POPC   D2A22828  27.549  37.785   8.405
 1492POPC   C3A22829  27.766  37.530   8.157
 1492POPC   C4A22830  27.578  37.532   7.792
 1492POPC   C1B22831  28.036  37.856   8.660
 1492POPC   C2B22832  27.873  38.163   8.358
 1492POPC   C3B22833  27.710  38.026   7.956
 1492POPC   C4B22834  28.003  37.989   7.624
 1493POPC   NC322835   3.011  24.483   9.417
 1493POPC   PO422836   2.354  24.222   9.615
 1493POPC   GL122837   2.548  24.365   9.211
 1493POPC   GL222838   2.560  24.673   9.195
 1493POPC   C1A22839   2.737  24.316   8.760
 1493POPC   D2A22840   2.548  24.253   8.349
 1493POPC   C3A22841   2.827  24.322   8.002
 1493POPC   C4A22842   3.139  24.539   7.754
 1493POPC   C1B22843   2.634  24.840   8.759
 1493POPC   C2B22844   2.760  24.732   8.332
 1493POPC   C3B22845   2.617  24.794   7.892
 1493POPC   C4B22846   2.861  24.936   7.526
 1494POPC   NC322847  29.647  32.375   9.390
 1494POPC   PO422848  30.276  32.158   9.447
 1494POPC   GL122849  30.025  32.164   9.082
 1494POPC   GL222850  29.695  31.977   9.053
 1494POPC   C1A22851  30.215  32.063   8.655
 1494POPC   D2A22852  30.199  31.846   8.257
 1494POPC   C3A22853  30.111  32.195   7.999
 1494POPC   C4A22854  29.925  32.409   7.688
 1494POPC   C1B22855  29.749  32.287   8.672
 1494POPC   C2B22856  29.720  32.477   8.244
 1494POPC   C3B22857  29.451  32.547   7.872
 1494POPC   C4B22858  29.468  32.839   7.498
 1495POPC   NC322859  42.017  34.086   9.350
 1495POPC   PO422860  42.126  33.420   9.475
 1495POPC   GL122861  42.256  33.662   9.137
 1495POPC   GL222862  42.454  33.474   9.000
 1495POPC   C1A22863  42.328  33.892   8.734
 1495POPC   D2A22864  42.129  33.789   8.364
 1495POPC   C3A22865  42.115  34.024   8.009
 1495POPC   C4A22866  41.996  33.726   7.703
 1495POPC   C1B22867  42.699  33.536   8.645
 1495POPC   C2B22868  42.657  33.711   8.288
 1495POPC   C3B22869  42.428  33.612   7.964
 1495POPC   C4B22870  42.502  33.902   7.699
 1496POPC   NC322871  30.108  36.190   9.302
 1496POPC   PO422872  29.628  35.751   9.503
 1496POPC   GL122873  29.647  35.994   9.104
 1496POPC   GL222874  29.678  36.376   9.072
 1496POPC   C1A22875  29.832  35.929   8.689
 1496POPC   D2A22876  29.966  35.726   8.287
 1496POPC   C3A22877  30.063  36.083   8.003
 1496POPC   C4A22878  29.985  36.505   7.893
 1496POPC   C1B22879  29.393  36.226   8.732
 1496POPC   C2B22880  29.338  35.840   8.500
 1496POPC   C3B22881  29.497  35.776   8.112
 1496POPC   C4B22882  29.536  36.149   7.877
 1497POPC   NC322883  11.907  29.584   9.413
 1497POPC   PO422884  12.459  29.875   9.315
 1497POPC   GL122885  12.337  29.557   9.010
 1497POPC   GL222886  11.979  29.537   8.904
 1497POPC   C1A22887  12.312  29.526   8.535
 1497POPC   D2A22888  11.924  29.605   8.304
 1497POPC   C3A22889  11.993  29.917   8.078
 1497POPC   C4A22890  12.283  29.968   7.792
 1497POPC   C1B22891  12.008  29.951   8.669
 1497POPC   C2B22892  11.829  30.295   8.384
 1497POPC   C3B22893  11.660  30.262   7.930
 1497POPC   C4B22894  11.803  29.999   7.570
 1498POPC   NC322895  38.117  40.580   9.504
 1498POPC   PO422896  38.501  41.096   9.309
 1498POPC   GL122897  38.343  40.811   9.104
 1498POPC   GL222898  38.640  40.585   9.160
 1498POPC   C1A22899  38.285  40.947   8.700
 1498POPC   D2A22900  38.497  40.966   8.364
 1498POPC   C3A22901  38.225  41.027   8.063
 1498POPC   C4A22902  38.404  41.119   7.699
 1498POPC   C1B22903  38.424  40.446   8.789
 1498POPC   C2B22904  38.245  40.398   8.414
 1498POPC   C3B22905  38.445  40.552   8.074
 1498POPC   C4B22906  38.423  40.596   7.664
 1499POPC   NC322907  17.676  35.332   9.418
 1499POPC   PO422908  17.529  34.747   9.326
 1499POPC   GL122909  17.532  34.999   9.029
 1499POPC   GL222910  17.188  35.058   9.018
 1499POPC   C1A22911  17.612  35.281   8.721
 1499POPC   D2A22912  17.647  35.295   8.289
 1499POPC   C3A22913  17.793  35.452   7.909
 1499POPC   C4A22914  17.603  35.398   7.486
 1499POPC   C1B22915  17.114  35.243   8.603
 1499POPC   C2B22916  17.157  35.389   8.174
 1499POPC   C3B22917  17.143  35.499   7.733
 1499POPC   C4B22918  16.792  35.361   7.467
 1500POPC   NC322919  11.761   7.716   9.434
 1500POPC   PO422920  12.485   7.661   9.444
 1500POPC   GL122921  12.184   7.544   9.163
 1500POPC   GL222922  12.093   7.206   9.196
 1500POPC   C1A22923  12.054   7.624   8.763
 1500POPC   D2A22924  12.326   7.574   8.439
 1500POPC   C3A22925  12.150   7.506   8.077
 1500POPC   C4A22926  11.886   7.752   7.864
 1500POPC   C1B22927  11.874   7.145   8.819
 1500POPC   C2B22928  11.850   7.197   8.391
 1500POPC   C3B22929  11.950   7.025   7.995
 1500POPC   C4B22930  12.029   7.260   7.640
 1501POPC   NC322931  38.434  26.914   9.620
 1501POPC   PO422932  37.914  26.529   9.517
 1501POPC   GL122933  38.281  26.660   9.211
 1501POPC   GL222934  38.268  27.011   9.143
 1501POPC   C1A22935  38.590  26.755   8.859
 1501POPC   D2A22936  38.788  26.759   8.458
 1501POPC   C3A22937  38.611  26.743   8.049
 1501POPC   C4A22938  38.409  26.426   7.754
 1501POPC   C1B22939  38.139  27.149   8.761
 1501POPC   C2B22940  38.365  27.064   8.419
 1501POPC   C3B22941  38.514  27.287   8.109
 1501POPC   C4B22942  38.457  27.132   7.745
 1502POPC   NC322943  16.405  33.111   9.476
 1502POPC   PO422944  15.799  32.706   9.537
 1502POPC   GL122945  15.878  32.894   9.099
 1502POPC   GL222946  16.080  33.193   9.102
 1502POPC   C1A22947  15.658  32.951   8.707
 1502POPC   D2A22948  15.905  32.717   8.413
 1502POPC   C3A22949  16.206  32.844   8.140
 1502POPC   C4A22950  16.074  32.883   7.709
 1502POPC   C1B22951  15.868  33.388   8.805
 1502POPC   C2B22952  15.970  33.255   8.415
 1502POPC   C3B22953  15.779  33.107   8.062
 1502POPC   C4B22954  15.948  33.374   7.748
 1503POPC   NC322955   4.164  31.550   9.511
 1503POPC   PO422956   4.693  31.101   9.448
 1503POPC   GL122957   4.391  31.277   9.154
 1503POPC   GL222958   4.390  31.659   9.070
 1503POPC   C1A22959   4.232  31.216   8.760
 1503POPC   D2A22960   4.504  31.105   8.418
 1503POPC   C3A22961   4.481  31.341   8.024
 1503POPC   C4A22962   4.116  31.295   7.759
 1503POPC   C1B22963   4.348  31.681   8.606
 1503POPC   C2B22964   4.057  31.469   8.306
 1503POPC   C3B22965   3.962  31.726   7.956
 1503POPC   C4B22966   4.293  31.949   7.804
 1504POPC   NC322967  11.162  13.321   9.464
 1504POPC   PO422968  11.435  13.957   9.542
 1504POPC   GL122969  11.198  13.975   9.184
 1504POPC   GL222970  11.204  13.659   9.110
 1504POPC   C1A22971  11.369  13.943   8.734
 1504POPC   D2A22972  11.332  13.702   8.362
 1504POPC   C3A22973  11.333  13.862   7.967
 1504POPC   C4A22974  11.301  13.650   7.587
 1504POPC   C1B22975  11.195  13.424   8.768
 1504POPC   C2B22976  11.080  13.242   8.376
 1504POPC   C3B22977  11.287  13.319   8.009
 1504POPC   C4B22978  11.198  13.168   7.630
 1505POPC   NC322979  37.406  36.300   9.282
 1505POPC   PO422980  37.735  35.762   9.505
 1505POPC   GL122981  37.810  36.002   9.126
 1505POPC   GL222982  37.922  36.340   9.093
 1505POPC   C1A22983  37.605  36.141   8.717
 1505POPC   D2A22984  37.451  36.320   8.374
 1505POPC   C3A22985  37.367  36.019   8.080
 1505POPC   C4A22986  37.468  36.094   7.673
 1505POPC   C1B22987  38.132  36.145   8.722
 1505POPC   C2B22988  38.257  36.087   8.294
 1505POPC   C3B22989  37.994  36.172   7.929
 1505POPC   C4B22990  37.756  36.532   7.810
 1506POPC   NC322991  24.126  43.548   9.469
 1506POPC   PO422992  23.451  43.872   9.484
 1506POPC   GL122993  23.568  43.850   9.075
 1506POPC   GL222994  23.795  43.578   9.078
 1506POPC   C1A22995  23.503  43.693   8.667
 1506POPC   D2A22996  23.629  43.561   8.260
 1506POPC   C3A22997  23.435  43.864   8.000
 1506POPC   C4A22998  23.540  44.127   7.674
 1506POPC   C1B22999  24.070  43.683   8.735
 1506POPC   C2B23000  24.112  43.893   8.370
 1506POPC   C3B23001  24.049  43.750   7.982
 1506POPC   C4B23002  24.239  43.906   7.663
 1507POPC   NC323003  38.768   7.303   9.475
 1507POPC   PO423004  39.378   7.324   9.620
 1507POPC   GL123005  39.181   7.476   9.220
 1507POPC   GL223006  39.012   7.223   9.024
 1507POPC   C1A23007  39.187   7.602   8.775
 1507POPC   D2A23008  38.944   7.377   8.451
 1507POPC   C3A23009  39.043   7.598   8.087
 1507POPC   C4A23010  39.466   7.618   7.931
 1507POPC   C1B23011  39.023   6.898   8.703
 1507POPC   C2B23012  38.905   6.857   8.295
 1507POPC   C3B23013  39.134   7.090   8.004
 1507POPC   C4B23014  39.139   7.341   7.638
 1508POPC   NC323015  18.155  16.425   9.422
 1508POPC   PO423016  18.714  16.869   9.552
 1508POPC   GL123017  18.573  16.588   9.172
 1508POPC   GL223018  18.257  16.776   9.083
 1508POPC   C1A23019  18.411  16.406   8.753
 1508POPC   D2A23020  18.335  16.646   8.356
 1508POPC   C3A23021  18.565  16.584   7.952
 1508POPC   C4A23022  18.633  16.638   7.475
 1508POPC   C1B23023  18.122  16.959   8.705
 1508POPC   C2B23024  17.954  17.021   8.323
 1508POPC   C3B23025  18.194  16.991   7.991
 1508POPC   C4B23026  18.183  16.882   7.558
 1509POPC   NC323027  21.545  26.259   9.613
 1509POPC   PO423028  21.319  25.708   9.300
 1509POPC   GL123029  21.200  25.916   8.976
 1509POPC   GL223030  21.257  26.235   9.133
 1509POPC   C1A23031  21.075  26.170   8.636
 1509POPC   D2A23032  21.189  26.451   8.293
 1509POPC   C3A23033  21.080  26.260   7.909
 1509POPC   C4A23034  21.233  25.917   7.692
 1509POPC   C1B23035  21.529  26.397   8.781
 1509POPC   C2B23036  21.723  26.432   8.358
 1509POPC   C3B23037  21.593  26.241   7.962
 1509POPC   C4B23038  21.468  26.396   7.559
 1510POPC   NC323039   4.699  30.163   9.348
 1510POPC   PO423040   4.313  29.647   9.608
 1510POPC   GL123041   4.270  29.745   9.128
 1510POPC   GL223042   4.002  29.955   9.003
 1510POPC   C1A23043   4.043  29.530   8.754
 1510POPC   D2A23044   4.036  29.444   8.302
 1510POPC   C3A23045   4.063  29.764   7.998
 1510POPC   C4A23046   4.446  29.844   7.857
 1510POPC   C1B23047   4.212  30.178   8.698
 1510POPC   C2B23048   4.115  30.396   8.329
 1510POPC   C3B23049   4.295  30.331   7.962
 1510POPC   C4B23050   4.076  30.190   7.664
 1511POPC   NC323051  33.494  29.211   9.558
 1511POPC   PO423052  33.936  28.775   9.383
 1511POPC   GL123053  33.788  29.122   9.115
 1511POPC   GL223054  34.037  29.396   9.131
 1511POPC   C1A23055  33.569  29.135   8.692
 1511POPC   D2A23056  33.734  29.283   8.318
 1511POPC   C3A23057  33.701  29.092   7.902
 1511POPC   C4A23058  33.398  28.846   7.641
 1511POPC   C1B23059  34.076  29.161   8.705
 1511POPC   C2B23060  34.219  29.172   8.276
 1511POPC   C3B23061  34.069  29.427   7.952
 1511POPC   C4B23062  34.139  29.394   7.504
 1512POPC   NC323063   2.553  10.875   9.564
 1512POPC   PO423064   2.647  11.519   9.671
 1512POPC   GL123065   2.649  11.208   9.203
 1512POPC   GL223066   2.814  11.412   8.967
 1512POPC   C1A23067   2.829  10.959   8.802
 1512POPC   D2A23068   2.793  10.895   8.348
 1512POPC   C3A23069   3.034  11.071   8.020
 1512POPC   C4A23070   2.863  11.111   7.597
 1512POPC   C1B23071   2.818  11.369   8.515
 1512POPC   C2B23072   3.047  11.560   8.204
 1512POPC   C3B23073   2.859  11.682   7.833
 1512POPC   C4B23074   2.575  11.555   7.520
 1513POPC   NC323075  43.355   3.989   9.640
 1513POPC   PO423076  42.735   4.049   9.539
 1513POPC   GL123077  42.876   4.027   9.122
 1513POPC   GL223078  43.195   4.170   9.162
 1513POPC   C1A23079  42.889   4.118   8.676
 1513POPC   D2A23080  42.901   4.465   8.396
 1513POPC   C3A23081  42.938   4.305   7.987
 1513POPC   C4A23082  42.931   3.937   7.736
 1513POPC   C1B23083  43.255   4.450   8.799
 1513POPC   C2B23084  43.507   4.459   8.411
 1513POPC   C3B23085  43.442   4.383   7.973
 1513POPC   C4B23086  43.225   4.339   7.575
 1514POPC   NC323087  34.806  43.335   9.357
 1514POPC   PO423088  34.428  42.842   9.452
 1514POPC   GL123089  34.427  43.127   9.071
 1514POPC   GL223090  34.764  43.017   8.944
 1514POPC   C1A23091  34.428  43.178   8.620
 1514POPC   D2A23092  34.744  42.954   8.388
 1514POPC   C3A23093  34.571  42.950   7.989
 1514POPC   C4A23094  34.287  43.165   7.728
 1514POPC   C1B23095  34.891  43.397   8.726
 1514POPC   C2B23096  34.759  43.461   8.344
 1514POPC   C3B23097  34.918  43.332   8.006
 1514POPC   C4B23098  34.824  43.398   7.608
 1515POPC   NC323099  36.572  40.974   9.449
 1515POPC   PO423100  36.916  40.362   9.337
 1515POPC   GL123101  37.008  40.652   9.016
 1515POPC   GL223102  36.966  40.992   9.074
 1515POPC   C1A23103  36.802  40.726   8.625
 1515POPC   D2A23104  36.412  40.661   8.353
 1515POPC   C3A23105  36.611  40.735   7.938
 1515POPC   C4A23106  36.994  40.597   7.752
 1515POPC   C1B23107  37.068  41.195   8.669
 1515POPC   C2B23108  37.146  41.071   8.233
 1515POPC   C3B23109  37.197  41.148   7.772
 1515POPC   C4B23110  37.207  41.405   7.374
 1516POPC   NC323111  25.495  36.971   9.535
 1516POPC   PO423112  24.887  37.166   9.683
 1516POPC   GL123113  25.052  37.018   9.189
 1516POPC   GL223114  25.403  36.991   9.047
 1516POPC   C1A23115  25.110  36.696   8.782
 1516POPC   D2A23116  25.059  36.870   8.364
 1516POPC   C3A23117  25.086  36.665   7.965
 1516POPC   C4A23118  24.904  36.868   7.632
 1516POPC   C1B23119  25.157  37.232   8.736
 1516POPC   C2B23120  25.201  37.403   8.329
 1516POPC   C3B23121  25.216  37.171   7.935
 1516POPC   C4B23122  25.459  36.895   7.611
 1517POPC   NC323123   9.067   5.960   9.479
 1517POPC   PO423124   8.829   5.312   9.626
 1517POPC   GL123125   9.063   5.506   9.223
 1517POPC   GL223126   8.770   5.686   9.080
 1517POPC   C1A23127   9.195   5.817   8.837
 1517POPC   D2A23128   9.004   6.003   8.445
 1517POPC   C3A23129   8.925   5.750   8.094
 1517POPC   C4A23130   8.926   5.487   7.730
 1517POPC   C1B23131   8.590   5.989   8.768
 1517POPC   C2B23132   8.427   6.203   8.423
 1517POPC   C3B23133   8.567   6.132   8.026
 1517POPC   C4B23134   8.524   5.791   7.763
 1518POPC   NC323135  29.882  30.101   9.587
 1518POPC   PO423136  30.181  29.480   9.604
 1518POPC   GL123137  29.862  29.706   9.231
 1518POPC   GL223138  29.756  30.079   9.116
 1518POPC   C1A23139  29.837  29.763   8.744
 1518POPC   D2A23140  29.821  29.984   8.341
 1518POPC   C3A23141  29.777  29.757   7.956
 1518POPC   C4A23142  29.984  29.910   7.656
 1518POPC   C1B23143  29.611  30.241   8.736
 1518POPC   C2B23144  29.649  30.479   8.340
 1518POPC   C3B23145  29.749  30.307   7.940
 1518POPC   C4B23146  29.584  30.185   7.556
 1519POPC   NC323147  38.332   6.614   9.580
 1519POPC   PO423148  38.871   6.872   9.337
 1519POPC   GL123149  38.520   6.789   9.090
 1519POPC   GL223150  38.328   6.481   9.096
 1519POPC   C1A23151  38.530   6.670   8.665
 1519POPC   D2A23152  38.334   6.567   8.289
 1519POPC   C3A23153  38.497   6.759   7.928
 1519POPC   C4A23154  38.820   6.907   7.669
 1519POPC   C1B23155  38.074   6.403   8.721
 1519POPC   C2B23156  37.858   6.381   8.307
 1519POPC   C3B23157  38.031   6.473   7.880
 1519POPC   C4B23158  38.083   6.427   7.421
 1520POPC   NC323159  25.465  28.583   9.682
 1520POPC   PO423160  25.476  28.036   9.399
 1520POPC   GL123161  25.341  28.237   9.043
 1520POPC   GL223162  25.680  28.069   8.921
 1520POPC   C1A23163  25.072  28.412   8.703
 1520POPC   D2A23164  24.990  28.710   8.361
 1520POPC   C3A23165  24.906  28.532   7.927
 1520POPC   C4A23166  25.179  28.405   7.564
 1520POPC   C1B23167  25.389  27.995   8.600
 1520POPC   C2B23168  25.036  28.002   8.343
 1520POPC   C3B23169  25.134  28.069   7.943
 1520POPC   C4B23170  25.561  28.161   7.854
 1521POPC   NC323171  28.098  18.663   9.677
 1521POPC   PO423172  28.756  18.825   9.572
 1521POPC   GL123173  28.515  18.902   9.207
 1521POPC   GL223174  28.167  18.841   9.210
 1521POPC   C1A23175  28.476  19.144   8.853
 1521POPC   D2A23176  28.727  19.285   8.501
 1521POPC   C3A23177  28.695  19.135   8.083
 1521POPC   C4A23178  28.579  19.086   7.647
 1521POPC   C1B23179  28.132  18.656   8.810
 1521POPC   C2B23180  27.996  18.817   8.415
 1521POPC   C3B23181  27.869  18.767   7.993
 1521POPC   C4B23182  28.066  19.028   7.715
 1522POPC   NC323183  17.789  37.894   9.585
 1522POPC   PO423184  17.481  37.307   9.564
 1522POPC   GL123185  17.552  37.587   9.177
 1522POPC   GL223186  17.494  37.939   9.090
 1522POPC   C1A23187  17.409  37.601   8.702
 1522POPC   D2A23188  17.246  37.764   8.267
 1522POPC   C3A23189  17.415  37.471   7.945
 1522POPC   C4A23190  17.686  37.398   7.577
 1522POPC   C1B23191  17.528  38.082   8.624
 1522POPC   C2B23192  17.769  37.948   8.237
 1522POPC   C3B23193  17.691  37.872   7.791
 1522POPC   C4B23194  17.256  37.907   7.694
 1523POPC   NC323195  25.746  16.240   9.474
 1523POPC   PO423196  25.322  15.683   9.409
 1523POPC   GL123197  25.424  16.003   9.155
 1523POPC   GL223198  25.192  16.262   9.263
 1523POPC   C1A23199  25.443  15.942   8.745
 1523POPC   D2A23200  25.128  15.871   8.486
 1523POPC   C3A23201  25.255  15.946   8.103
 1523POPC   C4A23202  25.421  15.921   7.689
 1523POPC   C1B23203  25.084  16.302   8.796
 1523POPC   C2B23204  24.950  16.356   8.357
 1523POPC   C3B23205  25.140  16.420   7.949
 1523POPC   C4B23206  25.128  16.386   7.491
 1524POPC   NC323207  30.705  22.617   9.533
 1524POPC   PO423208  30.741  23.272   9.458
 1524POPC   GL123209  30.680  22.954   9.151
 1524POPC   GL223210  31.045  22.849   9.219
 1524POPC   C1A23211  30.538  23.009   8.704
 1524POPC   D2A23212  30.576  23.121   8.253
 1524POPC   C3A23213  30.558  22.791   7.900
 1524POPC   C4A23214  30.561  22.703   7.430
 1524POPC   C1B23215  30.962  22.702   8.818
 1524POPC   C2B23216  30.972  22.815   8.399
 1524POPC   C3B23217  30.968  22.521   8.076
 1524POPC   C4B23218  31.024  22.692   7.704
 1525POPC   NC323219  39.347  29.881   9.559
 1525POPC   PO423220  38.719  29.647   9.574
 1525POPC   GL123221  39.014  29.732   9.190
 1525POPC   GL223222  39.128  30.074   9.148
 1525POPC   C1A23223  38.996  29.874   8.724
 1525POPC   D2A23224  39.005  30.151   8.367
 1525POPC   C3A23225  39.162  29.881   8.068
 1525POPC   C4A23226  39.217  29.730   7.681
 1525POPC   C1B23227  39.440  30.175   8.854
 1525POPC   C2B23228  39.496  29.950   8.499
 1525POPC   C3B23229  39.642  30.025   8.125
 1525POPC   C4B23230  39.612  30.082   7.722
 1526POPC   NC323231   5.328  42.484   9.441
 1526POPC   PO423232   5.017  42.031   9.846
 1526POPC   GL123233   4.804  42.115   9.436
 1526POPC   GL223234   4.798  42.480   9.315
 1526POPC   C1A23235   4.907  42.118   8.974
 1526POPC   D2A23236   4.841  42.048   8.515
 1526POPC   C3A23237   5.142  42.162   8.188
 1526POPC   C4A23238   5.106  42.119   7.749
 1526POPC   C1B23239   4.697  42.583   8.856
 1526POPC   C2B23240   4.562  42.516   8.402
 1526POPC   C3B23241   4.802  42.524   8.028
 1526POPC   C4B23242   4.835  42.542   7.583
 1527POPC   NC323243  25.019  42.583   9.560
 1527POPC   PO423244  25.393  42.040   9.653
 1527POPC   GL123245  25.328  42.280   9.293
 1527POPC   GL223246  24.979  42.154   9.267
 1527POPC   C1A23247  25.491  42.438   8.916
 1527POPC   D2A23248  25.379  42.403   8.491
 1527POPC   C3A23249  25.471  42.515   8.072
 1527POPC   C4A23250  25.266  42.557   7.673
 1527POPC   C1B23251  24.978  42.357   8.870
 1527POPC   C2B23252  24.937  42.159   8.488
 1527POPC   C3B23253  24.923  42.194   8.077
 1527POPC   C4B23254  24.876  42.201   7.648
 1528POPC   NC323255  36.944  27.194   9.315
 1528POPC   PO423256  36.768  27.873   9.386
 1528POPC   GL123257  36.845  27.657   9.074
 1528POPC   GL223258  37.170  27.600   9.123
 1528POPC   C1A23259  36.792  27.831   8.682
 1528POPC   D2A23260  36.578  27.685   8.329
 1528POPC   C3A23261  36.742  27.688   7.919
 1528POPC   C4A23262  36.650  27.438   7.548
 1528POPC   C1B23263  37.172  27.449   8.702
 1528POPC   C2B23264  37.096  27.663   8.329
 1528POPC   C3B23265  37.246  27.734   7.975
 1528POPC   C4B23266  37.089  27.337   7.821
 1529POPC   NC323267  20.085  38.989   9.802
 1529POPC   PO423268  19.485  39.219   9.602
 1529POPC   GL123269  19.732  39.060   9.229
 1529POPC   GL223270  20.125  38.979   9.261
 1529POPC   C1A23271  19.643  39.096   8.777
 1529POPC   D2A23272  19.776  39.145   8.339
 1529POPC   C3A23273  19.590  39.404   7.997
 1529POPC   C4A23274  19.518  39.110   7.701
 1529POPC   C1B23275  20.080  38.816   8.825
 1529POPC   C2B23276  20.283  38.739   8.407
 1529POPC   C3B23277  20.178  38.997   8.059
 1529POPC   C4B23278  20.008  39.294   7.752
 1530POPC   NC323279  24.656  38.317   9.626
 1530POPC   PO423280  24.378  38.915   9.537
 1530POPC   GL123281  24.406  38.581   9.201
 1530POPC   GL223282  24.247  38.265   9.285
 1530POPC   C1A23283  24.627  38.538   8.782
 1530POPC   D2A23284  24.767  38.732   8.414
 1530POPC   C3A23285  24.643  38.539   8.010
 1530POPC   C4A23286  24.595  38.396   7.573
 1530POPC   C1B23287  24.179  38.268   8.836
 1530POPC   C2B23288  24.361  38.291   8.418
 1530POPC   C3B23289  24.139  38.312   8.043
 1530POPC   C4B23290  24.176  38.111   7.670
 1531POPC   NC323291   6.508  36.515   9.428
 1531POPC   PO423292   7.002  36.158   9.393
 1531POPC   GL123293   6.661  36.102   9.159
 1531POPC   GL223294   6.775  36.380   9.008
 1531POPC   C1A23295   6.345  36.151   8.858
 1531POPC   D2A23296   6.197  36.037   8.474
 1531POPC   C3A23297   6.401  36.176   8.096
 1531POPC   C4A23298   6.314  36.176   7.654
 1531POPC   C1B23299   6.910  36.175   8.667
 1531POPC   C2B23300   6.994  35.853   8.379
 1531POPC   C3B23301   6.951  35.683   7.994
 1531POPC   C4B23302   6.711  35.906   7.751
 1532POPC   NC323303   9.516  18.436   9.513
 1532POPC   PO423304  10.092  18.071   9.632
 1532POPC   GL123305   9.932  18.133   9.219
 1532POPC   GL223306   9.930  18.474   9.182
 1532POPC   C1A23307   9.572  18.053   8.974
 1532POPC   D2A23308   9.494  18.079   8.541
 1532POPC   C3A23309   9.678  18.257   8.176
 1532POPC   C4A23310   9.584  18.373   7.749
 1532POPC   C1B23311   9.714  18.497   8.771
 1532POPC   C2B23312   9.787  18.757   8.399
 1532POPC   C3B23313   9.521  18.800   8.026
 1532POPC   C4B23314   9.622  18.861   7.587
 1533POPC   NC323315   0.933   1.855   9.455
 1533POPC   PO423316   1.448   2.074   9.762
 1533POPC   GL123317   1.228   2.156   9.213
 1533POPC   GL223318   0.930   2.190   9.067
 1533POPC   C1A23319   1.286   2.008   8.758
 1533POPC   D2A23320   1.094   1.729   8.465
 1533POPC   C3A23321   1.286   1.861   8.066
 1533POPC   C4A23322   1.457   1.770   7.639
 1533POPC   C1B23323   0.800   2.206   8.676
 1533POPC   C2B23324   0.855   2.132   8.283
 1533POPC   C3B23325   0.741   2.213   7.921
 1533POPC   C4B23326   1.060   2.080   7.651
 1534POPC   NC323327  21.110   9.319   9.433
 1534POPC   PO423328  21.454   9.803   9.754
 1534POPC   GL123329  21.543   9.849   9.243
 1534POPC   GL223330  21.201   9.719   9.105
 1534POPC   C1A23331  21.587   9.761   8.790
 1534POPC   D2A23332  21.473   9.388   8.571
 1534POPC   C3A23333  21.520   9.491   8.132
 1534POPC   C4A23334  21.735   9.880   7.896
 1534POPC   C1B23335  20.926   9.904   8.792
 1534POPC   C2B23336  20.791  10.064   8.399
 1534POPC   C3B23337  20.992  10.005   8.001
 1534POPC   C4B23338  21.269   9.767   7.775
 1535POPC   NC323339  22.112  11.258   9.558
 1535POPC   PO423340  22.432  10.780   9.294
 1535POPC   GL123341  22.318  11.138   9.095
 1535POPC   GL223342  21.919  11.160   9.091
 1535POPC   C1A23343  22.203  11.106   8.682
 1535POPC   D2A23344  22.003  11.324   8.393
 1535POPC   C3A23345  22.177  11.206   8.046
 1535POPC   C4A23346  22.219  11.079   7.656
 1535POPC   C1B23347  22.071  11.553   8.845
 1535POPC   C2B23348  22.066  11.830   8.488
 1535POPC   C3B23349  22.074  11.727   8.063
 1535POPC   C4B23350  22.021  11.547   7.686
 1536POPC   NC323351  30.036  18.501   9.300
 1536POPC   PO423352  29.740  19.106   9.650
 1536POPC   GL123353  29.886  19.249   9.239
 1536POPC   GL223354  30.042  18.972   9.162
 1536POPC   C1A23355  29.878  19.233   8.765
 1536POPC   D2A23356  29.723  19.039   8.393
 1536POPC   C3A23357  29.896  19.174   8.031
 1536POPC   C4A23358  29.686  19.288   7.684
 1536POPC   C1B23359  30.324  18.919   8.808
 1536POPC   C2B23360  30.259  19.011   8.393
 1536POPC   C3B23361  30.303  18.830   7.994
 1536POPC   C4B23362  30.084  18.842   7.670
 1537POPC   NC323363   9.964  15.850   9.548
 1537POPC   PO423364   9.449  16.125   9.534
 1537POPC   GL123365   9.721  15.949   9.125
 1537POPC   GL223366  10.077  15.769   9.073
 1537POPC   C1A23367   9.732  15.823   8.692
 1537POPC   D2A23368   9.488  15.872   8.347
 1537POPC   C3A23369   9.684  15.914   7.987
 1537POPC   C4A23370   9.863  16.185   7.652
 1537POPC   C1B23371  10.110  15.463   8.741
 1537POPC   C2B23372   9.925  15.479   8.314
 1537POPC   C3B23373   9.949  15.524   7.855
 1537POPC   C4B23374   9.689  15.722   7.512
 1538POPC   NC323375  21.596  10.797   9.345
 1538POPC   PO423376  21.327  11.360   9.653
 1538POPC   GL123377  21.383  11.273   9.215
 1538POPC   GL223378  21.080  11.100   9.181
 1538POPC   C1A23379  21.540  11.403   8.795
 1538POPC   D2A23380  21.498  11.224   8.378
 1538POPC   C3A23381  21.661  11.392   8.001
 1538POPC   C4A23382  21.515  11.661   7.660
 1538POPC   C1B23383  21.129  11.052   8.727
 1538POPC   C2B23384  21.108  10.911   8.294
 1538POPC   C3B23385  21.401  10.921   7.951
 1538POPC   C4B23386  21.304  11.200   7.637
 1539POPC   NC323387  44.291  21.163   9.870
 1539POPC   PO423388  44.846  21.402   9.580
 1539POPC   GL123389  44.656  21.423   9.187
 1539POPC   GL223390  44.803  21.122   9.117
 1539POPC   C1A23391  44.414  21.385   8.785
 1539POPC   D2A23392  44.502  21.366   8.361
 1539POPC   C3A23393  44.712  21.475   7.985
 1539POPC   C4A23394  44.434  21.392   7.633
 1539POPC   C1B23395  44.933  21.331   8.732
 1539POPC   C2B23396  44.931  21.109   8.349
 1539POPC   C3B23397  44.707  20.966   8.001
 1539POPC   C4B23398  44.820  21.044   7.607
 1540POPC   NC323399  33.226  40.594   9.754
 1540POPC   PO423400  32.637  40.781   9.492
 1540POPC   GL123401  32.965  40.736   9.166
 1540POPC   GL223402  33.202  41.010   9.087
 1540POPC   C1A23403  33.076  40.692   8.713
 1540POPC   D2A23404  32.859  40.795   8.311
 1540POPC   C3A23405  32.894  40.553   7.924
 1540POPC   C4A23406  33.055  40.564   7.509
 1540POPC   C1B23407  33.451  41.047   8.708
 1540POPC   C2B23408  33.302  41.049   8.287
 1540POPC   C3B23409  33.318  40.885   7.838
 1540POPC   C4B23410  33.421  40.891   7.377
 1541POPC   NC323411   8.277   7.239   9.435
 1541POPC   PO423412   8.086   7.898   9.418
 1541POPC   GL123413   8.232   7.639   9.090
 1541POPC   GL223414   8.052   7.321   8.996
 1541POPC   C1A23415   8.479   7.455   8.754
 1541POPC   D2A23416   8.470   7.232   8.360
 1541POPC   C3A23417   8.310   7.422   7.978
 1541POPC   C4A23418   8.510   7.685   7.649
 1541POPC   C1B23419   7.881   7.037   8.702
 1541POPC   C2B23420   7.975   7.082   8.273
 1541POPC   C3B23421   7.803   7.261   7.915
 1541POPC   C4B23422   7.857   7.319   7.452
 1542POPC   NC323423  15.601   2.086   9.810
 1542POPC   PO423424  16.181   2.185   9.511
 1542POPC   GL123425  16.219   1.872   9.171
 1542POPC   GL223426  15.994   1.638   9.044
 1542POPC   C1A23427  16.329   1.893   8.752
 1542POPC   D2A23428  16.335   1.719   8.341
 1542POPC   C3A23429  16.218   1.971   7.987
 1542POPC   C4A23430  15.910   2.032   7.687
 1542POPC   C1B23431  15.826   1.862   8.704
 1542POPC   C2B23432  15.822   1.818   8.272
 1542POPC   C3B23433  15.814   1.597   7.916
 1542POPC   C4B23434  15.452   1.654   7.672
 1543POPC   NC323435   5.835  14.722   9.462
 1543POPC   PO423436   5.516  14.080   9.483
 1543POPC   GL123437   5.560  14.413   9.196
 1543POPC   GL223438   5.907  14.276   9.181
 1543POPC   C1A23439   5.511  14.700   8.806
 1543POPC   D2A23440   5.425  14.461   8.409
 1543POPC   C3A23441   5.745  14.365   8.089
 1543POPC   C4A23442   5.874  14.180   7.719
 1543POPC   C1B23443   5.839  14.323   8.759
 1543POPC   C2B23444   5.966  14.642   8.446
 1543POPC   C3B23445   6.125  14.710   8.014
 1543POPC   C4B23446   6.254  14.693   7.598
 1544POPC   NC323447   5.128   1.102   9.542
 1544POPC   PO423448   5.581   1.609   9.500
 1544POPC   GL123449   5.245   1.452   9.153
 1544POPC   GL223450   5.153   1.079   9.054
 1544POPC   C1A23451   5.073   1.419   8.697
 1544POPC   D2A23452   5.314   1.334   8.307
 1544POPC   C3A23453   5.220   1.349   7.875
 1544POPC   C4A23454   5.448   1.167   7.491
 1544POPC   C1B23455   4.815   0.973   8.786
 1544POPC   C2B23456   4.855   1.059   8.364
 1544POPC   C3B23457   4.956   0.838   8.010
 1544POPC   C4B23458   5.023   0.941   7.596
 1545POPC   NC323459   6.354   3.559   9.403
 1545POPC   PO423460   6.807   3.918   9.688
 1545POPC   GL123461   6.765   3.528   9.169
 1545POPC   GL223462   6.966   3.223   9.154
 1545POPC   C1A23463   6.482   3.518   8.758
 1545POPC   D2A23464   6.285   3.384   8.355
 1545POPC   C3A23465   6.338   3.619   7.957
 1545POPC   C4A23466   6.554   3.601   7.575
 1545POPC   C1B23467   7.127   3.597   8.842
 1545POPC   C2B23468   6.869   3.735   8.506
 1545POPC   C3B23469   6.763   3.464   8.190
 1545POPC   C4B23470   6.962   3.396   7.824
 1546POPC   NC323471  16.132  42.930   9.535
 1546POPC   PO423472  15.609  43.313   9.607
 1546POPC   GL123473  15.729  43.057   9.216
 1546POPC   GL223474  16.074  43.075   9.056
 1546POPC   C1A23475  15.617  42.766   8.864
 1546POPC   D2A23476  15.499  42.710   8.432
 1546POPC   C3A23477  15.630  43.023   8.144
 1546POPC   C4A23478  15.833  43.117   7.762
 1546POPC   C1B23479  15.960  43.143   8.636
 1546POPC   C2B23480  16.112  42.924   8.283
 1546POPC   C3B23481  16.298  42.956   7.881
 1546POPC   C4B23482  16.301  43.279   7.585
 1547POPC   NC323483  24.045  41.073   9.445
 1547POPC   PO423484  23.484  40.643   9.480
 1547POPC   GL123485  23.724  40.800   9.161
 1547POPC   GL223486  23.613  41.147   9.169
 1547POPC   C1A23487  23.933  40.647   8.799
 1547POPC   D2A23488  24.202  40.659   8.430
 1547POPC   C3A23489  23.994  40.694   8.049
 1547POPC   C4A23490  23.985  40.602   7.641
 1547POPC   C1B23491  23.853  41.175   8.795
 1547POPC   C2B23492  23.976  41.244   8.383
 1547POPC   C3B23493  23.808  41.161   7.999
 1547POPC   C4B23494  23.698  41.023   7.612
 1548POPC   NC323495   7.772   8.256   9.417
 1548POPC   PO423496   8.431   8.523   9.393
 1548POPC   GL123497   8.263   8.266   9.050
 1548POPC   GL223498   7.955   8.151   8.953
 1548POPC   C1A23499   8.386   7.973   8.735
 1548POPC   D2A23500   8.195   7.727   8.400
 1548POPC   C3A23501   8.331   7.951   8.040
 1548POPC   C4A23502   8.213   8.235   7.698
 1548POPC   C1B23503   7.900   8.568   8.744
 1548POPC   C2B23504   8.167   8.713   8.389
 1548POPC   C3B23505   8.066   8.380   8.149
 1548POPC   C4B23506   7.787   8.033   8.064
 1549POPC   NC323507   1.033  17.933   9.511
 1549POPC   PO423508   1.546  18.428   9.562
 1549POPC   GL123509   1.264  18.315   9.218
 1549POPC   GL223510   0.943  18.496   9.265
 1549POPC   C1A23511   1.288  18.268   8.769
 1549POPC   D2A23512   1.511  18.241   8.364
 1549POPC   C3A23513   1.285  18.391   8.037
 1549POPC   C4A23514   1.204  18.483   7.626
 1549POPC   C1B23515   0.829  18.481   8.817
 1549POPC   C2B23516   0.978  18.609   8.398
 1549POPC   C3B23517   0.857  18.667   7.970
 1549POPC   C4B23518   0.702  18.480   7.594
 1550POPC   NC323519  38.797  27.422   9.540
 1550POPC   PO423520  39.197  27.899   9.412
 1550POPC   GL123521  39.023  27.536   9.100
 1550POPC   GL223522  38.814  27.184   9.109
 1550POPC   C1A23523  39.112  27.599   8.667
 1550POPC   D2A23524  39.308  27.881   8.384
 1550POPC   C3A23525  39.332  27.772   7.969
 1550POPC   C4A23526  39.287  28.010   7.609
 1550POPC   C1B23527  38.757  27.224   8.694
 1550POPC   C2B23528  38.984  27.216   8.311
 1550POPC   C3B23529  38.964  27.191   7.859
 1550POPC   C4B23530  39.031  27.538   7.600
 1551POPC   NC323531  44.398  42.510   9.430
 1551POPC   PO423532  43.851  42.800   9.717
 1551POPC   GL123533  43.946  42.700   9.228
 1551POPC   GL223534  44.169  42.435   8.999
 1551POPC   C1A23535  43.762  42.679   8.780
 1551POPC   D2A23536  43.545  42.770   8.369
 1551POPC   C3A23537  43.761  42.601   7.996
 1551POPC   C4A23538  44.177  42.499   7.820
 1551POPC   C1B23539  43.945  42.124   8.722
 1551POPC   C2B23540  43.780  42.131   8.295
 1551POPC   C3B23541  43.895  42.084   7.859
 1551POPC   C4B23542  43.954  41.962   7.378
 1552POPC   NC323543  22.074  18.004   9.468
 1552POPC   PO423544  21.802  18.692   9.518
 1552POPC   GL123545  21.952  18.481   9.136
 1552POPC   GL223546  22.171  18.182   9.001
 1552POPC   C1A23547  22.038  18.573   8.705
 1552POPC   D2A23548  21.983  18.552   8.284
 1552POPC   C3A23549  22.106  18.175   8.217
 1552POPC   C4A23550  22.279  18.007   7.852
 1552POPC   C1B23551  22.481  18.246   8.659
 1552POPC   C2B23552  22.626  18.214   8.227
 1552POPC   C3B23553  22.377  18.492   7.935
 1552POPC   C4B23554  22.175  18.465   7.494
 1553POPC   NC323555  39.280  37.630   9.408
 1553POPC   PO423556  39.729  38.250   9.588
 1553POPC   GL123557  39.513  38.044   9.192
 1553POPC   GL223558  39.126  37.958   9.053
 1553POPC   C1A23559  39.515  37.906   8.739
 1553POPC   D2A23560  39.407  37.550   8.448
 1553POPC   C3A23561  39.291  37.515   7.998
 1553POPC   C4A23562  39.593  37.398   7.679
 1553POPC   C1B23563  38.836  38.096   8.705
 1553POPC   C2B23564  38.796  38.116   8.248
 1553POPC   C3B23565  38.889  37.980   7.806
 1553POPC   C4B23566  39.017  37.866   7.353
 1554POPC   NC323567  36.922  33.137   9.464
 1554POPC   PO423568  36.609  32.522   9.471
 1554POPC   GL123569  36.719  32.732   9.086
 1554POPC   GL223570  37.059  32.879   9.045
 1554POPC   C1A23571  36.705  32.898   8.663
 1554POPC   D2A23572  36.733  33.264   8.388
 1554POPC   C3A23573  36.732  33.131   7.955
 1554POPC   C4A23574  36.503  32.807   7.719
 1554POPC   C1B23575  37.023  33.301   8.832
 1554POPC   C2B23576  37.219  33.480   8.480
 1554POPC   C3B23577  37.252  33.303   8.064
 1554POPC   C4B23578  37.091  33.351   7.643
 1555POPC   NC323579  41.846  37.548   9.484
 1555POPC   PO423580  41.229  37.876   9.416
 1555POPC   GL123581  41.404  37.518   9.188
 1555POPC   GL223582  41.602  37.763   9.043
 1555POPC   C1A23583  41.661  37.282   8.872
 1555POPC   D2A23584  41.827  37.360   8.456
 1555POPC   C3A23585  41.517  37.380   8.150
 1555POPC   C4A23586  41.435  37.625   7.823
 1555POPC   C1B23587  41.814  37.951   8.704
 1555POPC   C2B23588  41.712  37.836   8.276
 1555POPC   C3B23589  41.953  37.617   7.975
 1555POPC   C4B23590  42.009  37.978   7.774
 1556POPC   NC323591   7.344   5.910   9.591
 1556POPC   PO423592   7.776   5.422   9.515
 1556POPC   GL123593   7.426   5.557   9.218
 1556POPC   GL223594   7.435   5.932   9.100
 1556POPC   C1A23595   7.270   5.599   8.781
 1556POPC   D2A23596   7.382   5.819   8.442
 1556POPC   C3A23597   7.433   5.578   8.083
 1556POPC   C4A23598   7.681   5.777   7.796
 1556POPC   C1B23599   7.124   6.129   8.807
 1556POPC   C2B23600   6.939   6.107   8.391
 1556POPC   C3B23601   7.124   6.009   7.974
 1556POPC   C4B23602   7.065   6.307   7.635
 1557POPC   NC323603  36.114  30.176   9.389
 1557POPC   PO423604  36.229  29.516   9.558
 1557POPC   GL123605  36.136  29.728   9.135
 1557POPC   GL223606  36.442  29.932   9.052
 1557POPC   C1A23607  35.847  29.736   8.744
 1557POPC   D2A23608  35.948  29.569   8.316
 1557POPC   C3A23609  35.968  29.767   7.916
 1557POPC   C4A23610  35.904  30.161   7.702
 1557POPC   C1B23611  36.254  30.050   8.661
 1557POPC   C2B23612  36.146  30.150   8.231
 1557POPC   C3B23613  36.380  30.099   7.857
 1557POPC   C4B23614  36.714  30.327   7.705
 1558POPC   NC323615   2.095  29.763   9.584
 1558POPC   PO423616   1.756  30.229   9.380
 1558POPC   GL123617   1.838  29.812   9.142
 1558POPC   GL223618   2.203  29.642   9.108
 1558POPC   C1A23619   1.775  29.712   8.714
 1558POPC   D2A23620   1.690  29.988   8.360
 1558POPC   C3A23621   1.972  29.871   8.049
 1558POPC   C4A23622   2.020  29.960   7.639
 1558POPC   C1B23623   2.254  30.004   8.840
 1558POPC   C2B23624   2.375  30.227   8.453
 1558POPC   C3B23625   2.261  30.303   8.012
 1558POPC   C4B23626   2.377  30.357   7.561
 1559POPC   NC323627  13.887  14.987   9.338
 1559POPC   PO423628  13.549  15.523   9.578
 1559POPC   GL123629  13.592  15.360   9.157
 1559POPC   GL223630  13.861  15.542   9.017
 1559POPC   C1A23631  13.395  15.165   8.791
 1559POPC   D2A23632  13.358  15.317   8.379
 1559POPC   C3A23633  13.600  15.193   8.026
 1559POPC   C4A23634  13.517  14.758   7.898
 1559POPC   C1B23635  13.832  15.352   8.629
 1559POPC   C2B23636  13.798  14.937   8.429
 1559POPC   C3B23637  14.054  14.913   8.056
 1559POPC   C4B23638  14.122  15.334   7.816
 1560POPC   NC323639  32.518  24.775   9.361
 1560POPC   PO423640  32.396  24.190   9.668
 1560POPC   GL123641  32.200  24.403   9.247
 1560POPC   GL223642  31.876  24.562   9.259
 1560POPC   C1A23643  32.193  24.638   8.818
 1560POPC   D2A23644  32.392  24.539   8.424
 1560POPC   C3A23645  32.139  24.518   8.079
 1560POPC   C4A23646  32.367  24.500   7.735
 1560POPC   C1B23647  31.838  24.285   8.883
 1560POPC   C2B23648  31.988  24.172   8.473
 1560POPC   C3B23649  31.836  24.065   8.066
 1560POPC   C4B23650  32.004  24.150   7.654
 1561POPC   NC323651   6.379  29.713   9.621
 1561POPC   PO423652   6.895  30.162   9.459
 1561POPC   GL123653   6.674  29.985   9.091
 1561POPC   GL223654   6.350  29.878   9.116
 1561POPC   C1A23655   6.585  29.948   8.612
 1561POPC   D2A23656   6.834  29.988   8.232
 1561POPC   C3A23657   6.719  29.962   7.816
 1561POPC   C4A23658   6.745  30.110   7.397
 1561POPC   C1B23659   6.193  29.650   8.734
 1561POPC   C2B23660   6.110  29.792   8.325
 1561POPC   C3B23661   6.131  29.596   7.910
 1561POPC   C4B23662   6.516  29.520   7.691
 1562POPC   NC323663  34.401   7.554   9.782
 1562POPC   PO423664  35.001   7.343   9.665
 1562POPC   GL123665  34.803   7.354   9.227
 1562POPC   GL223666  34.438   7.284   9.305
 1562POPC   C1A23667  34.701   7.583   8.818
 1562POPC   D2A23668  34.818   7.519   8.417
 1562POPC   C3A23669  34.518   7.679   8.157
 1562POPC   C4A23670  34.451   7.578   7.753
 1562POPC   C1B23671  34.464   7.132   8.886
 1562POPC   C2B23672  34.372   7.250   8.447
 1562POPC   C3B23673  34.388   7.122   8.033
 1562POPC   C4B23674  34.456   7.074   7.611
 1563POPC   NC323675  25.880  41.070   9.663
 1563POPC   PO423676  26.227  41.712   9.631
 1563POPC   GL123677  26.267  41.832   9.222
 1563POPC   GL223678  25.959  41.667   9.118
 1563POPC   C1A23679  26.378  41.637   8.819
 1563POPC   D2A23680  26.117  41.705   8.470
 1563POPC   C3A23681  26.155  41.425   8.117
 1563POPC   C4A23682  26.283  41.497   7.700
 1563POPC   C1B23683  25.650  41.541   8.770
 1563POPC   C2B23684  25.680  41.500   8.308
 1563POPC   C3B23685  25.678  41.527   7.856
 1563POPC   C4B23686  25.873  41.749   7.532
 1564POPC   NC323687  36.559  25.105   9.334
 1564POPC   PO423688  37.226  25.232   9.549
 1564POPC   GL123689  37.037  25.211   9.118
 1564POPC   GL223690  37.099  24.925   8.870
 1564POPC   C1A23691  36.840  25.337   8.704
 1564POPC   D2A23692  36.985  25.242   8.269
 1564POPC   C3A23693  36.743  25.408   7.916
 1564POPC   C4A23694  36.722  25.494   7.437
 1564POPC   C1B23695  37.352  25.275   8.646
 1564POPC   C2B23696  37.517  25.416   8.247
 1564POPC   C3B23697  37.238  25.522   7.907
 1564POPC   C4B23698  37.102  25.203   7.610
 1565POPC   NC323699  41.129   2.085   9.476
 1565POPC   PO423700  41.695   1.753   9.414
 1565POPC   GL123701  41.434   1.852   9.094
 1565POPC   GL223702  41.453   2.246   9.114
 1565POPC   C1A23703  41.561   1.672   8.699
 1565POPC   D2A23704  41.847   1.875   8.426
 1565POPC   C3A23705  41.666   1.908   8.072
 1565POPC   C4A23706  41.824   2.066   7.719
 1565POPC   C1B23707  41.240   2.306   8.726
 1565POPC   C2B23708  41.176   2.185   8.268
 1565POPC   C3B23709  41.311   2.216   7.816
 1565POPC   C4B23710  41.216   2.332   7.357
 1566POPC   NC323711  42.570  19.581   9.467
 1566POPC   PO423712  42.255  20.168   9.412
 1566POPC   GL123713  42.470  19.901   9.063
 1566POPC   GL223714  42.665  19.603   8.977
 1566POPC   C1A23715  42.635  20.015   8.671
 1566POPC   D2A23716  42.417  20.214   8.333
 1566POPC   C3A23717  42.573  20.071   7.937
 1566POPC   C4A23718  42.394  19.783   7.673
 1566POPC   C1B23719  42.456  19.520   8.600
 1566POPC   C2B23720  42.423  19.575   8.154
 1566POPC   C3B23721  42.320  19.307   7.791
 1566POPC   C4B23722  42.573  19.348   7.446
 1567POPC   NC323723   4.676  12.845   9.778
 1567POPC   PO423724   4.298  12.568   9.314
 1567POPC   GL123725   4.144  12.878   9.059
 1567POPC   GL223726   4.442  12.704   8.839
 1567POPC   C1A23727   4.193  13.079   8.651
 1567POPC   D2A23728   4.503  12.893   8.346
 1567POPC   C3A23729   4.368  13.027   7.942
 1567POPC   C4A23730   4.180  12.951   7.562
 1567POPC   C1B23731   4.047  12.575   8.676
 1567POPC   C2B23732   4.009  12.750   8.273
 1567POPC   C3B23733   4.176  12.549   7.913
 1567POPC   C4B23734   4.577  12.523   7.676
 1568POPC   NC323735  21.797  23.377   9.945
 1568POPC   PO423736  21.706  22.773   9.649
 1568POPC   GL123737  21.748  22.872   9.145
 1568POPC   GL223738  22.078  23.059   9.075
 1568POPC   C1A23739  21.884  22.824   8.648
 1568POPC   D2A23740  21.851  22.700   8.184
 1568POPC   C3A23741  21.979  22.982   7.821
 1568POPC   C4A23742  21.956  23.134   7.372
 1568POPC   C1B23743  22.377  22.952   8.722
 1568POPC   C2B23744  22.339  22.656   8.374
 1568POPC   C3B23745  22.375  22.654   7.929
 1568POPC   C4B23746  22.521  22.977   7.643
 1569POPC   NC323747  34.731   9.263   9.240
 1569POPC   PO423748  34.322   8.659   9.467
 1569POPC   GL123749  34.595   8.728   9.132
 1569POPC   GL223750  34.389   8.979   9.013
 1569POPC   C1A23751  34.883   8.809   8.773
 1569POPC   D2A23752  34.861   9.017   8.354
 1569POPC   C3A23753  34.621   8.871   7.968
 1569POPC   C4A23754  34.330   9.148   7.740
 1569POPC   C1B23755  34.402   8.800   8.631
 1569POPC   C2B23756  34.399   8.546   8.314
 1569POPC   C3B23757  34.094   8.658   8.058
 1569POPC   C4B23758  33.993   8.785   7.656
 1570POPC   NC323759  29.380  24.733   9.500
 1570POPC   PO423760  29.127  24.118   9.368
 1570POPC   GL123761  29.165  24.446   9.069
 1570POPC   GL223762  29.489  24.450   9.082
 1570POPC   C1A23763  29.035  24.532   8.632
 1570POPC   D2A23764  29.039  24.261   8.265
 1570POPC   C3A23765  29.231  24.355   7.866
 1570POPC   C4A23766  29.122  24.288   7.430
 1570POPC   C1B23767  29.476  24.749   8.762
 1570POPC   C2B23768  29.393  24.757   8.320
 1570POPC   C3B23769  29.533  24.806   7.892
 1570POPC   C4B23770  29.570  24.545   7.514
 1571POPC   NC323771  39.477  42.588   9.487
 1571POPC   PO423772  39.026  42.124   9.651
 1571POPC   GL123773  39.120  42.336   9.246
 1571POPC   GL223774  39.440  42.189   9.135
 1571POPC   C1A23775  39.237  42.525   8.813
 1571POPC   D2A23776  39.304  42.322   8.405
 1571POPC   C3A23777  39.119  42.468   8.013
 1571POPC   C4A23778  39.266  42.700   7.656
 1571POPC   C1B23779  39.496  41.980   8.755
 1571POPC   C2B23780  39.616  41.868   8.348
 1571POPC   C3B23781  39.441  42.043   7.985
 1571POPC   C4B23782  39.406  42.223   7.568
 1572POPC   NC323783  44.181  41.595   9.753
 1572POPC   PO423784  44.426  42.055   9.378
 1572POPC   GL123785  44.218  41.693   9.167
 1572POPC   GL223786  43.947  41.436   9.203
 1572POPC   C1A23787  44.057  41.604   8.756
 1572POPC   D2A23788  43.791  41.644   8.431
 1572POPC   C3A23789  43.984  41.520   8.088
 1572POPC   C4A23790  44.162  41.683   7.740
 1572POPC   C1B23791  43.624  41.332   8.808
 1572POPC   C2B23792  43.429  41.300   8.361
 1572POPC   C3B23793  43.619  41.184   7.971
 1572POPC   C4B23794  43.499  41.034   7.561
 1573POPC   NC323795  37.351  31.404   9.430
 1573POPC   PO423796  36.800  31.779   9.674
 1573POPC   GL123797  36.905  31.307   9.262
 1573POPC   GL223798  36.602  31.213   9.056
 1573POPC   C1A23799  37.033  31.261   8.778
 1573POPC   D2A23800  37.215  31.419   8.372
 1573POPC   C3A23801  37.032  31.420   7.931
 1573POPC   C4A23802  37.189  31.341   7.492
 1573POPC   C1B23803  36.582  30.997   8.694
 1573POPC   C2B23804  36.789  31.114   8.316
 1573POPC   C3B23805  36.608  31.132   7.919
 1573POPC   C4B23806  36.662  31.298   7.532
 1574POPC   NC323807  22.434  10.326   9.388
 1574POPC   PO423808  21.839  10.586   9.696
 1574POPC   GL123809  21.994  10.518   9.180
 1574POPC   GL223810  21.713  10.556   8.904
 1574POPC   C1A23811  22.162  10.605   8.712
 1574POPC   D2A23812  21.922  10.800   8.345
 1574POPC   C3A23813  22.128  10.693   7.968
 1574POPC   C4A23814  22.487  10.384   7.951
 1574POPC   C1B23815  21.858  10.204   8.658
 1574POPC   C2B23816  22.038  10.271   8.232
 1574POPC   C3B23817  22.027  10.259   7.744
 1574POPC   C4B23818  21.873  10.292   7.331
 1575POPC   NC323819   5.829  34.354   9.464
 1575POPC   PO423820   5.960  34.995   9.449
 1575POPC   GL123821   5.759  34.819   9.053
 1575POPC   GL223822   5.693  34.407   8.992
 1575POPC   C1A23823   5.572  34.742   8.654
 1575POPC   D2A23824   5.702  34.393   8.417
 1575POPC   C3A23825   5.792  34.511   8.006
 1575POPC   C4A23826   5.685  34.167   7.789
 1575POPC   C1B23827   6.065  34.520   8.766
 1575POPC   C2B23828   6.260  34.343   8.395
 1575POPC   C3B23829   6.231  34.249   7.970
 1575POPC   C4B23830   6.419  34.415   7.590
 1576POPC   NC323831  27.367  22.057   9.646
 1576POPC   PO423832  27.920  22.051   9.681
 1576POPC   GL123833  27.748  21.962   9.242
 1576POPC   GL223834  27.413  22.058   9.123
 1576POPC   C1A23835  27.840  22.003   8.759
 1576POPC   D2A23836  27.955  21.900   8.295
 1576POPC   C3A23837  27.971  22.254   7.949
 1576POPC   C4A23838  27.720  22.283   7.519
 1576POPC   C1B23839  27.342  22.169   8.665
 1576POPC   C2B23840  27.523  22.166   8.226
 1576POPC   C3B23841  27.625  21.902   7.845
 1576POPC   C4B23842  27.357  21.841   7.472
 1577POPC   NC323843   4.693  40.646   9.462
 1577POPC   PO423844   4.000  40.840   9.683
 1577POPC   GL123845   4.223  40.961   9.236
 1577POPC   GL223846   4.443  40.719   9.024
 1577POPC   C1A23847   4.080  40.955   8.769
 1577POPC   D2A23848   4.366  40.842   8.418
 1577POPC   C3A23849   4.163  40.805   8.025
 1577POPC   C4A23850   4.339  40.845   7.620
 1577POPC   C1B23851   4.228  40.435   8.701
 1577POPC   C2B23852   4.146  40.339   8.252
 1577POPC   C3B23853   4.399  40.381   7.867
 1577POPC   C4B23854   4.437  40.349   7.423
 1578POPC   NC323855  21.680  36.493   9.456
 1578POPC   PO423856  22.262  36.031   9.507
 1578POPC   GL123857  22.108  36.280   9.213
 1578POPC   GL223858  21.840  36.042   9.194
 1578POPC   C1A23859  21.990  36.337   8.793
 1578POPC   D2A23860  22.069  36.150   8.387
 1578POPC   C3A23861  22.447  36.322   8.155
 1578POPC   C4A23862  22.422  36.376   7.732
 1578POPC   C1B23863  21.790  35.865   8.789
 1578POPC   C2B23864  21.568  35.881   8.410
 1578POPC   C3B23865  21.647  36.191   8.103
 1578POPC   C4B23866  21.937  36.195   7.802
 1579POPC   NC323867  21.034  35.200   9.601
 1579POPC   PO423868  21.519  35.627   9.461
 1579POPC   GL123869  21.319  35.386   9.164
 1579POPC   GL223870  21.296  35.046   9.198
 1579POPC   C1A23871  21.389  35.447   8.759
 1579POPC   D2A23872  21.644  35.351   8.451
 1579POPC   C3A23873  21.502  35.457   8.092
 1579POPC   C4A23874  21.598  35.255   7.736
 1579POPC   C1B23875  21.107  34.999   8.802
 1579POPC   C2B23876  21.158  35.192   8.382
 1579POPC   C3B23877  21.136  35.112   7.963
 1579POPC   C4B23878  21.116  35.483   7.735
 1580POPC   NC323879   9.142  27.726   9.640
 1580POPC   PO423880   8.617  27.415   9.594
 1580POPC   GL123881   8.770  27.721   9.245
 1580POPC   GL223882   9.159  27.710   9.136
 1580POPC   C1A23883   8.817  27.761   8.777
 1580POPC   D2A23884   8.911  27.667   8.363
 1580POPC   C3A23885   9.120  27.876   8.038
 1580POPC   C4A23886   8.836  27.809   7.756
 1580POPC   C1B23887   9.271  27.519   8.711
 1580POPC   C2B23888   9.383  27.461   8.228
 1580POPC   C3B23889   9.417  27.532   7.737
 1580POPC   C4B23890   9.386  27.353   7.294
 1581POPC   NC323891  14.235  27.105   9.302
 1581POPC   PO423892  14.686  26.904   9.728
 1581POPC   GL123893  14.752  26.986   9.265
 1581POPC   GL223894  14.535  26.733   9.098
 1581POPC   C1A23895  14.687  27.132   8.828
 1581POPC   D2A23896  14.430  26.899   8.509
 1581POPC   C3A23897  14.488  27.013   8.058
 1581POPC   C4A23898  14.618  26.872   7.631
 1581POPC   C1B23899  14.232  26.514   8.841
 1581POPC   C2B23900  14.221  26.409   8.410
 1581POPC   C3B23901  14.256  26.539   7.959
 1581POPC   C4B23902  14.329  26.444   7.495
 1582POPC   NC323903  16.881  12.649   9.709
 1582POPC   PO423904  16.297  12.941   9.570
 1582POPC   GL123905  16.666  12.924   9.308
 1582POPC   GL223906  16.705  12.591   9.177
 1582POPC   C1A23907  16.860  13.037   8.908
 1582POPC   D2A23908  16.712  13.054   8.461
 1582POPC   C3A23909  16.826  12.895   8.049
 1582POPC   C4A23910  16.841  12.781   7.615
 1582POPC   C1B23911  16.588  12.636   8.764
 1582POPC   C2B23912  16.614  12.535   8.350
 1582POPC   C3B23913  16.440  12.551   7.958
 1582POPC   C4B23914  16.273  12.206   7.757
 1583POPC   NC323915  17.095  17.324  10.354
 1583POPC   PO423916  16.863  17.383   9.635
 1583POPC   GL123917  16.900  17.463   9.185
 1583POPC   GL223918  17.198  17.700   9.118
 1583POPC   C1A23919  16.661  17.390   8.773
 1583POPC   D2A23920  16.533  17.646   8.383
 1583POPC   C3A23921  16.452  17.558   7.919
 1583POPC   C4A23922  16.600  17.699   7.498
 1583POPC   C1B23923  17.209  17.420   8.774
 1583POPC   C2B23924  17.007  17.321   8.411
 1583POPC   C3B23925  16.949  17.536   8.061
 1583POPC   C4B23926  16.969  17.384   7.679
 1584POPC   NC323927  26.847  18.488   9.933
 1584POPC   PO423928  27.127  17.914   9.889
 1584POPC   GL123929  27.027  18.062   9.427
 1584POPC   GL223930  26.816  18.371   9.345
 1584POPC   C1A23931  26.951  18.073   8.951
 1584POPC   D2A23932  26.887  18.191   8.488
 1584POPC   C3A23933  26.632  18.206   8.129
 1584POPC   C4A23934  26.631  18.341   7.731
 1584POPC   C1B23935  26.715  18.534   8.914
 1584POPC   C2B23936  26.453  18.464   8.542
 1584POPC   C3B23937  26.414  18.678   8.135
 1584POPC   C4B23938  26.555  18.853   7.727
 1585POPC   NC323939  15.292  29.021   9.535
 1585POPC   PO423940  15.300  29.704   9.573
 1585POPC   GL123941  15.242  29.514   9.132
 1585POPC   GL223942  15.260  29.182   9.071
 1585POPC   C1A23943  15.473  29.485   8.741
 1585POPC   D2A23944  15.364  29.352   8.359
 1585POPC   C3A23945  15.179  29.584   8.068
 1585POPC   C4A23946  15.445  29.341   7.749
 1585POPC   C1B23947  14.993  29.243   8.738
 1585POPC   C2B23948  14.969  29.048   8.367
 1585POPC   C3B23949  14.983  29.131   7.920
 1585POPC   C4B23950  14.804  29.094   7.468
 1586POPC   NC323951  20.229  23.017   9.412
 1586POPC   PO423952  20.848  23.147   9.416
 1586POPC   GL123953  20.601  22.984   9.060
 1586POPC   GL223954  20.354  22.687   9.058
 1586POPC   C1A23955  20.416  23.109   8.676
 1586POPC   D2A23956  20.401  23.109   8.225
 1586POPC   C3A23957  20.779  23.152   7.983
 1586POPC   C4A23958  21.001  22.926   7.648
 1586POPC   C1B23959  20.384  22.598   8.619
 1586POPC   C2B23960  20.359  22.588   8.213
 1586POPC   C3B23961  20.451  22.726   7.831
 1586POPC   C4B23962  20.293  22.545   7.455
 1587POPC   NC323963   6.160  16.332   9.472
 1587POPC   PO423964   5.872  15.764   9.532
 1587POPC   GL123965   5.875  15.994   9.168
 1587POPC   GL223966   6.224  15.946   9.124
 1587POPC   C1A23967   5.916  15.974   8.723
 1587POPC   D2A23968   5.839  15.700   8.375
 1587POPC   C3A23969   5.673  15.921   8.015
 1587POPC   C4A23970   5.932  16.092   7.701
 1587POPC   C1B23971   6.289  15.637   8.797
 1587POPC   C2B23972   6.358  15.597   8.366
 1587POPC   C3B23973   6.152  15.646   7.965
 1587POPC   C4B23974   6.107  15.639   7.511
 1588POPC   NC323975   9.189  21.130   9.529
 1588POPC   PO423976   8.649  21.564   9.686
 1588POPC   GL123977   8.810  21.406   9.281
 1588POPC   GL223978   8.752  21.031   9.252
 1588POPC   C1A23979   9.009  21.569   8.893
 1588POPC   D2A23980   9.127  21.422   8.495
 1588POPC   C3A23981   9.089  21.587   8.095
 1588POPC   C4A23982   9.015  21.586   7.665
 1588POPC   C1B23983   8.885  21.062   8.809
 1588POPC   C2B23984   8.710  21.179   8.359
 1588POPC   C3B23985   8.744  21.227   7.905
 1588POPC   C4B23986   8.697  21.184   7.443
 1589POPC   NC323987  34.986  24.415   9.227
 1589POPC   PO423988  34.500  24.435   9.679
 1589POPC   GL123989  34.505  24.440   9.208
 1589POPC   GL223990  34.557  24.140   9.125
 1589POPC   C1A23991  34.513  24.544   8.757
 1589POPC   D2A23992  34.830  24.561   8.378
 1589POPC   C3A23993  34.582  24.631   7.995
 1589POPC   C4A23994  34.280  24.324   7.808
 1589POPC   C1B23995  34.779  24.111   8.697
 1589POPC   C2B23996  34.961  23.904   8.342
 1589POPC   C3B23997  35.092  24.137   8.072
 1589POPC   C4B23998  34.779  24.209   7.800
 1590POPC   NC323999   1.595  25.008   9.435
 1590POPC   PO424000   1.059  25.419   9.558
 1590POPC   GL124001   1.129  25.440   9.166
 1590POPC   GL224002   0.783  25.401   9.124
 1590POPC   C1A24003   1.379  25.339   8.813
 1590POPC   D2A24004   1.310  25.138   8.412
 1590POPC   C3A24005   1.385  25.289   8.032
 1590POPC   C4A24006   1.243  25.115   7.656
 1590POPC   C1B24007   0.906  25.124   8.824
 1590POPC   C2B24008   0.822  25.293   8.452
 1590POPC   C3B24009   0.882  25.156   8.055
 1590POPC   C4B24010   0.900  25.468   7.738
 1591POPC   NC324011   6.519   1.967   9.650
 1591POPC   PO424012   7.028   2.281   9.455
 1591POPC   GL124013   6.716   2.059   9.175
 1591POPC   GL224014   6.713   1.698   9.234
 1591POPC   C1A24015   6.521   2.118   8.765
 1591POPC   D2A24016   6.817   2.175   8.412
 1591POPC   C3A24017   6.812   1.982   7.992
 1591POPC   C4A24018   6.448   2.080   7.729
 1591POPC   C1B24019   6.515   1.606   8.841
 1591POPC   C2B24020   6.581   1.712   8.429
 1591POPC   C3B24021   6.398   1.651   8.052
 1591POPC   C4B24022   6.587   1.560   7.677
 1592POPC   NC324023  14.430  17.478   9.669
 1592POPC   PO424024  14.792  17.385   9.127
 1592POPC   GL124025  14.331  17.411   9.154
 1592POPC   GL224026  14.085  17.174   9.020
 1592POPC   C1A24027  14.227  17.657   8.781
 1592POPC   D2A24028  14.478  17.662   8.416
 1592POPC   C3A24029  14.302  17.586   8.024
 1592POPC   C4A24030  14.447  17.534   7.633
 1592POPC   C1B24031  14.392  17.166   8.692
 1592POPC   C2B24032  14.519  17.154   8.282
 1592POPC   C3B24033  14.289  17.085   7.899
 1592POPC   C4B24034  14.480  17.027   7.503
 1593POPC   NC324035  42.428   4.397   9.578
 1593POPC   PO424036  41.962   3.924   9.488
 1593POPC   GL124037  42.337   3.916   9.246
 1593POPC   GL224038  42.403   4.241   9.100
 1593POPC   C1A24039  42.473   3.834   8.824
 1593POPC   D2A24040  42.410   4.159   8.530
 1593POPC   C3A24041  42.512   4.052   8.124
 1593POPC   C4A24042  42.503   4.193   7.716
 1593POPC   C1B24043  42.553   4.580   8.843
 1593POPC   C2B24044  42.409   4.691   8.451
 1593POPC   C3B24045  42.537   4.596   8.037
 1593POPC   C4B24046  42.777   4.608   7.589
 1594POPC   NC324047  41.072  32.567   9.481
 1594POPC   PO424048  40.664  33.087   9.750
 1594POPC   GL124049  40.714  32.972   9.263
 1594POPC   GL224050  40.450  32.750   9.115
 1594POPC   C1A24051  40.985  33.026   8.842
 1594POPC   D2A24052  40.836  33.209   8.406
 1594POPC   C3A24053  40.994  33.305   7.966
 1594POPC   C4A24054  41.120  32.988   7.665
 1594POPC   C1B24055  40.481  33.024   8.756
 1594POPC   C2B24056  40.341  32.933   8.363
 1594POPC   C3B24057  40.385  33.107   7.972
 1594POPC   C4B24058  40.595  33.079   7.562
 1595POPC   NC324059  42.111  30.293   9.211
 1595POPC   PO424060  42.492  30.802   9.615
 1595POPC   GL124061  42.463  30.905   9.144
 1595POPC   GL224062  42.540  30.578   9.127
 1595POPC   C1A24063  42.327  30.833   8.717
 1595POPC   D2A24064  42.407  30.869   8.280
 1595POPC   C3A24065  42.149  31.101   7.978
 1595POPC   C4A24066  42.042  30.762   7.778
 1595POPC   C1B24067  42.658  30.408   8.739
 1595POPC   C2B24068  42.720  30.311   8.315
 1595POPC   C3B24069  42.581  30.484   7.932
 1595POPC   C4B24070  42.571  30.882   7.791
 1596POPC   NC324071  26.721  37.715   9.820
 1596POPC   PO424072  26.832  38.238   9.404
 1596POPC   GL124073  26.628  37.942   9.100
 1596POPC   GL224074  26.697  37.612   9.265
 1596POPC   C1A24075  26.772  37.860   8.651
 1596POPC   D2A24076  27.073  37.625   8.356
 1596POPC   C3A24077  27.009  37.664   7.907
 1596POPC   C4A24078  26.604  37.724   7.757
 1596POPC   C1B24079  26.711  37.379   8.856
 1596POPC   C2B24080  26.617  37.390   8.400
 1596POPC   C3B24081  26.720  37.254   7.982
 1596POPC   C4B24082  26.829  37.312   7.542
 1597POPC   NC324083  33.978  12.380   9.527
 1597POPC   PO424084  33.496  11.881   9.395
 1597POPC   GL124085  33.677  12.216   9.084
 1597POPC   GL224086  34.050  12.243   9.067
 1597POPC   C1A24087  33.807  12.218   8.632
 1597POPC   D2A24088  34.085  12.381   8.308
 1597POPC   C3A24089  33.896  12.245   7.944
 1597POPC   C4A24090  34.012  12.220   7.542
 1597POPC   C1B24091  34.103  11.861   8.859
 1597POPC   C2B24092  34.209  11.897   8.438
 1597POPC   C3B24093  34.159  11.797   8.041
 1597POPC   C4B24094  34.295  11.461   7.797
 1598POPC   NC324095  43.189  31.698   9.411
 1598POPC   PO424096  42.922  32.308   9.576
 1598POPC   GL124097  43.114  32.329   9.123
 1598POPC   GL224098  43.075  31.996   8.997
 1598POPC   C1A24099  43.307  32.444   8.687
 1598POPC   D2A24100  43.372  32.141   8.305
 1598POPC   C3A24101  43.242  32.145   7.844
 1598POPC   C4A24102  43.320  31.950   7.395
 1598POPC   C1B24103  42.858  32.235   8.667
 1598POPC   C2B24104  42.899  32.349   8.205
 1598POPC   C3B24105  42.725  32.227   7.782
 1598POPC   C4B24106  42.680  32.027   7.341
 1599POPC   NC324107  26.481  11.510   9.679
 1599POPC   PO424108  26.817  11.082   9.600
 1599POPC   GL124109  26.738  11.294   9.202
 1599POPC   GL224110  26.795  11.650   9.197
 1599POPC   C1A24111  26.796  11.208   8.741
 1599POPC   D2A24112  26.949  11.045   8.326
 1599POPC   C3A24113  26.868  11.235   7.933
 1599POPC   C4A24114  26.571  11.455   7.656
 1599POPC   C1B24115  26.966  11.683   8.749
 1599POPC   C2B24116  26.803  11.578   8.328
 1599POPC   C3B24117  26.925  11.745   7.898
 1599POPC   C4B24118  26.933  11.757   7.427
 1600POPC   NC324119  20.042  43.025   9.612
 1600POPC   PO424120  19.425  43.067   9.330
 1600POPC   GL124121  19.796  43.125   9.065
 1600POPC   GL224122  20.138  43.211   9.156
 1600POPC   C1A24123  19.840  43.235   8.622
 1600POPC   D2A24124  19.816  43.030   8.230
 1600POPC   C3A24125  19.843  43.212   7.842
 1600POPC   C4A24126  19.861  43.071   7.423
 1600POPC   C1B24127  20.320  43.089   8.786
 1600POPC   C2B24128  20.303  43.257   8.393
 1600POPC   C3B24129  20.324  43.062   8.035
 1600POPC   C4B24130  20.316  43.201   7.653
 1601POPC   NC324131  14.717  24.622   9.983
 1601POPC   PO424132  14.290  24.935   9.710
 1601POPC   GL124133  14.287  24.860   9.187
 1601POPC   GL224134  13.983  24.940   8.979
 1601POPC   C1A24135  14.406  24.988   8.720
 1601POPC   D2A24136  14.362  25.075   8.277
 1601POPC   C3A24137  14.535  24.718   8.016
 1601POPC   C4A24138  14.488  24.342   7.751
 1601POPC   C1B24139  14.014  24.629   8.679
 1601POPC   C2B24140  14.077  24.639   8.232
 1601POPC   C3B24141  14.013  24.558   7.783
 1601POPC   C4B24142  13.835  24.271   7.450
 1602POPC   NC324143   9.147  42.055   9.443
 1602POPC   PO424144   9.685  41.821   9.483
 1602POPC   GL124145   9.668  42.104   9.130
 1602POPC   GL224146   9.339  42.284   9.032
 1602POPC   C1A24147   9.771  42.075   8.679
 1602POPC   D2A24148  10.059  42.001   8.356
 1602POPC   C3A24149  10.033  42.366   8.109
 1602POPC   C4A24150  10.051  42.588   7.740
 1602POPC   C1B24151   9.323  41.866   8.829
 1602POPC   C2B24152   9.427  41.788   8.403
 1602POPC   C3B24153   9.598  42.094   8.162
 1602POPC   C4B24154   9.717  42.185   7.754
 1603POPC   NC324155  19.878   0.949   9.766
 1603POPC   PO424156  19.864   0.297   9.675
 1603POPC   GL124157  19.885   0.545   9.250
 1603POPC   GL224158  19.592   0.428   9.011
 1603POPC   C1A24159  20.005   0.651   8.823
 1603POPC   D2A24160  19.686   0.492   8.514
 1603POPC   C3A24161  19.768   0.588   8.095
 1603POPC   C4A24162  19.601   0.688   7.701
 1603POPC   C1B24163  19.919   0.129   8.887
 1603POPC   C2B24164  20.103  44.917   8.510
 1603POPC   C3B24165  19.959   0.076   8.115
 1603POPC   C4B24166  19.801   0.214   7.752
 1604POPC   NC324167   7.404  14.286   9.546
 1604POPC   PO424168   7.248  13.571   9.441
 1604POPC   GL124169   7.286  13.897   9.143
 1604POPC   GL224170   7.605  13.889   9.234
 1604POPC   C1A24171   7.133  13.974   8.719
 1604POPC   D2A24172   7.156  13.987   8.271
 1604POPC   C3A24173   7.200  13.682   7.989
 1604POPC   C4A24174   7.186  13.801   7.568
 1604POPC   C1B24175   7.674  13.640   8.862
 1604POPC   C2B24176   7.535  13.684   8.454
 1604POPC   C3B24177   7.705  13.783   8.069
 1604POPC   C4B24178   7.622  13.548   7.720
 1605POPC   NC324179  27.035  44.556   9.451
 1605POPC   PO424180  26.582  44.965   9.507
 1605POPC   GL124181  26.604  44.794   9.121
 1605POPC   GL224182  26.620  44.457   9.074
 1605POPC   C1A24183  26.778  44.821   8.719
 1605POPC   D2A24184  26.846  44.600   8.362
 1605POPC   C3A24185  26.583  44.663   8.048
 1605POPC   C4A24186  26.524  44.997   7.808
 1605POPC   C1B24187  27.032  44.381   8.825
 1605POPC   C2B24188  27.142  44.154   8.452
 1605POPC   C3B24189  27.153  44.309   8.053
 1605POPC   C4B24190  26.864  44.231   7.780
 1606POPC   NC324191  38.156  28.765   9.334
 1606POPC   PO424192  38.481  28.183   9.553
 1606POPC   GL124193  38.481  28.369   9.158
 1606POPC   GL224194  38.219  28.176   9.089
 1606POPC   C1A24195  38.472  28.619   8.759
 1606POPC   D2A24196  38.740  28.619   8.404
 1606POPC   C3A24197  38.588  28.556   7.984
 1606POPC   C4A24198  38.235  28.728   7.752
 1606POPC   C1B24199  38.352  28.127   8.676
 1606POPC   C2B24200  38.312  28.298   8.303
 1606POPC   C3B24201  38.269  28.170   7.858
 1606POPC   C4B24202  37.927  28.227   7.569
 1607POPC   NC324203  11.136  27.036   9.497
 1607POPC   PO424204  11.703  26.762   9.406
 1607POPC   GL124205  11.483  26.997   9.124
 1607POPC   GL224206  11.225  26.760   9.065
 1607POPC   C1A24207  11.373  27.083   8.693
 1607POPC   D2A24208  11.175  26.787   8.392
 1607POPC   C3A24209  11.104  27.029   8.002
 1607POPC   C4A24210  11.242  26.986   7.569
 1607POPC   C1B24211  10.876  26.555   8.843
 1607POPC   C2B24212  10.868  26.309   8.476
 1607POPC   C3B24213  11.051  26.360   8.079
 1607POPC   C4B24214  10.932  26.617   7.756
 1608POPC   NC324215   6.913  18.461   9.400
 1608POPC   PO424216   6.298  18.770   9.397
 1608POPC   GL124217   6.323  18.395   9.178
 1608POPC   GL224218   6.643  18.216   9.039
 1608POPC   C1A24219   6.257  18.328   8.747
 1608POPC   D2A24220   6.469  18.150   8.421
 1608POPC   C3A24221   6.468  18.409   8.066
 1608POPC   C4A24222   6.549  18.227   7.684
 1608POPC   C1B24223   6.791  18.432   8.674
 1608POPC   C2B24224   6.951  18.483   8.278
 1608POPC   C3B24225   6.953  18.520   7.841
 1608POPC   C4B24226   7.029  18.222   7.539
 1609POPC   NC324227   4.806  15.912   9.481
 1609POPC   PO424228   4.266  16.267   9.447
 1609POPC   GL124229   4.425  15.971   9.145
 1609POPC   GL224230   4.101  16.045   8.999
 1609POPC   C1A24231   4.416  15.724   8.778
 1609POPC   D2A24232   4.252  15.911   8.445
 1609POPC   C3A24233   4.331  15.761   8.058
 1609POPC   C4A24234   4.267  15.866   7.661
 1609POPC   C1B24235   4.071  16.331   8.686
 1609POPC   C2B24236   3.947  16.255   8.252
 1609POPC   C3B24237   4.247  16.304   7.923
 1609POPC   C4B24238   4.149  16.509   7.521
 1610POPC   NC324239   8.491  44.720  10.194
 1610POPC   PO424240   8.187  44.568   9.609
 1610POPC   GL124241   8.080  44.598   9.166
 1610POPC   GL224242   8.399  44.550   9.055
 1610POPC   C1A24243   7.949  44.691   8.719
 1610POPC   D2A24244   7.992  44.547   8.270
 1610POPC   C3A24245   8.227  44.834   7.950
 1610POPC   C4A24246   8.244   0.088   7.552
 1610POPC   C1B24247   8.308  44.327   8.686
 1610POPC   C2B24248   8.293  44.143   8.306
 1610POPC   C3B24249   8.302  44.321   7.893
 1610POPC   C4B24250   8.645  44.599   7.740
 1611POPC   NC324251  37.237  43.850   9.442
 1611POPC   PO424252  36.985  44.492   9.499
 1611POPC   GL124253  36.746  44.257   9.211
 1611POPC   GL224254  36.961  43.988   9.029
 1611POPC   C1A24255  36.690  44.344   8.775
 1611POPC   D2A24256  36.610  44.070   8.427
 1611POPC   C3A24257  36.834  44.087   8.031
 1611POPC   C4A24258  36.730  43.979   7.611
 1611POPC   C1B24259  37.254  43.681   8.784
 1611POPC   C2B24260  37.326  43.533   8.375
 1611POPC   C3B24261  37.216  43.619   7.952
 1611POPC   C4B24262  37.469  43.683   7.608
 1612POPC   NC324263  43.083  38.042   9.468
 1612POPC   PO424264  43.258  37.349   9.568
 1612POPC   GL124265  43.258  37.523   9.174
 1612POPC   GL224266  43.576  37.625   9.092
 1612POPC   C1A24267  43.055  37.577   8.780
 1612POPC   D2A24268  42.773  37.806   8.480
 1612POPC   C3A24269  42.852  37.680   8.054
 1612POPC   C4A24270  42.957  37.601   7.593
 1612POPC   C1B24271  43.571  37.796   8.690
 1612POPC   C2B24272  43.283  37.793   8.365
 1612POPC   C3B24273  43.336  37.724   7.930
 1612POPC   C4B24274  43.427  38.042   7.642
 1613POPC   NC324275   8.286   2.634   9.804
 1613POPC   PO424276   8.406   3.154   9.447
 1613POPC   GL124277   8.230   2.757   9.243
 1613POPC   GL224278   7.912   2.823   9.130
 1613POPC   C1A24279   8.155   2.586   8.780
 1613POPC   D2A24280   8.005   2.829   8.417
 1613POPC   C3A24281   8.270   2.872   8.071
 1613POPC   C4A24282   8.655   2.887   7.883
 1613POPC   C1B24283   7.721   3.033   8.790
 1613POPC   C2B24284   7.662   3.230   8.395
 1613POPC   C3B24285   7.904   3.220   8.022
 1613POPC   C4B24286   8.152   3.156   7.655
 1614POPC   NC324287  27.013  31.373   9.466
 1614POPC   PO424288  26.598  31.916   9.560
 1614POPC   GL124289  26.671  31.589   9.149
 1614POPC   GL224290  26.975  31.486   8.987
 1614POPC   C1A24291  26.528  31.344   8.764
 1614POPC   D2A24292  26.694  31.107   8.415
 1614POPC   C3A24293  26.662  31.318   8.046
 1614POPC   C4A24294  26.628  31.498   7.628
 1614POPC   C1B24295  27.088  31.702   8.661
 1614POPC   C2B24296  26.944  31.785   8.235
 1614POPC   C3B24297  27.087  31.545   7.875
 1614POPC   C4B24298  27.124  31.477   7.443
 1615POPC   NC324299  21.729  43.888   9.414
 1615POPC   PO424300  21.257  43.563   9.779
 1615POPC   GL124301  21.218  43.714   9.317
 1615POPC   GL224302  20.922  43.655   9.128
 1615POPC   C1A24303  21.206  44.032   8.919
 1615POPC   D2A24304  21.182  44.199   8.465
 1615POPC   C3A24305  21.397  44.084   8.075
 1615POPC   C4A24306  21.550  43.885   7.707
 1615POPC   C1B24307  21.195  43.518   8.775
 1615POPC   C2B24308  21.299  43.635   8.334
 1615POPC   C3B24309  21.115  43.671   7.912
 1615POPC   C4B24310  21.193  43.501   7.487
 1616POPC   NC324311   9.700  39.419   9.808
 1616POPC   PO424312   9.752  38.760   9.558
 1616POPC   GL124313   9.763  39.064   9.268
 1616POPC   GL224314   9.435  39.236   9.389
 1616POPC   C1A24315   9.893  39.099   8.812
 1616POPC   D2A24316   9.950  39.293   8.380
 1616POPC   C3A24317   9.898  39.079   8.007
 1616POPC   C4A24318   9.915  39.416   7.757
 1616POPC   C1B24319   9.412  39.190   8.929
 1616POPC   C2B24320   9.515  39.442   8.571
 1616POPC   C3B24321   9.523  39.416   8.117
 1616POPC   C4B24322   9.456  39.170   7.747
 1617POPC   NC324323  22.484   1.549   9.558
 1617POPC   PO424324  22.191   1.018   9.548
 1617POPC   GL124325  22.439   1.112   9.227
 1617POPC   GL224326  22.208   1.387   9.153
 1617POPC   C1A24327  22.518   1.182   8.795
 1617POPC   D2A24328  22.234   1.110   8.485
 1617POPC   C3A24329  22.332   1.301   8.142
 1617POPC   C4A24330  22.261   1.117   7.784
 1617POPC   C1B24331  21.926   1.387   8.810
 1617POPC   C2B24332  21.934   1.542   8.374
 1617POPC   C3B24333  21.842   1.278   8.016
 1617POPC   C4B24334  21.815   1.334   7.554
 1618POPC   NC324335  38.638  10.509   9.462
 1618POPC   PO424336  38.114  10.057   9.662
 1618POPC   GL124337  38.149  10.341   9.271
 1618POPC   GL224338  37.831  10.349   9.096
 1618POPC   C1A24339  38.251  10.499   8.835
 1618POPC   D2A24340  38.553  10.437   8.488
 1618POPC   C3A24341  38.582  10.657   8.098
 1618POPC   C4A24342  38.462  10.814   7.732
 1618POPC   C1B24343  37.935  10.076   8.763
 1618POPC   C2B24344  38.124  10.059   8.365
 1618POPC   C3B24345  38.136  10.417   8.159
 1618POPC   C4B24346  38.068  10.508   7.790
 1619POPC   NC324347  10.352  22.433   9.458
 1619POPC   PO424348  10.583  21.809   9.647
 1619POPC   GL124349  10.552  21.954   9.243
 1619POPC   GL224350  10.767  22.236   9.194
 1619POPC   C1A24351  10.482  22.016   8.800
 1619POPC   D2A24352  10.675  22.064   8.382
 1619POPC   C3A24353  10.426  22.277   8.081
 1619POPC   C4A24354  10.299  22.033   7.726
 1619POPC   C1B24355  10.813  22.410   8.783
 1619POPC   C2B24356  10.786  22.569   8.359
 1619POPC   C3B24357  10.959  22.433   7.985
 1619POPC   C4B24358  10.799  22.080   7.801
 1620POPC   NC324359  27.916  15.315   9.529
 1620POPC   PO424360  27.316  14.994   9.388
 1620POPC   GL124361  27.639  15.147   9.111
 1620POPC   GL224362  27.652  15.478   9.099
 1620POPC   C1A24363  27.709  15.225   8.656
 1620POPC   D2A24364  27.452  15.019   8.353
 1620POPC   C3A24365  27.619  14.917   7.942
 1620POPC   C4A24366  28.060  14.845   7.803
 1620POPC   C1B24367  27.312  15.524   8.792
 1620POPC   C2B24368  27.447  15.551   8.308
 1620POPC   C3B24369  27.736  15.465   7.941
 1620POPC   C4B24370  27.830  15.578   7.480
 1621POPC   NC324371  28.664  17.024   9.413
 1621POPC   PO424372  28.156  17.592   9.401
 1621POPC   GL124373  28.433  17.453   9.127
 1621POPC   GL224374  28.174  17.247   9.005
 1621POPC   C1A24375  28.473  17.636   8.710
 1621POPC   D2A24376  28.293  17.817   8.321
 1621POPC   C3A24377  28.468  17.668   7.893
 1621POPC   C4A24378  28.472  17.665   7.426
 1621POPC   C1B24379  28.478  17.109   8.735
 1621POPC   C2B24380  28.565  17.258   8.340
 1621POPC   C3B24381  28.384  17.116   7.980
 1621POPC   C4B24382  28.475  17.203   7.583
 1622POPC   NC324383  23.384  37.023   9.443
 1622POPC   PO424384  22.766  37.017   9.562
 1622POPC   GL124385  22.925  36.749   9.236
 1622POPC   GL224386  23.006  37.019   9.071
 1622POPC   C1A24387  23.003  36.583   8.792
 1622POPC   D2A24388  22.805  36.629   8.393
 1622POPC   C3A24389  22.935  36.546   8.008
 1622POPC   C4A24390  22.801  36.647   7.558
 1622POPC   C1B24391  23.202  37.054   8.694
 1622POPC   C2B24392  23.335  37.209   8.334
 1622POPC   C3B24393  23.194  37.006   8.023
 1622POPC   C4B24394  23.028  37.070   7.667
 1623POPC   NC324395   6.083  10.051   9.613
 1623POPC   PO424396   6.160   9.420   9.446
 1623POPC   GL124397   5.944   9.782   9.224
 1623POPC   GL224398   6.242  10.024   9.130
 1623POPC   C1A24399   5.774   9.908   8.849
 1623POPC   D2A24400   5.665   9.677   8.497
 1623POPC   C3A24401   5.803   9.730   8.046
 1623POPC   C4A24402   5.814   9.903   7.612
 1623POPC   C1B24403   6.232   9.686   8.829
 1623POPC   C2B24404   6.202   9.683   8.415
 1623POPC   C3B24405   6.284   9.959   8.111
 1623POPC   C4B24406   6.328   9.830   7.722
 1624POPC   NC324407   6.078  17.197   9.492
 1624POPC   PO424408   5.752  16.574   9.504
 1624POPC   GL124409   5.746  16.676   9.117
 1624POPC   GL224410   5.745  17.027   9.133
 1624POPC   C1A24411   5.775  16.512   8.705
 1624POPC   D2A24412   5.907  16.294   8.331
 1624POPC   C3A24413   5.704  16.443   7.993
 1624POPC   C4A24414   5.873  16.604   7.670
 1624POPC   C1B24415   5.961  17.006   8.787
 1624POPC   C2B24416   5.803  17.022   8.410
 1624POPC   C3B24417   5.982  16.884   8.061
 1624POPC   C4B24418   5.877  17.093   7.670
 1625POPC   NC324419  19.332  41.768   9.443
 1625POPC   PO424420  18.705  41.665   9.275
 1625POPC   GL124421  19.095  41.510   9.057
 1625POPC   GL224422  19.340  41.793   8.937
 1625POPC   C1A24423  19.064  41.223   8.712
 1625POPC   D2A24424  18.917  41.268   8.302
 1625POPC   C3A24425  19.202  41.444   7.996
 1625POPC   C4A24426  19.271  41.360   7.557
 1625POPC   C1B24427  18.983  41.857   8.631
 1625POPC   C2B24428  18.882  41.809   8.168
 1625POPC   C3B24429  18.824  41.688   7.720
 1625POPC   C4B24430  18.880  41.849   7.279
 1626POPC   NC324431  24.872  37.466   9.328
 1626POPC   PO424432  24.389  37.921   9.651
 1626POPC   GL124433  24.605  37.892   9.258
 1626POPC   GL224434  24.423  37.629   9.080
 1626POPC   C1A24435  24.611  37.998   8.794
 1626POPC   D2A24436  24.563  37.794   8.373
 1626POPC   C3A24437  24.579  38.021   7.994
 1626POPC   C4A24438  24.578  37.817   7.602
 1626POPC   C1B24439  24.642  37.450   8.734
 1626POPC   C2B24440  24.727  37.259   8.356
 1626POPC   C3B24441  24.668  37.401   7.936
 1626POPC   C4B24442  24.680  37.335   7.463
 1627POPC   NC324443  16.610   6.625   9.709
 1627POPC   PO424444  16.449   6.422   9.124
 1627POPC   GL124445  16.890   6.433   9.011
 1627POPC   GL224446  17.035   6.753   9.112
 1627POPC   C1A24447  16.908   6.292   8.593
 1627POPC   D2A24448  16.589   6.489   8.333
 1627POPC   C3A24449  16.689   6.373   7.939
 1627POPC   C4A24450  16.629   6.334   7.513
 1627POPC   C1B24451  16.867   6.813   8.664
 1627POPC   C2B24452  16.921   6.839   8.171
 1627POPC   C3B24453  16.859   6.804   7.691
 1627POPC   C4B24454  16.998   7.013   7.284
 1628POPC   NC324455   1.896  14.781   9.309
 1628POPC   PO424456   2.179  15.419   9.452
 1628POPC   GL124457   2.351  15.430   9.082
 1628POPC   GL224458   2.390  15.050   9.119
 1628POPC   C1A24459   2.224  15.622   8.707
 1628POPC   D2A24460   1.848  15.540   8.484
 1628POPC   C3A24461   1.980  15.594   8.067
 1628POPC   C4A24462   2.027  15.475   7.667
 1628POPC   C1B24463   2.087  15.116   8.755
 1628POPC   C2B24464   1.914  15.065   8.343
 1628POPC   C3B24465   1.788  15.107   7.962
 1628POPC   C4B24466   1.542  14.791   7.775
 1629POPC   NC324467  34.028  15.601   9.434
 1629POPC   PO424468  33.672  16.176   9.464
 1629POPC   GL124469  33.669  15.862   9.135
 1629POPC   GL224470  33.448  15.594   8.998
 1629POPC   C1A24471  33.597  16.030   8.730
 1629POPC   D2A24472  33.920  16.168   8.473
 1629POPC   C3A24473  33.796  16.138   8.063
 1629POPC   C4A24474  33.789  15.980   7.666
 1629POPC   C1B24475  33.826  15.568   8.735
 1629POPC   C2B24476  33.841  15.673   8.301
 1629POPC   C3B24477  33.477  15.708   8.003
 1629POPC   C4B24478  33.550  15.542   7.592
 1630POPC   NC324479   6.321  43.107   9.678
 1630POPC   PO424480   6.455  43.426   9.147
 1630POPC   GL124481   6.707  43.169   8.883
 1630POPC   GL224482   6.896  42.873   9.027
 1630POPC   C1A24483   6.821  43.077   8.525
 1630POPC   D2A24484   6.490  43.064   8.283
 1630POPC   C3A24485   6.616  43.177   7.876
 1630POPC   C4A24486   6.618  43.138   7.455
 1630POPC   C1B24487   6.559  42.700   8.757
 1630POPC   C2B24488   6.522  42.518   8.373
 1630POPC   C3B24489   6.595  42.674   7.963
 1630POPC   C4B24490   6.405  42.686   7.569
 1631POPC   NC324491  43.912  26.413   9.905
 1631POPC   PO424492  43.660  25.981   9.311
 1631POPC   GL124493  44.092  26.069   9.231
 1631POPC   GL224494  44.295  25.776   9.269
 1631POPC   C1A24495  44.158  26.162   8.785
 1631POPC   D2A24496  44.152  26.442   8.368
 1631POPC   C3A24497  43.957  26.358   7.940
 1631POPC   C4A24498  43.865  26.280   7.479
 1631POPC   C1B24499  44.421  25.684   8.853
 1631POPC   C2B24500  44.199  25.679   8.458
 1631POPC   C3B24501  44.086  25.841   8.037
 1631POPC   C4B24502  43.962  25.786   7.572
 1632POPC   NC324503   0.996  34.839   9.585
 1632POPC   PO424504   1.602  34.677   9.499
 1632POPC   GL124505   1.421  34.472   9.165
 1632POPC   GL224506   1.075  34.456   9.257
 1632POPC   C1A24507   1.464  34.631   8.755
 1632POPC   D2A24508   1.236  34.567   8.400
 1632POPC   C3A24509   1.468  34.695   8.070
 1632POPC   C4A24510   1.666  34.386   7.845
 1632POPC   C1B24511   0.958  34.610   8.860
 1632POPC   C2B24512   0.755  34.418   8.507
 1632POPC   C3B24513   0.853  34.359   8.116
 1632POPC   C4B24514   1.070  34.523   7.793
 1633POPC   NC324515  30.498   7.496   9.574
 1633POPC   PO424516  30.280   6.910   9.446
 1633POPC   GL124517  30.516   7.086   9.026
 1633POPC   GL224518  30.766   7.371   9.139
 1633POPC   C1A24519  30.894   7.124   8.727
 1633POPC   D2A24520  31.203   7.254   8.426
 1633POPC   C3A24521  30.951   7.209   8.037
 1633POPC   C4A24522  30.483   7.182   7.912
 1633POPC   C1B24523  30.923   7.627   8.761
 1633POPC   C2B24524  31.064   7.722   8.307
 1633POPC   C3B24525  30.936   7.695   7.849
 1633POPC   C4B24526  30.604   7.754   7.479
 1634POPC   NC324527  13.840   5.222   9.464
 1634POPC   PO424528  13.091   5.041   9.607
 1634POPC   GL124529  13.434   4.941   9.272
 1634POPC   GL224530  13.469   5.249   9.064
 1634POPC   C1A24531  13.608   4.827   8.836
 1634POPC   D2A24532  13.495   5.139   8.545
 1634POPC   C3A24533  13.495   5.092   8.144
 1634POPC   C4A24534  13.519   5.218   7.715
 1634POPC   C1B24535  13.855   5.386   8.790
 1634POPC   C2B24536  13.925   5.384   8.305
 1634POPC   C3B24537  13.949   5.093   7.941
 1634POPC   C4B24538  13.702   4.714   7.795
 1635POPC   NC324539  27.780  44.611   9.781
 1635POPC   PO424540  27.240   0.007   9.564
 1635POPC   GL124541  27.506  44.700   9.290
 1635POPC   GL224542  27.849  44.528   9.237
 1635POPC   C1A24543  27.528  44.702   8.837
 1635POPC   D2A24544  27.329  44.652   8.451
 1635POPC   C3A24545  27.494  44.710   8.037
 1635POPC   C4A24546  27.591  44.370   7.772
 1635POPC   C1B24547  27.982  44.447   8.797
 1635POPC   C2B24548  27.813  44.400   8.363
 1635POPC   C3B24549  28.026  44.569   7.966
 1635POPC   C4B24550  28.106   0.001   7.819
 1636POPC   NC324551  21.150  24.535   9.519
 1636POPC   PO424552  21.715  24.880   9.541
 1636POPC   GL124553  21.405  24.814   9.179
 1636POPC   GL224554  21.531  24.473   9.171
 1636POPC   C1A24555  21.143  24.523   8.857
 1636POPC   D2A24556  21.229  24.210   8.515
 1636POPC   C3A24557  21.133  24.319   8.053
 1636POPC   C4A24558  21.242  24.698   7.824
 1636POPC   C1B24559  21.619  24.631   8.740
 1636POPC   C2B24560  21.483  24.615   8.294
 1636POPC   C3B24561  21.692  24.489   7.897
 1636POPC   C4B24562  21.956  24.789   7.696
 1637POPC   NC324563  43.832  40.198   9.496
 1637POPC   PO424564  43.453  39.617   9.408
 1637POPC   GL124565  43.799  39.787   9.171
 1637POPC   GL224566  44.102  39.695   9.101
 1637POPC   C1A24567  43.875  40.103   8.824
 1637POPC   D2A24568  43.842  40.333   8.414
 1637POPC   C3A24569  43.639  40.207   8.009
 1637POPC   C4A24570  43.886  40.166   7.658
 1637POPC   C1B24571  44.282  39.776   8.753
 1637POPC   C2B24572  44.129  39.666   8.401
 1637POPC   C3B24573  44.015  39.862   8.057
 1637POPC   C4B24574  44.159  39.672   7.729
 1638POPC   NC324575   9.738  12.467   9.552
 1638POPC   PO424576   9.350  11.953   9.572
 1638POPC   GL124577   9.561  11.942   9.171
 1638POPC   GL224578   9.807  12.194   9.110
 1638POPC   C1A24579   9.623  11.844   8.706
 1638POPC   D2A24580   9.687  12.062   8.296
 1638POPC   C3A24581   9.596  12.009   7.832
 1638POPC   C4A24582   9.754  11.798   7.448
 1638POPC   C1B24583   9.738  12.394   8.704
 1638POPC   C2B24584   9.671  12.592   8.312
 1638POPC   C3B24585   9.917  12.592   7.916
 1638POPC   C4B24586   9.899  12.320   7.523
 1639POPC   NC324587  17.835   7.828   9.542
 1639POPC   PO424588  17.491   8.414   9.401
 1639POPC   GL124589  17.580   8.532   8.981
 1639POPC   GL224590  17.866   8.357   8.823
 1639POPC   C1A24591  17.412   8.436   8.579
 1639POPC   D2A24592  17.675   8.245   8.307
 1639POPC   C3A24593  17.523   8.193   7.942
 1639POPC   C4A24594  17.186   8.167   7.721
 1639POPC   C1B24595  17.793   7.911   8.687
 1639POPC   C2B24596  17.755   7.733   8.253
 1639POPC   C3B24597  17.942   7.947   7.869
 1639POPC   C4B24598  17.768   7.872   7.462
 1640POPC   NC324599  39.178  23.732   9.664
 1640POPC   PO424600  39.639  23.901   9.227
 1640POPC   GL124601  39.395  23.909   8.946
 1640POPC   GL224602  39.040  23.776   9.085
 1640POPC   C1A24603  39.464  24.019   8.568
 1640POPC   D2A24604  39.190  23.925   8.293
 1640POPC   C3A24605  39.445  23.750   7.992
 1640POPC   C4A24606  39.694  23.967   7.743
 1640POPC   C1B24607  39.147  23.566   8.676
 1640POPC   C2B24608  39.051  23.414   8.296
 1640POPC   C3B24609  38.955  23.640   7.963
 1640POPC   C4B24610  39.101  23.448   7.641
 1641POPC   NC324611  44.811  33.539   9.451
 1641POPC   PO424612  44.673  34.147   9.536
 1641POPC   GL124613  44.678  33.951   9.142
 1641POPC   GL224614  44.411  33.753   9.180
 1641POPC   C1A24615  44.827  34.025   8.713
 1641POPC   D2A24616  44.652  33.910   8.353
 1641POPC   C3A24617  44.900  33.997   8.029
 1641POPC   C4A24618  44.754  33.820   7.686
 1641POPC   C1B24619  44.292  33.693   8.777
 1641POPC   C2B24620  44.409  33.466   8.411
 1641POPC   C3B24621  44.395  33.579   7.986
 1641POPC   C4B24622  44.534  33.362   7.604
 1642POPC   NC324623   4.593  42.874   9.593
 1642POPC   PO424624   4.172  43.322   9.735
 1642POPC   GL124625   4.168  43.082   9.302
 1642POPC   GL224626   4.375  42.821   9.158
 1642POPC   C1A24627   4.187  43.202   8.842
 1642POPC   D2A24628   4.239  43.507   8.486
 1642POPC   C3A24629   4.197  43.352   8.063
 1642POPC   C4A24630   3.982  43.045   7.811
 1642POPC   C1B24631   4.690  43.086   8.944
 1642POPC   C2B24632   4.612  43.029   8.526
 1642POPC   C3B24633   4.549  42.980   8.087
 1642POPC   C4B24634   4.407  42.749   7.751
 1643POPC   NC324635  23.342  26.283   9.530
 1643POPC   PO424636  24.067  26.043   9.438
 1643POPC   GL124637  23.715  26.209   9.174
 1643POPC   GL224638  23.396  26.023   9.090
 1643POPC   C1A24639  23.794  26.460   8.808
 1643POPC   D2A24640  23.819  26.470   8.347
 1643POPC   C3A24641  23.828  26.088   8.028
 1643POPC   C4A24642  23.960  26.121   7.573
 1643POPC   C1B24643  23.641  25.952   8.717
 1643POPC   C2B24644  23.543  25.771   8.328
 1643POPC   C3B24645  23.307  25.806   7.969
 1643POPC   C4B24646  23.393  26.057   7.642
 1644POPC   NC324647  32.455  20.087   9.539
 1644POPC   PO424648  31.939  19.678   9.407
 1644POPC   GL124649  32.142  19.984   9.103
 1644POPC   GL224650  32.506  19.962   9.065
 1644POPC   C1A24651  32.209  19.934   8.636
 1644POPC   D2A24652  31.978  19.890   8.212
 1644POPC   C3A24653  32.179  19.835   7.796
 1644POPC   C4A24654  32.245  19.975   7.359
 1644POPC   C1B24655  32.764  20.006   8.734
 1644POPC   C2B24656  32.674  20.065   8.323
 1644POPC   C3B24657  32.668  19.797   7.976
 1644POPC   C4B24658  32.674  19.995   7.611
 1645POPC   NC324659  36.157  25.013   9.714
 1645POPC   PO424660  35.816  25.466   9.404
 1645POPC   GL124661  36.074  25.297   9.118
 1645POPC   GL224662  36.085  24.986   9.177
 1645POPC   C1A24663  35.945  25.237   8.699
 1645POPC   D2A24664  35.711  25.218   8.318
 1645POPC   C3A24665  35.899  25.363   7.930
 1645POPC   C4A24666  36.294  25.418   7.705
 1645POPC   C1B24667  36.344  24.889   8.788
 1645POPC   C2B24668  36.574  24.957   8.418
 1645POPC   C3B24669  36.438  24.958   7.985
 1645POPC   C4B24670  36.093  24.959   7.678
 1646POPC   NC324671  11.430  16.948   9.745
 1646POPC   PO424672  10.884  16.612   9.579
 1646POPC   GL124673  11.282  16.686   9.260
 1646POPC   GL224674  11.189  16.929   8.962
 1646POPC   C1A24675  11.641  16.733   8.918
 1646POPC   D2A24676  11.648  17.008   8.526
 1646POPC   C3A24677  11.540  16.852   8.099
 1646POPC   C4A24678  11.548  16.533   7.744
 1646POPC   C1B24679  11.227  16.488   8.742
 1646POPC   C2B24680  11.283  16.394   8.299
 1646POPC   C3B24681  11.034  16.612   7.995
 1646POPC   C4B24682  10.690  16.380   7.790
 1647POPC   NC324683   4.066   6.753   9.795
 1647POPC   PO424684   4.605   6.360   9.587
 1647POPC   GL124685   4.336   6.523   9.222
 1647POPC   GL224686   4.102   6.784   9.255
 1647POPC   C1A24687   4.302   6.463   8.755
 1647POPC   D2A24688   4.583   6.336   8.387
 1647POPC   C3A24689   4.446   6.581   8.062
 1647POPC   C4A24690   4.065   6.529   7.796
 1647POPC   C1B24691   4.145   6.961   8.836
 1647POPC   C2B24692   4.096   6.802   8.407
 1647POPC   C3B24693   4.125   7.004   8.012
 1647POPC   C4B24694   4.422   6.926   7.701
 1648POPC   NC324695  43.416  36.173   9.502
 1648POPC   PO424696  42.935  35.833   9.393
 1648POPC   GL124697  43.220  35.990   9.059
 1648POPC   GL224698  43.123  36.361   9.130
 1648POPC   C1A24699  43.309  35.891   8.601
 1648POPC   D2A24700  42.967  35.987   8.288
 1648POPC   C3A24701  43.118  35.915   7.876
 1648POPC   C4A24702  43.374  35.865   7.490
 1648POPC   C1B24703  43.062  36.332   8.695
 1648POPC   C2B24704  43.329  36.364   8.349
 1648POPC   C3B24705  43.082  36.456   8.004
 1648POPC   C4B24706  42.893  36.315   7.659
 1649POPC   NC324707  37.462  25.523   9.234
 1649POPC   PO424708  37.506  26.134   9.518
 1649POPC   GL124709  37.749  25.976   9.092
 1649POPC   GL224710  37.996  26.256   9.066
 1649POPC   C1A24711  37.727  25.748   8.674
 1649POPC   D2A24712  37.412  25.901   8.388
 1649POPC   C3A24713  37.578  25.895   7.987
 1649POPC   C4A24714  37.556  26.047   7.587
 1649POPC   C1B24715  37.823  26.246   8.664
 1649POPC   C2B24716  37.948  26.104   8.288
 1649POPC   C3B24717  37.923  26.279   7.890
 1649POPC   C4B24718  38.058  26.214   7.463
 1650POPC   NC324719  42.246   0.868   9.634
 1650POPC   PO424720  42.503   1.517   9.554
 1650POPC   GL124721  42.253   1.335   9.207
 1650POPC   GL224722  42.112   1.021   9.179
 1650POPC   C1A24723  42.432   1.332   8.796
 1650POPC   D2A24724  42.719   1.346   8.469
 1650POPC   C3A24725  42.554   1.347   8.036
 1650POPC   C4A24726  42.643   1.214   7.608
 1650POPC   C1B24727  42.300   0.853   8.817
 1650POPC   C2B24728  42.335   1.018   8.389
 1650POPC   C3B24729  42.302   0.887   7.951
 1650POPC   C4B24730  42.148   1.128   7.597
 1651POPC   NC324731  37.669  24.988   9.525
 1651POPC   PO424732  38.022  25.549   9.349
 1651POPC   GL124733  38.011  25.239   9.041
 1651POPC   GL224734  37.684  25.105   9.014
 1651POPC   C1A24735  37.918  25.273   8.578
 1651POPC   D2A24736  38.101  25.287   8.169
 1651POPC   C3A24737  37.903  25.522   7.858
 1651POPC   C4A24738  37.610  25.223   7.756
 1651POPC   C1B24739  37.609  24.846   8.652
 1651POPC   C2B24740  37.256  24.760   8.400
 1651POPC   C3B24741  37.289  24.910   8.011
 1651POPC   C4B24742  37.428  24.776   7.626
 1652POPC   NC324743   6.229  13.059   9.329
 1652POPC   PO424744   6.831  12.663   9.494
 1652POPC   GL124745   6.616  12.794   9.141
 1652POPC   GL224746   6.890  12.702   8.949
 1652POPC   C1A24747   6.603  13.071   8.742
 1652POPC   D2A24748   6.840  12.955   8.358
 1652POPC   C3A24749   6.649  12.944   7.938
 1652POPC   C4A24750   6.376  13.283   7.761
 1652POPC   C1B24751   6.504  12.580   8.691
 1652POPC   C2B24752   6.327  12.691   8.293
 1652POPC   C3B24753   6.393  12.440   7.924
 1652POPC   C4B24754   6.538  12.608   7.510
 1653POPC   NC324755   5.824   6.381   9.535
 1653POPC   PO424756   6.046   7.008   9.469
 1653POPC   GL124757   6.009   6.670   9.134
 1653POPC   GL224758   5.679   6.472   9.065
 1653POPC   C1A24759   6.061   6.732   8.676
 1653POPC   D2A24760   5.816   6.677   8.285
 1653POPC   C3A24761   5.843   6.889   7.929
 1653POPC   C4A24762   6.273   7.068   7.862
 1653POPC   C1B24763   5.511   6.485   8.654
 1653POPC   C2B24764   5.645   6.220   8.312
 1653POPC   C3B24765   5.738   6.323   7.869
 1653POPC   C4B24766   5.712   6.547   7.433
 1654POPC   NC324767   9.733  28.109   9.617
 1654POPC   PO424768  10.118  28.683   9.570
 1654POPC   GL124769   9.886  28.453   9.204
 1654POPC   GL224770   9.538  28.345   9.224
 1654POPC   C1A24771   9.701  28.548   8.791
 1654POPC   D2A24772   9.479  28.410   8.440
 1654POPC   C3A24773   9.642  28.396   8.060
 1654POPC   C4A24774   9.881  28.575   7.781
 1654POPC   C1B24775   9.351  28.120   8.863
 1654POPC   C2B24776   9.475  27.905   8.461
 1654POPC   C3B24777   9.647  27.873   8.053
 1654POPC   C4B24778   9.470  28.075   7.696
 1655POPC   NC324779   4.262   6.049   9.413
 1655POPC   PO424780   4.718   5.597   9.546
 1655POPC   GL124781   4.690   5.845   9.198
 1655POPC   GL224782   4.757   5.558   8.999
 1655POPC   C1A24783   4.573   6.039   8.817
 1655POPC   D2A24784   4.228   5.964   8.531
 1655POPC   C3A24785   4.151   6.141   8.128
 1655POPC   C4A24786   4.429   6.151   7.774
 1655POPC   C1B24787   4.334   5.564   8.851
 1655POPC   C2B24788   4.249   5.431   8.433
 1655POPC   C3B24789   4.398   5.684   8.094
 1655POPC   C4B24790   4.147   5.715   7.731
 1656POPC   NC324791  19.990  31.805   9.908
 1656POPC   PO424792  19.828  31.296   9.452
 1656POPC   GL124793  19.908  31.316   9.038
 1656POPC   GL224794  20.167  31.575   9.122
 1656POPC   C1A24795  19.711  31.527   8.660
 1656POPC   D2A24796  19.559  31.788   8.286
 1656POPC   C3A24797  19.738  31.596   7.911
 1656POPC   C4A24798  19.848  31.174   7.868
 1656POPC   C1B24799  20.235  31.549   8.693
 1656POPC   C2B24800  20.080  31.744   8.327
 1656POPC   C3B24801  20.139  31.935   7.935
 1656POPC   C4B24802  19.913  31.892   7.508
 1657POPC   NC324803  43.108  44.521   9.477
 1657POPC   PO424804  43.400   0.194   9.475
 1657POPC   GL124805  43.221  44.951   9.160
 1657POPC   GL224806  43.405  44.725   9.129
 1657POPC   C1A24807  43.007  44.764   8.820
 1657POPC   D2A24808  43.185  44.745   8.419
 1657POPC   C3A24809  42.848  44.789   8.123
 1657POPC   C4A24810  42.845  44.633   7.744
 1657POPC   C1B24811  43.356  44.378   8.862
 1657POPC   C2B24812  43.395  44.263   8.432
 1657POPC   C3B24813  43.233  44.420   8.026
 1657POPC   C4B24814  43.302  44.490   7.598
 1658POPC   NC324815   2.461   4.730   9.418
 1658POPC   PO424816   2.802   4.122   9.539
 1658POPC   GL124817   2.527   4.074   9.188
 1658POPC   GL224818   2.558   4.395   9.026
 1658POPC   C1A24819   2.680   3.944   8.790
 1658POPC   D2A24820   3.064   3.922   8.522
 1658POPC   C3A24821   2.961   4.158   8.159
 1658POPC   C4A24822   2.647   4.333   7.881
 1658POPC   C1B24823   2.811   4.418   8.628
 1658POPC   C2B24824   2.833   4.669   8.260
 1658POPC   C3B24825   3.004   4.733   7.911
 1658POPC   C4B24826   3.207   4.366   7.760
 1659POPC   NC324827   0.826  40.885   9.462
 1659POPC   PO424828   0.192  41.151   9.397
 1659POPC   GL124829   0.344  40.813   9.122
 1659POPC   GL224830   0.650  40.675   9.013
 1659POPC   C1A24831   0.257  40.599   8.714
 1659POPC   D2A24832   0.284  40.435   8.297
 1659POPC   C3A24833   0.147  40.719   7.989
 1659POPC   C4A24834   0.296  40.823   7.570
 1659POPC   C1B24835   0.696  40.975   8.699
 1659POPC   C2B24836   0.588  40.999   8.274
 1659POPC   C3B24837   0.648  40.681   7.951
 1659POPC   C4B24838   0.741  40.525   7.555
 1660POPC   NC324839  18.201   1.606   9.405
 1660POPC   PO424840  18.593   2.144   9.288
 1660POPC   GL124841  18.193   2.044   9.152
 1660POPC   GL224842  17.990   2.328   9.109
 1660POPC   C1A24843  18.171   1.786   8.778
 1660POPC   D2A24844  18.400   1.666   8.391
 1660POPC   C3A24845  18.153   1.503   8.020
 1660POPC   C4A24846  18.138   1.628   7.541
 1660POPC   C1B24847  18.272   2.329   8.745
 1660POPC   C2B24848  18.546   2.399   8.416
 1660POPC   C3B24849  18.376   2.317   8.044
 1660POPC   C4B24850  18.412   1.914   7.915
 1661POPC   NC324851   2.156  11.525   9.514
 1661POPC   PO424852   1.483  11.370   9.461
 1661POPC   GL124853   1.795  11.136   9.206
 1661POPC   GL224854   2.147  11.177   9.148
 1661POPC   C1A24855   1.838  11.115   8.739
 1661POPC   D2A24856   1.779  10.896   8.325
 1661POPC   C3A24857   1.986  11.171   8.008
 1661POPC   C4A24858   2.148  11.591   7.846
 1661POPC   C1B24859   2.366  11.173   8.762
 1661POPC   C2B24860   2.346  11.382   8.349
 1661POPC   C3B24861   2.524  11.234   7.973
 1661POPC   C4B24862   2.303  11.139   7.595
 1662POPC   NC324863  44.886  21.850   9.454
 1662POPC   PO424864  44.419  22.360   9.567
 1662POPC   GL124865  44.610  22.220   9.202
 1662POPC   GL224866  44.455  21.894   9.195
 1662POPC   C1A24867  44.883  22.283   8.837
 1662POPC   D2A24868  44.932  22.260   8.417
 1662POPC   C3A24869  44.823  22.559   8.080
 1662POPC   C4A24870  44.433  22.492   7.882
 1662POPC   C1B24871  44.701  21.803   8.819
 1662POPC   C2B24872  44.827  21.763   8.397
 1662POPC   C3B24873  44.673  22.017   8.053
 1662POPC   C4B24874  44.606  21.897   7.657
 1663POPC   NC324875   4.907  29.193   9.453
 1663POPC   PO424876   5.536  29.145   9.596
 1663POPC   GL124877   5.405  29.299   9.097
 1663POPC   GL224878   5.051  29.285   8.969
 1663POPC   C1A24879   5.355  29.283   8.573
 1663POPC   D2A24880   5.047  29.164   8.254
 1663POPC   C3A24881   5.176  29.119   7.802
 1663POPC   C4A24882   5.377  29.076   7.376
 1663POPC   C1B24883   4.806  28.956   8.771
 1663POPC   C2B24884   4.763  28.703   8.385
 1663POPC   C3B24885   4.799  28.805   7.960
 1663POPC   C4B24886   4.708  29.035   7.595
 1664POPC   NC324887   7.487   0.556   9.883
 1664POPC   PO424888   7.353   0.011   9.442
 1664POPC   GL124889   7.374   0.387   9.165
 1664POPC   GL224890   7.513   0.674   9.370
 1664POPC   C1A24891   7.200   0.505   8.769
 1664POPC   D2A24892   7.225   0.303   8.370
 1664POPC   C3A24893   7.371   0.463   8.006
 1664POPC   C4A24894   7.482   0.335   7.593
 1664POPC   C1B24895   7.641   0.787   8.951
 1664POPC   C2B24896   7.586   0.707   8.494
 1664POPC   C3B24897   7.643   0.874   8.085
 1664POPC   C4B24898   7.824   0.733   7.714
 1665POPC   NC324899  18.546  42.068   9.449
 1665POPC   PO424900  18.035  42.491   9.415
 1665POPC   GL124901  18.266  42.340   9.106
 1665POPC   GL224902  18.601  42.479   9.189
 1665POPC   C1A24903  18.142  42.164   8.719
 1665POPC   D2A24904  17.920  42.171   8.334
 1665POPC   C3A24905  18.120  42.288   7.948
 1665POPC   C4A24906  17.886  42.363   7.551
 1665POPC   C1B24907  18.670  42.249   8.803
 1665POPC   C2B24908  18.524  42.418   8.426
 1665POPC   C3B24909  18.658  42.262   8.021
 1665POPC   C4B24910  18.492  42.118   7.608
 1666POPC   NC324911  17.338  17.257   9.399
 1666POPC   PO424912  17.710  17.796   9.445
 1666POPC   GL124913  17.676  17.516   9.092
 1666POPC   GL224914  17.939  17.704   8.988
 1666POPC   C1A24915  17.680  17.225   8.726
 1666POPC   D2A24916  17.440  17.041   8.409
 1666POPC   C3A24917  17.405  17.280   8.057
 1666POPC   C4A24918  17.471  17.264   7.658
 1666POPC   C1B24919  17.652  17.729   8.645
 1666POPC   C2B24920  17.369  17.684   8.368
 1666POPC   C3B24921  17.312  17.907   8.041
 1666POPC   C4B24922  17.597  17.749   7.798
 1667POPC   NC324923  34.061  32.605   9.400
 1667POPC   PO424924  33.901  31.948   9.569
 1667POPC   GL124925  33.815  32.115   9.181
 1667POPC   GL224926  34.107  32.198   9.098
 1667POPC   C1A24927  33.754  32.027   8.764
 1667POPC   D2A24928  33.741  32.247   8.378
 1667POPC   C3A24929  33.778  31.982   8.042
 1667POPC   C4A24930  34.049  32.007   7.718
 1667POPC   C1B24931  34.039  32.460   8.729
 1667POPC   C2B24932  34.102  32.615   8.309
 1667POPC   C3B24933  33.866  32.487   7.940
 1667POPC   C4B24934  33.975  32.463   7.480
 1668POPC   NC324935  11.293  12.177   9.780
 1668POPC   PO424936  11.026  11.971   9.255
 1668POPC   GL124937  11.195  12.050   8.898
 1668POPC   GL224938  11.507  12.129   9.023
 1668POPC   C1A24939  11.454  11.971   8.544
 1668POPC   D2A24940  11.481  11.845   8.143
 1668POPC   C3A24941  11.136  11.977   7.981
 1668POPC   C4A24942  11.061  11.686   7.763
 1668POPC   C1B24943  11.458  12.454   8.695
 1668POPC   C2B24944  11.382  12.391   8.251
 1668POPC   C3B24945  11.511  12.279   7.851
 1668POPC   C4B24946  11.727  11.914   7.670
 1669POPC   NC324947  10.859   9.866   9.390
 1669POPC   PO424948  10.312   9.490   9.460
 1669POPC   GL124949  10.524   9.407   9.076
 1669POPC   GL224950  10.869   9.434   9.113
 1669POPC   C1A24951  10.334   9.465   8.670
 1669POPC   D2A24952  10.150   9.757   8.359
 1669POPC   C3A24953  10.413   9.902   8.006
 1669POPC   C4A24954  10.523  10.313   7.908
 1669POPC   C1B24955  10.859   9.611   8.709
 1669POPC   C2B24956  10.662   9.571   8.290
 1669POPC   C3B24957  10.776   9.573   7.843
 1669POPC   C4B24958  10.879   9.557   7.395
 1670POPC   NC324959  18.475  29.286   9.368
 1670POPC   PO424960  17.976  29.641   9.639
 1670POPC   GL124961  17.965  29.443   9.199
 1670POPC   GL224962  18.069  29.080   9.137
 1670POPC   C1A24963  18.096  29.460   8.766
 1670POPC   D2A24964  18.351  29.355   8.412
 1670POPC   C3A24965  18.135  29.349   8.040
 1670POPC   C4A24966  18.206  29.344   7.605
 1670POPC   C1B24967  18.320  28.936   8.756
 1670POPC   C2B24968  18.262  28.852   8.282
 1670POPC   C3B24969  18.266  28.891   7.830
 1670POPC   C4B24970  18.559  28.993   7.486
 1671POPC   NC324971  21.492  15.356   9.349
 1671POPC   PO424972  21.066  15.179   9.773
 1671POPC   GL124973  21.082  15.052   9.286
 1671POPC   GL224974  21.051  14.760   9.208
 1671POPC   C1A24975  21.211  15.203   8.820
 1671POPC   D2A24976  21.536  15.222   8.509
 1671POPC   C3A24977  21.494  15.337   8.074
 1671POPC   C4A24978  21.632  15.034   7.770
 1671POPC   C1B24979  20.883  14.825   8.795
 1671POPC   C2B24980  20.908  15.158   8.431
 1671POPC   C3B24981  21.064  15.082   8.018
 1671POPC   C4B24982  21.223  14.750   7.765
 1672POPC   NC324983   1.743  17.268   9.349
 1672POPC   PO424984   2.123  17.629   9.730
 1672POPC   GL124985   1.997  17.728   9.258
 1672POPC   GL224986   1.676  17.655   9.024
 1672POPC   C1A24987   2.151  17.684   8.849
 1672POPC   D2A24988   2.342  17.590   8.436
 1672POPC   C3A24989   2.066  17.457   8.112
 1672POPC   C4A24990   1.974  17.522   7.650
 1672POPC   C1B24991   1.774  17.438   8.618
 1672POPC   C2B24992   1.587  17.332   8.225
 1672POPC   C3B24993   1.764  17.119   7.869
 1672POPC   C4B24994   1.742  16.978   7.423
 1673POPC   NC324995   6.753  42.032   9.457
 1673POPC   PO424996   6.590  42.741   9.511
 1673POPC   GL124997   6.627  42.436   9.165
 1673POPC   GL224998   6.370  42.195   9.109
 1673POPC   C1A24999   6.745  42.218   8.755
 1673POPC   D2A25000   7.010  42.109   8.389
 1673POPC   C3A25001   6.808  42.232   8.010
 1673POPC   C4A25002   6.846  42.349   7.546
 1673POPC   C1B25003   6.314  41.972   8.730
 1673POPC   C2B25004   6.497  41.977   8.348
 1673POPC   C3B25005   6.330  41.922   7.988
 1673POPC   C4B25006   6.400  42.168   7.635
 1674POPC   NC325007   0.893  10.163   9.800
 1674POPC   PO425008   1.421  10.279   9.517
 1674POPC   GL125009   1.428   9.959   9.153
 1674POPC   GL225010   1.306   9.620   9.196
 1674POPC   C1A25011   1.537   9.929   8.715
 1674POPC   D2A25012   1.359   9.848   8.319
 1674POPC   C3A25013   1.505   9.917   7.919
 1674POPC   C4A25014   1.287   9.765   7.617
 1674POPC   C1B25015   1.603   9.459   8.885
 1674POPC   C2B25016   1.728   9.492   8.442
 1674POPC   C3B25017   1.492   9.413   8.037
 1674POPC   C4B25018   1.295   9.250   7.616
 1675POPC   NC325019  13.514  41.107   9.477
 1675POPC   PO425020  13.818  40.465   9.563
 1675POPC   GL125021  13.791  40.699   9.179
 1675POPC   GL225022  13.708  41.008   9.026
 1675POPC   C1A25023  13.661  40.600   8.747
 1675POPC   D2A25024  13.821  40.782   8.399
 1675POPC   C3A25025  13.681  40.674   8.005
 1675POPC   C4A25026  13.913  40.486   7.703
 1675POPC   C1B25027  13.489  41.093   8.657
 1675POPC   C2B25028  13.412  41.299   8.240
 1675POPC   C3B25029  13.461  41.094   7.830
 1675POPC   C4B25030  13.225  40.847   7.493
 1676POPC   NC325031  17.225  15.767   9.489
 1676POPC   PO425032  17.802  16.128   9.531
 1676POPC   GL125033  17.549  16.000   9.175
 1676POPC   GL225034  17.261  15.842   8.995
 1676POPC   C1A25035  17.545  16.145   8.742
 1676POPC   D2A25036  17.504  15.926   8.365
 1676POPC   C3A25037  17.634  16.159   7.990
 1676POPC   C4A25038  17.600  16.376   7.597
 1676POPC   C1B25039  17.642  15.626   8.848
 1676POPC   C2B25040  17.821  15.484   8.468
 1676POPC   C3B25041  17.855  15.690   8.075
 1676POPC   C4B25042  17.480  15.682   7.851
 1677POPC   NC325043  40.996  21.715   9.520
 1677POPC   PO425044  40.681  21.142   9.611
 1677POPC   GL125045  40.662  21.428   9.251
 1677POPC   GL225046  41.004  21.435   9.120
 1677POPC   C1A25047  40.650  21.674   8.872
 1677POPC   D2A25048  40.574  21.498   8.474
 1677POPC   C3A25049  40.476  21.736   8.168
 1677POPC   C4A25050  40.441  21.393   7.922
 1677POPC   C1B25051  41.236  21.578   8.797
 1677POPC   C2B25052  41.104  21.428   8.418
 1677POPC   C3B25053  40.943  21.466   8.013
 1677POPC   C4B25054  41.266  21.468   7.681
 1678POPC   NC325055  42.269  20.801  10.066
 1678POPC   PO425056  42.575  20.400   9.783
 1678POPC   GL125057  42.458  20.620   9.277
 1678POPC   GL225058  42.163  20.771   9.137
 1678POPC   C1A25059  42.601  20.530   8.821
 1678POPC   D2A25060  42.883  20.412   8.450
 1678POPC   C3A25061  42.669  20.560   8.072
 1678POPC   C4A25062  42.326  20.505   7.760
 1678POPC   C1B25063  42.234  20.876   8.697
 1678POPC   C2B25064  42.224  20.832   8.220
 1678POPC   C3B25065  42.100  20.985   7.788
 1678POPC   C4B25066  41.989  21.092   7.357
 1679POPC   NC325067  39.802  44.019   9.685
 1679POPC   PO425068  39.185  43.829   9.610
 1679POPC   GL125069  39.521  43.808   9.278
 1679POPC   GL225070  39.471  44.108   9.191
 1679POPC   C1A25071  39.680  43.602   8.853
 1679POPC   D2A25072  39.551  43.363   8.444
 1679POPC   C3A25073  39.407  43.536   8.071
 1679POPC   C4A25074  39.565  43.879   7.818
 1679POPC   C1B25075  39.242  43.878   8.869
 1679POPC   C2B25076  39.337  43.892   8.440
 1679POPC   C3B25077  39.078  43.915   8.092
 1679POPC   C4B25078  39.085  44.011   7.673
 1680POPC   NC325079   5.353  22.248   9.624
 1680POPC   PO425080   5.105  21.752   9.553
 1680POPC   GL125081   5.020  21.964   9.120
 1680POPC   GL225082   5.181  22.299   9.106
 1680POPC   C1A25083   5.032  22.094   8.641
 1680POPC   D2A25084   5.117  21.909   8.211
 1680POPC   C3A25085   4.964  22.143   7.829
 1680POPC   C4A25086   4.820  22.248   7.400
 1680POPC   C1B25087   5.368  22.481   8.706
 1680POPC   C2B25088   5.273  22.417   8.250
 1680POPC   C3B25089   5.464  22.202   7.878
 1680POPC   C4B25090   5.665  22.341   7.474
 1681POPC   NC325091  26.111  30.940   9.473
 1681POPC   PO425092  25.693  30.472   9.575
 1681POPC   GL125093  25.936  30.539   9.207
 1681POPC   GL225094  25.753  30.821   9.084
 1681POPC   C1A25095  26.250  30.695   8.895
 1681POPC   D2A25096  26.289  30.605   8.451
 1681POPC   C3A25097  26.310  30.884   8.101
 1681POPC   C4A25098  26.132  30.780   7.700
 1681POPC   C1B25099  25.817  30.709   8.637
 1681POPC   C2B25100  25.828  30.639   8.166
 1681POPC   C3B25101  25.621  30.760   7.761
 1681POPC   C4B25102  25.642  30.904   7.335
 1682POPC   NC325103  32.323  36.845   9.444
 1682POPC   PO425104  31.883  37.399   9.418
 1682POPC   GL125105  31.941  37.123   8.999
 1682POPC   GL225106  32.214  36.847   8.958
 1682POPC   C1A25107  32.038  37.049   8.525
 1682POPC   D2A25108  32.301  36.802   8.234
 1682POPC   C3A25109  32.307  36.882   7.821
 1682POPC   C4A25110  32.589  37.206   7.766
 1682POPC   C1B25111  32.297  36.534   8.657
 1682POPC   C2B25112  32.125  36.334   8.291
 1682POPC   C3B25113  32.302  36.361   7.861
 1682POPC   C4B25114  32.266  36.521   7.417
 1683POPC   NC325115  32.831  30.070   9.662
 1683POPC   PO425116  33.296  29.620   9.512
 1683POPC   GL125117  33.052  29.823   9.240
 1683POPC   GL225118  33.109  30.166   9.216
 1683POPC   C1A25119  32.777  29.970   8.897
 1683POPC   D2A25120  32.660  29.850   8.501
 1683POPC   C3A25121  32.716  30.157   8.176
 1683POPC   C4A25122  32.704  30.018   7.768
 1683POPC   C1B25123  33.289  30.001   8.834
 1683POPC   C2B25124  33.149  30.041   8.429
 1683POPC   C3B25125  33.025  29.761   8.099
 1683POPC   C4B25126  33.254  29.853   7.759
 1684POPC   NC325127  17.194  14.815   9.602
 1684POPC   PO425128  17.556  15.418   9.518
 1684POPC   GL125129  17.487  15.137   9.208
 1684POPC   GL225130  17.248  15.347   9.104
 1684POPC   C1A25131  17.631  15.105   8.793
 1684POPC   D2A25132  17.538  14.995   8.390
 1684POPC   C3A25133  17.711  15.196   8.052
 1684POPC   C4A25134  17.483  15.182   7.717
 1684POPC   C1B25135  17.172  15.435   8.694
 1684POPC   C2B25136  17.301  15.448   8.288
 1684POPC   C3B25137  17.065  15.385   7.942
 1684POPC   C4B25138  17.122  15.496   7.518
 1685POPC   NC325139  24.478  35.781   9.526
 1685POPC   PO425140  24.767  35.213   9.445
 1685POPC   GL125141  24.579  35.211   9.077
 1685POPC   GL225142  24.375  35.505   9.099
 1685POPC   C1A25143  24.437  35.148   8.684
 1685POPC   D2A25144  24.361  35.392   8.339
 1685POPC   C3A25145  24.479  35.147   8.005
 1685POPC   C4A25146  24.558  35.350   7.626
 1685POPC   C1B25147  24.541  35.712   8.733
 1685POPC   C2B25148  24.770  35.750   8.350
 1685POPC   C3B25149  24.565  35.741   7.962
 1685POPC   C4B25150  24.684  35.860   7.551
 1686POPC   NC325151  41.006  43.393   9.503
 1686POPC   PO425152  40.592  42.861   9.481
 1686POPC   GL125153  40.786  42.973   9.155
 1686POPC   GL225154  40.687  43.317   9.127
 1686POPC   C1A25155  40.740  43.002   8.725
 1686POPC   D2A25156  40.438  43.109   8.471
 1686POPC   C3A25157  40.476  42.923   8.112
 1686POPC   C4A25158  40.417  42.906   7.683
 1686POPC   C1B25159  40.841  43.497   8.777
 1686POPC   C2B25160  40.872  43.546   8.356
 1686POPC   C3B25161  40.747  43.355   7.967
 1686POPC   C4B25162  40.901  43.027   7.703
 1687POPC   NC325163   2.039   7.221  10.310
 1687POPC   PO425164   1.921   7.407   9.667
 1687POPC   GL125165   1.954   7.188   9.267
 1687POPC   GL225166   1.808   7.478   9.137
 1687POPC   C1A25167   2.188   7.224   8.894
 1687POPC   D2A25168   2.167   7.533   8.565
 1687POPC   C3A25169   2.262   7.349   8.192
 1687POPC   C4A25170   2.174   7.377   7.793
 1687POPC   C1B25171   1.924   7.858   8.879
 1687POPC   C2B25172   1.821   7.942   8.450
 1687POPC   C3B25173   1.941   7.784   8.036
 1687POPC   C4B25174   1.831   7.987   7.637
 1688POPC   NC325175  39.491  32.249   9.631
 1688POPC   PO425176  39.023  32.761   9.460
 1688POPC   GL125177  39.316  32.531   9.214
 1688POPC   GL225178  39.291  32.150   9.185
 1688POPC   C1A25179  39.448  32.426   8.803
 1688POPC   D2A25180  39.562  32.218   8.466
 1688POPC   C3A25181  39.302  32.360   8.149
 1688POPC   C4A25182  39.373  32.604   7.800
 1688POPC   C1B25183  39.085  31.998   8.825
 1688POPC   C2B25184  39.125  31.920   8.420
 1688POPC   C3B25185  39.081  31.912   8.028
 1688POPC   C4B25186  38.999  32.133   7.674
 1689POPC   NC325187  36.823  22.585   9.589
 1689POPC   PO425188  36.887  21.971   9.609
 1689POPC   GL125189  36.822  22.165   9.221
 1689POPC   GL225190  36.510  22.364   9.248
 1689POPC   C1A25191  36.926  22.041   8.787
 1689POPC   D2A25192  36.650  21.893   8.452
 1689POPC   C3A25193  36.865  21.985   8.052
 1689POPC   C4A25194  37.081  22.153   7.691
 1689POPC   C1B25195  36.596  22.432   8.816
 1689POPC   C2B25196  36.724  22.375   8.390
 1689POPC   C3B25197  36.503  22.374   8.048
 1689POPC   C4B25198  36.591  22.230   7.688
 1690POPC   NC325199   5.767  32.029   9.475
 1690POPC   PO425200   5.885  32.724   9.554
 1690POPC   GL125201   5.709  32.454   9.170
 1690POPC   GL225202   6.001  32.275   9.076
 1690POPC   C1A25203   5.677  32.370   8.693
 1690POPC   D2A25204   5.799  32.617   8.328
 1690POPC   C3A25205   5.919  32.581   7.932
 1690POPC   C4A25206   5.698  32.461   7.623
 1690POPC   C1B25207   6.144  32.177   8.653
 1690POPC   C2B25208   5.964  32.144   8.234
 1690POPC   C3B25209   5.572  32.198   8.057
 1690POPC   C4B25210   5.631  31.979   7.674
 1691POPC   NC325211  41.635   5.739   9.637
 1691POPC   PO425212  41.216   6.251   9.484
 1691POPC   GL125213  41.496   5.969   9.200
 1691POPC   GL225214  41.437   5.607   9.146
 1691POPC   C1A25215  41.570   5.983   8.781
 1691POPC   D2A25216  41.323   5.761   8.503
 1691POPC   C3A25217  41.386   5.713   8.089
 1691POPC   C4A25218  41.515   5.799   7.699
 1691POPC   C1B25219  41.802   5.543   8.859
 1691POPC   C2B25220  41.899   5.751   8.440
 1691POPC   C3B25221  41.877   5.571   8.012
 1691POPC   C4B25222  41.918   5.521   7.566
 1692POPC   NC325223  37.839  27.215   9.341
 1692POPC   PO425224  37.428  27.681   9.561
 1692POPC   GL125225  37.664  27.658   9.178
 1692POPC   GL225226  37.993  27.717   9.160
 1692POPC   C1A25227  37.713  27.493   8.773
 1692POPC   D2A25228  37.586  27.609   8.409
 1692POPC   C3A25229  37.553  27.344   8.078
 1692POPC   C4A25230  37.571  27.514   7.648
 1692POPC   C1B25231  37.877  27.973   8.777
 1692POPC   C2B25232  37.922  27.981   8.360
 1692POPC   C3B25233  37.752  27.891   7.999
 1692POPC   C4B25234  38.017  27.737   7.729
 1693POPC   NC325235  37.145   3.743   9.517
 1693POPC   PO425236  36.524   3.423   9.464
 1693POPC   GL125237  36.679   3.268   9.044
 1693POPC   GL225238  36.972   3.428   9.125
 1693POPC   C1A25239  36.824   3.400   8.607
 1693POPC   D2A25240  36.928   3.764   8.338
 1693POPC   C3A25241  36.710   3.675   7.954
 1693POPC   C4A25242  36.877   3.335   7.698
 1693POPC   C1B25243  37.133   3.722   8.847
 1693POPC   C2B25244  37.333   3.458   8.546
 1693POPC   C3B25245  37.296   3.436   8.111
 1693POPC   C4B25246  37.196   3.734   7.842
 1694POPC   NC325247  40.548  27.558   9.451
 1694POPC   PO425248  40.978  27.976   9.693
 1694POPC   GL125249  40.973  27.789   9.223
 1694POPC   GL225250  40.886  27.400   9.100
 1694POPC   C1A25251  40.965  27.769   8.749
 1694POPC   D2A25252  40.926  27.379   8.477
 1694POPC   C3A25253  40.937  27.517   8.058
 1694POPC   C4A25254  40.941  27.907   7.839
 1694POPC   C1B25255  40.538  27.488   8.792
 1694POPC   C2B25256  40.444  27.606   8.377
 1694POPC   C3B25257  40.432  27.431   7.977
 1694POPC   C4B25258  40.615  27.585   7.617
 1695POPC   NC325259  41.252  44.644   9.336
 1695POPC   PO425260  41.878  44.902   9.428
 1695POPC   GL125261  41.620  44.928   9.081
 1695POPC   GL225262  41.553  44.592   8.935
 1695POPC   C1A25263  41.524   0.093   8.663
 1695POPC   D2A25264  41.304  44.968   8.265
 1695POPC   C3A25265  41.624  44.843   7.959
 1695POPC   C4A25266  41.571  44.820   7.522
 1695POPC   C1B25267  41.353  44.379   8.581
 1695POPC   C2B25268  41.491  44.375   8.158
 1695POPC   C3B25269  41.542  44.351   7.707
 1695POPC   C4B25270  41.439  44.315   7.263
 1696POPC   NC325271  33.082  32.710   9.577
 1696POPC   PO425272  32.629  33.156   9.389
 1696POPC   GL125273  32.899  33.293   9.095
 1696POPC   GL225274  33.198  33.129   9.264
 1696POPC   C1A25275  32.909  33.164   8.670
 1696POPC   D2A25276  33.080  32.842   8.395
 1696POPC   C3A25277  32.890  32.842   7.977
 1696POPC   C4A25278  32.604  33.175   7.846
 1696POPC   C1B25279  33.316  32.962   8.870
 1696POPC   C2B25280  33.425  33.243   8.512
 1696POPC   C3B25281  33.295  33.191   8.088
 1696POPC   C4B25282  33.403  32.780   7.901
 1697POPC   NC325283  29.241  33.831   9.565
 1697POPC   PO425284  28.600  33.783   9.408
 1697POPC   GL125285  28.881  34.003   9.189
 1697POPC   GL225286  29.064  33.712   9.114
 1697POPC   C1A25287  28.961  34.041   8.751
 1697POPC   D2A25288  29.284  33.998   8.468
 1697POPC   C3A25289  29.135  33.990   8.082
 1697POPC   C4A25290  28.792  33.914   7.812
 1697POPC   C1B25291  29.139  33.552   8.718
 1697POPC   C2B25292  29.042  33.365   8.322
 1697POPC   C3B25293  29.065  33.495   7.895
 1697POPC   C4B25294  29.381  33.788   7.693
 1698POPC   NC325295   0.944  31.027   9.594
 1698POPC   PO425296   1.409  30.576   9.759
 1698POPC   GL125297   1.245  30.696   9.327
 1698POPC   GL225298   1.373  30.433   9.131
 1698POPC   C1A25299   1.305  30.864   8.890
 1698POPC   D2A25300   1.108  30.918   8.484
 1698POPC   C3A25301   1.304  30.770   8.129
 1698POPC   C4A25302   1.192  30.899   7.737
 1698POPC   C1B25303   1.024  30.419   8.862
 1698POPC   C2B25304   0.851  30.325   8.452
 1698POPC   C3B25305   0.865  30.515   8.036
 1698POPC   C4B25306   1.166  30.406   7.660
 1699POPC   NC325307  24.704  31.425   9.387
 1699POPC   PO425308  24.118  31.870   9.441
 1699POPC   GL125309  24.426  31.748   9.143
 1699POPC   GL225310  24.333  31.490   8.911
 1699POPC   C1A25311  24.710  31.800   8.797
 1699POPC   D2A25312  24.532  31.660   8.396
 1699POPC   C3A25313  24.646  31.780   7.964
 1699POPC   C4A25314  24.504  31.607   7.572
 1699POPC   C1B25315  24.659  31.255   8.689
 1699POPC   C2B25316  24.590  31.035   8.298
 1699POPC   C3B25317  24.406  31.293   7.996
 1699POPC   C4B25318  24.202  31.195   7.624
 1700POPC   NC325319   0.672   2.820   9.406
 1700POPC   PO425320  44.967   2.663   9.344
 1700POPC   GL125321   0.201   2.566   8.959
 1700POPC   GL225322   0.573   2.578   8.979
 1700POPC   C1A25323   0.353   2.702   8.531
 1700POPC   D2A25324   0.507   3.059   8.256
 1700POPC   C3A25325   0.350   2.885   7.876
 1700POPC   C4A25326   0.271   2.449   7.850
 1700POPC   C1B25327   0.830   2.719   8.702
 1700POPC   C2B25328   0.842   2.657   8.288
 1700POPC   C3B25329   0.857   2.850   7.903
 1700POPC   C4B25330   0.867   2.571   7.562
 1701POPC   NC325331   5.387  16.965   9.492
 1701POPC   PO425332   5.066  16.357   9.516
 1701POPC   GL125333   5.220  16.558   9.166
 1701POPC   GL225334   5.046  16.841   9.125
 1701POPC   C1A25335   5.008  16.527   8.736
 1701POPC   D2A25336   5.047  16.213   8.433
 1701POPC   C3A25337   5.219  16.327   8.026
 1701POPC   C4A25338   5.170  16.631   7.713
 1701POPC   C1B25339   5.392  16.874   8.796
 1701POPC   C2B25340   5.393  16.684   8.385
 1701POPC   C3B25341   5.470  16.898   8.017
 1701POPC   C4B25342   5.380  17.097   7.655
 1702POPC   NC325343  39.087  44.274   9.468
 1702POPC   PO425344  39.233  44.958   9.474
 1702POPC   GL125345  39.428  44.704   9.133
 1702POPC   GL225346  39.194  44.497   9.028
 1702POPC   C1A25347  39.465  44.796   8.677
 1702POPC   D2A25348  39.574  44.780   8.232
 1702POPC   C3A25349  39.242  44.929   7.949
 1702POPC   C4A25350  39.059   0.008   7.521
 1702POPC   C1B25351  39.224  44.344   8.669
 1702POPC   C2B25352  39.154  44.490   8.315
 1702POPC   C3B25353  39.344  44.358   7.972
 1702POPC   C4B25354  39.147  44.526   7.668
 1703POPC   NC325355  19.173  26.196   9.489
 1703POPC   PO425356  19.609  25.630   9.471
 1703POPC   GL125357  19.314  25.865   9.133
 1703POPC   GL225358  19.404  26.191   9.007
 1703POPC   C1A25359  18.953  25.964   8.808
 1703POPC   D2A25360  18.938  25.794   8.395
 1703POPC   C3A25361  18.870  26.006   8.011
 1703POPC   C4A25362  19.137  25.939   7.654
 1703POPC   C1B25363  19.380  26.057   8.551
 1703POPC   C2B25364  19.390  26.074   8.075
 1703POPC   C3B25365  19.439  26.399   7.679
 1703POPC   C4B25366  19.317  26.197   7.251
 1704POPC   NC325367   2.901  21.024   9.702
 1704POPC   PO425368   2.678  21.658   9.584
 1704POPC   GL125369   2.820  21.549   9.190
 1704POPC   GL225370   2.806  21.908   9.139
 1704POPC   C1A25371   3.035  21.457   8.792
 1704POPC   D2A25372   3.083  21.167   8.423
 1704POPC   C3A25373   2.899  21.272   8.048
 1704POPC   C4A25374   2.659  21.057   7.755
 1704POPC   C1B25375   2.616  21.792   8.782
 1704POPC   C2B25376   2.698  21.587   8.408
 1704POPC   C3B25377   2.618  21.719   8.006
 1704POPC   C4B25378   2.899  21.634   7.682
 1705POPC   NC325379  26.394  27.458   9.378
 1705POPC   PO425380  26.608  26.894   9.709
 1705POPC   GL125381  26.783  27.008   9.302
 1705POPC   GL225382  26.942  26.671   9.179
 1705POPC   C1A25383  26.725  27.006   8.849
 1705POPC   D2A25384  26.744  27.115   8.421
 1705POPC   C3A25385  27.010  27.044   8.045
 1705POPC   C4A25386  27.022  26.818   7.666
 1705POPC   C1B25387  26.831  26.498   8.782
 1705POPC   C2B25388  26.644  26.487   8.393
 1705POPC   C3B25389  26.798  26.473   7.996
 1705POPC   C4B25390  26.981  26.292   7.668
 1706POPC   NC325391  19.939   3.843   9.698
 1706POPC   PO425392  19.896   4.442   9.517
 1706POPC   GL125393  19.858   4.288   9.126
 1706POPC   GL225394  19.537   4.174   9.230
 1706POPC   C1A25395  20.077   4.254   8.719
 1706POPC   D2A25396  20.075   4.445   8.288
 1706POPC   C3A25397  20.047   4.254   7.895
 1706POPC   C4A25398  19.804   4.403   7.518
 1706POPC   C1B25399  19.459   4.171   8.805
 1706POPC   C2B25400  19.658   4.154   8.407
 1706POPC   C3B25401  19.561   4.181   7.995
 1706POPC   C4B25402  19.633   3.938   7.640
 1707POPC   NC325403  28.478  16.348   9.451
 1707POPC   PO425404  28.205  16.914   9.382
 1707POPC   GL125405  28.339  16.652   9.067
 1707POPC   GL225406  28.126  16.344   9.081
 1707POPC   C1A25407  28.408  16.492   8.667
 1707POPC   D2A25408  28.550  16.732   8.340
 1707POPC   C3A25409  28.397  16.567   8.022
 1707POPC   C4A25410  28.463  16.699   7.653
 1707POPC   C1B25411  27.889  16.371   8.695
 1707POPC   C2B25412  27.955  16.338   8.228
 1707POPC   C3B25413  27.944  16.503   7.777
 1707POPC   C4B25414  28.125  16.508   7.307
 1708POPC   NC325415   5.467  12.373   9.390
 1708POPC   PO425416   5.008  11.972   9.690
 1708POPC   GL125417   4.959  12.070   9.219
 1708POPC   GL225418   5.126  12.317   9.023
 1708POPC   C1A25419   4.883  11.944   8.793
 1708POPC   D2A25420   4.738  11.950   8.436
 1708POPC   C3A25421   5.019  11.968   8.141
 1708POPC   C4A25422   4.892  12.019   7.743
 1708POPC   C1B25423   5.232  12.250   8.584
 1708POPC   C2B25424   5.447  12.285   8.211
 1708POPC   C3B25425   5.368  12.550   7.860
 1708POPC   C4B25426   5.076  12.464   7.582
 1709POPC   NC325427  33.370  27.705   9.597
 1709POPC   PO425428  34.021  27.838   9.357
 1709POPC   GL125429  33.657  27.771   9.173
 1709POPC   GL225430  33.579  27.449   9.165
 1709POPC   C1A25431  33.657  27.790   8.746
 1709POPC   D2A25432  33.431  27.696   8.415
 1709POPC   C3A25433  33.551  27.875   8.042
 1709POPC   C4A25434  33.747  27.762   7.650
 1709POPC   C1B25435  33.934  27.376   8.879
 1709POPC   C2B25436  33.963  27.347   8.429
 1709POPC   C3B25437  33.735  27.413   8.037
 1709POPC   C4B25438  33.962  27.311   7.666
 1710POPC   NC325439  28.349   0.815   9.651
 1710POPC   PO425440  28.000   1.421   9.496
 1710POPC   GL125441  28.247   1.246   9.155
 1710POPC   GL225442  28.501   1.485   9.148
 1710POPC   C1A25443  28.422   1.095   8.738
 1710POPC   D2A25444  28.335   0.829   8.362
 1710POPC   C3A25445  28.415   1.031   7.997
 1710POPC   C4A25446  28.283   0.946   7.588
 1710POPC   C1B25447  28.370   1.593   8.727
 1710POPC   C2B25448  28.557   1.445   8.353
 1710POPC   C3B25449  28.610   1.523   7.944
 1710POPC   C4B25450  28.340   1.463   7.653
 1711POPC   NC325451  22.692  27.366   9.289
 1711POPC   PO425452  23.105  26.875   9.366
 1711POPC   GL125453  22.938  26.934   9.027
 1711POPC   GL225454  23.031  27.235   8.924
 1711POPC   C1A25455  22.941  26.726   8.656
 1711POPC   D2A25456  22.939  26.511   8.289
 1711POPC   C3A25457  22.717  26.618   7.914
 1711POPC   C4A25458  22.444  26.325   7.695
 1711POPC   C1B25459  22.687  27.169   8.643
 1711POPC   C2B25460  22.834  27.051   8.252
 1711POPC   C3B25461  23.177  27.127   8.010
 1711POPC   C4B25462  23.008  26.999   7.669
 1712POPC   NC325463  20.751  34.388   9.600
 1712POPC   PO425464  20.260  34.828   9.396
 1712POPC   GL125465  20.488  34.509   9.138
 1712POPC   GL225466  20.822  34.451   9.107
 1712POPC   C1A25467  20.376  34.361   8.744
 1712POPC   D2A25468  20.542  34.410   8.337
 1712POPC   C3A25469  20.311  34.424   7.965
 1712POPC   C4A25470  20.479  34.659   7.637
 1712POPC   C1B25471  20.949  34.503   8.712
 1712POPC   C2B25472  20.895  34.771   8.354
 1712POPC   C3B25473  20.888  34.614   7.949
 1712POPC   C4B25474  20.965  34.706   7.527
 1713POPC   NC325475  40.120  37.895   9.684
 1713POPC   PO425476  39.714  37.420   9.457
 1713POPC   GL125477  39.762  37.581   9.078
 1713POPC   GL225478  39.995  37.824   9.201
 1713POPC   C1A25479  39.942  37.475   8.680
 1713POPC   D2A25480  39.818  37.259   8.291
 1713POPC   C3A25481  40.063  37.389   7.944
 1713POPC   C4A25482  40.079  37.298   7.501
 1713POPC   C1B25483  40.128  37.933   8.816
 1713POPC   C2B25484  39.889  37.905   8.413
 1713POPC   C3B25485  39.738  37.739   8.062
 1713POPC   C4B25486  39.916  37.794   7.640
 1714POPC   NC325487   5.305  33.567   9.479
 1714POPC   PO425488   4.772  33.817   9.437
 1714POPC   GL125489   5.090  33.802   9.092
 1714POPC   GL225490   5.301  34.067   8.946
 1714POPC   C1A25491   5.292  33.445   8.834
 1714POPC   D2A25492   5.354  33.427   8.364
 1714POPC   C3A25493   5.123  33.636   8.040
 1714POPC   C4A25494   5.238  33.888   7.660
 1714POPC   C1B25495   5.095  33.836   8.588
 1714POPC   C2B25496   4.752  33.922   8.342
 1714POPC   C3B25497   4.783  33.994   7.918
 1714POPC   C4B25498   4.769  33.756   7.531
 1715POPC   NC325499  36.728  35.536   9.843
 1715POPC   PO425500  37.065  35.041   9.518
 1715POPC   GL125501  36.820  35.255   9.205
 1715POPC   GL225502  37.052  35.514   9.226
 1715POPC   C1A25503  36.935  35.383   8.747
 1715POPC   D2A25504  36.742  35.145   8.398
 1715POPC   C3A25505  36.903  35.071   7.989
 1715POPC   C4A25506  36.842  35.279   7.608
 1715POPC   C1B25507  37.325  35.723   8.942
 1715POPC   C2B25508  37.340  35.708   8.506
 1715POPC   C3B25509  37.194  35.480   8.157
 1715POPC   C4B25510  37.234  35.598   7.741
 1716POPC   NC325511  22.776   0.732   9.542
 1716POPC   PO425512  23.144   1.319   9.514
 1716POPC   GL125513  22.946   1.162   9.180
 1716POPC   GL225514  23.104   0.856   9.186
 1716POPC   C1A25515  23.040   1.249   8.750
 1716POPC   D2A25516  23.158   1.516   8.400
 1716POPC   C3A25517  23.102   1.302   8.012
 1716POPC   C4A25518  22.708   1.382   7.815
 1716POPC   C1B25519  22.824   0.777   8.860
 1716POPC   C2B25520  22.927   0.831   8.444
 1716POPC   C3B25521  22.694   0.922   8.092
 1716POPC   C4B25522  22.881   0.875   7.728
 1717POPC   NC325523  16.108  27.307   9.464
 1717POPC   PO425524  15.920  27.886   9.448
 1717POPC   GL125525  15.876  27.611   9.126
 1717POPC   GL225526  15.559  27.473   9.086
 1717POPC   C1A25527  16.077  27.719   8.758
 1717POPC   D2A25528  16.314  27.591   8.437
 1717POPC   C3A25529  16.139  27.645   8.058
 1717POPC   C4A25530  16.241  27.728   7.652
 1717POPC   C1B25531  15.659  27.419   8.695
 1717POPC   C2B25532  15.856  27.316   8.347
 1717POPC   C3B25533  15.750  27.357   7.956
 1717POPC   C4B25534  15.763  27.596   7.635
 1718POPC   NC325535  19.593  44.939   9.809
 1718POPC   PO425536  19.744  44.321   9.558
 1718POPC   GL125537  19.837  44.668   9.282
 1718POPC   GL225538  19.586  44.959   9.280
 1718POPC   C1A25539  19.940  44.581   8.854
 1718POPC   D2A25540  19.734  44.539   8.442
 1718POPC   C3A25541  20.012  44.587   8.101
 1718POPC   C4A25542  20.065  44.765   7.707
 1718POPC   C1B25543  19.497  44.853   8.843
 1718POPC   C2B25544  19.516   0.010   8.415
 1718POPC   C3B25545  19.556  44.810   8.008
 1718POPC   C4B25546  19.636  44.472   7.741
 1719POPC   NC325547  34.852  36.198   9.532
 1719POPC   PO425548  34.173  35.989   9.407
 1719POPC   GL125549  34.519  36.126   9.149
 1719POPC   GL225550  34.780  35.848   9.128
 1719POPC   C1A25551  34.764  36.298   8.815
 1719POPC   D2A25552  34.593  36.230   8.405
 1719POPC   C3A25553  34.730  36.335   8.007
 1719POPC   C4A25554  34.737  36.257   7.575
 1719POPC   C1B25555  34.665  35.803   8.692
 1719POPC   C2B25556  34.910  35.758   8.309
 1719POPC   C3B25557  34.840  35.832   7.881
 1719POPC   C4B25558  34.403  35.929   7.789
 1720POPC   NC325559  25.227  18.511   9.494
 1720POPC   PO425560  24.848  17.942   9.595
 1720POPC   GL125561  25.088  18.094   9.212
 1720POPC   GL225562  24.915  18.398   9.106
 1720POPC   C1A25563  25.271  18.228   8.779
 1720POPC   D2A25564  25.125  18.224   8.322
 1720POPC   C3A25565  25.388  18.251   7.973
 1720POPC   C4A25566  25.531  18.580   7.695
 1720POPC   C1B25567  24.783  18.405   8.674
 1720POPC   C2B25568  24.880  18.669   8.293
 1720POPC   C3B25569  25.035  18.596   7.863
 1720POPC   C4B25570  25.159  18.862   7.496
 1721POPC   NC325571  30.984  44.998   9.794
 1721POPC   PO425572  30.556   0.523   9.484
 1721POPC   GL125573  30.581   0.139   9.199
 1721POPC   GL225574  30.248  44.984   9.119
 1721POPC   C1A25575  30.823   0.212   8.800
 1721POPC   D2A25576  30.785   0.454   8.413
 1721POPC   C3A25577  30.862   0.311   7.978
 1721POPC   C4A25578  30.829   0.632   7.652
 1721POPC   C1B25579  30.318   0.265   8.760
 1721POPC   C2B25580  30.285   0.365   8.324
 1721POPC   C3B25581  30.388   0.511   7.911
 1721POPC   C4B25582  30.378   0.414   7.469
 1722POPC   NC325583  37.416  41.288   9.592
 1722POPC   PO425584  37.803  41.757   9.585
 1722POPC   GL125585  37.768  41.483   9.200
 1722POPC   GL225586  37.994  41.183   9.172
 1722POPC   C1A25587  37.674  41.646   8.774
 1722POPC   D2A25588  37.454  41.814   8.409
 1722POPC   C3A25589  37.677  41.689   8.095
 1722POPC   C4A25590  37.510  41.562   7.729
 1722POPC   C1B25591  37.811  41.135   8.790
 1722POPC   C2B25592  37.587  41.245   8.429
 1722POPC   C3B25593  37.709  41.171   8.013
 1722POPC   C4B25594  37.983  41.385   7.745
 1723POPC   NC325595  41.429  39.946   9.686
 1723POPC   PO425596  41.871  40.440   9.627
 1723POPC   GL125597  41.779  40.097   9.321
 1723POPC   GL225598  41.420  40.003   9.196
 1723POPC   C1A25599  41.795  40.078   8.884
 1723POPC   D2A25600  41.576  40.069   8.530
 1723POPC   C3A25601  41.815  39.929   8.199
 1723POPC   C4A25602  41.722  40.020   7.773
 1723POPC   C1B25603  41.274  39.782   8.848
 1723POPC   C2B25604  41.094  39.887   8.445
 1723POPC   C3B25605  41.312  39.969   8.092
 1723POPC   C4B25606  41.251  39.828   7.716
 1724POPC   NC325607  27.747  40.732   9.404
 1724POPC   PO425608  27.021  41.115   9.513
 1724POPC   GL125609  27.236  40.849   9.218
 1724POPC   GL225610  27.456  41.145   9.222
 1724POPC   C1A25611  27.384  40.670   8.803
 1724POPC   D2A25612  27.306  40.594   8.340
 1724POPC   C3A25613  27.618  40.411   8.072
 1724POPC   C4A25614  27.820  40.645   7.727
 1724POPC   C1B25615  27.314  41.205   8.833
 1724POPC   C2B25616  27.517  41.056   8.484
 1724POPC   C3B25617  27.589  40.951   8.084
 1724POPC   C4B25618  27.310  40.955   7.743
 1725POPC   NC325619  33.121  37.445   9.397
 1725POPC   PO425620  32.706  37.956   9.502
 1725POPC   GL125621  32.882  37.839   9.150
 1725POPC   GL225622  32.674  37.538   9.124
 1725POPC   C1A25623  33.164  37.945   8.801
 1725POPC   D2A25624  33.221  37.787   8.353
 1725POPC   C3A25625  33.160  37.929   7.926
 1725POPC   C4A25626  33.210  37.543   7.666
 1725POPC   C1B25627  32.872  37.526   8.734
 1725POPC   C2B25628  32.681  37.712   8.397
 1725POPC   C3B25629  32.785  37.603   8.011
 1725POPC   C4B25630  32.751  37.775   7.618
 1726POPC   NC325631  42.766  17.132   9.543
 1726POPC   PO425632  42.184  17.268   9.578
 1726POPC   GL125633  42.215  17.397   9.129
 1726POPC   GL225634  42.600  17.404   9.116
 1726POPC   C1A25635  41.982  17.503   8.702
 1726POPC   D2A25636  41.923  17.786   8.317
 1726POPC   C3A25637  41.936  17.564   7.909
 1726POPC   C4A25638  42.063  17.480   7.451
 1726POPC   C1B25639  42.498  17.541   8.677
 1726POPC   C2B25640  42.355  17.485   8.234
 1726POPC   C3B25641  42.441  17.365   7.797
 1726POPC   C4B25642  42.579  17.545   7.408
 1727POPC   NC325643  44.316  21.062   9.339
 1727POPC   PO425644  44.689  20.501   9.573
 1727POPC   GL125645  44.710  20.608   9.163
 1727POPC   GL225646  44.409  20.601   9.107
 1727POPC   C1A25647  44.773  20.395   8.764
 1727POPC   D2A25648  44.803  20.613   8.410
 1727POPC   C3A25649  44.775  20.449   8.076
 1727POPC   C4A25650  44.635  20.525   7.720
 1727POPC   C1B25651  44.550  20.878   8.753
 1727POPC   C2B25652  44.375  20.883   8.372
 1727POPC   C3B25653  44.230  20.727   7.993
 1727POPC   C4B25654  44.309  20.901   7.579
 1728POPC   NC325655  35.559  25.064   9.342
 1728POPC   PO425656  34.836  25.263   9.393
 1728POPC   GL125657  35.133  25.258   9.082
 1728POPC   GL225658  35.358  25.503   9.185
 1728POPC   C1A25659  35.313  25.232   8.659
 1728POPC   D2A25660  35.248  25.391   8.216
 1728POPC   C3A25661  35.431  25.113   7.911
 1728POPC   C4A25662  35.308  24.975   7.579
 1728POPC   C1B25663  35.599  25.813   8.918
 1728POPC   C2B25664  35.644  25.688   8.507
 1728POPC   C3B25665  35.640  25.780   8.094
 1728POPC   C4B25666  35.463  25.577   7.741
 1729POPC   NC325667  10.451  19.952   9.713
 1729POPC   PO425668  10.270  19.325   9.661
 1729POPC   GL125669  10.429  19.596   9.270
 1729POPC   GL225670  10.466  19.991   9.204
 1729POPC   C1A25671  10.244  19.722   8.847
 1729POPC   D2A25672  10.111  20.062   8.544
 1729POPC   C3A25673  10.349  20.034   8.166
 1729POPC   C4A25674  10.300  19.779   7.782
 1729POPC   C1B25675  10.635  20.063   8.769
 1729POPC   C2B25676  10.840  20.145   8.348
 1729POPC   C3B25677  10.732  20.227   7.903
 1729POPC   C4B25678  10.540  20.138   7.485
 1730POPC   NC325679  44.988  16.282   9.347
 1730POPC   PO425680   0.430  15.859   9.588
 1730POPC   GL125681   0.415  15.705   9.188
 1730POPC   GL225682   0.098  15.757   9.190
 1730POPC   C1A25683   0.457  15.558   8.755
 1730POPC   D2A25684   0.445  15.827   8.386
 1730POPC   C3A25685   0.450  15.637   8.003
 1730POPC   C4A25686   0.448  15.776   7.605
 1730POPC   C1B25687   0.201  15.986   8.803
 1730POPC   C2B25688   0.035  16.157   8.419
 1730POPC   C3B25689   0.179  16.085   8.006
 1730POPC   C4B25690  44.995  16.154   7.605
 1731POPC   NC325691  30.856  18.530   9.523
 1731POPC   PO425692  30.349  18.167   9.281
 1731POPC   GL125693  30.561  18.518   9.076
 1731POPC   GL225694  30.907  18.704   9.033
 1731POPC   C1A25695  30.741  18.422   8.670
 1731POPC   D2A25696  30.609  18.604   8.320
 1731POPC   C3A25697  30.606  18.320   7.982
 1731POPC   C4A25698  30.415  17.938   7.833
 1731POPC   C1B25699  31.028  18.850   8.555
 1731POPC   C2B25700  31.101  18.607   8.147
 1731POPC   C3B25701  31.170  18.499   7.688
 1731POPC   C4B25702  30.891  18.545   7.282
 1732POPC   NC325703  24.083   5.718   9.551
 1732POPC   PO425704  23.544   6.107   9.550
 1732POPC   GL125705  23.684   5.851   9.225
 1732POPC   GL225706  23.978   6.042   9.171
 1732POPC   C1A25707  23.724   5.598   8.834
 1732POPC   D2A25708  23.915   5.745   8.427
 1732POPC   C3A25709  23.670   5.684   8.061
 1732POPC   C4A25710  23.870   5.699   7.715
 1732POPC   C1B25711  23.772   6.093   8.782
 1732POPC   C2B25712  23.635   6.379   8.516
 1732POPC   C3B25713  23.776   6.194   8.141
 1732POPC   C4B25714  23.595   6.132   7.775
 1733POPC   NC325715   8.376   9.044   9.406
 1733POPC   PO425716   7.764   9.166   9.644
 1733POPC   GL125717   7.942   8.920   9.180
 1733POPC   GL225718   8.261   8.780   9.003
 1733POPC   C1A25719   8.029   9.088   8.695
 1733POPC   D2A25720   8.306   9.235   8.358
 1733POPC   C3A25721   8.124   9.180   7.939
 1733POPC   C4A25722   8.034   8.748   7.802
 1733POPC   C1B25723   8.550   8.979   8.745
 1733POPC   C2B25724   8.728   8.848   8.405
 1733POPC   C3B25725   8.550   8.910   8.042
 1733POPC   C4B25726   8.514   8.770   7.664
 1734POPC   NC325727  21.733  44.848   9.472
 1734POPC   PO425728  22.379  44.586   9.634
 1734POPC   GL125729  22.259  44.729   9.210
 1734POPC   GL225730  21.932  44.729   9.025
 1734POPC   C1A25731  22.401  44.768   8.782
 1734POPC   D2A25732  22.374  44.539   8.406
 1734POPC   C3A25733  22.437  44.757   8.027
 1734POPC   C4A25734  22.327  44.798   7.606
 1734POPC   C1B25735  22.065  44.353   8.802
 1734POPC   C2B25736  21.975  44.249   8.384
 1734POPC   C3B25737  21.969  44.566   8.014
 1734POPC   C4B25738  21.792  44.746   7.635
 1735POPC   NC325739  17.217  34.444   9.458
 1735POPC   PO425740  16.536  34.254   9.451
 1735POPC   GL125741  16.822  34.328   9.149
 1735POPC   GL225742  16.844  34.684   9.155
 1735POPC   C1A25743  16.886  34.346   8.715
 1735POPC   D2A25744  16.950  34.526   8.326
 1735POPC   C3A25745  16.584  34.539   8.078
 1735POPC   C4A25746  16.378  34.194   7.863
 1735POPC   C1B25747  16.796  34.848   8.726
 1735POPC   C2B25748  16.768  35.008   8.287
 1735POPC   C3B25749  16.886  34.963   7.838
 1735POPC   C4B25750  16.766  34.854   7.380
 1736POPC   NC325751  31.667  11.512   9.365
 1736POPC   PO425752  31.176  10.905   9.520
 1736POPC   GL125753  31.335  10.952   9.079
 1736POPC   GL225754  31.686  11.058   9.119
 1736POPC   C1A25755  31.237  11.077   8.630
 1736POPC   D2A25756  31.205  11.328   8.241
 1736POPC   C3A25757  31.376  11.165   7.906
 1736POPC   C4A25758  31.364  11.502   7.591
 1736POPC   C1B25759  31.755  11.201   8.709
 1736POPC   C2B25760  31.702  11.404   8.293
 1736POPC   C3B25761  31.803  11.417   7.843
 1736POPC   C4B25762  31.737  11.107   7.495
 1737POPC   NC325763  22.513  16.581   9.704
 1737POPC   PO425764  21.897  16.583   9.437
 1737POPC   GL125765  22.044  16.465   9.093
 1737POPC   GL225766  22.377  16.529   9.183
 1737POPC   C1A25767  21.984  16.562   8.695
 1737POPC   D2A25768  22.032  16.312   8.361
 1737POPC   C3A25769  21.884  16.559   8.061
 1737POPC   C4A25770  21.793  16.617   7.654
 1737POPC   C1B25771  22.446  16.761   8.779
 1737POPC   C2B25772  22.296  16.754   8.319
 1737POPC   C3B25773  22.325  16.721   7.849
 1737POPC   C4B25774  22.458  16.769   7.383
 1738POPC   NC325775  13.144   5.487   9.439
 1738POPC   PO425776  12.747   6.062   9.621
 1738POPC   GL125777  13.024   5.963   9.188
 1738POPC   GL225778  13.050   5.666   8.988
 1738POPC   C1A25779  12.866   6.075   8.749
 1738POPC   D2A25780  12.648   5.902   8.421
 1738POPC   C3A25781  12.901   5.813   8.051
 1738POPC   C4A25782  12.775   5.882   7.652
 1738POPC   C1B25783  13.068   5.379   8.719
 1738POPC   C2B25784  13.125   5.450   8.336
 1738POPC   C3B25785  13.077   5.320   7.937
 1738POPC   C4B25786  13.093   5.404   7.501
 1739POPC   NC325787  31.739  20.109   9.425
 1739POPC   PO425788  31.220  19.624   9.469
 1739POPC   GL125789  31.286  19.805   9.068
 1739POPC   GL225790  31.369  20.148   9.090
 1739POPC   C1A25791  31.352  19.836   8.618
 1739POPC   D2A25792  31.676  19.527   8.426
 1739POPC   C3A25793  31.640  19.477   7.979
 1739POPC   C4A25794  31.271  19.613   7.777
 1739POPC   C1B25795  31.373  20.370   8.726
 1739POPC   C2B25796  31.384  20.324   8.307
 1739POPC   C3B25797  31.354  20.098   7.962
 1739POPC   C4B25798  31.685  19.926   7.743
 1740POPC   NC325799  30.539  30.459   9.431
 1740POPC   PO425800  30.205  31.056   9.292
 1740POPC   GL125801  30.505  30.822   9.069
 1740POPC   GL225802  30.841  30.823   9.186
 1740POPC   C1A25803  30.529  30.640   8.677
 1740POPC   D2A25804  30.535  30.907   8.369
 1740POPC   C3A25805  30.456  30.720   8.031
 1740POPC   C4A25806  30.454  30.828   7.649
 1740POPC   C1B25807  31.067  30.672   8.810
 1740POPC   C2B25808  31.017  30.736   8.416
 1740POPC   C3B25809  31.170  30.686   8.050
 1740POPC   C4B25810  30.891  30.608   7.757
 1741POPC   NC325811  31.177  14.613   9.452
 1741POPC   PO425812  31.511  13.994   9.465
 1741POPC   GL125813  31.443  14.286   9.170
 1741POPC   GL225814  31.101  14.243   9.091
 1741POPC   C1A25815  31.584  14.539   8.830
 1741POPC   D2A25816  31.742  14.491   8.423
 1741POPC   C3A25817  31.606  14.719   8.051
 1741POPC   C4A25818  31.483  14.497   7.673
 1741POPC   C1B25819  31.039  14.157   8.676
 1741POPC   C2B25820  31.198  14.452   8.399
 1741POPC   C3B25821  31.105  14.533   8.002
 1741POPC   C4B25822  30.928  14.259   7.712
 1742POPC   NC325823  15.673  29.527   9.377
 1742POPC   PO425824  15.947  30.044   9.584
 1742POPC   GL125825  16.098  29.938   9.165
 1742POPC   GL225826  16.318  29.616   9.151
 1742POPC   C1A25827  16.151  30.202   8.789
 1742POPC   D2A25828  15.880  30.286   8.422
 1742POPC   C3A25829  15.971  30.176   8.013
 1742POPC   C4A25830  15.999  29.971   7.621
 1742POPC   C1B25831  16.159  29.664   8.735
 1742POPC   C2B25832  16.248  29.923   8.372
 1742POPC   C3B25833  16.432  29.927   7.952
 1742POPC   C4B25834  16.413  29.695   7.566
 1743POPC   NC325835  35.675   7.715   9.696
 1743POPC   PO425836  35.210   8.204   9.560
 1743POPC   GL125837  35.222   8.190   9.135
 1743POPC   GL225838  35.555   8.229   9.084
 1743POPC   C1A25839  35.232   8.321   8.693
 1743POPC   D2A25840  34.943   8.496   8.373
 1743POPC   C3A25841  35.182   8.284   8.053
 1743POPC   C4A25842  35.560   8.446   7.878
 1743POPC   C1B25843  35.659   7.986   8.729
 1743POPC   C2B25844  35.646   8.165   8.337
 1743POPC   C3B25845  35.570   7.954   7.966
 1743POPC   C4B25846  35.514   8.044   7.553
 1744POPC   NC325847  16.268   9.022   9.413
 1744POPC   PO425848  15.668   9.304   9.483
 1744POPC   GL125849  15.855   9.124   9.126
 1744POPC   GL225850  15.629   8.968   8.917
 1744POPC   C1A25851  16.138   9.053   8.772
 1744POPC   D2A25852  15.938   9.026   8.379
 1744POPC   C3A25853  16.091   9.099   7.971
 1744POPC   C4A25854  15.934   9.287   7.586
 1744POPC   C1B25855  15.852   8.612   8.703
 1744POPC   C2B25856  15.977   8.542   8.262
 1744POPC   C3B25857  15.826   8.685   7.835
 1744POPC   C4B25858  15.781   8.819   7.389
 1745POPC   NC325859  25.636  44.258   9.448
 1745POPC   PO425860  25.023  43.908   9.471
 1745POPC   GL125861  25.036  43.724   9.073
 1745POPC   GL225862  25.344  43.898   9.048
 1745POPC   C1A25863  25.163  43.616   8.656
 1745POPC   D2A25864  24.998  43.833   8.317
 1745POPC   C3A25865  25.236  43.871   7.929
 1745POPC   C4A25866  25.481  43.620   7.672
 1745POPC   C1B25867  25.294  44.134   8.653
 1745POPC   C2B25868  25.090  44.323   8.293
 1745POPC   C3B25869  24.988  44.306   7.883
 1745POPC   C4B25870  25.378  44.318   7.621
 1746POPC   NC325871  40.547   1.406   9.613
 1746POPC   PO425872  41.025   1.029   9.299
 1746POPC   GL125873  40.889   1.362   9.049
 1746POPC   GL225874  40.539   1.423   9.100
 1746POPC   C1A25875  40.973   1.304   8.609
 1746POPC   D2A25876  40.939   1.026   8.251
 1746POPC   C3A25877  40.901   1.286   7.898
 1746POPC   C4A25878  41.126   1.362   7.549
 1746POPC   C1B25879  40.489   1.194   8.687
 1746POPC   C2B25880  40.500   1.308   8.248
 1746POPC   C3B25881  40.430   1.151   7.814
 1746POPC   C4B25882  40.254   1.363   7.420
 1747POPC   NC325883  18.614  13.515   9.337
 1747POPC   PO425884  18.983  14.046   9.594
 1747POPC   GL125885  19.109  13.841   9.193
 1747POPC   GL225886  19.061  13.472   9.129
 1747POPC   C1A25887  19.257  13.744   8.767
 1747POPC   D2A25888  19.088  13.680   8.351
 1747POPC   C3A25889  19.312  13.893   8.079
 1747POPC   C4A25890  19.329  13.785   7.684
 1747POPC   C1B25891  18.784  13.559   8.737
 1747POPC   C2B25892  18.709  13.330   8.357
 1747POPC   C3B25893  18.664  13.443   7.966
 1747POPC   C4B25894  18.843  13.814   7.842
 1748POPC   NC325895  34.886  15.466   9.521
 1748POPC   PO425896  34.377  15.955   9.414
 1748POPC   GL125897  34.359  15.677   9.058
 1748POPC   GL225898  34.689  15.619   9.078
 1748POPC   C1A25899  34.323  15.662   8.609
 1748POPC   D2A25900  34.353  15.959   8.290
 1748POPC   C3A25901  34.272  15.888   7.878
 1748POPC   C4A25902  34.600  16.143   7.693
 1748POPC   C1B25903  34.857  15.555   8.704
 1748POPC   C2B25904  34.885  15.686   8.303
 1748POPC   C3B25905  34.739  15.670   7.902
 1748POPC   C4B25906  34.942  15.752   7.523
 1749POPC   NC325907  28.702  29.171   9.346
 1749POPC   PO425908  29.274  29.080   9.599
 1749POPC   GL125909  29.087  28.880   9.196
 1749POPC   GL225910  29.204  29.132   8.960
 1749POPC   C1A25911  28.824  28.834   8.812
 1749POPC   D2A25912  28.878  29.125   8.494
 1749POPC   C3A25913  28.920  29.014   8.070
 1749POPC   C4A25914  28.945  28.780   7.696
 1749POPC   C1B25915  29.363  29.510   8.770
 1749POPC   C2B25916  29.479  29.605   8.345
 1749POPC   C3B25917  29.317  29.441   7.938
 1749POPC   C4B25918  29.041  29.282   7.605
 1750POPC   NC325919  22.103   8.350   9.379
 1750POPC   PO425920  21.396   8.296   9.537
 1750POPC   GL125921  21.521   8.136   9.153
 1750POPC   GL225922  21.712   8.417   9.063
 1750POPC   C1A25923  21.487   8.115   8.704
 1750POPC   D2A25924  21.424   8.482   8.438
 1750POPC   C3A25925  21.186   8.389   8.070
 1750POPC   C4A25926  21.287   8.447   7.643
 1750POPC   C1B25927  21.930   8.424   8.671
 1750POPC   C2B25928  21.920   8.585   8.279
 1750POPC   C3B25929  21.684   8.467   7.935
 1750POPC   C4B25930  21.838   8.239   7.531
 1751POPC   NC325931   4.177  14.564   9.845
 1751POPC   PO425932   4.663  14.209   9.508
 1751POPC   GL125933   4.596  14.382   9.067
 1751POPC   GL225934   4.271  14.545   9.116
 1751POPC   C1A25935   4.402  14.488   8.614
 1751POPC   D2A25936   4.570  14.836   8.309
 1751POPC   C3A25937   4.521  14.691   7.893
 1751POPC   C4A25938   4.515  14.244   7.797
 1751POPC   C1B25939   4.185  14.117   8.894
 1751POPC   C2B25940   3.903  14.160   8.546
 1751POPC   C3B25941   4.099  14.221   8.148
 1751POPC   C4B25942   4.019  14.417   7.782
 1752POPC   NC325943  22.469   6.524   9.572
 1752POPC   PO425944  21.833   6.493   9.481
 1752POPC   GL125945  22.174   6.481   9.142
 1752POPC   GL225946  22.417   6.210   9.170
 1752POPC   C1A25947  22.258   6.623   8.683
 1752POPC   D2A25948  22.197   7.036   8.436
 1752POPC   C3A25949  21.951   7.018   8.059
 1752POPC   C4A25950  22.162   6.857   7.742
 1752POPC   C1B25951  22.412   6.084   8.780
 1752POPC   C2B25952  22.583   6.248   8.402
 1752POPC   C3B25953  22.746   6.267   8.004
 1752POPC   C4B25954  22.412   6.326   7.709
 1753POPC   NC325955  40.144  39.628   9.581
 1753POPC   PO425956  39.730  39.008   9.486
 1753POPC   GL125957  39.899  39.163   9.138
 1753POPC   GL225958  40.238  39.265   9.211
 1753POPC   C1A25959  39.969  39.317   8.722
 1753POPC   D2A25960  40.136  39.204   8.312
 1753POPC   C3A25961  39.904  39.368   7.945
 1753POPC   C4A25962  39.857  39.130   7.576
 1753POPC   C1B25963  40.391  39.533   8.865
 1753POPC   C2B25964  40.251  39.698   8.446
 1753POPC   C3B25965  40.367  39.587   8.003
 1753POPC   C4B25966  40.277  39.449   7.563
 1754POPC   NC325967  43.648   0.680   9.382
 1754POPC   PO425968  44.248   0.300   9.562
 1754POPC   GL125969  44.003   0.357   9.197
 1754POPC   GL225970  43.793   0.061   9.170
 1754POPC   C1A25971  44.082   0.551   8.784
 1754POPC   D2A25972  44.072   0.333   8.406
 1754POPC   C3A25973  44.006   0.529   8.054
 1754POPC   C4A25974  44.307   0.562   7.804
 1754POPC   C1B25975  43.739   0.185   8.768
 1754POPC   C2B25976  43.582   0.481   8.478
 1754POPC   C3B25977  43.600   0.235   8.128
 1754POPC   C4B25978  43.726   0.232   7.722
 1755POPC   NC325979  28.226  38.344   9.502
 1755POPC   PO425980  28.688  38.720   9.205
 1755POPC   GL125981  28.431  38.491   9.057
 1755POPC   GL225982  28.162  38.724   9.120
 1755POPC   C1A25983  28.548  38.320   8.679
 1755POPC   D2A25984  28.751  38.360   8.266
 1755POPC   C3A25985  28.499  38.437   7.863
 1755POPC   C4A25986  28.430  38.223   7.456
 1755POPC   C1B25987  28.089  38.535   8.704
 1755POPC   C2B25988  28.243  38.510   8.296
 1755POPC   C3B25989  28.000  38.441   7.919
 1755POPC   C4B25990  28.004  38.502   7.480
 1756POPC   NC325991  30.131  24.749   9.511
 1756POPC   PO425992  29.681  24.372   9.562
 1756POPC   GL125993  29.977  24.374   9.197
 1756POPC   GL225994  29.871  24.097   9.067
 1756POPC   C1A25995  29.903  24.492   8.744
 1756POPC   D2A25996  29.915  24.625   8.294
 1756POPC   C3A25997  29.739  24.353   7.978
 1756POPC   C4A25998  29.909  24.171   7.605
 1756POPC   C1B25999  30.255  24.125   8.791
 1756POPC   C2B26000  30.412  24.037   8.383
 1756POPC   C3B26001  30.269  24.261   8.015
 1756POPC   C4B26002  30.426  24.216   7.624
 1757POPC   NC326003   1.390  11.808   9.558
 1757POPC   PO426004   0.967  12.324   9.541
 1757POPC   GL126005   1.281  12.229   9.200
 1757POPC   GL226006   1.648  12.257   9.258
 1757POPC   C1A26007   1.197  12.295   8.754
 1757POPC   D2A26008   0.991  12.407   8.366
 1757POPC   C3A26009   1.120  12.121   8.035
 1757POPC   C4A26010   1.445  11.836   7.904
 1757POPC   C1B26011   1.597  12.569   8.906
 1757POPC   C2B26012   1.388  12.716   8.505
 1757POPC   C3B26013   1.466  12.532   8.092
 1757POPC   C4B26014   1.429  12.344   7.694
 1758POPC   NC326015  44.808  22.468   9.808
 1758POPC   PO426016  44.748  23.016   9.439
 1758POPC   GL126017  44.639  23.009   9.015
 1758POPC   GL226018  44.504  22.669   8.940
 1758POPC   C1A26019  44.477  23.200   8.625
 1758POPC   D2A26020  44.497  23.324   8.176
 1758POPC   C3A26021  44.432  23.010   7.834
 1758POPC   C4A26022  44.449  23.171   7.413
 1758POPC   C1B26023  44.824  22.749   8.600
 1758POPC   C2B26024   0.076  22.995   8.325
 1758POPC   C3B26025  44.918  23.108   7.938
 1758POPC   C4B26026  44.852  22.882   7.566
 1759POPC   NC326027  22.086  24.924   9.791
 1759POPC   PO426028  22.084  25.523   9.564
 1759POPC   GL126029  21.958  25.431   9.082
 1759POPC   GL226030  21.841  25.076   9.074
 1759POPC   C1A26031  22.067  25.492   8.616
 1759POPC   D2A26032  22.115  25.601   8.149
 1759POPC   C3A26033  22.354  25.345   7.798
 1759POPC   C4A26034  22.389  25.396   7.321
 1759POPC   C1B26035  21.678  25.138   8.672
 1759POPC   C2B26036  21.661  25.341   8.288
 1759POPC   C3B26037  21.843  25.247   7.895
 1759POPC   C4B26038  21.937  25.531   7.592
 1760POPC   NC326039  26.315   0.336   9.448
 1760POPC   PO426040  25.643   0.630   9.446
 1760POPC   GL126041  25.937   0.443   9.136
 1760POPC   GL226042  25.877   0.711   8.972
 1760POPC   C1A26043  26.203   0.446   8.709
 1760POPC   D2A26044  26.033   0.367   8.268
 1760POPC   C3A26045  26.242   0.415   7.866
 1760POPC   C4A26046  26.325   0.215   7.408
 1760POPC   C1B26047  25.703   0.470   8.655
 1760POPC   C2B26048  25.545   0.571   8.293
 1760POPC   C3B26049  25.690   0.594   7.866
 1760POPC   C4B26050  25.987   0.715   7.553
 1761POPC   NC326051   4.186  39.783   9.419
 1761POPC   PO426052   4.115  40.456   9.339
 1761POPC   GL126053   4.524  40.227   9.206
 1761POPC   GL226054   4.543  39.848   9.063
 1761POPC   C1A26055   4.719  40.273   8.813
 1761POPC   D2A26056   4.498  39.989   8.564
 1761POPC   C3A26057   4.473  39.946   8.153
 1761POPC   C4A26058   4.474  39.902   7.739
 1761POPC   C1B26059   4.142  39.697   8.791
 1761POPC   C2B26060   4.002  39.576   8.362
 1761POPC   C3B26061   4.031  39.736   7.929
 1761POPC   C4B26062   4.211  39.570   7.460
 1762POPC   NC326063   8.575   4.580   9.377
 1762POPC   PO426064   8.094   4.899   9.679
 1762POPC   GL126065   8.037   5.020   9.203
 1762POPC   GL226066   8.111   4.702   9.144
 1762POPC   C1A26067   8.112   5.079   8.743
 1762POPC   D2A26068   8.318   5.211   8.338
 1762POPC   C3A26069   8.361   5.189   7.879
 1762POPC   C4A26070   8.129   5.049   7.505
 1762POPC   C1B26071   8.329   4.614   8.761
 1762POPC   C2B26072   8.609   4.826   8.516
 1762POPC   C3B26073   8.512   4.765   8.103
 1762POPC   C4B26074   8.449   4.688   7.667
 1763POPC   NC326075  30.441  20.189   9.414
 1763POPC   PO426076  30.615  20.849   9.280
 1763POPC   GL126077  30.651  20.491   9.035
 1763POPC   GL226078  31.016  20.533   9.076
 1763POPC   C1A26079  30.486  20.488   8.605
 1763POPC   D2A26080  30.306  20.838   8.326
 1763POPC   C3A26081  30.290  20.746   7.866
 1763POPC   C4A26082  30.609  20.508   7.643
 1763POPC   C1B26083  30.951  20.711   8.663
 1763POPC   C2B26084  30.887  20.736   8.185
 1763POPC   C3B26085  31.111  20.572   7.800
 1763POPC   C4B26086  31.026  20.539   7.332
 1764POPC   NC326087   4.447  33.127   9.509
 1764POPC   PO426088   3.930  32.638   9.497
 1764POPC   GL126089   4.225  32.784   9.167
 1764POPC   GL226090   4.208  33.146   9.064
 1764POPC   C1A26091   4.489  32.824   8.783
 1764POPC   D2A26092   4.435  33.060   8.391
 1764POPC   C3A26093   4.405  32.839   8.013
 1764POPC   C4A26094   4.056  32.747   7.735
 1764POPC   C1B26095   4.546  33.356   8.814
 1764POPC   C2B26096   4.814  33.415   8.427
 1764POPC   C3B26097   4.622  33.498   8.015
 1764POPC   C4B26098   4.350  33.272   7.734
 1765POPC   NC326099  13.618  18.064   9.623
 1765POPC   PO426100  13.470  18.673   9.565
 1765POPC   GL126101  13.363  18.409   9.142
 1765POPC   GL226102  13.576  18.094   9.106
 1765POPC   C1A26103  13.298  18.197   8.690
 1765POPC   D2A26104  13.467  18.057   8.274
 1765POPC   C3A26105  13.630  18.419   8.080
 1765POPC   C4A26106  13.364  18.602   7.852
 1765POPC   C1B26107  13.758  17.939   8.696
 1765POPC   C2B26108  13.942  17.810   8.306
 1765POPC   C3B26109  13.881  17.992   7.880
 1765POPC   C4B26110  13.445  18.097   7.738
 1766POPC   NC326111  32.713  18.415   9.332
 1766POPC   PO426112  32.188  18.220   9.724
 1766POPC   GL126113  32.215  18.355   9.232
 1766POPC   GL226114  32.445  18.120   9.024
 1766POPC   C1A26115  32.351  18.521   8.765
 1766POPC   D2A26116  32.173  18.495   8.345
 1766POPC   C3A26117  32.277  18.183   8.050
 1766POPC   C4A26118  32.195  18.234   7.635
 1766POPC   C1B26119  32.125  18.043   8.688
 1766POPC   C2B26120  31.841  18.100   8.317
 1766POPC   C3B26121  31.837  17.953   7.894
 1766POPC   C4B26122  32.108  17.746   7.620
 1767POPC   NC326123  36.036  41.932   9.622
 1767POPC   PO426124  36.263  41.316   9.369
 1767POPC   GL126125  36.224  41.612   9.055
 1767POPC   GL226126  35.927  41.753   9.142
 1767POPC   C1A26127  36.338  41.612   8.632
 1767POPC   D2A26128  36.323  41.518   8.206
 1767POPC   C3A26129  36.511  41.788   7.930
 1767POPC   C4A26130  36.343  41.740   7.519
 1767POPC   C1B26131  35.856  41.439   8.778
 1767POPC   C2B26132  35.800  41.504   8.332
 1767POPC   C3B26133  35.897  41.548   7.880
 1767POPC   C4B26134  35.839  41.848   7.512
 1768POPC   NC326135  18.830  22.710   9.668
 1768POPC   PO426136  19.077  23.316   9.523
 1768POPC   GL126137  19.011  22.961   9.207
 1768POPC   GL226138  19.299  22.810   9.001
 1768POPC   C1A26139  18.827  22.832   8.813
 1768POPC   D2A26140  18.994  22.921   8.394
 1768POPC   C3A26141  18.978  22.889   7.946
 1768POPC   C4A26142  18.655  22.663   7.713
 1768POPC   C1B26143  19.469  22.867   8.593
 1768POPC   C2B26144  19.439  23.074   8.203
 1768POPC   C3B26145  19.293  23.320   7.870
 1768POPC   C4B26146  19.304  23.160   7.507
 1769POPC   NC326147  43.575   2.084   9.532
 1769POPC   PO426148  44.256   1.970   9.443
 1769POPC   GL126149  44.054   2.146   9.087
 1769POPC   GL226150  43.700   2.227   9.061
 1769POPC   C1A26151  43.942   1.923   8.716
 1769POPC   D2A26152  43.697   1.825   8.382
 1769POPC   C3A26153  43.721   2.121   8.086
 1769POPC   C4A26154  43.934   1.917   7.777
 1769POPC   C1B26155  43.707   2.371   8.629
 1769POPC   C2B26156  43.989   2.498   8.300
 1769POPC   C3B26157  44.077   2.421   7.861
 1769POPC   C4B26158  43.734   2.361   7.543
 1770POPC   NC326159  35.115  39.651   9.336
 1770POPC   PO426160  35.036  40.397   9.438
 1770POPC   GL126161  35.288  40.111   9.146
 1770POPC   GL226162  35.532  39.838   9.032
 1770POPC   C1A26163  35.159  40.082   8.734
 1770POPC   D2A26164  35.118  40.311   8.382
 1770POPC   C3A26165  35.169  40.186   7.945
 1770POPC   C4A26166  35.594  40.131   7.781
 1770POPC   C1B26167  35.338  39.611   8.722
 1770POPC   C2B26168  35.147  39.754   8.337
 1770POPC   C3B26169  35.347  39.705   7.988
 1770POPC   C4B26170  35.230  39.752   7.618
 1771POPC   NC326171  38.286  31.474   9.290
 1771POPC   PO426172  37.690  31.752   9.407
 1771POPC   GL126173  37.820  31.574   9.065
 1771POPC   GL226174  38.058  31.846   9.018
 1771POPC   C1A26175  37.641  31.393   8.688
 1771POPC   D2A26176  37.757  31.460   8.265
 1771POPC   C3A26177  37.501  31.253   7.975
 1771POPC   C4A26178  37.582  31.029   7.629
 1771POPC   C1B26179  37.743  31.917   8.690
 1771POPC   C2B26180  37.917  31.986   8.319
 1771POPC   C3B26181  38.094  31.757   8.019
 1771POPC   C4B26182  37.848  31.525   7.732
 1772POPC   NC326183   1.853   8.913   9.571
 1772POPC   PO426184   2.423   9.072   9.457
 1772POPC   GL126185   2.170   8.924   9.134
 1772POPC   GL226186   1.832   9.039   9.083
 1772POPC   C1A26187   2.219   8.862   8.693
 1772POPC   D2A26188   2.311   9.065   8.295
 1772POPC   C3A26189   2.182   8.842   7.910
 1772POPC   C4A26190   2.148   8.984   7.481
 1772POPC   C1B26191   1.740   9.016   8.642
 1772POPC   C2B26192   1.801   9.031   8.198
 1772POPC   C3B26193   1.717   9.008   7.760
 1772POPC   C4B26194   1.426   8.764   7.462
 1773POPC   NC326195  42.139   1.851   9.487
 1773POPC   PO426196  42.584   2.283   9.252
 1773POPC   GL126197  42.297   2.106   9.060
 1773POPC   GL226198  42.440   1.786   9.081
 1773POPC   C1A26199  42.317   2.077   8.643
 1773POPC   D2A26200  42.444   2.089   8.277
 1773POPC   C3A26201  42.124   2.238   8.089
 1773POPC   C4A26202  42.336   2.178   7.719
 1773POPC   C1B26203  42.083   1.678   8.832
 1773POPC   C2B26204  42.274   1.611   8.408
 1773POPC   C3B26205  42.175   1.736   8.011
 1773POPC   C4B26206  42.352   1.651   7.654
 1774POPC   NC326207  12.013  41.343   9.552
 1774POPC   PO426208  12.446  41.782   9.407
 1774POPC   GL126209  12.081  41.757   9.106
 1774POPC   GL226210  11.902  41.446   9.058
 1774POPC   C1A26211  12.044  41.756   8.653
 1774POPC   D2A26212  12.358  41.592   8.353
 1774POPC   C3A26213  12.187  41.615   7.938
 1774POPC   C4A26214  11.830  41.909   7.874
 1774POPC   C1B26215  11.661  41.439   8.697
 1774POPC   C2B26216  11.833  41.413   8.289
 1774POPC   C3B26217  11.672  41.412   7.877
 1774POPC   C4B26218  11.727  41.172   7.524
 1775POPC   NC326219  23.055  35.201   9.570
 1775POPC   PO426220  22.987  34.487   9.622
 1775POPC   GL126221  23.112  34.693   9.204
 1775POPC   GL226222  23.243  34.401   9.044
 1775POPC   C1A26223  23.239  34.830   8.743
 1775POPC   D2A26224  23.036  34.807   8.296
 1775POPC   C3A26225  23.243  34.812   7.859
 1775POPC   C4A26226  23.171  34.776   7.387
 1775POPC   C1B26227  23.173  34.346   8.590
 1775POPC   C2B26228  22.935  34.284   8.185
 1775POPC   C3B26229  22.970  34.375   7.717
 1775POPC   C4B26230  22.712  34.530   7.366
 1776POPC   NC326231  26.473  21.671   9.793
 1776POPC   PO426232  26.922  22.002   9.714
 1776POPC   GL126233  26.903  22.084   9.270
 1776POPC   GL226234  26.585  21.920   9.184
 1776POPC   C1A26235  26.720  22.319   8.887
 1776POPC   D2A26236  26.595  22.284   8.440
 1776POPC   C3A26237  26.988  22.136   8.264
 1776POPC   C4A26238  27.161  22.090   7.865
 1776POPC   C1B26239  26.285  22.025   8.821
 1776POPC   C2B26240  26.115  21.976   8.386
 1776POPC   C3B26241  26.271  22.160   8.028
 1776POPC   C4B26242  26.645  22.138   7.896
 1777POPC   NC326243  15.407  15.147   9.563
 1777POPC   PO426244  14.752  15.213   9.521
 1777POPC   GL126245  15.061  15.385   9.160
 1777POPC   GL226246  15.456  15.383   9.099
 1777POPC   C1A26247  15.137  15.245   8.708
 1777POPC   D2A26248  14.999  14.902   8.417
 1777POPC   C3A26249  14.954  14.960   7.951
 1777POPC   C4A26250  15.092  15.353   7.728
 1777POPC   C1B26251  15.537  14.981   8.926
 1777POPC   C2B26252  15.594  14.934   8.498
 1777POPC   C3B26253  15.413  15.025   8.120
 1777POPC   C4B26254  15.414  14.853   7.712
 1778POPC   NC326255   3.542  22.394   9.633
 1778POPC   PO426256   3.627  21.833   9.537
 1778POPC   GL126257   3.477  22.037   9.180
 1778POPC   GL226258   3.774  21.920   9.019
 1778POPC   C1A26259   3.347  22.260   8.781
 1778POPC   D2A26260   3.139  22.394   8.344
 1778POPC   C3A26261   3.353  22.336   7.930
 1778POPC   C4A26262   3.802  22.383   7.830
 1778POPC   C1B26263   3.482  21.759   8.722
 1778POPC   C2B26264   3.520  22.012   8.352
 1778POPC   C3B26265   3.653  21.907   7.971
 1778POPC   C4B26266   3.349  21.869   7.691
 1779POPC   NC326267   6.306  28.996   9.457
 1779POPC   PO426268   6.803  29.393   9.696
 1779POPC   GL126269   6.656  29.464   9.249
 1779POPC   GL226270   6.341  29.362   9.108
 1779POPC   C1A26271   6.800  29.250   8.880
 1779POPC   D2A26272   6.745  28.970   8.538
 1779POPC   C3A26273   6.742  29.127   8.120
 1779POPC   C4A26274   6.847  29.106   7.710
 1779POPC   C1B26275   6.290  29.128   8.716
 1779POPC   C2B26276   6.274  28.963   8.272
 1779POPC   C3B26277   6.286  29.090   7.826
 1779POPC   C4B26278   6.304  29.188   7.379
 1780POPC   NC326279  44.204  38.527   9.617
 1780POPC   PO426280  43.608  38.244   9.657
 1780POPC   GL126281  43.824  38.407   9.282
 1780POPC   GL226282  43.912  38.739   9.249
 1780POPC   C1A26283  43.743  38.460   8.833
 1780POPC   D2A26284  43.536  38.296   8.467
 1780POPC   C3A26285  43.781  38.406   8.116
 1780POPC   C4A26286  43.753  38.448   7.675
 1780POPC   C1B26287  44.080  38.880   8.850
 1780POPC   C2B26288  44.150  38.655   8.445
 1780POPC   C3B26289  44.231  38.642   7.989
 1780POPC   C4B26290  44.283  38.698   7.551
 1781POPC   NC326291  10.272  29.106   9.669
 1781POPC   PO426292  10.904  28.973   9.610
 1781POPC   GL126293  10.596  28.973   9.283
 1781POPC   GL226294  10.482  29.296   9.233
 1781POPC   C1A26295  10.598  28.940   8.817
 1781POPC   D2A26296  10.868  29.042   8.435
 1781POPC   C3A26297  10.658  29.082   8.033
 1781POPC   C4A26298  10.673  28.787   7.710
 1781POPC   C1B26299  10.247  29.345   8.851
 1781POPC   C2B26300  10.296  29.195   8.421
 1781POPC   C3B26301  10.176  29.346   8.011
 1781POPC   C4B26302  10.432  29.427   7.649
 1782POPC   NC326303  19.408  28.230   9.409
 1782POPC   PO426304  18.807  28.317   9.534
 1782POPC   GL126305  18.990  28.422   9.162
 1782POPC   GL226306  19.183  28.715   9.297
 1782POPC   C1A26307  19.038  28.247   8.725
 1782POPC   D2A26308  18.900  28.185   8.288
 1782POPC   C3A26309  19.022  28.418   7.950
 1782POPC   C4A26310  18.705  28.505   7.642
 1782POPC   C1B26311  19.304  28.702   8.864
 1782POPC   C2B26312  19.210  28.641   8.413
 1782POPC   C3B26313  19.461  28.701   8.025
 1782POPC   C4B26314  19.429  28.578   7.588
 1783POPC   NC326315  41.519  25.836   9.216
 1783POPC   PO426316  41.791  26.437   9.326
 1783POPC   GL126317  41.686  26.248   8.971
 1783POPC   GL226318  41.332  26.256   8.966
 1783POPC   C1A26319  41.629  26.017   8.599
 1783POPC   D2A26320  41.802  25.969   8.233
 1783POPC   C3A26321  41.477  25.953   7.938
 1783POPC   C4A26322  41.280  25.598   7.757
 1783POPC   C1B26323  41.372  26.513   8.589
 1783POPC   C2B26324  41.670  26.677   8.281
 1783POPC   C3B26325  41.814  26.378   7.961
 1783POPC   C4B26326  41.548  26.317   7.586
 1784POPC   NC326327  40.934  24.894   9.434
 1784POPC   PO426328  40.405  24.409   9.502
 1784POPC   GL126329  40.521  24.348   9.108
 1784POPC   GL226330  40.598  24.695   9.083
 1784POPC   C1A26331  40.638  24.418   8.674
 1784POPC   D2A26332  40.452  24.519   8.303
 1784POPC   C3A26333  40.754  24.404   8.000
 1784POPC   C4A26334  40.589  24.290   7.621
 1784POPC   C1B26335  40.862  24.889   8.743
 1784POPC   C2B26336  40.863  24.840   8.295
 1784POPC   C3B26337  40.699  24.895   7.881
 1784POPC   C4B26338  40.939  24.671   7.569
 1785POPC   NC326339   3.811  21.431   9.622
 1785POPC   PO426340   4.396  21.196   9.594
 1785POPC   GL126341   4.458  21.421   9.225
 1785POPC   GL226342   4.156  21.636   9.231
 1785POPC   C1A26343   4.535  21.353   8.802
 1785POPC   D2A26344   4.233  21.280   8.483
 1785POPC   C3A26345   4.348  21.336   8.057
 1785POPC   C4A26346   4.161  21.126   7.734
 1785POPC   C1B26347   4.250  21.773   8.775
 1785POPC   C2B26348   4.342  21.794   8.298
 1785POPC   C3B26349   4.179  21.781   7.834
 1785POPC   C4B26350   4.160  21.808   7.340
 1786POPC   NC326351   3.480  30.552   9.564
 1786POPC   PO426352   4.120  30.302   9.364
 1786POPC   GL126353   3.824  30.587   9.094
 1786POPC   GL226354   3.419  30.632   9.073
 1786POPC   C1A26355   3.677  30.709   8.658
 1786POPC   D2A26356   3.372  30.529   8.366
 1786POPC   C3A26357   3.500  30.655   7.960
 1786POPC   C4A26358   3.698  30.500   7.586
 1786POPC   C1B26359   3.275  31.015   8.839
 1786POPC   C2B26360   2.970  31.093   8.500
 1786POPC   C3B26361   3.041  30.871   8.118
 1786POPC   C4B26362   3.238  31.055   7.804
 1787POPC   NC326363  20.202  13.309   9.457
 1787POPC   PO426364  20.589  12.762   9.715
 1787POPC   GL126365  20.468  12.879   9.299
 1787POPC   GL226366  20.227  12.635   9.231
 1787POPC   C1A26367  20.517  12.905   8.847
 1787POPC   D2A26368  20.491  12.734   8.413
 1787POPC   C3A26369  20.773  12.877   8.077
 1787POPC   C4A26370  20.667  13.143   7.720
 1787POPC   C1B26371  20.065  12.621   8.832
 1787POPC   C2B26372  20.060  12.425   8.427
 1787POPC   C3B26373  20.075  12.620   8.028
 1787POPC   C4B26374  20.393  12.728   7.716
 1788POPC   NC326375  26.857  25.565   9.454
 1788POPC   PO426376  26.539  25.006   9.317
 1788POPC   GL126377  26.832  25.257   9.005
 1788POPC   GL226378  27.092  25.540   9.006
 1788POPC   C1A26379  26.858  25.476   8.581
 1788POPC   D2A26380  27.170  25.509   8.265
 1788POPC   C3A26381  26.945  25.382   7.880
 1788POPC   C4A26382  26.540  25.174   7.745
 1788POPC   C1B26383  27.300  25.226   8.714
 1788POPC   C2B26384  27.438  25.034   8.294
 1788POPC   C3B26385  27.323  25.023   7.846
 1788POPC   C4B26386  26.971  24.964   7.556
 1789POPC   NC326387  39.962   6.193   9.445
 1789POPC   PO426388  39.789   6.823   9.385
 1789POPC   GL126389  39.991   6.613   9.080
 1789POPC   GL226390  40.152   6.287   8.984
 1789POPC   C1A26391  39.923   6.778   8.711
 1789POPC   D2A26392  39.710   6.764   8.366
 1789POPC   C3A26393  39.949   6.708   8.012
 1789POPC   C4A26394  39.985   6.825   7.601
 1789POPC   C1B26395  39.869   6.264   8.656
 1789POPC   C2B26396  40.003   6.235   8.227
 1789POPC   C3B26397  40.078   6.286   7.786
 1789POPC   C4B26398  39.675   6.408   7.606
 1790POPC   NC326399  36.483  26.788   9.543
 1790POPC   PO426400  35.993  26.406   9.536
 1790POPC   GL126401  36.083  26.788   9.228
 1790POPC   GL226402  36.270  26.575   9.045
 1790POPC   C1A26403  36.135  27.043   8.812
 1790POPC   D2A26404  36.326  27.078   8.398
 1790POPC   C3A26405  36.074  27.060   8.030
 1790POPC   C4A26406  36.221  27.132   7.614
 1790POPC   C1B26407  35.870  26.592   8.786
 1790POPC   C2B26408  35.939  26.674   8.381
 1790POPC   C3B26409  36.196  26.567   8.064
 1790POPC   C4B26410  36.009  26.673   7.659
 1791POPC   NC326411  21.460  27.255   9.491
 1791POPC   PO426412  21.219  26.605   9.587
 1791POPC   GL126413  21.345  26.741   9.163
 1791POPC   GL226414  21.680  26.911   9.158
 1791POPC   C1A26415  21.103  26.706   8.750
 1791POPC   D2A26416  20.911  26.969   8.408
 1791POPC   C3A26417  21.059  27.016   7.992
 1791POPC   C4A26418  21.082  26.709   7.656
 1791POPC   C1B26419  21.447  27.111   8.794
 1791POPC   C2B26420  21.425  26.900   8.388
 1791POPC   C3B26421  21.500  26.735   7.968
 1791POPC   C4B26422  21.566  26.923   7.564
 1792POPC   NC326423   1.810  28.772   9.736
 1792POPC   PO426424   2.129  29.319   9.563
 1792POPC   GL126425   1.980  29.177   9.193
 1792POPC   GL226426   2.284  29.115   9.052
 1792POPC   C1A26427   1.800  28.983   8.821
 1792POPC   D2A26428   1.680  29.240   8.509
 1792POPC   C3A26429   1.823  29.157   8.114
 1792POPC   C4A26430   1.821  29.441   7.797
 1792POPC   C1B26431   2.175  29.338   8.703
 1792POPC   C2B26432   2.218  29.054   8.401
 1792POPC   C3B26433   2.327  28.961   8.018
 1792POPC   C4B26434   2.056  29.015   7.676
 1793POPC   NC326435   2.558   2.969   9.394
 1793POPC   PO426436   2.712   2.293   9.421
 1793POPC   GL126437   2.729   2.583   9.109
 1793POPC   GL226438   3.037   2.768   9.175
 1793POPC   C1A26439   2.516   2.696   8.737
 1793POPC   D2A26440   2.423   2.475   8.344
 1793POPC   C3A26441   2.695   2.673   8.045
 1793POPC   C4A26442   2.968   2.538   7.785
 1793POPC   C1B26443   3.126   2.542   8.779
 1793POPC   C2B26444   3.164   2.648   8.333
 1793POPC   C3B26445   3.142   2.973   8.004
 1793POPC   C4B26446   2.983   3.014   7.559
 1794POPC   NC326447  13.916   6.252   9.437
 1794POPC   PO426448  13.604   5.613   9.403
 1794POPC   GL126449  13.559   5.751   9.024
 1794POPC   GL226450  13.858   5.912   9.038
 1794POPC   C1A26451  13.345   5.949   8.705
 1794POPC   D2A26452  13.365   5.961   8.287
 1794POPC   C3A26453  13.524   5.614   8.096
 1794POPC   C4A26454  13.356   5.735   7.739
 1794POPC   C1B26455  13.821   5.837   8.569
 1794POPC   C2B26456  13.908   6.069   8.232
 1794POPC   C3B26457  13.798   5.955   7.868
 1794POPC   C4B26458  13.862   5.580   7.674
 1795POPC   NC326459  32.422  39.133   9.286
 1795POPC   PO426460  32.992  39.429   9.482
 1795POPC   GL126461  32.941  39.297   9.066
 1795POPC   GL226462  32.849  38.977   9.024
 1795POPC   C1A26463  33.180  39.219   8.688
 1795POPC   D2A26464  33.356  39.486   8.365
 1795POPC   C3A26465  33.082  39.491   7.996
 1795POPC   C4A26466  33.110  39.256   7.610
 1795POPC   C1B26467  32.678  39.110   8.662
 1795POPC   C2B26468  32.865  39.108   8.255
 1795POPC   C3B26469  32.694  39.139   7.860
 1795POPC   C4B26470  32.627  39.419   7.534
 1796POPC   NC326471   8.041  38.624   9.404
 1796POPC   PO426472   8.191  37.981   9.446
 1796POPC   GL126473   8.308  38.285   9.127
 1796POPC   GL226474   8.546  38.579   9.232
 1796POPC   C1A26475   8.043  38.361   8.778
 1796POPC   D2A26476   7.980  38.228   8.369
 1796POPC   C3A26477   7.866  38.553   8.103
 1796POPC   C4A26478   7.960  38.410   7.749
 1796POPC   C1B26479   8.364  38.788   8.846
 1796POPC   C2B26480   8.215  38.717   8.429
 1796POPC   C3B26481   8.379  38.573   8.019
 1796POPC   C4B26482   8.529  38.745   7.609
 1797POPC   NC326483   0.458  33.375   9.229
 1797POPC   PO426484  44.917  33.070   9.457
 1797POPC   GL126485   0.173  32.941   9.081
 1797POPC   GL226486   0.547  32.852   9.167
 1797POPC   C1A26487   0.291  33.145   8.660
 1797POPC   D2A26488   0.372  33.324   8.244
 1797POPC   C3A26489   0.152  32.984   8.048
 1797POPC   C4A26490   0.197  32.858   7.616
 1797POPC   C1B26491   0.730  32.844   8.745
 1797POPC   C2B26492   0.579  32.867   8.309
 1797POPC   C3B26493   0.627  33.037   7.856
 1797POPC   C4B26494   0.654  32.835   7.424
 1798POPC   NC326495   5.484   3.868   9.687
 1798POPC   PO426496   5.917   3.420   9.497
 1798POPC   GL126497   6.012   3.335   9.099
 1798POPC   GL226498   5.668   3.433   8.991
 1798POPC   C1A26499   6.040   3.139   8.721
 1798POPC   D2A26500   5.776   3.225   8.358
 1798POPC   C3A26501   5.997   3.240   7.956
 1798POPC   C4A26502   5.802   3.224   7.528
 1798POPC   C1B26503   5.919   3.643   8.658
 1798POPC   C2B26504   5.901   3.716   8.212
 1798POPC   C3B26505   5.718   3.635   7.821
 1798POPC   C4B26506   6.063   3.679   7.506
 1799POPC   NC326507  40.256  32.123   9.333
 1799POPC   PO426508  39.812  32.598   9.561
 1799POPC   GL126509  39.793  32.320   9.187
 1799POPC   GL226510  39.756  31.936   9.097
 1799POPC   C1A26511  39.956  32.301   8.782
 1799POPC   D2A26512  40.218  32.412   8.461
 1799POPC   C3A26513  39.965  32.372   8.105
 1799POPC   C4A26514  40.063  32.464   7.695
 1799POPC   C1B26515  39.995  31.814   8.698
 1799POPC   C2B26516  40.133  31.900   8.280
 1799POPC   C3B26517  39.948  31.934   7.868
 1799POPC   C4B26518  39.517  32.038   7.787
 1800POPC   NC326519   8.118   6.266   9.444
 1800POPC   PO426520   8.432   6.851   9.622
 1800POPC   GL126521   8.282   6.762   9.198
 1800POPC   GL226522   8.467   6.444   9.082
 1800POPC   C1A26523   8.395   6.908   8.780
 1800POPC   D2A26524   8.342   6.703   8.384
 1800POPC   C3A26525   8.436   6.862   7.999
 1800POPC   C4A26526   8.182   7.017   7.691
 1800POPC   C1B26527   8.120   6.441   8.781
 1800POPC   C2B26528   7.844   6.593   8.436
 1800POPC   C3B26529   7.918   6.642   8.005
 1800POPC   C4B26530   8.064   6.538   7.591
 1801POPC   NC326531  29.760  35.272   9.497
 1801POPC   PO426532  30.198  35.720   9.274
 1801POPC   GL126533  29.830  35.515   9.047
 1801POPC   GL226534  29.807  35.140   9.018
 1801POPC   C1A26535  29.653  35.428   8.628
 1801POPC   D2A26536  29.879  35.204   8.313
 1801POPC   C3A26537  29.767  35.333   7.934
 1801POPC   C4A26538  29.834  35.719   7.744
 1801POPC   C1B26539  30.127  35.068   8.737
 1801POPC   C2B26540  30.320  34.892   8.350
 1801POPC   C3B26541  30.282  35.088   7.985
 1801POPC   C4B26542  30.195  35.372   7.650
 1802POPC   NC326543  31.849  13.249   9.444
 1802POPC   PO426544  32.069  12.656   9.661
 1802POPC   GL126545  32.139  12.831   9.251
 1802POPC   GL226546  32.345  13.112   9.236
 1802POPC   C1A26547  32.116  12.891   8.807
 1802POPC   D2A26548  32.278  12.777   8.399
 1802POPC   C3A26549  32.023  12.593   8.056
 1802POPC   C4A26550  32.272  12.623   7.693
 1802POPC   C1B26551  32.623  13.017   8.849
 1802POPC   C2B26552  32.778  12.950   8.410
 1802POPC   C3B26553  32.697  13.002   7.943
 1802POPC   C4B26554  32.360  13.161   7.651
 1803POPC   NC326555   4.054  15.777   9.421
 1803POPC   PO426556   3.585  16.262   9.439
 1803POPC   GL126557   3.555  15.956   9.117
 1803POPC   GL226558   3.212  15.833   9.079
 1803POPC   C1A26559   3.725  15.960   8.686
 1803POPC   D2A26560   3.829  15.643   8.426
 1803POPC   C3A26561   3.830  15.787   8.017
 1803POPC   C4A26562   3.802  16.141   7.715
 1803POPC   C1B26563   3.247  16.101   8.707
 1803POPC   C2B26564   3.428  16.060   8.265
 1803POPC   C3B26565   3.323  16.247   7.858
 1803POPC   C4B26566   3.020  16.345   7.538
 1804POPC   NC326567  25.682  27.617   9.504
 1804POPC   PO426568  26.095  28.145   9.355
 1804POPC   GL126569  26.063  27.750   9.088
 1804POPC   GL226570  25.867  27.431   9.054
 1804POPC   C1A26571  25.954  27.711   8.646
 1804POPC   D2A26572  25.866  28.021   8.351
 1804POPC   C3A26573  26.043  27.952   7.964
 1804POPC   C4A26574  25.774  27.723   7.737
 1804POPC   C1B26575  26.256  27.296   8.790
 1804POPC   C2B26576  26.276  27.308   8.371
 1804POPC   C3B26577  26.014  27.420   8.063
 1804POPC   C4B26578  26.231  27.521   7.684
 1805POPC   NC326579  44.056  36.313   9.505
 1805POPC   PO426580  43.653  35.768   9.423
 1805POPC   GL126581  43.759  36.095   9.112
 1805POPC   GL226582  44.118  36.220   9.017
 1805POPC   C1A26583  43.830  35.991   8.687
 1805POPC   D2A26584  43.893  36.152   8.321
 1805POPC   C3A26585  43.583  35.977   8.108
 1805POPC   C4A26586  43.501  36.260   7.810
 1805POPC   C1B26587  44.371  36.468   8.716
 1805POPC   C2B26588  44.332  36.434   8.263
 1805POPC   C3B26589  44.265  36.120   7.957
 1805POPC   C4B26590  44.287  36.043   7.533
 1806POPC   NC326591  41.331  13.233   9.580
 1806POPC   PO426592  41.848  12.803   9.546
 1806POPC   GL126593  41.634  12.872   9.194
 1806POPC   GL226594  41.293  12.873   9.251
 1806POPC   C1A26595  41.538  12.962   8.789
 1806POPC   D2A26596  41.716  12.887   8.409
 1806POPC   C3A26597  41.625  13.085   8.090
 1806POPC   C4A26598  41.537  12.879   7.734
 1806POPC   C1B26599  41.180  12.607   8.966
 1806POPC   C2B26600  41.175  12.621   8.548
 1806POPC   C3B26601  41.292  12.661   8.133
 1806POPC   C4B26602  41.098  12.641   7.716
 1807POPC   NC326603   7.377  25.941   9.593
 1807POPC   PO426604   7.258  26.362   9.448
 1807POPC   GL126605   7.364  26.102   9.089
 1807POPC   GL226606   7.150  25.831   9.127
 1807POPC   C1A26607   7.563  26.078   8.678
 1807POPC   D2A26608   7.714  26.082   8.234
 1807POPC   C3A26609   7.610  25.781   7.875
 1807POPC   C4A26610   7.623  25.711   7.397
 1807POPC   C1B26611   7.157  25.775   8.685
 1807POPC   C2B26612   7.210  25.953   8.287
 1807POPC   C3B26613   7.263  26.178   7.930
 1807POPC   C4B26614   6.981  26.284   7.582
 1808POPC   NC326615  41.012   6.686   9.356
 1808POPC   PO426616  40.456   6.888   9.619
 1808POPC   GL126617  40.481   6.563   9.279
 1808POPC   GL226618  40.687   6.307   9.076
 1808POPC   C1A26619  40.444   6.686   8.842
 1808POPC   D2A26620  40.302   6.585   8.442
 1808POPC   C3A26621  40.547   6.736   8.111
 1808POPC   C4A26622  40.438   6.635   7.714
 1808POPC   C1B26623  40.734   6.307   8.598
 1808POPC   C2B26624  40.958   6.060   8.260
 1808POPC   C3B26625  41.218   6.184   7.906
 1808POPC   C4B26626  41.076   6.553   7.636
 1809POPC   NC326627   3.202  32.201   9.505
 1809POPC   PO426628   3.776  31.831   9.555
 1809POPC   GL126629   3.576  31.956   9.183
 1809POPC   GL226630   3.238  31.899   9.102
 1809POPC   C1A26631   3.537  32.263   8.844
 1809POPC   D2A26632   3.724  32.465   8.492
 1809POPC   C3A26633   3.523  32.429   8.090
 1809POPC   C4A26634   3.373  32.532   7.685
 1809POPC   C1B26635   3.076  32.055   8.734
 1809POPC   C2B26636   3.268  32.044   8.316
 1809POPC   C3B26637   3.124  32.102   7.886
 1809POPC   C4B26638   3.235  31.913   7.470
 1810POPC   NC326639   1.083  39.910   9.487
 1810POPC   PO426640   1.038  40.521   9.265
 1810POPC   GL126641   1.264  40.146   9.073
 1810POPC   GL226642   1.110  39.786   9.013
 1810POPC   C1A26643   1.398  39.993   8.690
 1810POPC   D2A26644   1.300  40.186   8.359
 1810POPC   C3A26645   1.478  39.930   8.084
 1810POPC   C4A26646   1.467  39.980   7.702
 1810POPC   C1B26647   0.903  39.779   8.617
 1810POPC   C2B26648   0.970  39.855   8.170
 1810POPC   C3B26649   0.961  39.881   7.721
 1810POPC   C4B26650   0.968  39.759   7.271
 1811POPC   NC326651  15.420  32.431   9.600
 1811POPC   PO426652  15.035  31.913   9.479
 1811POPC   GL126653  15.223  32.190   9.210
 1811POPC   GL226654  14.978  32.462   9.224
 1811POPC   C1A26655  15.388  32.092   8.821
 1811POPC   D2A26656  15.180  31.977   8.457
 1811POPC   C3A26657  15.288  32.206   8.097
 1811POPC   C4A26658  15.369  32.237   7.662
 1811POPC   C1B26659  14.908  32.286   8.828
 1811POPC   C2B26660  14.914  32.428   8.446
 1811POPC   C3B26661  14.849  32.468   8.052
 1811POPC   C4B26662  14.862  32.183   7.756
 1812POPC   NC326663   7.837  40.717   9.810
 1812POPC   PO426664   8.446  40.714   9.456
 1812POPC   GL126665   8.278  40.874   9.101
 1812POPC   GL226666   7.910  40.864   9.128
 1812POPC   C1A26667   8.184  40.704   8.700
 1812POPC   D2A26668   8.104  40.881   8.307
 1812POPC   C3A26669   8.092  40.721   7.923
 1812POPC   C4A26670   8.141  41.020   7.608
 1812POPC   C1B26671   7.836  41.074   8.698
 1812POPC   C2B26672   7.607  41.013   8.268
 1812POPC   C3B26673   7.664  40.993   7.781
 1812POPC   C4B26674   7.679  41.043   7.303
 1813POPC   NC326675  37.756   2.712   9.469
 1813POPC   PO426676  37.280   3.234   9.481
 1813POPC   GL126677  37.490   3.012   9.136
 1813POPC   GL226678  37.861   3.081   9.104
 1813POPC   C1A26679  37.434   2.777   8.736
 1813POPC   D2A26680  37.450   3.004   8.324
 1813POPC   C3A26681  37.564   2.834   7.927
 1813POPC   C4A26682  37.832   2.526   7.673
 1813POPC   C1B26683  37.825   3.109   8.673
 1813POPC   C2B26684  37.945   2.858   8.301
 1813POPC   C3B26685  38.062   2.933   7.872
 1813POPC   C4B26686  38.120   2.897   7.425
 1814POPC   NC326687  42.673  26.445   9.398
 1814POPC   PO426688  42.245  26.982   9.518
 1814POPC   GL126689  42.457  26.871   9.140
 1814POPC   GL226690  42.233  26.592   9.140
 1814POPC   C1A26691  42.728  26.910   8.746
 1814POPC   D2A26692  42.850  26.819   8.312
 1814POPC   C3A26693  42.691  26.957   7.908
 1814POPC   C4A26694  42.611  27.244   7.562
 1814POPC   C1B26695  42.154  26.757   8.738
 1814POPC   C2B26696  42.247  26.956   8.353
 1814POPC   C3B26697  42.204  26.766   7.950
 1814POPC   C4B26698  42.294  26.868   7.532
 1815POPC   NC326699  32.428  42.611   9.883
 1815POPC   PO426700  32.330  42.173   9.479
 1815POPC   GL126701  32.404  42.171   9.084
 1815POPC   GL226702  32.411  41.832   9.075
 1815POPC   C1A26703  32.239  42.391   8.741
 1815POPC   D2A26704  32.451  42.303   8.385
 1815POPC   C3A26705  32.242  42.442   8.053
 1815POPC   C4A26706  32.230  42.498   7.640
 1815POPC   C1B26707  32.192  41.903   8.681
 1815POPC   C2B26708  32.006  42.031   8.269
 1815POPC   C3B26709  31.968  42.051   7.800
 1815POPC   C4B26710  31.820  42.251   7.410
 1816POPC   NC326711  27.800   1.047   9.329
 1816POPC   PO426712  27.184   0.846   9.447
 1816POPC   GL126713  27.285   1.225   9.158
 1816POPC   GL226714  27.614   1.460   9.113
 1816POPC   C1A26715  27.445   1.174   8.728
 1816POPC   D2A26716  27.554   1.404   8.362
 1816POPC   C3A26717  27.408   1.108   8.058
 1816POPC   C4A26718  27.497   1.014   7.638
 1816POPC   C1B26719  27.929   1.321   8.763
 1816POPC   C2B26720  28.077   1.284   8.358
 1816POPC   C3B26721  27.939   1.196   7.946
 1816POPC   C4B26722  27.910   1.247   7.498
 1817POPC   NC326723  41.120   3.744   9.717
 1817POPC   PO426724  41.646   3.352   9.541
 1817POPC   GL126725  41.532   3.259   9.139
 1817POPC   GL226726  41.267   3.457   9.107
 1817POPC   C1A26727  41.613   3.457   8.733
 1817POPC   D2A26728  41.839   3.415   8.379
 1817POPC   C3A26729  41.599   3.439   8.008
 1817POPC   C4A26730  41.616   3.662   7.638
 1817POPC   C1B26731  41.138   3.660   8.693
 1817POPC   C2B26732  41.375   3.763   8.329
 1817POPC   C3B26733  41.216   3.824   7.908
 1817POPC   C4B26734  41.111   3.699   7.485
 1818POPC   NC326735  36.871  14.225   9.690
 1818POPC   PO426736  36.733  14.869   9.495
 1818POPC   GL126737  36.818  14.454   9.223
 1818POPC   GL226738  36.903  14.073   9.205
 1818POPC   C1A26739  36.975  14.500   8.796
 1818POPC   D2A26740  36.968  14.766   8.473
 1818POPC   C3A26741  36.919  14.583   8.091
 1818POPC   C4A26742  37.170  14.503   7.747
 1818POPC   C1B26743  36.772  14.047   8.791
 1818POPC   C2B26744  36.854  14.161   8.376
 1818POPC   C3B26745  36.965  14.078   7.935
 1818POPC   C4B26746  37.155  13.981   7.548
 1819POPC   NC326747   1.021  15.247   9.443
 1819POPC   PO426748   1.462  14.730   9.455
 1819POPC   GL126749   1.413  15.041   9.122
 1819POPC   GL226750   1.362  15.419   9.092
 1819POPC   C1A26751   1.555  15.003   8.706
 1819POPC   D2A26752   1.484  14.773   8.309
 1819POPC   C3A26753   1.273  15.096   8.075
 1819POPC   C4A26754   1.417  15.390   7.764
 1819POPC   C1B26755   0.965  15.485   8.836
 1819POPC   C2B26756   0.844  15.513   8.397
 1819POPC   C3B26757   0.946  15.505   7.953
 1819POPC   C4B26758   0.850  15.410   7.517
 1820POPC   NC326759  29.395  16.716   9.348
 1820POPC   PO426760  28.808  16.620   9.636
 1820POPC   GL126761  28.877  16.641   9.156
 1820POPC   GL226762  29.180  16.490   8.966
 1820POPC   C1A26763  28.861  16.778   8.727
 1820POPC   D2A26764  29.096  16.740   8.344
 1820POPC   C3A26765  28.895  16.779   7.942
 1820POPC   C4A26766  28.949  16.456   7.634
 1820POPC   C1B26767  29.454  16.819   8.720
 1820POPC   C2B26768  29.663  17.006   8.370
 1820POPC   C3B26769  29.497  17.229   8.029
 1820POPC   C4B26770  29.290  17.156   7.646
 1821POPC   NC326771  42.981  25.936   9.733
 1821POPC   PO426772  43.526  26.186   9.813
 1821POPC   GL126773  43.192  26.227   9.367
 1821POPC   GL226774  42.913  25.974   9.229
 1821POPC   C1A26775  43.090  26.305   8.876
 1821POPC   D2A26776  42.930  26.311   8.420
 1821POPC   C3A26777  43.196  26.172   8.069
 1821POPC   C4A26778  43.359  26.074   7.645
 1821POPC   C1B26779  42.772  25.911   8.766
 1821POPC   C2B26780  42.753  25.772   8.310
 1821POPC   C3B26781  42.934  25.762   7.865
 1821POPC   C4B26782  42.750  25.586   7.476
 1822POPC   NC326783   4.729   7.583   9.589
 1822POPC   PO426784   4.180   7.161   9.621
 1822POPC   GL126785   4.452   7.201   9.249
 1822POPC   GL226786   4.415   7.559   9.173
 1822POPC   C1A26787   4.552   7.271   8.798
 1822POPC   D2A26788   4.332   7.258   8.428
 1822POPC   C3A26789   4.590   7.236   8.081
 1822POPC   C4A26790   4.525   7.437   7.705
 1822POPC   C1B26791   4.083   7.512   8.854
 1822POPC   C2B26792   4.051   7.678   8.440
 1822POPC   C3B26793   4.099   7.588   7.998
 1822POPC   C4B26794   4.230   7.827   7.571
 1823POPC   NC326795   5.471  18.810   9.475
 1823POPC   PO426796   4.978  19.310   9.361
 1823POPC   GL126797   5.230  19.055   9.053
 1823POPC   GL226798   5.214  18.680   9.061
 1823POPC   C1A26799   5.155  19.131   8.595
 1823POPC   D2A26800   4.848  19.230   8.242
 1823POPC   C3A26801   5.049  19.185   7.790
 1823POPC   C4A26802   5.340  19.110   7.391
 1823POPC   C1B26803   4.977  18.642   8.717
 1823POPC   C2B26804   4.979  18.725   8.292
 1823POPC   C3B26805   4.871  18.657   7.880
 1823POPC   C4B26806   5.217  18.710   7.674
 1824POPC   NC326807  17.976  15.677   9.539
 1824POPC   PO426808  18.508  16.141   9.416
 1824POPC   GL126809  18.288  15.869   9.161
 1824POPC   GL226810  18.033  16.076   9.056
 1824POPC   C1A26811  18.171  15.591   8.828
 1824POPC   D2A26812  18.311  15.620   8.384
 1824POPC   C3A26813  18.319  15.625   7.897
 1824POPC   C4A26814  18.057  15.395   7.611
 1824POPC   C1B26815  18.022  16.024   8.621
 1824POPC   C2B26816  18.261  16.140   8.312
 1824POPC   C3B26817  18.219  16.119   7.909
 1824POPC   C4B26818  18.548  16.168   7.639
 1825POPC   NC326819  17.850   8.790   9.380
 1825POPC   PO426820  17.296   9.089   9.546
 1825POPC   GL126821  17.454   9.003   9.126
 1825POPC   GL226822  17.751   9.172   9.058
 1825POPC   C1A26823  17.306   8.960   8.678
 1825POPC   D2A26824  17.262   9.197   8.265
 1825POPC   C3A26825  17.141   8.996   7.901
 1825POPC   C4A26826  17.376   8.641   7.779
 1825POPC   C1B26827  17.830   8.898   8.694
 1825POPC   C2B26828  17.625   8.802   8.285
 1825POPC   C3B26829  17.671   9.034   7.901
 1825POPC   C4B26830  17.434   9.372   7.713
 1826POPC   NC326831  19.933  16.525   9.467
 1826POPC   PO426832  20.139  17.125   9.137
 1826POPC   GL126833  19.762  16.928   8.970
 1826POPC   GL226834  19.687  16.560   9.009
 1826POPC   C1A26835  19.780  16.865   8.529
 1826POPC   D2A26836  19.766  16.551   8.212
 1826POPC   C3A26837  20.007  16.724   7.901
 1826POPC   C4A26838  20.111  17.003   7.600
 1826POPC   C1B26839  19.410  16.529   8.633
 1826POPC   C2B26840  19.317  16.872   8.333
 1826POPC   C3B26841  19.524  16.929   7.941
 1826POPC   C4B26842  19.534  16.547   7.731
 1827POPC   NC326843  13.878  24.889   9.510
 1827POPC   PO426844  13.503  24.349   9.518
 1827POPC   GL126845  13.546  24.678   9.204
 1827POPC   GL226846  13.868  24.497   9.164
 1827POPC   C1A26847  13.525  24.847   8.809
 1827POPC   D2A26848  13.550  24.667   8.436
 1827POPC   C3A26849  13.619  24.782   8.078
 1827POPC   C4A26850  13.498  24.634   7.713
 1827POPC   C1B26851  13.605  24.333   8.836
 1827POPC   C2B26852  13.258  24.283   8.559
 1827POPC   C3B26853  13.265  24.361   8.088
 1827POPC   C4B26854  13.350  24.144   7.681
 1828POPC   NC326855   4.142  10.187   9.545
 1828POPC   PO426856   4.581   9.650   9.604
 1828POPC   GL126857   4.392   9.817   9.222
 1828POPC   GL226858   4.036   9.770   9.229
 1828POPC   C1A26859   4.286   9.916   8.774
 1828POPC   D2A26860   4.184  10.034   8.353
 1828POPC   C3A26861   4.365   9.765   8.028
 1828POPC   C4A26862   4.464   9.878   7.615
 1828POPC   C1B26863   3.887   9.533   8.884
 1828POPC   C2B26864   3.948   9.614   8.467
 1828POPC   C3B26865   3.808   9.589   8.051
 1828POPC   C4B26866   3.889   9.555   7.606
 1829POPC   NC326867  29.364  11.839   9.726
 1829POPC   PO426868  29.258  12.418   9.745
 1829POPC   GL126869  29.364  12.283   9.312
 1829POPC   GL226870  29.471  11.921   9.226
 1829POPC   C1A26871  29.241  12.243   8.846
 1829POPC   D2A26872  29.083  12.290   8.391
 1829POPC   C3A26873  29.215  12.264   7.937
 1829POPC   C4A26874  29.068  12.058   7.556
 1829POPC   C1B26875  29.577  11.799   8.795
 1829POPC   C2B26876  29.349  11.821   8.378
 1829POPC   C3B26877  29.340  11.754   7.930
 1829POPC   C4B26878  29.563  11.396   7.744
 1830POPC   NC326879  39.423  23.488   9.244
 1830POPC   PO426880  39.894  23.714   9.675
 1830POPC   GL126881  40.067  23.629   9.206
 1830POPC   GL226882  40.355  23.842   9.200
 1830POPC   C1A26883  39.955  23.659   8.734
 1830POPC   D2A26884  39.933  23.890   8.342
 1830POPC   C3A26885  39.975  23.626   8.024
 1830POPC   C4A26886  39.924  23.529   7.607
 1830POPC   C1B26887  40.469  23.611   8.803
 1830POPC   C2B26888  40.341  23.517   8.386
 1830POPC   C3B26889  40.496  23.535   7.988
 1830POPC   C4B26890  40.423  23.526   7.589
 1831POPC   NC326891  10.663  16.126   9.770
 1831POPC   PO426892  11.200  15.826   9.388
 1831POPC   GL126893  11.195  15.995   8.984
 1831POPC   GL226894  11.474  16.213   9.080
 1831POPC   C1A26895  11.067  15.916   8.560
 1831POPC   D2A26896  11.251  15.818   8.162
 1831POPC   C3A26897  11.164  16.138   7.843
 1831POPC   C4A26898  11.085  16.149   7.408
 1831POPC   C1B26899  11.599  15.976   8.701
 1831POPC   C2B26900  11.759  15.891   8.305
 1831POPC   C3B26901  11.650  16.100   7.976
 1831POPC   C4B26902  11.569  15.989   7.533
 1832POPC   NC326903  10.173  17.699   9.354
 1832POPC   PO426904  10.685  17.324   9.641
 1832POPC   GL126905  10.539  17.355   9.177
 1832POPC   GL226906  10.498  17.070   8.992
 1832POPC   C1A26907  10.394  17.524   8.726
 1832POPC   D2A26908  10.550  17.872   8.467
 1832POPC   C3A26909  10.510  17.771   8.037
 1832POPC   C4A26910  10.348  17.694   7.655
 1832POPC   C1B26911  10.801  17.245   8.710
 1832POPC   C2B26912  10.659  17.349   8.288
 1832POPC   C3B26913  10.761  17.377   7.835
 1832POPC   C4B26914  10.626  17.344   7.397
 1833POPC   NC326915  24.293  42.811   9.397
 1833POPC   PO426916  24.592  43.437   9.503
 1833POPC   GL126917  24.415  43.270   9.099
 1833POPC   GL226918  24.142  43.042   8.994
 1833POPC   C1A26919  24.388  43.280   8.639
 1833POPC   D2A26920  24.422  43.022   8.304
 1833POPC   C3A26921  24.615  43.121   7.994
 1833POPC   C4A26922  24.477  43.444   7.778
 1833POPC   C1B26923  24.158  42.660   8.735
 1833POPC   C2B26924  24.341  42.539   8.314
 1833POPC   C3B26925  24.203  42.702   7.904
 1833POPC   C4B26926  24.358  42.978   7.590
 1834POPC   NC326927  39.640   4.587   9.584
 1834POPC   PO426928  40.181   4.131   9.391
 1834POPC   GL126929  40.043   4.266   9.033
 1834POPC   GL226930  39.782   4.409   9.142
 1834POPC   C1A26931  39.924   4.338   8.615
 1834POPC   D2A26932  40.214   4.462   8.311
 1834POPC   C3A26933  40.126   4.423   7.885
 1834POPC   C4A26934  40.252   4.654   7.524
 1834POPC   C1B26935  39.518   4.672   8.899
 1834POPC   C2B26936  39.491   4.626   8.476
 1834POPC   C3B26937  39.769   4.715   8.133
 1834POPC   C4B26938  39.633   4.515   7.754
 1835POPC   NC326939  16.982  24.352   9.697
 1835POPC   PO426940  17.618  24.514   9.557
 1835POPC   GL126941  17.453  24.696   9.195
 1835POPC   GL226942  17.799  24.791   9.118
 1835POPC   C1A26943  17.270  24.611   8.798
 1835POPC   D2A26944  17.451  24.699   8.424
 1835POPC   C3A26945  17.502  24.483   8.055
 1835POPC   C4A26946  17.220  24.612   7.765
 1835POPC   C1B26947  17.796  24.586   8.770
 1835POPC   C2B26948  17.952  24.765   8.412
 1835POPC   C3B26949  17.992  24.706   7.999
 1835POPC   C4B26950  17.779  24.713   7.652
 1836POPC   NC326951  31.630  19.308   9.396
 1836POPC   PO426952  31.083  18.926   9.459
 1836POPC   GL126953  31.227  19.103   9.130
 1836POPC   GL226954  31.519  18.927   9.052
 1836POPC   C1A26955  31.268  19.354   8.798
 1836POPC   D2A26956  31.186  19.394   8.379
 1836POPC   C3A26957  31.312  19.078   8.144
 1836POPC   C4A26958  31.172  19.022   7.743
 1836POPC   C1B26959  31.555  18.991   8.602
 1836POPC   C2B26960  31.828  19.064   8.204
 1836POPC   C3B26961  31.678  18.956   7.794
 1836POPC   C4B26962  31.516  18.781   7.405
 1837POPC   NC326963  38.232  12.488   9.592
 1837POPC   PO426964  38.652  13.018   9.570
 1837POPC   GL126965  38.519  12.860   9.179
 1837POPC   GL226966  38.169  12.825   9.198
 1837POPC   C1A26967  38.357  13.151   8.847
 1837POPC   D2A26968  38.243  13.088   8.429
 1837POPC   C3A26969  38.456  12.789   8.201
 1837POPC   C4A26970  38.500  12.789   7.750
 1837POPC   C1B26971  38.224  12.690   8.754
 1837POPC   C2B26972  37.949  12.691   8.366
 1837POPC   C3B26973  38.036  12.738   7.929
 1837POPC   C4B26974  38.068  12.698   7.461
 1838POPC   NC326975   7.043  14.790   9.637
 1838POPC   PO426976   7.686  14.598   9.764
 1838POPC   GL126977   7.731  14.374   9.208
 1838POPC   GL226978   7.336  14.407   9.049
 1838POPC   C1A26979   7.626  14.141   8.774
 1838POPC   D2A26980   7.363  14.399   8.465
 1838POPC   C3A26981   7.521  14.280   8.050
 1838POPC   C4A26982   7.587  14.074   7.662
 1838POPC   C1B26983   7.657  14.673   8.795
 1838POPC   C2B26984   7.694  14.897   8.433
 1838POPC   C3B26985   7.460  14.795   8.094
 1838POPC   C4B26986   7.400  14.622   7.683
 1839POPC   NC326987   0.311  39.744   9.363
 1839POPC   PO426988   0.090  40.333   9.521
 1839POPC   GL126989   0.348  40.254   9.120
 1839POPC   GL226990   0.719  40.125   9.116
 1839POPC   C1A26991   0.423  40.090   8.679
 1839POPC   D2A26992   0.484  39.813   8.311
 1839POPC   C3A26993   0.167  39.780   7.993
 1839POPC   C4A26994   0.140  40.062   7.658
 1839POPC   C1B26995   0.906  40.282   8.698
 1839POPC   C2B26996   0.777  40.301   8.280
 1839POPC   C3B26997   0.571  40.161   7.898
 1839POPC   C4B26998   0.587  40.063   7.409
 1840POPC   NC326999  23.480  28.429  10.065
 1840POPC   PO427000  23.887  28.345   9.526
 1840POPC   GL127001  23.907  28.379   9.096
 1840POPC   GL227002  24.016  28.741   9.055
 1840POPC   C1A27003  23.650  28.190   8.766
 1840POPC   D2A27004  23.659  28.255   8.338
 1840POPC   C3A27005  23.393  28.162   7.973
 1840POPC   C4A27006  23.530  28.325   7.559
 1840POPC   C1B27007  23.648  28.698   8.760
 1840POPC   C2B27008  23.442  28.748   8.350
 1840POPC   C3B27009  23.638  28.616   7.979
 1840POPC   C4B27010  23.905  28.752   7.687
 1841POPC   NC327011  24.709  37.595   9.782
 1841POPC   PO427012  25.324  37.595   9.398
 1841POPC   GL127013  25.130  37.863   9.129
 1841POPC   GL227014  25.433  37.991   8.997
 1841POPC   C1A27015  25.054  37.753   8.703
 1841POPC   D2A27016  25.300  37.913   8.380
 1841POPC   C3A27017  25.028  37.787   8.061
 1841POPC   C4A27018  25.063  37.598   7.676
 1841POPC   C1B27019  25.528  37.595   8.776
 1841POPC   C2B27020  25.695  37.549   8.382
 1841POPC   C3B27021  25.532  37.633   7.980
 1841POPC   C4B27022  25.523  37.416   7.611
 1842POPC   NC327023  35.920  25.921   9.551
 1842POPC   PO427024  36.479  25.490   9.578
 1842POPC   GL127025  36.255  25.769   9.201
 1842POPC   GL227026  36.037  26.107   9.106
 1842POPC   C1A27027  36.083  25.714   8.780
 1842POPC   D2A27028  36.145  25.572   8.342
 1842POPC   C3A27029  36.162  25.827   7.962
 1842POPC   C4A27030  35.864  25.836   7.603
 1842POPC   C1B27031  36.173  26.202   8.696
 1842POPC   C2B27032  35.972  26.140   8.308
 1842POPC   C3B27033  35.874  26.238   7.891
 1842POPC   C4B27034  36.233  26.220   7.587
 1843POPC   NC327035  20.371  37.861   9.435
 1843POPC   PO427036  20.777  37.406   9.253
 1843POPC   GL127037  20.726  37.823   9.067
 1843POPC   GL227038  20.393  37.976   8.943
 1843POPC   C1A27039  20.865  37.878   8.670
 1843POPC   D2A27040  21.035  37.665   8.338
 1843POPC   C3A27041  20.894  37.790   7.977
 1843POPC   C4A27042  20.756  37.516   7.656
 1843POPC   C1B27043  20.432  37.605   8.674
 1843POPC   C2B27044  20.496  37.573   8.213
 1843POPC   C3B27045  20.337  37.795   7.843
 1843POPC   C4B27046  20.280  37.776   7.380
 1844POPC   NC327047  40.078   7.155   9.542
 1844POPC   PO427048  39.806   7.820   9.459
 1844POPC   GL127049  39.693   7.382   9.216
 1844POPC   GL227050  39.957   7.178   9.053
 1844POPC   C1A27051  39.501   7.140   8.828
 1844POPC   D2A27052  39.447   7.219   8.366
 1844POPC   C3A27053  39.742   7.183   7.970
 1844POPC   C4A27054  39.971   7.553   7.742
 1844POPC   C1B27055  40.254   7.160   8.731
 1844POPC   C2B27056  40.152   7.067   8.311
 1844POPC   C3B27057  40.278   7.119   7.893
 1844POPC   C4B27058  40.307   7.214   7.474
 1845POPC   NC327059  20.512   2.334   9.537
 1845POPC   PO427060  20.621   2.999   9.453
 1845POPC   GL127061  20.703   2.624   9.178
 1845POPC   GL227062  20.375   2.432   9.067
 1845POPC   C1A27063  20.807   2.366   8.827
 1845POPC   D2A27064  20.532   2.265   8.554
 1845POPC   C3A27065  20.617   2.304   8.135
 1845POPC   C4A27066  20.521   2.522   7.751
 1845POPC   C1B27067  20.428   2.752   8.779
 1845POPC   C2B27068  20.367   2.787   8.353
 1845POPC   C3B27069  20.545   2.965   8.015
 1845POPC   C4B27070  20.290   2.992   7.648
 1846POPC   NC327071   2.696  18.591   9.533
 1846POPC   PO427072   2.997  18.005   9.531
 1846POPC   GL127073   2.727  18.195   9.203
 1846POPC   GL227074   3.003  18.413   9.152
 1846POPC   C1A27075   2.705  18.402   8.770
 1846POPC   D2A27076   3.010  18.358   8.441
 1846POPC   C3A27077   2.798  18.346   8.084
 1846POPC   C4A27078   2.444  18.351   7.884
 1846POPC   C1B27079   3.115  18.717   8.812
 1846POPC   C2B27080   3.139  18.846   8.387
 1846POPC   C3B27081   3.271  18.575   8.063
 1846POPC   C4B27082   3.067  18.498   7.686
 1847POPC   NC327083  25.718  40.673   9.320
 1847POPC   PO427084  26.323  40.925   9.544
 1847POPC   GL127085  26.159  40.875   9.150
 1847POPC   GL227086  25.939  41.157   9.154
 1847POPC   C1A27087  26.198  40.738   8.728
 1847POPC   D2A27088  26.283  40.973   8.353
 1847POPC   C3A27089  26.125  40.703   8.066
 1847POPC   C4A27090  26.157  40.664   7.621
 1847POPC   C1B27091  26.009  41.207   8.719
 1847POPC   C2B27092  25.771  40.980   8.410
 1847POPC   C3B27093  25.645  41.011   8.009
 1847POPC   C4B27094  25.951  41.099   7.767
 1848POPC   NC327095  43.914   4.628   9.543
 1848POPC   PO427096  43.816   3.978   9.560
 1848POPC   GL127097  43.937   4.242   9.193
 1848POPC   GL227098  43.634   4.441   9.145
 1848POPC   C1A27099  43.995   4.483   8.780
 1848POPC   D2A27100  44.073   4.348   8.350
 1848POPC   C3A27101  43.926   4.576   8.030
 1848POPC   C4A27102  43.934   4.516   7.594
 1848POPC   C1B27103  43.632   4.097   8.796
 1848POPC   C2B27104  43.717   3.966   8.346
 1848POPC   C3B27105  43.852   4.094   7.926
 1848POPC   C4B27106  43.802   4.052   7.448
 1849POPC   NC327107  40.586   3.899   9.339
 1849POPC   PO427108  40.797   3.396   9.673
 1849POPC   GL127109  40.751   3.397   9.216
 1849POPC   GL227110  40.909   3.127   9.027
 1849POPC   C1A27111  40.626   3.528   8.799
 1849POPC   D2A27112  40.474   3.571   8.381
 1849POPC   C3A27113  40.760   3.707   8.085
 1849POPC   C4A27114  40.668   3.553   7.684
 1849POPC   C1B27115  41.182   3.151   8.696
 1849POPC   C2B27116  41.121   3.326   8.286
 1849POPC   C3B27117  41.113   3.327   7.855
 1849POPC   C4B27118  41.283   3.216   7.488
 1850POPC   NC327119  44.803  43.204   9.424
 1850POPC   PO427120  44.396  43.635   9.785
 1850POPC   GL127121  44.408  43.523   9.254
 1850POPC   GL227122  44.676  43.339   8.978
 1850POPC   C1A27123  44.294  43.525   8.751
 1850POPC   D2A27124  44.542  43.301   8.473
 1850POPC   C3A27125  44.554  43.204   8.048
 1850POPC   C4A27126  44.814  43.290   7.703
 1850POPC   C1B27127  44.776  42.935   8.742
 1850POPC   C2B27128  44.633  42.801   8.334
 1850POPC   C3B27129  44.950  42.866   8.043
 1850POPC   C4B27130   0.059  42.748   7.632
 1851POPC   NC327131  23.947   1.673   9.601
 1851POPC   PO427132  23.574   2.150   9.464
 1851POPC   GL127133  23.625   1.976   9.081
 1851POPC   GL227134  23.759   1.647   9.120
 1851POPC   C1A27135  23.459   2.050   8.669
 1851POPC   D2A27136  23.439   1.916   8.232
 1851POPC   C3A27137  23.649   2.180   7.926
 1851POPC   C4A27138  23.501   2.143   7.514
 1851POPC   C1B27139  23.848   1.736   8.686
 1851POPC   C2B27140  23.952   1.876   8.261
 1851POPC   C3B27141  23.796   1.703   7.862
 1851POPC   C4B27142  24.004   1.569   7.492
 1852POPC   NC327143   7.488   2.197   9.552
 1852POPC   PO427144   7.353   1.572   9.575
 1852POPC   GL127145   7.217   1.678   9.180
 1852POPC   GL227146   7.386   1.969   9.116
 1852POPC   C1A27147   7.278   1.600   8.742
 1852POPC   D2A27148   7.145   1.785   8.375
 1852POPC   C3A27149   7.323   1.713   7.998
 1852POPC   C4A27150   7.321   1.918   7.625
 1852POPC   C1B27151   7.184   2.147   8.783
 1852POPC   C2B27152   7.330   2.264   8.383
 1852POPC   C3B27153   7.516   2.186   8.021
 1852POPC   C4B27154   7.512   2.372   7.658
 1853POPC   NC327155   5.672   4.774   9.756
 1853POPC   PO427156   6.064   5.229   9.481
 1853POPC   GL127157   5.841   5.233   9.069
 1853POPC   GL227158   6.127   5.230   8.988
 1853POPC   C1A27159   5.785   5.020   8.669
 1853POPC   D2A27160   6.006   4.940   8.274
 1853POPC   C3A27161   5.708   4.936   7.975
 1853POPC   C4A27162   5.603   4.909   7.549
 1853POPC   C1B27163   6.277   5.528   8.802
 1853POPC   C2B27164   6.154   5.397   8.440
 1853POPC   C3B27165   6.208   5.477   8.039
 1853POPC   C4B27166   6.071   5.251   7.718
 1854POPC   NC327167  28.952  27.715   9.451
 1854POPC   PO427168  29.617  27.589   9.287
 1854POPC   GL127169  29.381  27.541   8.972
 1854POPC   GL227170  29.066  27.424   8.939
 1854POPC   C1A27171  29.427  27.678   8.565
 1854POPC   D2A27172  29.450  27.525   8.183
 1854POPC   C3A27173  29.095  27.585   8.042
 1854POPC   C4A27174  28.896  27.373   7.788
 1854POPC   C1B27175  29.295  27.190   8.619
 1854POPC   C2B27176  29.166  27.087   8.205
 1854POPC   C3B27177  29.355  27.140   7.823
 1854POPC   C4B27178  29.261  27.116   7.393
 1855POPC   NC327179  33.851  40.424   9.496
 1855POPC   PO427180  33.381  41.006   9.599
 1855POPC   GL127181  33.644  40.846   9.267
 1855POPC   GL227182  33.452  40.555   9.149
 1855POPC   C1A27183  33.914  40.979   8.920
 1855POPC   D2A27184  34.006  40.875   8.488
 1855POPC   C3A27185  33.755  40.921   8.125
 1855POPC   C4A27186  33.793  41.075   7.720
 1855POPC   C1B27187  33.635  40.549   8.695
 1855POPC   C2B27188  33.801  40.427   8.254
 1855POPC   C3B27189  33.768  40.549   7.781
 1855POPC   C4B27190  33.542  40.418   7.400
 1856POPC   NC327191  43.301  19.493   9.521
 1856POPC   PO427192  43.893  19.944   9.510
 1856POPC   GL127193  43.882  19.817   9.104
 1856POPC   GL227194  43.626  19.585   9.105
 1856POPC   C1A27195  44.082  19.725   8.730
 1856POPC   D2A27196  44.006  19.972   8.379
 1856POPC   C3A27197  44.078  19.744   8.026
 1856POPC   C4A27198  43.880  19.782   7.631
 1856POPC   C1B27199  43.565  19.792   8.693
 1856POPC   C2B27200  43.630  19.663   8.269
 1856POPC   C3B27201  43.448  19.814   7.900
 1856POPC   C4B27202  43.399  19.614   7.522
 1857POPC   NC327203   0.846  38.954   9.312
 1857POPC   PO427204   1.102  39.490   9.687
 1857POPC   GL127205   1.187  39.329   9.233
 1857POPC   GL227206   1.462  39.086   9.177
 1857POPC   C1A27207   1.141  39.332   8.765
 1857POPC   D2A27208   1.348  39.543   8.395
 1857POPC   C3A27209   1.242  39.508   7.927
 1857POPC   C4A27210   1.068  39.350   7.551
 1857POPC   C1B27211   1.391  38.880   8.764
 1857POPC   C2B27212   1.209  38.980   8.362
 1857POPC   C3B27213   1.090  39.005   7.935
 1857POPC   C4B27214   1.228  38.852   7.523
 1858POPC   NC327215  31.692  44.258   9.299
 1858POPC   PO427216  31.574  44.841   9.650
 1858POPC   GL127217  31.401  44.681   9.223
 1858POPC   GL227218  31.071  44.488   9.232
 1858POPC   C1A27219  31.514  44.616   8.752
 1858POPC   D2A27220  31.453  44.547   8.292
 1858POPC   C3A27221  31.690  44.675   7.937
 1858POPC   C4A27222  31.560  44.939   7.598
 1858POPC   C1B27223  31.028  44.756   8.867
 1858POPC   C2B27224  31.224  44.979   8.496
 1858POPC   C3B27225  31.242  44.962   8.039
 1858POPC   C4B27226  31.037  44.926   7.646
 1859POPC   NC327227  12.352  12.123   9.524
 1859POPC   PO427228  11.669  12.061   9.509
 1859POPC   GL127229  11.996  12.158   9.164
 1859POPC   GL227230  12.309  11.989   9.034
 1859POPC   C1A27231  12.007  12.348   8.772
 1859POPC   D2A27232  12.199  12.185   8.455
 1859POPC   C3A27233  11.960  12.214   8.096
 1859POPC   C4A27234  12.128  12.253   7.706
 1859POPC   C1B27235  11.946  11.799   8.810
 1859POPC   C2B27236  11.908  11.773   8.388
 1859POPC   C3B27237  12.180  11.739   8.069
 1859POPC   C4B27238  12.213  11.736   7.635
 1860POPC   NC327239  38.757  43.874   9.775
 1860POPC   PO427240  38.338  43.513   9.389
 1860POPC   GL127241  38.548  43.726   9.072
 1860POPC   GL227242  38.852  43.867   9.218
 1860POPC   C1A27243  38.362  43.927   8.715
 1860POPC   D2A27244  38.162  43.798   8.360
 1860POPC   C3A27245  38.301  43.954   7.959
 1860POPC   C4A27246  38.624  43.803   7.663
 1860POPC   C1B27247  38.790  44.162   8.868
 1860POPC   C2B27248  38.679  44.240   8.429
 1860POPC   C3B27249  38.788  44.304   7.998
 1860POPC   C4B27250  38.622  44.313   7.605
 1861POPC   NC327251  17.003  32.022   9.459
 1861POPC   PO427252  16.592  32.487   9.690
 1861POPC   GL127253  16.685  32.374   9.213
 1861POPC   GL227254  16.992  32.466   9.113
 1861POPC   C1A27255  16.660  32.484   8.716
 1861POPC   D2A27256  16.713  32.627   8.272
 1861POPC   C3A27257  16.694  32.250   7.975
 1861POPC   C4A27258  16.638  32.253   7.525
 1861POPC   C1B27259  16.979  32.094   8.809
 1861POPC   C2B27260  17.027  32.231   8.381
 1861POPC   C3B27261  17.177  32.408   8.000
 1861POPC   C4B27262  17.099  32.096   7.650
 1862POPC   NC327263  33.407  24.321   9.424
 1862POPC   PO427264  34.069  24.541   9.370
 1862POPC   GL127265  33.743  24.564   9.112
 1862POPC   GL227266  33.768  24.245   9.067
 1862POPC   C1A27267  33.658  24.624   8.688
 1862POPC   D2A27268  33.798  24.793   8.294
 1862POPC   C3A27269  33.653  24.616   7.895
 1862POPC   C4A27270  33.687  24.752   7.467
 1862POPC   C1B27271  34.038  24.271   8.717
 1862POPC   C2B27272  33.818  24.257   8.315
 1862POPC   C3B27273  33.849  24.072   7.907
 1862POPC   C4B27274  34.066  23.931   7.512
 1863POPC   NC327275  35.180  23.436   9.296
 1863POPC   PO427276  34.932  24.028   9.468
 1863POPC   GL127277  35.136  23.929   9.101
 1863POPC   GL227278  35.480  23.799   9.122
 1863POPC   C1A27279  35.279  24.035   8.696
 1863POPC   D2A27280  35.511  23.907   8.330
 1863POPC   C3A27281  35.307  23.663   8.024
 1863POPC   C4A27282  35.093  23.817   7.665
 1863POPC   C1B27283  35.452  23.561   8.729
 1863POPC   C2B27284  35.632  23.422   8.370
 1863POPC   C3B27285  35.825  23.617   8.022
 1863POPC   C4B27286  35.642  23.671   7.623
 1864POPC   NC327287  15.600  41.269   9.859
 1864POPC   PO427288  15.568  41.851   9.529
 1864POPC   GL127289  15.414  41.824   9.066
 1864POPC   GL227290  15.126  41.590   9.071
 1864POPC   C1A27291  15.245  41.801   8.615
 1864POPC   D2A27292  15.077  41.734   8.165
 1864POPC   C3A27293  15.333  41.796   7.809
 1864POPC   C4A27294  15.357  41.801   7.335
 1864POPC   C1B27295  15.295  41.300   8.721
 1864POPC   C2B27296  15.296  41.265   8.251
 1864POPC   C3B27297  14.989  41.269   7.915
 1864POPC   C4B27298  14.936  41.140   7.449
 1865POPC   NC327299  38.294   5.503   9.607
 1865POPC   PO427300  38.637   6.096   9.662
 1865POPC   GL127301  38.456   5.971   9.237
 1865POPC   GL227302  38.557   5.628   9.175
 1865POPC   C1A27303  38.514   6.124   8.785
 1865POPC   D2A27304  38.280   6.039   8.382
 1865POPC   C3A27305  38.454   6.158   7.978
 1865POPC   C4A27306  38.573   6.393   7.583
 1865POPC   C1B27307  38.412   5.645   8.751
 1865POPC   C2B27308  38.334   5.497   8.399
 1865POPC   C3B27309  38.198   5.634   8.048
 1865POPC   C4B27310  38.407   5.621   7.695
 1866POPC   NC327311   0.658   0.029   9.928
 1866POPC   PO427312   0.233  44.802   9.487
 1866POPC   GL127313   0.085  44.889   9.094
 1866POPC   GL227314   0.273  44.560   9.003
 1866POPC   C1A27315   0.217  44.925   8.668
 1866POPC   D2A27316   0.338  44.538   8.415
 1866POPC   C3A27317   0.177  44.527   7.992
 1866POPC   C4A27318   0.144  44.826   7.653
 1866POPC   C1B27319   0.672  44.721   8.784
 1866POPC   C2B27320   0.962  44.708   8.438
 1866POPC   C3B27321   0.789  44.493   8.102
 1866POPC   C4B27322   0.585  44.442   7.691
 1867POPC   NC327323  12.205  25.609   9.555
 1867POPC   PO427324  11.905  26.161   9.463
 1867POPC   GL127325  11.781  26.129   9.071
 1867POPC   GL227326  11.833  25.759   9.132
 1867POPC   C1A27327  12.030  26.202   8.700
 1867POPC   D2A27328  12.208  25.989   8.326
 1867POPC   C3A27329  12.155  26.161   7.902
 1867POPC   C4A27330  12.404  26.382   7.650
 1867POPC   C1B27331  11.965  25.704   8.716
 1867POPC   C2B27332  11.753  25.742   8.328
 1867POPC   C3B27333  11.864  25.746   7.893
 1867POPC   C4B27334  11.715  26.064   7.592
 1868POPC   NC327335   1.054  27.393   9.372
 1868POPC   PO427336   1.477  27.860   9.371
 1868POPC   GL127337   1.167  27.814   9.074
 1868POPC   GL227338   1.262  27.501   8.931
 1868POPC   C1A27339   1.168  27.900   8.620
 1868POPC   D2A27340   1.319  27.854   8.195
 1868POPC   C3A27341   1.024  27.606   7.987
 1868POPC   C4A27342   0.897  27.610   7.567
 1868POPC   C1B27343   1.477  27.510   8.558
 1868POPC   C2B27344   1.425  27.314   8.191
 1868POPC   C3B27345   1.462  27.488   7.806
 1868POPC   C4B27346   1.329  27.394   7.406
 1869POPC   NC327347  31.196  40.377   9.732
 1869POPC   PO427348  31.442  39.773   9.629
 1869POPC   GL127349  31.428  40.029   9.210
 1869POPC   GL227350  31.144  40.073   8.968
 1869POPC   C1A27351  31.618  40.150   8.779
 1869POPC   D2A27352  31.707  39.944   8.377
 1869POPC   C3A27353  31.468  40.098   8.048
 1869POPC   C4A27354  31.330  40.235   7.612
 1869POPC   C1B27355  31.215  39.845   8.621
 1869POPC   C2B27356  31.031  39.877   8.229
 1869POPC   C3B27357  31.152  39.789   7.804
 1869POPC   C4B27358  31.104  39.845   7.336
 1870POPC   NC327359  34.077  26.673   9.480
 1870POPC   PO427360  33.591  27.161   9.589
 1870POPC   GL127361  33.749  26.960   9.200
 1870POPC   GL227362  33.718  26.602   9.125
 1870POPC   C1A27363  33.605  27.004   8.792
 1870POPC   D2A27364  33.493  27.142   8.379
 1870POPC   C3A27365  33.712  26.918   8.033
 1870POPC   C4A27366  33.810  26.824   7.589
 1870POPC   C1B27367  33.613  26.510   8.693
 1870POPC   C2B27368  33.743  26.433   8.261
 1870POPC   C3B27369  33.518  26.489   7.863
 1870POPC   C4B27370  33.543  26.387   7.447
 1871POPC   NC327371   4.232  30.789   9.387
 1871POPC   PO427372   4.700  30.472   9.692
 1871POPC   GL127373   4.696  30.648   9.227
 1871POPC   GL227374   4.460  30.472   9.019
 1871POPC   C1A27375   4.758  30.793   8.778
 1871POPC   D2A27376   4.601  30.582   8.402
 1871POPC   C3A27377   4.484  30.797   8.010
 1871POPC   C4A27378   4.552  30.596   7.604
 1871POPC   C1B27379   4.203  30.713   8.724
 1871POPC   C2B27380   4.021  30.929   8.347
 1871POPC   C3B27381   3.982  30.778   7.944
 1871POPC   C4B27382   4.118  30.824   7.550
 1872POPC   NC327383  34.450  20.936   9.389
 1872POPC   PO427384  34.659  20.278   9.490
 1872POPC   GL127385  34.506  20.461   9.111
 1872POPC   GL227386  34.649  20.780   8.963
 1872POPC   C1A27387  34.595  20.356   8.708
 1872POPC   D2A27388  34.734  20.224   8.329
 1872POPC   C3A27389  34.538  20.510   8.093
 1872POPC   C4A27390  34.556  20.541   7.689
 1872POPC   C1B27391  34.277  20.783   8.720
 1872POPC   C2B27392  34.139  20.884   8.323
 1872POPC   C3B27393  34.263  20.899   7.874
 1872POPC   C4B27394  34.427  20.922   7.427
 1873POPC   NC327395  22.259  44.193   9.418
 1873POPC   PO427396  21.954  43.478   9.444
 1873POPC   GL127397  22.059  43.649   9.051
 1873POPC   GL227398  22.351  43.526   8.898
 1873POPC   C1A27399  21.872  43.827   8.679
 1873POPC   D2A27400  21.786  43.781   8.232
 1873POPC   C3A27401  21.961  44.063   7.922
 1873POPC   C4A27402  22.287  44.303   7.743
 1873POPC   C1B27403  22.377  43.926   8.661
 1873POPC   C2B27404  22.377  43.933   8.217
 1873POPC   C3B27405  22.184  43.611   7.963
 1873POPC   C4B27406  21.993  43.549   7.590
 1874POPC   NC327407  32.168  28.845   9.464
 1874POPC   PO427408  32.434  28.287   9.738
 1874POPC   GL127409  32.291  28.292   9.288
 1874POPC   GL227410  32.014  28.058   9.233
 1874POPC   C1A27411  32.291  28.285   8.833
 1874POPC   D2A27412  32.451  28.044   8.459
 1874POPC   C3A27413  32.400  28.293   8.063
 1874POPC   C4A27414  32.158  28.512   7.747
 1874POPC   C1B27415  31.776  28.147   8.853
 1874POPC   C2B27416  31.933  28.196   8.439
 1874POPC   C3B27417  31.817  28.244   8.020
 1874POPC   C4B27418  32.010  28.047   7.674
 1875POPC   NC327419   4.249  38.838   9.740
 1875POPC   PO427420   4.539  39.507   9.539
 1875POPC   GL127421   4.517  39.303   9.135
 1875POPC   GL227422   4.659  38.984   9.202
 1875POPC   C1A27423   4.444  39.312   8.669
 1875POPC   D2A27424   4.478  39.221   8.251
 1875POPC   C3A27425   4.414  39.437   7.942
 1875POPC   C4A27426   4.095  39.163   7.720
 1875POPC   C1B27427   4.592  38.818   8.834
 1875POPC   C2B27428   4.751  38.870   8.462
 1875POPC   C3B27429   4.692  38.765   8.044
 1875POPC   C4B27430   4.589  39.035   7.722
 1876POPC   NC327431  34.779   8.450   9.549
 1876POPC   PO427432  34.623   7.761   9.420
 1876POPC   GL127433  34.731   8.060   9.212
 1876POPC   GL227434  34.445   8.226   9.239
 1876POPC   C1A27435  34.773   8.192   8.821
 1876POPC   D2A27436  34.846   8.014   8.451
 1876POPC   C3A27437  34.687   8.173   8.084
 1876POPC   C4A27438  34.705   8.018   7.695
 1876POPC   C1B27439  34.302   8.343   8.845
 1876POPC   C2B27440  34.343   8.066   8.488
 1876POPC   C3B27441  34.194   8.092   8.056
 1876POPC   C4B27442  34.379   8.414   7.740
 1877POPC   NC327443   8.866   6.926   9.510
 1877POPC   PO427444   9.313   6.394   9.502
 1877POPC   GL127445   9.096   6.523   9.147
 1877POPC   GL227446   8.934   6.214   9.062
 1877POPC   C1A27447   9.151   6.791   8.768
 1877POPC   D2A27448   8.827   6.874   8.424
 1877POPC   C3A27449   8.983   6.921   8.023
 1877POPC   C4A27450   9.332   6.760   7.821
 1877POPC   C1B27451   8.835   6.424   8.679
 1877POPC   C2B27452   9.161   6.488   8.341
 1877POPC   C3B27453   9.116   6.299   7.973
 1877POPC   C4B27454   8.779   6.531   7.784
 1878POPC   NC327455  39.282  15.975   9.563
 1878POPC   PO427456  38.866  15.786   9.454
 1878POPC   GL127457  39.087  15.930   9.083
 1878POPC   GL227458  39.122  16.287   9.154
 1878POPC   C1A27459  39.263  15.782   8.691
 1878POPC   D2A27460  39.308  15.935   8.287
 1878POPC   C3A27461  39.408  15.744   7.890
 1878POPC   C4A27462  39.234  15.928   7.526
 1878POPC   C1B27463  39.167  16.294   8.678
 1878POPC   C2B27464  39.222  16.456   8.261
 1878POPC   C3B27465  39.289  16.276   7.895
 1878POPC   C4B27466  39.390  16.481   7.529
 1879POPC   NC327467  37.349   2.062   9.526
 1879POPC   PO427468  37.932   2.294   9.363
 1879POPC   GL127469  37.642   2.033   9.124
 1879POPC   GL227470  37.419   2.307   9.077
 1879POPC   C1A27471  37.605   1.684   8.825
 1879POPC   D2A27472  37.677   1.600   8.369
 1879POPC   C3A27473  37.582   1.885   8.043
 1879POPC   C4A27474  37.949   2.077   7.877
 1879POPC   C1B27475  37.393   2.144   8.663
 1879POPC   C2B27476  37.480   2.353   8.265
 1879POPC   C3B27477  37.332   2.380   7.844
 1879POPC   C4B27478  37.532   2.135   7.527
 1880POPC   NC327479  19.410  35.421   9.544
 1880POPC   PO427480  18.872  35.069   9.709
 1880POPC   GL127481  19.079  35.199   9.224
 1880POPC   GL227482  19.307  35.409   9.062
 1880POPC   C1A27483  18.869  35.433   8.824
 1880POPC   D2A27484  18.968  35.641   8.409
 1880POPC   C3A27485  18.868  35.385   8.033
 1880POPC   C4A27486  19.125  35.134   7.784
 1880POPC   C1B27487  19.296  35.262   8.622
 1880POPC   C2B27488  19.494  35.401   8.267
 1880POPC   C3B27489  19.426  35.526   7.857
 1880POPC   C4B27490  19.416  35.349   7.415
 1881POPC   NC327491  29.761  20.759   9.321
 1881POPC   PO427492  29.988  20.130   9.508
 1881POPC   GL127493  30.076  20.335   9.082
 1881POPC   GL227494  30.169  20.695   9.002
 1881POPC   C1A27495  30.052  20.238   8.654
 1881POPC   D2A27496  30.031  20.404   8.268
 1881POPC   C3A27497  29.797  20.199   7.975
 1881POPC   C4A27498  29.807  20.503   7.728
 1881POPC   C1B27499  29.798  20.669   8.705
 1881POPC   C2B27500  29.497  20.881   8.468
 1881POPC   C3B27501  29.637  20.908   8.085
 1881POPC   C4B27502  29.526  20.927   7.681
 1882POPC   NC327503  18.934  44.187   9.802
 1882POPC   PO427504  19.175  44.841   9.598
 1882POPC   GL127505  19.018  44.842   9.170
 1882POPC   GL227506  18.758  44.594   9.192
 1882POPC   C1A27507  19.015  44.709   8.737
 1882POPC   D2A27508  19.200  44.592   8.367
 1882POPC   C3A27509  19.050  44.848   8.061
 1882POPC   C4A27510  19.207  44.781   7.649
 1882POPC   C1B27511  18.538  44.529   8.801
 1882POPC   C2B27512  18.651  44.586   8.342
 1882POPC   C3B27513  18.868  44.374   8.004
 1882POPC   C4B27514  19.251  44.168   7.838
 1883POPC   NC327515  21.680  19.990   9.465
 1883POPC   PO427516  21.022  19.939   9.402
 1883POPC   GL127517  21.171  19.679   9.105
 1883POPC   GL227518  21.354  19.410   9.295
 1883POPC   C1A27519  21.283  19.789   8.667
 1883POPC   D2A27520  21.567  19.891   8.325
 1883POPC   C3A27521  21.393  20.025   7.927
 1883POPC   C4A27522  21.305  20.036   7.472
 1883POPC   C1B27523  21.443  19.346   8.851
 1883POPC   C2B27524  21.502  19.376   8.419
 1883POPC   C3B27525  21.537  19.477   8.008
 1883POPC   C4B27526  21.286  19.554   7.665
 1884POPC   NC327527  13.528  27.132   9.474
 1884POPC   PO427528  14.108  26.689   9.471
 1884POPC   GL127529  13.838  26.615   9.131
 1884POPC   GL227530  13.512  26.766   9.097
 1884POPC   C1A27531  13.820  26.737   8.668
 1884POPC   D2A27532  13.494  26.674   8.393
 1884POPC   C3A27533  13.663  26.541   8.013
 1884POPC   C4A27534  13.863  26.386   7.664
 1884POPC   C1B27535  13.597  27.146   8.822
 1884POPC   C2B27536  13.523  27.188   8.384
 1884POPC   C3B27537  13.472  27.013   7.958
 1884POPC   C4B27538  13.820  26.911   7.680
 1885POPC   NC327539  43.336  43.622   9.560
 1885POPC   PO427540  42.905  44.095   9.468
 1885POPC   GL127541  43.213  43.988   9.203
 1885POPC   GL227542  43.020  43.682   9.161
 1885POPC   C1A27543  43.337  43.877   8.799
 1885POPC   D2A27544  43.316  43.694   8.421
 1885POPC   C3A27545  43.194  43.917   8.122
 1885POPC   C4A27546  43.265  43.849   7.714
 1885POPC   C1B27547  42.816  43.773   8.778
 1885POPC   C2B27548  42.796  43.591   8.372
 1885POPC   C3B27549  42.725  43.748   7.973
 1885POPC   C4B27550  42.872  44.144   7.805
 1886POPC   NC327551  28.741  31.021   9.435
 1886POPC   PO427552  28.594  30.356   9.477
 1886POPC   GL127553  28.484  30.628   9.182
 1886POPC   GL227554  28.814  30.660   9.078
 1886POPC   C1A27555  28.325  30.677   8.775
 1886POPC   D2A27556  28.117  30.746   8.388
 1886POPC   C3A27557  28.333  30.538   8.065
 1886POPC   C4A27558  28.410  30.722   7.695
 1886POPC   C1B27559  28.831  30.820   8.695
 1886POPC   C2B27560  28.662  30.819   8.313
 1886POPC   C3B27561  28.834  30.967   7.906
 1886POPC   C4B27562  28.702  31.243   7.614
 1887POPC   NC327563  19.268  30.656   9.596
 1887POPC   PO427564  18.985  31.192   9.350
 1887POPC   GL127565  19.142  30.859   9.128
 1887POPC   GL227566  18.916  30.587   9.232
 1887POPC   C1A27567  19.153  30.777   8.678
 1887POPC   D2A27568  19.227  30.977   8.242
 1887POPC   C3A27569  19.193  30.759   7.810
 1887POPC   C4A27570  19.342  30.579   7.415
 1887POPC   C1B27571  18.672  30.766   8.918
 1887POPC   C2B27572  18.641  30.605   8.512
 1887POPC   C3B27573  18.802  30.684   8.134
 1887POPC   C4B27574  18.653  30.729   7.708
 1888POPC   NC327575  30.301  13.385   9.579
 1888POPC   PO427576  29.760  13.952   9.537
 1888POPC   GL127577  29.992  13.694   9.270
 1888POPC   GL227578  29.898  13.340   9.179
 1888POPC   C1A27579  30.110  13.767   8.864
 1888POPC   D2A27580  29.940  13.655   8.476
 1888POPC   C3A27581  30.198  13.671   8.146
 1888POPC   C4A27582  30.140  13.745   7.713
 1888POPC   C1B27583  30.004  13.209   8.767
 1888POPC   C2B27584  30.074  13.182   8.313
 1888POPC   C3B27585  29.996  13.265   7.876
 1888POPC   C4B27586  30.143  13.307   7.453
 1889POPC   NC327587  18.462  43.119   9.569
 1889POPC   PO427588  17.914  43.318   9.225
 1889POPC   GL127589  18.245  43.165   9.028
 1889POPC   GL227590  18.299  42.873   9.144
 1889POPC   C1A27591  18.424  43.110   8.622
 1889POPC   D2A27592  18.459  43.387   8.284
 1889POPC   C3A27593  18.408  43.184   7.877
 1889POPC   C4A27594  18.401  43.251   7.418
 1889POPC   C1B27595  18.160  42.694   8.750
 1889POPC   C2B27596  18.091  42.709   8.312
 1889POPC   C3B27597  18.416  42.709   8.011
 1889POPC   C4B27598  18.617  42.610   7.643
 1890POPC   NC327599  37.448  28.879   9.547
 1890POPC   PO427600  37.932  29.232   9.322
 1890POPC   GL127601  37.720  28.939   9.084
 1890POPC   GL227602  37.466  29.151   9.075
 1890POPC   C1A27603  37.616  28.865   8.645
 1890POPC   D2A27604  37.561  28.863   8.197
 1890POPC   C3A27605  37.890  29.056   7.965
 1890POPC   C4A27606  37.980  29.134   7.510
 1890POPC   C1B27607  37.633  29.378   8.696
 1890POPC   C2B27608  37.586  29.396   8.242
 1890POPC   C3B27609  37.852  29.599   7.948
 1890POPC   C4B27610  37.965  29.671   7.519
 1891POPC   NC327611   2.697  31.104   9.533
 1891POPC   PO427612   3.000  31.774   9.524
 1891POPC   GL127613   2.957  31.476   9.252
 1891POPC   GL227614   2.627  31.509   9.219
 1891POPC   C1A27615   2.977  31.480   8.835
 1891POPC   D2A27616   2.951  31.652   8.455
 1891POPC   C3A27617   3.099  31.428   8.125
 1891POPC   C4A27618   3.052  31.506   7.699
 1891POPC   C1B27619   2.438  31.313   8.892
 1891POPC   C2B27620   2.519  31.343   8.484
 1891POPC   C3B27621   2.633  31.179   8.091
 1891POPC   C4B27622   2.553  31.400   7.730
 1892POPC   NC327623  44.355  24.146   9.632
 1892POPC   PO427624  44.839  24.625   9.479
 1892POPC   GL127625  44.788  24.444   9.092
 1892POPC   GL227626  44.510  24.251   9.153
 1892POPC   C1A27627  44.889  24.394   8.658
 1892POPC   D2A27628  44.666  24.419   8.251
 1892POPC   C3A27629  44.884  24.612   7.917
 1892POPC   C4A27630   0.130  24.502   7.578
 1892POPC   C1B27631  44.388  24.347   8.738
 1892POPC   C2B27632  44.079  24.395   8.451
 1892POPC   C3B27633  44.192  24.317   8.063
 1892POPC   C4B27634  44.480  24.353   7.750
 1893POPC   NC327635  22.574   8.005   9.477
 1893POPC   PO427636  22.006   7.956   9.154
 1893POPC   GL127637  22.293   8.010   8.930
 1893POPC   GL227638  22.340   8.345   8.943
 1893POPC   C1A27639  22.125   7.967   8.517
 1893POPC   D2A27640  21.798   8.076   8.263
 1893POPC   C3A27641  22.099   8.161   7.958
 1893POPC   C4A27642  22.200   7.826   7.689
 1893POPC   C1B27643  22.486   8.326   8.559
 1893POPC   C2B27644  22.428   8.546   8.197
 1893POPC   C3B27645  22.559   8.429   7.811
 1893POPC   C4B27646  22.346   8.265   7.465
 1894POPC   NC327647  23.363   3.407   9.287
 1894POPC   PO427648  22.794   3.682   9.513
 1894POPC   GL127649  22.802   3.415   9.153
 1894POPC   GL227650  22.503   3.559   9.044
 1894POPC   C1A27651  22.915   3.402   8.709
 1894POPC   D2A27652  23.226   3.591   8.418
 1894POPC   C3A27653  23.176   3.516   7.964
 1894POPC   C4A27654  22.985   3.191   7.742
 1894POPC   C1B27655  22.839   3.891   8.890
 1894POPC   C2B27656  23.001   4.037   8.490
 1894POPC   C3B27657  22.828   3.871   8.108
 1894POPC   C4B27658  22.729   3.716   7.665
 1895POPC   NC327659   2.923   5.317   9.461
 1895POPC   PO427660   2.884   4.728   9.228
 1895POPC   GL127661   2.658   5.046   9.080
 1895POPC   GL227662   2.321   4.902   8.977
 1895POPC   C1A27663   2.815   5.260   8.791
 1895POPC   D2A27664   2.959   5.154   8.423
 1895POPC   C3A27665   2.823   5.423   8.177
 1895POPC   C4A27666   2.582   5.369   7.822
 1895POPC   C1B27667   2.538   4.863   8.615
 1895POPC   C2B27668   2.470   5.047   8.213
 1895POPC   C3B27669   2.508   4.835   7.827
 1895POPC   C4B27670   2.483   4.923   7.413
 1896POPC   NC327671  14.491  27.318   9.809
 1896POPC   PO427672  13.929  27.595   9.818
 1896POPC   GL127673  14.310  27.624   9.400
 1896POPC   GL227674  14.607  27.738   9.215
 1896POPC   C1A27675  14.312  27.561   8.861
 1896POPC   D2A27676  14.466  27.420   8.455
 1896POPC   C3A27677  14.238  27.496   8.066
 1896POPC   C4A27678  14.252  27.260   7.659
 1896POPC   C1B27679  14.812  27.699   8.809
 1896POPC   C2B27680  14.802  27.788   8.389
 1896POPC   C3B27681  14.755  27.534   8.033
 1896POPC   C4B27682  14.942  27.740   7.717
 1897POPC   NC327683  18.228  25.764   9.541
 1897POPC   PO427684  18.851  25.842   9.429
 1897POPC   GL127685  18.476  25.932   9.125
 1897POPC   GL227686  18.480  26.240   8.950
 1897POPC   C1A27687  18.183  25.943   8.718
 1897POPC   D2A27688  18.451  26.094   8.400
 1897POPC   C3A27689  18.341  25.908   8.017
 1897POPC   C4A27690  17.975  25.890   7.766
 1897POPC   C1B27691  18.112  26.433   8.753
 1897POPC   C2B27692  17.880  26.352   8.417
 1897POPC   C3B27693  18.064  26.339   8.043
 1897POPC   C4B27694  17.941  26.452   7.660
 1898POPC   NC327695  35.003  16.329   9.440
 1898POPC   PO427696  35.235  15.773   9.558
 1898POPC   GL127697  35.174  15.770   9.143
 1898POPC   GL227698  35.195  15.431   9.099
 1898POPC   C1A27699  35.133  15.972   8.734
 1898POPC   D2A27700  35.362  15.919   8.345
 1898POPC   C3A27701  35.212  15.902   7.922
 1898POPC   C4A27702  35.185  16.191   7.556
 1898POPC   C1B27703  35.447  15.553   8.722
 1898POPC   C2B27704  35.617  15.492   8.273
 1898POPC   C3B27705  35.629  15.604   7.811
 1898POPC   C4B27706  35.602  15.907   7.438
 1899POPC   NC327707  42.010  13.951   9.452
 1899POPC   PO427708  42.460  14.491   9.497
 1899POPC   GL127709  42.162  14.397   9.166
 1899POPC   GL227710  42.419  14.447   8.920
 1899POPC   C1A27711  41.946  14.246   8.785
 1899POPC   D2A27712  42.231  14.356   8.455
 1899POPC   C3A27713  42.230  14.404   8.025
 1899POPC   C4A27714  42.634  14.416   7.812
 1899POPC   C1B27715  42.431  14.801   8.628
 1899POPC   C2B27716  42.160  14.930   8.282
 1899POPC   C3B27717  42.202  14.876   7.811
 1899POPC   C4B27718  42.405  14.938   7.416
 1900POPC   NC327719  17.385  10.216   9.556
 1900POPC   PO427720  17.246  10.865   9.478
 1900POPC   GL127721  17.334  10.548   9.153
 1900POPC   GL227722  17.692  10.429   9.143
 1900POPC   C1A27723  17.393  10.470   8.718
 1900POPC   D2A27724  17.657  10.423   8.351
 1900POPC   C3A27725  17.576  10.708   8.038
 1900POPC   C4A27726  17.447  10.961   7.722
 1900POPC   C1B27727  17.763  10.133   8.787
 1900POPC   C2B27728  17.842   9.902   8.436
 1900POPC   C3B27729  17.956  10.073   8.066
 1900POPC   C4B27730  17.788  10.352   7.745
 1901POPC   NC327731  19.513  13.477   9.752
 1901POPC   PO427732  20.131  13.663   9.755
 1901POPC   GL127733  19.852  13.659   9.334
 1901POPC   GL227734  19.568  13.419   9.236
 1901POPC   C1A27735  19.817  13.637   8.845
 1901POPC   D2A27736  19.606  13.621   8.423
 1901POPC   C3A27737  19.806  13.698   8.021
 1901POPC   C4A27738  19.871  13.481   7.649
 1901POPC   C1B27739  19.411  13.260   8.824
 1901POPC   C2B27740  19.313  13.201   8.379
 1901POPC   C3B27741  19.398  13.366   7.970
 1901POPC   C4B27742  19.466  13.187   7.552
 1902POPC   NC327743   1.654  33.269   9.332
 1902POPC   PO427744   0.911  33.225   9.381
 1902POPC   GL127745   1.202  33.119   9.049
 1902POPC   GL227746   1.404  33.378   8.937
 1902POPC   C1A27747   1.182  33.086   8.597
 1902POPC   D2A27748   0.978  33.172   8.244
 1902POPC   C3A27749   1.020  32.774   8.059
 1902POPC   C4A27750   1.084  32.863   7.669
 1902POPC   C1B27751   1.661  33.014   8.758
 1902POPC   C2B27752   1.675  33.070   8.360
 1902POPC   C3B27753   1.465  33.037   8.011
 1902POPC   C4B27754   1.784  32.997   7.728
 1903POPC   NC327755   7.972  16.252   9.272
 1903POPC   PO427756   7.683  15.778   9.559
 1903POPC   GL127757   7.521  15.948   9.135
 1903POPC   GL227758   7.173  16.153   9.085
 1903POPC   C1A27759   7.325  15.829   8.725
 1903POPC   D2A27760   7.491  15.708   8.334
 1903POPC   C3A27761   7.253  15.783   7.964
 1903POPC   C4A27762   7.395  15.764   7.516
 1903POPC   C1B27763   7.490  16.344   8.808
 1903POPC   C2B27764   7.702  16.213   8.445
 1903POPC   C3B27765   7.757  16.281   8.028
 1903POPC   C4B27766   7.401  16.235   7.780
 1904POPC   NC327767  29.763  34.274   9.443
 1904POPC   PO427768  30.118  34.879   9.482
 1904POPC   GL127769  30.023  34.660   9.136
 1904POPC   GL227770  29.656  34.689   9.188
 1904POPC   C1A27771  30.213  34.573   8.726
 1904POPC   D2A27772  30.268  34.367   8.337
 1904POPC   C3A27773  30.194  34.587   7.927
 1904POPC   C4A27774  29.983  34.906   7.629
 1904POPC   C1B27775  29.698  34.554   8.757
 1904POPC   C2B27776  29.852  34.695   8.365
 1904POPC   C3B27777  29.687  34.648   7.966
 1904POPC   C4B27778  29.522  34.247   7.868
 1905POPC   NC327779  29.020  22.326   9.556
 1905POPC   PO427780  28.713  21.722   9.455
 1905POPC   GL127781  29.005  21.995   9.154
 1905POPC   GL227782  29.244  21.835   8.972
 1905POPC   C1A27783  29.088  22.280   8.762
 1905POPC   D2A27784  28.961  22.502   8.342
 1905POPC   C3A27785  29.078  22.290   7.924
 1905POPC   C4A27786  29.476  22.160   7.698
 1905POPC   C1B27787  28.911  21.788   8.685
 1905POPC   C2B27788  28.849  21.999   8.294
 1905POPC   C3B27789  28.831  21.837   7.900
 1905POPC   C4B27790  29.117  21.715   7.621
 1906POPC   NC327791  18.877  15.337   9.513
 1906POPC   PO427792  19.567  15.174   9.648
 1906POPC   GL127793  19.261  15.037   9.315
 1906POPC   GL227794  19.363  15.324   9.140
 1906POPC   C1A27795  19.020  15.043   8.893
 1906POPC   D2A27796  19.173  15.045   8.465
 1906POPC   C3A27797  18.964  15.095   8.071
 1906POPC   C4A27798  18.997  14.910   7.678
 1906POPC   C1B27799  19.133  15.550   8.808
 1906POPC   C2B27800  18.982  15.529   8.399
 1906POPC   C3B27801  19.127  15.557   7.959
 1906POPC   C4B27802  18.785  15.619   7.683
 1907POPC   NC327803  38.171  41.481   9.534
 1907POPC   PO427804  38.665  41.274   9.826
 1907POPC   GL127805  38.660  41.549   9.309
 1907POPC   GL227806  38.340  41.702   9.133
 1907POPC   C1A27807  38.753  41.566   8.856
 1907POPC   D2A27808  38.549  41.641   8.456
 1907POPC   C3A27809  38.575  41.410   8.105
 1907POPC   C4A27810  38.640  41.589   7.727
 1907POPC   C1B27811  38.183  41.483   8.783
 1907POPC   C2B27812  38.076  41.460   8.333
 1907POPC   C3B27813  38.205  41.756   7.989
 1907POPC   C4B27814  38.251  41.800   7.485
 1908POPC   NC327815  34.498  18.901   9.657
 1908POPC   PO427816  34.455  19.554   9.686
 1908POPC   GL127817  34.651  19.192   9.270
 1908POPC   GL227818  34.476  18.857   9.144
 1908POPC   C1A27819  34.573  19.151   8.745
 1908POPC   D2A27820  34.607  19.063   8.277
 1908POPC   C3A27821  34.431  19.277   7.890
 1908POPC   C4A27822  34.785  19.201   7.621
 1908POPC   C1B27823  34.188  18.786   8.774
 1908POPC   C2B27824  34.125  18.921   8.332
 1908POPC   C3B27825  34.317  18.785   7.937
 1908POPC   C4B27826  34.404  18.877   7.473
 1909POPC   NC327827  34.442  44.048   9.391
 1909POPC   PO427828  35.121  43.697   9.438
 1909POPC   GL127829  34.923  44.023   9.191
 1909POPC   GL227830  34.721  43.757   9.063
 1909POPC   C1A27831  34.769  44.179   8.781
 1909POPC   D2A27832  34.812  43.956   8.401
 1909POPC   C3A27833  34.672  44.082   7.984
 1909POPC   C4A27834  34.816  44.196   7.566
 1909POPC   C1B27835  34.460  43.729   8.718
 1909POPC   C2B27836  34.351  43.758   8.320
 1909POPC   C3B27837  34.467  43.600   7.939
 1909POPC   C4B27838  34.483  43.795   7.549
 1910POPC   NC327839  41.081  34.123   9.371
 1910POPC   PO427840  41.340  33.601   9.757
 1910POPC   GL127841  41.420  33.622   9.227
 1910POPC   GL227842  41.766  33.744   9.028
 1910POPC   C1A27843  41.404  33.540   8.751
 1910POPC   D2A27844  41.614  33.668   8.351
 1910POPC   C3A27845  41.370  33.715   7.948
 1910POPC   C4A27846  41.084  33.738   7.626
 1910POPC   C1B27847  41.842  34.084   8.690
 1910POPC   C2B27848  41.702  34.184   8.275
 1910POPC   C3B27849  41.648  34.114   7.821
 1910POPC   C4B27850  41.568  33.871   7.465
 1911POPC   NC327851   1.734  30.689   9.463
 1911POPC   PO427852   2.383  30.780   9.423
 1911POPC   GL127853   2.078  30.956   9.090
 1911POPC   GL227854   1.741  31.094   9.123
 1911POPC   C1A27855   1.803  30.723   8.779
 1911POPC   D2A27856   1.922  30.448   8.463
 1911POPC   C3A27857   1.754  30.495   8.084
 1911POPC   C4A27858   1.896  30.459   7.674
 1911POPC   C1B27859   1.783  31.229   8.688
 1911POPC   C2B27860   1.732  31.038   8.265
 1911POPC   C3B27861   1.701  30.928   7.808
 1911POPC   C4B27862   1.548  30.711   7.411
 1912POPC   NC327863  33.601  23.414   9.489
 1912POPC   PO427864  33.900  22.703   9.494
 1912POPC   GL127865  33.877  22.880   9.109
 1912POPC   GL227866  33.554  22.999   9.168
 1912POPC   C1A27867  33.893  23.005   8.684
 1912POPC   D2A27868  33.906  23.226   8.266
 1912POPC   C3A27869  33.993  22.973   7.906
 1912POPC   C4A27870  33.659  22.978   7.593
 1912POPC   C1B27871  33.428  22.798   8.783
 1912POPC   C2B27872  33.588  22.797   8.350
 1912POPC   C3B27873  33.387  22.797   7.981
 1912POPC   C4B27874  33.425  22.513   7.604
 1913POPC   NC327875  23.415  30.666   9.617
 1913POPC   PO427876  24.080  30.828   9.730
 1913POPC   GL127877  24.051  30.766   9.187
 1913POPC   GL227878  23.984  31.070   8.990
 1913POPC   C1A27879  23.791  30.709   8.717
 1913POPC   D2A27880  23.829  30.500   8.295
 1913POPC   C3A27881  23.530  30.518   7.936
 1913POPC   C4A27882  23.394  30.626   7.520
 1913POPC   C1B27883  24.172  31.083   8.631
 1913POPC   C2B27884  23.893  31.048   8.331
 1913POPC   C3B27885  24.060  30.894   8.010
 1913POPC   C4B27886  24.005  30.584   7.742
 1914POPC   NC327887  41.686  33.352   9.566
 1914POPC   PO427888  41.482  32.719   9.309
 1914POPC   GL127889  41.530  33.116   9.109
 1914POPC   GL227890  41.858  33.254   9.086
 1914POPC   C1A27891  41.583  33.071   8.688
 1914POPC   D2A27892  41.531  32.748   8.427
 1914POPC   C3A27893  41.398  32.977   8.100
 1914POPC   C4A27894  41.627  32.930   7.742
 1914POPC   C1B27895  42.027  33.390   8.698
 1914POPC   C2B27896  41.895  33.217   8.298
 1914POPC   C3B27897  41.720  33.375   7.926
 1914POPC   C4B27898  41.440  33.377   7.546
 1915POPC   NC327899  16.460  24.366   9.286
 1915POPC   PO427900  16.800  24.768   9.629
 1915POPC   GL127901  16.918  24.714   9.205
 1915POPC   GL227902  16.954  24.355   9.119
 1915POPC   C1A27903  16.762  24.732   8.775
 1915POPC   D2A27904  16.958  24.721   8.339
 1915POPC   C3A27905  16.740  24.578   7.953
 1915POPC   C4A27906  16.714  24.778   7.550
 1915POPC   C1B27907  16.883  24.262   8.652
 1915POPC   C2B27908  17.047  24.242   8.228
 1915POPC   C3B27909  16.977  24.149   7.810
 1915POPC   C4B27910  17.316  24.043   7.533
 1916POPC   NC327911  42.166  30.463   9.700
 1916POPC   PO427912  42.324  29.822   9.502
 1916POPC   GL127913  42.442  29.895   9.101
 1916POPC   GL227914  42.721  30.098   9.137
 1916POPC   C1A27915  42.248  29.810   8.711
 1916POPC   D2A27916  42.270  29.479   8.412
 1916POPC   C3A27917  42.139  29.558   7.960
 1916POPC   C4A27918  42.047  29.736   7.508
 1916POPC   C1B27919  42.823  29.925   8.733
 1916POPC   C2B27920  42.633  29.813   8.350
 1916POPC   C3B27921  42.585  29.888   7.892
 1916POPC   C4B27922  42.691  30.162   7.543
 1917POPC   NC327923   3.212   8.019   9.359
 1917POPC   PO427924   3.817   8.393   9.458
 1917POPC   GL127925   3.630   8.258   9.119
 1917POPC   GL227926   3.783   7.933   9.132
 1917POPC   C1A27927   3.591   8.459   8.733
 1917POPC   D2A27928   3.880   8.610   8.442
 1917POPC   C3A27929   3.666   8.530   8.042
 1917POPC   C4A27930   3.501   8.402   7.624
 1917POPC   C1B27931   3.965   8.098   8.730
 1917POPC   C2B27932   3.908   8.121   8.253
 1917POPC   C3B27933   3.945   8.181   7.776
 1917POPC   C4B27934   3.795   8.089   7.327
 1918POPC   NC327935   2.746  22.699   9.543
 1918POPC   PO427936   2.534  23.240   9.659
 1918POPC   GL127937   2.483  23.036   9.207
 1918POPC   GL227938   2.792  22.930   9.096
 1918POPC   C1A27939   2.538  23.216   8.742
 1918POPC   D2A27940   2.734  23.312   8.340
 1918POPC   C3A27941   2.671  23.084   7.960
 1918POPC   C4A27942   2.904  23.124   7.567
 1918POPC   C1B27943   2.554  22.712   8.796
 1918POPC   C2B27944   2.697  22.717   8.393
 1918POPC   C3B27945   2.804  22.577   7.991
 1918POPC   C4B27946   2.615  22.689   7.615
 1919POPC   NC327947  26.051   4.414   9.559
 1919POPC   PO427948  25.630   3.870   9.389
 1919POPC   GL127949  25.840   4.171   9.126
 1919POPC   GL227950  26.195   4.202   9.123
 1919POPC   C1A27951  25.924   4.235   8.680
 1919POPC   D2A27952  25.809   4.443   8.316
 1919POPC   C3A27953  25.937   4.237   7.918
 1919POPC   C4A27954  25.895   4.134   7.447
 1919POPC   C1B27955  26.340   4.500   8.811
 1919POPC   C2B27956  26.313   4.395   8.369
 1919POPC   C3B27957  26.220   4.654   8.003
 1919POPC   C4B27958  26.360   4.626   7.575
 1920POPC   NC327959  23.568  33.286   9.539
 1920POPC   PO427960  23.671  33.969   9.474
 1920POPC   GL127961  23.769  33.657   9.195
 1920POPC   GL227962  23.470  33.557   9.107
 1920POPC   C1A27963  23.869  33.544   8.780
 1920POPC   D2A27964  23.722  33.702   8.417
 1920POPC   C3A27965  23.907  33.784   8.040
 1920POPC   C4A27966  23.859  33.585   7.663
 1920POPC   C1B27967  23.341  33.762   8.766
 1920POPC   C2B27968  23.260  33.898   8.375
 1920POPC   C3B27969  23.391  33.802   7.995
 1920POPC   C4B27970  23.287  33.957   7.600
 1921POPC   NC327971  24.086  12.188   9.688
 1921POPC   PO427972  24.290  11.603   9.495
 1921POPC   GL127973  24.019  11.921   9.218
 1921POPC   GL227974  23.660  12.046   9.265
 1921POPC   C1A27975  23.924  12.215   8.855
 1921POPC   D2A27976  24.032  12.093   8.443
 1921POPC   C3A27977  23.767  12.253   8.171
 1921POPC   C4A27978  23.838  12.309   7.731
 1921POPC   C1B27979  23.573  11.818   8.843
 1921POPC   C2B27980  23.572  11.752   8.368
 1921POPC   C3B27981  23.578  11.882   7.905
 1921POPC   C4B27982  23.253  11.989   7.619
 1922POPC   NC327983   9.495  38.075   9.512
 1922POPC   PO427984  10.229  37.896   9.516
 1922POPC   GL127985   9.877  38.025   9.171
 1922POPC   GL227986   9.703  38.404   9.186
 1922POPC   C1A27987   9.825  38.231   8.744
 1922POPC   D2A27988   9.729  38.454   8.370
 1922POPC   C3A27989  10.033  38.356   8.048
 1922POPC   C4A27990  10.038  38.118   7.652
 1922POPC   C1B27991   9.578  38.686   8.823
 1922POPC   C2B27992   9.571  38.940   8.423
 1922POPC   C3B27993   9.485  38.746   8.006
 1922POPC   C4B27994   9.547  38.325   7.879
 1923POPC   NC327995  11.176  10.769   9.433
 1923POPC   PO427996  11.822  10.431   9.465
 1923POPC   GL127997  11.480  10.466   9.143
 1923POPC   GL227998  11.582  10.794   9.053
 1923POPC   C1A27999  11.173  10.651   8.785
 1923POPC   D2A28000  10.920  10.541   8.418
 1923POPC   C3A28001  11.049  10.345   8.016
 1923POPC   C4A28002  11.265  10.247   7.655
 1923POPC   C1B28003  11.542  10.986   8.669
 1923POPC   C2B28004  11.308  10.900   8.305
 1923POPC   C3B28005  11.284  10.806   7.884
 1923POPC   C4B28006  11.171  10.714   7.465
 1924POPC   NC328007  26.772  33.234   9.625
 1924POPC   PO428008  26.455  32.602   9.768
 1924POPC   GL128009  26.582  32.836   9.351
 1924POPC   GL228010  26.970  32.931   9.273
 1924POPC   C1A28011  26.604  32.933   8.892
 1924POPC   D2A28012  26.598  32.988   8.423
 1924POPC   C3A28013  26.870  32.759   8.101
 1924POPC   C4A28014  26.992  32.945   7.686
 1924POPC   C1B28015  27.037  33.228   8.927
 1924POPC   C2B28016  27.087  33.145   8.471
 1924POPC   C3B28017  26.873  33.265   8.074
 1924POPC   C4B28018  26.818  33.467   7.689
 1925POPC   NC328019  16.188  25.945   9.724
 1925POPC   PO428020  15.676  26.318   9.602
 1925POPC   GL128021  15.950  26.181   9.311
 1925POPC   GL228022  15.664  26.017   9.176
 1925POPC   C1A28023  15.990  26.229   8.860
 1925POPC   D2A28024  15.782  26.299   8.451
 1925POPC   C3A28025  15.907  26.023   8.090
 1925POPC   C4A28026  16.166  25.815   7.773
 1925POPC   C1B28027  15.474  26.033   8.777
 1925POPC   C2B28028  15.527  25.819   8.375
 1925POPC   C3B28029  15.502  25.720   7.917
 1925POPC   C4B28030  15.768  25.628   7.524
 1926POPC   NC328031  25.702  15.523   9.204
 1926POPC   PO428032  25.655  14.978   9.640
 1926POPC   GL128033  25.492  15.028   9.222
 1926POPC   GL228034  25.196  15.230   9.213
 1926POPC   C1A28035  25.338  14.968   8.796
 1926POPC   D2A28036  25.097  15.184   8.381
 1926POPC   C3A28037  25.199  15.009   7.941
 1926POPC   C4A28038  25.485  15.064   7.564
 1926POPC   C1B28039  25.234  15.461   8.788
 1926POPC   C2B28040  25.503  15.525   8.404
 1926POPC   C3B28041  25.369  15.480   7.971
 1926POPC   C4B28042  25.176  15.474   7.550
 1927POPC   NC328043   5.636   5.452   9.470
 1927POPC   PO428044   6.147   6.016   9.542
 1927POPC   GL128045   6.014   6.066   9.120
 1927POPC   GL228046   5.914   5.728   9.097
 1927POPC   C1A28047   6.030   5.966   8.654
 1927POPC   D2A28048   5.880   5.787   8.261
 1927POPC   C3A28049   6.132   6.054   8.007
 1927POPC   C4A28050   6.221   6.533   7.948
 1927POPC   C1B28051   5.736   5.544   8.698
 1927POPC   C2B28052   5.584   5.336   8.316
 1927POPC   C3B28053   5.591   5.418   7.891
 1927POPC   C4B28054   5.841   5.718   7.742
 1928POPC   NC328055   1.957  13.860   9.709
 1928POPC   PO428056   2.156  13.413   9.363
 1928POPC   GL128057   2.051  13.570   8.978
 1928POPC   GL228058   2.144  13.883   9.029
 1928POPC   C1A28059   2.052  13.408   8.585
 1928POPC   D2A28060   2.245  13.505   8.223
 1928POPC   C3A28061   1.949  13.358   7.912
 1928POPC   C4A28062   1.533  13.463   7.833
 1928POPC   C1B28063   1.860  13.928   8.663
 1928POPC   C2B28064   1.792  13.731   8.257
 1928POPC   C3B28065   2.021  13.872   7.890
 1928POPC   C4B28066   1.981  13.736   7.439
 1929POPC   NC328067  42.425  19.066  10.205
 1929POPC   PO428068  42.546  19.151   9.630
 1929POPC   GL128069  42.471  19.139   9.157
 1929POPC   GL228070  42.699  18.875   9.079
 1929POPC   C1A28071  42.369  18.989   8.704
 1929POPC   D2A28072  42.358  19.075   8.250
 1929POPC   C3A28073  42.245  18.799   7.852
 1929POPC   C4A28074  41.932  18.628   7.512
 1929POPC   C1B28075  42.828  19.192   8.744
 1929POPC   C2B28076  42.843  19.300   8.334
 1929POPC   C3B28077  42.764  19.133   7.951
 1929POPC   C4B28078  42.684  18.879   7.591
 1930POPC   NC328079  33.552  39.684   9.585
 1930POPC   PO428080  34.125  39.989   9.491
 1930POPC   GL128081  33.824  39.890   9.183
 1930POPC   GL228082  33.776  40.184   9.042
 1930POPC   C1A28083  33.572  39.767   8.791
 1930POPC   D2A28084  33.552  39.985   8.390
 1930POPC   C3A28085  33.594  39.764   7.989
 1930POPC   C4A28086  33.343  39.698   7.613
 1930POPC   C1B28087  33.970  40.109   8.663
 1930POPC   C2B28088  34.132  40.004   8.252
 1930POPC   C3B28089  33.970  40.083   7.811
 1930POPC   C4B28090  34.032  40.309   7.401
 1931POPC   NC328091  16.614   1.998   9.473
 1931POPC   PO428092  17.110   2.483   9.482
 1931POPC   GL128093  17.013   2.178   9.162
 1931POPC   GL228094  17.102   1.842   9.270
 1931POPC   C1A28095  16.835   1.997   8.795
 1931POPC   D2A28096  16.630   2.125   8.427
 1931POPC   C3A28097  16.713   1.996   8.013
 1931POPC   C4A28098  16.556   2.168   7.626
 1931POPC   C1B28099  17.284   1.757   8.860
 1931POPC   C2B28100  17.201   1.787   8.430
 1931POPC   C3B28101  17.201   1.748   8.003
 1931POPC   C4B28102  16.996   1.809   7.630
 1932POPC   NC328103  39.020   9.217   9.511
 1932POPC   PO428104  38.280   9.234   9.495
 1932POPC   GL128105  38.530   8.987   9.194
 1932POPC   GL228106  38.369   8.642   9.127
 1932POPC   C1A28107  38.490   9.046   8.745
 1932POPC   D2A28108  38.712   9.207   8.372
 1932POPC   C3A28109  38.572   9.077   7.956
 1932POPC   C4A28110  38.839   9.235   7.630
 1932POPC   C1B28111  38.578   8.545   8.783
 1932POPC   C2B28112  38.628   8.696   8.383
 1932POPC   C3B28113  38.660   8.531   7.996
 1932POPC   C4B28114  38.449   8.587   7.603
 1933POPC   NC328115   7.782  19.220   9.848
 1933POPC   PO428116   8.347  18.982   9.660
 1933POPC   GL128117   8.358  18.963   9.203
 1933POPC   GL228118   8.571  19.180   9.040
 1933POPC   C1A28119   8.139  18.972   8.809
 1933POPC   D2A28120   8.217  18.937   8.380
 1933POPC   C3A28121   8.078  19.196   8.071
 1933POPC   C4A28122   7.970  19.141   7.651
 1933POPC   C1B28123   8.507  19.312   8.619
 1933POPC   C2B28124   8.542  19.458   8.185
 1933POPC   C3B28125   8.546  19.315   7.758
 1933POPC   C4B28126   8.384  19.191   7.352
 1934POPC   NC328127  31.873   8.763   9.478
 1934POPC   PO428128  31.243   8.612   9.553
 1934POPC   GL128129  31.455   8.818   9.184
 1934POPC   GL228130  31.676   9.110   9.133
 1934POPC   C1A28131  31.608   8.826   8.726
 1934POPC   D2A28132  31.724   8.778   8.292
 1934POPC   C3A28133  31.537   8.908   7.937
 1934POPC   C4A28134  31.420   8.656   7.588
 1934POPC   C1B28135  31.620   9.390   8.760
 1934POPC   C2B28136  31.709   9.417   8.325
 1934POPC   C3B28137  31.936   9.263   7.980
 1934POPC   C4B28138  31.871   9.234   7.540
 1935POPC   NC328139   0.149  26.006   9.667
 1935POPC   PO428140   0.719  26.297   9.622
 1935POPC   GL128141   0.525  26.064   9.269
 1935POPC   GL228142   0.174  26.149   9.190
 1935POPC   C1A28143   0.580  25.804   8.892
 1935POPC   D2A28144   0.399  25.762   8.486
 1935POPC   C3A28145   0.542  25.890   8.074
 1935POPC   C4A28146   0.721  25.936   7.661
 1935POPC   C1B28147   0.231  26.179   8.784
 1935POPC   C2B28148  44.959  26.320   8.477
 1935POPC   C3B28149   0.026  26.402   8.074
 1935POPC   C4B28150   0.172  26.124   7.742
 1936POPC   NC328151   5.632   2.076   9.553
 1936POPC   PO428152   5.036   2.208   9.758
 1936POPC   GL128153   5.166   1.966   9.360
 1936POPC   GL228154   4.985   2.163   9.140
 1936POPC   C1A28155   5.394   1.903   8.930
 1936POPC   D2A28156   5.274   1.833   8.493
 1936POPC   C3A28157   5.411   1.840   8.069
 1936POPC   C4A28158   5.137   1.877   7.705
 1936POPC   C1B28159   5.167   2.323   8.737
 1936POPC   C2B28160   5.138   2.283   8.276
 1936POPC   C3B28161   5.165   2.389   7.844
 1936POPC   C4B28162   4.913   2.370   7.487
 1937POPC   NC328163   6.006  33.598   9.514
 1937POPC   PO428164   5.456  34.007   9.443
 1937POPC   GL128165   5.641  33.746   9.133
 1937POPC   GL228166   5.904  33.923   9.117
 1937POPC   C1A28167   5.636  33.772   8.663
 1937POPC   D2A28168   5.497  33.934   8.252
 1937POPC   C3A28169   5.628  33.680   7.918
 1937POPC   C4A28170   5.870  33.467   7.620
 1937POPC   C1B28171   6.074  34.008   8.746
 1937POPC   C2B28172   6.010  33.895   8.323
 1937POPC   C3B28173   6.137  33.743   7.950
 1937POPC   C4B28174   6.095  33.946   7.579
 1938POPC   NC328175  41.484  38.258   9.282
 1938POPC   PO428176  42.028  38.707   9.303
 1938POPC   GL128177  41.738  38.610   9.014
 1938POPC   GL228178  41.398  38.722   9.001
 1938POPC   C1A28179  41.625  38.457   8.621
 1938POPC   D2A28180  41.804  38.708   8.323
 1938POPC   C3A28181  41.701  38.497   8.006
 1938POPC   C4A28182  41.505  38.134   7.869
 1938POPC   C1B28183  41.120  38.416   8.757
 1938POPC   C2B28184  41.162  38.291   8.329
 1938POPC   C3B28185  41.207  38.611   8.031
 1938POPC   C4B28186  41.384  38.609   7.612
 1939POPC   NC328187   5.521  40.085   9.480
 1939POPC   PO428188   6.133  39.765   9.577
 1939POPC   GL128189   5.961  39.947   9.206
 1939POPC   GL228190   5.726  39.693   9.192
 1939POPC   C1A28191   6.095  39.936   8.762
 1939POPC   D2A28192   6.158  39.808   8.321
 1939POPC   C3A28193   5.884  39.994   7.971
 1939POPC   C4A28194   6.062  40.374   7.757
 1939POPC   C1B28195   5.572  39.888   8.823
 1939POPC   C2B28196   5.532  40.017   8.376
 1939POPC   C3B28197   5.322  40.045   7.982
 1939POPC   C4B28198   5.407  40.128   7.557
 1940POPC   NC328199  18.499   4.756   9.534
 1940POPC   PO428200  18.001   5.205   9.590
 1940POPC   GL128201  18.006   5.078   9.184
 1940POPC   GL228202  18.342   5.102   9.168
 1940POPC   C1A28203  17.904   5.212   8.779
 1940POPC   D2A28204  18.059   5.374   8.378
 1940POPC   C3A28205  18.036   5.117   7.987
 1940POPC   C4A28206  18.071   4.833   7.620
 1940POPC   C1B28207  18.412   5.251   8.759
 1940POPC   C2B28208  18.432   5.016   8.363
 1940POPC   C3B28209  18.526   5.258   8.012
 1940POPC   C4B28210  18.595   5.083   7.627
 1941POPC   NC328211   1.593   2.378   9.435
 1941POPC   PO428212   2.147   2.719   9.390
 1941POPC   GL128213   1.959   2.875   9.013
 1941POPC   GL228214   1.619   2.789   9.072
 1941POPC   C1A28215   2.054   2.848   8.563
 1941POPC   D2A28216   2.276   2.943   8.193
 1941POPC   C3A28217   2.237   2.686   7.835
 1941POPC   C4A28218   2.131   2.871   7.436
 1941POPC   C1B28219   1.552   2.950   8.655
 1941POPC   C2B28220   1.737   3.165   8.295
 1941POPC   C3B28221   1.827   2.973   7.938
 1941POPC   C4B28222   1.763   2.651   7.687
 1942POPC   NC328223  23.622  28.733   9.415
 1942POPC   PO428224  23.709  29.407   9.555
 1942POPC   GL128225  23.813  29.196   9.200
 1942POPC   GL228226  23.467  29.169   9.140
 1942POPC   C1A28227  23.805  29.174   8.744
 1942POPC   D2A28228  23.898  28.953   8.357
 1942POPC   C3A28229  24.120  29.082   8.026
 1942POPC   C4A28230  24.291  29.355   7.728
 1942POPC   C1B28231  23.331  29.414   8.760
 1942POPC   C2B28232  23.493  29.327   8.352
 1942POPC   C3B28233  23.557  29.113   7.955
 1942POPC   C4B28234  23.772  29.233   7.589
 1943POPC   NC328235  42.770   3.615   9.404
 1943POPC   PO428236  43.462   3.517   9.632
 1943POPC   GL128237  43.280   3.647   9.254
 1943POPC   GL228238  43.123   3.356   9.122
 1943POPC   C1A28239  43.215   3.774   8.843
 1943POPC   D2A28240  43.154   3.628   8.444
 1943POPC   C3A28241  43.239   3.935   8.164
 1943POPC   C4A28242  43.431   3.893   7.767
 1943POPC   C1B28243  42.795   3.429   8.782
 1943POPC   C2B28244  42.637   3.572   8.385
 1943POPC   C3B28245  42.880   3.312   8.127
 1943POPC   C4B28246  43.134   3.504   7.902
 1944POPC   NC328247  41.913  32.580   9.398
 1944POPC   PO428248  41.371  32.170   9.663
 1944POPC   GL128249  41.390  32.235   9.187
 1944POPC   GL228250  41.728  32.235   9.047
 1944POPC   C1A28251  41.289  32.377   8.757
 1944POPC   D2A28252  41.216  32.228   8.335
 1944POPC   C3A28253  41.274  32.496   7.984
 1944POPC   C4A28254  41.365  32.545   7.549
 1944POPC   C1B28255  41.734  32.136   8.592
 1944POPC   C2B28256  41.707  32.325   8.208
 1944POPC   C3B28257  41.757  32.339   7.811
 1944POPC   C4B28258  41.890  31.923   7.716
 1945POPC   NC328259  27.023  36.596   9.563
 1945POPC   PO428260  26.810  37.265   9.636
 1945POPC   GL128261  26.693  37.020   9.255
 1945POPC   GL228262  26.363  37.066   9.105
 1945POPC   C1A28263  26.786  36.850   8.823
 1945POPC   D2A28264  26.974  37.011   8.432
 1945POPC   C3A28265  26.927  36.786   8.038
 1945POPC   C4A28266  26.765  36.819   7.645
 1945POPC   C1B28267  26.293  36.935   8.697
 1945POPC   C2B28268  26.469  36.890   8.283
 1945POPC   C3B28269  26.322  36.970   7.855
 1945POPC   C4B28270  26.337  36.895   7.369
 1946POPC   NC328271   0.481  34.279   9.655
 1946POPC   PO428272   0.184  33.776   9.256
 1946POPC   GL128273   0.538  33.854   9.027
 1946POPC   GL228274   0.711  34.074   9.249
 1946POPC   C1A28275   0.569  33.744   8.583
 1946POPC   D2A28276   0.377  33.913   8.223
 1946POPC   C3A28277   0.288  33.721   7.826
 1946POPC   C4A28278   0.184  34.105   7.610
 1946POPC   C1B28279   0.958  34.105   8.873
 1946POPC   C2B28280   1.117  34.029   8.462
 1946POPC   C3B28281   0.885  33.816   8.156
 1946POPC   C4B28282   0.671  34.023   7.803
 1947POPC   NC328283  16.868  31.095   9.682
 1947POPC   PO428284  16.639  31.658   9.402
 1947POPC   GL128285  16.808  31.665   9.056
 1947POPC   GL228286  17.002  31.382   9.157
 1947POPC   C1A28287  16.626  31.477   8.694
 1947POPC   D2A28288  16.324  31.390   8.346
 1947POPC   C3A28289  16.480  31.586   7.984
 1947POPC   C4A28290  16.696  31.314   7.695
 1947POPC   C1B28291  17.145  31.453   8.756
 1947POPC   C2B28292  17.046  31.712   8.391
 1947POPC   C3B28293  17.002  31.673   7.925
 1947POPC   C4B28294  17.016  31.620   7.445
 1948POPC   NC328295  12.752  30.094   9.575
 1948POPC   PO428296  13.032  30.683   9.448
 1948POPC   GL128297  13.029  30.707   9.032
 1948POPC   GL228298  13.075  31.042   8.977
 1948POPC   C1A28299  12.922  30.578   8.631
 1948POPC   D2A28300  13.105  30.536   8.227
 1948POPC   C3A28301  12.920  30.706   7.839
 1948POPC   C4A28302  13.172  31.009   7.596
 1948POPC   C1B28303  13.268  30.993   8.567
 1948POPC   C2B28304  13.212  31.085   8.107
 1948POPC   C3B28305  12.808  31.218   7.864
 1948POPC   C4B28306  12.450  30.964   7.724
 1949POPC   NC328307  20.870  40.734   9.469
 1949POPC   PO428308  21.433  41.069   9.443
 1949POPC   GL128309  21.355  40.808   9.058
 1949POPC   GL228310  21.043  40.588   9.016
 1949POPC   C1A28311  21.445  40.851   8.601
 1949POPC   D2A28312  21.723  40.816   8.237
 1949POPC   C3A28313  21.602  40.800   7.831
 1949POPC   C4A28314  21.440  40.873   7.426
 1949POPC   C1B28315  21.186  40.409   8.627
 1949POPC   C2B28316  21.253  40.565   8.207
 1949POPC   C3B28317  21.093  40.733   7.818
 1949POPC   C4B28318  21.033  40.593   7.382
 1950POPC   NC328319  29.559  20.800   9.904
 1950POPC   PO428320  29.074  20.309   9.660
 1950POPC   GL128321  29.298  20.471   9.288
 1950POPC   GL228322  29.581  20.266   9.213
 1950POPC   C1A28323  29.280  20.559   8.824
 1950POPC   D2A28324  29.054  20.621   8.402
 1950POPC   C3A28325  29.108  20.909   8.045
 1950POPC   C4A28326  29.074  20.724   7.629
 1950POPC   C1B28327  29.581  20.145   8.791
 1950POPC   C2B28328  29.528  20.355   8.395
 1950POPC   C3B28329  29.367  20.476   8.011
 1950POPC   C4B28330  29.352  20.254   7.650
 1951POPC   NC328331  18.654   0.040   9.481
 1951POPC   PO428332  18.567  44.417   9.643
 1951POPC   GL128333  18.242  44.537   9.259
 1951POPC   GL228334  18.310  44.889   9.150
 1951POPC   C1A28335  18.040  44.650   8.825
 1951POPC   D2A28336  18.243  44.862   8.476
 1951POPC   C3A28337  18.185  44.644   8.056
 1951POPC   C4A28338  18.468  44.539   7.713
 1951POPC   C1B28339  18.634   0.033   8.827
 1951POPC   C2B28340  18.727   0.134   8.393
 1951POPC   C3B28341  18.554   0.006   7.981
 1951POPC   C4B28342  18.297   0.144   7.615
 1952POPC   NC328343  42.664  34.477   9.460
 1952POPC   PO428344  42.002  34.594   9.493
 1952POPC   GL128345  42.264  34.640   9.163
 1952POPC   GL228346  42.313  34.971   9.053
 1952POPC   C1A28347  42.314  34.411   8.808
 1952POPC   D2A28348  42.166  34.372   8.396
 1952POPC   C3A28349  42.328  34.618   8.077
 1952POPC   C4A28350  42.287  34.403   7.706
 1952POPC   C1B28351  42.634  34.856   8.786
 1952POPC   C2B28352  42.790  34.988   8.392
 1952POPC   C3B28353  42.640  35.021   7.969
 1952POPC   C4B28354  42.476  34.854   7.576
 1953POPC   NC328355  43.233  23.918   9.522
 1953POPC   PO428356  42.816  23.455   9.498
 1953POPC   GL128357  42.974  23.684   9.127
 1953POPC   GL228358  43.332  23.668   9.098
 1953POPC   C1A28359  42.909  23.712   8.680
 1953POPC   D2A28360  42.941  23.401   8.348
 1953POPC   C3A28361  42.886  23.585   7.934
 1953POPC   C4A28362  42.915  23.941   7.627
 1953POPC   C1B28363  43.442  23.736   8.689
 1953POPC   C2B28364  43.282  23.756   8.293
 1953POPC   C3B28365  43.342  23.842   7.908
 1953POPC   C4B28366  43.410  24.075   7.577
 1954POPC   NC328367  34.016  44.646   9.585
 1954POPC   PO428368  34.662  44.514   9.406
 1954POPC   GL128369  34.306  44.480   9.168
 1954POPC   GL228370  34.203  44.784   9.090
 1954POPC   C1A28371  34.198  44.362   8.781
 1954POPC   D2A28372  34.383  44.250   8.394
 1954POPC   C3A28373  34.332  44.496   8.007
 1954POPC   C4A28374  34.754  44.619   7.852
 1954POPC   C1B28375  34.337  44.826   8.635
 1954POPC   C2B28376  34.275  44.981   8.205
 1954POPC   C3B28377  34.554   0.099   7.859
 1954POPC   C4B28378  34.819  44.996   7.493
 1955POPC   NC328379  38.812  31.707   9.604
 1955POPC   PO428380  38.595  31.137   9.367
 1955POPC   GL128381  38.701  31.320   9.013
 1955POPC   GL228382  38.678  31.697   9.059
 1955POPC   C1A28383  38.608  31.179   8.578
 1955POPC   D2A28384  38.262  31.328   8.285
 1955POPC   C3A28385  38.314  31.351   7.822
 1955POPC   C4A28386  38.063  31.124   7.465
 1955POPC   C1B28387  38.518  31.665   8.651
 1955POPC   C2B28388  38.715  31.583   8.239
 1955POPC   C3B28389  38.651  31.748   7.801
 1955POPC   C4B28390  38.759  31.801   7.350
 1956POPC   NC328391  17.171   2.978   9.714
 1956POPC   PO428392  16.628   2.903   9.307
 1956POPC   GL128393  16.676   2.559   9.048
 1956POPC   GL228394  16.473   2.305   9.039
 1956POPC   C1A28395  16.880   2.514   8.652
 1956POPC   D2A28396  17.047   2.754   8.335
 1956POPC   C3A28397  16.870   2.705   7.930
 1956POPC   C4A28398  16.897   2.650   7.463
 1956POPC   C1B28399  16.398   2.573   8.630
 1956POPC   C2B28400  16.449   2.505   8.159
 1956POPC   C3B28401  16.410   2.647   7.740
 1956POPC   C4B28402  16.283   2.992   7.492
 1957POPC   NC328403  37.352  26.366   9.137
 1957POPC   PO428404  36.944  26.772   9.521
 1957POPC   GL128405  36.787  26.735   9.106
 1957POPC   GL228406  36.557  26.997   9.065
 1957POPC   C1A28407  36.779  26.803   8.650
 1957POPC   D2A28408  36.661  26.695   8.234
 1957POPC   C3A28409  37.000  26.722   7.923
 1957POPC   C4A28410  37.333  26.466   7.744
 1957POPC   C1B28411  36.666  27.304   8.726
 1957POPC   C2B28412  36.825  27.233   8.304
 1957POPC   C3B28413  36.625  27.115   7.940
 1957POPC   C4B28414  36.519  26.736   7.724
 1958POPC   NC328415   4.843   9.249   9.607
 1958POPC   PO428416   5.358   8.784   9.475
 1958POPC   GL128417   5.158   9.097   9.207
 1958POPC   GL228418   4.884   8.937   9.198
 1958POPC   C1A28419   4.915   9.320   8.857
 1958POPC   D2A28420   5.012   9.526   8.485
 1958POPC   C3A28421   4.881   9.422   8.084
 1958POPC   C4A28422   5.183   9.385   7.761
 1958POPC   C1B28423   5.015   8.841   8.764
 1958POPC   C2B28424   5.036   9.015   8.383
 1958POPC   C3B28425   5.206   8.934   7.991
 1958POPC   C4B28426   4.921   8.974   7.656
 1959POPC   NC328427  25.555  38.710   9.438
 1959POPC   PO428428  25.096  38.153   9.585
 1959POPC   GL128429  25.195  38.392   9.238
 1959POPC   GL228430  24.868  38.321   9.150
 1959POPC   C1A28431  25.147  38.718   8.886
 1959POPC   D2A28432  25.273  38.632   8.438
 1959POPC   C3A28433  25.109  38.823   8.056
 1959POPC   C4A28434  25.045  38.631   7.657
 1959POPC   C1B28435  25.059  38.247   8.760
 1959POPC   C2B28436  24.882  38.221   8.388
 1959POPC   C3B28437  25.096  38.292   8.037
 1959POPC   C4B28438  25.003  38.104   7.662
 1960POPC   NC328439  41.526  34.722   9.481
 1960POPC   PO428440  41.541  34.119   9.265
 1960POPC   GL128441  41.719  34.483   9.063
 1960POPC   GL228442  41.801  34.869   9.087
 1960POPC   C1A28443  41.427  34.633   8.755
 1960POPC   D2A28444  41.201  34.381   8.449
 1960POPC   C3A28445  41.366  34.476   8.045
 1960POPC   C4A28446  41.179  34.448   7.665
 1960POPC   C1B28447  41.939  34.741   8.696
 1960POPC   C2B28448  41.750  34.724   8.312
 1960POPC   C3B28449  41.843  34.577   7.908
 1960POPC   C4B28450  41.919  34.741   7.508
 1961POPC   NC328451  19.410  11.810   9.525
 1961POPC   PO428452  20.129  11.904   9.488
 1961POPC   GL128453  19.913  12.058   9.119
 1961POPC   GL228454  19.736  12.369   9.240
 1961POPC   C1A28455  19.966  11.957   8.655
 1961POPC   D2A28456  20.219  11.912   8.246
 1961POPC   C3A28457  20.038  11.701   7.910
 1961POPC   C4A28458  19.843  11.886   7.591
 1961POPC   C1B28459  19.638  12.353   8.799
 1961POPC   C2B28460  19.587  12.222   8.390
 1961POPC   C3B28461  19.809  12.158   8.042
 1961POPC   C4B28462  19.715  12.401   7.723
 1962POPC   NC328463  24.493   0.719   9.665
 1962POPC   PO428464  24.132   0.374   9.228
 1962POPC   GL128465  24.577   0.501   9.161
 1962POPC   GL228466  24.828   0.227   9.111
 1962POPC   C1A28467  24.786   0.657   8.800
 1962POPC   D2A28468  24.961   0.815   8.386
 1962POPC   C3A28469  24.680   0.617   8.092
 1962POPC   C4A28470  24.428   0.686   7.745
 1962POPC   C1B28471  24.730   0.085   8.675
 1962POPC   C2B28472  24.532   0.123   8.259
 1962POPC   C3B28473  24.323   0.186   7.848
 1962POPC   C4B28474  24.485   0.316   7.428
 1963POPC   NC328475   5.388  13.457   9.433
 1963POPC   PO428476   4.759  13.350   9.368
 1963POPC   GL128477   5.025  13.611   9.109
 1963POPC   GL228478   4.907  13.949   9.130
 1963POPC   C1A28479   5.200  13.505   8.723
 1963POPC   D2A28480   4.993  13.580   8.345
 1963POPC   C3A28481   5.240  13.555   7.993
 1963POPC   C4A28482   5.106  13.466   7.577
 1963POPC   C1B28483   4.696  13.995   8.715
 1963POPC   C2B28484   4.734  14.017   8.237
 1963POPC   C3B28485   4.879  13.889   7.806
 1963POPC   C4B28486   4.718  14.010   7.358
 1964POPC   NC328487  22.610   7.343   9.482
 1964POPC   PO428488  22.187   7.802   9.649
 1964POPC   GL128489  22.221   7.532   9.241
 1964POPC   GL228490  21.871   7.441   9.152
 1964POPC   C1A28491  22.292   7.472   8.773
 1964POPC   D2A28492  22.289   7.537   8.305
 1964POPC   C3A28493  22.404   7.275   7.966
 1964POPC   C4A28494  22.578   7.443   7.604
 1964POPC   C1B28495  21.828   7.194   8.771
 1964POPC   C2B28496  21.789   7.398   8.373
 1964POPC   C3B28497  21.894   7.537   7.964
 1964POPC   C4B28498  22.067   7.353   7.564
 1965POPC   NC328499  15.451  16.294   9.510
 1965POPC   PO428500  15.387  15.664   9.504
 1965POPC   GL128501  15.272  15.875   9.158
 1965POPC   GL228502  14.986  16.044   9.269
 1965POPC   C1A28503  15.355  15.865   8.709
 1965POPC   D2A28504  15.376  16.092   8.292
 1965POPC   C3A28505  15.389  15.828   7.890
 1965POPC   C4A28506  15.389  15.680   7.443
 1965POPC   C1B28507  14.841  15.916   8.839
 1965POPC   C2B28508  14.810  16.092   8.431
 1965POPC   C3B28509  14.921  16.021   8.000
 1965POPC   C4B28510  14.999  15.972   7.560
 1966POPC   NC328511   0.536  19.498   9.472
 1966POPC   PO428512   0.064  18.968   9.459
 1966POPC   GL128513   0.130  19.073   9.097
 1966POPC   GL228514   0.171  19.410   9.088
 1966POPC   C1A28515   0.322  18.943   8.742
 1966POPC   D2A28516   0.174  19.117   8.389
 1966POPC   C3A28517   0.475  18.920   8.173
 1966POPC   C4A28518   0.438  18.887   7.726
 1966POPC   C1B28519   0.468  19.421   8.756
 1966POPC   C2B28520   0.579  19.417   8.352
 1966POPC   C3B28521   0.375  19.371   7.957
 1966POPC   C4B28522   0.513  19.350   7.532
 1967POPC   NC328523   4.947  41.589   9.675
 1967POPC   PO428524   5.612  41.265   9.676
 1967POPC   GL128525   5.339  41.275   9.249
 1967POPC   GL228526   5.046  41.478   9.195
 1967POPC   C1A28527   5.325  41.384   8.770
 1967POPC   D2A28528   5.364  41.760   8.472
 1967POPC   C3A28529   5.309  41.693   8.032
 1967POPC   C4A28530   5.128  41.308   7.931
 1967POPC   C1B28531   4.809  41.627   8.856
 1967POPC   C2B28532   4.792  41.518   8.428
 1967POPC   C3B28533   4.802  41.762   8.073
 1967POPC   C4B28534   4.836  41.680   7.648
 1968POPC   NC328535  32.748  43.824   9.822
 1968POPC   PO428536  33.240  43.541   9.403
 1968POPC   GL128537  33.224  43.915   9.223
 1968POPC   GL228538  32.970  43.778   9.021
 1968POPC   C1A28539  33.295  44.071   8.797
 1968POPC   D2A28540  33.260  43.888   8.384
 1968POPC   C3A28541  33.038  43.957   7.952
 1968POPC   C4A28542  33.133  43.939   7.469
 1968POPC   C1B28543  32.801  43.687   8.630
 1968POPC   C2B28544  32.556  43.765   8.271
 1968POPC   C3B28545  32.492  43.938   7.868
 1968POPC   C4B28546  32.661  43.764   7.485
 1969POPC   NC328547   1.693  13.451   9.297
 1969POPC   PO428548   1.330  13.923   9.642
 1969POPC   GL128549   1.238  13.756   9.212
 1969POPC   GL228550   1.493  13.710   8.939
 1969POPC   C1A28551   1.006  13.455   8.916
 1969POPC   D2A28552   0.836  13.358   8.475
 1969POPC   C3A28553   1.013  13.353   8.013
 1969POPC   C4A28554   1.059  13.491   7.583
 1969POPC   C1B28555   1.204  13.886   8.687
 1969POPC   C2B28556   1.236  13.691   8.318
 1969POPC   C3B28557   1.210  13.845   7.926
 1969POPC   C4B28558   1.555  13.967   7.718
 1970POPC   NC328559  23.253  12.475   9.236
 1970POPC   PO428560  22.859  12.053   9.599
 1970POPC   GL128561  22.800  12.116   9.171
 1970POPC   GL228562  23.129  11.955   9.142
 1970POPC   C1A28563  22.893  12.223   8.722
 1970POPC   D2A28564  23.137  12.066   8.361
 1970POPC   C3A28565  22.919  12.163   7.985
 1970POPC   C4A28566  22.780  11.864   7.702
 1970POPC   C1B28567  23.052  11.739   8.766
 1970POPC   C2B28568  23.041  11.511   8.412
 1970POPC   C3B28569  23.135  11.657   8.024
 1970POPC   C4B28570  23.356  11.479   7.678
 1971POPC   NC328571   7.621  20.094   9.389
 1971POPC   PO428572   7.499  19.511   9.646
 1971POPC   GL128573   7.342  19.645   9.190
 1971POPC   GL228574   7.266  19.993   9.003
 1971POPC   C1A28575   7.509  19.605   8.761
 1971POPC   D2A28576   7.649  19.480   8.357
 1971POPC   C3A28577   7.497  19.692   8.000
 1971POPC   C4A28578   7.653  19.598   7.607
 1971POPC   C1B28579   7.624  20.121   8.740
 1971POPC   C2B28580   7.876  20.041   8.376
 1971POPC   C3B28581   7.770  20.134   7.923
 1971POPC   C4B28582   7.344  20.206   7.855
 1972POPC   NC328583   1.591  36.654   9.547
 1972POPC   PO428584   1.996  37.187   9.771
 1972POPC   GL128585   1.987  37.201   9.301
 1972POPC   GL228586   1.688  37.056   9.282
 1972POPC   C1A28587   1.992  36.976   8.845
 1972POPC   D2A28588   2.035  36.711   8.448
 1972POPC   C3A28589   2.121  36.851   8.003
 1972POPC   C4A28590   2.188  36.615   7.622
 1972POPC   C1B28591   1.591  37.278   8.961
 1972POPC   C2B28592   1.575  37.123   8.544
 1972POPC   C3B28593   1.631  36.869   8.185
 1972POPC   C4B28594   1.582  36.984   7.760
 1973POPC   NC328595  39.053  12.993   9.324
 1973POPC   PO428596  39.323  13.655   9.512
 1973POPC   GL128597  39.236  13.446   9.183
 1973POPC   GL228598  39.013  13.709   9.079
 1973POPC   C1A28599  39.328  13.463   8.759
 1973POPC   D2A28600  39.173  13.390   8.349
 1973POPC   C3A28601  39.371  13.654   8.059
 1973POPC   C4A28602  39.402  13.557   7.660
 1973POPC   C1B28603  38.904  13.766   8.650
 1973POPC   C2B28604  38.890  13.795   8.212
 1973POPC   C3B28605  38.916  13.646   7.809
 1973POPC   C4B28606  38.964  14.025   7.581
 1974POPC   NC328607  28.987  15.076  10.069
 1974POPC   PO428608  29.145  15.467   9.472
 1974POPC   GL128609  29.003  15.358   9.072
 1974POPC   GL228610  29.291  15.172   9.028
 1974POPC   C1A28611  29.008  15.357   8.625
 1974POPC   D2A28612  29.167  15.418   8.252
 1974POPC   C3A28613  28.892  15.697   8.078
 1974POPC   C4A28614  28.704  15.628   7.714
 1974POPC   C1B28615  29.246  14.899   8.712
 1974POPC   C2B28616  29.092  14.895   8.326
 1974POPC   C3B28617  29.180  15.016   7.919
 1974POPC   C4B28618  29.455  14.906   7.559
 1975POPC   NC328619   9.064  16.375   9.438
 1975POPC   PO428620   8.884  17.003   9.677
 1975POPC   GL128621   8.934  16.958   9.171
 1975POPC   GL228622   8.783  16.670   9.012
 1975POPC   C1A28623   9.198  16.863   8.751
 1975POPC   D2A28624   9.351  16.782   8.285
 1975POPC   C3A28625   9.117  16.474   8.018
 1975POPC   C4A28626   8.740  16.250   7.816
 1975POPC   C1B28627   8.716  17.034   8.726
 1975POPC   C2B28628   8.645  17.080   8.326
 1975POPC   C3B28629   8.649  16.734   8.065
 1975POPC   C4B28630   8.839  16.736   7.675
 1976POPC   NC328631  26.277  31.590   9.459
 1976POPC   PO428632  25.767  31.252   9.524
 1976POPC   GL128633  25.778  31.336   9.131
 1976POPC   GL228634  25.922  31.640   9.083
 1976POPC   C1A28635  25.994  31.182   8.789
 1976POPC   D2A28636  26.142  31.257   8.387
 1976POPC   C3A28637  25.863  31.156   8.049
 1976POPC   C4A28638  25.887  31.220   7.638
 1976POPC   C1B28639  26.146  31.680   8.684
 1976POPC   C2B28640  26.394  31.697   8.290
 1976POPC   C3B28641  26.206  31.520   7.904
 1976POPC   C4B28642  26.095  31.656   7.458
 1977POPC   NC328643  29.044  30.337   9.401
 1977POPC   PO428644  29.225  31.047   9.391
 1977POPC   GL128645  29.298  30.857   9.035
 1977POPC   GL228646  29.438  30.527   9.116
 1977POPC   C1A28647  29.432  30.868   8.627
 1977POPC   D2A28648  29.573  31.078   8.272
 1977POPC   C3A28649  29.366  31.002   7.901
 1977POPC   C4A28650  29.313  30.578   7.806
 1977POPC   C1B28651  29.159  30.452   8.739
 1977POPC   C2B28652  29.131  30.601   8.298
 1977POPC   C3B28653  28.845  30.487   7.963
 1977POPC   C4B28654  28.857  30.579   7.521
 1978POPC   NC328655  26.440  29.297   9.390
 1978POPC   PO428656  26.714  28.788   9.726
 1978POPC   GL128657  26.660  28.895   9.162
 1978POPC   GL228658  26.741  29.236   9.011
 1978POPC   C1A28659  26.897  28.894   8.705
 1978POPC   D2A28660  27.275  28.943   8.409
 1978POPC   C3A28661  27.150  29.102   7.988
 1978POPC   C4A28662  26.882  28.966   7.632
 1978POPC   C1B28663  26.488  29.426   8.692
 1978POPC   C2B28664  26.540  29.411   8.280
 1978POPC   C3B28665  26.582  29.287   7.882
 1978POPC   C4B28666  26.949  29.519   7.728
 1979POPC   NC328667  18.345  30.282   9.684
 1979POPC   PO428668  18.386  29.728   9.271
 1979POPC   GL128669  18.418  30.019   8.967
 1979POPC   GL228670  18.136  30.145   9.120
 1979POPC   C1A28671  18.659  30.018   8.582
 1979POPC   D2A28672  18.632  30.077   8.135
 1979POPC   C3A28673  18.371  29.797   7.871
 1979POPC   C4A28674  18.204  29.841   7.461
 1979POPC   C1B28675  17.933  29.953   8.736
 1979POPC   C2B28676  17.993  29.834   8.264
 1979POPC   C3B28677  17.969  30.142   7.897
 1979POPC   C4B28678  17.934  30.250   7.409
 1980POPC   NC328679   0.299   1.918   9.624
 1980POPC   PO428680   0.836   2.315   9.553
 1980POPC   GL128681   0.456   2.183   9.239
 1980POPC   GL228682   0.519   1.882   9.165
 1980POPC   C1A28683   0.300   2.105   8.767
 1980POPC   D2A28684   0.348   2.177   8.296
 1980POPC   C3A28685   0.281   1.849   7.942
 1980POPC   C4A28686   0.183   1.850   7.441
 1980POPC   C1B28687   0.646   1.717   8.787
 1980POPC   C2B28688   0.575   1.689   8.374
 1980POPC   C3B28689   0.815   1.667   8.026
 1980POPC   C4B28690   0.683   1.779   7.650
 1981POPC   NC328691  11.761   9.989   9.656
 1981POPC   PO428692  11.225   9.574   9.465
 1981POPC   GL128693  11.323   9.942   9.202
 1981POPC   GL228694  11.342   9.678   8.964
 1981POPC   C1A28695  11.194  10.136   8.785
 1981POPC   D2A28696  10.969  10.013   8.403
 1981POPC   C3A28697  11.203   9.836   8.065
 1981POPC   C4A28698  11.589   9.866   7.815
 1981POPC   C1B28699  11.358   9.628   8.530
 1981POPC   C2B28700  11.092   9.332   8.325
 1981POPC   C3B28701  11.086   9.197   7.989
 1981POPC   C4B28702  11.268   9.449   7.730
 1982POPC   NC328703  36.730  39.315   9.477
 1982POPC   PO428704  37.362  39.011   9.307
 1982POPC   GL128705  36.997  39.158   9.072
 1982POPC   GL228706  37.179  39.277   8.764
 1982POPC   C1A28707  36.685  39.230   8.750
 1982POPC   D2A28708  36.727  39.522   8.446
 1982POPC   C3A28709  36.739  39.348   8.046
 1982POPC   C4A28710  37.052  39.385   7.722
 1982POPC   C1B28711  37.176  38.815   8.725
 1982POPC   C2B28712  36.999  38.716   8.361
 1982POPC   C3B28713  37.111  38.971   8.029
 1982POPC   C4B28714  37.391  39.007   7.713
 1983POPC   NC328715   5.100  14.409   9.529
 1983POPC   PO428716   4.545  14.824   9.713
 1983POPC   GL128717   4.751  14.855   9.258
 1983POPC   GL228718   5.089  14.687   9.117
 1983POPC   C1A28719   4.752  14.813   8.790
 1983POPC   D2A28720   4.887  14.436   8.522
 1983POPC   C3A28721   4.966  14.471   8.100
 1983POPC   C4A28722   5.337  14.621   7.901
 1983POPC   C1B28723   5.195  14.294   8.890
 1983POPC   C2B28724   5.192  14.004   8.591
 1983POPC   C3B28725   5.240  14.024   8.190
 1983POPC   C4B28726   5.384  14.100   7.836
 1984POPC   NC328727  40.379  44.170   9.446
 1984POPC   PO428728  39.936  43.614   9.520
 1984POPC   GL128729  40.111  43.783   9.153
 1984POPC   GL228730  39.969  44.081   9.152
 1984POPC   C1A28731  40.053  43.917   8.680
 1984POPC   D2A28732  39.837  43.804   8.280
 1984POPC   C3A28733  40.107  43.868   7.919
 1984POPC   C4A28734  40.440  43.691   7.696
 1984POPC   C1B28735  39.734  44.312   8.817
 1984POPC   C2B28736  39.662  44.297   8.382
 1984POPC   C3B28737  39.869  44.314   7.974
 1984POPC   C4B28738  39.787  44.224   7.508
 1985POPC   NC328739  20.925  44.330   9.581
 1985POPC   PO428740  21.636  44.363   9.414
 1985POPC   GL128741  21.408  44.648   9.125
 1985POPC   GL228742  21.050  44.676   9.196
 1985POPC   C1A28743  21.494  44.578   8.705
 1985POPC   D2A28744  21.564  44.529   8.287
 1985POPC   C3A28745  21.527  44.922   8.055
 1985POPC   C4A28746  21.510   0.169   7.663
 1985POPC   C1B28747  20.966  44.546   8.772
 1985POPC   C2B28748  21.100  44.687   8.346
 1985POPC   C3B28749  21.179  44.535   7.933
 1985POPC   C4B28750  20.871  44.530   7.630
 1986POPC   NC328751   6.175  42.552   9.429
 1986POPC   PO428752   5.608  42.113   9.341
 1986POPC   GL128753   5.866  42.321   9.093
 1986POPC   GL228754   5.743  42.629   9.177
 1986POPC   C1A28755   6.099  42.455   8.754
 1986POPC   D2A28756   6.068  42.258   8.378
 1986POPC   C3A28757   6.168  42.407   8.020
 1986POPC   C4A28758   5.869  42.466   7.777
 1986POPC   C1B28759   5.622  42.802   8.818
 1986POPC   C2B28760   5.570  42.999   8.435
 1986POPC   C3B28761   5.610  42.783   8.066
 1986POPC   C4B28762   5.345  42.579   7.737
 1987POPC   NC328763  35.902  30.858   9.471
 1987POPC   PO428764  35.755  30.277   9.115
 1987POPC   GL128765  36.143  30.452   8.956
 1987POPC   GL228766  36.207  30.787   9.002
 1987POPC   C1A28767  36.285  30.566   8.543
 1987POPC   D2A28768  36.321  30.853   8.246
 1987POPC   C3A28769  36.234  30.615   7.878
 1987POPC   C4A28770  35.837  30.676   7.644
 1987POPC   C1B28771  36.028  31.038   8.680
 1987POPC   C2B28772  35.766  31.017   8.342
 1987POPC   C3B28773  35.929  31.054   7.969
 1987POPC   C4B28774  36.196  31.064   7.624
 1988POPC   NC328775  27.921  24.174   9.460
 1988POPC   PO428776  28.086  24.795   9.474
 1988POPC   GL128777  27.813  24.734   9.074
 1988POPC   GL228778  27.800  24.361   8.994
 1988POPC   C1A28779  27.551  24.651   8.656
 1988POPC   D2A28780  27.661  24.504   8.231
 1988POPC   C3A28781  27.501  24.543   7.800
 1988POPC   C4A28782  27.107  24.475   7.588
 1988POPC   C1B28783  28.058  24.533   8.662
 1988POPC   C2B28784  28.181  24.409   8.252
 1988POPC   C3B28785  28.009  24.509   7.857
 1988POPC   C4B28786  27.888  24.652   7.464
 1989POPC   NC328787   1.071  12.762   9.585
 1989POPC   PO428788   1.694  13.012   9.450
 1989POPC   GL128789   1.378  13.023   9.104
 1989POPC   GL228790   1.141  12.726   9.075
 1989POPC   C1A28791   1.389  13.207   8.683
 1989POPC   D2A28792   1.620  13.197   8.298
 1989POPC   C3A28793   1.386  13.000   7.950
 1989POPC   C4A28794   1.545  12.836   7.570
 1989POPC   C1B28795   0.952  12.905   8.701
 1989POPC   C2B28796   0.969  12.900   8.240
 1989POPC   C3B28797   1.006  12.602   7.882
 1989POPC   C4B28798   0.938  12.256   7.561
 1990POPC   NC328799  15.497   5.504   9.474
 1990POPC   PO428800  15.210   6.037   9.576
 1990POPC   GL128801  15.083   5.814   9.229
 1990POPC   GL228802  15.109   5.451   9.143
 1990POPC   C1A28803  15.190   5.884   8.803
 1990POPC   D2A28804  15.259   5.838   8.358
 1990POPC   C3A28805  15.262   6.200   8.122
 1990POPC   C4A28806  15.349   6.246   7.696
 1990POPC   C1B28807  14.750   5.623   8.897
 1990POPC   C2B28808  14.757   5.869   8.503
 1990POPC   C3B28809  14.738   5.741   8.080
 1990POPC   C4B28810  15.070   5.747   7.779
 1991POPC   NC328811   0.574  35.070   9.233
 1991POPC   PO428812   0.307  35.620   9.430
 1991POPC   GL128813   0.294  35.452   9.040
 1991POPC   GL228814   0.687  35.515   9.013
 1991POPC   C1A28815   0.119  35.117   8.724
 1991POPC   D2A28816   0.165  34.838   8.323
 1991POPC   C3A28817   0.243  35.110   7.953
 1991POPC   C4A28818   0.152  35.200   7.509
 1991POPC   C1B28819   0.560  35.370   8.633
 1991POPC   C2B28820   0.433  35.476   8.257
 1991POPC   C3B28821   0.711  35.368   7.950
 1991POPC   C4B28822   0.925  35.532   7.612
 1992POPC   NC328823  37.180  14.786   9.351
 1992POPC   PO428824  37.324  14.153   9.519
 1992POPC   GL128825  37.330  14.321   9.115
 1992POPC   GL228826  37.650  14.347   9.004
 1992POPC   C1A28827  37.278  14.108   8.699
 1992POPC   D2A28828  37.324  14.264   8.267
 1992POPC   C3A28829  37.504  14.123   7.907
 1992POPC   C4A28830  37.903  14.237   7.739
 1992POPC   C1B28831  37.463  14.593   8.638
 1992POPC   C2B28832  37.416  14.756   8.189
 1992POPC   C3B28833  37.636  14.689   7.775
 1992POPC   C4B28834  37.490  14.807   7.333
 1993POPC   NC328835   0.509  39.123   9.714
 1993POPC   PO428836   0.735  39.595   9.302
 1993POPC   GL128837   0.520  39.305   9.075
 1993POPC   GL228838   0.337  39.028   9.210
 1993POPC   C1A28839   0.620  39.290   8.655
 1993POPC   D2A28840   0.878  39.366   8.302
 1993POPC   C3A28841   0.700  39.469   7.933
 1993POPC   C4A28842   0.566  39.126   7.697
 1993POPC   C1B28843   0.343  38.846   8.781
 1993POPC   C2B28844   0.397  38.967   8.329
 1993POPC   C3B28845   0.222  38.795   7.956
 1993POPC   C4B28846   0.041  39.046   7.650
 1994POPC   NC328847  44.594  25.707   9.714
 1994POPC   PO428848  44.342  26.334   9.698
 1994POPC   GL128849  44.657  26.102   9.376
 1994POPC   GL228850  44.813  25.770   9.268
 1994POPC   C1A28851  44.728  26.092   8.895
 1994POPC   D2A28852  44.531  26.052   8.478
 1994POPC   C3A28853  44.549  26.218   8.101
 1994POPC   C4A28854  44.351  26.133   7.705
 1994POPC   C1B28855   0.072  25.704   8.926
 1994POPC   C2B28856  44.893  25.710   8.536
 1994POPC   C3B28857   0.032  25.728   8.116
 1994POPC   C4B28858  44.745  25.840   7.832
 1995POPC   NC328859   0.898  44.507   9.337
 1995POPC   PO428860   1.536  44.410   9.575
 1995POPC   GL128861   1.414  44.439   9.163
 1995POPC   GL228862   1.329  44.789   9.198
 1995POPC   C1A28863   1.413  44.595   8.736
 1995POPC   D2A28864   1.515  44.876   8.412
 1995POPC   C3A28865   1.299  44.783   8.040
 1995POPC   C4A28866   1.189  44.407   7.777
 1995POPC   C1B28867   1.120   0.008   8.835
 1995POPC   C2B28868   1.129   0.230   8.446
 1995POPC   C3B28869   0.950   0.169   8.037
 1995POPC   C4B28870   0.892  44.845   7.760
 1996POPC   NC328871  25.875  13.189   9.572
 1996POPC   PO428872  25.984  12.543   9.745
 1996POPC   GL128873  26.129  12.802   9.371
 1996POPC   GL228874  25.826  12.758   9.202
 1996POPC   C1A28875  26.153  13.047   8.944
 1996POPC   D2A28876  25.999  13.100   8.515
 1996POPC   C3A28877  26.284  13.170   8.183
 1996POPC   C4A28878  26.062  12.937   7.873
 1996POPC   C1B28879  25.940  12.591   8.770
 1996POPC   C2B28880  25.968  12.623   8.310
 1996POPC   C3B28881  25.747  12.533   7.941
 1996POPC   C4B28882  25.959  12.503   7.554
 1997POPC   NC328883  21.819   5.202   9.330
 1997POPC   PO428884  22.533   5.344   9.376
 1997POPC   GL128885  22.284   5.259   9.117
 1997POPC   GL228886  22.316   5.596   8.967
 1997POPC   C1A28887  22.159   5.124   8.752
 1997POPC   D2A28888  22.084   5.299   8.384
 1997POPC   C3A28889  21.954   4.991   8.069
 1997POPC   C4A28890  22.215   4.803   7.785
 1997POPC   C1B28891  22.586   5.388   8.654
 1997POPC   C2B28892  22.570   5.255   8.236
 1997POPC   C3B28893  22.251   5.374   7.911
 1997POPC   C4B28894  22.178   5.688   7.599
 1998POPC   NC328895   2.574  28.361   9.549
 1998POPC   PO428896   3.137  28.416   9.222
 1998POPC   GL128897   2.712  28.379   9.062
 1998POPC   GL228898   2.575  28.695   9.142
 1998POPC   C1A28899   2.549  28.248   8.664
 1998POPC   D2A28900   2.811  28.339   8.294
 1998POPC   C3A28901   2.814  28.110   7.909
 1998POPC   C4A28902   2.649  28.139   7.435
 1998POPC   C1B28903   2.778  28.722   8.682
 1998POPC   C2B28904   2.788  28.849   8.233
 1998POPC   C3B28905   2.692  28.622   7.821
 1998POPC   C4B28906   2.767  28.649   7.326
 1999POPC   NC328907  37.451  26.564   9.652
 1999POPC   PO428908  37.395  27.105   9.254
 1999POPC   GL128909  37.489  26.848   8.980
 1999POPC   GL228910  37.801  26.749   9.062
 1999POPC   C1A28911  37.659  27.010   8.625
 1999POPC   D2A28912  37.883  26.992   8.300
 1999POPC   C3A28913  37.621  26.784   8.044
 1999POPC   C4A28914  37.428  26.983   7.729
 1999POPC   C1B28915  38.097  26.660   8.723
 1999POPC   C2B28916  38.187  26.576   8.285
 1999POPC   C3B28917  38.101  26.773   7.896
 1999POPC   C4B28918  37.793  26.654   7.571
 2000POPC   NC328919  23.494  13.124   9.464
 2000POPC   PO428920  23.883  12.531   9.457
 2000POPC   GL128921  23.806  12.885   9.148
 2000POPC   GL228922  23.452  12.919   8.993
 2000POPC   C1A28923  23.970  12.954   8.746
 2000POPC   D2A28924  23.878  12.645   8.480
 2000POPC   C3A28925  23.678  12.776   8.099
 2000POPC   C4A28926  23.867  12.960   7.725
 2000POPC   C1B28927  23.374  12.672   8.623
 2000POPC   C2B28928  23.142  12.571   8.265
 2000POPC   C3B28929  23.352  12.399   7.920
 2000POPC   C4B28930  23.491  12.647   7.630
 2001POPC   NC328931  11.302  30.290   9.782
 2001POPC   PO428932  11.472  29.737   9.515
 2001POPC   GL128933  11.463  29.571   9.100
 2001POPC   GL228934  11.120  29.666   9.110
 2001POPC   C1A28935  11.556  29.657   8.650
 2001POPC   D2A28936  11.505  29.913   8.302
 2001POPC   C3A28937  11.527  29.732   7.909
 2001POPC   C4A28938  11.288  29.726   7.512
 2001POPC   C1B28939  11.139  29.931   8.735
 2001POPC   C2B28940  10.998  29.980   8.300
 2001POPC   C3B28941  11.171  30.085   7.889
 2001POPC   C4B28942  11.350  30.227   7.470
 2002POPC   NC328943   1.335  30.108   9.553
 2002POPC   PO428944   0.738  30.112   9.379
 2002POPC   GL128945   1.077  29.975   9.124
 2002POPC   GL228946   0.963  29.737   8.936
 2002POPC   C1A28947   1.376  30.051   8.791
 2002POPC   D2A28948   1.407  30.430   8.527
 2002POPC   C3A28949   1.305  30.261   8.142
 2002POPC   C4A28950   1.551  30.095   7.812
 2002POPC   C1B28951   1.264  29.542   8.680
 2002POPC   C2B28952   1.394  29.580   8.258
 2002POPC   C3B28953   1.356  29.635   7.827
 2002POPC   C4B28954   1.619  29.704   7.425
 2003POPC   NC328955  37.963  26.037   9.525
 2003POPC   PO428956  38.511  25.739   9.658
 2003POPC   GL128957  38.386  25.904   9.221
 2003POPC   GL228958  38.534  26.226   9.083
 2003POPC   C1A28959  38.219  25.890   8.784
 2003POPC   D2A28960  38.264  25.713   8.363
 2003POPC   C3A28961  38.291  25.909   7.922
 2003POPC   C4A28962  38.613  25.996   7.566
 2003POPC   C1B28963  38.463  26.309   8.624
 2003POPC   C2B28964  38.580  26.230   8.193
 2003POPC   C3B28965  38.889  26.343   7.841
 2003POPC   C4B28966  38.951  26.348   7.370
 2004POPC   NC328967  19.399   9.173   9.410
 2004POPC   PO428968  18.961   8.682   9.659
 2004POPC   GL128969  19.091   8.768   9.235
 2004POPC   GL228970  18.942   9.086   9.166
 2004POPC   C1A28971  19.296   8.895   8.828
 2004POPC   D2A28972  19.317   8.729   8.408
 2004POPC   C3A28973  19.346   8.954   8.042
 2004POPC   C4A28974  19.117   8.764   7.770
 2004POPC   C1B28975  18.865   9.267   8.770
 2004POPC   C2B28976  19.015   9.152   8.392
 2004POPC   C3B28977  18.840   9.132   8.004
 2004POPC   C4B28978  18.695   9.441   7.733
 2005POPC   NC328979  25.806  34.490   9.635
 2005POPC   PO428980  26.334  34.380   9.250
 2005POPC   GL128981  25.903  34.382   9.157
 2005POPC   GL228982  25.667  34.662   9.148
 2005POPC   C1A28983  25.764  34.255   8.770
 2005POPC   D2A28984  25.955  34.227   8.368
 2005POPC   C3A28985  25.800  34.461   8.008
 2005POPC   C4A28986  26.147  34.535   7.755
 2005POPC   C1B28987  25.998  34.714   8.795
 2005POPC   C2B28988  26.134  34.713   8.367
 2005POPC   C3B28989  26.306  34.936   8.021
 2005POPC   C4B28990  25.942  34.990   7.797
 2006POPC   NC328991  26.444  28.444   9.534
 2006POPC   PO428992  27.151  28.442   9.454
 2006POPC   GL128993  27.004  28.513   9.080
 2006POPC   GL228994  26.655  28.403   9.050
 2006POPC   C1A28995  27.227  28.525   8.734
 2006POPC   D2A28996  27.172  28.393   8.354
 2006POPC   C3A28997  26.948  28.625   8.118
 2006POPC   C4A28998  27.055  28.518   7.753
 2006POPC   C1B28999  26.717  28.429   8.601
 2006POPC   C2B29000  26.685  28.176   8.233
 2006POPC   C3B29001  26.526  28.130   7.796
 2006POPC   C4B29002  26.549  28.019   7.348
 2007POPC   NC329003  10.853  23.072   9.574
 2007POPC   PO429004  11.542  23.163   9.506
 2007POPC   GL129005  11.276  23.075   9.117
 2007POPC   GL229006  11.140  22.752   9.022
 2007POPC   C1A29007  11.432  22.957   8.674
 2007POPC   D2A29008  11.286  22.684   8.341
 2007POPC   C3A29009  11.510  22.797   7.959
 2007POPC   C4A29010  11.579  23.219   7.737
 2007POPC   C1B29011  10.936  22.935   8.684
 2007POPC   C2B29012  10.832  23.085   8.296
 2007POPC   C3B29013  11.020  22.944   7.940
 2007POPC   C4B29014  11.224  22.901   7.539
 2008POPC   NC329015   3.273  28.511   9.655
 2008POPC   PO429016   3.881  28.763   9.433
 2008POPC   GL129017   3.700  28.419   9.198
 2008POPC   GL229018   3.717  28.675   8.934
 2008POPC   C1A29019   3.600  28.212   8.794
 2008POPC   D2A29020   3.275  28.108   8.470
 2008POPC   C3A29021   3.284  28.312   8.051
 2008POPC   C4A29022   3.565  28.272   7.689
 2008POPC   C1B29023   3.386  28.663   8.645
 2008POPC   C2B29024   3.617  28.514   8.361
 2008POPC   C3B29025   3.741  28.646   7.983
 2008POPC   C4B29026   3.480  28.791   7.707
 2009POPC   NC329027  22.997  31.572   9.546
 2009POPC   PO429028  23.407  31.062   9.364
 2009POPC   GL129029  23.121  31.299   9.095
 2009POPC   GL229030  22.752  31.307   9.151
 2009POPC   C1A29031  22.936  31.283   8.676
 2009POPC   D2A29032  22.736  31.447   8.339
 2009POPC   C3A29033  22.936  31.383   7.960
 2009POPC   C4A29034  23.044  31.567   7.531
 2009POPC   C1B29035  22.524  31.557   8.842
 2009POPC   C2B29036  22.350  31.764   8.487
 2009POPC   C3B29037  22.407  31.702   8.050
 2009POPC   C4B29038  22.556  31.531   7.668
 2010POPC   NC329039  26.598  42.825   9.392
 2010POPC   PO429040  26.918  43.485   9.521
 2010POPC   GL129041  26.871  43.230   9.123
 2010POPC   GL229042  27.027  42.889   9.084
 2010POPC   C1A29043  26.706  43.057   8.728
 2010POPC   D2A29044  26.667  42.792   8.354
 2010POPC   C3A29045  26.748  42.984   7.964
 2010POPC   C4A29046  26.987  43.333   7.795
 2010POPC   C1B29047  27.147  42.771   8.686
 2010POPC   C2B29048  27.156  42.988   8.299
 2010POPC   C3B29049  27.230  42.865   7.862
 2010POPC   C4B29050  27.372  42.954   7.452
 2011POPC   NC329051  22.130  15.587   9.763
 2011POPC   PO429052  22.061  14.897   9.752
 2011POPC   GL129053  22.066  14.906   9.272
 2011POPC   GL229054  22.215  15.218   9.132
 2011POPC   C1A29055  22.143  14.821   8.807
 2011POPC   D2A29056  21.969  14.974   8.396
 2011POPC   C3A29057  22.087  14.853   7.984
 2011POPC   C4A29058  22.349  15.068   7.672
 2011POPC   C1B29059  21.974  15.382   8.744
 2011POPC   C2B29060  21.912  15.535   8.314
 2011POPC   C3B29061  21.983  15.359   7.897
 2011POPC   C4B29062  22.170  15.516   7.516
 2012POPC   NC329063   8.579   3.587   9.363
 2012POPC   PO429064   8.214   3.264   9.901
 2012POPC   GL129065   8.079   3.564   9.445
 2012POPC   GL229066   8.012   3.336   9.144
 2012POPC   C1A29067   8.076   3.770   8.940
 2012POPC   D2A29068   7.888   3.949   8.505
 2012POPC   C3A29069   8.102   3.894   8.096
 2012POPC   C4A29070   8.143   3.679   7.698
 2012POPC   C1B29071   8.171   3.267   8.771
 2012POPC   C2B29072   8.117   3.483   8.410
 2012POPC   C3B29073   8.387   3.427   8.064
 2012POPC   C4B29074   8.657   3.377   7.715
 2013POPC   NC329075  31.449  21.676   9.559
 2013POPC   PO429076  31.075  22.281   9.541
 2013POPC   GL129077  31.246  22.365   9.148
 2013POPC   GL229078  31.432  22.053   9.196
 2013POPC   C1A29079  31.554  22.393   8.814
 2013POPC   D2A29080  31.329  22.465   8.446
 2013POPC   C3A29081  31.486  22.462   8.037
 2013POPC   C4A29082  31.297  22.262   7.705
 2013POPC   C1B29083  31.177  21.957   8.857
 2013POPC   C2B29084  31.417  21.973   8.536
 2013POPC   C3B29085  31.425  21.978   8.130
 2013POPC   C4B29086  31.357  21.757   7.788
 2014POPC   NC329087   1.162  33.548   9.630
 2014POPC   PO429088   0.970  34.204   9.701
 2014POPC   GL129089   1.212  33.956   9.313
 2014POPC   GL229090   1.022  33.671   9.148
 2014POPC   C1A29091   1.427  33.889   8.890
 2014POPC   D2A29092   1.649  34.028   8.515
 2014POPC   C3A29093   1.511  33.941   8.108
 2014POPC   C4A29094   1.200  34.029   7.814
 2014POPC   C1B29095   1.030  33.581   8.700
 2014POPC   C2B29096   1.338  33.529   8.359
 2014POPC   C3B29097   1.215  33.505   7.912
 2014POPC   C4B29098   0.816  33.555   7.691
 2015POPC   NC329099   5.429   3.243   9.437
 2015POPC   PO429100   5.032   3.843   9.622
 2015POPC   GL129101   5.221   3.679   9.240
 2015POPC   GL229102   5.318   4.020   9.181
 2015POPC   C1A29103   5.156   3.401   8.836
 2015POPC   D2A29104   5.249   3.234   8.402
 2015POPC   C3A29105   4.908   3.236   8.108
 2015POPC   C4A29106   4.766   3.343   7.728
 2015POPC   C1B29107   5.086   3.901   8.785
 2015POPC   C2B29108   4.980   3.687   8.395
 2015POPC   C3B29109   5.202   3.647   8.003
 2015POPC   C4B29110   5.270   3.904   7.639
 2016POPC   NC329111  33.199  19.017   9.520
 2016POPC   PO429112  32.597  18.813   9.560
 2016POPC   GL129113  32.812  18.912   9.165
 2016POPC   GL229114  33.160  18.798   9.069
 2016POPC   C1A29115  33.000  19.254   8.909
 2016POPC   D2A29116  33.295  19.250   8.547
 2016POPC   C3A29117  33.055  19.133   8.180
 2016POPC   C4A29118  33.079  19.110   7.737
 2016POPC   C1B29119  33.023  18.795   8.652
 2016POPC   C2B29120  33.222  18.654   8.267
 2016POPC   C3B29121  33.472  18.850   7.937
 2016POPC   C4B29122  33.451  18.826   7.477
 2017POPC   NC329123  41.355   1.394   9.382
 2017POPC   PO429124  41.730   0.791   9.515
 2017POPC   GL129125  41.586   1.000   9.126
 2017POPC   GL229126  41.743   1.355   9.073
 2017POPC   C1A29127  41.444   1.126   8.706
 2017POPC   D2A29128  41.377   1.354   8.302
 2017POPC   C3A29129  41.398   1.122   7.930
 2017POPC   C4A29130  41.580   1.126   7.509
 2017POPC   C1B29131  41.941   1.202   8.716
 2017POPC   C2B29132  41.888   1.304   8.311
 2017POPC   C3B29133  41.825   1.390   7.902
 2017POPC   C4B29134  41.532   1.620   7.681
 2018POPC   NC329135  31.013  13.836   9.469
 2018POPC   PO429136  31.611  13.544   9.707
 2018POPC   GL129137  31.488  13.538   9.223
 2018POPC   GL229138  31.295  13.770   9.049
 2018POPC   C1A29139  31.465  13.384   8.763
 2018POPC   D2A29140  31.642  13.159   8.404
 2018POPC   C3A29141  31.531  13.321   8.019
 2018POPC   C4A29142  31.792  13.399   7.658
 2018POPC   C1B29143  31.530  14.017   8.749
 2018POPC   C2B29144  31.513  14.057   8.324
 2018POPC   C3B29145  31.366  14.063   7.927
 2018POPC   C4B29146  31.301  13.680   7.735
 2019POPC   NC329147  10.171  27.550   9.425
 2019POPC   PO429148   9.580  27.676   9.536
 2019POPC   GL129149   9.663  27.830   9.153
 2019POPC   GL229150   9.974  27.951   9.125
 2019POPC   C1A29151   9.780  27.579   8.783
 2019POPC   D2A29152   9.956  27.337   8.423
 2019POPC   C3A29153   9.843  27.352   8.001
 2019POPC   C4A29154   9.975  27.595   7.688
 2019POPC   C1B29155   9.861  28.074   8.742
 2019POPC   C2B29156  10.017  27.852   8.426
 2019POPC   C3B29157  10.168  27.885   8.070
 2019POPC   C4B29158  10.002  28.086   7.739
 2020POPC   NC329159  17.288  44.371   9.564
 2020POPC   PO429160  16.618  44.500   9.799
 2020POPC   GL129161  16.756  44.631   9.408
 2020POPC   GL229162  16.855  44.324   9.304
 2020POPC   C1A29163  16.671  44.740   8.970
 2020POPC   D2A29164  16.613  44.534   8.560
 2020POPC   C3A29165  16.665  44.687   8.125
 2020POPC   C4A29166  16.366  44.652   7.793
 2020POPC   C1B29167  17.061  44.411   8.892
 2020POPC   C2B29168  17.120  44.458   8.425
 2020POPC   C3B29169  16.971  44.276   8.009
 2020POPC   C4B29170  16.834  44.466   7.598
 2021POPC   NC329171  19.462   0.428   9.490
 2021POPC   PO429172  18.867   0.368   9.724
 2021POPC   GL129173  19.012   0.344   9.261
 2021POPC   GL229174  19.153   0.670   9.177
 2021POPC   C1A29175  19.143   0.222   8.824
 2021POPC   D2A29176  19.177   0.420   8.411
 2021POPC   C3A29177  19.333   0.288   8.007
 2021POPC   C4A29178  18.959   0.254   7.769
 2021POPC   C1B29179  19.301   0.798   8.763
 2021POPC   C2B29180  19.359   0.885   8.317
 2021POPC   C3B29181  19.146   0.765   7.945
 2021POPC   C4B29182  19.134   0.624   7.491
 2022POPC   NC329183  19.640  15.610   9.509
 2022POPC   PO429184  20.107  16.081   9.503
 2022POPC   GL129185  19.743  16.040   9.256
 2022POPC   GL229186  19.969  15.781   9.085
 2022POPC   C1A29187  19.634  16.088   8.843
 2022POPC   D2A29188  19.932  16.214   8.556
 2022POPC   C3A29189  19.941  15.990   8.178
 2022POPC   C4A29190  19.913  16.216   7.814
 2022POPC   C1B29191  19.662  15.570   8.814
 2022POPC   C2B29192  19.489  15.455   8.418
 2022POPC   C3B29193  19.653  15.535   8.020
 2022POPC   C4B29194  19.918  15.706   7.727
 2023POPC   NC329195   7.050  29.713   9.456
 2023POPC   PO429196   7.695  29.962   9.525
 2023POPC   GL129197   7.579  30.051   9.113
 2023POPC   GL229198   7.231  30.008   9.084
 2023POPC   C1A29199   7.564  29.988   8.703
 2023POPC   D2A29200   7.317  29.841   8.419
 2023POPC   C3A29201   7.502  29.893   8.050
 2023POPC   C4A29202   7.213  30.041   7.810
 2023POPC   C1B29203   6.999  29.722   8.814
 2023POPC   C2B29204   6.877  29.523   8.450
 2023POPC   C3B29205   7.065  29.556   8.063
 2023POPC   C4B29206   7.031  29.574   7.667
 2024POPC   NC329207   8.082   9.571   9.533
 2024POPC   PO429208   7.901  10.224   9.543
 2024POPC   GL129209   8.055   9.896   9.143
 2024POPC   GL229210   8.285   9.570   9.090
 2024POPC   C1A29211   8.092   9.808   8.675
 2024POPC   D2A29212   7.867   9.518   8.394
 2024POPC   C3A29213   7.814   9.623   7.957
 2024POPC   C4A29214   8.170   9.676   7.696
 2024POPC   C1B29215   8.520   9.494   8.760
 2024POPC   C2B29216   8.519   9.704   8.380
 2024POPC   C3B29217   8.552   9.515   7.995
 2024POPC   C4B29218   8.625   9.286   7.675
 2025POPC   NC329219  10.265   4.057   9.701
 2025POPC   PO429220  10.593   4.495   9.602
 2025POPC   GL129221  10.392   4.603   9.179
 2025POPC   GL229222  10.596   4.838   9.044
 2025POPC   C1A29223  10.370   4.512   8.702
 2025POPC   D2A29224  10.126   4.299   8.356
 2025POPC   C3A29225  10.319   4.260   7.946
 2025POPC   C4A29226  10.409   3.866   7.694
 2025POPC   C1B29227  10.852   4.742   8.667
 2025POPC   C2B29228  10.777   4.518   8.265
 2025POPC   C3B29229  10.984   4.401   7.862
 2025POPC   C4B29230  11.078   4.389   7.398
 2026POPC   NC329231  10.651  28.495   9.525
 2026POPC   PO429232  10.200  27.988   9.564
 2026POPC   GL129233  10.408  28.231   9.174
 2026POPC   GL229234  10.364  28.566   9.107
 2026POPC   C1A29235  10.718  28.420   8.789
 2026POPC   D2A29236  10.587  28.620   8.380
 2026POPC   C3A29237  10.847  28.447   8.044
 2026POPC   C4A29238  10.721  28.272   7.611
 2026POPC   C1B29239  10.217  28.415   8.713
 2026POPC   C2B29240  10.104  28.344   8.297
 2026POPC   C3B29241  10.352  28.376   7.936
 2026POPC   C4B29242  10.282  28.499   7.485
 2027POPC   NC329243  16.301  34.648   9.337
 2027POPC   PO429244  15.718  34.357   9.625
 2027POPC   GL129245  15.886  34.322   9.175
 2027POPC   GL229246  15.872  34.639   9.047
 2027POPC   C1A29247  16.170  34.317   8.760
 2027POPC   D2A29248  16.126  34.370   8.291
 2027POPC   C3A29249  15.957  34.465   7.850
 2027POPC   C4A29250  16.042  34.171   7.473
 2027POPC   C1B29251  15.695  34.463   8.637
 2027POPC   C2B29252  15.683  34.697   8.216
 2027POPC   C3B29253  15.491  34.751   7.787
 2027POPC   C4B29254  15.362  34.811   7.362
 2028POPC   NC329255  25.466  31.824   9.516
 2028POPC   PO429256  25.141  31.289   9.407
 2028POPC   GL129257  25.096  31.577   9.079
 2028POPC   GL229258  25.410  31.689   9.029
 2028POPC   C1A29259  25.118  31.527   8.621
 2028POPC   D2A29260  24.947  31.412   8.219
 2028POPC   C3A29261  25.161  31.559   7.843
 2028POPC   C4A29262  25.423  31.364   7.525
 2028POPC   C1B29263  25.634  31.599   8.655
 2028POPC   C2B29264  25.525  31.529   8.225
 2028POPC   C3B29265  25.693  31.668   7.831
 2028POPC   C4B29266  25.608  31.822   7.388
 2029POPC   NC329267  11.533  25.337   9.587
 2029POPC   PO429268  11.659  24.804   9.248
 2029POPC   GL129269  11.311  25.095   9.204
 2029POPC   GL229270  11.470  25.410   9.102
 2029POPC   C1A29271  11.192  25.091   8.814
 2029POPC   D2A29272  11.418  24.964   8.471
 2029POPC   C3A29273  11.232  25.042   8.102
 2029POPC   C4A29274  11.278  25.105   7.654
 2029POPC   C1B29275  11.546  25.413   8.692
 2029POPC   C2B29276  11.278  25.470   8.384
 2029POPC   C3B29277  11.429  25.489   7.989
 2029POPC   C4B29278  11.464  25.615   7.585
 2030POPC   NC329279  23.047  15.760   9.905
 2030POPC   PO429280  22.479  16.124   9.755
 2030POPC   GL129281  22.745  16.194   9.344
 2030POPC   GL229282  22.997  15.919   9.337
 2030POPC   C1A29283  22.927  16.189   8.871
 2030POPC   D2A29284  23.254  16.139   8.526
 2030POPC   C3A29285  23.069  16.117   8.128
 2030POPC   C4A29286  22.728  15.948   7.966
 2030POPC   C1B29287  23.152  15.744   8.942
 2030POPC   C2B29288  23.046  15.653   8.506
 2030POPC   C3B29289  23.127  15.585   8.069
 2030POPC   C4B29290  23.106  15.776   7.690
 2031POPC   NC329291  36.496  31.412   9.495
 2031POPC   PO429292  35.838  31.520   9.588
 2031POPC   GL129293  35.751  31.306   9.202
 2031POPC   GL229294  36.082  31.253   9.152
 2031POPC   C1A29295  35.754  31.525   8.795
 2031POPC   D2A29296  35.704  31.511   8.411
 2031POPC   C3A29297  36.057  31.499   8.209
 2031POPC   C4A29298  35.808  31.542   7.830
 2031POPC   C1B29299  36.249  31.488   8.803
 2031POPC   C2B29300  36.576  31.526   8.528
 2031POPC   C3B29301  36.589  31.608   8.097
 2031POPC   C4B29302  36.301  31.544   7.766
 2032POPC   NC329303  12.291   8.563   9.474
 2032POPC   PO429304  11.781   8.171   9.526
 2032POPC   GL129305  12.037   8.054   9.169
 2032POPC   GL229306  12.374   8.112   9.233
 2032POPC   C1A29307  11.958   8.141   8.744
 2032POPC   D2A29308  12.000   7.972   8.336
 2032POPC   C3A29309  11.944   8.254   7.968
 2032POPC   C4A29310  11.602   8.138   7.688
 2032POPC   C1B29311  12.440   7.989   8.815
 2032POPC   C2B29312  12.540   8.044   8.392
 2032POPC   C3B29313  12.376   7.965   7.988
 2032POPC   C4B29314  12.284   8.183   7.582
 2033POPC   NC329315  20.939  36.587   9.495
 2033POPC   PO429316  20.583  37.140   9.751
 2033POPC   GL129317  20.590  36.926   9.323
 2033POPC   GL229318  20.280  36.854   9.168
 2033POPC   C1A29319  20.688  36.835   8.864
 2033POPC   D2A29320  20.649  36.847   8.411
 2033POPC   C3A29321  20.620  37.092   8.045
 2033POPC   C4A29322  20.830  36.722   7.882
 2033POPC   C1B29323  20.033  36.634   8.913
 2033POPC   C2B29324  20.213  36.583   8.538
 2033POPC   C3B29325  20.193  36.778   8.145
 2033POPC   C4B29326  20.319  36.799   7.746
 2034POPC   NC329327  22.828   9.855   9.518
 2034POPC   PO429328  22.900   9.235   9.589
 2034POPC   GL129329  22.796   9.470   9.190
 2034POPC   GL229330  23.091   9.623   9.025
 2034POPC   C1A29331  22.638   9.716   8.823
 2034POPC   D2A29332  22.889   9.940   8.494
 2034POPC   C3A29333  22.768   9.897   8.071
 2034POPC   C4A29334  23.075   9.921   7.736
 2034POPC   C1B29335  23.308   9.664   8.595
 2034POPC   C2B29336  23.491   9.630   8.156
 2034POPC   C3B29337  23.431   9.558   7.693
 2034POPC   C4B29338  23.331   9.452   7.262
 2035POPC   NC329339  17.615  11.189   9.532
 2035POPC   PO429340  16.951  11.282   9.677
 2035POPC   GL129341  17.234  11.336   9.245
 2035POPC   GL229342  17.261  11.046   9.002
 2035POPC   C1A29343  17.483  11.487   8.870
 2035POPC   D2A29344  17.663  11.387   8.467
 2035POPC   C3A29345  17.384  11.236   8.165
 2035POPC   C4A29346  17.226  11.411   7.781
 2035POPC   C1B29347  17.683  10.954   8.836
 2035POPC   C2B29348  17.858  10.911   8.412
 2035POPC   C3B29349  17.862  11.144   8.014
 2035POPC   C4B29350  17.822  11.257   7.572
 2036POPC   NC329351  15.081  34.005   9.554
 2036POPC   PO429352  15.316  33.474   9.383
 2036POPC   GL129353  15.172  33.763   9.122
 2036POPC   GL229354  15.463  33.942   9.111
 2036POPC   C1A29355  15.152  34.014   8.708
 2036POPC   D2A29356  15.179  33.779   8.304
 2036POPC   C3A29357  15.323  33.977   7.927
 2036POPC   C4A29358  15.274  33.875   7.468
 2036POPC   C1B29359  15.420  33.590   8.740
 2036POPC   C2B29360  15.440  33.322   8.392
 2036POPC   C3B29361  15.453  33.481   7.964
 2036POPC   C4B29362  15.484  33.410   7.541
 2037POPC   NC329363  34.946  25.697   9.510
 2037POPC   PO429364  35.493  26.037   9.719
 2037POPC   GL129365  35.411  26.161   9.295
 2037POPC   GL229366  35.183  25.962   9.155
 2037POPC   C1A29367  35.409  26.318   8.876
 2037POPC   D2A29368  35.548  26.188   8.544
 2037POPC   C3A29369  35.444  26.270   8.145
 2037POPC   C4A29370  35.383  26.082   7.761
 2037POPC   C1B29371  35.133  25.702   8.759
 2037POPC   C2B29372  35.174  25.879   8.347
 2037POPC   C3B29373  35.016  25.782   7.941
 2037POPC   C4B29374  34.927  25.948   7.507
 2038POPC   NC329375  10.321  42.855   9.530
 2038POPC   PO429376  10.913  43.143   9.442
 2038POPC   GL129377  10.564  43.026   9.104
 2038POPC   GL229378  10.513  42.669   9.081
 2038POPC   C1A29379  10.320  42.946   8.687
 2038POPC   D2A29380  10.516  43.011   8.263
 2038POPC   C3A29381  10.344  43.060   7.823
 2038POPC   C4A29382  10.457  43.381   7.486
 2038POPC   C1B29383  10.743  42.668   8.706
 2038POPC   C2B29384  10.880  42.657   8.305
 2038POPC   C3B29385  10.920  42.874   7.908
 2038POPC   C4B29386  10.741  42.967   7.498
 2039POPC   NC329387  23.579  31.976   9.605
 2039POPC   PO429388  24.150  32.393   9.741
 2039POPC   GL129389  23.858  32.340   9.369
 2039POPC   GL229390  23.835  32.635   9.172
 2039POPC   C1A29391  23.740  32.100   8.956
 2039POPC   D2A29392  23.727  31.954   8.503
 2039POPC   C3A29393  23.602  32.136   8.090
 2039POPC   C4A29394  23.535  31.898   7.692
 2039POPC   C1B29395  24.012  32.494   8.771
 2039POPC   C2B29396  23.901  32.601   8.363
 2039POPC   C3B29397  24.061  32.471   8.004
 2039POPC   C4B29398  23.903  32.271   7.688
 2040POPC   NC329399  20.416  21.149   9.452
 2040POPC   PO429400  20.554  21.752   9.378
 2040POPC   GL129401  20.339  21.530   9.108
 2040POPC   GL229402  20.199  21.861   9.002
 2040POPC   C1A29403  20.313  21.252   8.758
 2040POPC   D2A29404  20.656  21.244   8.462
 2040POPC   C3A29405  20.613  21.245   8.018
 2040POPC   C4A29406  20.885  21.119   7.677
 2040POPC   C1B29407  20.565  21.720   8.709
 2040POPC   C2B29408  20.791  21.767   8.329
 2040POPC   C3B29409  20.793  21.715   7.891
 2040POPC   C4B29410  20.707  21.572   7.510
 2041POPC   NC329411  24.355  28.428   9.489
 2041POPC   PO429412  25.052  28.453   9.504
 2041POPC   GL129413  24.780  28.362   9.154
 2041POPC   GL229414  24.634  28.675   9.122
 2041POPC   C1A29415  24.699  28.084   8.786
 2041POPC   D2A29416  24.622  28.313   8.396
 2041POPC   C3A29417  24.602  28.119   8.007
 2041POPC   C4A29418  24.744  28.123   7.593
 2041POPC   C1B29419  24.368  28.464   8.832
 2041POPC   C2B29420  24.070  28.510   8.534
 2041POPC   C3B29421  24.171  28.564   8.079
 2041POPC   C4B29422  24.302  28.375   7.671
 2042POPC   NC329423  43.532   5.352   9.451
 2042POPC   PO429424  44.062   4.995   9.791
 2042POPC   GL129425  44.012   5.140   9.337
 2042POPC   GL229426  43.735   4.954   9.204
 2042POPC   C1A29427  43.903   5.258   8.858
 2042POPC   D2A29428  44.130   5.263   8.459
 2042POPC   C3A29429  43.958   5.271   8.068
 2042POPC   C4A29430  43.930   4.998   7.747
 2042POPC   C1B29431  43.602   4.832   8.807
 2042POPC   C2B29432  43.767   4.906   8.414
 2042POPC   C3B29433  43.542   4.887   8.052
 2042POPC   C4B29434  43.490   4.770   7.642
 2043POPC   NC329435   1.796  10.016   9.485
 2043POPC   PO429436   1.868   9.387   9.592
 2043POPC   GL129437   2.012   9.502   9.189
 2043POPC   GL229438   1.934   9.805   9.060
 2043POPC   C1A29439   2.128   9.392   8.777
 2043POPC   D2A29440   2.285   9.591   8.397
 2043POPC   C3A29441   2.065   9.449   8.026
 2043POPC   C4A29442   2.239   9.467   7.615
 2043POPC   C1B29443   2.043   9.948   8.679
 2043POPC   C2B29444   1.899   9.925   8.254
 2043POPC   C3B29445   1.995   9.917   7.817
 2043POPC   C4B29446   1.743   9.985   7.443
 2044POPC   NC329447  40.281  31.328   9.636
 2044POPC   PO429448  40.910  31.431   9.346
 2044POPC   GL129449  40.844  31.638   9.033
 2044POPC   GL229450  40.512  31.724   9.125
 2044POPC   C1A29451  40.915  31.459   8.634
 2044POPC   D2A29452  40.838  31.151   8.311
 2044POPC   C3A29453  40.836  31.365   7.935
 2044POPC   C4A29454  41.016  31.773   7.869
 2044POPC   C1B29455  40.478  31.711   8.688
 2044POPC   C2B29456  40.468  31.511   8.288
 2044POPC   C3B29457  40.489  31.743   7.919
 2044POPC   C4B29458  40.670  31.638   7.523
 2045POPC   NC329459  32.243  11.638   9.509
 2045POPC   PO429460  32.072  10.975   9.513
 2045POPC   GL129461  32.187  11.250   9.159
 2045POPC   GL229462  32.553  11.396   9.173
 2045POPC   C1A29463  32.257  11.319   8.714
 2045POPC   D2A29464  32.112  11.114   8.318
 2045POPC   C3A29465  32.285  11.323   7.915
 2045POPC   C4A29466  32.177  11.619   7.535
 2045POPC   C1B29467  32.712  11.583   8.789
 2045POPC   C2B29468  32.650  11.381   8.380
 2045POPC   C3B29469  32.569  10.993   8.179
 2045POPC   C4B29470  32.552  10.934   7.717
 2046POPC   NC329471  15.473   4.541   9.487
 2046POPC   PO429472  14.819   4.499   9.716
 2046POPC   GL129473  15.020   4.495   9.266
 2046POPC   GL229474  15.225   4.228   9.124
 2046POPC   C1A29475  15.127   4.602   8.811
 2046POPC   D2A29476  15.412   4.526   8.471
 2046POPC   C3A29477  15.184   4.501   8.094
 2046POPC   C4A29478  15.435   4.291   7.814
 2046POPC   C1B29479  15.465   4.096   8.755
 2046POPC   C2B29480  15.315   4.048   8.305
 2046POPC   C3B29481  15.161   3.892   7.895
 2046POPC   C4B29482  15.142   4.032   7.458
 2047POPC   NC329483   1.646  28.285   9.308
 2047POPC   PO429484   2.147  28.453   9.692
 2047POPC   GL129485   2.153  28.387   9.205
 2047POPC   GL229486   2.010  28.665   9.149
 2047POPC   C1A29487   1.970  28.298   8.733
 2047POPC   D2A29488   1.728  28.354   8.305
 2047POPC   C3A29489   1.796  28.087   7.905
 2047POPC   C4A29490   1.973  28.210   7.478
 2047POPC   C1B29491   2.263  28.699   8.754
 2047POPC   C2B29492   2.266  28.531   8.316
 2047POPC   C3B29493   2.065  28.542   7.890
 2047POPC   C4B29494   2.303  28.590   7.498
 2048POPC   NC329495   3.831  12.445   9.422
 2048POPC   PO429496   3.427  13.004   9.487
 2048POPC   GL129497   3.619  12.844   9.119
 2048POPC   GL229498   3.452  12.579   9.095
 2048POPC   C1A29499   3.655  12.907   8.660
 2048POPC   D2A29500   3.781  13.230   8.362
 2048POPC   C3A29501   3.770  13.056   7.930
 2048POPC   C4A29502   3.381  12.900   7.700
 2048POPC   C1B29503   3.550  12.406   8.734
 2048POPC   C2B29504   3.692  12.371   8.341
 2048POPC   C3B29505   3.644  12.547   7.954
 2048POPC   C4B29506   3.447  12.395   7.605
 2049POPC   NC329507   8.558  11.279   9.814
 2049POPC   PO429508   7.943  11.100   9.439
 2049POPC   GL129509   7.939  11.298   9.082
 2049POPC   GL229510   8.058  11.637   9.129
 2049POPC   C1A29511   8.178  11.368   8.705
 2049POPC   D2A29512   8.523  11.319   8.454
 2049POPC   C3A29513   8.412  11.126   8.101
 2049POPC   C4A29514   8.340  11.294   7.727
 2049POPC   C1B29515   7.745  11.644   8.780
 2049POPC   C2B29516   7.753  11.318   8.411
 2049POPC   C3B29517   7.929  11.395   8.010
 2049POPC   C4B29518   7.897  11.440   7.550
 2050POPC   NC329519  35.186   6.923   9.633
 2050POPC   PO429520  35.581   6.295   9.619
 2050POPC   GL129521  35.394   6.558   9.268
 2050POPC   GL229522  35.539   6.887   9.233
 2050POPC   C1A29523  35.280   6.653   8.818
 2050POPC   D2A29524  35.331   6.815   8.420
 2050POPC   C3A29525  35.175   6.726   7.991
 2050POPC   C4A29526  35.347   6.400   7.765
 2050POPC   C1B29527  35.729   6.959   8.819
 2050POPC   C2B29528  35.769   7.092   8.392
 2050POPC   C3B29529  35.593   7.003   8.007
 2050POPC   C4B29530  35.759   7.057   7.643
 2051POPC   NC329531  35.146   2.896   9.594
 2051POPC   PO429532  35.764   2.776   9.529
 2051POPC   GL129533  35.454   2.789   9.180
 2051POPC   GL229534  35.432   2.471   9.074
 2051POPC   C1A29535  35.302   2.921   8.742
 2051POPC   D2A29536  35.483   3.124   8.377
 2051POPC   C3A29537  35.412   3.056   7.935
 2051POPC   C4A29538  35.614   2.907   7.563
 2051POPC   C1B29539  35.393   2.427   8.611
 2051POPC   C2B29540  35.311   2.646   8.233
 2051POPC   C3B29541  35.333   2.544   7.791
 2051POPC   C4B29542  34.955   2.436   7.517
 2052POPC   NC329543  29.655  12.626   9.657
 2052POPC   PO429544  30.247  12.543   9.656
 2052POPC   GL129545  29.973  12.752   9.284
 2052POPC   GL229546  29.625  12.720   9.158
 2052POPC   C1A29547  30.036  12.674   8.826
 2052POPC   D2A29548  29.884  12.654   8.409
 2052POPC   C3A29549  30.073  12.591   7.990
 2052POPC   C4A29550  30.201  12.839   7.650
 2052POPC   C1B29551  29.525  13.069   8.887
 2052POPC   C2B29552  29.586  13.150   8.459
 2052POPC   C3B29553  29.643  12.949   8.084
 2052POPC   C4B29554  29.608  12.994   7.685
 2053POPC   NC329555  28.253  32.406   9.615
 2053POPC   PO429556  28.369  31.801   9.596
 2053POPC   GL129557  28.367  32.073   9.199
 2053POPC   GL229558  28.234  32.410   9.119
 2053POPC   C1A29559  28.505  32.151   8.760
 2053POPC   D2A29560  28.395  31.944   8.397
 2053POPC   C3A29561  28.445  32.140   7.983
 2053POPC   C4A29562  28.279  31.999   7.557
 2053POPC   C1B29563  28.042  32.356   8.730
 2053POPC   C2B29564  28.183  32.411   8.346
 2053POPC   C3B29565  27.998  32.366   7.935
 2053POPC   C4B29566  28.179  32.494   7.551
 2054POPC   NC329567  27.490  18.875   9.406
 2054POPC   PO429568  28.040  19.180   9.635
 2054POPC   GL129569  27.923  19.298   9.198
 2054POPC   GL229570  27.593  19.160   9.020
 2054POPC   C1A29571  27.987  19.215   8.739
 2054POPC   D2A29572  27.629  19.150   8.488
 2054POPC   C3A29573  27.696  19.225   8.089
 2054POPC   C4A29574  27.543  19.080   7.704
 2054POPC   C1B29575  27.634  18.750   8.789
 2054POPC   C2B29576  27.527  18.650   8.363
 2054POPC   C3B29577  27.279  18.819   8.061
 2054POPC   C4B29578  27.031  18.677   7.700
 2055POPC   NC329579   4.948  35.909   9.665
 2055POPC   PO429580   5.330  36.402   9.477
 2055POPC   GL129581   5.095  36.214   9.162
 2055POPC   GL229582   4.838  36.473   9.178
 2055POPC   C1A29583   5.231  36.084   8.728
 2055POPC   D2A29584   5.240  36.163   8.256
 2055POPC   C3A29585   5.425  35.962   7.890
 2055POPC   C4A29586   5.478  36.173   7.488
 2055POPC   C1B29587   4.917  36.507   8.750
 2055POPC   C2B29588   4.760  36.243   8.439
 2055POPC   C3B29589   4.768  36.079   8.043
 2055POPC   C4B29590   4.997  36.203   7.710
 2056POPC   NC329591  30.128   0.381   9.459
 2056POPC   PO429592  29.844  44.825   9.403
 2056POPC   GL129593  29.772   0.177   9.121
 2056POPC   GL229594  29.627  44.973   8.930
 2056POPC   C1A29595  29.829   0.359   8.674
 2056POPC   D2A29596  29.816   0.192   8.246
 2056POPC   C3A29597  29.866   0.518   7.911
 2056POPC   C4A29598  30.057   0.808   7.595
 2056POPC   C1B29599  29.979  44.868   8.633
 2056POPC   C2B29600  30.229  44.849   8.272
 2056POPC   C3B29601  30.162   0.051   7.882
 2056POPC   C4B29602  29.763   0.060   7.739
 2057POPC   NC329603  18.862   6.280   9.794
 2057POPC   PO429604  19.303   5.878   9.437
 2057POPC   GL129605  19.025   6.082   9.210
 2057POPC   GL229606  18.723   5.986   9.346
 2057POPC   C1A29607  19.042   5.991   8.771
 2057POPC   D2A29608  19.307   5.731   8.491
 2057POPC   C3A29609  19.231   5.675   8.043
 2057POPC   C4A29610  19.388   6.062   7.839
 2057POPC   C1B29611  18.667   5.669   9.010
 2057POPC   C2B29612  18.767   5.600   8.568
 2057POPC   C3B29613  18.868   5.946   8.285
 2057POPC   C4B29614  18.871   5.973   7.848
 2058POPC   NC329615  30.661  29.475   9.632
 2058POPC   PO429616  30.351  29.990   9.308
 2058POPC   GL129617  30.542  30.062   8.930
 2058POPC   GL229618  30.739  30.329   9.000
 2058POPC   C1A29619  30.515  29.913   8.506
 2058POPC   D2A29620  30.727  29.664   8.192
 2058POPC   C3A29621  30.461  29.694   7.826
 2058POPC   C4A29622  30.430  29.970   7.470
 2058POPC   C1B29623  30.911  30.234   8.601
 2058POPC   C2B29624  30.767  30.331   8.202
 2058POPC   C3B29625  30.759  30.109   7.835
 2058POPC   C4B29626  30.943  30.029   7.455
 2059POPC   NC329627   7.260  16.021   9.572
 2059POPC   PO429628   6.585  16.147   9.466
 2059POPC   GL129629   6.653  16.203   9.046
 2059POPC   GL229630   6.793  16.455   8.895
 2059POPC   C1A29631   6.645  15.976   8.679
 2059POPC   D2A29632   6.909  15.819   8.349
 2059POPC   C3A29633   6.645  15.887   8.035
 2059POPC   C4A29634   6.436  15.998   7.695
 2059POPC   C1B29635   7.043  16.265   8.569
 2059POPC   C2B29636   7.045  16.426   8.154
 2059POPC   C3B29637   6.871  16.286   7.774
 2059POPC   C4B29638   6.914  15.865   7.590
 2060POPC   NC329639   6.689   5.191   9.524
 2060POPC   PO429640   6.223   4.725   9.605
 2060POPC   GL129641   6.399   4.823   9.175
 2060POPC   GL229642   6.619   5.097   9.031
 2060POPC   C1A29643   6.296   4.856   8.711
 2060POPC   D2A29644   6.586   5.107   8.481
 2060POPC   C3A29645   6.565   5.117   8.051
 2060POPC   C4A29646   6.553   4.934   7.672
 2060POPC   C1B29647   6.792   4.748   8.817
 2060POPC   C2B29648   6.898   4.670   8.372
 2060POPC   C3B29649   6.993   4.808   7.946
 2060POPC   C4B29650   7.034   5.068   7.555
 2061POPC   NC329651   2.370   1.209   9.574
 2061POPC   PO429652   2.840   1.462   9.307
 2061POPC   GL129653   2.748   1.091   9.111
 2061POPC   GL229654   2.427   0.965   9.119
 2061POPC   C1A29655   2.726   0.877   8.722
 2061POPC   D2A29656   2.598   0.999   8.332
 2061POPC   C3A29657   2.893   1.265   8.159
 2061POPC   C4A29658   2.938   1.343   7.727
 2061POPC   C1B29659   2.473   1.361   8.782
 2061POPC   C2B29660   2.571   1.739   8.479
 2061POPC   C3B29661   2.586   1.647   8.038
 2061POPC   C4B29662   2.475   1.214   7.870
 2062POPC   NC329663   5.615  32.761   9.983
 2062POPC   PO429664   5.663  33.270   9.488
 2062POPC   GL129665   5.862  33.286   9.116
 2062POPC   GL229666   5.821  32.956   9.102
 2062POPC   C1A29667   5.763  33.265   8.681
 2062POPC   D2A29668   5.861  33.398   8.271
 2062POPC   C3A29669   5.656  33.139   7.965
 2062POPC   C4A29670   5.810  32.964   7.577
 2062POPC   C1B29671   5.938  32.788   8.772
 2062POPC   C2B29672   6.140  32.989   8.428
 2062POPC   C3B29673   6.163  33.032   7.983
 2062POPC   C4B29674   6.305  33.081   7.578
 2063POPC   NC329675  35.358  44.109   9.462
 2063POPC   PO429676  35.965  43.729   9.369
 2063POPC   GL129677  35.590  43.819   9.116
 2063POPC   GL229678  35.665  44.176   9.075
 2063POPC   C1A29679  35.251  43.869   8.789
 2063POPC   D2A29680  35.221  43.651   8.403
 2063POPC   C3A29681  35.146  43.837   8.014
 2063POPC   C4A29682  35.295  43.616   7.680
 2063POPC   C1B29683  35.744  44.013   8.674
 2063POPC   C2B29684  35.611  43.936   8.283
 2063POPC   C3B29685  35.620  44.075   7.889
 2063POPC   C4B29686  35.350  44.109   7.563
 2064POPC   NC329687  38.589  37.276   9.425
 2064POPC   PO429688  38.832  37.890   9.483
 2064POPC   GL129689  38.612  37.714   9.065
 2064POPC   GL229690  38.362  37.394   9.004
 2064POPC   C1A29691  38.350  37.750   8.644
 2064POPC   D2A29692  38.349  37.846   8.191
 2064POPC   C3A29693  38.638  37.571   8.000
 2064POPC   C4A29694  38.901  37.493   7.663
 2064POPC   C1B29695  37.973  37.409   8.789
 2064POPC   C2B29696  37.917  37.525   8.389
 2064POPC   C3B29697  37.915  37.249   8.043
 2064POPC   C4B29698  38.158  37.485   7.803
 2065POPC   NC329699   2.816  40.471   9.464
 2065POPC   PO429700   3.005  41.131   9.320
 2065POPC   GL129701   2.684  40.838   9.128
 2065POPC   GL229702   2.662  40.500   8.982
 2065POPC   C1A29703   2.466  40.936   8.782
 2065POPC   D2A29704   2.522  40.717   8.431
 2065POPC   C3A29705   2.643  40.975   8.126
 2065POPC   C4A29706   2.442  40.977   7.741
 2065POPC   C1B29707   2.981  40.557   8.664
 2065POPC   C2B29708   2.941  40.504   8.220
 2065POPC   C3B29709   2.852  40.628   7.819
 2065POPC   C4B29710   2.574  40.494   7.512
 2066POPC   NC329711  18.918   1.173   9.603
 2066POPC   PO429712  19.547   0.915   9.447
 2066POPC   GL129713  19.278   1.167   9.164
 2066POPC   GL229714  18.897   1.129   9.108
 2066POPC   C1A29715  19.251   1.350   8.756
 2066POPC   D2A29716  19.508   1.380   8.384
 2066POPC   C3A29717  19.230   1.309   8.020
 2066POPC   C4A29718  19.280   1.129   7.604
 2066POPC   C1B29719  18.703   1.379   8.805
 2066POPC   C2B29720  18.808   1.313   8.387
 2066POPC   C3B29721  18.714   1.494   8.008
 2066POPC   C4B29722  18.802   1.293   7.664
 2067POPC   NC329723  24.015  42.635   9.861
 2067POPC   PO429724  24.564  42.437   9.504
 2067POPC   GL129725  24.560  42.502   9.094
 2067POPC   GL229726  24.743  42.822   9.132
 2067POPC   C1A29727  24.481  42.248   8.716
 2067POPC   D2A29728  24.448  42.010   8.315
 2067POPC   C3A29729  24.417  42.233   7.915
 2067POPC   C4A29730  24.477  42.472   7.495
 2067POPC   C1B29731  24.650  42.799   8.697
 2067POPC   C2B29732  24.848  42.651   8.332
 2067POPC   C3B29733  24.752  42.647   7.885
 2067POPC   C4B29734  24.869  42.960   7.556
 2068POPC   NC329735   3.706  38.016   9.565
 2068POPC   PO429736   3.423  37.491   9.843
 2068POPC   GL129737   3.609  37.560   9.361
 2068POPC   GL229738   3.426  37.778   9.146
 2068POPC   C1A29739   3.711  37.502   8.852
 2068POPC   D2A29740   3.616  37.554   8.423
 2068POPC   C3A29741   3.854  37.443   8.067
 2068POPC   C4A29742   3.795  37.598   7.648
 2068POPC   C1B29743   3.314  37.850   8.716
 2068POPC   C2B29744   3.347  37.948   8.249
 2068POPC   C3B29745   3.494  38.007   7.817
 2068POPC   C4B29746   3.475  38.038   7.359
 2069POPC   NC329747  31.173  34.807   9.530
 2069POPC   PO429748  31.576  34.331   9.316
 2069POPC   GL129749  31.567  34.718   9.078
 2069POPC   GL229750  31.286  34.930   9.063
 2069POPC   C1A29751  31.552  34.646   8.670
 2069POPC   D2A29752  31.279  34.371   8.459
 2069POPC   C3A29753  31.411  34.343   8.082
 2069POPC   C4A29754  31.236  34.273   7.716
 2069POPC   C1B29755  31.121  34.902   8.663
 2069POPC   C2B29756  31.294  34.854   8.272
 2069POPC   C3B29757  31.253  34.787   7.875
 2069POPC   C4B29758  31.075  34.693   7.509
 2070POPC   NC329759  15.841  14.651   9.729
 2070POPC   PO429760  16.222  14.162   9.490
 2070POPC   GL129761  16.118  14.451   9.167
 2070POPC   GL229762  15.808  14.646   9.227
 2070POPC   C1A29763  16.244  14.328   8.734
 2070POPC   D2A29764  15.947  14.099   8.464
 2070POPC   C3A29765  15.942  14.198   8.034
 2070POPC   C4A29766  15.777  14.375   7.655
 2070POPC   C1B29767  15.771  14.512   8.803
 2070POPC   C2B29768  15.970  14.613   8.419
 2070POPC   C3B29769  15.793  14.686   8.047
 2070POPC   C4B29770  16.009  14.830   7.697
 2071POPC   NC329771  35.129  29.231   9.517
 2071POPC   PO429772  35.543  28.790   9.600
 2071POPC   GL129773  35.452  28.950   9.172
 2071POPC   GL229774  35.258  29.194   9.048
 2071POPC   C1A29775  35.363  28.855   8.702
 2071POPC   D2A29776  35.176  28.844   8.304
 2071POPC   C3A29777  35.312  28.967   7.881
 2071POPC   C4A29778  35.378  29.102   7.460
 2071POPC   C1B29779  35.470  29.368   8.721
 2071POPC   C2B29780  35.614  29.179   8.372
 2071POPC   C3B29781  35.622  29.355   7.976
 2071POPC   C4B29782  35.719  29.461   7.568
 2072POPC   NC329783  22.401  19.584  10.027
 2072POPC   PO429784  21.894  19.582   9.579
 2072POPC   GL129785  22.021  19.740   9.162
 2072POPC   GL229786  21.681  19.777   9.002
 2072POPC   C1A29787  22.351  19.593   8.862
 2072POPC   D2A29788  22.518  19.646   8.435
 2072POPC   C3A29789  22.391  19.641   7.989
 2072POPC   C4A29790  22.296  19.914   7.609
 2072POPC   C1B29791  21.971  19.930   8.675
 2072POPC   C2B29792  22.089  19.961   8.257
 2072POPC   C3B29793  21.896  19.803   7.905
 2072POPC   C4B29794  21.779  19.924   7.519
 2073POPC   NC329795  30.030  27.172   9.613
 2073POPC   PO429796  29.523  26.691   9.498
 2073POPC   GL129797  29.769  26.682   9.137
 2073POPC   GL229798  30.029  26.447   9.131
 2073POPC   C1A29799  30.010  26.875   8.801
 2073POPC   D2A29800  30.371  26.967   8.501
 2073POPC   C3A29801  30.244  26.971   8.060
 2073POPC   C4A29802  29.823  26.956   7.856
 2073POPC   C1B29803  30.200  26.405   8.735
 2073POPC   C2B29804  30.038  26.590   8.366
 2073POPC   C3B29805  30.006  26.503   7.953
 2073POPC   C4B29806  30.074  26.378   7.549
 2074POPC   NC329807   0.114  14.376   9.477
 2074POPC   PO429808   0.720  14.072   9.527
 2074POPC   GL129809   0.580  14.375   9.215
 2074POPC   GL229810   0.830  14.610   9.089
 2074POPC   C1A29811   0.364  14.584   8.850
 2074POPC   D2A29812   0.527  14.617   8.439
 2074POPC   C3A29813   0.315  14.770   8.096
 2074POPC   C4A29814   0.106  14.600   7.749
 2074POPC   C1B29815   0.836  14.275   8.728
 2074POPC   C2B29816   0.855  14.060   8.280
 2074POPC   C3B29817   0.828  14.151   7.802
 2074POPC   C4B29818   0.479  14.305   7.519
 2075POPC   NC329819  20.819  28.838   9.374
 2075POPC   PO429820  20.746  29.479   9.481
 2075POPC   GL129821  20.552  29.304   9.110
 2075POPC   GL229822  20.455  28.941   9.033
 2075POPC   C1A29823  20.536  29.482   8.701
 2075POPC   D2A29824  20.803  29.496   8.354
 2075POPC   C3A29825  20.564  29.421   7.989
 2075POPC   C4A29826  20.590  29.168   7.626
 2075POPC   C1B29827  20.772  29.016   8.695
 2075POPC   C2B29828  20.774  28.823   8.260
 2075POPC   C3B29829  20.899  28.804   7.807
 2075POPC   C4B29830  20.828  28.780   7.346
 2076POPC   NC329831  23.517   0.900   9.545
 2076POPC   PO429832  24.073   1.285   9.404
 2076POPC   GL129833  23.785   1.131   9.133
 2076POPC   GL229834  23.455   1.217   9.112
 2076POPC   C1A29835  23.735   1.232   8.696
 2076POPC   D2A29836  23.658   1.435   8.315
 2076POPC   C3A29837  23.760   1.176   8.002
 2076POPC   C4A29838  23.584   1.273   7.625
 2076POPC   C1B29839  23.400   0.846   8.792
 2076POPC   C2B29840  23.418   0.697   8.341
 2076POPC   C3B29841  23.362   0.849   7.894
 2076POPC   C4B29842  23.274   0.805   7.420
 2077POPC   NC329843  42.270  12.608   9.587
 2077POPC   PO429844  42.473  12.023   9.572
 2077POPC   GL129845  42.299  12.283   9.184
 2077POPC   GL229846  41.955  12.415   9.205
 2077POPC   C1A29847  42.156  12.167   8.748
 2077POPC   D2A29848  42.362  12.229   8.344
 2077POPC   C3A29849  42.295  12.158   7.898
 2077POPC   C4A29850  42.609  12.314   7.584
 2077POPC   C1B29851  41.857  12.569   8.793
 2077POPC   C2B29852  41.817  12.389   8.357
 2077POPC   C3B29853  41.912  12.553   7.917
 2077POPC   C4B29854  41.739  12.462   7.483
 2078POPC   NC329855  11.013  41.347   9.535
 2078POPC   PO429856  11.645  41.595   9.468
 2078POPC   GL129857  11.350  41.522   9.140
 2078POPC   GL229858  11.178  41.785   9.310
 2078POPC   C1A29859  11.157  41.440   8.705
 2078POPC   D2A29860  11.315  41.471   8.281
 2078POPC   C3A29861  11.140  41.310   7.918
 2078POPC   C4A29862  11.255  41.289   7.495
 2078POPC   C1B29863  11.108  41.898   8.901
 2078POPC   C2B29864  11.358  41.917   8.555
 2078POPC   C3B29865  11.346  41.951   8.117
 2078POPC   C4B29866  11.327  41.762   7.713
 2079POPC   NC329867  23.655   7.099  10.115
 2079POPC   PO429868  23.733   7.087   9.493
 2079POPC   GL129869  23.625   7.326   9.108
 2079POPC   GL229870  23.365   7.605   9.087
 2079POPC   C1A29871  23.530   7.277   8.653
 2079POPC   D2A29872  23.288   7.345   8.288
 2079POPC   C3A29873  23.427   7.418   7.876
 2079POPC   C4A29874  23.401   7.115   7.610
 2079POPC   C1B29875  23.432   7.790   8.652
 2079POPC   C2B29876  23.567   7.796   8.189
 2079POPC   C3B29877  23.815   7.734   7.761
 2079POPC   C4B29878  23.975   7.882   7.335
 2080POPC   NC329879  32.385  27.874   9.571
 2080POPC   PO429880  32.018  27.350   9.437
 2080POPC   GL129881  32.256  27.605   9.143
 2080POPC   GL229882  32.545  27.881   9.067
 2080POPC   C1A29883  32.117  27.781   8.781
 2080POPC   D2A29884  32.067  27.546   8.442
 2080POPC   C3A29885  31.944  27.720   8.072
 2080POPC   C4A29886  32.000  27.550   7.646
 2080POPC   C1B29887  32.563  27.533   8.734
 2080POPC   C2B29888  32.581  27.573   8.285
 2080POPC   C3B29889  32.427  27.791   7.950
 2080POPC   C4B29890  32.506  27.932   7.543
 2081POPC   NC329891  33.586   0.493   9.572
 2081POPC   PO429892  33.549  44.825   9.683
 2081POPC   GL129893  33.823   0.056   9.310
 2081POPC   GL229894  33.592   0.247   9.121
 2081POPC   C1A29895  33.998   0.162   8.830
 2081POPC   D2A29896  33.909   0.338   8.386
 2081POPC   C3A29897  34.052   0.429   7.940
 2081POPC   C4A29898  33.841   0.536   7.519
 2081POPC   C1B29899  33.495   0.374   8.694
 2081POPC   C2B29900  33.444   0.128   8.292
 2081POPC   C3B29901  33.569   0.234   7.864
 2081POPC   C4B29902  33.348   0.359   7.473
 2082POPC   NC329903  24.401  18.090   9.716
 2082POPC   PO429904  24.035  18.459   9.325
 2082POPC   GL129905  24.374  18.363   9.028
 2082POPC   GL229906  24.560  18.050   9.191
 2082POPC   C1A29907  24.272  18.335   8.575
 2082POPC   D2A29908  24.541  18.297   8.217
 2082POPC   C3A29909  24.532  18.626   7.902
 2082POPC   C4A29910  24.705  18.621   7.464
 2082POPC   C1B29911  24.543  17.943   8.768
 2082POPC   C2B29912  24.359  17.849   8.367
 2082POPC   C3B29913  24.491  17.832   7.960
 2082POPC   C4B29914  24.671  18.174   7.733
 2083POPC   NC329915  39.719  10.691   9.313
 2083POPC   PO429916  39.090  10.626   9.525
 2083POPC   GL129917  39.266  10.525   9.137
 2083POPC   GL229918  39.128  10.222   9.018
 2083POPC   C1A29919  39.310  10.548   8.683
 2083POPC   D2A29920  39.048  10.282   8.396
 2083POPC   C3A29921  39.029  10.430   7.968
 2083POPC   C4A29922  39.237  10.706   7.649
 2083POPC   C1B29923  39.413  10.053   8.696
 2083POPC   C2B29924  39.493  10.071   8.211
 2083POPC   C3B29925  39.472  10.240   7.771
 2083POPC   C4B29926  39.621  10.196   7.341
 2084POPC   NC329927  12.746  14.594   9.473
 2084POPC   PO429928  13.176  14.038   9.577
 2084POPC   GL129929  13.076  14.304   9.198
 2084POPC   GL229930  13.066  14.647   9.063
 2084POPC   C1A29931  13.142  14.240   8.741
 2084POPC   D2A29932  12.945  14.374   8.354
 2084POPC   C3A29933  13.079  14.470   7.969
 2084POPC   C4A29934  13.002  14.078   7.717
 2084POPC   C1B29935  12.732  14.563   8.775
 2084POPC   C2B29936  12.493  14.588   8.381
 2084POPC   C3B29937  12.569  14.396   7.974
 2084POPC   C4B29938  12.720  14.764   7.808
 2085POPC   NC329939  14.090  16.543   9.563
 2085POPC   PO429940  14.533  17.037   9.801
 2085POPC   GL129941  14.419  16.897   9.319
 2085POPC   GL229942  14.660  16.894   9.095
 2085POPC   C1A29943  14.242  16.698   8.874
 2085POPC   D2A29944  14.144  16.826   8.413
 2085POPC   C3A29945  14.091  16.606   8.056
 2085POPC   C4A29946  14.285  16.597   7.691
 2085POPC   C1B29947  14.735  16.532   8.860
 2085POPC   C2B29948  14.605  16.579   8.435
 2085POPC   C3B29949  14.649  16.732   8.019
 2085POPC   C4B29950  14.796  16.456   7.700
 2086POPC   NC329951  26.119  39.546   9.319
 2086POPC   PO429952  26.333  38.944   9.641
 2086POPC   GL129953  26.345  39.112   9.220
 2086POPC   GL229954  25.984  39.004   9.223
 2086POPC   C1A29955  26.279  39.277   8.764
 2086POPC   D2A29956  26.447  39.333   8.352
 2086POPC   C3A29957  26.240  39.562   8.004
 2086POPC   C4A29958  25.891  39.424   7.761
 2086POPC   C1B29959  26.151  38.787   8.860
 2086POPC   C2B29960  26.308  38.793   8.443
 2086POPC   C3B29961  26.194  38.751   8.014
 2086POPC   C4B29962  26.128  38.990   7.650
 2087POPC   NC329963  11.471   3.634  10.104
 2087POPC   PO429964  11.436   3.606   9.608
 2087POPC   GL129965  11.285   3.568   9.135
 2087POPC   GL229966  10.931   3.459   9.152
 2087POPC   C1A29967  11.341   3.594   8.637
 2087POPC   D2A29968  11.418   3.465   8.174
 2087POPC   C3A29969  11.384   3.789   7.834
 2087POPC   C4A29970  11.358   3.937   7.381
 2087POPC   C1B29971  10.956   3.266   8.746
 2087POPC   C2B29972  10.930   3.385   8.308
 2087POPC   C3B29973  10.987   3.455   7.851
 2087POPC   C4B29974  10.813   3.488   7.420
 2088POPC   NC329975  32.415  12.437   9.445
 2088POPC   PO429976  31.935  11.915   9.311
 2088POPC   GL129977  32.294  12.042   9.119
 2088POPC   GL229978  32.136  12.360   9.018
 2088POPC   C1A29979  32.377  11.971   8.683
 2088POPC   D2A29980  32.255  11.687   8.321
 2088POPC   C3A29981  32.432  11.817   7.920
 2088POPC   C4A29982  32.159  12.112   7.696
 2088POPC   C1B29983  32.509  12.490   8.786
 2088POPC   C2B29984  32.687  12.449   8.389
 2088POPC   C3B29985  32.485  12.309   8.039
 2088POPC   C4B29986  32.637  12.203   7.609
 2089POPC   NC329987  44.052  19.477   9.456
 2089POPC   PO429988  43.527  19.057   9.462
 2089POPC   GL129989  43.848  19.113   9.135
 2089POPC   GL229990  44.074  18.849   9.102
 2089POPC   C1A29991  43.943  19.202   8.686
 2089POPC   D2A29992  44.116  19.276   8.250
 2089POPC   C3A29993  43.812  19.326   7.866
 2089POPC   C4A29994  43.506  19.068   7.614
 2089POPC   C1B29995  44.075  18.638   8.752
 2089POPC   C2B29996  44.158  18.729   8.344
 2089POPC   C3B29997  43.923  18.847   8.010
 2089POPC   C4B29998  43.974  18.920   7.550
 2090POPC   NC329999  24.723  17.413   9.593
 2090POPC   PO430000  24.137  17.732   9.569
 2090POPC   GL130001  24.213  17.517   9.182
 2090POPC   GL230002  24.540  17.525   9.143
 2090POPC   C1A30003  24.277  17.494   8.720
 2090POPC   D2A30004  24.573  17.379   8.346
 2090POPC   C3A30005  24.311  17.335   7.997
 2090POPC   C4A30006  24.283  17.478   7.590
 2090POPC   C1B30007  24.794  17.503   8.783
 2090POPC   C2B30008  24.895  17.787   8.428
 2090POPC   C3B30009  24.990  17.665   8.002
 2090POPC   C4B30010  24.780  17.287   7.833
 2091POPC   NC330011  27.828  17.164   9.412
 2091POPC   PO430012  27.488  16.562   9.540
 2091POPC   GL130013  27.595  16.476   9.130
 2091POPC   GL230014  27.812  16.756   9.080
 2091POPC   C1A30015  27.407  16.636   8.774
 2091POPC   D2A30016  27.563  16.889   8.471
 2091POPC   C3A30017  27.562  16.640   8.139
 2091POPC   C4A30018  27.420  16.763   7.789
 2091POPC   C1B30019  28.027  16.861   8.711
 2091POPC   C2B30020  28.049  16.841   8.289
 2091POPC   C3B30021  27.886  16.996   7.921
 2091POPC   C4B30022  28.036  16.951   7.508
 2092POPC   NC330023   2.304  16.722   9.533
 2092POPC   PO430024   1.575  16.853   9.419
 2092POPC   GL130025   1.871  16.720   9.108
 2092POPC   GL230026   2.144  16.973   9.113
 2092POPC   C1A30027   1.927  16.467   8.719
 2092POPC   D2A30028   2.174  16.474   8.318
 2092POPC   C3A30029   2.063  16.719   7.987
 2092POPC   C4A30030   1.688  16.599   7.776
 2092POPC   C1B30031   2.366  17.199   8.782
 2092POPC   C2B30032   2.267  17.065   8.382
 2092POPC   C3B30033   2.444  17.051   8.002
 2092POPC   C4B30034   2.210  17.087   7.621
 2093POPC   NC330035  18.453  26.373   9.428
 2093POPC   PO430036  18.079  26.962   9.477
 2093POPC   GL130037  18.171  26.731   9.141
 2093POPC   GL230038  18.531  26.745   9.073
 2093POPC   C1A30039  18.184  26.946   8.734
 2093POPC   D2A30040  18.384  26.980   8.326
 2093POPC   C3A30041  18.169  26.848   7.967
 2093POPC   C4A30042  17.945  27.044   7.626
 2093POPC   C1B30043  18.583  26.601   8.628
 2093POPC   C2B30044  18.553  26.523   8.160
 2093POPC   C3B30045  18.464  26.513   7.716
 2093POPC   C4B30046  18.677  26.628   7.306
 2094POPC   NC330047  17.028  28.674   9.469
 2094POPC   PO430048  17.102  28.023   9.167
 2094POPC   GL130049  16.716  28.252   9.040
 2094POPC   GL230050  16.742  28.648   9.006
 2094POPC   C1A30051  16.510  28.319   8.665
 2094POPC   D2A30052  16.789  28.553   8.467
 2094POPC   C3A30053  16.837  28.501   8.063
 2094POPC   C4A30054  16.894  28.281   7.744
 2094POPC   C1B30055  16.384  28.802   8.727
 2094POPC   C2B30056  16.115  28.622   8.413
 2094POPC   C3B30057  16.315  28.472   8.052
 2094POPC   C4B30058  16.452  28.680   7.705
 2095POPC   NC330059   5.084  10.007   9.600
 2095POPC   PO430060   5.285   9.371   9.633
 2095POPC   GL130061   5.260   9.603   9.296
 2095POPC   GL230062   4.924   9.648   9.234
 2095POPC   C1A30063   5.310   9.670   8.881
 2095POPC   D2A30064   5.236   9.985   8.583
 2095POPC   C3A30065   5.294   9.848   8.171
 2095POPC   C4A30066   5.336   9.851   7.732
 2095POPC   C1B30067   4.791   9.836   8.827
 2095POPC   C2B30068   4.720   9.921   8.358
 2095POPC   C3B30069   4.862   9.935   7.915
 2095POPC   C4B30070   4.934   9.984   7.439
 2096POPC   NC330071  40.634  11.878   9.847
 2096POPC   PO430072  40.281  12.272   9.545
 2096POPC   GL130073  40.604  12.303   9.201
 2096POPC   GL230074  40.608  11.958   9.174
 2096POPC   C1A30075  40.848  12.240   8.800
 2096POPC   D2A30076  40.740  12.393   8.395
 2096POPC   C3A30077  40.971  12.254   8.033
 2096POPC   C4A30078  41.033  12.139   7.574
 2096POPC   C1B30079  40.494  11.881   8.734
 2096POPC   C2B30080  40.723  11.877   8.317
 2096POPC   C3B30081  40.815  11.773   7.866
 2096POPC   C4B30082  40.594  11.833   7.467
 2097POPC   NC330083  16.177  32.392   9.478
 2097POPC   PO430084  15.675  32.031   9.543
 2097POPC   GL130085  15.738  32.304   9.210
 2097POPC   GL230086  15.961  32.086   9.049
 2097POPC   C1A30087  15.714  32.465   8.811
 2097POPC   D2A30088  15.729  32.232   8.394
 2097POPC   C3A30089  15.726  32.484   7.986
 2097POPC   C4A30090  15.805  32.476   7.517
 2097POPC   C1B30091  16.175  32.326   8.713
 2097POPC   C2B30092  16.270  32.355   8.282
 2097POPC   C3B30093  16.191  32.323   7.839
 2097POPC   C4B30094  16.150  32.101   7.452
 2098POPC   NC330095  34.482  13.956   9.350
 2098POPC   PO430096  34.912  14.356   9.752
 2098POPC   GL130097  34.662  14.420   9.244
 2098POPC   GL230098  34.619  14.187   8.930
 2098POPC   C1A30099  34.674  14.661   8.806
 2098POPC   D2A30100  34.581  14.405   8.415
 2098POPC   C3A30101  34.662  14.515   8.001
 2098POPC   C4A30102  34.636  14.798   7.651
 2098POPC   C1B30103  34.230  14.452   8.799
 2098POPC   C2B30104  34.081  14.536   8.396
 2098POPC   C3B30105  34.160  14.310   8.034
 2098POPC   C4B30106  34.327  14.373   7.640
 2099POPC   NC330107  12.337  10.789   9.827
 2099POPC   PO430108  12.483  11.386   9.597
 2099POPC   GL130109  12.451  11.414   9.166
 2099POPC   GL230110  12.133  11.224   9.039
 2099POPC   C1A30111  12.458  11.561   8.777
 2099POPC   D2A30112  12.154  11.355   8.532
 2099POPC   C3A30113  12.196  11.222   8.116
 2099POPC   C4A30114  12.275  11.243   7.677
 2099POPC   C1B30115  12.035  10.884   8.716
 2099POPC   C2B30116  11.851  10.808   8.301
 2099POPC   C3B30117  11.821  10.960   7.882
 2099POPC   C4B30118  11.937  10.969   7.433
 2100POPC   NC330119  19.337  18.806   9.671
 2100POPC   PO430120  18.955  19.202   9.359
 2100POPC   GL130121  19.069  18.950   9.084
 2100POPC   GL230122  19.370  18.929   9.191
 2100POPC   C1A30123  18.957  18.939   8.661
 2100POPC   D2A30124  18.993  19.212   8.336
 2100POPC   C3A30125  18.980  18.947   7.988
 2100POPC   C4A30126  18.949  18.898   7.578
 2100POPC   C1B30127  19.524  19.115   8.842
 2100POPC   C2B30128  19.497  19.029   8.412
 2100POPC   C3B30129  19.403  19.207   8.022
 2100POPC   C4B30130  19.441  19.125   7.596
 2101POPC   NC330131  11.196  38.830   9.532
 2101POPC   PO430132  11.664  38.357   9.731
 2101POPC   GL130133  11.467  38.453   9.272
 2101POPC   GL230134  11.085  38.489   9.162
 2101POPC   C1A30135  11.435  38.446   8.785
 2101POPC   D2A30136  11.120  38.488   8.434
 2101POPC   C3A30137  11.272  38.450   8.007
 2101POPC   C4A30138  11.328  38.374   7.573
 2101POPC   C1B30139  11.083  38.830   8.838
 2101POPC   C2B30140  11.326  38.948   8.463
 2101POPC   C3B30141  11.262  38.968   8.047
 2101POPC   C4B30142  11.231  38.877   7.646
 2102POPC   NC330143  35.573  13.070   9.513
 2102POPC   PO430144  35.113  12.693   9.455
 2102POPC   GL130145  35.353  12.696   9.134
 2102POPC   GL230146  35.243  13.017   9.077
 2102POPC   C1A30147  35.251  12.644   8.722
 2102POPC   D2A30148  35.317  12.782   8.323
 2102POPC   C3A30149  35.106  12.610   7.987
 2102POPC   C4A30150  34.943  12.895   7.752
 2102POPC   C1B30151  35.254  13.167   8.672
 2102POPC   C2B30152  35.234  13.308   8.240
 2102POPC   C3B30153  35.428  13.051   7.905
 2102POPC   C4B30154  35.780  12.978   7.640
 2103POPC   NC330155  39.626  25.264   9.488
 2103POPC   PO430156  38.935  25.149   9.430
 2103POPC   GL130157  39.277  25.114   9.148
 2103POPC   GL230158  39.308  25.462   9.141
 2103POPC   C1A30159  39.271  24.936   8.756
 2103POPC   D2A30160  38.983  24.911   8.416
 2103POPC   C3A30161  38.973  25.244   8.148
 2103POPC   C4A30162  38.974  25.153   7.737
 2103POPC   C1B30163  39.564  25.377   8.782
 2103POPC   C2B30164  39.669  25.282   8.343
 2103POPC   C3B30165  39.448  25.328   7.933
 2103POPC   C4B30166  39.126  25.645   7.803
 2104POPC   NC330167  33.692  25.877   9.645
 2104POPC   PO430168  34.228  26.244   9.431
 2104POPC   GL130169  33.917  26.115   9.123
 2104POPC   GL230170  33.798  25.785   9.153
 2104POPC   C1A30171  33.911  26.091   8.647
 2104POPC   D2A30172  33.754  25.889   8.246
 2104POPC   C3A30173  33.867  26.114   7.851
 2104POPC   C4A30174  34.110  26.451   7.745
 2104POPC   C1B30175  33.690  25.634   8.748
 2104POPC   C2B30176  33.320  25.675   8.454
 2104POPC   C3B30177  33.360  25.574   8.026
 2104POPC   C4B30178  33.740  25.631   7.780
 2105POPC   NC330179  41.686  22.999   9.634
 2105POPC   PO430180  41.898  23.523   9.388
 2105POPC   GL130181  41.532  23.286   9.214
 2105POPC   GL230182  41.560  22.938   9.153
 2105POPC   C1A30183  41.483  23.305   8.762
 2105POPC   D2A30184  41.726  23.129   8.406
 2105POPC   C3A30185  41.485  23.025   8.057
 2105POPC   C4A30186  41.410  23.182   7.634
 2105POPC   C1B30187  41.615  22.773   8.779
 2105POPC   C2B30188  41.817  22.603   8.416
 2105POPC   C3B30189  41.895  22.524   7.984
 2105POPC   C4B30190  41.614  22.701   7.694
 2106POPC   NC330191  34.562  23.985   9.745
 2106POPC   PO430192  34.023  23.627   9.583
 2106POPC   GL130193  34.316  23.677   9.210
 2106POPC   GL230194  34.693  23.650   9.183
 2106POPC   C1A30195  34.387  23.822   8.789
 2106POPC   D2A30196  34.545  23.603   8.422
 2106POPC   C3A30197  34.525  23.857   8.073
 2106POPC   C4A30198  34.533  23.761   7.657
 2106POPC   C1B30199  34.922  23.625   8.764
 2106POPC   C2B30200  35.037  23.399   8.392
 2106POPC   C3B30201  34.837  23.428   7.972
 2106POPC   C4B30202  34.852  23.407   7.507
 2107POPC   NC330203  31.887  15.979   9.591
 2107POPC   PO430204  31.311  15.771   9.514
 2107POPC   GL130205  31.514  16.043   9.221
 2107POPC   GL230206  31.700  15.739   9.171
 2107POPC   C1A30207  31.331  16.249   8.834
 2107POPC   D2A30208  31.529  16.299   8.425
 2107POPC   C3A30209  31.388  16.185   8.049
 2107POPC   C4A30210  31.388  15.977   7.661
 2107POPC   C1B30211  31.391  15.747   8.822
 2107POPC   C2B30212  31.513  15.785   8.396
 2107POPC   C3B30213  31.292  15.675   8.046
 2107POPC   C4B30214  31.208  15.497   7.663
 2108POPC   NC330215  30.998  24.999   9.596
 2108POPC   PO430216  30.639  25.612   9.454
 2108POPC   GL130217  30.840  25.346   9.224
 2108POPC   GL230218  31.051  25.597   9.156
 2108POPC   C1A30219  30.784  25.352   8.774
 2108POPC   D2A30220  30.579  25.518   8.404
 2108POPC   C3A30221  30.663  25.195   8.092
 2108POPC   C4A30222  30.627  25.178   7.653
 2108POPC   C1B30223  31.216  25.629   8.787
 2108POPC   C2B30224  31.028  25.750   8.416
 2108POPC   C3B30225  30.999  25.568   7.991
 2108POPC   C4B30226  30.745  25.669   7.633
 2109POPC   NC330227  16.908  25.208   9.586
 2109POPC   PO430228  16.557  25.735   9.561
 2109POPC   GL130229  16.721  25.575   9.142
 2109POPC   GL230230  16.967  25.344   9.121
 2109POPC   C1A30231  16.835  25.524   8.668
 2109POPC   D2A30232  16.710  25.140   8.458
 2109POPC   C3A30233  16.625  25.082   8.022
 2109POPC   C4A30234  16.397  25.353   7.720
 2109POPC   C1B30235  17.104  25.092   8.829
 2109POPC   C2B30236  17.221  25.159   8.425
 2109POPC   C3B30237  17.091  25.329   8.050
 2109POPC   C4B30238  16.916  25.250   7.639
 2110POPC   NC330239  40.990  26.496   9.532
 2110POPC   PO430240  40.617  27.081   9.480
 2110POPC   GL130241  40.711  26.856   9.124
 2110POPC   GL230242  40.575  26.521   9.170
 2110POPC   C1A30243  40.700  26.916   8.690
 2110POPC   D2A30244  40.970  26.772   8.365
 2110POPC   C3A30245  40.800  27.018   8.058
 2110POPC   C4A30246  40.914  27.168   7.673
 2110POPC   C1B30247  40.645  26.408   8.731
 2110POPC   C2B30248  40.537  26.524   8.313
 2110POPC   C3B30249  40.711  26.532   7.915
 2110POPC   C4B30250  40.531  26.288   7.634
 2111POPC   NC330251   4.611  38.086   9.568
 2111POPC   PO430252   4.680  38.720   9.907
 2111POPC   GL130253   4.480  38.548   9.408
 2111POPC   GL230254   4.203  38.730   9.237
 2111POPC   C1A30255   4.442  38.346   8.961
 2111POPC   D2A30256   4.558  38.399   8.493
 2111POPC   C3A30257   4.439  38.222   8.085
 2111POPC   C4A30258   4.695  38.077   7.732
 2111POPC   C1B30259   4.106  38.989   8.871
 2111POPC   C2B30260   4.221  38.825   8.448
 2111POPC   C3B30261   4.182  38.691   8.006
 2111POPC   C4B30262   4.075  38.335   7.719
 2112POPC   NC330263  37.881   1.088   9.537
 2112POPC   PO430264  37.582   1.652   9.496
 2112POPC   GL130265  37.549   1.304   9.209
 2112POPC   GL230266  37.858   1.205   9.050
 2112POPC   C1A30267  37.387   1.098   8.872
 2112POPC   D2A30268  37.662   1.120   8.545
 2112POPC   C3A30269  37.562   1.147   8.116
 2112POPC   C4A30270  37.323   1.040   7.723
 2112POPC   C1B30271  38.041   1.434   8.734
 2112POPC   C2B30272  38.084   1.321   8.319
 2112POPC   C3B30273  37.959   1.429   7.935
 2112POPC   C4B30274  37.836   1.093   7.684
 2113POPC   NC330275  30.010  33.320   9.612
 2113POPC   PO430276  29.585  32.862   9.307
 2113POPC   GL130277  29.808  32.688   9.026
 2113POPC   GL230278  30.096  32.822   9.182
 2113POPC   C1A30279  29.902  32.843   8.660
 2113POPC   D2A30280  29.966  33.260   8.536
 2113POPC   C3A30281  30.042  33.194   8.115
 2113POPC   C4A30282  29.874  32.929   7.786
 2113POPC   C1B30283  30.263  32.538   8.863
 2113POPC   C2B30284  30.211  32.527   8.420
 2113POPC   C3B30285  30.316  32.749   8.043
 2113POPC   C4B30286  30.315  32.744   7.598
 2114POPC   NC330287  44.854  42.134   9.529
 2114POPC   PO430288  44.843  42.762   9.591
 2114POPC   GL130289  44.805  42.518   9.133
 2114POPC   GL230290  44.783  42.132   9.036
 2114POPC   C1A30291  44.632  42.436   8.688
 2114POPC   D2A30292  44.853  42.344   8.294
 2114POPC   C3A30293  44.722  42.442   7.898
 2114POPC   C4A30294  44.548  42.817   7.720
 2114POPC   C1B30295  44.455  41.948   8.760
 2114POPC   C2B30296  44.267  41.861   8.377
 2114POPC   C3B30297  44.393  42.067   8.051
 2114POPC   C4B30298  44.475  42.082   7.642
 2115POPC   NC330299  10.793  24.084   9.489
 2115POPC   PO430300  10.625  23.485   9.742
 2115POPC   GL130301  10.643  23.598   9.286
 2115POPC   GL230302  10.343  23.461   9.130
 2115POPC   C1A30303  10.636  23.800   8.839
 2115POPC   D2A30304  10.795  23.637   8.415
 2115POPC   C3A30305  10.572  23.808   8.076
 2115POPC   C4A30306  10.647  23.873   7.625
 2115POPC   C1B30307  10.172  23.617   8.698
 2115POPC   C2B30308  10.103  23.817   8.271
 2115POPC   C3B30309  10.130  23.738   7.809
 2115POPC   C4B30310  10.186  23.861   7.376
 2116POPC   NC330311   7.621   1.211   9.649
 2116POPC   PO430312   7.103   0.882   9.602
 2116POPC   GL130313   7.288   1.112   9.200
 2116POPC   GL230314   7.588   1.330   9.155
 2116POPC   C1A30315   7.258   1.023   8.729
 2116POPC   D2A30316   7.122   0.839   8.325
 2116POPC   C3A30317   7.203   1.080   7.955
 2116POPC   C4A30318   7.464   1.063   7.581
 2116POPC   C1B30319   7.691   1.285   8.738
 2116POPC   C2B30320   7.501   1.309   8.340
 2116POPC   C3B30321   7.673   1.362   7.930
 2116POPC   C4B30322   7.635   1.538   7.495
 2117POPC   NC330323  20.070   4.773   9.256
 2117POPC   PO430324  19.542   5.037   9.429
 2117POPC   GL130325  19.593   4.734   9.086
 2117POPC   GL230326  19.603   5.024   8.910
 2117POPC   C1A30327  19.732   4.628   8.638
 2117POPC   D2A30328  19.755   4.850   8.227
 2117POPC   C3A30329  19.993   4.765   7.852
 2117POPC   C4A30330  19.904   4.889   7.390
 2117POPC   C1B30331  19.910   5.176   8.640
 2117POPC   C2B30332  19.982   5.306   8.232
 2117POPC   C3B30333  19.805   5.240   7.847
 2117POPC   C4B30334  19.580   5.295   7.460
 2118POPC   NC330335   8.570  37.833   9.218
 2118POPC   PO430336   8.736  37.438   9.739
 2118POPC   GL130337   8.997  37.581   9.288
 2118POPC   GL230338   9.089  37.945   9.222
 2118POPC   C1A30339   9.075  37.641   8.802
 2118POPC   D2A30340   8.899  37.838   8.400
 2118POPC   C3A30341   8.772  37.603   8.011
 2118POPC   C4A30342   8.690  37.441   7.574
 2118POPC   C1B30343   9.331  38.120   8.847
 2118POPC   C2B30344   9.343  38.091   8.357
 2118POPC   C3B30345   9.210  37.924   7.938
 2118POPC   C4B30346   9.303  38.091   7.504
 2119POPC   NC330347  38.340  34.805   9.625
 2119POPC   PO430348  38.709  34.289   9.759
 2119POPC   GL130349  38.688  34.661   9.304
 2119POPC   GL230350  38.353  34.729   9.138
 2119POPC   C1A30351  38.696  34.649   8.784
 2119POPC   D2A30352  38.756  34.430   8.360
 2119POPC   C3A30353  38.665  34.509   7.928
 2119POPC   C4A30354  38.712  34.228   7.504
 2119POPC   C1B30355  38.268  34.939   8.775
 2119POPC   C2B30356  38.342  34.786   8.344
 2119POPC   C3B30357  38.156  34.630   7.974
 2119POPC   C4B30358  37.842  34.794   7.649
 2120POPC   NC330359  22.646  14.137   9.372
 2120POPC   PO430360  22.978  14.714   9.397
 2120POPC   GL130361  23.016  14.398   9.076
 2120POPC   GL230362  23.063  14.028   9.111
 2120POPC   C1A30363  23.062  14.445   8.649
 2120POPC   D2A30364  22.834  14.390   8.299
 2120POPC   C3A30365  23.005  14.579   7.953
 2120POPC   C4A30366  23.062  14.524   7.532
 2120POPC   C1B30367  22.901  13.967   8.690
 2120POPC   C2B30368  23.095  13.962   8.251
 2120POPC   C3B30369  23.001  14.078   7.784
 2120POPC   C4B30370  23.053  14.099   7.271
 2121POPC   NC330371  20.907  22.012   9.547
 2121POPC   PO430372  20.306  21.953   9.847
 2121POPC   GL130373  20.393  22.231   9.385
 2121POPC   GL230374  20.738  22.439   9.297
 2121POPC   C1A30375  20.517  22.212   8.901
 2121POPC   D2A30376  20.356  22.101   8.464
 2121POPC   C3A30377  20.563  22.150   8.064
 2121POPC   C4A30378  20.340  22.126   7.721
 2121POPC   C1B30379  20.842  22.599   8.851
 2121POPC   C2B30380  20.799  22.786   8.423
 2121POPC   C3B30381  20.914  22.613   8.031
 2121POPC   C4B30382  20.810  22.397   7.652
 2122POPC   NC330383  33.195  30.985   9.490
 2122POPC   PO430384  32.752  30.451   9.426
 2122POPC   GL130385  32.865  30.770   9.129
 2122POPC   GL230386  33.202  30.654   9.112
 2122POPC   C1A30387  32.962  30.839   8.688
 2122POPC   D2A30388  32.900  31.076   8.288
 2122POPC   C3A30389  32.966  30.863   7.897
 2122POPC   C4A30390  32.672  30.533   7.820
 2122POPC   C1B30391  33.411  30.536   8.742
 2122POPC   C2B30392  33.292  30.659   8.329
 2122POPC   C3B30393  33.390  30.548   7.947
 2122POPC   C4B30394  33.129  30.322   7.741
 2123POPC   NC330395  38.169  36.595   9.478
 2123POPC   PO430396  38.822  36.899   9.614
 2123POPC   GL130397  38.623  36.728   9.244
 2123POPC   GL230398  38.964  36.607   9.177
 2123POPC   C1A30399  38.301  36.690   8.850
 2123POPC   D2A30400  38.111  36.987   8.499
 2123POPC   C3A30401  38.402  37.140   8.162
 2123POPC   C4A30402  38.591  37.092   7.734
 2123POPC   C1B30403  38.805  36.686   8.769
 2123POPC   C2B30404  38.539  36.666   8.393
 2123POPC   C3B30405  38.750  36.713   8.038
 2123POPC   C4B30406  38.885  36.586   7.670
 2124POPC   NC330407  33.090  11.726   9.556
 2124POPC   PO430408  33.419  11.243   9.697
 2124POPC   GL130409  33.278  11.343   9.264
 2124POPC   GL230410  33.010  11.100   9.223
 2124POPC   C1A30411  33.223  11.422   8.813
 2124POPC   D2A30412  33.101  11.603   8.438
 2124POPC   C3A30413  33.289  11.576   8.063
 2124POPC   C4A30414  33.137  11.609   7.620
 2124POPC   C1B30415  32.843  11.050   8.798
 2124POPC   C2B30416  33.025  11.030   8.390
 2124POPC   C3B30417  32.948  11.230   7.963
 2124POPC   C4B30418  33.042  11.085   7.567
 2125POPC   NC330419  15.138  43.846   9.929
 2125POPC   PO430420  15.470  44.251   9.569
 2125POPC   GL130421  15.482  44.126   9.104
 2125POPC   GL230422  15.400  43.767   9.018
 2125POPC   C1A30423  15.334  44.130   8.662
 2125POPC   D2A30424  15.209  43.911   8.298
 2125POPC   C3A30425  15.214  44.130   7.926
 2125POPC   C4A30426  15.340  43.961   7.588
 2125POPC   C1B30427  15.070  43.629   8.714
 2125POPC   C2B30428  14.838  43.551   8.308
 2125POPC   C3B30429  14.950  43.652   7.859
 2125POPC   C4B30430  14.860  43.559   7.432
 2126POPC   NC330431  11.045  15.349   9.583
 2126POPC   PO430432  11.451  14.869   9.534
 2126POPC   GL130433  11.403  15.118   9.185
 2126POPC   GL230434  11.040  15.052   9.139
 2126POPC   C1A30435  11.394  15.009   8.749
 2126POPC   D2A30436  11.122  15.102   8.403
 2126POPC   C3A30437  11.186  14.922   8.014
 2126POPC   C4A30438  11.377  15.149   7.728
 2126POPC   C1B30439  10.976  15.394   8.830
 2126POPC   C2B30440  10.799  15.479   8.400
 2126POPC   C3B30441  10.948  15.422   7.966
 2126POPC   C4B30442  11.202  15.641   7.668
 2127POPC   NC330443  44.229  33.913   9.630
 2127POPC   PO430444  43.614  33.835   9.469
 2127POPC   GL130445  43.889  33.840   9.146
 2127POPC   GL230446  44.034  34.185   9.248
 2127POPC   C1A30447  43.788  33.567   8.797
 2127POPC   D2A30448  43.889  33.457   8.377
 2127POPC   C3A30449  43.860  33.586   7.935
 2127POPC   C4A30450  44.117  33.788   7.611
 2127POPC   C1B30451  43.879  34.281   8.859
 2127POPC   C2B30452  43.960  34.008   8.529
 2127POPC   C3B30453  43.982  34.046   8.105
 2127POPC   C4B30454  43.980  34.284   7.728
 2128POPC   NC330455  14.771  28.180   9.386
 2128POPC   PO430456  15.386  28.210   9.493
 2128POPC   GL130457  15.324  28.355   9.128
 2128POPC   GL230458  15.441  28.702   9.153
 2128POPC   C1A30459  15.101  28.193   8.787
 2128POPC   D2A30460  15.249  28.039   8.422
 2128POPC   C3A30461  15.063  28.126   8.043
 2128POPC   C4A30462  15.369  28.349   7.823
 2128POPC   C1B30463  15.067  28.728   8.872
 2128POPC   C2B30464  14.895  28.549   8.485
 2128POPC   C3B30465  15.060  28.636   8.098
 2128POPC   C4B30466  14.990  28.682   7.687
 2129POPC   NC330467  37.523  39.692   9.678
 2129POPC   PO430468  37.800  40.234   9.387
 2129POPC   GL130469  37.700  40.183   8.968
 2129POPC   GL230470  37.428  39.964   9.039
 2129POPC   C1A30471  37.760  40.220   8.493
 2129POPC   D2A30472  37.706  39.941   8.131
 2129POPC   C3A30473  37.896  40.105   7.750
 2129POPC   C4A30474  37.885  40.156   7.320
 2129POPC   C1B30475  37.528  39.789   8.622
 2129POPC   C2B30476  37.415  39.463   8.348
 2129POPC   C3B30477  37.511  39.485   7.921
 2129POPC   C4B30478  37.465  39.839   7.654
 2130POPC   NC330479  40.028   0.704   9.703
 2130POPC   PO430480  40.196   0.189   9.332
 2130POPC   GL130481  40.252   0.567   9.131
 2130POPC   GL230482  39.946   0.702   9.205
 2130POPC   C1A30483  40.146   0.800   8.745
 2130POPC   D2A30484  39.806   0.787   8.460
 2130POPC   C3A30485  39.926   0.665   8.071
 2130POPC   C4A30486  40.074   0.489   7.690
 2130POPC   C1B30487  39.815   0.424   8.837
 2130POPC   C2B30488  39.729   0.235   8.423
 2130POPC   C3B30489  39.678   0.221   7.952
 2130POPC   C4B30490  39.544   0.178   7.534
 2131POPC   NC330491  20.853  37.539   9.685
 2131POPC   PO430492  21.541  37.636   9.431
 2131POPC   GL130493  21.534  37.894   9.084
 2131POPC   GL230494  21.806  37.736   8.949
 2131POPC   C1A30495  21.397  37.859   8.647
 2131POPC   D2A30496  21.531  37.529   8.320
 2131POPC   C3A30497  21.313  37.491   7.920
 2131POPC   C4A30498  21.198  37.750   7.560
 2131POPC   C1B30499  21.846  38.127   8.748
 2131POPC   C2B30500  21.637  38.202   8.363
 2131POPC   C3B30501  21.409  37.977   8.061
 2131POPC   C4B30502  21.644  37.916   7.746
 2132POPC   NC330503  23.275   7.111   9.495
 2132POPC   PO430504  22.932   7.684   9.433
 2132POPC   GL130505  22.929   7.351   9.089
 2132POPC   GL230506  23.191   7.096   9.000
 2132POPC   C1A30507  23.008   7.506   8.679
 2132POPC   D2A30508  23.050   7.811   8.307
 2132POPC   C3A30509  22.953   7.619   7.957
 2132POPC   C4A30510  23.058   7.551   7.510
 2132POPC   C1B30511  22.922   6.989   8.675
 2132POPC   C2B30512  22.788   7.205   8.303
 2132POPC   C3B30513  22.993   7.126   7.919
 2132POPC   C4B30514  22.922   7.055   7.502
 2133POPC   NC330515   9.569  14.947   9.384
 2133POPC   PO430516   9.896  15.436   9.724
 2133POPC   GL130517   9.821  15.379   9.258
 2133POPC   GL230518  10.016  15.091   9.134
 2133POPC   C1A30519   9.642  15.295   8.809
 2133POPC   D2A30520   9.371  15.206   8.439
 2133POPC   C3A30521   9.459  15.433   8.059
 2133POPC   C4A30522   9.417  15.301   7.648
 2133POPC   C1B30523  10.040  14.932   8.717
 2133POPC   C2B30524   9.876  14.939   8.297
 2133POPC   C3B30525   9.793  15.035   7.875
 2133POPC   C4B30526   9.610  14.846   7.488
 2134POPC   NC330527  26.410  12.368   9.716
 2134POPC   PO430528  26.892  12.709   9.550
 2134POPC   GL130529  26.878  12.955   9.168
 2134POPC   GL230530  27.051  13.248   9.176
 2134POPC   C1A30531  26.634  12.939   8.801
 2134POPC   D2A30532  26.425  12.787   8.482
 2134POPC   C3A30533  26.699  12.726   8.146
 2134POPC   C4A30534  26.595  13.000   7.815
 2134POPC   C1B30535  26.927  13.342   8.757
 2134POPC   C2B30536  26.798  13.181   8.330
 2134POPC   C3B30537  27.012  13.249   7.906
 2134POPC   C4B30538  27.162  13.126   7.465
 2135POPC   NC330539  11.662  40.652   9.509
 2135POPC   PO430540  10.993  40.865   9.600
 2135POPC   GL130541  11.188  40.761   9.257
 2135POPC   GL230542  11.030  40.510   9.071
 2135POPC   C1A30543  11.144  40.973   8.874
 2135POPC   D2A30544  11.402  41.022   8.511
 2135POPC   C3A30545  11.221  40.852   8.171
 2135POPC   C4A30546  11.329  40.867   7.762
 2135POPC   C1B30547  11.438  40.570   8.844
 2135POPC   C2B30548  11.558  40.530   8.417
 2135POPC   C3B30549  11.527  40.444   7.980
 2135POPC   C4B30550  11.744  40.618   7.634
 2136POPC   NC330551   3.463  37.048   9.678
 2136POPC   PO430552   3.990  37.230   9.358
 2136POPC   GL130553   3.601  37.076   9.149
 2136POPC   GL230554   3.255  37.254   9.173
 2136POPC   C1A30555   3.523  36.743   8.832
 2136POPC   D2A30556   3.394  36.668   8.406
 2136POPC   C3A30557   3.620  36.698   8.008
 2136POPC   C4A30558   3.900  36.988   7.811
 2136POPC   C1B30559   3.326  37.206   8.705
 2136POPC   C2B30560   3.364  37.146   8.229
 2136POPC   C3B30561   3.395  37.155   7.764
 2136POPC   C4B30562   3.153  37.026   7.388
 2137POPC   NC330563  10.022  17.731   9.924
 2137POPC   PO430564   9.840  17.260   9.537
 2137POPC   GL130565   9.991  17.310   9.120
 2137POPC   GL230566   9.728  17.573   9.075
 2137POPC   C1A30567   9.947  17.306   8.697
 2137POPC   D2A30568   9.607  17.349   8.435
 2137POPC   C3A30569   9.675  17.427   8.030
 2137POPC   C4A30570  10.086  17.333   7.866
 2137POPC   C1B30571   9.952  17.816   8.736
 2137POPC   C2B30572  10.077  17.694   8.328
 2137POPC   C3B30573   9.974  17.862   7.955
 2137POPC   C4B30574   9.610  17.884   7.770
 2138POPC   NC330575  16.042   1.503   9.527
 2138POPC   PO430576  16.225   0.907   9.771
 2138POPC   GL130577  16.097   1.024   9.353
 2138POPC   GL230578  16.379   1.130   9.195
 2138POPC   C1A30579  15.944   1.154   8.920
 2138POPC   D2A30580  15.969   1.388   8.524
 2138POPC   C3A30581  15.932   1.150   8.160
 2138POPC   C4A30582  15.953   1.175   7.685
 2138POPC   C1B30583  16.391   1.388   8.811
 2138POPC   C2B30584  16.443   1.217   8.376
 2138POPC   C3B30585  16.324   1.373   7.965
 2138POPC   C4B30586  16.250   1.624   7.615
 2139POPC   NC330587  42.976  29.902   9.525
 2139POPC   PO430588  43.595  29.896   9.537
 2139POPC   GL130589  43.365  29.740   9.148
 2139POPC   GL230590  43.006  29.627   9.110
 2139POPC   C1A30591  43.333  29.859   8.707
 2139POPC   D2A30592  43.138  29.961   8.311
 2139POPC   C3A30593  43.318  29.828   7.962
 2139POPC   C4A30594  43.084  29.828   7.626
 2139POPC   C1B30595  43.159  29.403   8.759
 2139POPC   C2B30596  43.281  29.465   8.331
 2139POPC   C3B30597  42.930  29.544   8.055
 2139POPC   C4B30598  42.747  29.388   7.715
 2140POPC   NC330599  20.253  40.496   9.526
 2140POPC   PO430600  20.867  40.245   9.462
 2140POPC   GL130601  20.577  40.295   9.148
 2140POPC   GL230602  20.521  40.642   9.119
 2140POPC   C1A30603  20.672  40.385   8.728
 2140POPC   D2A30604  20.781  40.728   8.466
 2140POPC   C3A30605  20.647  40.654   8.057
 2140POPC   C4A30606  20.592  40.518   7.656
 2140POPC   C1B30607  20.385  40.906   8.811
 2140POPC   C2B30608  20.398  41.148   8.459
 2140POPC   C3B30609  20.563  41.192   8.087
 2140POPC   C4B30610  20.542  41.015   7.701
 2141POPC   NC330611   0.824   6.331   9.570
 2141POPC   PO430612   1.117   6.908   9.344
 2141POPC   GL130613   1.145   6.481   9.113
 2141POPC   GL230614   0.795   6.354   9.065
 2141POPC   C1A30615   1.424   6.518   8.704
 2141POPC   D2A30616   1.581   6.701   8.275
 2141POPC   C3A30617   1.362   6.565   7.881
 2141POPC   C4A30618   0.926   6.354   7.841
 2141POPC   C1B30619   0.890   6.585   8.682
 2141POPC   C2B30620   1.062   6.620   8.290
 2141POPC   C3B30621   0.952   6.859   7.913
 2141POPC   C4B30622   0.650   6.711   7.604
 2142POPC   NC330623  38.757  41.724   9.747
 2142POPC   PO430624  39.332  41.367   9.504
 2142POPC   GL130625  39.206  41.549   9.135
 2142POPC   GL230626  39.094  41.813   9.242
 2142POPC   C1A30627  39.270  41.504   8.695
 2142POPC   D2A30628  39.564  41.309   8.383
 2142POPC   C3A30629  39.500  41.488   7.980
 2142POPC   C4A30630  39.069  41.411   7.946
 2142POPC   C1B30631  39.010  42.014   8.861
 2142POPC   C2B30632  39.004  41.897   8.444
 2142POPC   C3B30633  38.860  41.992   8.036
 2142POPC   C4B30634  39.085  41.848   7.686
 2143POPC   NC330635  19.451  32.963   9.614
 2143POPC   PO430636  18.972  33.332   9.619
 2143POPC   GL130637  19.041  33.079   9.255
 2143POPC   GL230638  19.365  33.118   9.146
 2143POPC   C1A30639  18.965  32.962   8.814
 2143POPC   D2A30640  18.732  33.108   8.440
 2143POPC   C3A30641  18.923  33.040   8.017
 2143POPC   C4A30642  19.246  32.903   7.744
 2143POPC   C1B30643  19.330  33.356   8.788
 2143POPC   C2B30644  19.276  33.147   8.426
 2143POPC   C3B30645  19.374  33.373   8.108
 2143POPC   C4B30646  19.287  33.421   7.718
 2144POPC   NC330647  22.475  43.344   9.364
 2144POPC   PO430648  22.057  42.964   9.742
 2144POPC   GL130649  22.086  43.003   9.267
 2144POPC   GL230650  22.380  42.950   9.052
 2144POPC   C1A30651  21.973  43.156   8.832
 2144POPC   D2A30652  22.037  43.345   8.411
 2144POPC   C3A30653  22.277  43.105   8.085
 2144POPC   C4A30654  22.131  43.041   7.660
 2144POPC   C1B30655  22.464  43.080   8.634
 2144POPC   C2B30656  22.538  43.466   8.415
 2144POPC   C3B30657  22.655  43.466   8.015
 2144POPC   C4B30658  22.495  43.395   7.599
 2145POPC   NC330659  39.350   7.841   9.548
 2145POPC   PO430660  39.017   8.535   9.813
 2145POPC   GL130661  39.059   8.328   9.339
 2145POPC   GL230662  39.120   7.994   9.121
 2145POPC   C1A30663  39.070   8.437   8.869
 2145POPC   D2A30664  38.964   8.316   8.439
 2145POPC   C3A30665  39.152   8.198   8.048
 2145POPC   C4A30666  39.172   8.381   7.640
 2145POPC   C1B30667  39.423   8.087   8.792
 2145POPC   C2B30668  39.466   8.422   8.462
 2145POPC   C3B30669  39.553   8.500   8.006
 2145POPC   C4B30670  39.601   8.096   7.776
 2146POPC   NC330671   2.125  37.631   9.676
 2146POPC   PO430672   1.538  37.742   9.512
 2146POPC   GL130673   1.929  37.736   9.224
 2146POPC   GL230674   2.309  37.836   9.231
 2146POPC   C1A30675   2.100  37.480   8.895
 2146POPC   D2A30676   2.033  37.380   8.468
 2146POPC   C3A30677   1.891  37.745   8.215
 2146POPC   C4A30678   1.791  37.714   7.807
 2146POPC   C1B30679   2.191  37.976   8.823
 2146POPC   C2B30680   2.354  37.844   8.435
 2146POPC   C3B30681   2.406  37.840   8.000
 2146POPC   C4B30682   2.182  38.072   7.692
 2147POPC   NC330683  28.012   5.742   9.676
 2147POPC   PO430684  28.486   6.184   9.543
 2147POPC   GL130685  28.464   5.820   9.241
 2147POPC   GL230686  28.110   5.800   9.180
 2147POPC   C1A30687  28.525   5.752   8.772
 2147POPC   D2A30688  28.730   5.689   8.335
 2147POPC   C3A30689  28.513   5.810   7.930
 2147POPC   C4A30690  28.450   6.000   7.499
 2147POPC   C1B30691  28.011   5.578   8.824
 2147POPC   C2B30692  28.187   5.544   8.430
 2147POPC   C3B30693  28.047   5.601   8.010
 2147POPC   C4B30694  28.234   5.523   7.599
 2148POPC   NC330695  18.696  39.990   9.478
 2148POPC   PO430696  19.313  40.142   9.529
 2148POPC   GL130697  19.182  39.983   9.160
 2148POPC   GL230698  18.986  40.310   9.132
 2148POPC   C1A30699  19.154  39.857   8.725
 2148POPC   D2A30700  18.960  40.030   8.320
 2148POPC   C3A30701  19.107  39.933   7.882
 2148POPC   C4A30702  18.786  39.848   7.539
 2148POPC   C1B30703  19.179  40.358   8.745
 2148POPC   C2B30704  19.389  40.287   8.386
 2148POPC   C3B30705  19.260  40.415   8.018
 2148POPC   C4B30706  19.497  40.306   7.688
 2149POPC   NC330707  34.123  16.362   9.452
 2149POPC   PO430708  34.783  16.732   9.450
 2149POPC   GL130709  34.604  16.777   9.030
 2149POPC   GL230710  34.271  16.756   9.093
 2149POPC   C1A30711  34.424  16.927   8.629
 2149POPC   D2A30712  34.411  16.926   8.181
 2149POPC   C3A30713  34.467  16.743   7.771
 2149POPC   C4A30714  34.848  16.589   7.533
 2149POPC   C1B30715  34.111  16.534   8.801
 2149POPC   C2B30716  34.010  16.673   8.416
 2149POPC   C3B30717  34.208  16.447   8.108
 2149POPC   C4B30718  34.121  16.346   7.720
 2150POPC   NC330719  12.280  18.104   9.625
 2150POPC   PO430720  11.905  18.593   9.705
 2150POPC   GL130721  11.951  18.368   9.313
 2150POPC   GL230722  12.277  18.490   9.236
 2150POPC   C1A30723  11.856  18.196   8.902
 2150POPC   D2A30724  12.028  18.085   8.492
 2150POPC   C3A30725  12.000  18.354   8.128
 2150POPC   C4A30726  11.908  18.299   7.699
 2150POPC   C1B30727  12.366  18.282   8.832
 2150POPC   C2B30728  12.438  18.412   8.412
 2150POPC   C3B30729  12.495  18.319   7.976
 2150POPC   C4B30730  12.366  18.601   7.635
 2151POPC   NC330731  44.786  44.810   9.584
 2151POPC   PO430732  44.278  44.447   9.569
 2151POPC   GL130733  44.604  44.514   9.182
 2151POPC   GL230734  44.566  44.874   9.139
 2151POPC   C1A30735  44.750  44.662   8.724
 2151POPC   D2A30736  44.901  44.834   8.289
 2151POPC   C3A30737  44.684  44.686   7.916
 2151POPC   C4A30738  44.525  44.286   7.858
 2151POPC   C1B30739  44.296  44.958   8.749
 2151POPC   C2B30740  44.370  44.694   8.346
 2151POPC   C3B30741  44.132  44.576   7.983
 2151POPC   C4B30742  44.263  44.711   7.561
 2152POPC   NC330743   4.903  39.041   9.630
 2152POPC   PO430744   5.391  39.524   9.532
 2152POPC   GL130745   5.058  39.330   9.245
 2152POPC   GL230746   5.201  39.015   9.158
 2152POPC   C1A30747   4.917  39.232   8.815
 2152POPC   D2A30748   5.150  39.239   8.457
 2152POPC   C3A30749   4.955  39.225   8.077
 2152POPC   C4A30750   5.096  39.096   7.724
 2152POPC   C1B30751   5.395  39.402   8.883
 2152POPC   C2B30752   5.589  39.510   8.491
 2152POPC   C3B30753   5.385  39.552   8.118
 2152POPC   C4B30754   5.288  39.584   7.696
 2153POPC   NC330755   4.080  29.208   9.511
 2153POPC   PO430756   4.669  28.733   9.452
 2153POPC   GL130757   4.393  28.941   9.187
 2153POPC   GL230758   4.499  29.290   9.163
 2153POPC   C1A30759   4.258  29.059   8.771
 2153POPC   D2A30760   4.462  29.140   8.380
 2153POPC   C3A30761   4.305  28.802   8.138
 2153POPC   C4A30762   4.343  28.715   7.714
 2153POPC   C1B30763   4.622  29.528   8.777
 2153POPC   C2B30764   4.779  29.601   8.342
 2153POPC   C3B30765   4.703  29.403   7.951
 2153POPC   C4B30766   4.293  29.229   7.863
 2154POPC   NC330767   3.030  19.243   9.426
 2154POPC   PO430768   2.385  18.969   9.492
 2154POPC   GL130769   2.603  19.171   9.150
 2154POPC   GL230770   2.742  18.864   9.108
 2154POPC   C1A30771   2.920  19.213   8.777
 2154POPC   D2A30772   2.780  19.249   8.367
 2154POPC   C3A30773   3.028  19.300   8.026
 2154POPC   C4A30774   2.860  19.251   7.601
 2154POPC   C1B30775   2.507  18.889   8.719
 2154POPC   C2B30776   2.644  18.748   8.352
 2154POPC   C3B30777   2.788  18.845   7.956
 2154POPC   C4B30778   2.499  18.789   7.636
 2155POPC   NC330779   3.805  19.097   9.548
 2155POPC   PO430780   3.174  18.778   9.466
 2155POPC   GL130781   3.439  19.039   9.168
 2155POPC   GL230782   3.805  19.213   9.076
 2155POPC   C1A30783   3.442  19.112   8.755
 2155POPC   D2A30784   3.389  19.278   8.407
 2155POPC   C3A30785   3.509  19.032   8.069
 2155POPC   C4A30786   3.256  18.961   7.730
 2155POPC   C1B30787   4.048  19.372   8.729
 2155POPC   C2B30788   3.907  19.476   8.321
 2155POPC   C3B30789   3.950  19.281   7.939
 2155POPC   C4B30790   3.719  19.110   7.583
 2156POPC   NC330791  15.010   4.065   9.576
 2156POPC   PO430792  15.217   3.492   9.733
 2156POPC   GL130793  15.211   3.685   9.282
 2156POPC   GL230794  14.905   3.829   9.123
 2156POPC   C1A30795  15.264   3.622   8.809
 2156POPC   D2A30796  15.203   3.562   8.329
 2156POPC   C3A30797  15.329   3.394   7.894
 2156POPC   C4A30798  15.173   3.534   7.498
 2156POPC   C1B30799  14.958   4.032   8.699
 2156POPC   C2B30800  14.803   3.928   8.249
 2156POPC   C3B30801  14.737   3.638   7.853
 2156POPC   C4B30802  14.767   3.233   7.601
 2157POPC   NC330803  44.045  22.013   9.485
 2157POPC   PO430804  43.450  22.159   9.422
 2157POPC   GL130805  43.752  22.098   9.052
 2157POPC   GL230806  44.111  22.240   9.026
 2157POPC   C1A30807  43.853  22.148   8.580
 2157POPC   D2A30808  44.181  22.319   8.310
 2157POPC   C3A30809  44.037  22.138   7.951
 2157POPC   C4A30810  43.599  22.094   7.919
 2157POPC   C1B30811  44.126  21.809   8.831
 2157POPC   C2B30812  44.316  21.835   8.433
 2157POPC   C3B30813  44.264  21.701   8.018
 2157POPC   C4B30814  44.086  21.762   7.602
 2158POPC   NC330815  10.230  12.129   9.649
 2158POPC   PO430816  10.876  11.952   9.766
 2158POPC   GL130817  10.618  12.232   9.310
 2158POPC   GL230818  10.313  12.064   9.133
 2158POPC   C1A30819  10.674  12.128   8.785
 2158POPC   D2A30820  10.916  12.182   8.403
 2158POPC   C3A30821  10.642  12.110   8.027
 2158POPC   C4A30822  10.798  12.122   7.588
 2158POPC   C1B30823  10.241  12.364   8.740
 2158POPC   C2B30824  10.511  12.524   8.416
 2158POPC   C3B30825  10.454  12.641   7.999
 2158POPC   C4B30826  10.367  12.360   7.667
 2159POPC   NC330827  34.096  24.082   9.454
 2159POPC   PO430828  33.483  23.872   9.577
 2159POPC   GL130829  33.781  23.762   9.177
 2159POPC   GL230830  33.886  23.411   9.074
 2159POPC   C1A30831  33.776  23.831   8.757
 2159POPC   D2A30832  33.572  23.595   8.455
 2159POPC   C3A30833  33.545  23.684   8.021
 2159POPC   C4A30834  33.422  23.413   7.705
 2159POPC   C1B30835  34.104  23.446   8.690
 2159POPC   C2B30836  34.061  23.744   8.336
 2159POPC   C3B30837  34.096  23.609   7.929
 2159POPC   C4B30838  33.920  23.427   7.593
 2160POPC   NC330839  19.129  40.620   9.630
 2160POPC   PO430840  18.524  40.938   9.743
 2160POPC   GL130841  18.815  40.911   9.306
 2160POPC   GL230842  19.186  40.914   9.207
 2160POPC   C1A30843  18.860  40.755   8.844
 2160POPC   D2A30844  18.628  40.854   8.439
 2160POPC   C3A30845  18.738  40.786   8.010
 2160POPC   C4A30846  18.860  41.155   7.783
 2160POPC   C1B30847  19.384  40.820   8.814
 2160POPC   C2B30848  19.212  40.782   8.429
 2160POPC   C3B30849  19.217  40.929   8.059
 2160POPC   C4B30850  19.227  40.818   7.638
 2161POPC   NC330851  16.964  18.493   9.692
 2161POPC   PO430852  16.738  17.910   9.816
 2161POPC   GL130853  16.815  17.958   9.352
 2161POPC   GL230854  16.797  18.299   9.212
 2161POPC   C1A30855  16.767  17.878   8.869
 2161POPC   D2A30856  16.945  17.958   8.425
 2161POPC   C3A30857  16.758  18.008   7.976
 2161POPC   C4A30858  16.698  18.189   7.535
 2161POPC   C1B30859  16.680  18.371   8.745
 2161POPC   C2B30860  16.812  18.447   8.300
 2161POPC   C3B30861  16.580  18.529   7.907
 2161POPC   C4B30862  16.245  18.420   7.600
 2162POPC   NC330863  19.610  40.320   9.241
 2162POPC   PO430864  19.567  40.919   9.551
 2162POPC   GL130865  19.746  40.940   9.143
 2162POPC   GL230866  20.012  40.739   9.156
 2162POPC   C1A30867  19.883  40.907   8.690
 2162POPC   D2A30868  19.789  40.586   8.413
 2162POPC   C3A30869  19.674  40.718   8.004
 2162POPC   C4A30870  19.620  41.144   7.861
 2162POPC   C1B30871  20.149  40.437   8.817
 2162POPC   C2B30872  20.296  40.500   8.398
 2162POPC   C3B30873  20.167  40.828   8.125
 2162POPC   C4B30874  20.058  40.942   7.717
 2163POPC   NC330875  32.605  35.988   9.358
 2163POPC   PO430876  32.124  36.428   9.396
 2163POPC   GL130877  32.274  36.263   9.071
 2163POPC   GL230878  32.618  36.421   9.031
 2163POPC   C1A30879  32.059  36.073   8.741
 2163POPC   D2A30880  32.158  35.819   8.384
 2163POPC   C3A30881  31.930  35.948   8.016
 2163POPC   C4A30882  31.899  36.086   7.607
 2163POPC   C1B30883  32.588  36.099   8.680
 2163POPC   C2B30884  32.562  36.093   8.226
 2163POPC   C3B30885  32.434  35.848   7.882
 2163POPC   C4B30886  32.395  36.039   7.460
 2164POPC   NC330887  23.403  42.812   9.547
 2164POPC   PO430888  23.840  42.270   9.645
 2164POPC   GL130889  23.743  42.225   9.242
 2164POPC   GL230890  23.739  42.589   9.171
 2164POPC   C1A30891  23.790  42.136   8.812
 2164POPC   D2A30892  23.923  42.300   8.429
 2164POPC   C3A30893  23.828  42.172   8.011
 2164POPC   C4A30894  24.027  42.264   7.587
 2164POPC   C1B30895  23.364  42.408   8.949
 2164POPC   C2B30896  23.407  42.323   8.494
 2164POPC   C3B30897  23.582  42.608   8.183
 2164POPC   C4B30898  23.703  42.606   7.756
 2165POPC   NC330899  31.921  14.244   9.372
 2165POPC   PO430900  32.529  14.644   9.605
 2165POPC   GL130901  32.305  14.516   9.213
 2165POPC   GL230902  32.345  14.202   9.024
 2165POPC   C1A30903  32.141  14.613   8.788
 2165POPC   D2A30904  32.122  14.806   8.367
 2165POPC   C3A30905  32.204  14.623   7.996
 2165POPC   C4A30906  31.948  14.695   7.653
 2165POPC   C1B30907  32.045  14.112   8.711
 2165POPC   C2B30908  32.050  14.113   8.286
 2165POPC   C3B30909  31.857  14.258   7.938
 2165POPC   C4B30910  32.185  14.218   7.651
 2166POPC   NC330911  12.694  29.485   9.426
 2166POPC   PO430912  13.209  29.032   9.388
 2166POPC   GL130913  12.819  29.072   9.153
 2166POPC   GL230914  12.617  28.762   9.152
 2166POPC   C1A30915  12.754  29.362   8.795
 2166POPC   D2A30916  12.954  29.541   8.419
 2166POPC   C3A30917  13.075  29.250   8.092
 2166POPC   C4A30918  12.958  29.275   7.651
 2166POPC   C1B30919  12.745  28.851   8.709
 2166POPC   C2B30920  12.611  29.141   8.362
 2166POPC   C3B30921  12.616  29.068   7.962
 2166POPC   C4B30922  12.723  28.705   7.798
 2167POPC   NC330923  14.482   4.630   9.387
 2167POPC   PO430924  14.541   5.307   9.574
 2167POPC   GL130925  14.357   5.106   9.195
 2167POPC   GL230926  14.029   4.983   9.043
 2167POPC   C1A30927  14.403   5.251   8.783
 2167POPC   D2A30928  14.655   5.353   8.426
 2167POPC   C3A30929  14.404   5.233   8.107
 2167POPC   C4A30930  14.327   5.333   7.689
 2167POPC   C1B30931  14.049   4.964   8.555
 2167POPC   C2B30932  14.514   4.871   8.457
 2167POPC   C3B30933  14.784   4.861   8.123
 2167POPC   C4B30934  14.608   4.843   7.726
 2168POPC   NC330935   1.847   3.121   9.456
 2168POPC   PO430936   2.412   3.514   9.322
 2168POPC   GL130937   2.007   3.455   9.104
 2168POPC   GL230938   1.811   3.762   8.989
 2168POPC   C1A30939   1.923   3.327   8.737
 2168POPC   D2A30940   2.264   3.371   8.459
 2168POPC   C3A30941   2.164   3.455   8.037
 2168POPC   C4A30942   2.026   3.317   7.642
 2168POPC   C1B30943   2.171   3.854   8.737
 2168POPC   C2B30944   2.250   4.062   8.348
 2168POPC   C3B30945   2.243   3.986   7.919
 2168POPC   C4B30946   1.913   3.808   7.663
 2169POPC   NC330947  34.144  13.032   9.531
 2169POPC   PO430948  33.573  12.623   9.438
 2169POPC   GL130949  33.927  12.741   9.173
 2169POPC   GL230950  33.945  13.075   9.058
 2169POPC   C1A30951  34.030  12.652   8.752
 2169POPC   D2A30952  33.654  12.652   8.419
 2169POPC   C3A30953  33.751  12.736   8.007
 2169POPC   C4A30954  33.579  12.991   7.742
 2169POPC   C1B30955  33.799  13.082   8.660
 2169POPC   C2B30956  34.096  12.936   8.310
 2169POPC   C3B30957  34.090  13.115   7.868
 2169POPC   C4B30958  33.883  13.266   7.463
 2170POPC   NC330959   2.549  17.801   9.608
 2170POPC   PO430960   2.545  17.120   9.413
 2170POPC   GL130961   2.757  17.354   9.110
 2170POPC   GL230962   2.847  17.679   9.181
 2170POPC   C1A30963   2.934  17.424   8.728
 2170POPC   D2A30964   2.745  17.283   8.365
 2170POPC   C3A30965   2.932  17.349   7.974
 2170POPC   C4A30966   2.718  17.187   7.609
 2170POPC   C1B30967   2.621  17.834   8.843
 2170POPC   C2B30968   2.616  18.017   8.444
 2170POPC   C3B30969   2.605  17.866   8.039
 2170POPC   C4B30970   2.455  17.542   7.825
 2171POPC   NC330971   8.538  16.819   9.436
 2171POPC   PO430972   7.884  16.616   9.551
 2171POPC   GL130973   8.021  16.721   9.095
 2171POPC   GL230974   8.279  16.970   9.026
 2171POPC   C1A30975   8.013  16.548   8.698
 2171POPC   D2A30976   8.276  16.736   8.444
 2171POPC   C3A30977   8.115  16.668   8.052
 2171POPC   C4A30978   8.317  16.681   7.679
 2171POPC   C1B30979   8.247  17.233   8.661
 2171POPC   C2B30980   8.182  17.175   8.195
 2171POPC   C3B30981   8.442  17.155   7.827
 2171POPC   C4B30982   8.512  17.037   7.361
 2172POPC   NC330983  37.757  30.386   9.554
 2172POPC   PO430984  37.279  30.925   9.471
 2172POPC   GL130985  37.522  30.726   9.130
 2172POPC   GL230986  37.906  30.712   9.184
 2172POPC   C1A30987  37.379  30.867   8.695
 2172POPC   D2A30988  37.267  30.884   8.246
 2172POPC   C3A30989  37.565  30.662   7.979
 2172POPC   C4A30990  37.518  30.522   7.535
 2172POPC   C1B30991  37.885  30.949   8.809
 2172POPC   C2B30992  37.765  30.965   8.370
 2172POPC   C3B30993  37.956  31.014   7.978
 2172POPC   C4B30994  37.982  30.673   7.670
 2173POPC   NC330995  32.695  20.823   9.633
 2173POPC   PO430996  32.111  20.433   9.587
 2173POPC   GL130997  32.332  20.467   9.185
 2173POPC   GL230998  32.513  20.772   9.142
 2173POPC   C1A30999  32.426  20.397   8.735
 2173POPC   D2A31000  32.234  20.331   8.329
 2173POPC   C3A31001  32.394  20.284   7.929
 2173POPC   C4A31002  32.424  20.485   7.524
 2173POPC   C1B31003  32.178  20.826   8.823
 2173POPC   C2B31004  32.226  20.837   8.391
 2173POPC   C3B31005  32.148  20.745   7.969
 2173POPC   C4B31006  32.340  21.013   7.711
 2174POPC   NC331007  28.830  23.782   9.447
 2174POPC   PO431008  28.183  23.806   9.482
 2174POPC   GL131009  28.442  23.642   9.150
 2174POPC   GL231010  28.233  23.494   8.924
 2174POPC   C1A31011  28.662  23.741   8.737
 2174POPC   D2A31012  28.606  23.965   8.312
 2174POPC   C3A31013  28.648  23.711   7.919
 2174POPC   C4A31014  28.403  23.325   7.752
 2174POPC   C1B31015  28.128  23.940   8.802
 2174POPC   C2B31016  27.826  24.092   8.487
 2174POPC   C3B31017  27.858  24.053   8.020
 2174POPC   C4B31018  28.290  24.078   7.846
 2175POPC   NC331019  15.849  18.853   9.757
 2175POPC   PO431020  15.687  19.261   9.624
 2175POPC   GL131021  15.867  19.166   9.192
 2175POPC   GL231022  15.857  18.808   9.155
 2175POPC   C1A31023  16.098  19.124   8.756
 2175POPC   D2A31024  16.286  18.847   8.383
 2175POPC   C3A31025  16.138  18.862   7.914
 2175POPC   C4A31026  15.969  19.195   7.619
 2175POPC   C1B31027  15.680  18.844   8.713
 2175POPC   C2B31028  15.785  19.005   8.288
 2175POPC   C3B31029  15.615  18.915   7.857
 2175POPC   C4B31030  15.509  19.080   7.415
 2176POPC   NC331031  39.059   0.395   9.425
 2176POPC   PO431032  39.556   0.699   9.728
 2176POPC   GL131033  39.459   0.563   9.191
 2176POPC   GL231034  39.431   0.220   9.093
 2176POPC   C1A31035  39.322   0.479   8.672
 2176POPC   D2A31036  39.402   0.567   8.202
 2176POPC   C3A31037  39.159   0.427   7.800
 2176POPC   C4A31038  38.918   0.509   7.389
 2176POPC   C1B31039  39.064   0.087   8.851
 2176POPC   C2B31040  39.069   0.039   8.426
 2176POPC   C3B31041  38.825   0.200   8.107
 2176POPC   C4B31042  38.652   0.250   7.732
 2177POPC   NC331043  27.298  14.533   9.437
 2177POPC   PO431044  27.918  14.215   9.564
 2177POPC   GL131045  27.655  14.269   9.175
 2177POPC   GL231046  27.335  14.079   9.180
 2177POPC   C1A31047  27.596  14.501   8.752
 2177POPC   D2A31048  27.748  14.285   8.363
 2177POPC   C3A31049  27.775  14.431   7.956
 2177POPC   C4A31050  27.465  14.472   7.646
 2177POPC   C1B31051  27.494  14.005   8.755
 2177POPC   C2B31052  27.318  14.015   8.312
 2177POPC   C3B31053  27.523  13.982   7.907
 2177POPC   C4B31054  27.401  13.984   7.457
 2178POPC   NC331055  36.692   7.476   9.570
 2178POPC   PO431056  37.156   6.876   9.422
 2178POPC   GL131057  37.078   7.233   9.112
 2178POPC   GL231058  36.761   7.399   9.090
 2178POPC   C1A31059  37.070   7.445   8.692
 2178POPC   D2A31060  37.068   7.760   8.404
 2178POPC   C3A31061  36.980   7.617   8.014
 2178POPC   C4A31062  37.191   7.344   7.725
 2178POPC   C1B31063  36.550   7.540   8.736
 2178POPC   C2B31064  36.298   7.531   8.377
 2178POPC   C3B31065  36.452   7.538   7.971
 2178POPC   C4B31066  36.697   7.496   7.611
 2179POPC   NC331067  13.158  28.607   9.546
 2179POPC   PO431068  12.500  28.338   9.512
 2179POPC   GL131069  12.891  28.336   9.231
 2179POPC   GL231070  12.655  28.263   9.007
 2179POPC   C1A31071  13.070  28.473   8.835
 2179POPC   D2A31072  12.779  28.336   8.524
 2179POPC   C3A31073  12.869  28.352   8.128
 2179POPC   C4A31074  12.914  28.239   7.735
 2179POPC   C1B31075  12.408  28.055   8.752
 2179POPC   C2B31076  12.462  27.901   8.340
 2179POPC   C3B31077  12.447  28.119   7.947
 2179POPC   C4B31078  12.567  27.936   7.530
 2180POPC   NC331079  31.085  43.364   9.572
 2180POPC   PO431080  30.553  42.949   9.566
 2180POPC   GL131081  30.816  42.848   9.215
 2180POPC   GL231082  31.005  43.122   9.125
 2180POPC   C1A31083  30.769  42.807   8.760
 2180POPC   D2A31084  30.494  43.009   8.440
 2180POPC   C3A31085  30.735  43.096   8.084
 2180POPC   C4A31086  30.863  43.155   7.654
 2180POPC   C1B31087  30.824  43.311   8.739
 2180POPC   C2B31088  30.731  43.521   8.347
 2180POPC   C3B31089  31.041  43.500   7.979
 2180POPC   C4B31090  31.095  43.542   7.457
 2181POPC   NC331091  13.904  31.820   9.681
 2181POPC   PO431092  13.409  31.507   9.482
 2181POPC   GL131093  13.772  31.509   9.241
 2181POPC   GL231094  13.730  31.865   9.204
 2181POPC   C1A31095  13.959  31.337   8.850
 2181POPC   D2A31096  13.700  31.270   8.502
 2181POPC   C3A31097  13.778  31.378   8.097
 2181POPC   C4A31098  13.590  31.266   7.724
 2181POPC   C1B31099  13.608  31.706   8.783
 2181POPC   C2B31100  13.630  31.805   8.339
 2181POPC   C3B31101  13.456  31.767   7.912
 2181POPC   C4B31102  13.158  31.545   7.636
 2182POPC   NC331103  42.993  39.698   9.368
 2182POPC   PO431104  42.714  40.290   9.481
 2182POPC   GL131105  43.087  40.348   9.182
 2182POPC   GL231106  43.395  40.112   9.185
 2182POPC   C1A31107  43.078  40.136   8.788
 2182POPC   D2A31108  43.113  39.821   8.397
 2182POPC   C3A31109  43.160  40.010   7.942
 2182POPC   C4A31110  43.379  40.148   7.545
 2182POPC   C1B31111  43.457  39.806   8.800
 2182POPC   C2B31112  43.636  39.848   8.423
 2182POPC   C3B31113  43.502  39.685   8.071
 2182POPC   C4B31114  43.623  39.731   7.698
 2183POPC   NC331115  43.379  17.899   9.637
 2183POPC   PO431116  43.312  18.514   9.543
 2183POPC   GL131117  43.363  18.435   9.078
 2183POPC   GL231118  43.004  18.456   8.979
 2183POPC   C1A31119  43.299  18.237   8.634
 2183POPC   D2A31120  43.136  18.400   8.233
 2183POPC   C3A31121  43.244  18.253   7.820
 2183POPC   C4A31122  43.187  18.005   7.460
 2183POPC   C1B31123  42.839  18.695   8.604
 2183POPC   C2B31124  42.680  18.679   8.177
 2183POPC   C3B31125  42.746  18.419   7.834
 2183POPC   C4B31126  42.934  18.456   7.427
 2184POPC   NC331127  11.784  14.760   9.252
 2184POPC   PO431128  12.347  14.488   9.309
 2184POPC   GL131129  12.088  14.457   9.003
 2184POPC   GL231130  12.056  14.137   9.093
 2184POPC   C1A31131  12.025  14.565   8.594
 2184POPC   D2A31132  12.088  14.316   8.225
 2184POPC   C3A31133  12.104  14.545   7.838
 2184POPC   C4A31134  12.098  14.244   7.515
 2184POPC   C1B31135  11.871  14.067   8.692
 2184POPC   C2B31136  11.611  14.146   8.312
 2184POPC   C3B31137  11.735  14.152   7.865
 2184POPC   C4B31138  11.699  13.931   7.474
 2185POPC   NC331139   9.861   9.386   9.567
 2185POPC   PO431140   9.589   8.804   9.547
 2185POPC   GL131141   9.475   8.812   9.125
 2185POPC   GL231142   9.419   8.466   9.115
 2185POPC   C1A31143   9.527   9.049   8.719
 2185POPC   D2A31144   9.391   9.318   8.346
 2185POPC   C3A31145   9.475   9.314   7.876
 2185POPC   C4A31146   9.583   9.264   7.395
 2185POPC   C1B31147   9.631   8.527   8.683
 2185POPC   C2B31148   9.743   8.803   8.286
 2185POPC   C3B31149   9.738   8.889   7.812
 2185POPC   C4B31150   9.489   8.585   7.561
 2186POPC   NC331151   5.400  37.628   9.458
 2186POPC   PO431152   4.756  37.687   9.392
 2186POPC   GL131153   4.744  37.492   8.983
 2186POPC   GL231154   5.057  37.415   9.044
 2186POPC   C1A31155   4.731  37.483   8.531
 2186POPC   D2A31156   4.758  37.879   8.317
 2186POPC   C3A31157   5.090  37.828   8.043
 2186POPC   C4A31158   5.177  37.479   7.798
 2186POPC   C1B31159   5.161  37.705   8.712
 2186POPC   C2B31160   5.503  37.795   8.448
 2186POPC   C3B31161   5.559  38.014   8.075
 2186POPC   C4B31162   5.491  37.848   7.688
 2187POPC   NC331163  10.312  40.994   9.476
 2187POPC   PO431164  10.683  41.686   9.486
 2187POPC   GL131165  10.783  41.518   9.104
 2187POPC   GL231166  10.466  41.408   9.131
 2187POPC   C1A31167  10.713  41.660   8.699
 2187POPC   D2A31168  10.539  41.854   8.394
 2187POPC   C3A31169  10.850  41.691   8.131
 2187POPC   C4A31170  10.831  41.665   7.699
 2187POPC   C1B31171  10.241  41.558   8.770
 2187POPC   C2B31172  10.353  41.406   8.342
 2187POPC   C3B31173  10.336  41.681   7.947
 2187POPC   C4B31174  10.361  41.541   7.509
 2188POPC   NC331175  35.992  39.197   9.492
 2188POPC   PO431176  36.585  38.863   9.481
 2188POPC   GL131177  36.369  39.150   9.139
 2188POPC   GL231178  36.056  39.429   9.066
 2188POPC   C1A31179  36.150  39.061   8.754
 2188POPC   D2A31180  36.011  39.266   8.385
 2188POPC   C3A31181  36.144  39.054   8.022
 2188POPC   C4A31182  35.914  38.996   7.654
 2188POPC   C1B31183  36.274  39.550   8.729
 2188POPC   C2B31184  36.282  39.732   8.357
 2188POPC   C3B31185  36.269  39.560   7.998
 2188POPC   C4B31186  36.288  39.363   7.632
 2189POPC   NC331187  17.723  24.970   9.569
 2189POPC   PO431188  17.303  25.462   9.507
 2189POPC   GL131189  17.471  25.214   9.181
 2189POPC   GL231190  17.772  25.360   9.114
 2189POPC   C1A31191  17.605  25.076   8.751
 2189POPC   D2A31192  17.745  25.235   8.373
 2189POPC   C3A31193  17.559  25.016   8.059
 2189POPC   C4A31194  17.421  25.130   7.708
 2189POPC   C1B31195  17.821  25.591   8.732
 2189POPC   C2B31196  17.846  25.796   8.316
 2189POPC   C3B31197  17.627  25.573   7.979
 2189POPC   C4B31198  17.682  25.531   7.547
 2190POPC   NC331199   5.513  29.603   9.503
 2190POPC   PO431200   6.050  30.035   9.540
 2190POPC   GL131201   5.855  29.954   9.170
 2190POPC   GL231202   5.849  29.607   9.106
 2190POPC   C1A31203   5.973  30.110   8.763
 2190POPC   D2A31204   6.110  30.316   8.392
 2190POPC   C3A31205   6.038  30.160   7.985
 2190POPC   C4A31206   6.258  30.023   7.614
 2190POPC   C1B31207   5.677  29.703   8.684
 2190POPC   C2B31208   5.654  30.030   8.345
 2190POPC   C3B31209   5.670  29.819   7.926
 2190POPC   C4B31210   5.826  29.777   7.498
 2191POPC   NC331211  32.410  10.655   9.590
 2191POPC   PO431212  31.881  10.198   9.472
 2191POPC   GL131213  32.033  10.569   9.217
 2191POPC   GL231214  32.360  10.464   9.126
 2191POPC   C1A31215  32.168  10.811   8.814
 2191POPC   D2A31216  32.408  10.599   8.473
 2191POPC   C3A31217  32.255  10.633   8.030
 2191POPC   C4A31218  32.421  10.436   7.670
 2191POPC   C1B31219  32.024  10.309   8.796
 2191POPC   C2B31220  31.934  10.442   8.385
 2191POPC   C3B31221  31.850  10.315   7.977
 2191POPC   C4B31222  31.898  10.159   7.544
 2192POPC   NC331223  19.800  34.119   9.757
 2192POPC   PO431224  20.184  33.835   9.305
 2192POPC   GL131225  19.959  33.982   9.035
 2192POPC   GL231226  19.675  34.046   9.233
 2192POPC   C1A31227  19.923  34.088   8.628
 2192POPC   D2A31228  19.813  34.143   8.224
 2192POPC   C3A31229  20.116  33.927   7.950
 2192POPC   C4A31230  20.208  33.731   7.545
 2192POPC   C1B31231  19.523  33.829   8.855
 2192POPC   C2B31232  19.398  33.830   8.409
 2192POPC   C3B31233  19.544  33.830   7.951
 2192POPC   C4B31234  19.373  33.940   7.541
 2193POPC   NC331235  26.750  35.872   9.817
 2193POPC   PO431236  26.853  35.316   9.444
 2193POPC   GL131237  26.929  35.324   9.031
 2193POPC   GL231238  27.203  35.520   9.092
 2193POPC   C1A31239  26.550  35.382   8.781
 2193POPC   D2A31240  26.452  35.627   8.459
 2193POPC   C3A31241  26.524  35.434   8.092
 2193POPC   C4A31242  26.705  35.655   7.781
 2193POPC   C1B31243  27.138  35.741   8.772
 2193POPC   C2B31244  26.940  35.533   8.458
 2193POPC   C3B31245  27.035  35.403   8.069
 2193POPC   C4B31246  27.170  35.454   7.684
 2194POPC   NC331247  15.121  10.408   9.406
 2194POPC   PO431248  15.591  10.946   9.434
 2194POPC   GL131249  15.292  10.933   9.066
 2194POPC   GL231250  14.912  10.886   9.079
 2194POPC   C1A31251  15.210  10.587   8.758
 2194POPC   D2A31252  15.427  10.378   8.425
 2194POPC   C3A31253  15.285  10.433   7.993
 2194POPC   C4A31254  15.418  10.435   7.557
 2194POPC   C1B31255  14.703  10.590   8.733
 2194POPC   C2B31256  14.890  10.341   8.372
 2194POPC   C3B31257  14.800  10.286   7.933
 2194POPC   C4B31258  14.923  10.450   7.506
 2195POPC   NC331259  19.595  18.083   9.476
 2195POPC   PO431260  19.015  18.446   9.694
 2195POPC   GL131261  18.963  18.464   9.234
 2195POPC   GL231262  19.256  18.418   9.163
 2195POPC   C1A31263  18.928  18.325   8.791
 2195POPC   D2A31264  18.813  18.139   8.395
 2195POPC   C3A31265  18.827  18.446   8.061
 2195POPC   C4A31266  19.042  18.412   7.686
 2195POPC   C1B31267  19.341  18.640   8.774
 2195POPC   C2B31268  19.241  18.590   8.328
 2195POPC   C3B31269  19.410  18.696   7.901
 2195POPC   C4B31270  19.399  18.663   7.420
 2196POPC   NC331271  17.812  18.260   9.454
 2196POPC   PO431272  18.510  18.372   9.534
 2196POPC   GL131273  18.481  18.321   9.102
 2196POPC   GL231274  18.221  18.085   9.159
 2196POPC   C1A31275  18.431  18.398   8.652
 2196POPC   D2A31276  18.162  18.484   8.302
 2196POPC   C3A31277  18.323  18.321   7.935
 2196POPC   C4A31278  18.635  18.003   7.919
 2196POPC   C1B31279  18.384  17.900   8.773
 2196POPC   C2B31280  18.318  17.908   8.318
 2196POPC   C3B31281  18.113  17.866   7.887
 2196POPC   C4B31282  17.976  17.793   7.465
 2197POPC   NC331283  31.664  12.453   9.513
 2197POPC   PO431284  31.548  11.804   9.711
 2197POPC   GL131285  31.419  12.012   9.272
 2197POPC   GL231286  31.152  12.284   9.140
 2197POPC   C1A31287  31.507  12.120   8.824
 2197POPC   D2A31288  31.421  12.149   8.370
 2197POPC   C3A31289  31.757  12.101   8.054
 2197POPC   C4A31290  31.707  11.901   7.648
 2197POPC   C1B31291  31.003  12.259   8.679
 2197POPC   C2B31292  30.946  11.979   8.280
 2197POPC   C3B31293  31.238  11.948   7.922
 2197POPC   C4B31294  31.430  12.347   7.747
 2198POPC   NC331295  29.343  40.314   9.318
 2198POPC   PO431296  28.956  39.839   9.580
 2198POPC   GL131297  29.079  39.914   9.155
 2198POPC   GL231298  28.884  40.229   9.104
 2198POPC   C1A31299  29.385  39.958   8.773
 2198POPC   D2A31300  29.269  40.054   8.350
 2198POPC   C3A31301  29.533  39.863   8.061
 2198POPC   C4A31302  29.603  40.067   7.671
 2198POPC   C1B31303  28.890  40.035   8.697
 2198POPC   C2B31304  28.791  39.850   8.326
 2198POPC   C3B31305  28.800  40.032   7.897
 2198POPC   C4B31306  28.819  39.769   7.501
 2199POPC   NC331307  16.213  11.636   9.491
 2199POPC   PO431308  16.239  10.984   9.753
 2199POPC   GL131309  16.095  11.152   9.315
 2199POPC   GL231310  15.812  11.414   9.242
 2199POPC   C1A31311  15.990  11.076   8.877
 2199POPC   D2A31312  15.794  10.988   8.476
 2199POPC   C3A31313  15.947  11.138   8.087
 2199POPC   C4A31314  15.761  10.909   7.769
 2199POPC   C1B31315  15.978  11.579   8.836
 2199POPC   C2B31316  16.074  11.736   8.448
 2199POPC   C3B31317  16.010  11.720   8.031
 2199POPC   C4B31318  16.200  11.519   7.702
 2200POPC   NC331319   6.455  12.312   9.533
 2200POPC   PO431320   6.989  11.892   9.393
 2200POPC   GL131321   6.659  11.926   9.124
 2200POPC   GL231322   6.639  12.268   9.075
 2200POPC   C1A31323   6.692  11.790   8.694
 2200POPC   D2A31324   6.714  11.615   8.298
 2200POPC   C3A31325   6.566  11.955   8.096
 2200POPC   C4A31326   6.521  12.003   7.711
 2200POPC   C1B31327   6.901  12.254   8.711
 2200POPC   C2B31328   6.803  12.405   8.282
 2200POPC   C3B31329   6.907  12.349   7.834
 2200POPC   C4B31330   6.866  12.199   7.406
 2201POPC   NC331331  26.370  14.737   9.747
 2201POPC   PO431332  26.897  14.292   9.449
 2201POPC   GL131333  26.869  14.264   9.018
 2201POPC   GL231334  26.557  14.141   9.025
 2201POPC   C1A31335  26.899  14.544   8.670
 2201POPC   D2A31336  26.982  14.829   8.338
 2201POPC   C3A31337  27.271  14.549   8.130
 2201POPC   C4A31338  27.076  14.248   7.865
 2201POPC   C1B31339  26.545  13.941   8.638
 2201POPC   C2B31340  26.791  14.126   8.305
 2201POPC   C3B31341  26.687  14.495   8.116
 2201POPC   C4B31342  26.410  14.832   8.012
 2202POPC   NC331343   8.287  41.949   9.584
 2202POPC   PO431344   8.007  42.563   9.620
 2202POPC   GL131345   7.971  42.250   9.294
 2202POPC   GL231346   8.307  42.343   9.243
 2202POPC   C1A31347   8.063  42.116   8.864
 2202POPC   D2A31348   7.979  42.383   8.505
 2202POPC   C3A31349   8.248  42.450   8.172
 2202POPC   C4A31350   8.254  42.202   7.821
 2202POPC   C1B31351   8.330  42.575   8.862
 2202POPC   C2B31352   8.464  42.838   8.517
 2202POPC   C3B31353   8.535  42.862   8.066
 2202POPC   C4B31354   8.380  42.670   7.668
 2203POPC   NC331355  31.663  32.606   9.572
 2203POPC   PO431356  32.318  32.794   9.662
 2203POPC   GL131357  32.272  32.836   9.190
 2203POPC   GL231358  31.933  32.971   9.158
 2203POPC   C1A31359  32.494  32.807   8.776
 2203POPC   D2A31360  32.547  32.986   8.356
 2203POPC   C3A31361  32.381  32.755   8.029
 2203POPC   C4A31362  32.249  32.861   7.606
 2203POPC   C1B31363  31.844  33.173   8.753
 2203POPC   C2B31364  32.076  33.299   8.362
 2203POPC   C3B31365  32.024  33.176   7.929
 2203POPC   C4B31366  31.906  33.214   7.461
 2204POPC   NC331367   6.507   7.181   9.470
 2204POPC   PO431368   7.168   7.548   9.494
 2204POPC   GL131369   6.833   7.450   9.157
 2204POPC   GL231370   6.461   7.360   9.019
 2204POPC   C1A31371   6.811   7.552   8.728
 2204POPC   D2A31372   7.060   7.643   8.406
 2204POPC   C3A31373   6.874   7.575   8.034
 2204POPC   C4A31374   7.056   7.625   7.687
 2204POPC   C1B31375   6.423   7.151   8.627
 2204POPC   C2B31376   6.453   7.383   8.247
 2204POPC   C3B31377   6.361   7.635   7.873
 2204POPC   C4B31378   6.159   7.464   7.512
 2205POPC   NC331379   7.512   9.951   9.428
 2205POPC   PO431380   7.818   9.398   9.184
 2205POPC   GL131381   7.435   9.627   9.050
 2205POPC   GL231382   7.631   9.762   8.865
 2205POPC   C1A31383   7.133   9.848   8.776
 2205POPC   D2A31384   6.984   9.955   8.365
 2205POPC   C3A31385   7.170   9.753   8.003
 2205POPC   C4A31386   7.385   9.573   7.616
 2205POPC   C1B31387   7.565  10.018   8.539
 2205POPC   C2B31388   7.553  10.046   8.119
 2205POPC   C3B31389   7.603  10.041   7.684
 2205POPC   C4B31390   7.813   9.804   7.356
 2206POPC   NC331391  23.202  38.741   9.620
 2206POPC   PO431392  22.721  39.283   9.594
 2206POPC   GL131393  23.037  39.284   9.230
 2206POPC   GL231394  23.259  39.563   9.204
 2206POPC   C1A31395  23.084  39.227   8.752
 2206POPC   D2A31396  23.341  39.158   8.348
 2206POPC   C3A31397  23.060  39.086   7.986
 2206POPC   C4A31398  22.636  39.297   7.993
 2206POPC   C1B31399  22.894  39.676   8.935
 2206POPC   C2B31400  22.875  39.676   8.485
 2206POPC   C3B31401  23.070  39.596   8.086
 2206POPC   C4B31402  22.974  39.466   7.650
 2207POPC   NC331403  28.932   6.104   9.456
 2207POPC   PO431404  29.112   5.409   9.456
 2207POPC   GL131405  29.150   5.772   9.138
 2207POPC   GL231406  29.508   5.879   9.012
 2207POPC   C1A31407  29.045   5.858   8.728
 2207POPC   D2A31408  29.281   5.647   8.408
 2207POPC   C3A31409  29.271   5.716   7.970
 2207POPC   C4A31410  28.966   5.932   7.721
 2207POPC   C1B31411  29.452   6.149   8.677
 2207POPC   C2B31412  29.398   6.153   8.231
 2207POPC   C3B31413  29.416   6.172   7.767
 2207POPC   C4B31414  29.291   6.081   7.336
 2208POPC   NC331415   4.263  28.516   9.512
 2208POPC   PO431416   4.576  28.000   9.358
 2208POPC   GL131417   4.490  28.351   9.089
 2208POPC   GL231418   4.181  28.502   9.022
 2208POPC   C1A31419   4.552  28.358   8.695
 2208POPC   D2A31420   4.500  28.107   8.378
 2208POPC   C3A31421   4.528  28.353   8.035
 2208POPC   C4A31422   4.520  28.246   7.596
 2208POPC   C1B31423   4.099  28.583   8.594
 2208POPC   C2B31424   4.069  28.345   8.222
 2208POPC   C3B31425   4.053  28.311   7.771
 2208POPC   C4B31426   3.913  28.651   7.464
 2209POPC   NC331427   5.919  18.536   9.478
 2209POPC   PO431428   5.639  17.984   9.676
 2209POPC   GL131429   5.864  18.066   9.190
 2209POPC   GL231430   6.144  17.938   9.098
 2209POPC   C1A31431   5.807  18.125   8.751
 2209POPC   D2A31432   5.941  18.082   8.337
 2209POPC   C3A31433   5.933  18.447   8.082
 2209POPC   C4A31434   5.672  18.506   7.731
 2209POPC   C1B31435   6.145  17.766   8.699
 2209POPC   C2B31436   6.332  17.674   8.330
 2209POPC   C3B31437   6.290  17.918   7.999
 2209POPC   C4B31438   5.986  18.095   7.712
 2210POPC   NC331439   1.777  17.941   9.664
 2210POPC   PO431440   2.332  18.285   9.579
 2210POPC   GL131441   2.180  18.262   9.184
 2210POPC   GL231442   1.832  18.229   9.198
 2210POPC   C1A31443   2.248  18.193   8.764
 2210POPC   D2A31444   2.284  18.389   8.374
 2210POPC   C3A31445   1.970  18.288   8.094
 2210POPC   C4A31446   2.114  17.958   7.858
 2210POPC   C1B31447   1.763  18.083   8.793
 2210POPC   C2B31448   1.933  17.904   8.438
 2210POPC   C3B31449   1.720  17.820   8.106
 2210POPC   C4B31450   1.598  18.084   7.775
 2211POPC   NC331451   5.433  19.438   9.358
 2211POPC   PO431452   5.191  19.917   9.731
 2211POPC   GL131453   5.133  19.838   9.218
 2211POPC   GL231454   4.809  19.956   9.100
 2211POPC   C1A31455   5.270  19.742   8.762
 2211POPC   D2A31456   5.113  19.657   8.316
 2211POPC   C3A31457   5.313  19.670   7.877
 2211POPC   C4A31458   5.196  19.587   7.423
 2211POPC   C1B31459   4.792  19.914   8.638
 2211POPC   C2B31460   4.691  19.952   8.195
 2211POPC   C3B31461   4.813  20.018   7.792
 2211POPC   C4B31462   4.674  20.252   7.443
 2212POPC   NC331463  34.848  12.324   9.513
 2212POPC   PO431464  34.302  11.942   9.494
 2212POPC   GL131465  34.539  12.110   9.140
 2212POPC   GL231466  34.866  11.952   9.108
 2212POPC   C1A31467  34.428  12.272   8.723
 2212POPC   D2A31468  34.598  12.206   8.311
 2212POPC   C3A31469  34.404  12.214   7.903
 2212POPC   C4A31470  34.423  11.911   7.542
 2212POPC   C1B31471  34.943  12.185   8.733
 2212POPC   C2B31472  35.119  12.221   8.314
 2212POPC   C3B31473  34.914  12.127   7.916
 2212POPC   C4B31474  34.772  12.316   7.567
 2213POPC   NC331475  18.640   8.416   9.466
 2213POPC   PO431476  18.292   7.851   9.636
 2213POPC   GL131477  18.163   8.025   9.180
 2213POPC   GL231478  18.281   8.344   9.119
 2213POPC   C1A31479  18.303   7.983   8.724
 2213POPC   D2A31480  18.149   8.052   8.335
 2213POPC   C3A31481  18.372   8.198   8.016
 2213POPC   C4A31482  18.434   8.035   7.613
 2213POPC   C1B31483  18.380   8.481   8.706
 2213POPC   C2B31484  18.089   8.547   8.390
 2213POPC   C3B31485  17.941   8.543   7.973
 2213POPC   C4B31486  18.201   8.524   7.654
 2214POPC   NC331487  39.195   3.415   9.797
 2214POPC   PO431488  39.438   4.064   9.580
 2214POPC   GL131489  39.321   3.805   9.187
 2214POPC   GL231490  39.454   3.457   9.205
 2214POPC   C1A31491  39.221   3.677   8.734
 2214POPC   D2A31492  39.253   3.369   8.349
 2214POPC   C3A31493  39.180   3.599   7.935
 2214POPC   C4A31494  39.012   3.860   7.542
 2214POPC   C1B31495  39.616   3.345   8.772
 2214POPC   C2B31496  39.756   3.487   8.336
 2214POPC   C3B31497  39.726   3.484   7.874
 2214POPC   C4B31498  39.853   3.235   7.488
 2215POPC   NC331499  42.861  15.259   9.740
 2215POPC   PO431500  43.369  15.125   9.308
 2215POPC   GL131501  43.076  15.304   9.120
 2215POPC   GL231502  42.832  15.084   9.265
 2215POPC   C1A31503  43.162  15.318   8.692
 2215POPC   D2A31504  43.062  15.540   8.353
 2215POPC   C3A31505  43.020  15.312   8.003
 2215POPC   C4A31506  43.184  15.225   7.642
 2215POPC   C1B31507  42.984  14.854   8.872
 2215POPC   C2B31508  43.225  14.797   8.484
 2215POPC   C3B31509  43.012  14.760   8.065
 2215POPC   C4B31510  42.853  14.841   7.653
 2216POPC   NC331511  26.951   2.142   9.762
 2216POPC   PO431512  27.572   2.207   9.469
 2216POPC   GL131513  27.451   1.969   9.129
 2216POPC   GL231514  27.185   1.743   9.249
 2216POPC   C1A31515  27.342   2.102   8.701
 2216POPC   D2A31516  27.355   2.225   8.274
 2216POPC   C3A31517  27.741   2.098   8.069
 2216POPC   C4A31518  27.944   2.314   7.743
 2216POPC   C1B31519  27.223   1.621   8.802
 2216POPC   C2B31520  27.103   1.765   8.367
 2216POPC   C3B31521  27.298   1.792   7.959
 2216POPC   C4B31522  27.576   1.509   7.790
 2217POPC   NC331523  17.916  11.877   9.428
 2217POPC   PO431524  18.375  12.258   9.620
 2217POPC   GL131525  18.494  12.108   9.176
 2217POPC   GL231526  18.286  11.820   9.110
 2217POPC   C1A31527  18.299  12.152   8.743
 2217POPC   D2A31528  18.072  12.251   8.371
 2217POPC   C3A31529  18.304  12.033   8.068
 2217POPC   C4A31530  18.359  12.079   7.654
 2217POPC   C1B31531  18.008  11.646   8.788
 2217POPC   C2B31532  18.006  11.735   8.349
 2217POPC   C3B31533  18.119  11.565   7.954
 2217POPC   C4B31534  18.145  11.633   7.514
 2218POPC   NC331535   5.994  28.174   9.338
 2218POPC   PO431536   5.893  27.587   9.495
 2218POPC   GL131537   5.829  27.447   9.091
 2218POPC   GL231538   5.722  27.802   9.024
 2218POPC   C1A31539   5.643  27.400   8.688
 2218POPC   D2A31540   5.641  27.621   8.310
 2218POPC   C3A31541   5.850  27.452   7.911
 2218POPC   C4A31542   6.137  27.524   7.565
 2218POPC   C1B31543   6.037  27.746   8.690
 2218POPC   C2B31544   6.150  27.718   8.245
 2218POPC   C3B31545   6.116  27.953   7.874
 2218POPC   C4B31546   5.871  28.323   7.771
 2219POPC   NC331547  35.952  11.117   9.369
 2219POPC   PO431548  36.139  11.745   9.713
 2219POPC   GL131549  36.250  11.484   9.272
 2219POPC   GL231550  36.369  11.288   9.088
 2219POPC   C1A31551  35.981  11.425   8.798
 2219POPC   D2A31552  36.078  11.168   8.367
 2219POPC   C3A31553  36.006  11.375   7.948
 2219POPC   C4A31554  35.770  11.717   7.795
 2219POPC   C1B31555  36.357  11.069   8.771
 2219POPC   C2B31556  36.617  11.069   8.459
 2219POPC   C3B31557  36.494  10.994   8.083
 2219POPC   C4B31558  36.458  11.254   7.775
 2220POPC   NC331559  21.740   7.808   9.494
 2220POPC   PO431560  21.334   7.299   9.496
 2220POPC   GL131561  21.363   7.624   9.193
 2220POPC   GL231562  21.107   7.861   9.300
 2220POPC   C1A31563  21.474   7.563   8.757
 2220POPC   D2A31564  21.319   7.193   8.491
 2220POPC   C3A31565  21.446   7.157   8.057
 2220POPC   C4A31566  21.573   7.294   7.657
 2220POPC   C1B31567  21.051   7.831   8.839
 2220POPC   C2B31568  21.098   7.663   8.414
 2220POPC   C3B31569  21.403   7.669   8.100
 2220POPC   C4B31570  21.509   7.984   7.815
 2221POPC   NC331571  39.799  14.899   9.591
 2221POPC   PO431572  40.368  14.791   9.409
 2221POPC   GL131573  40.040  14.933   9.120
 2221POPC   GL231574  39.835  15.234   9.139
 2221POPC   C1A31575  39.946  15.032   8.679
 2221POPC   D2A31576  39.853  14.964   8.254
 2221POPC   C3A31577  40.088  15.129   7.916
 2221POPC   C4A31578  40.212  15.196   7.472
 2221POPC   C1B31579  39.584  15.389   8.764
 2221POPC   C2B31580  39.657  15.464   8.318
 2221POPC   C3B31581  39.539  15.243   7.944
 2221POPC   C4B31582  39.409  15.328   7.520
 2222POPC   NC331583  32.765  33.563   9.522
 2222POPC   PO431584  33.101  34.021   9.562
 2222POPC   GL131585  33.055  33.796   9.175
 2222POPC   GL231586  32.745  33.927   9.134
 2222POPC   C1A31587  33.033  33.660   8.735
 2222POPC   D2A31588  33.225  33.697   8.334
 2222POPC   C3A31589  33.050  33.632   7.903
 2222POPC   C4A31590  33.308  33.591   7.504
 2222POPC   C1B31591  32.792  34.118   8.768
 2222POPC   C2B31592  32.761  33.964   8.361
 2222POPC   C3B31593  32.771  34.082   7.955
 2222POPC   C4B31594  32.690  33.911   7.572
 2223POPC   NC331595  43.589   6.048   9.591
 2223POPC   PO431596  43.057   5.584   9.464
 2223POPC   GL131597  43.217   5.696   9.065
 2223POPC   GL231598  43.548   5.769   9.158
 2223POPC   C1A31599  43.076   5.675   8.605
 2223POPC   D2A31600  42.999   5.580   8.148
 2223POPC   C3A31601  42.831   5.923   7.913
 2223POPC   C4A31602  42.740   5.982   7.480
 2223POPC   C1B31603  43.691   5.721   8.745
 2223POPC   C2B31604  43.517   5.714   8.321
 2223POPC   C3B31605  43.362   5.865   7.913
 2223POPC   C4B31606  43.194   5.639   7.557
 2224POPC   NC331607  34.355  35.576   9.271
 2224POPC   PO431608  34.698  35.138   9.468
 2224POPC   GL131609  34.802  35.318   9.092
 2224POPC   GL231610  34.515  35.352   8.867
 2224POPC   C1A31611  34.989  35.394   8.682
 2224POPC   D2A31612  34.729  35.244   8.324
 2224POPC   C3A31613  34.500  35.471   8.016
 2224POPC   C4A31614  34.590  35.508   7.559
 2224POPC   C1B31615  34.228  35.097   8.658
 2224POPC   C2B31616  34.199  35.098   8.243
 2224POPC   C3B31617  34.484  34.877   8.009
 2224POPC   C4B31618  34.724  35.033   7.663
 2225POPC   NC331619  40.237  22.351   9.489
 2225POPC   PO431620  39.584  22.305   9.479
 2225POPC   GL131621  39.910  22.151   9.126
 2225POPC   GL231622  40.297  22.033   9.088
 2225POPC   C1A31623  40.023  22.173   8.674
 2225POPC   D2A31624  40.147  22.151   8.225
 2225POPC   C3A31625  39.801  22.218   7.912
 2225POPC   C4A31626  39.553  21.963   7.597
 2225POPC   C1B31627  40.526  22.157   8.702
 2225POPC   C2B31628  40.438  22.540   8.458
 2225POPC   C3B31629  40.298  22.622   8.030
 2225POPC   C4B31630  40.275  22.291   7.728
 2226POPC   NC331631  27.039   2.266   9.273
 2226POPC   PO431632  26.791   1.719   9.644
 2226POPC   GL131633  26.675   1.794   9.174
 2226POPC   GL231634  26.637   2.147   9.016
 2226POPC   C1A31635  26.726   1.649   8.723
 2226POPC   D2A31636  26.677   1.466   8.291
 2226POPC   C3A31637  26.786   1.759   7.910
 2226POPC   C4A31638  27.016   1.891   7.517
 2226POPC   C1B31639  26.824   2.140   8.624
 2226POPC   C2B31640  26.802   2.207   8.203
 2226POPC   C3B31641  27.028   2.242   7.872
 2226POPC   C4B31642  27.421   2.249   7.701
 2227POPC   NC331643  25.621  17.096   9.578
 2227POPC   PO431644  26.129  16.587   9.497
 2227POPC   GL131645  25.937  16.668   9.115
 2227POPC   GL231646  25.836  16.964   9.139
 2227POPC   C1A31647  26.165  16.760   8.713
 2227POPC   D2A31648  26.519  16.677   8.409
 2227POPC   C3A31649  26.364  16.741   7.994
 2227POPC   C4A31650  25.983  16.615   7.786
 2227POPC   C1B31651  25.682  16.935   8.723
 2227POPC   C2B31652  25.795  16.737   8.343
 2227POPC   C3B31653  25.537  16.738   8.027
 2227POPC   C4B31654  25.548  16.877   7.649
 2228POPC   NC331655  44.156  16.334   9.478
 2228POPC   PO431656  43.638  15.979   9.436
 2228POPC   GL131657  43.925  16.012   9.128
 2228POPC   GL231658  44.101  15.711   9.233
 2228POPC   C1A31659  43.797  15.989   8.722
 2228POPC   D2A31660  43.670  15.704   8.404
 2228POPC   C3A31661  43.758  15.829   7.972
 2228POPC   C4A31662  43.677  15.894   7.503
 2228POPC   C1B31663  44.179  15.651   8.792
 2228POPC   C2B31664  44.155  15.858   8.393
 2228POPC   C3B31665  44.275  15.780   8.020
 2228POPC   C4B31666  44.113  15.639   7.652
 2229POPC   NC331667  44.289  36.910   9.725
 2229POPC   PO431668  44.818  37.187   9.607
 2229POPC   GL131669  44.607  36.976   9.257
 2229POPC   GL231670  44.244  37.061   9.235
 2229POPC   C1A31671  44.763  36.915   8.816
 2229POPC   D2A31672  44.652  36.809   8.389
 2229POPC   C3A31673  44.800  37.099   8.056
 2229POPC   C4A31674  44.862  37.025   7.609
 2229POPC   C1B31675  44.270  37.026   8.794
 2229POPC   C2B31676  44.462  37.270   8.473
 2229POPC   C3B31677  44.310  37.202   8.052
 2229POPC   C4B31678  43.925  37.016   7.871
 2230POPC   NC331679   3.154  25.200   9.586
 2230POPC   PO431680   3.419  24.709   9.369
 2230POPC   GL131681   3.459  25.126   9.151
 2230POPC   GL231682   3.228  25.412   9.113
 2230POPC   C1A31683   3.581  25.277   8.738
 2230POPC   D2A31684   3.808  25.188   8.349
 2230POPC   C3A31685   3.625  25.145   7.931
 2230POPC   C4A31686   3.795  25.064   7.509
 2230POPC   C1B31687   3.156  25.557   8.698
 2230POPC   C2B31688   3.302  25.382   8.310
 2230POPC   C3B31689   3.300  25.533   7.896
 2230POPC   C4B31690   3.646  25.578   7.601
 2231POPC   NC331691  29.290  19.933   9.483
 2231POPC   PO431692  28.921  19.377   9.333
 2231POPC   GL131693  29.096  19.693   9.050
 2231POPC   GL231694  29.129  20.061   9.019
 2231POPC   C1A31695  29.341  19.696   8.685
 2231POPC   D2A31696  29.173  19.542   8.371
 2231POPC   C3A31697  29.453  19.461   8.106
 2231POPC   C4A31698  29.213  19.462   7.742
 2231POPC   C1B31699  29.108  20.119   8.563
 2231POPC   C2B31700  29.192  19.992   8.115
 2231POPC   C3B31701  28.978  19.913   7.687
 2231POPC   C4B31702  28.850  19.981   7.242
 2232POPC   NC331703   5.674  12.863   9.733
 2232POPC   PO431704   6.153  12.603   9.346
 2232POPC   GL131705   6.096  12.704   8.974
 2232POPC   GL231706   5.745  12.805   9.043
 2232POPC   C1A31707   5.887  12.581   8.607
 2232POPC   D2A31708   5.633  12.754   8.291
 2232POPC   C3A31709   5.863  12.586   7.964
 2232POPC   C4A31710   6.141  12.851   7.818
 2232POPC   C1B31711   5.933  13.106   8.720
 2232POPC   C2B31712   5.723  13.427   8.489
 2232POPC   C3B31713   5.705  13.285   8.085
 2232POPC   C4B31714   5.882  13.280   7.689
 2233POPC   NC331715  36.251   0.761   9.470
 2233POPC   PO431716  35.679   0.351   9.537
 2233POPC   GL131717  35.947   0.373   9.202
 2233POPC   GL231718  36.138   0.075   9.228
 2233POPC   C1A31719  36.165   0.527   8.821
 2233POPC   D2A31720  36.369   0.644   8.409
 2233POPC   C3A31721  36.078   0.639   8.072
 2233POPC   C4A31722  36.025   0.518   7.642
 2233POPC   C1B31723  35.946   0.035   8.811
 2233POPC   C2B31724  36.014   0.234   8.411
 2233POPC   C3B31725  36.062   0.109   7.988
 2233POPC   C4B31726  35.814   0.050   7.618
 2234POPC   NC331727  26.474  34.106   9.588
 2234POPC   PO431728  26.948  33.684   9.638
 2234POPC   GL131729  26.954  33.702   9.215
 2234POPC   GL231730  26.745  33.997   9.180
 2234POPC   C1A31731  26.759  33.667   8.796
 2234POPC   D2A31732  26.599  33.513   8.421
 2234POPC   C3A31733  26.675  33.790   8.071
 2234POPC   C4A31734  26.508  33.877   7.645
 2234POPC   C1B31735  27.024  34.132   8.863
 2234POPC   C2B31736  27.013  34.137   8.420
 2234POPC   C3B31737  27.264  34.053   8.062
 2234POPC   C4B31738  27.013  33.973   7.718
 2235POPC   NC331739  11.320  28.046   9.526
 2235POPC   PO431740  11.442  27.399   9.486
 2235POPC   GL131741  11.300  27.476   9.073
 2235POPC   GL231742  11.033  27.257   9.047
 2235POPC   C1A31743  11.454  27.632   8.668
 2235POPC   D2A31744  11.590  27.960   8.373
 2235POPC   C3A31745  11.560  27.809   7.909
 2235POPC   C4A31746  11.384  27.459   7.686
 2235POPC   C1B31747  10.858  27.557   8.753
 2235POPC   C2B31748  10.979  27.618   8.321
 2235POPC   C3B31749  10.886  27.512   7.888
 2235POPC   C4B31750  11.002  27.825   7.606
 2236POPC   NC331751  10.678   9.081   9.466
 2236POPC   PO431752  11.062   8.639   9.147
 2236POPC   GL131753  10.800   8.926   8.999
 2236POPC   GL231754  10.528   8.735   8.973
 2236POPC   C1A31755  10.709   9.114   8.646
 2236POPC   D2A31756  10.712   8.873   8.314
 2236POPC   C3A31757  10.606   9.121   8.027
 2236POPC   C4A31758  10.298   9.394   7.926
 2236POPC   C1B31759  10.216   8.802   8.665
 2236POPC   C2B31760  10.186   9.060   8.320
 2236POPC   C3B31761  10.237   8.795   7.970
 2236POPC   C4B31762  10.639   8.607   7.850
 2237POPC   NC331763  31.158  17.824   9.529
 2237POPC   PO431764  31.695  17.416   9.540
 2237POPC   GL131765  31.597  17.292   9.145
 2237POPC   GL231766  31.259  17.232   9.262
 2237POPC   C1A31767  31.468  17.595   8.824
 2237POPC   D2A31768  31.179  17.646   8.469
 2237POPC   C3A31769  31.480  17.698   8.149
 2237POPC   C4A31770  31.796  17.438   7.881
 2237POPC   C1B31771  31.213  17.159   8.811
 2237POPC   C2B31772  31.509  17.222   8.457
 2237POPC   C3B31773  31.391  17.194   8.030
 2237POPC   C4B31774  31.233  17.496   7.767
 2238POPC   NC331775   6.031  37.723   9.701
 2238POPC   PO431776   5.582  37.283   9.746
 2238POPC   GL131777   5.924  37.449   9.317
 2238POPC   GL231778   5.830  37.765   9.192
 2238POPC   C1A31779   5.922  37.466   8.778
 2238POPC   D2A31780   5.960  37.621   8.308
 2238POPC   C3A31781   5.692  37.451   7.983
 2238POPC   C4A31782   5.591  37.359   7.542
 2238POPC   C1B31783   5.973  37.979   8.827
 2238POPC   C2B31784   5.931  38.136   8.416
 2238POPC   C3B31785   6.059  38.040   8.009
 2238POPC   C4B31786   5.996  37.759   7.688
 2239POPC   NC331787   3.333  15.095   9.541
 2239POPC   PO431788   3.932  15.324   9.424
 2239POPC   GL131789   3.600  15.270   9.094
 2239POPC   GL231790   3.786  15.527   8.940
 2239POPC   C1A31791   3.640  15.148   8.620
 2239POPC   D2A31792   3.849  15.197   8.199
 2239POPC   C3A31793   3.583  15.246   7.838
 2239POPC   C4A31794   3.410  14.926   7.535
 2239POPC   C1B31795   3.376  15.578   8.676
 2239POPC   C2B31796   3.365  15.565   8.209
 2239POPC   C3B31797   3.377  15.745   7.806
 2239POPC   C4B31798   3.711  15.660   7.509
 2240POPC   NC331799  16.916  30.408   9.318
 2240POPC   PO431800  16.461  30.901   9.617
 2240POPC   GL131801  16.884  30.903   9.212
 2240POPC   GL231802  17.099  30.641   8.932
 2240POPC   C1A31803  16.868  31.032   8.751
 2240POPC   D2A31804  16.858  31.225   8.316
 2240POPC   C3A31805  16.614  30.950   8.051
 2240POPC   C4A31806  16.906  30.796   7.764
 2240POPC   C1B31807  16.795  30.500   8.584
 2240POPC   C2B31808  16.730  30.393   8.125
 2240POPC   C3B31809  16.445  30.424   7.778
 2240POPC   C4B31810  16.377  30.425   7.298
 2241POPC   NC331811  19.277  14.380   9.392
 2241POPC   PO431812  18.747  14.791   9.451
 2241POPC   GL131813  18.854  14.492   9.143
 2241POPC   GL231814  18.669  14.168   9.202
 2241POPC   C1A31815  19.157  14.556   8.770
 2241POPC   D2A31816  19.418  14.549   8.419
 2241POPC   C3A31817  19.234  14.577   8.017
 2241POPC   C4A31818  19.110  14.250   7.735
 2241POPC   C1B31819  18.905  14.112   8.784
 2241POPC   C2B31820  18.971  14.192   8.330
 2241POPC   C3B31821  18.670  14.262   7.976
 2241POPC   C4B31822  18.665  14.190   7.485
 2242POPC   NC331823  37.938  42.207   9.571
 2242POPC   PO431824  37.452  42.678   9.416
 2242POPC   GL131825  37.588  42.269   9.184
 2242POPC   GL231826  37.890  41.993   9.129
 2242POPC   C1A31827  37.542  42.162   8.764
 2242POPC   D2A31828  37.521  42.358   8.352
 2242POPC   C3A31829  37.423  42.131   7.979
 2242POPC   C4A31830  37.602  42.404   7.663
 2242POPC   C1B31831  38.045  42.263   8.829
 2242POPC   C2B31832  37.941  42.056   8.445
 2242POPC   C3B31833  37.917  42.202   8.047
 2242POPC   C4B31834  37.826  41.957   7.693
 2243POPC   NC331835  28.374  28.233   9.459
 2243POPC   PO431836  28.649  27.743   9.091
 2243POPC   GL131837  28.463  28.122   8.981
 2243POPC   GL231838  28.702  28.407   9.087
 2243POPC   C1A31839  28.052  28.234   8.858
 2243POPC   D2A31840  28.039  28.327   8.434
 2243POPC   C3A31841  28.191  28.034   8.121
 2243POPC   C4A31842  28.301  28.143   7.678
 2243POPC   C1B31843  28.793  28.333   8.663
 2243POPC   C2B31844  28.549  28.347   8.331
 2243POPC   C3B31845  28.576  28.496   7.943
 2243POPC   C4B31846  28.814  28.296   7.637
 2244POPC   NC331847  42.044  28.535   9.471
 2244POPC   PO431848  42.435  27.962   9.468
 2244POPC   GL131849  42.332  28.273   9.110
 2244POPC   GL231850  42.452  28.642   9.168
 2244POPC   C1A31851  42.097  28.546   8.775
 2244POPC   D2A31852  42.228  28.636   8.332
 2244POPC   C3A31853  42.293  28.235   8.130
 2244POPC   C4A31854  42.199  28.071   7.713
 2244POPC   C1B31855  42.611  28.557   8.764
 2244POPC   C2B31856  42.711  28.756   8.399
 2244POPC   C3B31857  42.781  28.591   8.021
 2244POPC   C4B31858  42.555  28.437   7.738
 2245POPC   NC331859   4.628   3.564   9.664
 2245POPC   PO431860   4.043   3.167   9.847
 2245POPC   GL131861   4.139   3.357   9.377
 2245POPC   GL231862   4.356   3.639   9.214
 2245POPC   C1A31863   4.165   3.327   8.889
 2245POPC   D2A31864   4.189   3.648   8.568
 2245POPC   C3A31865   3.953   3.556   8.184
 2245POPC   C4A31866   4.026   3.397   7.775
 2245POPC   C1B31867   4.647   3.608   8.875
 2245POPC   C2B31868   4.623   3.345   8.521
 2245POPC   C3B31869   4.491   3.537   8.123
 2245POPC   C4B31870   4.723   3.837   7.839
 2246POPC   NC331871  16.782   4.883   9.521
 2246POPC   PO431872  16.328   5.461   9.369
 2246POPC   GL131873  16.566   5.189   9.176
 2246POPC   GL231874  16.310   4.915   9.302
 2246POPC   C1A31875  16.845   5.232   8.805
 2246POPC   D2A31876  17.025   4.952   8.476
 2246POPC   C3A31877  17.170   5.034   8.040
 2246POPC   C4A31878  17.087   5.084   7.602
 2246POPC   C1B31879  16.431   4.776   8.887
 2246POPC   C2B31880  16.474   4.747   8.440
 2246POPC   C3B31881  16.698   4.807   8.062
 2246POPC   C4B31882  16.600   4.963   7.682
 2247POPC   NC331883  40.312  43.313   9.483
 2247POPC   PO431884  39.797  42.926   9.422
 2247POPC   GL131885  39.953  43.207   9.121
 2247POPC   GL231886  40.273  43.029   9.041
 2247POPC   C1A31887  39.941  43.147   8.672
 2247POPC   D2A31888  40.011  42.843   8.361
 2247POPC   C3A31889  39.979  42.897   7.946
 2247POPC   C4A31890  39.730  42.922   7.620
 2247POPC   C1B31891  40.317  43.465   8.820
 2247POPC   C2B31892  40.332  43.591   8.381
 2247POPC   C3B31893  40.205  43.360   8.021
 2247POPC   C4B31894  39.807  43.379   7.820
 2248POPC   NC331895  29.751  29.063   9.578
 2248POPC   PO431896  30.217  29.070   9.119
 2248POPC   GL131897  29.787  29.154   9.046
 2248POPC   GL231898  29.593  28.843   9.156
 2248POPC   C1A31899  29.793  29.279   8.601
 2248POPC   D2A31900  30.076  29.512   8.304
 2248POPC   C3A31901  30.097  29.339   7.864
 2248POPC   C4A31902  30.177  29.506   7.437
 2248POPC   C1B31903  29.561  28.834   8.708
 2248POPC   C2B31904  29.384  29.080   8.350
 2248POPC   C3B31905  29.411  28.921   7.929
 2248POPC   C4B31906  29.810  28.917   7.714
 2249POPC   NC331907  37.133  23.838   9.464
 2249POPC   PO431908  36.451  23.754   9.375
 2249POPC   GL131909  36.787  23.884   9.104
 2249POPC   GL231910  36.971  23.559   9.066
 2249POPC   C1A31911  36.941  23.954   8.707
 2249POPC   D2A31912  36.871  23.729   8.309
 2249POPC   C3A31913  37.078  23.870   7.934
 2249POPC   C4A31914  36.836  24.192   7.723
 2249POPC   C1B31915  37.201  23.526   8.683
 2249POPC   C2B31916  37.155  23.297   8.280
 2249POPC   C3B31917  36.890  23.314   7.890
 2249POPC   C4B31918  37.000  23.384   7.398
 2250POPC   NC331919  32.041  35.301   9.500
 2250POPC   PO431920  32.691  35.541   9.440
 2250POPC   GL131921  32.380  35.398   9.119
 2250POPC   GL231922  32.153  35.692   9.093
 2250POPC   C1A31923  32.113  35.101   8.847
 2250POPC   D2A31924  31.993  35.130   8.396
 2250POPC   C3A31925  32.300  35.367   8.169
 2250POPC   C4A31926  32.469  35.325   7.771
 2250POPC   C1B31927  31.878  35.561   8.748
 2250POPC   C2B31928  31.717  35.557   8.300
 2250POPC   C3B31929  31.892  35.448   7.880
 2250POPC   C4B31930  32.127  35.620   7.542
 2251POPC   NC331931  40.560  13.403   9.468
 2251POPC   PO431932  41.182  13.610   9.368
 2251POPC   GL131933  40.892  13.562   9.038
 2251POPC   GL231934  40.580  13.709   9.039
 2251POPC   C1A31935  40.786  13.438   8.599
 2251POPC   D2A31936  40.672  13.349   8.176
 2251POPC   C3A31937  40.885  13.560   7.852
 2251POPC   C4A31938  40.773  13.512   7.435
 2251POPC   C1B31939  40.545  13.869   8.589
 2251POPC   C2B31940  40.519  13.842   8.131
 2251POPC   C3B31941  40.491  13.856   7.686
 2251POPC   C4B31942  40.596  13.936   7.201
 2252POPC   NC331943  35.785  17.791   9.590
 2252POPC   PO431944  35.748  18.418   9.483
 2252POPC   GL131945  35.919  18.177   9.154
 2252POPC   GL231946  35.832  17.842   9.070
 2252POPC   C1A31947  36.016  18.285   8.730
 2252POPC   D2A31948  36.171  18.211   8.355
 2252POPC   C3A31949  35.912  18.387   8.051
 2252POPC   C4A31950  35.984  18.419   7.641
 2252POPC   C1B31951  35.704  17.848   8.630
 2252POPC   C2B31952  35.849  17.874   8.159
 2252POPC   C3B31953  36.220  18.003   7.882
 2252POPC   C4B31954  36.391  18.157   7.469
 2253POPC   NC331955  26.603  13.844   9.492
 2253POPC   PO431956  27.197  13.657   9.460
 2253POPC   GL131957  26.928  13.758   9.113
 2253POPC   GL231958  26.604  13.573   9.051
 2253POPC   C1A31959  27.025  13.854   8.721
 2253POPC   D2A31960  26.942  13.652   8.359
 2253POPC   C3A31961  26.962  13.762   7.942
 2253POPC   C4A31962  26.678  13.563   7.667
 2253POPC   C1B31963  26.441  13.446   8.610
 2253POPC   C2B31964  26.464  13.684   8.166
 2253POPC   C3B31965  26.435  13.985   7.792
 2253POPC   C4B31966  26.401  13.894   7.317
 2254POPC   NC331967  26.086  17.912   9.442
 2254POPC   PO431968  25.678  18.489   9.489
 2254POPC   GL131969  25.966  18.328   9.195
 2254POPC   GL231970  26.287  18.470   9.270
 2254POPC   C1A31971  25.985  18.191   8.754
 2254POPC   D2A31972  25.699  18.278   8.393
 2254POPC   C3A31973  25.876  18.147   8.002
 2254POPC   C4A31974  26.206  18.032   7.773
 2254POPC   C1B31975  26.121  18.662   8.877
 2254POPC   C2B31976  26.002  18.703   8.462
 2254POPC   C3B31977  25.892  18.672   8.046
 2254POPC   C4B31978  26.143  18.539   7.711
 2255POPC   NC331979  41.982  29.526   9.404
 2255POPC   PO431980  41.288  29.415   9.524
 2255POPC   GL131981  41.535  29.436   9.133
 2255POPC   GL231982  41.599  29.105   9.041
 2255POPC   C1A31983  41.905  29.417   8.791
 2255POPC   D2A31984  41.807  29.624   8.407
 2255POPC   C3A31985  41.601  29.491   8.067
 2255POPC   C4A31986  41.745  29.349   7.685
 2255POPC   C1B31987  41.456  29.277   8.628
 2255POPC   C2B31988  41.433  29.044   8.263
 2255POPC   C3B31989  41.321  29.106   7.870
 2255POPC   C4B31990  41.395  29.089   7.387
 2256POPC   NC331991  31.550  27.338   9.461
 2256POPC   PO431992  31.157  27.852   9.356
 2256POPC   GL131993  31.450  27.625   9.049
 2256POPC   GL231994  31.737  27.358   8.991
 2256POPC   C1A31995  31.592  27.714   8.647
 2256POPC   D2A31996  31.444  28.053   8.435
 2256POPC   C3A31997  31.466  27.863   8.097
 2256POPC   C4A31998  31.366  27.587   7.783
 2256POPC   C1B31999  31.387  27.232   8.714
 2256POPC   C2B32000  31.375  27.366   8.290
 2256POPC   C3B32001  31.694  27.277   7.971
 2256POPC   C4B32002  31.634  27.155   7.542
 2257POPC   NC332003  19.330  42.678   9.559
 2257POPC   PO432004  18.997  42.058   9.572
 2257POPC   GL132005  19.196  42.272   9.214
 2257POPC   GL232006  19.073  42.618   9.122
 2257POPC   C1A32007  19.293  42.321   8.774
 2257POPC   D2A32008  19.050  42.391   8.413
 2257POPC   C3A32009  19.225  42.208   8.036
 2257POPC   C4A32010  19.000  42.176   7.663
 2257POPC   C1B32011  18.751  42.753   8.789
 2257POPC   C2B32012  18.796  42.851   8.339
 2257POPC   C3B32013  19.017  42.678   7.970
 2257POPC   C4B32014  19.116  42.642   7.525
 2258POPC   NC332015  36.420  38.366   9.548
 2258POPC   PO432016  35.810  38.735   9.485
 2258POPC   GL132017  36.084  38.503   9.190
 2258POPC   GL232018  35.956  38.180   9.028
 2258POPC   C1A32019  36.211  38.567   8.785
 2258POPC   D2A32020  35.990  38.703   8.406
 2258POPC   C3A32021  36.197  38.548   8.065
 2258POPC   C4A32022  36.302  38.653   7.660
 2258POPC   C1B32023  36.010  38.181   8.558
 2258POPC   C2B32024  35.875  38.162   8.144
 2258POPC   C3B32025  36.091  38.164   7.727
 2258POPC   C4B32026  35.869  38.062   7.299
 2259POPC   NC332027  14.100  12.402   9.449
 2259POPC   PO432028  13.603  12.877   9.539
 2259POPC   GL132029  13.726  12.778   9.175
 2259POPC   GL232030  13.442  12.619   9.083
 2259POPC   C1A32031  13.842  12.867   8.763
 2259POPC   D2A32032  13.726  12.988   8.359
 2259POPC   C3A32033  13.725  12.867   7.889
 2259POPC   C4A32034  13.664  12.615   7.492
 2259POPC   C1B32035  13.338  12.880   8.719
 2259POPC   C2B32036  13.208  12.814   8.299
 2259POPC   C3B32037  13.285  12.574   7.925
 2259POPC   C4B32038  13.265  12.888   7.670
 2260POPC   NC332039  28.265  34.095   9.418
 2260POPC   PO432040  27.892  33.458   9.401
 2260POPC   GL132041  28.174  33.732   9.078
 2260POPC   GL232042  28.064  34.090   8.964
 2260POPC   C1A32043  28.469  33.885   8.729
 2260POPC   D2A32044  28.682  33.822   8.310
 2260POPC   C3A32045  28.381  33.647   7.957
 2260POPC   C4A32046  28.100  33.785   7.595
 2260POPC   C1B32047  28.026  34.156   8.553
 2260POPC   C2B32048  28.377  34.264   8.345
 2260POPC   C3B32049  28.356  34.144   7.970
 2260POPC   C4B32050  27.902  34.074   7.998
 2261POPC   NC332051   2.118  24.618   9.702
 2261POPC   PO432052   1.967  25.292   9.492
 2261POPC   GL132053   2.017  25.276   9.092
 2261POPC   GL232054   2.251  25.051   9.126
 2261POPC   C1A32055   1.876  25.392   8.695
 2261POPC   D2A32056   1.849  25.200   8.288
 2261POPC   C3A32057   1.921  25.468   7.938
 2261POPC   C4A32058   1.612  25.500   7.629
 2261POPC   C1B32059   2.114  24.949   8.701
 2261POPC   C2B32060   2.283  24.891   8.291
 2261POPC   C3B32061   2.130  24.980   7.881
 2261POPC   C4B32062   1.717  24.981   7.752
 2262POPC   NC332063  31.629  10.735   9.496
 2262POPC   PO432064  31.087  10.292   9.598
 2262POPC   GL132065  31.202  10.482   9.209
 2262POPC   GL232066  31.554  10.413   9.095
 2262POPC   C1A32067  31.200  10.540   8.753
 2262POPC   D2A32068  31.445  10.338   8.458
 2262POPC   C3A32069  31.339  10.458   8.057
 2262POPC   C4A32070  31.430  10.152   7.756
 2262POPC   C1B32071  31.676  10.691   8.773
 2262POPC   C2B32072  31.607  10.853   8.358
 2262POPC   C3B32073  31.792  10.866   7.973
 2262POPC   C4B32074  31.593  10.646   7.662
 2263POPC   NC332075  35.546  26.481   9.668
 2263POPC   PO432076  35.159  26.956   9.514
 2263POPC   GL132077  35.268  26.688   9.196
 2263POPC   GL232078  35.600  26.647   9.201
 2263POPC   C1A32079  35.195  26.772   8.777
 2263POPC   D2A32080  35.427  26.710   8.434
 2263POPC   C3A32081  35.215  26.714   8.032
 2263POPC   C4A32082  35.498  26.570   7.716
 2263POPC   C1B32083  35.627  27.030   8.946
 2263POPC   C2B32084  35.722  27.134   8.514
 2263POPC   C3B32085  35.564  27.082   8.098
 2263POPC   C4B32086  35.654  27.052   7.680
 2264POPC   NC332087  31.223  33.125   9.772
 2264POPC   PO432088  30.508  33.205   9.480
 2264POPC   GL132089  30.591  32.867   9.112
 2264POPC   GL232090  30.932  32.706   9.043
 2264POPC   C1A32091  30.405  33.001   8.717
 2264POPC   D2A32092  30.497  33.373   8.480
 2264POPC   C3A32093  30.597  33.196   8.114
 2264POPC   C4A32094  30.427  33.226   7.728
 2264POPC   C1B32095  30.922  33.039   8.703
 2264POPC   C2B32096  31.098  33.146   8.316
 2264POPC   C3B32097  31.051  33.238   7.886
 2264POPC   C4B32098  31.129  33.111   7.460
 2265POPC   NC332099  37.930   4.170   9.353
 2265POPC   PO432100  38.543   4.359   9.545
 2265POPC   GL132101  38.451   4.176   9.200
 2265POPC   GL232102  38.272   4.497   9.105
 2265POPC   C1A32103  38.564   4.205   8.789
 2265POPC   D2A32104  38.342   4.351   8.455
 2265POPC   C3A32105  38.476   4.141   8.084
 2265POPC   C4A32106  38.813   4.236   7.818
 2265POPC   C1B32107  38.074   4.716   8.770
 2265POPC   C2B32108  37.986   4.682   8.325
 2265POPC   C3B32109  38.345   4.650   8.035
 2265POPC   C4B32110  38.357   4.426   7.655
 2266POPC   NC332111   0.708  22.056   9.484
 2266POPC   PO432112   0.074  22.294   9.462
 2266POPC   GL132113   0.363  22.178   9.088
 2266POPC   GL232114   0.438  21.813   9.106
 2266POPC   C1A32115   0.627  22.188   8.667
 2266POPC   D2A32116   0.851  22.421   8.333
 2266POPC   C3A32117   0.650  22.426   7.922
 2266POPC   C4A32118   0.249  22.252   7.761
 2266POPC   C1B32119   0.231  21.868   8.694
 2266POPC   C2B32120   0.333  22.002   8.252
 2266POPC   C3B32121   0.359  21.756   7.865
 2266POPC   C4B32122   0.319  21.812   7.417
 2267POPC   NC332123  43.746  18.603   9.427
 2267POPC   PO432124  43.852  17.858   9.456
 2267POPC   GL132125  43.977  18.204   9.200
 2267POPC   GL232126  44.309  18.394   9.234
 2267POPC   C1A32127  43.786  18.216   8.798
 2267POPC   D2A32128  43.707  18.460   8.416
 2267POPC   C3A32129  43.762  18.271   8.032
 2267POPC   C4A32130  43.629  18.566   7.717
 2267POPC   C1B32131  44.321  18.198   8.826
 2267POPC   C2B32132  44.149  18.221   8.440
 2267POPC   C3B32133  44.297  18.246   8.065
 2267POPC   C4B32134  44.152  18.473   7.740
 2268POPC   NC332135  35.823  12.102   9.490
 2268POPC   PO432136  35.092  11.900   9.558
 2268POPC   GL132137  35.358  12.075   9.244
 2268POPC   GL232138  35.559  11.768   9.186
 2268POPC   C1A32139  35.435  12.192   8.827
 2268POPC   D2A32140  35.599  12.371   8.459
 2268POPC   C3A32141  35.644  12.088   8.126
 2268POPC   C4A32142  35.395  12.139   7.779
 2268POPC   C1B32143  35.281  11.713   8.842
 2268POPC   C2B32144  35.356  11.801   8.440
 2268POPC   C3B32145  35.207  11.729   8.034
 2268POPC   C4B32146  35.314  11.642   7.594
 2269POPC   NC332147  20.380  32.659   9.565
 2269POPC   PO432148  20.721  33.276   9.510
 2269POPC   GL132149  20.666  32.946   9.214
 2269POPC   GL232150  20.329  32.912   9.120
 2269POPC   C1A32151  20.683  32.858   8.761
 2269POPC   D2A32152  20.649  33.087   8.376
 2269POPC   C3A32153  20.577  32.947   7.965
 2269POPC   C4A32154  20.963  32.816   7.818
 2269POPC   C1B32155  20.249  33.139   8.725
 2269POPC   C2B32156  20.317  33.467   8.422
 2269POPC   C3B32157  20.386  33.469   7.991
 2269POPC   C4B32158  20.230  33.211   7.659
 2270POPC   NC332159   8.116  40.393   9.330
 2270POPC   PO432160   8.682  39.963   9.489
 2270POPC   GL132161   8.432  40.003   9.138
 2270POPC   GL232162   8.549  40.338   9.060
 2270POPC   C1A32163   8.194  39.782   8.786
 2270POPC   D2A32164   8.287  39.836   8.332
 2270POPC   C3A32165   8.242  39.766   7.887
 2270POPC   C4A32166   8.364  40.080   7.616
 2270POPC   C1B32167   8.401  40.244   8.668
 2270POPC   C2B32168   8.241  40.359   8.289
 2270POPC   C3B32169   8.004  40.211   7.985
 2270POPC   C4B32170   7.886  40.354   7.589
 2271POPC   NC332171  31.948  43.348   9.625
 2271POPC   PO432172  31.409  43.040   9.518
 2271POPC   GL132173  31.503  42.943   9.132
 2271POPC   GL232174  31.307  42.648   9.141
 2271POPC   C1A32175  31.555  43.045   8.715
 2271POPC   D2A32176  31.774  43.222   8.410
 2271POPC   C3A32177  31.555  43.090   8.106
 2271POPC   C4A32178  31.394  43.250   7.727
 2271POPC   C1B32179  31.275  42.604   8.703
 2271POPC   C2B32180  31.148  42.900   8.386
 2271POPC   C3B32181  31.168  42.841   7.949
 2271POPC   C4B32182  31.196  42.812   7.536
 2272POPC   NC332183   7.444   8.835   9.701
 2272POPC   PO432184   7.455   8.102   9.724
 2272POPC   GL132185   7.329   8.008   9.251
 2272POPC   GL232186   7.453   8.219   8.977
 2272POPC   C1A32187   7.265   7.773   8.859
 2272POPC   D2A32188   7.447   7.987   8.488
 2272POPC   C3A32189   7.222   8.006   8.085
 2272POPC   C4A32190   7.250   8.101   7.658
 2272POPC   C1B32191   7.397   8.497   8.619
 2272POPC   C2B32192   7.622   8.640   8.264
 2272POPC   C3B32193   7.586   8.477   7.854
 2272POPC   C4B32194   7.671   8.639   7.418
 2273POPC   NC332195  37.165   1.426   9.513
 2273POPC   PO432196  36.535   1.145   9.517
 2273POPC   GL132197  36.700   0.902   9.185
 2273POPC   GL232198  36.873   1.230   9.098
 2273POPC   C1A32199  36.934   0.835   8.786
 2273POPC   D2A32200  37.047   1.187   8.498
 2273POPC   C3A32201  36.840   1.144   8.102
 2273POPC   C4A32202  36.850   0.847   7.793
 2273POPC   C1B32203  37.107   1.565   8.886
 2273POPC   C2B32204  37.208   1.695   8.482
 2273POPC   C3B32205  37.201   1.501   8.111
 2273POPC   C4B32206  37.331   1.547   7.740
 2274POPC   NC332207  25.528   5.733   9.474
 2274POPC   PO432208  25.139   6.243   9.427
 2274POPC   GL132209  25.221   5.928   9.104
 2274POPC   GL232210  25.587   5.989   9.039
 2274POPC   C1A32211  25.077   5.728   8.709
 2274POPC   D2A32212  24.876   5.913   8.333
 2274POPC   C3A32213  24.796   5.704   7.933
 2274POPC   C4A32214  25.161   5.741   7.682
 2274POPC   C1B32215  25.595   5.655   8.745
 2274POPC   C2B32216  25.451   5.723   8.337
 2274POPC   C3B32217  25.617   5.773   7.943
 2274POPC   C4B32218  25.651   5.556   7.597
 2275POPC   NC332219   7.636  16.902   9.861
 2275POPC   PO432220   7.363  17.469   9.522
 2275POPC   GL132221   7.491  17.396   9.126
 2275POPC   GL232222   7.194  17.218   9.100
 2275POPC   C1A32223   7.453  17.333   8.688
 2275POPC   D2A32224   7.419  17.666   8.423
 2275POPC   C3A32225   7.337  17.561   8.041
 2275POPC   C4A32226   7.525  17.352   7.701
 2275POPC   C1B32227   7.121  17.671   8.878
 2275POPC   C2B32228   7.033  18.009   8.514
 2275POPC   C3B32229   6.848  18.001   8.067
 2275POPC   C4B32230   6.992  17.727   7.713
 2276POPC   NC332231  33.634  43.724   9.529
 2276POPC   PO432232  34.316  43.578   9.345
 2276POPC   GL132233  34.094  43.898   9.054
 2276POPC   GL232234  33.722  43.959   9.076
 2276POPC   C1A32235  33.967  43.947   8.634
 2276POPC   D2A32236  33.855  43.849   8.246
 2276POPC   C3A32237  34.143  44.012   7.921
 2276POPC   C4A32238  33.988  43.960   7.507
 2276POPC   C1B32239  33.526  43.622   8.790
 2276POPC   C2B32240  33.562  43.437   8.381
 2276POPC   C3B32241  33.462  43.645   7.985
 2276POPC   C4B32242  33.560  43.709   7.571
 2277POPC   NC332243  19.978  20.274   9.244
 2277POPC   PO432244  19.621  20.699   9.680
 2277POPC   GL132245  19.648  20.726   9.253
 2277POPC   GL232246  19.333  20.843   9.208
 2277POPC   C1A32247  19.629  20.672   8.789
 2277POPC   D2A32248  19.788  20.712   8.333
 2277POPC   C3A32249  20.031  20.366   8.098
 2277POPC   C4A32250  20.029  20.261   7.636
 2277POPC   C1B32251  19.305  21.062   8.822
 2277POPC   C2B32252  19.357  21.063   8.384
 2277POPC   C3B32253  19.539  21.019   7.976
 2277POPC   C4B32254  19.866  20.752   7.814
 2278POPC   NC332255  25.270  12.453   9.971
 2278POPC   PO432256  25.242  11.906   9.545
 2278POPC   GL132257  25.287  12.220   9.193
 2278POPC   GL232258  25.633  12.292   9.104
 2278POPC   C1A32259  25.056  12.264   8.767
 2278POPC   D2A32260  25.064  11.945   8.432
 2278POPC   C3A32261  25.020  12.094   8.016
 2278POPC   C4A32262  25.122  11.899   7.618
 2278POPC   C1B32263  25.529  12.112   8.710
 2278POPC   C2B32264  25.408  12.312   8.306
 2278POPC   C3B32265  25.516  12.076   7.942
 2278POPC   C4B32266  25.553  12.199   7.551
 2279POPC   NC332267  20.069  34.370   9.346
 2279POPC   PO432268  19.645  34.944   9.563
 2279POPC   GL132269  19.798  34.758   9.164
 2279POPC   GL232270  19.770  34.465   8.946
 2279POPC   C1A32271  20.075  34.806   8.772
 2279POPC   D2A32272  20.049  34.558   8.405
 2279POPC   C3A32273  19.817  34.605   8.038
 2279POPC   C4A32274  19.976  34.696   7.665
 2279POPC   C1B32275  19.455  34.312   8.692
 2279POPC   C2B32276  19.335  34.353   8.294
 2279POPC   C3B32277  19.404  34.340   7.876
 2279POPC   C4B32278  19.780  34.218   7.697
 2280POPC   NC332279  23.867  19.634   9.580
 2280POPC   PO432280  24.133  20.115   9.471
 2280POPC   GL132281  23.827  19.914   9.136
 2280POPC   GL232282  23.744  19.535   9.085
 2280POPC   C1A32283  23.791  19.830   8.664
 2280POPC   D2A32284  23.643  19.644   8.260
 2280POPC   C3A32285  23.774  19.911   7.913
 2280POPC   C4A32286  23.749  20.152   7.512
 2280POPC   C1B32287  23.848  19.315   8.658
 2280POPC   C2B32288  23.828  19.162   8.207
 2280POPC   C3B32289  23.945  19.424   7.827
 2280POPC   C4B32290  23.995  19.383   7.334
 2281POPC   NC332291  30.380  21.185   9.482
 2281POPC   PO432292  30.993  21.464   9.504
 2281POPC   GL132293  30.826  21.336   9.104
 2281POPC   GL232294  30.501  21.293   8.979
 2281POPC   C1A32295  30.905  21.501   8.690
 2281POPC   D2A32296  30.727  21.609   8.283
 2281POPC   C3A32297  30.932  21.401   7.934
 2281POPC   C4A32298  30.783  20.987   7.731
 2281POPC   C1B32299  30.558  21.783   8.914
 2281POPC   C2B32300  30.409  21.956   8.520
 2281POPC   C3B32301  30.251  21.807   8.119
 2281POPC   C4B32302  30.470  21.717   7.748
 2282POPC   NC332303  31.983  44.941   9.800
 2282POPC   PO432304  32.057  44.294   9.572
 2282POPC   GL132305  32.228  44.290   9.159
 2282POPC   GL232306  32.479  44.569   9.136
 2282POPC   C1A32307  32.042  44.353   8.746
 2282POPC   D2A32308  31.931  44.664   8.443
 2282POPC   C3A32309  32.162  44.792   8.097
 2282POPC   C4A32310  32.195  44.453   7.808
 2282POPC   C1B32311  32.350  44.748   8.732
 2282POPC   C2B32312  32.533  44.569   8.369
 2282POPC   C3B32313  32.657  44.689   7.964
 2282POPC   C4B32314  32.511   0.090   7.812
 2283POPC   NC332315   0.563  26.804   9.598
 2283POPC   PO432316  44.986  26.420   9.597
 2283POPC   GL132317   0.213  26.659   9.250
 2283POPC   GL232318   0.533  26.568   9.140
 2283POPC   C1A32319   0.315  27.036   8.970
 2283POPC   D2A32320   0.429  27.162   8.508
 2283POPC   C3A32321   0.410  26.833   8.138
 2283POPC   C4A32322   0.228  26.682   7.705
 2283POPC   C1B32323   0.458  26.624   8.680
 2283POPC   C2B32324   0.452  26.328   8.334
 2283POPC   C3B32325   0.587  26.382   7.907
 2283POPC   C4B32326   0.549  26.336   7.427
 2284POPC   NC332327  25.191   0.894   9.518
 2284POPC   PO432328  25.229   1.531   9.319
 2284POPC   GL132329  25.203   1.191   9.090
 2284POPC   GL232330  25.494   1.004   9.138
 2284POPC   C1A32331  25.085   1.224   8.689
 2284POPC   D2A32332  25.137   1.478   8.372
 2284POPC   C3A32333  25.070   1.301   7.990
 2284POPC   C4A32334  24.971   1.326   7.568
 2284POPC   C1B32335  25.429   0.872   8.747
 2284POPC   C2B32336  25.517   1.106   8.404
 2284POPC   C3B32337  25.467   1.008   8.048
 2284POPC   C4B32338  25.390   1.010   7.654
 2285POPC   NC332339  26.458  34.790   9.395
 2285POPC   PO432340  26.892  34.325   9.572
 2285POPC   GL132341  26.837  34.506   9.150
 2285POPC   GL232342  26.959  34.834   9.216
 2285POPC   C1A32343  26.645  34.409   8.698
 2285POPC   D2A32344  26.604  34.546   8.281
 2285POPC   C3A32345  26.581  34.305   7.922
 2285POPC   C4A32346  26.626  34.654   7.658
 2285POPC   C1B32347  26.729  34.896   8.808
 2285POPC   C2B32348  26.697  35.053   8.402
 2285POPC   C3B32349  26.815  34.964   8.005
 2285POPC   C4B32350  26.789  35.145   7.593
 2286POPC   NC332351  20.721  27.366   9.423
 2286POPC   PO432352  20.293  27.854   9.501
 2286POPC   GL132353  20.467  27.734   9.112
 2286POPC   GL232354  20.831  27.720   9.081
 2286POPC   C1A32355  20.500  27.444   8.753
 2286POPC   D2A32356  20.653  27.406   8.335
 2286POPC   C3A32357  20.436  27.509   7.884
 2286POPC   C4A32358  20.424  27.380   7.411
 2286POPC   C1B32359  20.987  27.616   8.698
 2286POPC   C2B32360  20.964  27.829   8.300
 2286POPC   C3B32361  20.946  27.553   7.959
 2286POPC   C4B32362  20.928  27.427   7.552
 2287POPC   NC332363  21.775   1.378   9.480
 2287POPC   PO432364  21.114   1.122   9.633
 2287POPC   GL132365  21.056   1.167   9.187
 2287POPC   GL232366  21.395   1.061   9.098
 2287POPC   C1A32367  21.214   1.403   8.782
 2287POPC   D2A32368  21.495   1.300   8.483
 2287POPC   C3A32369  21.361   1.358   8.084
 2287POPC   C4A32370  21.455   1.024   7.805
 2287POPC   C1B32371  21.066   0.891   8.791
 2287POPC   C2B32372  20.882   0.870   8.413
 2287POPC   C3B32373  20.999   0.964   8.010
 2287POPC   C4B32374  20.987   1.319   7.764
 2288POPC   NC332375  22.360  30.816   9.507
 2288POPC   PO432376  21.960  30.380   9.728
 2288POPC   GL132377  21.936  30.577   9.287
 2288POPC   GL232378  22.250  30.579   9.081
 2288POPC   C1A32379  21.845  30.706   8.821
 2288POPC   D2A32380  22.121  30.753   8.450
 2288POPC   C3A32381  21.963  30.908   8.048
 2288POPC   C4A32382  21.984  30.696   7.644
 2288POPC   C1B32383  22.402  30.331   8.744
 2288POPC   C2B32384  22.438  30.376   8.313
 2288POPC   C3B32385  22.377  30.614   7.983
 2288POPC   C4B32386  22.334  30.321   7.691
 2289POPC   NC332387  35.301  14.556   9.525
 2289POPC   PO432388  34.955  14.001   9.302
 2289POPC   GL132389  35.200  14.325   9.098
 2289POPC   GL232390  35.075  14.637   9.086
 2289POPC   C1A32391  35.516  14.280   8.762
 2289POPC   D2A32392  35.624  14.486   8.397
 2289POPC   C3A32393  35.479  14.610   8.016
 2289POPC   C4A32394  35.489  14.260   7.747
 2289POPC   C1B32395  35.028  14.337   8.651
 2289POPC   C2B32396  35.119  14.321   8.224
 2289POPC   C3B32397  34.983  14.109   7.893
 2289POPC   C4B32398  34.775  14.198   7.533
 2290POPC   NC332399  19.176  20.573   9.676
 2290POPC   PO432400  18.880  20.086   9.536
 2290POPC   GL132401  19.132  20.333   9.208
 2290POPC   GL232402  19.474  20.245   9.170
 2290POPC   C1A32403  19.070  20.597   8.834
 2290POPC   D2A32404  18.895  20.814   8.471
 2290POPC   C3A32405  18.947  20.700   8.030
 2290POPC   C4A32406  18.675  20.755   7.670
 2290POPC   C1B32407  19.391  20.227   8.728
 2290POPC   C2B32408  19.316  20.543   8.381
 2290POPC   C3B32409  19.421  20.530   7.953
 2290POPC   C4B32410  19.253  20.347   7.596
 2291POPC   NC332411  22.329  27.765   9.728
 2291POPC   PO432412  21.918  27.304   9.432
 2291POPC   GL132413  22.223  27.526   9.156
 2291POPC   GL232414  22.382  27.855   9.093
 2291POPC   C1A32415  22.093  27.611   8.735
 2291POPC   D2A32416  21.902  27.422   8.381
 2291POPC   C3A32417  21.706  27.706   8.152
 2291POPC   C4A32418  21.837  27.903   7.802
 2291POPC   C1B32419  22.617  27.682   8.726
 2291POPC   C2B32420  22.434  27.519   8.355
 2291POPC   C3B32421  22.240  27.694   8.013
 2291POPC   C4B32422  22.495  27.950   7.749
 2292POPC   NC332423   1.876   1.515   9.258
 2292POPC   PO432424   2.000   0.947   9.476
 2292POPC   GL132425   1.724   1.015   9.118
 2292POPC   GL232426   2.020   1.174   8.944
 2292POPC   C1A32427   1.684   1.017   8.648
 2292POPC   D2A32428   2.086   1.055   8.441
 2292POPC   C3A32429   2.006   1.166   8.045
 2292POPC   C4A32430   2.082   0.946   7.659
 2292POPC   C1B32431   2.007   1.524   8.645
 2292POPC   C2B32432   2.113   1.621   8.267
 2292POPC   C3B32433   1.769   1.634   8.010
 2292POPC   C4B32434   1.756   1.339   7.645
 2293POPC   NC332435  35.845  35.108   9.569
 2293POPC   PO432436  36.408  35.380   9.563
 2293POPC   GL132437  36.256  35.400   9.138
 2293POPC   GL232438  35.887  35.437   9.156
 2293POPC   C1A32439  36.428  35.447   8.708
 2293POPC   D2A32440  36.181  35.482   8.347
 2293POPC   C3A32441  36.376  35.351   7.976
 2293POPC   C4A32442  36.359  35.447   7.536
 2293POPC   C1B32443  35.965  35.237   8.756
 2293POPC   C2B32444  35.758  35.151   8.386
 2293POPC   C3B32445  35.768  35.333   7.985
 2293POPC   C4B32446  35.979  35.101   7.701
 2294POPC   NC332447  36.556  41.756   9.391
 2294POPC   PO432448  36.962  41.219   9.537
 2294POPC   GL132449  37.071  41.493   9.196
 2294POPC   GL232450  36.744  41.469   9.028
 2294POPC   C1A32451  37.126  41.701   8.782
 2294POPC   D2A32452  36.858  41.603   8.411
 2294POPC   C3A32453  37.118  41.599   8.048
 2294POPC   C4A32454  37.098  41.869   7.680
 2294POPC   C1B32455  36.563  41.172   8.775
 2294POPC   C2B32456  36.624  41.124   8.357
 2294POPC   C3B32457  36.741  41.259   7.992
 2294POPC   C4B32458  36.781  41.496   7.635
 2295POPC   NC332459  36.587  37.746   9.504
 2295POPC   PO432460  37.265  37.473   9.569
 2295POPC   GL132461  37.035  37.683   9.229
 2295POPC   GL232462  36.772  37.433   9.151
 2295POPC   C1A32463  37.092  37.904   8.821
 2295POPC   D2A32464  36.916  37.979   8.414
 2295POPC   C3A32465  37.019  37.737   8.112
 2295POPC   C4A32466  37.218  37.847   7.753
 2295POPC   C1B32467  36.668  37.634   8.813
 2295POPC   C2B32468  36.585  37.600   8.389
 2295POPC   C3B32469  36.517  37.908   8.063
 2295POPC   C4B32470  36.686  37.687   7.735
 2296POPC   NC332471  38.604  32.553   9.461
 2296POPC   PO432472  38.396  31.894   9.468
 2296POPC   GL132473  38.438  32.161   9.173
 2296POPC   GL232474  38.790  32.172   9.207
 2296POPC   C1A32475  38.495  32.168   8.745
 2296POPC   D2A32476  38.461  32.019   8.292
 2296POPC   C3A32477  38.288  32.216   7.929
 2296POPC   C4A32478  38.519  32.224   7.550
 2296POPC   C1B32479  38.908  32.460   8.877
 2296POPC   C2B32480  38.852  32.339   8.437
 2296POPC   C3B32481  38.758  32.373   8.036
 2296POPC   C4B32482  38.803  32.626   7.683
 2297POPC   NC332483  40.458  41.679   9.550
 2297POPC   PO432484  41.008  41.182   9.499
 2297POPC   GL132485  40.791  41.491   9.177
 2297POPC   GL232486  40.546  41.770   9.063
 2297POPC   C1A32487  40.899  41.497   8.753
 2297POPC   D2A32488  41.056  41.185   8.453
 2297POPC   C3A32489  40.870  41.303   8.092
 2297POPC   C4A32490  40.934  41.648   7.777
 2297POPC   C1B32491  40.452  41.710   8.639
 2297POPC   C2B32492  40.476  41.612   8.211
 2297POPC   C3B32493  40.449  41.845   7.856
 2297POPC   C4B32494  40.348  41.868   7.410
 2298POPC   NC332495  36.276   1.567   9.524
 2298POPC   PO432496  35.838   1.030   9.488
 2298POPC   GL132497  36.151   1.187   9.181
 2298POPC   GL232498  35.951   1.479   9.146
 2298POPC   C1A32499  36.361   1.041   8.800
 2298POPC   D2A32500  36.134   1.099   8.401
 2298POPC   C3A32501  36.335   1.210   8.026
 2298POPC   C4A32502  36.345   0.902   7.715
 2298POPC   C1B32503  36.117   1.498   8.729
 2298POPC   C2B32504  36.081   1.602   8.259
 2298POPC   C3B32505  35.904   1.430   7.819
 2298POPC   C4B32506  35.966   1.592   7.374
 2299POPC   NC332507  34.319  34.830   9.488
 2299POPC   PO432508  34.688  34.342   9.459
 2299POPC   GL132509  34.422  34.493   9.107
 2299POPC   GL232510  34.466  34.863   9.031
 2299POPC   C1A32511  34.369  34.541   8.653
 2299POPC   D2A32512  34.204  34.213   8.382
 2299POPC   C3A32513  34.341  34.360   7.971
 2299POPC   C4A32514  34.371  34.609   7.596
 2299POPC   C1B32515  34.749  34.927   8.750
 2299POPC   C2B32516  34.804  34.750   8.395
 2299POPC   C3B32517  35.002  34.772   8.033
 2299POPC   C4B32518  34.855  34.536   7.717
 2300POPC   NC332519  39.745  13.904   9.511
 2300POPC   PO432520  39.822  14.515   9.850
 2300POPC   GL132521  39.931  14.474   9.345
 2300POPC   GL232522  40.069  14.189   9.215
 2300POPC   C1A32523  39.999  14.510   8.837
 2300POPC   D2A32524  39.857  14.366   8.399
 2300POPC   C3A32525  39.983  14.535   7.975
 2300POPC   C4A32526  40.196  14.690   7.610
 2300POPC   C1B32527  40.115  13.958   8.842
 2300POPC   C2B32528  40.057  13.854   8.399
 2300POPC   C3B32529  40.055  14.005   7.950
 2300POPC   C4B32530  40.100  14.080   7.485
 2301POPC   NC332531   5.837  39.384   9.653
 2301POPC   PO432532   6.295  38.905   9.491
 2301POPC   GL132533   6.063  39.226   9.226
 2301POPC   GL232534   5.687  39.172   9.213
 2301POPC   C1A32535   5.959  39.424   8.838
 2301POPC   D2A32536   6.049  39.282   8.429
 2301POPC   C3A32537   5.916  39.461   8.033
 2301POPC   C4A32538   5.990  39.294   7.606
 2301POPC   C1B32539   5.668  38.994   8.758
 2301POPC   C2B32540   5.605  39.040   8.293
 2301POPC   C3B32541   5.569  39.155   7.842
 2301POPC   C4B32542   5.590  39.113   7.360
 2302POPC   NC332543  27.300  41.492   9.562
 2302POPC   PO432544  27.711  41.912   9.717
 2302POPC   GL132545  27.639  41.689   9.267
 2302POPC   GL232546  27.339  41.881   9.193
 2302POPC   C1A32547  27.779  41.573   8.825
 2302POPC   D2A32548  27.906  41.723   8.399
 2302POPC   C3A32549  27.744  41.489   8.039
 2302POPC   C4A32550  27.651  41.639   7.585
 2302POPC   C1B32551  27.278  41.724   8.813
 2302POPC   C2B32552  27.408  41.546   8.443
 2302POPC   C3B32553  27.228  41.351   8.115
 2302POPC   C4B32554  27.181  41.454   7.700
 2303POPC   NC332555  43.345  22.726   9.440
 2303POPC   PO432556  42.667  22.715   9.143
 2303POPC   GL132557  43.024  22.900   9.074
 2303POPC   GL232558  43.165  23.183   9.236
 2303POPC   C1A32559  43.299  22.804   8.781
 2303POPC   D2A32560  43.276  22.851   8.380
 2303POPC   C3A32561  43.043  22.670   8.142
 2303POPC   C4A32562  43.072  22.743   7.720
 2303POPC   C1B32563  43.206  23.295   8.791
 2303POPC   C2B32564  43.465  23.301   8.420
 2303POPC   C3B32565  43.297  23.205   7.981
 2303POPC   C4B32566  43.584  23.212   7.629
 2304POPC   NC332567   6.895  37.385   9.559
 2304POPC   PO432568   6.434  36.964   9.425
 2304POPC   GL132569   6.650  37.159   9.132
 2304POPC   GL232570   6.889  36.880   9.129
 2304POPC   C1A32571   6.778  37.196   8.711
 2304POPC   D2A32572   6.661  36.921   8.377
 2304POPC   C3A32573   6.738  37.127   8.006
 2304POPC   C4A32574   6.545  37.049   7.639
 2304POPC   C1B32575   6.992  36.707   8.716
 2304POPC   C2B32576   7.032  36.505   8.296
 2304POPC   C3B32577   6.756  36.606   7.952
 2304POPC   C4B32578   6.292  36.653   7.826
 2305POPC   NC332579  14.970   6.343   9.336
 2305POPC   PO432580  15.554   6.671   9.494
 2305POPC   GL132581  15.369   6.851   9.108
 2305POPC   GL232582  14.991   6.824   9.079
 2305POPC   C1A32583  15.435   6.973   8.677
 2305POPC   D2A32584  15.372   6.730   8.301
 2305POPC   C3A32585  15.441   6.928   7.895
 2305POPC   C4A32586  15.330   6.718   7.502
 2305POPC   C1B32587  15.104   6.537   8.717
 2305POPC   C2B32588  14.868   6.446   8.324
 2305POPC   C3B32589  15.007   6.647   7.930
 2305POPC   C4B32590  14.795   6.849   7.593
 2306POPC   NC332591   0.781  16.995   9.347
 2306POPC   PO432592   0.251  16.616   9.520
 2306POPC   GL132593   0.518  16.583   9.191
 2306POPC   GL232594   0.464  16.230   9.160
 2306POPC   C1A32595   0.551  16.840   8.778
 2306POPC   D2A32596   0.274  16.833   8.399
 2306POPC   C3A32597   0.446  16.989   8.009
 2306POPC   C4A32598   0.538  16.781   7.632
 2306POPC   C1B32599   0.229  16.471   8.793
 2306POPC   C2B32600   0.503  16.358   8.457
 2306POPC   C3B32601   0.560  16.453   8.034
 2306POPC   C4B32602   0.469  16.294   7.641
 2307POPC   NC332603   7.984  18.707   9.453
 2307POPC   PO432604   8.207  18.002   9.519
 2307POPC   GL132605   8.134  18.162   9.088
 2307POPC   GL232606   8.160  18.504   9.019
 2307POPC   C1A32607   7.980  18.101   8.652
 2307POPC   D2A32608   7.781  17.996   8.248
 2307POPC   C3A32609   7.973  18.210   7.915
 2307POPC   C4A32610   8.388  18.277   7.761
 2307POPC   C1B32611   8.365  18.449   8.623
 2307POPC   C2B32612   8.468  18.525   8.202
 2307POPC   C3B32613   8.391  18.809   7.848
 2307POPC   C4B32614   8.343  18.684   7.418
 2308POPC   NC332615  42.643  42.947   9.529
 2308POPC   PO432616  42.157  43.434   9.520
 2308POPC   GL132617  42.325  43.192   9.213
 2308POPC   GL232618  42.673  43.297   9.159
 2308POPC   C1A32619  42.177  43.023   8.856
 2308POPC   D2A32620  42.083  43.093   8.442
 2308POPC   C3A32621  42.245  42.895   8.070
 2308POPC   C4A32622  42.096  43.073   7.677
 2308POPC   C1B32623  42.752  43.112   8.776
 2308POPC   C2B32624  42.593  43.111   8.403
 2308POPC   C3B32625  42.738  43.115   8.032
 2308POPC   C4B32626  42.601  43.018   7.679
 2309POPC   NC332627  22.720  28.257   9.438
 2309POPC   PO432628  23.187  28.769   9.604
 2309POPC   GL132629  23.219  28.540   9.159
 2309POPC   GL232630  23.226  28.179   9.129
 2309POPC   C1A32631  23.209  28.433   8.684
 2309POPC   D2A32632  22.955  28.575   8.346
 2309POPC   C3A32633  23.113  28.675   7.917
 2309POPC   C4A32634  22.930  28.678   7.471
 2309POPC   C1B32635  22.834  28.132   8.829
 2309POPC   C2B32636  22.696  28.099   8.393
 2309POPC   C3B32637  22.865  28.211   7.990
 2309POPC   C4B32638  23.009  28.002   7.634
 2310POPC   NC332639  30.922  15.547   9.422
 2310POPC   PO432640  30.622  16.075   9.533
 2310POPC   GL132641  30.652  15.922   9.153
 2310POPC   GL232642  31.008  15.952   9.130
 2310POPC   C1A32643  30.722  16.154   8.757
 2310POPC   D2A32644  30.542  16.115   8.345
 2310POPC   C3A32645  30.496  16.350   7.987
 2310POPC   C4A32646  30.436  15.933   7.800
 2310POPC   C1B32647  30.886  15.669   8.781
 2310POPC   C2B32648  30.984  15.859   8.398
 2310POPC   C3B32649  30.912  16.020   7.978
 2310POPC   C4B32650  30.880  15.921   7.543
 2311POPC   NC332651  16.922  44.959   9.786
 2311POPC   PO432652  16.517   0.459   9.535
 2311POPC   GL132653  16.732   0.484   9.172
 2311POPC   GL232654  16.482   0.244   9.043
 2311POPC   C1A32655  16.946   0.178   8.875
 2311POPC   D2A32656  16.684   0.044   8.518
 2311POPC   C3A32657  16.746   0.221   8.103
 2311POPC   C4A32658  16.890   0.548   7.871
 2311POPC   C1B32659  16.554   0.528   8.673
 2311POPC   C2B32660  16.343   0.689   8.285
 2311POPC   C3B32661  16.376   0.545   7.871
 2311POPC   C4B32662  16.385   0.139   7.633
 2312POPC   NC332663  42.183  41.274   9.443
 2312POPC   PO432664  42.596  41.748   9.495
 2312POPC   GL132665  42.602  41.698   9.061
 2312POPC   GL232666  42.344  41.455   9.010
 2312POPC   C1A32667  42.624  41.582   8.615
 2312POPC   D2A32668  42.836  41.668   8.223
 2312POPC   C3A32669  42.531  41.777   7.901
 2312POPC   C4A32670  42.311  41.779   7.487
 2312POPC   C1B32671  42.141  41.364   8.618
 2312POPC   C2B32672  42.311  41.423   8.217
 2312POPC   C3B32673  42.264  41.371   7.784
 2312POPC   C4B32674  41.965  41.113   7.609
 2313POPC   NC332675   2.712  44.397   9.446
 2313POPC   PO432676   2.387   0.025   9.489
 2313POPC   GL132677   2.657  44.815   9.161
 2313POPC   GL232678   2.989  44.942   9.043
 2313POPC   C1A32679   2.624  44.824   8.725
 2313POPC   D2A32680   2.473  44.920   8.335
 2313POPC   C3A32681   2.577  44.578   8.128
 2313POPC   C4A32682   2.665  44.616   7.723
 2313POPC   C1B32683   2.981  44.489   8.843
 2313POPC   C2B32684   2.953  44.327   8.418
 2313POPC   C3B32685   3.072  44.602   8.073
 2313POPC   C4B32686   3.163  44.517   7.657
 2314POPC   NC332687  33.760  11.474   9.479
 2314POPC   PO432688  34.385  11.201   9.447
 2314POPC   GL132689  34.031  10.981   9.220
 2314POPC   GL232690  33.644  10.973   9.291
 2314POPC   C1A32691  33.870  11.189   8.849
 2314POPC   D2A32692  34.048  11.422   8.502
 2314POPC   C3A32693  33.791  11.455   8.145
 2314POPC   C4A32694  33.932  11.129   7.934
 2314POPC   C1B32695  33.394  10.958   8.893
 2314POPC   C2B32696  33.512  11.124   8.475
 2314POPC   C3B32697  33.418  11.021   8.053
 2314POPC   C4B32698  33.502  11.272   7.726
 2315POPC   NC332699  33.839   9.934   9.620
 2315POPC   PO432700  33.813  10.606   9.646
 2315POPC   GL132701  33.806  10.488   9.227
 2315POPC   GL232702  33.580  10.199   9.231
 2315POPC   C1A32703  33.809  10.686   8.802
 2315POPC   D2A32704  33.948  10.852   8.387
 2315POPC   C3A32705  33.778  10.658   8.001
 2315POPC   C4A32706  33.830  10.766   7.521
 2315POPC   C1B32707  33.831  10.183   8.832
 2315POPC   C2B32708  33.823  10.321   8.434
 2315POPC   C3B32709  33.740  10.148   8.066
 2315POPC   C4B32710  33.735  10.276   7.660
 2316POPC   NC332711  27.698  36.284   9.509
 2316POPC   PO432712  27.153  35.811   9.560
 2316POPC   GL132713  27.513  35.886   9.230
 2316POPC   GL232714  27.539  36.232   9.042
 2316POPC   C1A32715  27.651  35.832   8.785
 2316POPC   D2A32716  27.532  36.107   8.442
 2316POPC   C3A32717  27.647  35.988   7.998
 2316POPC   C4A32718  27.814  36.036   7.555
 2316POPC   C1B32719  27.924  36.293   8.757
 2316POPC   C2B32720  27.986  36.276   8.287
 2316POPC   C3B32721  27.925  36.428   7.836
 2316POPC   C4B32722  27.954  36.459   7.326
 2317POPC   NC332723  11.424   8.598   9.449
 2317POPC   PO432724  11.180   7.967   9.508
 2317POPC   GL132725  11.442   8.172   9.151
 2317POPC   GL232726  11.737   8.453   9.091
 2317POPC   C1A32727  11.434   8.156   8.720
 2317POPC   D2A32728  11.125   8.202   8.404
 2317POPC   C3A32729  11.286   7.986   8.056
 2317POPC   C4A32730  11.218   7.783   7.659
 2317POPC   C1B32731  11.704   8.597   8.661
 2317POPC   C2B32732  11.581   8.450   8.271
 2317POPC   C3B32733  11.566   8.610   7.847
 2317POPC   C4B32734  11.407   8.538   7.404
 2318POPC   NC332735  24.023  17.049   9.452
 2318POPC   PO432736  23.842  16.379   9.435
 2318POPC   GL132737  23.735  16.475   9.064
 2318POPC   GL232738  23.675  16.824   9.106
 2318POPC   C1A32739  23.728  16.376   8.642
 2318POPC   D2A32740  23.497  16.559   8.301
 2318POPC   C3A32741  23.650  16.586   7.879
 2318POPC   C4A32742  23.935  16.744   7.562
 2318POPC   C1B32743  23.770  16.873   8.671
 2318POPC   C2B32744  23.685  17.088   8.266
 2318POPC   C3B32745  23.833  17.199   7.840
 2318POPC   C4B32746  23.898  17.221   7.387
 2319POPC   NC332747  33.739  35.757   9.506
 2319POPC   PO432748  34.065  35.204   9.339
 2319POPC   GL132749  33.758  35.423   9.125
 2319POPC   GL232750  33.995  35.528   8.878
 2319POPC   C1A32751  33.485  35.607   8.801
 2319POPC   D2A32752  33.454  35.493   8.353
 2319POPC   C3A32753  33.861  35.514   8.173
 2319POPC   C4A32754  33.965  35.615   7.774
 2319POPC   C1B32755  33.721  35.167   8.696
 2319POPC   C2B32756  33.682  35.037   8.283
 2319POPC   C3B32757  33.826  35.075   7.872
 2319POPC   C4B32758  34.213  35.182   7.703
 2320POPC   NC332759   2.562  13.923   9.446
 2320POPC   PO432760   2.605  13.277   9.709
 2320POPC   GL132761   2.797  13.429   9.278
 2320POPC   GL232762   2.554  13.544   9.085
 2320POPC   C1A32763   2.967  13.611   8.804
 2320POPC   D2A32764   2.968  13.717   8.315
 2320POPC   C3A32765   2.842  13.420   7.952
 2320POPC   C4A32766   2.771  13.384   7.468
 2320POPC   C1B32767   2.469  13.681   8.682
 2320POPC   C2B32768   2.460  13.951   8.372
 2320POPC   C3B32769   2.559  13.837   7.997
 2320POPC   C4B32770   2.380  13.552   7.726
 2321POPC   NC332771   4.899  28.319   9.388
 2321POPC   PO432772   5.546  28.224   9.450
 2321POPC   GL132773   5.330  28.491   9.161
 2321POPC   GL232774   5.228  28.831   9.260
 2321POPC   C1A32775   5.049  28.481   8.786
 2321POPC   D2A32776   4.994  28.141   8.496
 2321POPC   C3A32777   5.216  28.153   8.123
 2321POPC   C4A32778   4.969  28.342   7.834
 2321POPC   C1B32779   5.395  28.857   8.827
 2321POPC   C2B32780   5.282  28.724   8.390
 2321POPC   C3B32781   5.340  28.661   7.939
 2321POPC   C4B32782   5.091  28.691   7.514
 2322POPC   NC332783  36.820   3.062   9.482
 2322POPC   PO432784  37.252   2.535   9.521
 2322POPC   GL132785  37.073   2.678   9.146
 2322POPC   GL232786  36.746   2.720   9.106
 2322POPC   C1A32787  37.007   2.470   8.751
 2322POPC   D2A32788  37.081   2.651   8.347
 2322POPC   C3A32789  36.985   2.968   8.066
 2322POPC   C4A32790  37.116   2.836   7.679
 2322POPC   C1B32791  36.763   2.906   8.698
 2322POPC   C2B32792  36.547   3.053   8.321
 2322POPC   C3B32793  36.372   2.843   7.990
 2322POPC   C4B32794  36.611   2.914   7.633
 2323POPC   NC332795  10.630  38.036   9.317
 2323POPC   PO432796  10.726  38.746   9.451
 2323POPC   GL132797  10.568  38.517   9.110
 2323POPC   GL232798  10.257  38.350   9.145
 2323POPC   C1A32799  10.579  38.324   8.714
 2323POPC   D2A32800  10.482  38.483   8.320
 2323POPC   C3A32801  10.776  38.443   8.014
 2323POPC   C4A32802  10.937  38.116   7.776
 2323POPC   C1B32803  10.127  38.638   8.817
 2323POPC   C2B32804  10.103  38.809   8.399
 2323POPC   C3B32805  10.299  38.782   7.963
 2323POPC   C4B32806  10.410  38.457   7.675
 2324POPC   NC332807  13.916  15.801   9.481
 2324POPC   PO432808  13.538  16.424   9.519
 2324POPC   GL132809  13.597  16.190   9.156
 2324POPC   GL232810  13.483  15.859   9.166
 2324POPC   C1A32811  13.864  16.025   8.823
 2324POPC   D2A32812  13.845  15.840   8.414
 2324POPC   C3A32813  13.791  16.158   8.102
 2324POPC   C4A32814  13.790  16.085   7.673
 2324POPC   C1B32815  13.432  15.693   8.762
 2324POPC   C2B32816  13.339  15.814   8.336
 2324POPC   C3B32817  13.546  15.727   7.930
 2324POPC   C4B32818  13.383  15.802   7.475
 2325POPC   NC332819   2.357  36.963   9.545
 2325POPC   PO432820   3.087  36.818   9.487
 2325POPC   GL132821   2.841  36.956   9.091
 2325POPC   GL232822   2.469  37.092   9.069
 2325POPC   C1A32823   2.961  36.829   8.651
 2325POPC   D2A32824   2.933  36.521   8.269
 2325POPC   C3A32825   3.115  36.665   7.833
 2325POPC   C4A32826   3.056  36.428   7.411
 2325POPC   C1B32827   2.451  36.726   8.810
 2325POPC   C2B32828   2.523  36.789   8.392
 2325POPC   C3B32829   2.651  36.867   8.003
 2325POPC   C4B32830   2.537  37.191   7.756
 2326POPC   NC332831  14.236  40.633   9.471
 2326POPC   PO432832  13.979  41.209   9.427
 2326POPC   GL132833  14.204  41.030   9.112
 2326POPC   GL232834  14.526  40.866   9.115
 2326POPC   C1A32835  14.143  40.743   8.801
 2326POPC   D2A32836  14.342  40.680   8.424
 2326POPC   C3A32837  14.185  40.781   8.028
 2326POPC   C4A32838  14.424  40.499   7.829
 2326POPC   C1B32839  14.512  41.081   8.700
 2326POPC   C2B32840  14.431  41.167   8.245
 2326POPC   C3B32841  14.533  41.070   7.789
 2326POPC   C4B32842  14.435  41.267   7.363
 2327POPC   NC332843  25.297  32.527   9.421
 2327POPC   PO432844  25.000  31.909   9.533
 2327POPC   GL132845  25.115  32.112   9.126
 2327POPC   GL232846  25.038  32.462   8.988
 2327POPC   C1A32847  25.398  32.132   8.755
 2327POPC   D2A32848  25.584  32.039   8.340
 2327POPC   C3A32849  25.229  32.002   8.066
 2327POPC   C4A32850  25.163  31.991   7.599
 2327POPC   C1B32851  25.331  32.652   8.720
 2327POPC   C2B32852  25.335  32.492   8.322
 2327POPC   C3B32853  25.234  32.499   7.932
 2327POPC   C4B32854  24.889  32.412   7.703
 2328POPC   NC332855  20.800  43.511   9.767
 2328POPC   PO432856  20.476  42.934   9.464
 2328POPC   GL132857  20.685  42.919   9.100
 2328POPC   GL232858  20.809  43.181   8.946
 2328POPC   C1A32859  20.742  42.701   8.775
 2328POPC   D2A32860  20.674  42.906   8.426
 2328POPC   C3A32861  20.733  42.741   8.040
 2328POPC   C4A32862  20.790  43.027   7.706
 2328POPC   C1B32863  20.700  43.456   8.673
 2328POPC   C2B32864  20.868  43.353   8.304
 2328POPC   C3B32865  20.627  43.474   8.013
 2328POPC   C4B32866  20.690  43.562   7.629
 2329POPC   NC332867  44.294  20.220   9.544
 2329POPC   PO432868  44.888  19.864   9.567
 2329POPC   GL132869  44.746  19.840   9.171
 2329POPC   GL232870  44.381  19.849   9.205
 2329POPC   C1A32871  44.620  19.763   8.754
 2329POPC   D2A32872  44.496  19.900   8.389
 2329POPC   C3A32873  44.812  19.943   8.131
 2329POPC   C4A32874  44.887  19.982   7.734
 2329POPC   C1B32875  44.316  20.165   8.860
 2329POPC   C2B32876  44.334  20.381   8.461
 2329POPC   C3B32877  44.318  20.232   8.036
 2329POPC   C4B32878  44.387  19.963   7.707
 2330POPC   NC332879   5.736   7.367   9.516
 2330POPC   PO432880   6.355   7.648   9.448
 2330POPC   GL132881   5.998   7.576   9.124
 2330POPC   GL232882   5.610   7.599   9.085
 2330POPC   C1A32883   5.893   7.273   8.780
 2330POPC   D2A32884   5.983   7.153   8.352
 2330POPC   C3A32885   5.902   7.403   7.997
 2330POPC   C4A32886   5.629   7.357   7.656
 2330POPC   C1B32887   5.407   7.506   8.724
 2330POPC   C2B32888   5.536   7.512   8.333
 2330POPC   C3B32889   5.447   7.716   7.975
 2330POPC   C4B32890   5.398   7.834   7.522
 2331POPC   NC332891  22.450   5.786   9.445
 2331POPC   PO432892  21.827   5.683   9.530
 2331POPC   GL132893  21.821   5.672   9.095
 2331POPC   GL232894  21.939   6.002   9.135
 2331POPC   C1A32895  21.952   5.734   8.645
 2331POPC   D2A32896  22.354   5.759   8.406
 2331POPC   C3A32897  22.268   5.925   8.035
 2331POPC   C4A32898  21.869   5.703   8.025
 2331POPC   C1B32899  21.928   6.240   8.785
 2331POPC   C2B32900  22.063   6.209   8.401
 2331POPC   C3B32901  22.069   6.475   8.083
 2331POPC   C4B32902  21.881   6.446   7.687
 2332POPC   NC332903  24.279  15.163   9.359
 2332POPC   PO432904  24.383  15.845   9.423
 2332POPC   GL132905  24.426  15.576   9.062
 2332POPC   GL232906  24.708  15.390   9.162
 2332POPC   C1A32907  24.363  15.223   8.713
 2332POPC   D2A32908  24.234  14.984   8.319
 2332POPC   C3A32909  24.292  15.155   7.921
 2332POPC   C4A32910  24.375  15.519   7.728
 2332POPC   C1B32911  24.845  15.100   8.856
 2332POPC   C2B32912  24.704  14.884   8.509
 2332POPC   C3B32913  24.717  14.897   8.093
 2332POPC   C4B32914  24.766  14.701   7.724
 2333POPC   NC332915  33.371  16.590   9.450
 2333POPC   PO432916  34.028  16.888   9.513
 2333POPC   GL132917  33.764  16.785   9.189
 2333POPC   GL232918  33.544  17.030   9.293
 2333POPC   C1A32919  33.612  16.603   8.798
 2333POPC   D2A32920  33.519  16.486   8.366
 2333POPC   C3A32921  33.729  16.647   7.995
 2333POPC   C4A32922  33.565  16.457   7.620
 2333POPC   C1B32923  33.454  17.098   8.867
 2333POPC   C2B32924  33.555  17.016   8.454
 2333POPC   C3B32925  33.550  17.166   8.053
 2333POPC   C4B32926  33.508  16.970   7.680
 2334POPC   NC332927   9.979  24.326   9.663
 2334POPC   PO432928   9.437  24.284   9.552
 2334POPC   GL132929   9.748  24.366   9.188
 2334POPC   GL232930   9.804  24.716   9.185
 2334POPC   C1A32931  10.061  24.455   8.828
 2334POPC   D2A32932  10.191  24.530   8.379
 2334POPC   C3A32933   9.913  24.289   8.114
 2334POPC   C4A32934   9.888  24.180   7.684
 2334POPC   C1B32935   9.629  24.722   8.741
 2334POPC   C2B32936   9.607  24.680   8.276
 2334POPC   C3B32937   9.553  24.816   7.844
 2334POPC   C4B32938   9.478  25.166   7.592
 2335POPC   NC332939  34.844  26.616   9.459
 2335POPC   PO432940  34.389  27.032   9.387
 2335POPC   GL132941  34.458  26.636   9.133
 2335POPC   GL232942  34.189  26.520   8.983
 2335POPC   C1A32943  34.646  26.572   8.730
 2335POPC   D2A32944  34.835  26.818   8.397
 2335POPC   C3A32945  34.675  26.729   8.006
 2335POPC   C4A32946  34.726  26.909   7.598
 2335POPC   C1B32947  34.060  26.781   8.641
 2335POPC   C2B32948  34.180  26.767   8.197
 2335POPC   C3B32949  34.262  26.932   7.781
 2335POPC   C4B32950  34.264  26.740   7.332
 2336POPC   NC332951   2.634  15.359   9.496
 2336POPC   PO432952   2.947  14.811   9.654
 2336POPC   GL132953   2.920  15.002   9.195
 2336POPC   GL232954   2.860  15.351   9.039
 2336POPC   C1A32955   3.080  15.035   8.750
 2336POPC   D2A32956   2.996  15.315   8.427
 2336POPC   C3A32957   3.158  15.107   8.091
 2336POPC   C4A32958   2.951  15.040   7.738
 2336POPC   C1B32959   2.591  15.219   8.699
 2336POPC   C2B32960   2.379  15.262   8.324
 2336POPC   C3B32961   2.463  15.198   7.895
 2336POPC   C4B32962   2.247  15.051   7.540
 2337POPC   NC332963  27.325  42.171   9.602
 2337POPC   PO432964  27.862  42.143   9.225
 2337POPC   GL132965  27.715  42.471   8.978
 2337POPC   GL232966  27.389  42.523   9.150
 2337POPC   C1A32967  27.922  42.517   8.570
 2337POPC   D2A32968  27.797  42.236   8.243
 2337POPC   C3A32969  27.414  42.394   8.032
 2337POPC   C4A32970  27.340  42.438   7.602
 2337POPC   C1B32971  27.243  42.256   8.808
 2337POPC   C2B32972  27.360  42.051   8.415
 2337POPC   C3B32973  27.419  41.883   7.977
 2337POPC   C4B32974  27.221  41.938   7.539
 2338POPC   NC332975  31.592  29.267   9.658
 2338POPC   PO432976  32.280  29.383   9.526
 2338POPC   GL132977  32.416  29.179   9.133
 2338POPC   GL232978  32.305  28.852   8.978
 2338POPC   C1A32979  32.449  29.218   8.652
 2338POPC   D2A32980  32.143  29.142   8.375
 2338POPC   C3A32981  32.165  29.264   7.967
 2338POPC   C4A32982  32.434  29.332   7.614
 2338POPC   C1B32983  32.599  28.691   8.691
 2338POPC   C2B32984  32.594  28.812   8.283
 2338POPC   C3B32985  32.464  28.872   7.879
 2338POPC   C4B32986  32.416  28.838   7.417
 2339POPC   NC332987   5.140   7.917   9.520
 2339POPC   PO432988   5.076   7.241   9.544
 2339POPC   GL132989   4.944   7.351   9.129
 2339POPC   GL232990   5.080   7.678   9.082
 2339POPC   C1A32991   5.042   7.121   8.710
 2339POPC   D2A32992   5.431   7.006   8.464
 2339POPC   C3A32993   5.375   7.114   8.034
 2339POPC   C4A32994   5.134   7.376   7.753
 2339POPC   C1B32995   4.907   7.626   8.683
 2339POPC   C2B32996   5.012   7.479   8.257
 2339POPC   C3B32997   4.867   7.769   7.899
 2339POPC   C4B32998   4.892   7.695   7.438
 2340POPC   NC332999  43.289  36.911   9.741
 2340POPC   PO433000  42.695  36.846   9.546
 2340POPC   GL133001  43.027  37.003   9.211
 2340POPC   GL233002  43.352  36.850   9.245
 2340POPC   C1A33003  43.021  37.055   8.729
 2340POPC   D2A33004  43.089  37.311   8.331
 2340POPC   C3A33005  42.946  37.182   7.912
 2340POPC   C4A33006  42.729  36.812   7.791
 2340POPC   C1B33007  43.386  36.706   8.839
 2340POPC   C2B33008  43.466  36.862   8.432
 2340POPC   C3B33009  43.509  36.744   8.024
 2340POPC   C4B33010  43.253  36.813   7.673
 2341POPC   NC333011   5.578  10.724   9.668
 2341POPC   PO433012   4.921  10.457   9.573
 2341POPC   GL133013   5.258  10.444   9.265
 2341POPC   GL233014   5.420  10.109   9.190
 2341POPC   C1A33015   5.107  10.602   8.840
 2341POPC   D2A33016   4.841  10.361   8.570
 2341POPC   C3A33017   4.932  10.410   8.132
 2341POPC   C4A33018   4.845  10.409   7.699
 2341POPC   C1B33019   5.538  10.350   8.801
 2341POPC   C2B33020   5.383  10.428   8.381
 2341POPC   C3B33021   5.412  10.315   7.947
 2341POPC   C4B33022   5.308  10.315   7.508
 2342POPC   NC333023  14.177  41.628   9.392
 2342POPC   PO433024  13.446  41.800   9.418
 2342POPC   GL133025  13.581  41.514   9.090
 2342POPC   GL233026  13.918  41.477   8.981
 2342POPC   C1A33027  13.543  41.598   8.648
 2342POPC   D2A33028  13.267  41.801   8.353
 2342POPC   C3A33029  13.357  41.794   7.938
 2342POPC   C4A33030  13.692  41.549   7.832
 2342POPC   C1B33031  13.996  41.217   8.621
 2342POPC   C2B33032  13.919  41.219   8.164
 2342POPC   C3B33033  14.031  41.201   7.721
 2342POPC   C4B33034  13.853  41.370   7.324
 2343POPC   NC333035  20.051  35.077   9.739
 2343POPC   PO433036  19.806  35.696   9.598
 2343POPC   GL133037  19.852  35.421   9.252
 2343POPC   GL233038  20.084  35.716   9.141
 2343POPC   C1A33039  19.704  35.151   8.894
 2343POPC   D2A33040  19.643  34.871   8.525
 2343POPC   C3A33041  19.882  35.061   8.204
 2343POPC   C4A33042  19.765  35.147   7.770
 2343POPC   C1B33043  19.947  35.572   8.752
 2343POPC   C2B33044  20.158  35.473   8.374
 2343POPC   C3B33045  19.948  35.533   8.009
 2343POPC   C4B33046  19.825  35.655   7.598
 2344POPC   NC333047   4.988  34.236   9.419
 2344POPC   PO433048   5.454  34.649   9.411
 2344POPC   GL133049   5.205  34.569   9.041
 2344POPC   GL233050   4.853  34.628   9.086
 2344POPC   C1A33051   5.047  34.750   8.646
 2344POPC   D2A33052   5.243  35.052   8.419
 2344POPC   C3A33053   5.368  34.778   8.123
 2344POPC   C4A33054   5.386  34.724   7.683
 2344POPC   C1B33055   4.878  34.269   8.766
 2344POPC   C2B33056   5.183  34.307   8.415
 2344POPC   C3B33057   5.203  34.308   7.959
 2344POPC   C4B33058   4.927  34.312   7.573
 2345POPC   NC333059  10.045   7.399   9.805
 2345POPC   PO433060   9.726   7.514   9.242
 2345POPC   GL133061   9.766   7.668   8.892
 2345POPC   GL233062  10.081   7.715   8.861
 2345POPC   C1A33063   9.754   7.509   8.482
 2345POPC   D2A33064   9.758   7.562   8.076
 2345POPC   C3A33065   9.478   7.255   7.940
 2345POPC   C4A33066   9.168   7.254   7.678
 2345POPC   C1B33067  10.099   7.238   8.748
 2345POPC   C2B33068  10.152   6.996   8.372
 2345POPC   C3B33069  10.166   7.250   8.008
 2345POPC   C4B33070   9.879   7.318   7.635
 2346POPC   NC333071  21.519  16.333   9.555
 2346POPC   PO433072  21.369  16.963   9.669
 2346POPC   GL133073  21.429  16.686   9.218
 2346POPC   GL233074  21.110  16.507   9.103
 2346POPC   C1A33075  21.477  16.738   8.761
 2346POPC   D2A33076  21.317  16.969   8.387
 2346POPC   C3A33077  21.505  16.901   8.003
 2346POPC   C4A33078  21.676  17.122   7.666
 2346POPC   C1B33079  21.137  16.323   8.715
 2346POPC   C2B33080  21.327  16.431   8.348
 2346POPC   C3B33081  21.156  16.500   7.974
 2346POPC   C4B33082  21.316  16.462   7.597
 2347POPC   NC333083  38.915  41.023   9.519
 2347POPC   PO433084  39.461  40.658   9.475
 2347POPC   GL133085  39.206  40.825   9.125
 2347POPC   GL233086  38.953  41.113   9.029
 2347POPC   C1A33087  39.347  40.940   8.727
 2347POPC   D2A33088  39.439  40.731   8.351
 2347POPC   C3A33089  39.381  40.972   7.988
 2347POPC   C4A33090  39.327  40.926   7.561
 2347POPC   C1B33091  38.820  40.799   8.732
 2347POPC   C2B33092  38.920  40.624   8.319
 2347POPC   C3B33093  38.895  40.751   7.884
 2347POPC   C4B33094  38.914  40.626   7.447
 2348POPC   NC333095  24.873  44.355   9.437
 2348POPC   PO433096  25.417  44.659   9.530
 2348POPC   GL133097  25.329  44.781   9.177
 2348POPC   GL233098  25.251  44.434   9.073
 2348POPC   C1A33099  25.204  44.962   8.841
 2348POPC   D2A33100  25.110  44.778   8.503
 2348POPC   C3A33101  25.177  44.816   8.095
 2348POPC   C4A33102  25.114  44.750   7.712
 2348POPC   C1B33103  25.549  44.569   8.771
 2348POPC   C2B33104  25.746  44.409   8.438
 2348POPC   C3B33105  25.657  44.610   8.066
 2348POPC   C4B33106  25.634  44.767   7.667
 2349POPC   NC333107  17.165  17.780   9.901
 2349POPC   PO433108  17.413  18.427   9.640
 2349POPC   GL133109  17.307  18.170   9.286
 2349POPC   GL233110  17.593  18.074   9.033
 2349POPC   C1A33111  17.154  18.209   8.855
 2349POPC   D2A33112  17.413  18.175   8.516
 2349POPC   C3A33113  17.348  18.404   8.150
 2349POPC   C4A33114  17.125  18.335   7.780
 2349POPC   C1B33115  17.925  18.150   8.694
 2349POPC   C2B33116  17.826  18.064   8.249
 2349POPC   C3B33117  17.748  18.244   7.836
 2349POPC   C4B33118  17.574  18.112   7.434
 2350POPC   NC333119   6.069  27.167   9.476
 2350POPC   PO433120   6.005  26.599   9.399
 2350POPC   GL133121   5.838  26.896   9.083
 2350POPC   GL233122   6.152  26.993   9.008
 2350POPC   C1A33123   5.771  26.915   8.613
 2350POPC   D2A33124   5.569  27.115   8.226
 2350POPC   C3A33125   5.758  26.946   7.834
 2350POPC   C4A33126   5.962  26.565   7.626
 2350POPC   C1B33127   6.144  27.253   8.690
 2350POPC   C2B33128   6.067  27.214   8.291
 2350POPC   C3B33129   6.245  27.097   7.888
 2350POPC   C4B33130   6.100  27.031   7.444
 2351POPC   NC333131  24.497  32.051   9.612
 2351POPC   PO433132  24.763  32.677   9.388
 2351POPC   GL133133  24.610  32.270   9.170
 2351POPC   GL233134  24.265  32.215   9.094
 2351POPC   C1A33135  24.614  32.300   8.735
 2351POPC   D2A33136  24.834  32.537   8.440
 2351POPC   C3A33137  24.567  32.464   8.093
 2351POPC   C4A33138  24.424  32.207   7.711
 2351POPC   C1B33139  24.203  31.964   8.709
 2351POPC   C2B33140  24.196  32.035   8.243
 2351POPC   C3B33141  24.107  31.831   7.840
 2351POPC   C4B33142  24.144  31.920   7.381
 2352POPC   NC333143   2.150  40.277   9.446
 2352POPC   PO433144   1.564  39.968   9.463
 2352POPC   GL133145   1.865  40.025   9.121
 2352POPC   GL233146   2.221  39.837   9.127
 2352POPC   C1A33147   2.030  40.198   8.773
 2352POPC   D2A33148   1.825  40.066   8.431
 2352POPC   C3A33149   2.103  39.957   8.111
 2352POPC   C4A33150   1.989  40.109   7.737
 2352POPC   C1B33151   2.028  39.685   8.722
 2352POPC   C2B33152   1.857  39.554   8.308
 2352POPC   C3B33153   1.821  39.607   7.837
 2352POPC   C4B33154   2.017  39.723   7.411
 2353POPC   NC333155   3.868  13.190   9.461
 2353POPC   PO433156   3.914  13.876   9.452
 2353POPC   GL133157   3.772  13.650   9.083
 2353POPC   GL233158   3.804  13.297   8.968
 2353POPC   C1A33159   3.624  13.692   8.657
 2353POPC   D2A33160   3.783  13.746   8.247
 2353POPC   C3A33161   3.423  13.743   7.970
 2353POPC   C4A33162   3.414  13.927   7.565
 2353POPC   C1B33163   3.358  13.261   8.885
 2353POPC   C2B33164   3.196  13.219   8.489
 2353POPC   C3B33165   3.310  13.253   8.060
 2353POPC   C4B33166   3.296  13.413   7.606
 2354POPC   NC333167  43.061  41.668   9.623
 2354POPC   PO433168  43.740  41.487   9.668
 2354POPC   GL133169  43.486  41.648   9.249
 2354POPC   GL233170  43.132  41.691   9.120
 2354POPC   C1A33171  43.495  41.842   8.804
 2354POPC   D2A33172  43.304  41.868   8.391
 2354POPC   C3A33173  43.456  41.707   8.021
 2354POPC   C4A33174  43.194  41.406   7.790
 2354POPC   C1B33175  43.113  41.466   8.724
 2354POPC   C2B33176  42.889  41.187   8.426
 2354POPC   C3B33177  42.711  41.205   7.992
 2354POPC   C4B33178  42.738  41.394   7.564
 2355POPC   NC333179   0.125   1.266   9.467
 2355POPC   PO433180  44.506   1.032   9.680
 2355POPC   GL133181  44.639   1.142   9.228
 2355POPC   GL233182  44.652   1.491   9.091
 2355POPC   C1A33183  44.472   1.096   8.791
 2355POPC   D2A33184  44.612   1.358   8.433
 2355POPC   C3A33185  44.730   1.145   8.030
 2355POPC   C4A33186  44.597   1.162   7.579
 2355POPC   C1B33187  44.201   1.510   8.900
 2355POPC   C2B33188  44.071   1.463   8.452
 2355POPC   C3B33189  44.214   1.461   8.010
 2355POPC   C4B33190  44.354   1.620   7.616
 2356POPC   NC333191  24.303  32.627   9.377
 2356POPC   PO433192  24.053  33.246   9.609
 2356POPC   GL133193  24.294  33.088   9.189
 2356POPC   GL233194  24.617  33.198   9.089
 2356POPC   C1A33195  24.445  32.801   8.786
 2356POPC   D2A33196  24.560  32.969   8.383
 2356POPC   C3A33197  24.307  32.929   8.039
 2356POPC   C4A33198  24.441  32.717   7.670
 2356POPC   C1B33199  24.292  33.266   8.714
 2356POPC   C2B33200  24.242  33.541   8.378
 2356POPC   C3B33201  24.287  33.446   7.945
 2356POPC   C4B33202  24.233  33.222   7.547
 2357POPC   NC333203  29.696  42.087   9.632
 2357POPC   PO433204  29.892  41.543   9.232
 2357POPC   GL133205  30.178  41.717   9.021
 2357POPC   GL233206  30.331  41.400   8.994
 2357POPC   C1A33207  30.063  41.613   8.597
 2357POPC   D2A33208  29.683  41.478   8.380
 2357POPC   C3A33209  29.769  41.373   7.959
 2357POPC   C4A33210  29.743  41.780   7.789
 2357POPC   C1B33211  30.403  41.230   8.633
 2357POPC   C2B33212  30.156  41.190   8.304
 2357POPC   C3B33213  30.281  41.364   7.955
 2357POPC   C4B33214  30.147  41.515   7.588
 2358POPC   NC333215  44.848  32.551   9.300
 2358POPC   PO433216  44.368  32.270   9.699
 2358POPC   GL133217  44.528  32.104   9.108
 2358POPC   GL233218  44.626  32.429   8.843
 2358POPC   C1A33219  44.791  31.984   8.731
 2358POPC   D2A33220  44.748  32.241   8.335
 2358POPC   C3A33221  44.826  32.005   7.943
 2358POPC   C4A33222   0.041  32.070   7.551
 2358POPC   C1B33223   0.010  32.637   8.661
 2358POPC   C2B33224   0.189  32.525   8.265
 2358POPC   C3B33225  44.989  32.476   7.864
 2358POPC   C4B33226  44.820  32.531   7.429
 2359POPC   NC333227  15.849  15.755   9.427
 2359POPC   PO433228  15.889  15.098   9.600
 2359POPC   GL133229  15.929  15.147   9.199
 2359POPC   GL233230  16.116  15.428   9.116
 2359POPC   C1A33231  16.057  14.953   8.823
 2359POPC   D2A33232  16.092  15.227   8.480
 2359POPC   C3A33233  15.892  15.173   8.087
 2359POPC   C4A33234  15.627  15.335   7.745
 2359POPC   C1B33235  16.319  15.620   8.761
 2359POPC   C2B33236  16.279  15.693   8.339
 2359POPC   C3B33237  16.334  15.400   8.044
 2359POPC   C4B33238  16.132  15.343   7.649
 2360POPC   NC333239  26.294  26.496   9.631
 2360POPC   PO433240  26.663  25.961   9.579
 2360POPC   GL133241  26.869  26.102   9.210
 2360POPC   GL233242  26.570  26.317   9.179
 2360POPC   C1A33243  26.929  25.974   8.784
 2360POPC   D2A33244  26.715  25.962   8.380
 2360POPC   C3A33245  26.954  25.912   8.004
 2360POPC   C4A33246  27.069  25.790   7.593
 2360POPC   C1B33247  26.429  26.165   8.768
 2360POPC   C2B33248  26.168  26.290   8.391
 2360POPC   C3B33249  26.270  26.437   7.952
 2360POPC   C4B33250  26.477  26.260   7.552
 2361POPC   NC333251  41.153   4.717   9.437
 2361POPC   PO433252  41.474   5.307   9.572
 2361POPC   GL133253  41.647   5.130   9.184
 2361POPC   GL233254  41.596   4.778   9.170
 2361POPC   C1A33255  41.546   5.124   8.770
 2361POPC   D2A33256  41.609   5.336   8.422
 2361POPC   C3A33257  41.590   5.116   8.104
 2361POPC   C4A33258  41.498   5.279   7.734
 2361POPC   C1B33259  41.524   4.595   8.772
 2361POPC   C2B33260  41.394   4.713   8.355
 2361POPC   C3B33261  41.635   4.614   7.977
 2361POPC   C4B33262  41.591   4.784   7.555
 2362POPC   NC333263   4.019   2.734   9.531
 2362POPC   PO433264   4.614   2.448   9.451
 2362POPC   GL133265   4.399   2.637   9.072
 2362POPC   GL233266   4.025   2.742   9.010
 2362POPC   C1A33267   4.382   2.911   8.696
 2362POPC   D2A33268   4.193   3.136   8.346
 2362POPC   C3A33269   4.368   3.041   7.925
 2362POPC   C4A33270   4.051   2.911   7.582
 2362POPC   C1B33271   4.139   2.438   8.668
 2362POPC   C2B33272   4.212   2.625   8.302
 2362POPC   C3B33273   4.157   2.581   7.939
 2362POPC   C4B33274   4.307   2.232   7.841
 2363POPC   NC333275  16.384  31.255   9.313
 2363POPC   PO433276  15.744  31.212   9.408
 2363POPC   GL133277  15.898  31.547   9.122
 2363POPC   GL233278  16.260  31.664   9.039
 2363POPC   C1A33279  15.938  31.470   8.689
 2363POPC   D2A33280  15.803  31.222   8.353
 2363POPC   C3A33281  15.879  31.411   7.996
 2363POPC   C4A33282  16.212  31.196   7.808
 2363POPC   C1B33283  16.291  31.846   8.616
 2363POPC   C2B33284  16.088  31.878   8.223
 2363POPC   C3B33285  15.847  31.920   7.857
 2363POPC   C4B33286  16.019  31.618   7.547
 2364POPC   NC333287   4.182  14.940   9.446
 2364POPC   PO433288   4.496  15.552   9.446
 2364POPC   GL133289   4.284  15.329   9.061
 2364POPC   GL233290   4.041  15.043   8.986
 2364POPC   C1A33291   4.191  15.299   8.597
 2364POPC   D2A33292   4.491  15.355   8.301
 2364POPC   C3A33293   4.429  15.220   7.932
 2364POPC   C4A33294   4.080  15.410   7.768
 2364POPC   C1B33295   3.954  14.727   8.679
 2364POPC   C2B33296   4.065  14.723   8.232
 2364POPC   C3B33297   4.053  14.913   7.813
 2364POPC   C4B33298   4.300  14.993   7.459
 2365POPC   NC333299   5.452  32.822   9.429
 2365POPC   PO433300   4.803  32.830   9.593
 2365POPC   GL133301   4.997  32.907   9.197
 2365POPC   GL233302   5.155  32.592   9.072
 2365POPC   C1A33303   4.968  33.053   8.779
 2365POPC   D2A33304   4.917  32.876   8.392
 2365POPC   C3A33305   5.048  33.084   8.030
 2365POPC   C4A33306   4.887  32.719   7.807
 2365POPC   C1B33307   5.426  32.825   8.785
 2365POPC   C2B33308   5.427  32.935   8.384
 2365POPC   C3B33309   5.394  32.689   8.009
 2365POPC   C4B33310   5.336  32.809   7.605
 2366POPC   NC333311  28.432  31.461   9.890
 2366POPC   PO433312  28.043  30.967   9.636
 2366POPC   GL133313  28.283  31.123   9.241
 2366POPC   GL233314  28.473  31.452   9.233
 2366POPC   C1A33315  28.482  31.165   8.814
 2366POPC   D2A33316  28.604  31.313   8.411
 2366POPC   C3A33317  28.386  31.170   8.038
 2366POPC   C4A33318  28.251  31.470   7.737
 2366POPC   C1B33319  28.645  31.661   8.832
 2366POPC   C2B33320  28.875  31.748   8.433
 2366POPC   C3B33321  28.636  31.674   8.038
 2366POPC   C4B33322  28.736  31.742   7.635
 2367POPC   NC333323  19.978  22.260   9.791
 2367POPC   PO433324  19.532  21.743   9.573
 2367POPC   GL133325  19.682  21.914   9.225
 2367POPC   GL233326  19.875  22.189   9.272
 2367POPC   C1A33327  19.710  21.962   8.805
 2367POPC   D2A33328  19.623  21.947   8.390
 2367POPC   C3A33329  19.911  21.855   8.080
 2367POPC   C4A33330  19.880  21.943   7.647
 2367POPC   C1B33331  20.020  22.345   8.874
 2367POPC   C2B33332  19.922  22.375   8.422
 2367POPC   C3B33333  19.776  22.415   7.983
 2367POPC   C4B33334  19.534  22.786   7.784
 2368POPC   NC333335  20.260  35.946   9.581
 2368POPC   PO433336  20.678  35.701   9.145
 2368POPC   GL133337  20.828  36.148   9.164
 2368POPC   GL233338  20.568  36.417   9.176
 2368POPC   C1A33339  20.935  36.373   8.806
 2368POPC   D2A33340  20.671  36.345   8.460
 2368POPC   C3A33341  20.798  36.113   8.113
 2368POPC   C4A33342  20.746  35.848   7.758
 2368POPC   C1B33343  20.328  36.193   8.877
 2368POPC   C2B33344  20.226  36.057   8.455
 2368POPC   C3B33345  20.292  36.289   8.103
 2368POPC   C4B33346  20.515  36.342   7.777
 2369POPC   NC333347  39.186  24.704   9.430
 2369POPC   PO433348  38.868  24.119   9.581
 2369POPC   GL133349  39.179  24.232   9.256
 2369POPC   GL233350  39.454  24.446   9.111
 2369POPC   C1A33351  39.076  24.289   8.802
 2369POPC   D2A33352  39.129  24.428   8.376
 2369POPC   C3A33353  39.486  24.304   8.126
 2369POPC   C4A33354  39.216  24.180   7.806
 2369POPC   C1B33355  39.531  24.507   8.683
 2369POPC   C2B33356  39.504  24.782   8.313
 2369POPC   C3B33357  39.289  24.764   7.928
 2369POPC   C4B33358  39.436  24.937   7.563
 2370POPC   NC333359  16.025  42.089   9.544
 2370POPC   PO433360  15.758  42.662   9.553
 2370POPC   GL133361  15.991  42.573   9.172
 2370POPC   GL233362  16.318  42.492   9.257
 2370POPC   C1A33363  16.116  42.637   8.729
 2370POPC   D2A33364  15.933  42.447   8.350
 2370POPC   C3A33365  15.915  42.608   7.931
 2370POPC   C4A33366  15.877  42.651   7.493
 2370POPC   C1B33367  16.246  42.177   8.920
 2370POPC   C2B33368  16.114  42.003   8.509
 2370POPC   C3B33369  16.177  42.070   8.052
 2370POPC   C4B33370  16.095  41.723   7.749
 2371POPC   NC333371  12.530   5.058   9.609
 2371POPC   PO433372  12.702   5.603   9.327
 2371POPC   GL133373  12.653   5.266   9.124
 2371POPC   GL233374  12.951   5.124   9.136
 2371POPC   C1A33375  12.646   5.072   8.728
 2371POPC   D2A33376  12.884   5.006   8.356
 2371POPC   C3A33377  12.725   4.946   7.958
 2371POPC   C4A33378  12.627   5.297   7.687
 2371POPC   C1B33379  13.112   4.868   8.825
 2371POPC   C2B33380  13.255   4.695   8.432
 2371POPC   C3B33381  13.188   4.737   7.990
 2371POPC   C4B33382  13.130   4.908   7.592
 2372POPC   NC333383  20.455  31.908   9.403
 2372POPC   PO433384  20.828  32.494   9.475
 2372POPC   GL133385  20.657  32.307   9.149
 2372POPC   GL233386  20.854  31.996   9.106
 2372POPC   C1A33387  20.492  32.367   8.741
 2372POPC   D2A33388  20.663  32.536   8.363
 2372POPC   C3A33389  20.458  32.442   8.004
 2372POPC   C4A33390  20.646  32.446   7.612
 2372POPC   C1B33391  20.656  31.875   8.731
 2372POPC   C2B33392  20.540  32.018   8.332
 2372POPC   C3B33393  20.663  31.988   7.921
 2372POPC   C4B33394  20.771  31.673   7.686
 2373POPC   NC333395  31.924  34.601   9.424
 2373POPC   PO433396  32.499  34.751   9.487
 2373POPC   GL133397  32.380  34.693   9.115
 2373POPC   GL233398  32.432  34.353   9.068
 2373POPC   C1A33399  32.442  34.719   8.696
 2373POPC   D2A33400  32.200  34.664   8.360
 2373POPC   C3A33401  32.329  34.817   7.985
 2373POPC   C4A33402  32.474  34.461   7.784
 2373POPC   C1B33403  32.015  34.448   8.812
 2373POPC   C2B33404  31.842  34.314   8.403
 2373POPC   C3B33405  31.914  34.459   7.976
 2373POPC   C4B33406  31.743  34.185   7.729
 2374POPC   NC333407  44.513   4.830   9.689
 2374POPC   PO433408  44.818   5.376   9.512
 2374POPC   GL133409  44.647   5.056   9.243
 2374POPC   GL233410  44.799   4.690   9.254
 2374POPC   C1A33411  44.408   5.137   8.893
 2374POPC   D2A33412  44.587   5.061   8.503
 2374POPC   C3A33413  44.309   4.871   8.200
 2374POPC   C4A33414  44.423   5.042   7.829
 2374POPC   C1B33415  44.602   4.667   8.845
 2374POPC   C2B33416  44.673   4.562   8.418
 2374POPC   C3B33417  44.794   4.779   8.077
 2374POPC   C4B33418  44.781   4.719   7.648
 2375POPC   NC333419  34.890  38.680   9.411
 2375POPC   PO433420  34.280  38.354   9.637
 2375POPC   GL133421  34.545  38.306   9.255
 2375POPC   GL233422  34.487  38.629   9.092
 2375POPC   C1A33423  34.682  38.252   8.803
 2375POPC   D2A33424  34.599  38.423   8.368
 2375POPC   C3A33425  34.650  38.127   8.033
 2375POPC   C4A33426  34.389  38.114   7.695
 2375POPC   C1B33427  34.733  38.774   8.731
 2375POPC   C2B33428  35.005  38.769   8.370
 2375POPC   C3B33429  34.946  38.780   7.948
 2375POPC   C4B33430  34.606  38.574   7.782
 2376POPC   NC333431  23.025  40.501   9.460
 2376POPC   PO433432  22.539  40.921   9.311
 2376POPC   GL133433  22.817  40.707   9.037
 2376POPC   GL233434  23.207  40.626   9.024
 2376POPC   C1A33435  22.935  40.748   8.632
 2376POPC   D2A33436  23.126  40.931   8.316
 2376POPC   C3A33437  22.926  40.863   7.928
 2376POPC   C4A33438  22.676  41.169   7.708
 2376POPC   C1B33439  23.427  40.885   8.753
 2376POPC   C2B33440  23.642  40.834   8.393
 2376POPC   C3B33441  23.474  40.754   7.991
 2376POPC   C4B33442  23.300  40.709   7.604
 2377POPC   NC333443  14.645  15.637   9.398
 2377POPC   PO433444  14.272  16.108   9.540
 2377POPC   GL133445  14.474  16.104   9.169
 2377POPC   GL233446  14.293  15.836   9.076
 2377POPC   C1A33447  14.394  16.183   8.740
 2377POPC   D2A33448  14.174  16.274   8.421
 2377POPC   C3A33449  14.451  16.245   8.054
 2377POPC   C4A33450  14.515  16.035   7.665
 2377POPC   C1B33451  14.254  15.683   8.694
 2377POPC   C2B33452  14.352  15.804   8.302
 2377POPC   C3B33453  14.140  15.822   7.927
 2377POPC   C4B33454  14.154  15.743   7.463
 2378POPC   NC333455  12.972  13.629   9.608
 2378POPC   PO433456  12.331  13.513   9.531
 2378POPC   GL133457  12.674  13.530   9.157
 2378POPC   GL233458  13.084  13.597   9.125
 2378POPC   C1A33459  12.785  13.822   8.790
 2378POPC   D2A33460  12.969  13.869   8.368
 2378POPC   C3A33461  12.648  13.855   8.022
 2378POPC   C4A33462  12.610  13.512   7.716
 2378POPC   C1B33463  12.988  13.338   8.762
 2378POPC   C2B33464  12.924  13.360   8.304
 2378POPC   C3B33465  13.076  13.584   7.929
 2378POPC   C4B33466  13.284  13.389   7.589
 2379POPC   NC333467  39.795   3.857   9.375
 2379POPC   PO433468  39.792   3.219   9.521
 2379POPC   GL133469  39.995   3.320   9.131
 2379POPC   GL233470  40.214   3.609   9.147
 2379POPC   C1A33471  40.127   3.362   8.688
 2379POPC   D2A33472  40.198   3.123   8.297
 2379POPC   C3A33473  40.221   3.332   7.882
 2379POPC   C4A33474  40.184   3.614   7.531
 2379POPC   C1B33475  40.210   3.867   8.763
 2379POPC   C2B33476  40.070   3.890   8.348
 2379POPC   C3B33477  40.286   3.873   7.963
 2379POPC   C4B33478  40.320   4.089   7.568
 2380POPC   NC333479   0.431   3.929   9.464
 2380POPC   PO433480   0.689   3.297   9.435
 2380POPC   GL133481   0.530   3.572   9.127
 2380POPC   GL233482   0.145   3.585   9.191
 2380POPC   C1A33483   0.703   3.778   8.769
 2380POPC   D2A33484   0.799   3.561   8.392
 2380POPC   C3A33485   0.663   3.676   8.002
 2380POPC   C4A33486   0.626   3.316   7.801
 2380POPC   C1B33487   0.183   3.770   8.797
 2380POPC   C2B33488   0.252   3.643   8.393
 2380POPC   C3B33489   0.169   3.827   8.005
 2380POPC   C4B33490   0.265   3.645   7.617
 2381POPC   NC333491  43.809  31.329   9.639
 2381POPC   PO433492  43.777  31.869   9.369
 2381POPC   GL133493  44.118  31.713   9.146
 2381POPC   GL233494  44.080  31.355   9.214
 2381POPC   C1A33495  43.986  31.572   8.744
 2381POPC   D2A33496  43.742  31.395   8.464
 2381POPC   C3A33497  43.596  31.685   8.223
 2381POPC   C4A33498  43.395  31.657   7.847
 2381POPC   C1B33499  44.212  31.092   8.904
 2381POPC   C2B33500  44.195  31.073   8.488
 2381POPC   C3B33501  44.185  31.398   8.223
 2381POPC   C4B33502  43.957  31.505   7.871
 2382POPC   NC333503  14.911  33.288   9.515
 2382POPC   PO433504  14.290  33.013   9.655
 2382POPC   GL133505  14.372  32.843   9.246
 2382POPC   GL233506  14.708  32.917   9.205
 2382POPC   C1A33507  14.286  32.960   8.819
 2382POPC   D2A33508  14.495  33.253   8.527
 2382POPC   C3A33509  14.328  33.262   8.109
 2382POPC   C4A33510  14.152  33.082   7.725
 2382POPC   C1B33511  14.754  32.780   8.796
 2382POPC   C2B33512  14.545  32.775   8.360
 2382POPC   C3B33513  14.684  32.927   7.931
 2382POPC   C4B33514  14.960  32.695   7.584
 2383POPC   NC333515  38.212  43.992   9.354
 2383POPC   PO433516  37.579  44.163   9.428
 2383POPC   GL133517  37.742  43.856   9.148
 2383POPC   GL233518  37.917  44.116   8.926
 2383POPC   C1A33519  37.761  43.678   8.743
 2383POPC   D2A33520  37.677  43.912   8.412
 2383POPC   C3A33521  37.765  43.725   8.028
 2383POPC   C4A33522  37.820  44.033   7.712
 2383POPC   C1B33523  37.450  44.149   8.812
 2383POPC   C2B33524  37.186  44.092   8.443
 2383POPC   C3B33525  37.387  44.089   8.035
 2383POPC   C4B33526  37.221  44.148   7.646
 2384POPC   NC333527   8.145  30.050   9.564
 2384POPC   PO433528   8.387  29.521   9.471
 2384POPC   GL133529   8.035  29.701   9.194
 2384POPC   GL233530   8.087  30.027   9.064
 2384POPC   C1A33531   7.954  29.648   8.758
 2384POPC   D2A33532   7.916  29.856   8.361
 2384POPC   C3A33533   7.990  29.621   8.010
 2384POPC   C4A33534   8.375  29.502   7.785
 2384POPC   C1B33535   8.010  30.265   8.697
 2384POPC   C2B33536   8.175  30.285   8.260
 2384POPC   C3B33537   8.002  30.134   7.861
 2384POPC   C4B33538   8.122  30.225   7.402
 2385POPC   NC333539  24.270   2.491   9.470
 2385POPC   PO433540  24.782   2.845   9.628
 2385POPC   GL133541  24.642   2.865   9.174
 2385POPC   GL233542  24.325   2.743   9.016
 2385POPC   C1A33543  24.684   2.924   8.707
 2385POPC   D2A33544  24.429   2.744   8.368
 2385POPC   C3A33545  24.641   2.536   8.067
 2385POPC   C4A33546  24.496   2.459   7.659
 2385POPC   C1B33547  24.017   2.763   8.664
 2385POPC   C2B33548  23.990   3.000   8.275
 2385POPC   C3B33549  24.088   2.964   7.851
 2385POPC   C4B33550  24.544   2.957   7.775
 2386POPC   NC333551  20.056  27.448   9.615
 2386POPC   PO433552  19.743  27.968   9.583
 2386POPC   GL133553  19.935  27.627   9.176
 2386POPC   GL233554  19.717  27.372   9.022
 2386POPC   C1A33555  20.051  27.669   8.717
 2386POPC   D2A33556  19.891  27.998   8.462
 2386POPC   C3A33557  19.762  27.793   8.092
 2386POPC   C4A33558  20.040  27.823   7.762
 2386POPC   C1B33559  20.051  27.158   8.756
 2386POPC   C2B33560  20.142  27.331   8.318
 2386POPC   C3B33561  20.034  27.169   7.895
 2386POPC   C4B33562  19.906  27.335   7.503
 2387POPC   NC333563  17.796  42.874   9.310
 2387POPC   PO433564  17.323  43.174   9.677
 2387POPC   GL133565  17.414  43.202   9.173
 2387POPC   GL233566  17.615  43.029   8.876
 2387POPC   C1A33567  17.299  43.424   8.787
 2387POPC   D2A33568  17.454  43.275   8.413
 2387POPC   C3A33569  17.510  43.352   7.996
 2387POPC   C4A33570  17.668  42.985   7.771
 2387POPC   C1B33571  17.928  43.211   8.583
 2387POPC   C2B33572  17.978  43.199   8.141
 2387POPC   C3B33573  17.974  43.366   7.696
 2387POPC   C4B33574  17.917  43.370   7.255
 2388POPC   NC333575  39.971   5.529   9.647
 2388POPC   PO433576  40.373   6.012   9.358
 2388POPC   GL133577  40.103   5.761   9.167
 2388POPC   GL233578  39.793   5.912   9.075
 2388POPC   C1A33579  40.106   5.717   8.734
 2388POPC   D2A33580  40.362   5.438   8.531
 2388POPC   C3A33581  40.385   5.443   8.085
 2388POPC   C4A33582  40.332   5.817   7.824
 2388POPC   C1B33583  39.608   5.645   8.751
 2388POPC   C2B33584  39.669   5.874   8.377
 2388POPC   C3B33585  39.541   6.127   8.051
 2388POPC   C4B33586  39.779   5.889   7.744
 2389POPC   NC333587  38.469  33.902   9.637
 2389POPC   PO433588  38.163  33.255   9.510
 2389POPC   GL133589  38.330  33.505   9.166
 2389POPC   GL233590  38.256  33.854   9.145
 2389POPC   C1A33591  38.487  33.667   8.744
 2389POPC   D2A33592  38.683  33.910   8.396
 2389POPC   C3A33593  38.616  33.696   8.001
 2389POPC   C4A33594  38.263  33.651   7.754
 2389POPC   C1B33595  38.355  34.162   8.742
 2389POPC   C2B33596  38.269  34.260   8.301
 2389POPC   C3B33597  38.344  34.139   7.864
 2389POPC   C4B33598  38.248  34.042   7.421
 2390POPC   NC333599   5.013   2.643   9.599
 2390POPC   PO433600   5.002   3.285   9.589
 2390POPC   GL133601   5.058   3.008   9.184
 2390POPC   GL233602   4.934   2.673   9.100
 2390POPC   C1A33603   5.298   2.891   8.794
 2390POPC   D2A33604   5.400   2.707   8.371
 2390POPC   C3A33605   5.233   2.875   7.976
 2390POPC   C4A33606   4.942   2.875   7.634
 2390POPC   C1B33607   4.836   2.695   8.671
 2390POPC   C2B33608   4.700   2.810   8.289
 2390POPC   C3B33609   4.676   2.580   7.938
 2390POPC   C4B33610   4.494   2.652   7.547
 2391POPC   NC333611  16.774  28.015   9.495
 2391POPC   PO433612  16.542  27.347   9.647
 2391POPC   GL133613  16.569  27.350   9.199
 2391POPC   GL233614  16.520  27.700   9.126
 2391POPC   C1A33615  16.684  27.311   8.763
 2391POPC   D2A33616  16.810  27.507   8.370
 2391POPC   C3A33617  16.607  27.461   8.014
 2391POPC   C4A33618  16.664  27.441   7.602
 2391POPC   C1B33619  16.669  27.836   8.723
 2391POPC   C2B33620  16.758  28.025   8.313
 2391POPC   C3B33621  16.539  27.994   7.943
 2391POPC   C4B33622  16.664  27.931   7.473
 2392POPC   NC333623  44.214  43.217   9.812
 2392POPC   PO433624  44.445  42.938   9.276
 2392POPC   GL133625  44.184  43.081   8.982
 2392POPC   GL233626  43.969  43.340   9.068
 2392POPC   C1A33627  44.069  43.092   8.567
 2392POPC   D2A33628  44.076  43.349   8.218
 2392POPC   C3A33629  44.107  43.025   7.901
 2392POPC   C4A33630  44.337  43.267   7.567
 2392POPC   C1B33631  43.634  43.176   8.807
 2392POPC   C2B33632  43.607  43.283   8.385
 2392POPC   C3B33633  43.553  43.116   7.991
 2392POPC   C4B33634  43.664  42.933   7.624
 2393POPC   NC333635  41.125  37.378   9.593
 2393POPC   PO433636  40.455  37.562   9.612
 2393POPC   GL133637  40.520  37.723   9.226
 2393POPC   GL233638  40.864  37.638   9.187
 2393POPC   C1A33639  40.564  37.667   8.793
 2393POPC   D2A33640  40.345  37.679   8.426
 2393POPC   C3A33641  40.576  37.623   8.093
 2393POPC   C4A33642  40.464  37.612   7.692
 2393POPC   C1B33643  41.096  37.707   8.786
 2393POPC   C2B33644  41.193  37.733   8.340
 2393POPC   C3B33645  41.010  37.865   7.949
 2393POPC   C4B33646  41.158  37.969   7.541
 2394POPC   NC333647  43.728  43.154   9.447
 2394POPC   PO433648  43.014  43.277   9.547
 2394POPC   GL133649  43.251  43.231   9.194
 2394POPC   GL233650  43.068  42.942   9.149
 2394POPC   C1A33651  43.175  43.379   8.780
 2394POPC   D2A33652  43.119  43.192   8.372
 2394POPC   C3A33653  43.144  43.422   7.999
 2394POPC   C4A33654  42.897  43.431   7.620
 2394POPC   C1B33655  43.214  42.861   8.755
 2394POPC   C2B33656  42.961  42.715   8.407
 2394POPC   C3B33657  43.131  42.776   8.042
 2394POPC   C4B33658  43.128  42.985   7.686
 2395POPC   NC333659  11.948  10.881   9.389
 2395POPC   PO433660  12.375  10.392   9.606
 2395POPC   GL133661  12.318  10.583   9.193
 2395POPC   GL233662  11.985  10.467   8.997
 2395POPC   C1A33663  12.410  10.509   8.773
 2395POPC   D2A33664  12.115  10.374   8.470
 2395POPC   C3A33665  12.159  10.504   8.040
 2395POPC   C4A33666  12.300  10.739   7.713
 2395POPC   C1B33667  11.669  10.495   8.674
 2395POPC   C2B33668  11.415  10.410   8.373
 2395POPC   C3B33669  11.614  10.378   8.007
 2395POPC   C4B33670  11.667  10.565   7.627
 2396POPC   NC333671  35.845  29.229   9.566
 2396POPC   PO433672  36.359  28.859   9.318
 2396POPC   GL133673  36.122  29.211   9.125
 2396POPC   GL233674  35.790  29.339   9.085
 2396POPC   C1A33675  36.182  29.342   8.722
 2396POPC   D2A33676  36.115  29.074   8.378
 2396POPC   C3A33677  36.193  29.142   7.972
 2396POPC   C4A33678  36.344  28.831   7.695
 2396POPC   C1B33679  35.841  28.947   8.815
 2396POPC   C2B33680  35.772  28.680   8.447
 2396POPC   C3B33681  35.773  28.820   8.050
 2396POPC   C4B33682  35.814  28.975   7.679
 2397POPC   NC333683  40.097  23.301   9.595
 2397POPC   PO433684  39.470  23.112   9.499
 2397POPC   GL133685  39.817  23.109   9.159
 2397POPC   GL233686  40.200  23.102   9.157
 2397POPC   C1A33687  39.954  22.749   8.874
 2397POPC   D2A33688  39.941  22.613   8.450
 2397POPC   C3A33689  39.822  22.817   8.100
 2397POPC   C4A33690  39.887  22.710   7.664
 2397POPC   C1B33691  40.173  23.194   8.753
 2397POPC   C2B33692  40.233  23.026   8.348
 2397POPC   C3B33693  40.137  23.157   7.911
 2397POPC   C4B33694  40.130  23.105   7.454
 2398POPC   NC333695  40.814  29.331   9.516
 2398POPC   PO433696  41.012  28.705   9.448
 2398POPC   GL133697  41.069  29.048   9.157
 2398POPC   GL233698  40.729  29.087   9.085
 2398POPC   C1A33699  41.102  28.942   8.734
 2398POPC   D2A33700  40.950  29.128   8.387
 2398POPC   C3A33701  40.862  28.917   8.042
 2398POPC   C4A33702  40.521  29.016   7.819
 2398POPC   C1B33703  40.576  28.924   8.716
 2398POPC   C2B33704  40.405  29.017   8.329
 2398POPC   C3B33705  40.418  29.426   8.107
 2398POPC   C4B33706  40.560  29.541   7.675
 2399POPC   NC333707  33.450  31.952   9.489
 2399POPC   PO433708  32.962  32.266   9.701
 2399POPC   GL133709  33.045  32.244   9.256
 2399POPC   GL233710  33.368  32.397   9.226
 2399POPC   C1A33711  32.922  32.445   8.823
 2399POPC   D2A33712  32.712  32.482   8.373
 2399POPC   C3A33713  32.860  32.206   7.985
 2399POPC   C4A33714  32.811  32.053   7.531
 2399POPC   C1B33715  33.468  32.461   8.797
 2399POPC   C2B33716  33.242  32.360   8.410
 2399POPC   C3B33717  33.361  32.278   8.000
 2399POPC   C4B33718  33.515  32.324   7.605
 2400POPC   NC333719  15.254  26.188   9.464
 2400POPC   PO433720  14.908  25.714   9.818
 2400POPC   GL133721  14.893  25.849   9.318
 2400POPC   GL233722  15.217  25.743   9.151
 2400POPC   C1A33723  14.935  26.018   8.834
 2400POPC   D2A33724  15.146  26.305   8.491
 2400POPC   C3A33725  15.336  26.181   8.086
 2400POPC   C4A33726  15.166  26.071   7.663
 2400POPC   C1B33727  15.174  25.609   8.684
 2400POPC   C2B33728  15.006  25.810   8.280
 2400POPC   C3B33729  14.909  25.684   7.835
 2400POPC   C4B33730  15.236  25.557   7.509
 2401POPC   NC333731  37.083  24.662   9.573
 2401POPC   PO433732  36.413  24.692   9.494
 2401POPC   GL133733  36.740  24.638   9.159
 2401POPC   GL233734  37.021  24.367   9.158
 2401POPC   C1A33735  36.697  24.423   8.767
 2401POPC   D2A33736  36.837  24.294   8.359
 2401POPC   C3A33737  36.836  24.625   8.106
 2401POPC   C4A33738  36.929  24.688   7.724
 2401POPC   C1B33739  37.245  24.376   8.746
 2401POPC   C2B33740  37.311  24.178   8.319
 2401POPC   C3B33741  37.309  24.360   7.910
 2401POPC   C4B33742  37.223  24.350   7.446
 2402POPC   NC333743  36.964   9.921   9.460
 2402POPC   PO433744  36.685   9.302   9.588
 2402POPC   GL133745  36.666   9.545   9.229
 2402POPC   GL233746  36.541   9.881   9.159
 2402POPC   C1A33747  36.800   9.532   8.831
 2402POPC   D2A33748  36.618   9.713   8.459
 2402POPC   C3A33749  36.728   9.561   8.039
 2402POPC   C4A33750  36.941   9.691   7.653
 2402POPC   C1B33751  36.866  10.032   8.824
 2402POPC   C2B33752  37.034  10.068   8.396
 2402POPC   C3B33753  36.819  10.073   7.969
 2402POPC   C4B33754  36.476  10.085   7.628
 2403POPC   NC333755  19.841  19.402   9.345
 2403POPC   PO433756  20.242  19.024   9.684
 2403POPC   GL133757  20.126  18.943   9.180
 2403POPC   GL233758  19.864  18.900   9.167
 2403POPC   C1A33759  20.114  19.139   8.690
 2403POPC   D2A33760  20.113  19.447   8.293
 2403POPC   C3A33761  19.898  19.271   7.900
 2403POPC   C4A33762  19.849  19.391   7.459
 2403POPC   C1B33763  19.848  18.721   8.774
 2403POPC   C2B33764  19.754  18.559   8.413
 2403POPC   C3B33765  19.902  18.617   8.023
 2403POPC   C4B33766  19.854  18.823   7.634
 2404POPC   NC333767  28.139   4.295   9.500
 2404POPC   PO433768  27.477   4.615   9.566
 2404POPC   GL133769  27.485   4.218   9.330
 2404POPC   GL233770  27.728   4.322   9.166
 2404POPC   C1A33771  27.351   4.033   8.900
 2404POPC   D2A33772  27.350   4.160   8.452
 2404POPC   C3A33773  27.233   4.005   8.031
 2404POPC   C4A33774  27.354   4.065   7.597
 2404POPC   C1B33775  27.836   4.216   8.745
 2404POPC   C2B33776  27.839   4.070   8.310
 2404POPC   C3B33777  27.688   4.267   7.938
 2404POPC   C4B33778  27.697   4.476   7.532
 2405POPC   NC333779  42.671  38.861   9.570
 2405POPC   PO433780  43.260  39.131   9.694
 2405POPC   GL133781  43.096  39.184   9.242
 2405POPC   GL233782  42.757  39.313   9.124
 2405POPC   C1A33783  43.183  39.326   8.793
 2405POPC   D2A33784  43.490  39.343   8.455
 2405POPC   C3A33785  43.375  39.182   8.053
 2405POPC   C4A33786  43.006  39.007   7.885
 2405POPC   C1B33787  42.667  39.427   8.686
 2405POPC   C2B33788  42.918  39.351   8.293
 2405POPC   C3B33789  43.004  39.525   7.884
 2405POPC   C4B33790  42.849  39.392   7.455
 2406POPC   NC333791  22.631  35.722   9.499
 2406POPC   PO433792  23.302  35.590   9.457
 2406POPC   GL133793  22.962  35.448   9.151
 2406POPC   GL233794  22.709  35.567   9.037
 2406POPC   C1A33795  23.032  35.327   8.709
 2406POPC   D2A33796  23.343  35.224   8.388
 2406POPC   C3A33797  23.189  35.324   8.022
 2406POPC   C4A33798  23.132  35.704   7.734
 2406POPC   C1B33799  22.510  35.454   8.672
 2406POPC   C2B33800  22.477  35.398   8.218
 2406POPC   C3B33801  22.722  35.415   7.851
 2406POPC   C4B33802  22.792  35.025   7.619
 2407POPC   NC333803  31.558  39.100   9.494
 2407POPC   PO433804  31.056  39.387   9.183
 2407POPC   GL133805  31.383  39.112   8.990
 2407POPC   GL233806  31.764  39.060   9.040
 2407POPC   C1A33807  31.531  39.204   8.592
 2407POPC   D2A33808  31.400  39.501   8.283
 2407POPC   C3A33809  31.292  39.318   7.915
 2407POPC   C4A33810  31.493  39.502   7.560
 2407POPC   C1B33811  31.782  38.768   8.696
 2407POPC   C2B33812  31.747  38.865   8.243
 2407POPC   C3B33813  31.747  39.124   7.857
 2407POPC   C4B33814  31.766  39.121   7.375
 2408POPC   NC333815   7.105  29.116   9.962
 2408POPC   PO433816   7.712  28.978   9.698
 2408POPC   GL133817   7.557  29.163   9.254
 2408POPC   GL233818   7.539  29.542   9.261
 2408POPC   C1A33819   7.317  29.038   8.806
 2408POPC   D2A33820   7.214  29.141   8.347
 2408POPC   C3A33821   7.298  28.898   7.938
 2408POPC   C4A33822   7.583  28.758   7.548
 2408POPC   C1B33823   7.459  29.519   8.825
 2408POPC   C2B33824   7.626  29.441   8.407
 2408POPC   C3B33825   7.533  29.369   7.982
 2408POPC   C4B33826   7.540  29.625   7.613
 2409POPC   NC333827  18.631  11.183   9.522
 2409POPC   PO433828  18.022  11.424   9.468
 2409POPC   GL133829  18.343  11.305   9.127
 2409POPC   GL233830  18.678  11.525   9.142
 2409POPC   C1A33831  18.357  11.063   8.749
 2409POPC   D2A33832  18.215  11.265   8.401
 2409POPC   C3A33833  18.431  11.145   8.068
 2409POPC   C4A33834  18.288  11.118   7.691
 2409POPC   C1B33835  18.517  11.569   8.699
 2409POPC   C2B33836  18.558  11.613   8.239
 2409POPC   C3B33837  18.580  11.608   7.779
 2409POPC   C4B33838  18.622  11.785   7.361
 2410POPC   NC333839  12.278  28.064   9.814
 2410POPC   PO433840  11.691  28.353   9.656
 2410POPC   GL133841  11.744  28.370   9.186
 2410POPC   GL233842  12.135  28.306   9.140
 2410POPC   C1A33843  11.835  28.274   8.740
 2410POPC   D2A33844  12.106  28.251   8.383
 2410POPC   C3A33845  11.901  28.164   8.030
 2410POPC   C4A33846  11.706  28.249   7.630
 2410POPC   C1B33847  12.303  28.556   8.788
 2410POPC   C2B33848  12.414  28.668   8.378
 2410POPC   C3B33849  12.217  28.739   8.045
 2410POPC   C4B33850  12.156  28.469   7.735
 2411POPC   NC333851  19.501   6.277   9.280
 2411POPC   PO433852  20.018   5.898   9.607
 2411POPC   GL133853  19.791   5.835   9.242
 2411POPC   GL233854  19.883   6.087   9.000
 2411POPC   C1A33855  19.704   5.631   8.841
 2411POPC   D2A33856  19.948   5.757   8.477
 2411POPC   C3A33857  19.720   5.707   8.108
 2411POPC   C4A33858  19.747   5.734   7.690
 2411POPC   C1B33859  19.623   6.120   8.643
 2411POPC   C2B33860  19.738   6.193   8.205
 2411POPC   C3B33861  19.928   6.221   7.774
 2411POPC   C4B33862  19.943   6.243   7.300
 2412POPC   NC333863  19.710   1.392   9.399
 2412POPC   PO433864  20.225   1.228   9.819
 2412POPC   GL133865  20.060   1.049   9.306
 2412POPC   GL233866  20.090   1.285   9.090
 2412POPC   C1A33867  19.732   1.072   8.843
 2412POPC   D2A33868  19.862   0.970   8.419
 2412POPC   C3A33869  19.722   1.111   7.992
 2412POPC   C4A33870  19.795   1.134   7.525
 2412POPC   C1B33871  20.218   1.237   8.709
 2412POPC   C2B33872  20.140   1.376   8.286
 2412POPC   C3B33873  20.169   1.309   7.821
 2412POPC   C4B33874  20.264   1.255   7.345
 2413POPC   NC333875  36.361  13.189   9.454
 2413POPC   PO433876  36.094  12.518   9.499
 2413POPC   GL133877  36.094  12.866   9.176
 2413POPC   GL233878  35.774  13.002   9.053
 2413POPC   C1A33879  36.206  12.969   8.756
 2413POPC   D2A33880  36.328  12.866   8.354
 2413POPC   C3A33881  36.161  13.115   8.027
 2413POPC   C4A33882  36.284  13.026   7.624
 2413POPC   C1B33883  35.703  12.889   8.658
 2413POPC   C2B33884  35.824  12.788   8.256
 2413POPC   C3B33885  35.625  12.571   7.950
 2413POPC   C4B33886  35.718  12.477   7.544
 2414POPC   NC333887  40.342   5.282   9.285
 2414POPC   PO433888  39.792   5.031   9.587
 2414POPC   GL133889  39.913   4.923   9.183
 2414POPC   GL233890  40.205   4.714   9.263
 2414POPC   C1A33891  39.917   5.168   8.779
 2414POPC   D2A33892  39.891   5.412   8.365
 2414POPC   C3A33893  39.776   5.246   7.966
 2414POPC   C4A33894  39.861   4.961   7.633
 2414POPC   C1B33895  40.238   4.725   8.809
 2414POPC   C2B33896  40.218   4.961   8.416
 2414POPC   C3B33897  40.250   4.917   7.990
 2414POPC   C4B33898  40.339   5.159   7.640
 2415POPC   NC333899   1.100  14.253   9.373
 2415POPC   PO433900   1.747  14.003   9.328
 2415POPC   GL133901   1.450  14.202   9.023
 2415POPC   GL233902   1.359  14.538   9.015
 2415POPC   C1A33903   1.492  14.322   8.595
 2415POPC   D2A33904   1.523  14.146   8.231
 2415POPC   C3A33905   1.315  14.357   7.977
 2415POPC   C4A33906   1.220  14.429   7.620
 2415POPC   C1B33907   1.117  14.727   8.689
 2415POPC   C2B33908   1.009  14.547   8.315
 2415POPC   C3B33909   0.837  14.648   7.917
 2415POPC   C4B33910   1.046  14.939   7.643
 2416POPC   NC333911  33.844   9.421   9.396
 2416POPC   PO433912  34.289   9.819   9.654
 2416POPC   GL133913  34.087   9.865   9.169
 2416POPC   GL233914  33.726   9.742   9.049
 2416POPC   C1A33915  34.058   9.751   8.690
 2416POPC   D2A33916  33.715   9.785   8.438
 2416POPC   C3A33917  33.830   9.650   8.042
 2416POPC   C4A33918  34.097   9.929   7.780
 2416POPC   C1B33919  33.382   9.915   8.817
 2416POPC   C2B33920  33.320  10.102   8.384
 2416POPC   C3B33921  33.288   9.891   7.962
 2416POPC   C4B33922  33.582   9.778   7.612
 2417POPC   NC333923  24.761  27.227   9.531
 2417POPC   PO433924  24.481  27.943   9.428
 2417POPC   GL133925  24.613  27.619   9.177
 2417POPC   GL233926  24.390  27.329   9.180
 2417POPC   C1A33927  24.500  27.611   8.762
 2417POPC   D2A33928  24.588  27.764   8.383
 2417POPC   C3A33929  24.320  27.661   8.074
 2417POPC   C4A33930  24.357  27.786   7.662
 2417POPC   C1B33931  24.417  27.115   8.794
 2417POPC   C2B33932  24.475  27.252   8.378
 2417POPC   C3B33933  24.542  27.232   7.939
 2417POPC   C4B33934  24.431  27.212   7.516
 2418POPC   NC333935  39.244  10.147   9.504
 2418POPC   PO433936  38.954   9.543   9.833
 2418POPC   GL133937  39.042   9.667   9.309
 2418POPC   GL233938  39.348   9.762   9.168
 2418POPC   C1A33939  38.940   9.806   8.826
 2418POPC   D2A33940  39.122   9.759   8.385
 2418POPC   C3A33941  39.005   9.909   8.000
 2418POPC   C4A33942  39.178   9.847   7.617
 2418POPC   C1B33943  39.359   9.552   8.764
 2418POPC   C2B33944  39.243   9.269   8.462
 2418POPC   C3B33945  39.093   9.364   8.052
 2418POPC   C4B33946  39.323   9.365   7.669
 2419POPC   NC333947  31.440  10.061   9.442
 2419POPC   PO433948  31.642   9.409   9.533
 2419POPC   GL133949  31.694   9.673   9.170
 2419POPC   GL233950  32.028   9.514   9.132
 2419POPC   C1A33951  31.529   9.942   8.813
 2419POPC   D2A33952  31.246   9.847   8.481
 2419POPC   C3A33953  31.384   9.763   8.080
 2419POPC   C4A33954  31.163   9.715   7.669
 2419POPC   C1B33955  32.009   9.798   8.795
 2419POPC   C2B33956  31.837   9.933   8.392
 2419POPC   C3B33957  31.927   9.794   7.982
 2419POPC   C4B33958  31.668   9.687   7.665
 2420POPC   NC333959   4.436  13.763   9.459
 2420POPC   PO433960   4.304  13.069   9.576
 2420POPC   GL133961   4.278  13.362   9.147
 2420POPC   GL233962   4.524  13.610   9.001
 2420POPC   C1A33963   4.132  13.579   8.712
 2420POPC   D2A33964   4.296  13.856   8.427
 2420POPC   C3A33965   4.340  13.769   7.968
 2420POPC   C4A33966   4.093  13.446   7.755
 2420POPC   C1B33967   4.647  13.351   8.693
 2420POPC   C2B33968   4.503  13.399   8.293
 2420POPC   C3B33969   4.722  13.400   7.914
 2420POPC   C4B33970   4.609  13.539   7.511
 2421POPC   NC333971  35.468   0.758   9.535
 2421POPC   PO433972  34.958   0.309   9.682
 2421POPC   GL133973  35.131   0.315   9.199
 2421POPC   GL233974  35.426   0.472   9.115
 2421POPC   C1A33975  35.124   0.396   8.697
 2421POPC   D2A33976  35.216   0.625   8.262
 2421POPC   C3A33977  35.089   0.478   7.821
 2421POPC   C4A33978  34.760   0.506   7.499
 2421POPC   C1B33979  35.639   0.428   8.750
 2421POPC   C2B33980  35.520   0.237   8.368
 2421POPC   C3B33981  35.610   0.381   7.959
 2421POPC   C4B33982  35.534   0.470   7.521
 2422POPC   NC333983  27.841  25.169   9.387
 2422POPC   PO433984  27.331  25.585   9.448
 2422POPC   GL133985  27.596  25.520   9.051
 2422POPC   GL233986  27.923  25.407   8.948
 2422POPC   C1A33987  27.609  25.638   8.594
 2422POPC   D2A33988  27.716  25.456   8.171
 2422POPC   C3A33989  27.441  25.529   7.829
 2422POPC   C4A33990  27.262  25.351   7.452
 2422POPC   C1B33991  27.791  25.092   8.681
 2422POPC   C2B33992  27.949  24.915   8.300
 2422POPC   C3B33993  27.830  24.988   7.871
 2422POPC   C4B33994  27.744  25.243   7.524
 2423POPC   NC333995  42.092  35.053   9.496
 2423POPC   PO433996  42.002  35.710   9.556
 2423POPC   GL133997  42.216  35.475   9.200
 2423POPC   GL233998  41.908  35.389   9.118
 2423POPC   C1A33999  42.450  35.382   8.785
 2423POPC   D2A34000  42.502  35.587   8.412
 2423POPC   C3A34001  42.267  35.492   8.069
 2423POPC   C4A34002  42.429  35.410   7.682
 2423POPC   C1B34003  41.988  35.239   8.735
 2423POPC   C2B34004  42.218  35.047   8.369
 2423POPC   C3B34005  42.093  35.042   7.914
 2423POPC   C4B34006  41.877  35.392   7.715
 2424POPC   NC334007   2.467  25.383   9.469
 2424POPC   PO434008   2.824  24.879   9.610
 2424POPC   GL134009   2.982  24.946   9.184
 2424POPC   GL234010   2.765  25.185   9.110
 2424POPC   C1A34011   3.098  25.051   8.751
 2424POPC   D2A34012   2.824  25.233   8.433
 2424POPC   C3A34013   2.961  25.152   8.006
 2424POPC   C4A34014   2.857  25.416   7.675
 2424POPC   C1B34015   2.475  25.326   8.800
 2424POPC   C2B34016   2.318  25.382   8.422
 2424POPC   C3B34017   2.479  25.341   8.043
 2424POPC   C4B34018   2.360  25.384   7.651
 2425POPC   NC334019  28.590   2.710   9.507
 2425POPC   PO434020  28.024   3.062   9.671
 2425POPC   GL134021  28.152   2.836   9.242
 2425POPC   GL234022  28.429   3.029   9.118
 2425POPC   C1A34023  28.416   2.583   8.883
 2425POPC   D2A34024  28.529   2.490   8.439
 2425POPC   C3A34025  28.464   2.707   8.028
 2425POPC   C4A34026  28.395   2.505   7.638
 2425POPC   C1B34027  28.275   3.074   8.677
 2425POPC   C2B34028  28.106   3.175   8.254
 2425POPC   C3B34029  28.227   3.261   7.809
 2425POPC   C4B34030  28.413   3.002   7.464
 2426POPC   NC334031   0.732  29.648   9.382
 2426POPC   PO434032   0.067  29.862   9.417
 2426POPC   GL134033   0.322  29.932   9.060
 2426POPC   GL234034   0.594  30.151   8.913
 2426POPC   C1A34035   0.137  30.226   8.750
 2426POPC   D2A34036  44.862  30.219   8.379
 2426POPC   C3A34037   0.062  29.983   8.075
 2426POPC   C4A34038   0.417  29.812   7.881
 2426POPC   C1B34039   0.564  29.804   8.643
 2426POPC   C2B34040   0.902  29.743   8.366
 2426POPC   C3B34041   0.964  29.933   7.973
 2426POPC   C4B34042   0.725  30.157   7.697
 2427POPC   NC334043  39.862  26.097   9.569
 2427POPC   PO434044  40.057  25.409   9.507
 2427POPC   GL134045  39.883  25.610   9.123
 2427POPC   GL234046  39.761  25.956   9.107
 2427POPC   C1A34047  40.153  25.854   8.820
 2427POPC   D2A34048  40.295  26.089   8.464
 2427POPC   C3A34049  40.111  26.011   8.066
 2427POPC   C4A34050  40.028  26.118   7.673
 2427POPC   C1B34051  39.788  26.303   8.814
 2427POPC   C2B34052  39.545  26.358   8.435
 2427POPC   C3B34053  39.658  26.299   7.995
 2427POPC   C4B34054  39.694  26.463   7.576
 2428POPC   NC334055  20.982  14.722   9.743
 2428POPC   PO434056  20.338  14.635   9.542
 2428POPC   GL134057  20.591  14.547   9.185
 2428POPC   GL234058  20.842  14.321   9.376
 2428POPC   C1A34059  20.493  14.496   8.714
 2428POPC   D2A34060  20.509  14.269   8.286
 2428POPC   C3A34061  20.411  14.483   7.870
 2428POPC   C4A34062  20.474  14.694   7.444
 2428POPC   C1B34063  20.947  14.219   8.947
 2428POPC   C2B34064  20.970  14.362   8.534
 2428POPC   C3B34065  20.988  14.462   8.122
 2428POPC   C4B34066  21.253  14.236   7.849
 2429POPC   NC334067  31.301  35.613   9.507
 2429POPC   PO434068  31.670  34.996   9.518
 2429POPC   GL134069  31.696  35.235   9.117
 2429POPC   GL234070  31.416  35.454   9.042
 2429POPC   C1A34071  31.562  35.164   8.670
 2429POPC   D2A34072  31.246  35.350   8.392
 2429POPC   C3A34073  31.396  35.285   7.973
 2429POPC   C4A34074  31.739  34.953   7.921
 2429POPC   C1B34075  31.132  35.712   8.757
 2429POPC   C2B34076  30.923  35.737   8.338
 2429POPC   C3B34077  31.032  35.688   7.885
 2429POPC   C4B34078  31.180  35.517   7.440
 2430POPC   NC334079   1.043   3.597   9.502
 2430POPC   PO434080   1.711   3.612   9.485
 2430POPC   GL134081   1.422   3.486   9.177
 2430POPC   GL234082   1.326   3.862   9.185
 2430POPC   C1A34083   1.174   3.553   8.792
 2430POPC   D2A34084   1.327   3.545   8.382
 2430POPC   C3A34085   1.133   3.360   8.026
 2430POPC   C4A34086   1.537   3.376   7.852
 2430POPC   C1B34087   1.286   4.052   8.804
 2430POPC   C2B34088   1.059   3.991   8.442
 2430POPC   C3B34089   1.215   3.932   8.043
 2430POPC   C4B34090   1.064   3.749   7.692
 2431POPC   NC334091  25.038  34.144   9.744
 2431POPC   PO434092  25.337  33.628   9.372
 2431POPC   GL134093  25.310  33.643   9.018
 2431POPC   GL234094  25.057  33.443   8.975
 2431POPC   C1A34095  25.338  33.987   8.741
 2431POPC   D2A34096  25.032  34.086   8.472
 2431POPC   C3A34097  25.106  33.834   8.131
 2431POPC   C4A34098  25.200  33.874   7.722
 2431POPC   C1B34099  25.162  33.551   8.553
 2431POPC   C2B34100  25.389  33.399   8.241
 2431POPC   C3B34101  25.148  33.330   7.944
 2431POPC   C4B34102  25.128  33.385   7.566
 2432POPC   NC334103  31.572  22.432   9.525
 2432POPC   PO434104  31.469  23.103   9.424
 2432POPC   GL134105  31.587  22.798   9.155
 2432POPC   GL234106  31.951  22.665   9.236
 2432POPC   C1A34107  31.427  22.904   8.756
 2432POPC   D2A34108  31.479  23.169   8.404
 2432POPC   C3A34109  31.372  22.947   8.033
 2432POPC   C4A34110  31.365  23.088   7.621
 2432POPC   C1B34111  31.948  22.772   8.799
 2432POPC   C2B34112  31.756  22.746   8.406
 2432POPC   C3B34113  31.883  22.798   8.013
 2432POPC   C4B34114  31.708  22.716   7.653
 2433POPC   NC334115  31.110  25.855   9.599
 2433POPC   PO434116  31.725  26.181   9.498
 2433POPC   GL134117  31.402  26.095   9.218
 2433POPC   GL234118  31.509  25.723   9.300
 2433POPC   C1A34119  31.540  26.335   8.828
 2433POPC   D2A34120  31.732  26.413   8.431
 2433POPC   C3A34121  31.520  26.394   8.056
 2433POPC   C4A34122  31.601  26.146   7.730
 2433POPC   C1B34123  31.672  25.819   8.904
 2433POPC   C2B34124  31.512  25.940   8.505
 2433POPC   C3B34125  31.381  25.899   8.106
 2433POPC   C4B34126  31.466  25.633   7.760
 2434POPC   NC334127  21.764  10.111   9.628
 2434POPC   PO434128  22.358   9.795   9.446
 2434POPC   GL134129  22.075   9.964   9.152
 2434POPC   GL234130  22.288  10.162   8.929
 2434POPC   C1A34131  22.086   9.733   8.761
 2434POPC   D2A34132  21.940   9.783   8.351
 2434POPC   C3A34133  22.246   9.871   7.993
 2434POPC   C4A34134  22.115   9.755   7.580
 2434POPC   C1B34135  22.393  10.037   8.499
 2434POPC   C2B34136  22.413   9.581   8.370
 2434POPC   C3B34137  22.514   9.422   7.956
 2434POPC   C4B34138  22.619   9.711   7.589
 2435POPC   NC334139  31.887   5.713   9.685
 2435POPC   PO434140  31.509   6.086   9.514
 2435POPC   GL134141  31.464   6.305   9.082
 2435POPC   GL234142  31.773   6.228   8.919
 2435POPC   C1A34143  31.373   6.297   8.600
 2435POPC   D2A34144  31.548   6.126   8.169
 2435POPC   C3A34145  31.283   5.973   7.854
 2435POPC   C4A34146  31.168   6.085   7.434
 2435POPC   C1B34147  31.653   5.867   8.642
 2435POPC   C2B34148  31.598   5.627   8.245
 2435POPC   C3B34149  31.755   5.698   7.815
 2435POPC   C4B34150  31.969   5.731   7.375
 2436POPC   NC334151  39.530   2.895   9.307
 2436POPC   PO434152  39.035   2.574   9.625
 2436POPC   GL134153  39.074   2.655   9.205
 2436POPC   GL234154  39.272   2.389   9.156
 2436POPC   C1A34155  39.184   2.769   8.744
 2436POPC   D2A34156  39.011   2.879   8.336
 2436POPC   C3A34157  39.305   2.864   8.008
 2436POPC   C4A34158  39.382   3.107   7.671
 2436POPC   C1B34159  39.335   2.273   8.736
 2436POPC   C2B34160  39.443   2.480   8.332
 2436POPC   C3B34161  39.411   2.369   7.882
 2436POPC   C4B34162  39.267   2.589   7.510
 2437POPC   NC334163  25.022  41.026   9.235
 2437POPC   PO434164  25.379  40.604   9.617
 2437POPC   GL134165  25.305  40.662   9.074
 2437POPC   GL234166  25.520  40.956   8.896
 2437POPC   C1A34167  25.157  40.693   8.658
 2437POPC   D2A34168  25.328  40.727   8.280
 2437POPC   C3A34169  25.058  40.877   7.961
 2437POPC   C4A34170  24.904  40.539   7.674
 2437POPC   C1B34171  25.687  40.564   8.697
 2437POPC   C2B34172  25.659  40.302   8.353
 2437POPC   C3B34173  25.686  40.467   8.006
 2437POPC   C4B34174  25.415  40.627   7.723
 2438POPC   NC334175  28.935   1.952   9.516
 2438POPC   PO434176  29.404   1.727   9.303
 2438POPC   GL134177  29.097   2.010   9.045
 2438POPC   GL234178  28.719   1.937   9.050
 2438POPC   C1A34179  28.901   2.257   8.713
 2438POPC   D2A34180  28.932   2.208   8.280
 2438POPC   C3A34181  29.283   2.200   7.968
 2438POPC   C4A34182  29.207   2.241   7.497
 2438POPC   C1B34183  28.869   1.736   8.663
 2438POPC   C2B34184  29.000   1.719   8.214
 2438POPC   C3B34185  28.944   1.866   7.771
 2438POPC   C4B34186  28.892   1.580   7.442
 2439POPC   NC334187   8.253  21.340   9.812
 2439POPC   PO434188   8.437  20.741   9.824
 2439POPC   GL134189   8.179  20.942   9.427
 2439POPC   GL234190   8.290  21.273   9.294
 2439POPC   C1A34191   8.055  21.009   8.930
 2439POPC   D2A34192   8.155  21.241   8.468
 2439POPC   C3A34193   8.211  21.325   7.977
 2439POPC   C4A34194   7.998  21.575   7.616
 2439POPC   C1B34195   8.481  21.363   8.865
 2439POPC   C2B34196   8.636  21.643   8.509
 2439POPC   C3B34197   8.600  21.709   8.057
 2439POPC   C4B34198   8.496  21.602   7.633
 2440POPC   NC334199  36.557  15.212   9.757
 2440POPC   PO434200  35.991  15.239   9.456
 2440POPC   GL134201  36.189  15.288   9.049
 2440POPC   GL234202  36.525  15.096   9.030
 2440POPC   C1A34203  36.053  15.423   8.633
 2440POPC   D2A34204  36.073  15.234   8.234
 2440POPC   C3A34205  36.070  15.333   7.794
 2440POPC   C4A34206  35.804  15.229   7.443
 2440POPC   C1B34207  36.265  14.936   8.669
 2440POPC   C2B34208  36.067  14.739   8.319
 2440POPC   C3B34209  36.129  14.835   7.912
 2440POPC   C4B34210  36.506  15.042   7.744
 2441POPC   NC334211   3.094  37.639   9.527
 2441POPC   PO434212   2.490  37.417   9.490
 2441POPC   GL134213   2.763  37.498   9.157
 2441POPC   GL234214   2.870  37.829   9.121
 2441POPC   C1A34215   2.840  37.367   8.756
 2441POPC   D2A34216   3.053  37.537   8.405
 2441POPC   C3A34217   2.816  37.500   8.051
 2441POPC   C4A34218   2.953  37.447   7.628
 2441POPC   C1B34219   2.795  37.892   8.703
 2441POPC   C2B34220   2.838  38.007   8.267
 2441POPC   C3B34221   2.972  37.934   7.845
 2441POPC   C4B34222   2.632  37.853   7.536
 2442POPC   NC334223  10.061  37.478   9.410
 2442POPC   PO434224   9.461  37.602   9.494
 2442POPC   GL134225   9.511  37.685   9.074
 2442POPC   GL234226   9.771  37.476   9.014
 2442POPC   C1A34227   9.624  37.767   8.634
 2442POPC   D2A34228   9.839  37.956   8.310
 2442POPC   C3A34229   9.728  37.848   7.932
 2442POPC   C4A34230  10.067  37.608   7.714
 2442POPC   C1B34231   9.964  37.384   8.629
 2442POPC   C2B34232   9.788  37.436   8.220
 2442POPC   C3B34233   9.593  37.377   7.796
 2442POPC   C4B34234   9.574  37.257   7.346
 2443POPC   NC334235  19.574   2.639   9.375
 2443POPC   PO434236  18.959   2.543   9.598
 2443POPC   GL134237  19.058   2.744   9.199
 2443POPC   GL234238  19.220   2.511   8.958
 2443POPC   C1A34239  18.845   2.822   8.799
 2443POPC   D2A34240  18.957   2.748   8.374
 2443POPC   C3A34241  18.914   3.061   8.036
 2443POPC   C4A34242  18.903   2.994   7.584
 2443POPC   C1B34243  19.392   2.846   8.687
 2443POPC   C2B34244  19.381   3.054   8.276
 2443POPC   C3B34245  19.363   3.010   7.820
 2443POPC   C4B34246  19.366   2.860   7.378
 2444POPC   NC334247  43.605  24.473   9.436
 2444POPC   PO434248  42.938  24.519   9.499
 2444POPC   GL134249  43.184  24.327   9.167
 2444POPC   GL234250  43.291  24.678   9.099
 2444POPC   C1A34251  43.208  24.190   8.716
 2444POPC   D2A34252  42.938  24.122   8.317
 2444POPC   C3A34253  43.128  24.311   7.937
 2444POPC   C4A34254  43.047  24.686   7.704
 2444POPC   C1B34255  43.590  24.585   8.802
 2444POPC   C2B34256  43.564  24.498   8.390
 2444POPC   C3B34257  43.464  24.704   8.017
 2444POPC   C4B34258  43.547  24.598   7.621
 2445POPC   NC334259  11.681  23.625   9.475
 2445POPC   PO434260  11.206  24.012   9.299
 2445POPC   GL134261  11.283  23.607   9.104
 2445POPC   GL234262  10.998  23.477   8.925
 2445POPC   C1A34263  11.418  23.466   8.674
 2445POPC   D2A34264  11.259  23.388   8.257
 2445POPC   C3A34265  11.525  23.650   8.015
 2445POPC   C4A34266  11.453  23.787   7.615
 2445POPC   C1B34267  11.132  23.890   8.687
 2445POPC   C2B34268  11.179  24.005   8.264
 2445POPC   C3B34269  11.044  23.775   7.927
 2445POPC   C4B34270  11.093  23.394   7.731
 2446POPC   NC334271   3.025  11.408   9.436
 2446POPC   PO434272   3.633  11.352   9.629
 2446POPC   GL134273   3.535  11.292   9.183
 2446POPC   GL234274   3.336  11.579   9.072
 2446POPC   C1A34275   3.713  11.071   8.783
 2446POPC   D2A34276   3.998  10.875   8.480
 2446POPC   C3A34277   3.805  10.907   8.110
 2446POPC   C4A34278   3.718  11.172   7.796
 2446POPC   C1B34279   3.263  11.308   8.745
 2446POPC   C2B34280   3.454  11.255   8.359
 2446POPC   C3B34281   3.527  11.581   8.043
 2446POPC   C4B34282   3.278  11.420   7.706
 2447POPC   NC334283   6.684  41.266   9.390
 2447POPC   PO434284   6.321  41.852   9.472
 2447POPC   GL134285   6.467  41.621   9.079
 2447POPC   GL234286   6.247  41.331   9.159
 2447POPC   C1A34287   6.574  41.532   8.592
 2447POPC   D2A34288   6.873  41.625   8.190
 2447POPC   C3A34289   6.797  41.805   7.764
 2447POPC   C4A34290   6.444  41.656   7.565
 2447POPC   C1B34291   6.396  41.075   8.815
 2447POPC   C2B34292   6.275  41.135   8.380
 2447POPC   C3B34293   6.382  41.397   8.040
 2447POPC   C4B34294   6.323  41.187   7.656
 2448POPC   NC334295  23.848  27.050   9.615
 2448POPC   PO434296  23.382  26.652   9.808
 2448POPC   GL134297  23.572  26.717   9.304
 2448POPC   GL234298  23.535  27.076   9.210
 2448POPC   C1A34299  23.446  26.828   8.801
 2448POPC   D2A34300  23.353  26.817   8.371
 2448POPC   C3A34301  23.642  26.862   8.059
 2448POPC   C4A34302  23.739  26.530   7.815
 2448POPC   C1B34303  23.914  26.984   8.936
 2448POPC   C2B34304  23.993  26.967   8.488
 2448POPC   C3B34305  24.036  27.196   8.089
 2448POPC   C4B34306  23.999  26.985   7.674
 2449POPC   NC334307  20.213  12.746   9.985
 2449POPC   PO434308  19.781  13.121   9.623
 2449POPC   GL134309  19.853  12.988   9.206
 2449POPC   GL234310  19.585  12.820   9.031
 2449POPC   C1A34311  19.900  13.119   8.786
 2449POPC   D2A34312  20.018  12.946   8.423
 2449POPC   C3A34313  19.838  13.124   8.070
 2449POPC   C4A34314  19.941  12.976   7.666
 2449POPC   C1B34315  19.369  12.762   8.658
 2449POPC   C2B34316  19.551  12.715   8.268
 2449POPC   C3B34317  19.484  12.815   7.864
 2449POPC   C4B34318  19.618  12.730   7.359
 2450POPC   NC334319  36.085  22.560   9.542
 2450POPC   PO434320  36.214  21.945   9.543
 2450POPC   GL134321  36.033  22.169   9.206
 2450POPC   GL234322  35.824  22.486   9.111
 2450POPC   C1A34323  36.258  22.057   8.822
 2450POPC   D2A34324  36.218  22.193   8.416
 2450POPC   C3A34325  36.338  21.905   8.025
 2450POPC   C4A34326  36.596  21.716   7.688
 2450POPC   C1B34327  35.764  22.186   8.794
 2450POPC   C2B34328  35.662  22.030   8.413
 2450POPC   C3B34329  35.853  22.194   8.080
 2450POPC   C4B34330  36.095  22.252   7.721
 2451POPC   NC334331  26.289  44.535   9.480
 2451POPC   PO434332  25.952   0.082   9.539
 2451POPC   GL134333  26.106  44.925   9.188
 2451POPC   GL234334  25.847  44.657   9.199
 2451POPC   C1A34335  26.273  44.965   8.769
 2451POPC   D2A34336  26.027  44.851   8.403
 2451POPC   C3A34337  26.056  44.925   7.971
 2451POPC   C4A34338  26.133  44.769   7.556
 2451POPC   C1B34339  26.090  44.520   8.858
 2451POPC   C2B34340  26.355  44.495   8.517
 2451POPC   C3B34341  26.160  44.388   8.117
 2451POPC   C4B34342  26.375  44.316   7.723
 2452POPC   NC334343  28.988  29.677   9.777
 2452POPC   PO434344  29.386  30.072   9.548
 2452POPC   GL134345  29.248  29.878   9.160
 2452POPC   GL234346  29.056  29.557   9.234
 2452POPC   C1A34347  29.092  29.954   8.735
 2452POPC   D2A34348  29.286  30.103   8.362
 2452POPC   C3A34349  29.312  29.959   7.969
 2452POPC   C4A34350  29.094  30.147   7.669
 2452POPC   C1B34351  28.843  29.527   8.811
 2452POPC   C2B34352  28.976  29.599   8.358
 2452POPC   C3B34353  28.738  29.502   7.981
 2452POPC   C4B34354  28.805  29.735   7.615
 2453POPC   NC334355  19.046   2.140   9.380
 2453POPC   PO434356  19.291   1.487   9.576
 2453POPC   GL134357  19.137   1.656   9.177
 2453POPC   GL234358  19.458   1.711   9.087
 2453POPC   C1A34359  18.914   1.852   8.807
 2453POPC   D2A34360  19.026   2.221   8.528
 2453POPC   C3A34361  18.905   2.143   8.092
 2453POPC   C4A34362  19.163   2.238   7.746
 2453POPC   C1B34363  19.401   1.856   8.693
 2453POPC   C2B34364  19.148   1.737   8.368
 2453POPC   C3B34365  19.350   1.842   8.035
 2453POPC   C4B34366  19.112   1.724   7.713
 2454POPC   NC334367  16.979  42.801   9.636
 2454POPC   PO434368  16.517  42.151   9.624
 2454POPC   GL134369  16.727  42.153   9.247
 2454POPC   GL234370  16.837  42.476   9.280
 2454POPC   C1A34371  16.727  42.044   8.813
 2454POPC   D2A34372  16.540  42.270   8.450
 2454POPC   C3A34373  16.703  42.154   8.034
 2454POPC   C4A34374  16.499  42.019   7.642
 2454POPC   C1B34375  16.821  42.535   8.859
 2454POPC   C2B34376  16.972  42.525   8.433
 2454POPC   C3B34377  16.731  42.671   8.076
 2454POPC   C4B34378  16.917  42.561   7.703
 2455POPC   NC334379   9.412   7.595   9.579
 2455POPC   PO434380   8.752   7.371   9.423
 2455POPC   GL134381   9.072   7.302   9.151
 2455POPC   GL234382   9.244   7.610   9.105
 2455POPC   C1A34383   8.951   7.251   8.736
 2455POPC   D2A34384   9.132   7.299   8.325
 2455POPC   C3A34385   8.835   7.441   8.013
 2455POPC   C4A34386   8.673   7.181   7.671
 2455POPC   C1B34387   9.304   7.595   8.701
 2455POPC   C2B34388   9.313   7.781   8.331
 2455POPC   C3B34389   9.281   7.710   7.894
 2455POPC   C4B34390   9.003   7.743   7.553
 2456POPC   NC334391   5.076   4.289   9.538
 2456POPC   PO434392   4.711   4.793   9.567
 2456POPC   GL134393   5.000   4.694   9.215
 2456POPC   GL234394   5.344   4.577   9.222
 2456POPC   C1A34395   5.029   4.392   8.865
 2456POPC   D2A34396   5.218   4.316   8.477
 2456POPC   C3A34397   5.050   4.134   8.133
 2456POPC   C4A34398   4.961   4.287   7.749
 2456POPC   C1B34399   5.504   4.588   8.814
 2456POPC   C2B34400   5.607   4.617   8.380
 2456POPC   C3B34401   5.362   4.550   7.977
 2456POPC   C4B34402   5.407   4.432   7.527
 2457POPC   NC334403   9.987  19.287   9.281
 2457POPC   PO434404   9.503  18.880   9.614
 2457POPC   GL134405   9.542  18.818   9.148
 2457POPC   GL234406   9.867  18.945   8.941
 2457POPC   C1A34407   9.405  18.907   8.741
 2457POPC   D2A34408   9.558  19.264   8.518
 2457POPC   C3A34409   9.605  19.291   8.091
 2457POPC   C4A34410   9.896  19.462   7.796
 2457POPC   C1B34411  10.095  19.243   8.636
 2457POPC   C2B34412  10.262  19.266   8.210
 2457POPC   C3B34413  10.029  18.996   7.938
 2457POPC   C4B34414   9.993  18.586   7.942
 2458POPC   NC334415  29.649   4.135   9.426
 2458POPC   PO434416  30.181   3.925   9.257
 2458POPC   GL134417  29.839   3.633   9.141
 2458POPC   GL234418  29.489   3.739   9.149
 2458POPC   C1A34419  29.895   3.427   8.754
 2458POPC   D2A34420  30.165   3.675   8.491
 2458POPC   C3A34421  30.128   3.516   8.077
 2458POPC   C4A34422  29.828   3.226   7.988
 2458POPC   C1B34423  29.603   3.836   8.701
 2458POPC   C2B34424  29.692   3.622   8.302
 2458POPC   C3B34425  29.645   3.694   7.853
 2458POPC   C4B34426  29.495   3.991   7.549
 2459POPC   NC334427  35.035  17.553   9.595
 2459POPC   PO434428  35.641  17.429   9.366
 2459POPC   GL134429  35.364  17.612   9.046
 2459POPC   GL234430  35.025  17.677   9.104
 2459POPC   C1A34431  35.272  17.543   8.611
 2459POPC   D2A34432  35.544  17.479   8.260
 2459POPC   C3A34433  35.470  17.597   7.835
 2459POPC   C4A34434  35.239  17.365   7.509
 2459POPC   C1B34435  34.791  17.715   8.709
 2459POPC   C2B34436  34.899  17.634   8.268
 2459POPC   C3B34437  34.928  17.564   7.852
 2459POPC   C4B34438  34.929  17.808   7.493
 2460POPC   NC334439   6.930  11.435   9.516
 2460POPC   PO434440   6.182  11.319   9.536
 2460POPC   GL134441   6.431  11.445   9.159
 2460POPC   GL234442   6.798  11.427   9.047
 2460POPC   C1A34443   6.428  11.364   8.722
 2460POPC   D2A34444   6.577  11.117   8.414
 2460POPC   C3A34445   6.441  11.236   8.046
 2460POPC   C4A34446   6.532  11.476   7.718
 2460POPC   C1B34447   6.968  11.155   8.750
 2460POPC   C2B34448   7.096  11.269   8.334
 2460POPC   C3B34449   6.970  11.302   7.919
 2460POPC   C4B34450   6.965  11.712   7.689
 2461POPC   NC334451   6.855  44.013   9.489
 2461POPC   PO434452   6.284  43.641   9.655
 2461POPC   GL134453   6.432  43.928   9.205
 2461POPC   GL234454   6.774  43.808   9.043
 2461POPC   C1A34455   6.591  44.186   8.796
 2461POPC   D2A34456   6.872  44.062   8.409
 2461POPC   C3A34457   6.758  44.147   7.959
 2461POPC   C4A34458   6.559  44.032   7.532
 2461POPC   C1B34459   6.926  43.608   8.679
 2461POPC   C2B34460   6.801  43.526   8.266
 2461POPC   C3B34461   6.796  43.651   7.853
 2461POPC   C4B34462   6.836  43.581   7.407
 2462POPC   NC334463  43.456  38.748   9.533
 2462POPC   PO434464  42.867  38.469   9.413
 2462POPC   GL134465  43.269  38.437   9.166
 2462POPC   GL234466  43.454  38.112   9.120
 2462POPC   C1A34467  43.234  38.602   8.757
 2462POPC   D2A34468  43.132  38.856   8.396
 2462POPC   C3A34469  43.323  38.649   8.047
 2462POPC   C4A34470  43.176  38.503   7.674
 2462POPC   C1B34471  43.139  38.087   8.797
 2462POPC   C2B34472  43.040  38.266   8.421
 2462POPC   C3B34473  43.151  38.172   8.057
 2462POPC   C4B34474  42.909  38.075   7.716
 2463POPC   NC334475  12.644  40.832   9.446
 2463POPC   PO434476  12.054  40.881   9.594
 2463POPC   GL134477  12.012  40.957   9.201
 2463POPC   GL234478  12.242  40.743   9.062
 2463POPC   C1A34479  11.786  40.961   8.843
 2463POPC   D2A34480  11.918  40.903   8.433
 2463POPC   C3A34481  11.752  40.937   8.049
 2463POPC   C4A34482  12.109  40.957   7.755
 2463POPC   C1B34483  12.309  41.068   8.717
 2463POPC   C2B34484  12.388  41.094   8.229
 2463POPC   C3B34485  12.610  40.998   7.812
 2463POPC   C4B34486  12.463  40.933   7.361
 2464POPC   NC334487   2.142  23.020   9.583
 2464POPC   PO434488   1.500  22.899   9.476
 2464POPC   GL134489   1.798  23.033   9.154
 2464POPC   GL234490   2.012  22.759   9.156
 2464POPC   C1A34491   2.080  23.003   8.737
 2464POPC   D2A34492   2.167  22.639   8.467
 2464POPC   C3A34493   2.306  22.723   8.060
 2464POPC   C4A34494   2.224  22.987   7.701
 2464POPC   C1B34495   1.725  22.658   8.803
 2464POPC   C2B34496   1.721  22.871   8.393
 2464POPC   C3B34497   1.857  22.981   8.031
 2464POPC   C4B34498   1.838  23.332   7.758
 2465POPC   NC334499  36.106  13.962   9.520
 2465POPC   PO434500  35.918  13.353   9.403
 2465POPC   GL134501  36.112  13.395   9.013
 2465POPC   GL234502  36.312  13.632   9.171
 2465POPC   C1A34503  36.146  13.428   8.527
 2465POPC   D2A34504  35.898  13.752   8.277
 2465POPC   C3A34505  36.096  13.905   7.911
 2465POPC   C4A34506  36.184  13.904   7.456
 2465POPC   C1B34507  36.522  13.626   8.791
 2465POPC   C2B34508  36.435  13.860   8.410
 2465POPC   C3B34509  36.571  13.781   8.009
 2465POPC   C4B34510  36.376  13.507   7.741
 2466POPC   NC334511  13.150   6.315   9.532
 2466POPC   PO434512  12.739   6.767   9.454
 2466POPC   GL134513  12.584   6.655   9.096
 2466POPC   GL234514  12.835   6.419   9.101
 2466POPC   C1A34515  12.676   6.717   8.693
 2466POPC   D2A34516  12.650   6.492   8.363
 2466POPC   C3A34517  12.765   6.792   8.033
 2466POPC   C4A34518  13.127   6.705   7.767
 2466POPC   C1B34519  13.161   6.515   8.792
 2466POPC   C2B34520  13.134   6.647   8.364
 2466POPC   C3B34521  13.031   6.309   8.073
 2466POPC   C4B34522  13.166   6.202   7.647
 2467POPC   NC334523  22.269  18.761   9.473
 2467POPC   PO434524  22.585  19.288   9.696
 2467POPC   GL134525  22.204  19.247   9.316
 2467POPC   GL234526  21.836  19.282   9.147
 2467POPC   C1A34527  22.154  19.031   8.898
 2467POPC   D2A34528  22.346  19.151   8.534
 2467POPC   C3A34529  22.251  18.965   8.139
 2467POPC   C4A34530  21.987  18.807   7.814
 2467POPC   C1B34531  21.911  19.429   8.715
 2467POPC   C2B34532  22.008  19.452   8.286
 2467POPC   C3B34533  22.014  19.311   7.860
 2467POPC   C4B34534  21.759  19.404   7.544
 2468POPC   NC334535  14.191  13.956   9.404
 2468POPC   PO434536  14.104  14.601   9.505
 2468POPC   GL134537  14.445  14.585   9.202
 2468POPC   GL234538  14.537  14.284   9.245
 2468POPC   C1A34539  14.632  14.598   8.765
 2468POPC   D2A34540  14.520  14.750   8.365
 2468POPC   C3A34541  14.566  14.592   7.961
 2468POPC   C4A34542  14.193  14.550   7.711
 2468POPC   C1B34543  14.497  14.107   8.856
 2468POPC   C2B34544  14.493  14.202   8.447
 2468POPC   C3B34545  14.314  14.172   8.075
 2468POPC   C4B34546  14.426  14.081   7.692
 2469POPC   NC334547  23.038  44.045   9.610
 2469POPC   PO434548  22.465  43.797   9.336
 2469POPC   GL134549  22.817  43.978   9.157
 2469POPC   GL234550  23.033  43.729   9.155
 2469POPC   C1A34551  23.164  44.091   8.834
 2469POPC   D2A34552  23.315  44.187   8.419
 2469POPC   C3A34553  23.177  44.324   7.981
 2469POPC   C4A34554  23.043  44.111   7.590
 2469POPC   C1B34555  22.845  43.716   8.739
 2469POPC   C2B34556  23.059  43.725   8.389
 2469POPC   C3B34557  22.922  43.890   8.045
 2469POPC   C4B34558  22.587  43.900   7.733
 2470POPC   NC334559  27.332   3.818   9.605
 2470POPC   PO434560  27.999   3.858   9.550
 2470POPC   GL134561  27.801   3.821   9.146
 2470POPC   GL234562  27.510   3.615   9.186
 2470POPC   C1A34563  27.697   3.728   8.700
 2470POPC   D2A34564  27.713   3.538   8.303
 2470POPC   C3A34565  27.695   3.755   7.907
 2470POPC   C4A34566  27.780   3.552   7.551
 2470POPC   C1B34567  27.254   3.505   8.848
 2470POPC   C2B34568  27.211   3.658   8.431
 2470POPC   C3B34569  27.266   3.492   8.023
 2470POPC   C4B34570  27.122   3.611   7.636
 2471POPC   NC334571  39.668  28.031   9.426
 2471POPC   PO434572  40.099  27.501   9.576
 2471POPC   GL134573  40.141  27.575   9.145
 2471POPC   GL234574  40.271  27.231   9.111
 2471POPC   C1A34575  40.089  27.770   8.730
 2471POPC   D2A34576  39.851  27.942   8.369
 2471POPC   C3A34577  39.999  27.778   7.985
 2471POPC   C4A34578  39.715  27.650   7.635
 2471POPC   C1B34579  39.996  27.239   8.755
 2471POPC   C2B34580  39.960  27.409   8.342
 2471POPC   C3B34581  39.944  27.273   7.922
 2471POPC   C4B34582  40.165  27.365   7.526
 2472POPC   NC334583  32.089  29.840   9.515
 2472POPC   PO434584  32.626  29.726   9.869
 2472POPC   GL134585  32.563  29.770   9.353
 2472POPC   GL234586  32.428  30.107   9.247
 2472POPC   C1A34587  32.383  29.652   8.924
 2472POPC   D2A34588  32.176  29.658   8.501
 2472POPC   C3A34589  32.397  29.704   8.084
 2472POPC   C4A34590  32.116  29.739   7.720
 2472POPC   C1B34591  32.204  30.124   8.849
 2472POPC   C2B34592  32.262  30.199   8.406
 2472POPC   C3B34593  32.250  30.185   7.953
 2472POPC   C4B34594  31.958  30.284   7.675
 2473POPC   NC334595  38.407  25.327   9.495
 2473POPC   PO434596  38.120  24.771   9.599
 2473POPC   GL134597  38.471  24.862   9.238
 2473POPC   GL234598  38.557  25.223   9.031
 2473POPC   C1A34599  38.639  24.787   8.800
 2473POPC   D2A34600  38.509  25.117   8.468
 2473POPC   C3A34601  38.519  25.015   8.012
 2473POPC   C4A34602  38.233  25.157   7.699
 2473POPC   C1B34603  38.660  25.588   8.710
 2473POPC   C2B34604  38.762  25.721   8.241
 2473POPC   C3B34605  38.626  25.518   7.833
 2473POPC   C4B34606  38.736  25.429   7.365
 2474POPC   NC334607  32.512  27.128   9.432
 2474POPC   PO434608  32.106  26.681   9.728
 2474POPC   GL134609  32.216  26.689   9.297
 2474POPC   GL234610  32.002  26.928   9.161
 2474POPC   C1A34611  32.306  26.642   8.835
 2474POPC   D2A34612  32.170  26.652   8.407
 2474POPC   C3A34613  32.386  26.765   8.026
 2474POPC   C4A34614  32.682  26.782   7.690
 2474POPC   C1B34615  32.182  27.160   8.812
 2474POPC   C2B34616  32.386  27.123   8.425
 2474POPC   C3B34617  32.224  27.263   8.038
 2474POPC   C4B34618  32.104  27.061   7.675
 2475POPC   NC334619  10.844   5.770   9.663
 2475POPC   PO434620  10.354   6.262   9.686
 2475POPC   GL134621  10.521   6.056   9.247
 2475POPC   GL234622  10.242   5.797   9.079
 2475POPC   C1A34623  10.539   6.108   8.779
 2475POPC   D2A34624  10.437   5.974   8.339
 2475POPC   C3A34625  10.663   6.066   7.961
 2475POPC   C4A34626  10.738   6.008   7.493
 2475POPC   C1B34627  10.312   5.623   8.698
 2475POPC   C2B34628  10.454   5.474   8.280
 2475POPC   C3B34629  10.238   5.624   7.927
 2475POPC   C4B34630  10.269   5.957   7.641
 2476POPC   NC334631  34.533  40.238   9.526
 2476POPC   PO434632  34.733  39.664   9.598
 2476POPC   GL134633  34.548  39.852   9.202
 2476POPC   GL234634  34.761  40.126   9.068
 2476POPC   C1A34635  34.408  39.885   8.774
 2476POPC   D2A34636  34.674  40.126   8.511
 2476POPC   C3A34637  34.666  40.077   8.075
 2476POPC   C4A34638  34.377  39.783   7.853
 2476POPC   C1B34639  34.405  40.379   8.879
 2476POPC   C2B34640  34.295  40.472   8.462
 2476POPC   C3B34641  34.269  40.454   8.030
 2476POPC   C4B34642  34.440  40.283   7.673
 2477POPC   NC334643  30.766  39.055   9.348
 2477POPC   PO434644  30.468  39.711   9.407
 2477POPC   GL134645  30.564  39.470   9.014
 2477POPC   GL234646  30.508  39.088   8.915
 2477POPC   C1A34647  30.797  39.521   8.629
 2477POPC   D2A34648  30.884  39.389   8.234
 2477POPC   C3A34649  30.519  39.291   8.035
 2477POPC   C4A34650  30.386  39.351   7.635
 2477POPC   C1B34651  30.908  39.016   8.669
 2477POPC   C2B34652  31.181  38.963   8.300
 2477POPC   C3B34653  30.897  38.943   7.957
 2477POPC   C4B34654  30.715  38.918   7.580
 2478POPC   NC334655  27.326  37.329   9.519
 2478POPC   PO434656  27.461  36.687   9.471
 2478POPC   GL134657  27.661  36.734   9.121
 2478POPC   GL234658  27.812  37.087   9.182
 2478POPC   C1A34659  27.510  36.617   8.703
 2478POPC   D2A34660  27.236  36.532   8.361
 2478POPC   C3A34661  27.450  36.719   8.045
 2478POPC   C4A34662  27.722  37.058   7.939
 2478POPC   C1B34663  27.471  37.132   8.868
 2478POPC   C2B34664  27.447  37.234   8.436
 2478POPC   C3B34665  27.245  37.236   8.057
 2478POPC   C4B34666  27.246  37.045   7.693
 2479POPC   NC334667  41.793  26.919   9.388
 2479POPC   PO434668  41.421  26.455   9.726
 2479POPC   GL134669  41.358  26.696   9.231
 2479POPC   GL234670  41.644  26.751   8.947
 2479POPC   C1A34671  41.196  26.940   8.829
 2479POPC   D2A34672  41.349  27.109   8.403
 2479POPC   C3A34673  41.309  26.954   7.984
 2479POPC   C4A34674  41.411  27.120   7.565
 2479POPC   C1B34675  41.772  27.094   8.687
 2479POPC   C2B34676  41.819  27.292   8.297
 2479POPC   C3B34677  41.832  27.165   7.883
 2479POPC   C4B34678  41.727  26.789   7.734
 2480POPC   NC334679  19.177  21.721   9.883
 2480POPC   PO434680  19.049  22.321   9.555
 2480POPC   GL134681  19.045  22.378   9.087
 2480POPC   GL234682  19.389  22.288   9.017
 2480POPC   C1A34683  19.132  22.468   8.615
 2480POPC   D2A34684  19.316  22.550   8.196
 2480POPC   C3A34685  19.080  22.371   7.847
 2480POPC   C4A34686  18.957  21.937   7.744
 2480POPC   C1B34687  19.192  21.968   8.691
 2480POPC   C2B34688  19.131  22.058   8.255
 2480POPC   C3B34689  19.435  22.019   7.915
 2480POPC   C4B34690  19.397  21.863   7.498
 2481POPC   NC334691  20.491  24.489   9.521
 2481POPC   PO434692  21.099  24.113   9.358
 2481POPC   GL134693  20.753  24.311   9.126
 2481POPC   GL234694  20.389  24.251   9.081
 2481POPC   C1A34695  20.639  24.620   8.803
 2481POPC   D2A34696  20.877  24.577   8.427
 2481POPC   C3A34697  20.771  24.707   8.049
 2481POPC   C4A34698  20.639  24.705   7.636
 2481POPC   C1B34699  20.526  24.136   8.669
 2481POPC   C2B34700  20.468  24.306   8.257
 2481POPC   C3B34701  20.644  24.217   7.859
 2481POPC   C4B34702  20.523  24.250   7.447
 2482POPC   NC334703  29.498  25.485   9.479
 2482POPC   PO434704  28.979  25.083   9.582
 2482POPC   GL134705  29.089  25.310   9.232
 2482POPC   GL234706  29.297  25.072   9.124
 2482POPC   C1A34707  29.184  25.541   8.866
 2482POPC   D2A34708  29.113  25.495   8.423
 2482POPC   C3A34709  29.301  25.224   8.111
 2482POPC   C4A34710  29.358  25.229   7.659
 2482POPC   C1B34711  29.053  25.051   8.759
 2482POPC   C2B34712  28.902  25.001   8.359
 2482POPC   C3B34713  29.008  24.816   7.957
 2482POPC   C4B34714  29.126  24.790   7.530
 2483POPC   NC334715  32.711  16.768   9.717
 2483POPC   PO434716  32.997  16.459   9.224
 2483POPC   GL134717  33.086  16.806   9.064
 2483POPC   GL234718  32.765  16.958   9.148
 2483POPC   C1A34719  33.146  16.738   8.621
 2483POPC   D2A34720  32.906  16.617   8.266
 2483POPC   C3A34721  33.122  16.688   7.878
 2483POPC   C4A34722  33.125  16.671   7.431
 2483POPC   C1B34723  32.925  17.165   8.735
 2483POPC   C2B34724  33.073  17.130   8.269
 2483POPC   C3B34725  33.083  17.210   7.797
 2483POPC   C4B34726  33.183  17.163   7.338
 2484POPC   NC334727  35.534  10.008   9.371
 2484POPC   PO434728  35.106   9.481   9.405
 2484POPC   GL134729  35.090   9.839   9.153
 2484POPC   GL234730  35.372   9.742   8.973
 2484POPC   C1A34731  34.950   9.872   8.734
 2484POPC   D2A34732  35.133   9.667   8.371
 2484POPC   C3A34733  34.990   9.815   7.973
 2484POPC   C4A34734  34.991   9.699   7.536
 2484POPC   C1B34735  35.583   9.591   8.628
 2484POPC   C2B34736  35.599   9.868   8.290
 2484POPC   C3B34737  35.847   9.898   7.954
 2484POPC   C4B34738  35.774  10.050   7.566
 2485POPC   NC334739  44.455  15.079   9.550
 2485POPC   PO434740  44.817  15.641   9.645
 2485POPC   GL134741  44.793  15.337   9.262
 2485POPC   GL234742  44.834  14.982   9.153
 2485POPC   C1A34743  44.558  15.274   8.851
 2485POPC   D2A34744  44.774  15.212   8.431
 2485POPC   C3A34745  44.559  15.367   8.109
 2485POPC   C4A34746  44.454  15.268   7.719
 2485POPC   C1B34747  44.736  14.809   8.738
 2485POPC   C2B34748  44.453  14.828   8.328
 2485POPC   C3B34749  44.349  14.795   7.855
 2485POPC   C4B34750  44.670  14.782   7.521
 2486POPC   NC334751  17.905  44.886   9.491
 2486POPC   PO434752  17.251  44.841   9.475
 2486POPC   GL134753  17.514  44.604   9.183
 2486POPC   GL234754  17.643  44.867   9.039
 2486POPC   C1A34755  17.579  44.406   8.777
 2486POPC   D2A34756  17.772  44.551   8.385
 2486POPC   C3A34757  17.495  44.683   8.062
 2486POPC   C4A34758  17.326  44.520   7.702
 2486POPC   C1B34759  17.653   0.017   8.614
 2486POPC   C2B34760  17.855   0.026   8.207
 2486POPC   C3B34761  17.797   0.091   7.807
 2486POPC   C4B34762  17.398   0.027   7.619
 2487POPC   NC334763  15.493  12.195   9.473
 2487POPC   PO434764  15.086  11.763   9.562
 2487POPC   GL134765  15.056  12.019   9.198
 2487POPC   GL234766  15.388  12.081   8.985
 2487POPC   C1A34767  14.880  12.055   8.798
 2487POPC   D2A34768  15.088  12.191   8.414
 2487POPC   C3A34769  14.935  12.355   8.007
 2487POPC   C4A34770  15.247  12.419   7.657
 2487POPC   C1B34771  15.277  11.768   8.667
 2487POPC   C2B34772  15.123  11.685   8.269
 2487POPC   C3B34773  15.283  11.965   7.968
 2487POPC   C4B34774  15.441  11.941   7.552
 2488POPC   NC334775  44.890  25.080   9.525
 2488POPC   PO434776  44.250  25.383   9.603
 2488POPC   GL134777  44.528  25.311   9.259
 2488POPC   GL234778  44.501  24.930   9.211
 2488POPC   C1A34779  44.770  25.302   8.883
 2488POPC   D2A34780  44.665  25.225   8.464
 2488POPC   C3A34781  44.578  25.480   8.143
 2488POPC   C4A34782  44.610  25.293   7.741
 2488POPC   C1B34783  44.584  24.819   8.791
 2488POPC   C2B34784  44.381  24.798   8.417
 2488POPC   C3B34785  44.448  24.871   7.983
 2488POPC   C4B34786  44.525  24.813   7.527
 2489POPC   NC334787   0.068  22.732   9.268
 2489POPC   PO434788   0.595  23.131   9.512
 2489POPC   GL134789   0.730  22.959   9.111
 2489POPC   GL234790   0.688  22.582   9.124
 2489POPC   C1A34791   0.842  22.826   8.709
 2489POPC   D2A34792   0.616  22.930   8.350
 2489POPC   C3A34793   0.827  22.885   8.002
 2489POPC   C4A34794   0.693  22.931   7.632
 2489POPC   C1B34795   0.377  22.626   8.726
 2489POPC   C2B34796   0.318  22.537   8.284
 2489POPC   C3B34797   0.272  22.755   7.882
 2489POPC   C4B34798   0.298  22.681   7.429
 2490POPC   NC334799  36.984  29.761   9.657
 2490POPC   PO434800  36.573  30.218   9.470
 2490POPC   GL134801  36.926  30.097   9.183
 2490POPC   GL234802  37.105  29.758   9.165
 2490POPC   C1A34803  36.910  30.033   8.734
 2490POPC   D2A34804  36.675  30.210   8.378
 2490POPC   C3A34805  36.847  29.983   8.072
 2490POPC   C4A34806  36.804  29.820   7.705
 2490POPC   C1B34807  37.142  29.546   8.759
 2490POPC   C2B34808  37.184  29.717   8.360
 2490POPC   C3B34809  37.150  29.549   7.949
 2490POPC   C4B34810  37.103  29.498   7.463
 2491POPC   NC334811   8.407  10.349   9.630
 2491POPC   PO434812   9.075  10.212   9.644
 2491POPC   GL134813   9.128  10.494   9.277
 2491POPC   GL234814   8.760  10.499   9.216
 2491POPC   C1A34815   9.154  10.586   8.806
 2491POPC   D2A34816   8.975  10.496   8.399
 2491POPC   C3A34817   9.212  10.540   7.996
 2491POPC   C4A34818   9.128  10.231   7.707
 2491POPC   C1B34819   8.708  10.825   8.886
 2491POPC   C2B34820   8.890  10.984   8.501
 2491POPC   C3B34821   8.828  10.851   8.076
 2491POPC   C4B34822   8.721  10.468   7.922
 2492POPC   NC334823  15.592  43.771   9.488
 2492POPC   PO434824  16.165  44.101   9.478
 2492POPC   GL134825  15.941  43.915   9.146
 2492POPC   GL234826  15.881  43.554   9.111
 2492POPC   C1A34827  15.806  43.884   8.724
 2492POPC   D2A34828  16.004  43.898   8.335
 2492POPC   C3A34829  15.669  43.928   8.056
 2492POPC   C4A34830  15.637  43.608   7.787
 2492POPC   C1B34831  16.281  43.684   8.852
 2492POPC   C2B34832  16.441  43.648   8.431
 2492POPC   C3B34833  16.221  43.510   8.051
 2492POPC   C4B34834  16.092  43.841   7.787
 2493POPC   NC334835  25.248   4.860   9.574
 2493POPC   PO434836  25.104   5.545   9.444
 2493POPC   GL134837  25.016   5.189   9.137
 2493POPC   GL234838  25.244   4.887   9.041
 2493POPC   C1A34839  25.043   5.196   8.674
 2493POPC   D2A34840  25.074   5.407   8.261
 2493POPC   C3A34841  25.296   5.279   7.877
 2493POPC   C4A34842  25.066   5.193   7.480
 2493POPC   C1B34843  25.434   4.883   8.591
 2493POPC   C2B34844  25.240   4.848   8.171
 2493POPC   C3B34845  25.430   4.779   7.771
 2493POPC   C4B34846  25.844   4.642   7.642
 2494POPC   NC334847   7.823  10.620   9.321
 2494POPC   PO434848   8.341  10.891   9.669
 2494POPC   GL134849   8.300  10.752   9.225
 2494POPC   GL234850   8.250  10.386   9.152
 2494POPC   C1A34851   8.198  10.826   8.776
 2494POPC   D2A34852   8.464  10.687   8.424
 2494POPC   C3A34853   8.247  10.595   8.050
 2494POPC   C4A34854   8.008  10.916   7.857
 2494POPC   C1B34855   8.225  10.309   8.727
 2494POPC   C2B34856   7.992  10.240   8.363
 2494POPC   C3B34857   8.031  10.109   7.970
 2494POPC   C4B34858   8.353  10.160   7.769
 2495POPC   NC334859  26.770   3.069   9.442
 2495POPC   PO434860  26.606   2.347   9.489
 2495POPC   GL134861  26.675   2.666   9.128
 2495POPC   GL234862  26.978   2.889   9.023
 2495POPC   C1A34863  26.480   2.845   8.741
 2495POPC   D2A34864  26.590   2.923   8.331
 2495POPC   C3A34865  26.366   2.850   7.924
 2495POPC   C4A34866  26.489   2.870   7.480
 2495POPC   C1B34867  26.933   2.631   8.681
 2495POPC   C2B34868  27.051   2.650   8.286
 2495POPC   C3B34869  26.842   2.711   7.929
 2495POPC   C4B34870  27.051   2.649   7.572
 2496POPC   NC334871   2.977  13.028   9.608
 2496POPC   PO434872   2.555  12.542   9.650
 2496POPC   GL134873   2.659  12.893   9.270
 2496POPC   GL234874   2.981  12.768   9.158
 2496POPC   C1A34875   2.784  13.129   8.867
 2496POPC   D2A34876   2.686  13.273   8.445
 2496POPC   C3A34877   2.877  12.970   8.161
 2496POPC   C4A34878   2.833  12.937   7.718
 2496POPC   C1B34879   3.132  12.745   8.728
 2496POPC   C2B34880   3.285  12.693   8.305
 2496POPC   C3B34881   3.079  12.551   7.912
 2496POPC   C4B34882   3.033  12.569   7.382
 2497POPC   NC334883  20.876  11.381   9.573
 2497POPC   PO434884  20.350  11.018   9.418
 2497POPC   GL134885  20.578  11.235   9.111
 2497POPC   GL234886  20.626  11.593   9.140
 2497POPC   C1A34887  20.642  11.231   8.679
 2497POPC   D2A34888  20.778  11.294   8.275
 2497POPC   C3A34889  20.443  11.406   8.052
 2497POPC   C4A34890  20.290  11.296   7.696
 2497POPC   C1B34891  21.010  11.520   8.884
 2497POPC   C2B34892  21.172  11.646   8.471
 2497POPC   C3B34893  21.166  11.518   8.034
 2497POPC   C4B34894  20.839  11.449   7.720
 2498POPC   NC334895   2.887   0.166   9.500
 2498POPC   PO434896   2.657   0.832   9.568
 2498POPC   GL134897   2.767   0.577   9.163
 2498POPC   GL234898   2.568   0.311   9.111
 2498POPC   C1A34899   2.896   0.377   8.743
 2498POPC   D2A34900   2.979   0.055   8.420
 2498POPC   C3A34901   2.772   0.222   8.051
 2498POPC   C4A34902   2.684   0.685   7.889
 2498POPC   C1B34903   2.376   0.279   8.726
 2498POPC   C2B34904   2.484   0.494   8.377
 2498POPC   C3B34905   2.268   0.400   8.005
 2498POPC   C4B34906   2.409   0.072   7.740
 2499POPC   NC334907   8.635  18.103   9.353
 2499POPC   PO434908   9.168  17.955   9.793
 2499POPC   GL134909   9.144  18.159   9.314
 2499POPC   GL234910   9.126  17.859   9.167
 2499POPC   C1A34911   9.215  18.402   8.869
 2499POPC   D2A34912   9.306  18.534   8.417
 2499POPC   C3A34913   8.996  18.538   8.077
 2499POPC   C4A34914   9.170  18.651   7.662
 2499POPC   C1B34915   8.941  17.983   8.778
 2499POPC   C2B34916   8.991  18.136   8.393
 2499POPC   C3B34917   9.187  18.087   7.984
 2499POPC   C4B34918   8.837  18.005   7.737
 2500POPC   NC334919  37.707  21.512   9.586
 2500POPC   PO434920  38.037  20.959   9.547
 2500POPC   GL134921  37.901  21.280   9.166
 2500POPC   GL234922  37.754  21.672   9.123
 2500POPC   C1A34923  37.825  21.372   8.715
 2500POPC   D2A34924  37.502  21.317   8.413
 2500POPC   C3A34925  37.699  21.328   8.027
 2500POPC   C4A34926  37.864  21.708   7.899
 2500POPC   C1B34927  37.438  21.723   8.783
 2500POPC   C2B34928  37.559  21.848   8.384
 2500POPC   C3B34929  37.392  21.908   8.012
 2500POPC   C4B34930  37.537  21.974   7.631
 2501POPC   NC334931  16.398  28.934   9.377
 2501POPC   PO434932  15.751  29.073   9.422
 2501POPC   GL134933  15.762  29.154   9.019
 2501POPC   GL234934  16.115  29.154   8.997
 2501POPC   C1A34935  15.507  28.973   8.690
 2501POPC   D2A34936  15.510  28.847   8.272
 2501POPC   C3A34937  15.796  29.088   8.015
 2501POPC   C4A34938  15.996  28.927   7.606
 2501POPC   C1B34939  16.001  29.113   8.568
 2501POPC   C2B34940  15.863  29.450   8.379
 2501POPC   C3B34941  15.987  29.639   8.032
 2501POPC   C4B34942  15.956  29.457   7.665
 2502POPC   NC334943  34.974  44.893   9.443
 2502POPC   PO434944  35.558  44.524   9.532
 2502POPC   GL134945  35.417  44.637   9.176
 2502POPC   GL234946  35.574  44.976   9.169
 2502POPC   C1A34947  35.270  44.404   8.804
 2502POPC   D2A34948  35.230  44.236   8.373
 2502POPC   C3A34949  35.239  44.451   7.954
 2502POPC   C4A34950  35.132  44.594   7.497
 2502POPC   C1B34951  35.394  44.958   8.789
 2502POPC   C2B34952  35.412  44.732   8.417
 2502POPC   C3B34953  35.581  44.849   8.035
 2502POPC   C4B34954  35.309   0.024   7.706
 2503POPC   NC334955   6.576  39.594   9.547
 2503POPC   PO434956   6.831  40.219   9.477
 2503POPC   GL134957   6.886  40.041   9.096
 2503POPC   GL234958   6.844  39.718   9.137
 2503POPC   C1A34959   6.635  39.982   8.727
 2503POPC   D2A34960   6.568  40.227   8.357
 2503POPC   C3A34961   6.439  40.082   7.942
 2503POPC   C4A34962   6.435  40.154   7.468
 2503POPC   C1B34963   6.952  39.545   8.764
 2503POPC   C2B34964   6.774  39.614   8.381
 2503POPC   C3B34965   6.873  39.793   8.011
 2503POPC   C4B34966   6.688  39.718   7.632
 2504POPC   NC334967  17.901  34.485   9.359
 2504POPC   PO434968  17.442  34.082   9.634
 2504POPC   GL134969  17.524  34.250   9.116
 2504POPC   GL234970  17.294  34.496   8.956
 2504POPC   C1A34971  17.736  34.452   8.707
 2504POPC   D2A34972  17.697  34.305   8.249
 2504POPC   C3A34973  17.334  34.355   8.034
 2504POPC   C4A34974  17.397  34.613   7.747
 2504POPC   C1B34975  17.319  34.766   8.614
 2504POPC   C2B34976  17.284  34.889   8.197
 2504POPC   C3B34977  17.436  35.090   7.855
 2504POPC   C4B34978  17.228  35.065   7.465
 2505POPC   NC334979  24.924  40.641   9.648
 2505POPC   PO434980  24.258  40.581   9.462
 2505POPC   GL134981  24.522  40.776   9.157
 2505POPC   GL234982  24.282  40.978   8.987
 2505POPC   C1A34983  24.641  40.701   8.708
 2505POPC   D2A34984  24.773  40.604   8.277
 2505POPC   C3A34985  24.484  40.644   7.934
 2505POPC   C4A34986  24.459  40.681   7.466
 2505POPC   C1B34987  24.614  41.217   8.759
 2505POPC   C2B34988  24.815  41.143   8.365
 2505POPC   C3B34989  24.611  41.150   7.971
 2505POPC   C4B34990  24.234  41.047   7.736
 2506POPC   NC334991   5.054  11.535   9.568
 2506POPC   PO434992   5.440  11.913   9.225
 2506POPC   GL134993   5.182  11.555   9.043
 2506POPC   GL234994   4.809  11.583   9.105
 2506POPC   C1A34995   5.163  11.135   8.784
 2506POPC   D2A34996   5.316  10.943   8.368
 2506POPC   C3A34997   5.424  11.261   8.039
 2506POPC   C4A34998   5.138  11.567   7.806
 2506POPC   C1B34999   4.765  11.445   8.690
 2506POPC   C2B35000   5.029  11.444   8.349
 2506POPC   C3B35001   4.943  11.160   8.043
 2506POPC   C4B35002   4.709  11.249   7.748
 2507POPC   NC335003  31.669  36.313   9.488
 2507POPC   PO435004  31.770  35.664   9.444
 2507POPC   GL135005  31.607  35.919   9.093
 2507POPC   GL235006  31.448  36.237   9.031
 2507POPC   C1A35007  31.570  35.954   8.637
 2507POPC   D2A35008  31.595  36.249   8.329
 2507POPC   C3A35009  31.371  36.062   8.010
 2507POPC   C4A35010  31.521  35.755   7.733
 2507POPC   C1B35011  31.347  36.554   8.774
 2507POPC   C2B35012  31.336  36.702   8.411
 2507POPC   C3B35013  31.317  36.569   8.015
 2507POPC   C4B35014  31.119  36.748   7.709
 2508POPC   NC335015  22.627  34.725   9.428
 2508POPC   PO435016  21.996  34.423   9.507
 2508POPC   GL135017  22.138  34.691   9.175
 2508POPC   GL235018  22.383  34.577   8.996
 2508POPC   C1A35019  21.946  34.580   8.764
 2508POPC   D2A35020  21.787  34.467   8.383
 2508POPC   C3A35021  21.963  34.541   7.997
 2508POPC   C4A35022  21.918  34.839   7.683
 2508POPC   C1B35023  22.370  34.279   8.660
 2508POPC   C2B35024  22.391  34.404   8.264
 2508POPC   C3B35025  22.465  34.366   7.848
 2508POPC   C4B35026  22.213  34.434   7.506
 2509POPC   NC335027  15.495  27.728   9.530
 2509POPC   PO435028  14.855  27.458   9.556
 2509POPC   GL135029  15.064  27.451   9.187
 2509POPC   GL235030  15.185  27.821   9.133
 2509POPC   C1A35031  15.163  27.321   8.757
 2509POPC   D2A35032  15.272  27.533   8.375
 2509POPC   C3A35033  15.237  27.381   7.975
 2509POPC   C4A35034  15.266  27.392   7.552
 2509POPC   C1B35035  15.561  27.926   8.830
 2509POPC   C2B35036  15.722  27.824   8.387
 2509POPC   C3B35037  15.499  27.842   7.995
 2509POPC   C4B35038  15.401  27.936   7.556
 2510POPC   NC335039  18.743  14.426   9.730
 2510POPC   PO435040  18.178  14.240   9.462
 2510POPC   GL135041  18.062  14.375   9.073
 2510POPC   GL235042  18.370  14.501   8.950
 2510POPC   C1A35043  18.012  14.385   8.636
 2510POPC   D2A35044  18.374  14.423   8.399
 2510POPC   C3A35045  18.180  14.442   8.034
 2510POPC   C4A35046  18.232  14.261   7.697
 2510POPC   C1B35047  18.660  14.710   8.735
 2510POPC   C2B35048  18.839  14.676   8.355
 2510POPC   C3B35049  18.592  14.752   8.026
 2510POPC   C4B35050  18.537  14.661   7.622
 2511POPC   NC335051  12.657  27.915   9.372
 2511POPC   PO435052  13.180  27.463   9.556
 2511POPC   GL135053  12.932  27.576   9.153
 2511POPC   GL235054  12.638  27.414   9.076
 2511POPC   C1A35055  12.811  27.750   8.735
 2511POPC   D2A35056  12.974  27.877   8.366
 2511POPC   C3A35057  12.827  27.778   7.965
 2511POPC   C4A35058  13.108  27.788   7.605
 2511POPC   C1B35059  12.666  27.247   8.671
 2511POPC   C2B35060  12.552  27.394   8.236
 2511POPC   C3B35061  12.659  27.270   7.806
 2511POPC   C4B35062  13.046  27.095   7.623
 2512POPC   NC335063  31.071  20.962   9.362
 2512POPC   PO435064  31.716  21.273   9.534
 2512POPC   GL135065  31.442  21.245   9.167
 2512POPC   GL235066  31.290  21.546   9.103
 2512POPC   C1A35067  31.375  21.283   8.693
 2512POPC   D2A35068  31.269  21.530   8.332
 2512POPC   C3A35069  31.486  21.345   8.028
 2512POPC   C4A35070  31.300  21.075   7.714
 2512POPC   C1B35071  31.653  21.680   8.876
 2512POPC   C2B35072  31.773  21.628   8.431
 2512POPC   C3B35073  31.855  21.724   7.994
 2512POPC   C4B35074  31.771  21.695   7.524
 2513POPC   NC335075  15.433  44.725   9.555
 2513POPC   PO435076  14.866   0.030   9.403
 2513POPC   GL135077  15.162  44.800   9.135
 2513POPC   GL235078  15.109  44.458   9.211
 2513POPC   C1A35079  15.444  44.594   8.845
 2513POPC   D2A35080  15.428  44.706   8.402
 2513POPC   C3A35081  15.344  44.631   7.959
 2513POPC   C4A35082  15.098  44.938   7.703
 2513POPC   C1B35083  14.960  44.491   8.754
 2513POPC   C2B35084  15.005  44.401   8.302
 2513POPC   C3B35085  14.841  44.515   7.864
 2513POPC   C4B35086  14.691  44.738   7.463
 2514POPC   NC335087  17.791   4.441   9.667
 2514POPC   PO435088  17.260   4.128   9.670
 2514POPC   GL135089  17.316   4.335   9.258
 2514POPC   GL235090  17.643   4.326   9.196
 2514POPC   C1A35091  17.302   4.234   8.806
 2514POPC   D2A35092  17.515   4.140   8.453
 2514POPC   C3A35093  17.381   4.303   8.091
 2514POPC   C4A35094  17.310   4.118   7.725
 2514POPC   C1B35095  17.771   4.496   8.818
 2514POPC   C2B35096  18.003   4.330   8.484
 2514POPC   C3B35097  17.882   4.177   8.082
 2514POPC   C4B35098  17.753   4.411   7.722
 2515POPC   NC335099  12.909  41.795   9.483
 2515POPC   PO435100  13.029  41.073   9.479
 2515POPC   GL135101  13.077  41.410   9.148
 2515POPC   GL235102  12.763  41.598   9.039
 2515POPC   C1A35103  13.078  41.397   8.677
 2515POPC   D2A35104  12.861  41.447   8.282
 2515POPC   C3A35105  13.023  41.381   7.861
 2515POPC   C4A35106  12.888  41.226   7.438
 2515POPC   C1B35107  12.973  41.885   8.764
 2515POPC   C2B35108  12.776  41.948   8.349
 2515POPC   C3B35109  12.770  41.828   7.933
 2515POPC   C4B35110  12.636  41.650   7.548
 2516POPC   NC335111  30.825  10.635   9.710
 2516POPC   PO435112  30.346  10.954   9.491
 2516POPC   GL135113  30.678  10.708   9.219
 2516POPC   GL235114  30.700  10.355   9.259
 2516POPC   C1A35115  30.814  10.862   8.829
 2516POPC   D2A35116  30.730  10.727   8.427
 2516POPC   C3A35117  30.970  10.878   8.099
 2516POPC   C4A35118  30.871  10.701   7.719
 2516POPC   C1B35119  30.743  10.334   8.780
 2516POPC   C2B35120  30.939  10.260   8.326
 2516POPC   C3B35121  30.932  10.163   7.837
 2516POPC   C4B35122  30.911  10.044   7.352
 2517POPC   NC335123  23.305  10.674   9.492
 2517POPC   PO435124  23.981  10.728   9.499
 2517POPC   GL135125  23.770  10.626   9.092
 2517POPC   GL235126  23.453  10.458   9.059
 2517POPC   C1A35127  23.597  10.780   8.678
 2517POPC   D2A35128  23.425  10.651   8.245
 2517POPC   C3A35129  23.768  10.632   7.918
 2517POPC   C4A35130  23.984  11.039   7.771
 2517POPC   C1B35131  23.539  10.276   8.648
 2517POPC   C2B35132  23.383  10.121   8.260
 2517POPC   C3B35133  23.587  10.036   7.862
 2517POPC   C4B35134  23.476  10.028   7.404
 2518POPC   NC335135  24.370  34.803   9.349
 2518POPC   PO435136  24.686  34.287   9.473
 2518POPC   GL135137  24.591  34.367   9.102
 2518POPC   GL235138  24.256  34.333   9.111
 2518POPC   C1A35139  24.777  34.429   8.742
 2518POPC   D2A35140  24.602  34.402   8.358
 2518POPC   C3A35141  24.744  34.601   8.017
 2518POPC   C4A35142  24.869  34.441   7.595
 2518POPC   C1B35143  24.249  34.572   8.714
 2518POPC   C2B35144  24.109  34.533   8.273
 2518POPC   C3B35145  24.269  34.673   7.853
 2518POPC   C4B35146  24.143  35.036   7.639
 2519POPC   NC335147  11.976  33.099   9.569
 2519POPC   PO435148  11.572  32.939   9.215
 2519POPC   GL135149  12.025  32.984   9.078
 2519POPC   GL235150  12.190  33.307   9.143
 2519POPC   C1A35151  12.207  33.083   8.679
 2519POPC   D2A35152  12.071  33.324   8.337
 2519POPC   C3A35153  12.196  33.074   8.022
 2519POPC   C4A35154  12.303  32.676   7.883
 2519POPC   C1B35155  11.841  33.406   8.811
 2519POPC   C2B35156  11.578  33.206   8.482
 2519POPC   C3B35157  11.670  32.978   8.085
 2519POPC   C4B35158  11.823  33.046   7.678
 2520POPC   NC335159  35.603  15.504   9.490
 2520POPC   PO435160  35.065  15.007   9.507
 2520POPC   GL135161  35.445  14.993   9.211
 2520POPC   GL235162  35.610  14.674   9.099
 2520POPC   C1A35163  35.693  15.109   8.823
 2520POPC   D2A35164  35.630  14.993   8.375
 2520POPC   C3A35165  35.646  15.092   7.948
 2520POPC   C4A35166  35.365  15.009   7.638
 2520POPC   C1B35167  35.345  14.758   8.711
 2520POPC   C2B35168  35.008  14.782   8.404
 2520POPC   C3B35169  35.034  14.863   7.991
 2520POPC   C4B35170  35.091  14.569   7.664
 2521POPC   NC335171   6.083  17.944   9.608
 2521POPC   PO435172   5.650  17.387   9.472
 2521POPC   GL135173   5.777  17.562   9.131
 2521POPC   GL235174   6.110  17.429   9.059
 2521POPC   C1A35175   5.684  17.462   8.726
 2521POPC   D2A35176   5.843  17.544   8.330
 2521POPC   C3A35177   5.618  17.389   8.009
 2521POPC   C4A35178   5.516  17.586   7.609
 2521POPC   C1B35179   6.369  17.301   8.718
 2521POPC   C2B35180   6.336  17.156   8.320
 2521POPC   C3B35181   6.174  17.344   7.977
 2521POPC   C4B35182   5.994  17.598   7.726
 2522POPC   NC335183  19.669  32.514   9.281
 2522POPC   PO435184  20.132  32.155   9.637
 2522POPC   GL135185  20.032  32.116   9.209
 2522POPC   GL235186  20.158  32.430   9.135
 2522POPC   C1A35187  20.100  32.041   8.764
 2522POPC   D2A35188  20.128  32.290   8.375
 2522POPC   C3A35189  19.800  32.294   8.098
 2522POPC   C4A35190  19.528  32.060   7.833
 2522POPC   C1B35191  20.076  32.657   8.743
 2522POPC   C2B35192  20.213  32.802   8.324
 2522POPC   C3B35193  20.064  32.767   7.899
 2522POPC   C4B35194  19.653  32.575   7.708
 2523POPC   NC335195  10.672  24.802   9.864
 2523POPC   PO435196  10.670  25.397   9.563
 2523POPC   GL135197  10.688  25.528   9.152
 2523POPC   GL235198  10.982  25.529   8.995
 2523POPC   C1A35199  10.452  25.625   8.816
 2523POPC   D2A35200  10.297  25.454   8.432
 2523POPC   C3A35201  10.362  25.543   7.999
 2523POPC   C4A35202  10.177  25.286   7.605
 2523POPC   C1B35203  10.769  25.267   8.637
 2523POPC   C2B35204  10.795  25.324   8.183
 2523POPC   C3B35205  10.663  25.163   7.772
 2523POPC   C4B35206  10.833  24.981   7.407
 2524POPC   NC335207  20.873  41.549   9.411
 2524POPC   PO435208  20.439  40.974   9.504
 2524POPC   GL135209  20.456  41.312   9.171
 2524POPC   GL235210  20.371  41.689   9.239
 2524POPC   C1A35211  20.584  41.535   8.771
 2524POPC   D2A35212  20.890  41.632   8.437
 2524POPC   C3A35213  20.830  41.846   8.053
 2524POPC   C4A35214  20.732  41.532   7.758
 2524POPC   C1B35215  20.209  41.872   8.833
 2524POPC   C2B35216  20.415  41.888   8.402
 2524POPC   C3B35217  20.324  41.792   7.965
 2524POPC   C4B35218  20.438  41.855   7.496
 2525POPC   NC335219  21.221  32.136   9.438
 2525POPC   PO435220  21.564  32.733   9.438
 2525POPC   GL135221  21.325  32.542   9.142
 2525POPC   GL235222  21.091  32.742   9.022
 2525POPC   C1A35223  21.474  32.295   8.808
 2525POPC   D2A35224  21.609  32.070   8.471
 2525POPC   C3A35225  21.550  32.230   8.062
 2525POPC   C4A35226  21.683  32.006   7.673
 2525POPC   C1B35227  20.986  32.379   8.775
 2525POPC   C2B35228  21.049  32.186   8.391
 2525POPC   C3B35229  21.049  32.315   7.973
 2525POPC   C4B35230  21.186  31.936   7.765
 2526POPC   NC335231  22.008  31.721   9.558
 2526POPC   PO435232  22.472  31.266   9.573
 2526POPC   GL135233  22.217  31.352   9.228
 2526POPC   GL235234  22.022  31.065   9.166
 2526POPC   C1A35235  22.012  31.485   8.842
 2526POPC   D2A35236  21.851  31.621   8.449
 2526POPC   C3A35237  21.951  31.443   8.040
 2526POPC   C4A35238  22.060  31.664   7.686
 2526POPC   C1B35239  22.333  31.052   8.824
 2526POPC   C2B35240  22.256  31.261   8.423
 2526POPC   C3B35241  22.392  31.186   8.005
 2526POPC   C4B35242  22.475  31.025   7.605
 2527POPC   NC335243  21.178  39.211   9.616
 2527POPC   PO435244  20.482  39.179   9.676
 2527POPC   GL135245  20.680  39.126   9.233
 2527POPC   GL235246  20.564  39.407   9.065
 2527POPC   C1A35247  20.562  38.977   8.790
 2527POPC   D2A35248  20.331  39.269   8.474
 2527POPC   C3A35249  20.443  39.421   8.020
 2527POPC   C4A35250  20.531  39.615   7.620
 2527POPC   C1B35251  20.881  39.356   8.724
 2527POPC   C2B35252  20.811  39.500   8.361
 2527POPC   C3B35253  20.900  39.703   8.013
 2527POPC   C4B35254  20.902  39.311   7.793
 2528POPC   NC335255  38.544  23.763   9.496
 2528POPC   PO435256  37.948  23.947   9.231
 2528POPC   GL135257  38.270  23.698   9.048
 2528POPC   GL235258  38.573  23.450   9.090
 2528POPC   C1A35259  38.241  23.777   8.633
 2528POPC   D2A35260  38.088  23.585   8.314
 2528POPC   C3A35261  38.171  23.847   8.041
 2528POPC   C4A35262  38.207  23.610   7.745
 2528POPC   C1B35263  38.649  23.448   8.647
 2528POPC   C2B35264  38.543  23.412   8.201
 2528POPC   C3B35265  38.628  23.338   7.766
 2528POPC   C4B35266  38.641  23.718   7.535
 2529POPC   NC335267   6.564   8.703   9.507
 2529POPC   PO435268   7.005   9.134   9.466
 2529POPC   GL135269   6.719   8.994   9.120
 2529POPC   GL235270   6.364   9.057   9.108
 2529POPC   C1A35271   6.696   9.068   8.703
 2529POPC   D2A35272   6.425   9.209   8.421
 2529POPC   C3A35273   6.623   9.059   8.069
 2529POPC   C4A35274   6.781   8.892   7.693
 2529POPC   C1B35275   6.289   8.766   8.726
 2529POPC   C2B35276   6.516   8.622   8.355
 2529POPC   C3B35277   6.413   8.602   7.913
 2529POPC   C4B35278   6.488   8.564   7.443
 2530POPC   NC335279  27.084   5.647   9.857
 2530POPC   PO435280  26.724   5.108   9.531
 2530POPC   GL135281  26.903   5.044   9.121
 2530POPC   GL235282  26.746   4.732   9.076
 2530POPC   C1A35283  27.036   5.231   8.712
 2530POPC   D2A35284  26.996   5.100   8.264
 2530POPC   C3A35285  26.759   5.311   7.960
 2530POPC   C4A35286  26.791   5.380   7.500
 2530POPC   C1B35287  26.787   4.803   8.670
 2530POPC   C2B35288  26.619   4.768   8.321
 2530POPC   C3B35289  26.733   4.658   7.959
 2530POPC   C4B35290  26.863   4.883   7.651
 2531POPC   NC335291   3.790  40.380   9.668
 2531POPC   PO435292   3.716  39.720   9.496
 2531POPC   GL135293   3.788  39.944   9.118
 2531POPC   GL235294   3.478  40.058   9.107
 2531POPC   C1A35295   3.653  39.869   8.677
 2531POPC   D2A35296   3.442  39.569   8.420
 2531POPC   C3A35297   3.462  39.743   8.024
 2531POPC   C4A35298   3.429  39.921   7.588
 2531POPC   C1B35299   3.144  40.098   8.829
 2531POPC   C2B35300   3.178  40.058   8.388
 2531POPC   C3B35301   3.321  40.223   8.018
 2531POPC   C4B35302   3.756  40.156   7.911
 2532POPC   NC335303  18.850  10.277   9.357
 2532POPC   PO435304  19.415  10.342   9.589
 2532POPC   GL135305  19.329  10.442   9.163
 2532POPC   GL235306  19.073  10.684   9.072
 2532POPC   C1A35307  19.118  10.261   8.790
 2532POPC   D2A35308  18.936  10.247   8.407
 2532POPC   C3A35309  19.098  10.500   8.108
 2532POPC   C4A35310  19.397  10.318   7.840
 2532POPC   C1B35311  18.905  10.705   8.637
 2532POPC   C2B35312  18.605  10.711   8.296
 2532POPC   C3B35313  18.637  10.696   7.852
 2532POPC   C4B35314  18.908  10.416   7.623
 2533POPC   NC335315   3.848   3.790   9.510
 2533POPC   PO435316   3.396   3.338   9.359
 2533POPC   GL135317   3.725   3.505   9.078
 2533POPC   GL235318   3.908   3.840   9.009
 2533POPC   C1A35319   3.709   3.417   8.653
 2533POPC   D2A35320   3.314   3.446   8.427
 2533POPC   C3A35321   3.469   3.382   8.013
 2533POPC   C4A35322   3.159   3.434   7.730
 2533POPC   C1B35323   3.543   3.885   8.728
 2533POPC   C2B35324   3.541   3.852   8.258
 2533POPC   C3B35325   3.304   3.884   7.867
 2533POPC   C4B35326   3.194   3.850   7.395
 2534POPC   NC335327  10.414  10.759   9.460
 2534POPC   PO435328  10.894  10.310   9.456
 2534POPC   GL135329  10.535  10.311   9.212
 2534POPC   GL235330  10.713  10.599   9.058
 2534POPC   C1A35331  10.262  10.422   8.846
 2534POPC   D2A35332  10.411  10.504   8.409
 2534POPC   C3A35333  10.216  10.698   8.072
 2534POPC   C4A35334  10.084  10.517   7.684
 2534POPC   C1B35335  10.658  10.883   8.727
 2534POPC   C2B35336  10.764  11.017   8.322
 2534POPC   C3B35337  10.757  10.762   7.963
 2534POPC   C4B35338  10.566  10.711   7.567
 2535POPC   NC335339   4.915   6.797   9.538
 2535POPC   PO435340   5.363   6.283   9.551
 2535POPC   GL135341   5.166   6.319   9.136
 2535POPC   GL235342   4.822   6.351   9.148
 2535POPC   C1A35343   4.996   6.407   8.697
 2535POPC   D2A35344   5.110   6.262   8.325
 2535POPC   C3A35345   5.326   6.577   8.165
 2535POPC   C4A35346   5.374   6.649   7.811
 2535POPC   C1B35347   4.677   6.764   8.936
 2535POPC   C2B35348   4.608   6.838   8.521
 2535POPC   C3B35349   4.895   6.829   8.218
 2535POPC   C4B35350   4.931   6.920   7.806
 2536POPC   NC335351   6.963   1.337   9.542
 2536POPC   PO435352   6.354   1.543   9.558
 2536POPC   GL135353   6.456   1.235   9.202
 2536POPC   GL235354   6.756   0.998   9.210
 2536POPC   C1A35355   6.492   1.070   8.753
 2536POPC   D2A35356   6.607   0.966   8.309
 2536POPC   C3A35357   6.491   1.112   7.897
 2536POPC   C4A35358   6.771   1.080   7.552
 2536POPC   C1B35359   6.904   1.312   8.914
 2536POPC   C2B35360   6.942   1.324   8.463
 2536POPC   C3B35361   6.888   1.455   8.052
 2536POPC   C4B35362   7.105   1.459   7.615
 2537POPC   NC335363  24.301  13.535   9.401
 2537POPC   PO435364  24.620  14.082   9.480
 2537POPC   GL135365  24.639  13.795   9.120
 2537POPC   GL235366  24.315  13.835   8.988
 2537POPC   C1A35367  24.710  13.698   8.667
 2537POPC   D2A35368  24.638  13.893   8.244
 2537POPC   C3A35369  24.439  13.772   7.827
 2537POPC   C4A35370  24.465  13.459   7.473
 2537POPC   C1B35371  24.203  13.441   8.756
 2537POPC   C2B35372  24.031  13.316   8.362
 2537POPC   C3B35373  24.177  13.318   7.921
 2537POPC   C4B35374  23.973  13.420   7.529
 2538POPC   NC335375   5.978   1.431   9.304
 2538POPC   PO435376   6.062   2.006   9.701
 2538POPC   GL135377   6.175   2.162   9.288
 2538POPC   GL235378   6.220   1.859   9.160
 2538POPC   C1A35379   6.009   2.265   8.854
 2538POPC   D2A35380   5.647   2.200   8.547
 2538POPC   C3A35381   5.668   2.311   8.101
 2538POPC   C4A35382   5.575   2.142   7.682
 2538POPC   C1B35383   6.045   1.776   8.737
 2538POPC   C2B35384   6.085   1.996   8.338
 2538POPC   C3B35385   5.962   1.902   7.912
 2538POPC   C4B35386   6.083   1.558   7.649
 2539POPC   NC335387  44.610  31.921   9.543
 2539POPC   PO435388  44.546  31.244   9.509
 2539POPC   GL135389  44.594  31.428   9.117
 2539POPC   GL235390  44.879  31.227   9.063
 2539POPC   C1A35391  44.480  31.553   8.699
 2539POPC   D2A35392  44.592  31.745   8.326
 2539POPC   C3A35393  44.562  31.566   7.935
 2539POPC   C4A35394  44.762  31.636   7.564
 2539POPC   C1B35395  44.689  31.096   8.710
 2539POPC   C2B35396  44.660  31.218   8.314
 2539POPC   C3B35397  44.484  31.044   7.976
 2539POPC   C4B35398  44.430  31.223   7.586
 2540POPC   NC335399   9.001  36.290   9.435
 2540POPC   PO435400   8.477  35.961   9.406
 2540POPC   GL135401   8.546  36.325   9.103
 2540POPC   GL235402   8.807  36.595   9.064
 2540POPC   C1A35403   8.622  36.358   8.662
 2540POPC   D2A35404   8.787  36.623   8.382
 2540POPC   C3A35405   8.726  36.350   8.025
 2540POPC   C4A35406   8.842  35.922   7.960
 2540POPC   C1B35407   9.117  36.445   8.744
 2540POPC   C2B35408   9.081  36.192   8.353
 2540POPC   C3B35409   9.219  36.264   7.904
 2540POPC   C4B35410   9.507  36.024   7.638
 2541POPC   NC335411  27.680  31.241   9.577
 2541POPC   PO435412  27.342  31.708   9.388
 2541POPC   GL135413  27.466  31.368   9.119
 2541POPC   GL235414  27.823  31.321   9.111
 2541POPC   C1A35415  27.533  31.389   8.678
 2541POPC   D2A35416  27.258  31.366   8.322
 2541POPC   C3A35417  27.317  31.092   8.001
 2541POPC   C4A35418  27.530  31.284   7.681
 2541POPC   C1B35419  27.981  31.079   8.808
 2541POPC   C2B35420  28.078  31.266   8.445
 2541POPC   C3B35421  27.869  31.260   8.061
 2541POPC   C4B35422  27.980  31.004   7.727
 2542POPC   NC335423  21.363  11.770   9.373
 2542POPC   PO435424  21.866  12.092   9.710
 2542POPC   GL135425  21.672  12.153   9.268
 2542POPC   GL235426  21.320  12.197   9.115
 2542POPC   C1A35427  21.683  11.925   8.846
 2542POPC   D2A35428  21.601  12.136   8.486
 2542POPC   C3A35429  21.478  11.953   8.102
 2542POPC   C4A35430  21.537  12.254   7.772
 2542POPC   C1B35431  21.121  12.384   8.763
 2542POPC   C2B35432  21.068  12.169   8.384
 2542POPC   C3B35433  21.045  12.250   7.974
 2542POPC   C4B35434  21.082  11.920   7.712
 2543POPC   NC335435  17.080  37.501   9.566
 2543POPC   PO435436  17.355  38.043   9.576
 2543POPC   GL135437  17.002  37.928   9.278
 2543POPC   GL235438  17.050  37.632   9.068
 2543POPC   C1A35439  16.698  37.964   8.912
 2543POPC   D2A35440  16.763  38.006   8.469
 2543POPC   C3A35441  16.671  37.732   8.112
 2543POPC   C4A35442  16.752  37.874   7.694
 2543POPC   C1B35443  16.901  37.535   8.632
 2543POPC   C2B35444  16.959  37.323   8.223
 2543POPC   C3B35445  16.941  37.425   7.795
 2543POPC   C4B35446  17.203  37.483   7.449
 2544POPC   NC335447  28.082  35.078   9.457
 2544POPC   PO435448  28.708  35.362   9.520
 2544POPC   GL135449  28.488  35.242   9.168
 2544POPC   GL235450  28.196  35.391   9.044
 2544POPC   C1A35451  28.597  35.440   8.767
 2544POPC   D2A35452  28.520  35.180   8.424
 2544POPC   C3A35453  28.495  35.407   8.073
 2544POPC   C4A35454  28.562  35.366   7.645
 2544POPC   C1B35455  28.055  35.196   8.666
 2544POPC   C2B35456  28.016  35.219   8.214
 2544POPC   C3B35457  28.059  35.354   7.798
 2544POPC   C4B35458  28.125  35.643   7.447
 2545POPC   NC335459  43.504  15.533   9.471
 2545POPC   PO435460  44.001  15.063   9.608
 2545POPC   GL135461  43.876  15.228   9.214
 2545POPC   GL235462  43.764  14.931   9.025
 2545POPC   C1A35463  43.701  15.425   8.829
 2545POPC   D2A35464  43.618  15.158   8.459
 2545POPC   C3A35465  43.511  15.362   8.076
 2545POPC   C4A35466  43.648  15.426   7.674
 2545POPC   C1B35467  44.084  15.122   8.741
 2545POPC   C2B35468  44.104  15.345   8.367
 2545POPC   C3B35469  44.012  15.222   7.963
 2545POPC   C4B35470  44.010  15.109   7.509
 2546POPC   NC335471  40.554  25.614   9.355
 2546POPC   PO435472  41.195  25.645   9.466
 2546POPC   GL135473  41.033  25.339   9.185
 2546POPC   GL235474  41.300  25.082   9.151
 2546POPC   C1A35475  40.820  25.403   8.750
 2546POPC   D2A35476  40.524  25.215   8.435
 2546POPC   C3A35477  40.486  25.370   7.996
 2546POPC   C4A35478  40.274  25.136   7.664
 2546POPC   C1B35479  41.331  25.351   8.792
 2546POPC   C2B35480  41.182  25.229   8.435
 2546POPC   C3B35481  40.986  25.313   8.090
 2546POPC   C4B35482  41.145  25.105   7.750
 2547POPC   NC335483  10.796  25.839   9.553
 2547POPC   PO435484  10.225  26.290   9.635
 2547POPC   GL135485  10.560  26.223   9.296
 2547POPC   GL235486  10.366  25.918   9.253
 2547POPC   C1A35487  10.761  26.019   8.890
 2547POPC   D2A35488  10.839  25.744   8.511
 2547POPC   C3A35489  10.837  25.880   8.065
 2547POPC   C4A35490  10.723  26.157   7.690
 2547POPC   C1B35491  10.263  26.111   8.881
 2547POPC   C2B35492  10.421  26.030   8.469
 2547POPC   C3B35493  10.498  26.268   8.120
 2547POPC   C4B35494  10.184  26.288   7.827
 2548POPC   NC335495  21.784  22.381   9.852
 2548POPC   PO435496  21.187  22.372   9.628
 2548POPC   GL135497  21.248  22.445   9.182
 2548POPC   GL235498  21.283  22.090   9.175
 2548POPC   C1A35499  21.329  22.529   8.710
 2548POPC   D2A35500  21.372  22.473   8.239
 2548POPC   C3A35501  21.615  22.157   7.966
 2548POPC   C4A35502  21.602  21.954   7.534
 2548POPC   C1B35503  21.001  22.105   8.828
 2548POPC   C2B35504  20.905  22.274   8.422
 2548POPC   C3B35505  21.086  22.111   8.006
 2548POPC   C4B35506  21.305  21.700   7.857
 2549POPC   NC335507  35.761  21.884   9.577
 2549POPC   PO435508  36.175  21.276   9.512
 2549POPC   GL135509  36.033  21.374   9.126
 2549POPC   GL235510  36.107  21.674   9.125
 2549POPC   C1A35511  35.946  21.177   8.758
 2549POPC   D2A35512  36.051  21.141   8.352
 2549POPC   C3A35513  36.233  21.101   7.970
 2549POPC   C4A35514  36.197  21.432   7.775
 2549POPC   C1B35515  35.883  21.690   8.725
 2549POPC   C2B35516  35.984  21.661   8.270
 2549POPC   C3B35517  35.847  21.781   7.808
 2549POPC   C4B35518  35.797  21.510   7.436
 2550POPC   NC335519  39.777   2.031   9.482
 2550POPC   PO435520  40.377   1.780   9.427
 2550POPC   GL135521  40.102   1.902   9.133
 2550POPC   GL235522  40.128   2.190   9.100
 2550POPC   C1A35523  39.788   1.954   8.805
 2550POPC   D2A35524  39.832   1.740   8.421
 2550POPC   C3A35525  39.949   1.912   8.039
 2550POPC   C4A35526  39.906   1.692   7.658
 2550POPC   C1B35527  40.258   2.053   8.659
 2550POPC   C2B35528  40.010   2.284   8.397
 2550POPC   C3B35529  40.056   2.468   8.013
 2550POPC   C4B35530  40.380   2.306   7.733
 2551POPC   NC335531  44.644   2.288   9.448
 2551POPC   PO435532  44.906   1.683   9.525
 2551POPC   GL135533  44.943   1.926   9.147
 2551POPC   GL235534  44.588   2.005   9.014
 2551POPC   C1A35535  44.932   1.740   8.715
 2551POPC   D2A35536  44.896   1.916   8.330
 2551POPC   C3A35537  44.714   1.666   8.036
 2551POPC   C4A35538  44.894   1.543   7.680
 2551POPC   C1B35539  44.440   1.841   8.597
 2551POPC   C2B35540  44.190   1.938   8.235
 2551POPC   C3B35541  44.420   2.049   7.874
 2551POPC   C4B35542  44.873   2.129   7.859
 2552POPC   NC335543  42.180  40.462   9.275
 2552POPC   PO435544  42.540  40.766   9.738
 2552POPC   GL135545  42.547  40.873   9.270
 2552POPC   GL235546  42.634  40.590   9.091
 2552POPC   C1A35547  42.520  41.000   8.790
 2552POPC   D2A35548  42.179  40.859   8.468
 2552POPC   C3A35549  42.213  40.909   8.010
 2552POPC   C4A35550  42.459  40.959   7.597
 2552POPC   C1B35551  42.505  40.489   8.684
 2552POPC   C2B35552  42.687  40.721   8.347
 2552POPC   C3B35553  42.664  40.681   7.956
 2552POPC   C4B35554  42.331  40.480   7.702
 2553POPC   NC335555  19.577  36.113   9.585
 2553POPC   PO435556  20.238  36.426   9.575
 2553POPC   GL135557  19.931  36.236   9.226
 2553POPC   GL235558  19.573  36.367   9.118
 2553POPC   C1A35559  19.836  36.071   8.786
 2553POPC   D2A35560  19.761  35.855   8.370
 2553POPC   C3A35561  19.888  36.021   7.998
 2553POPC   C4A35562  20.204  35.969   7.689
 2553POPC   C1B35563  19.591  36.485   8.664
 2553POPC   C2B35564  19.804  36.439   8.278
 2553POPC   C3B35565  19.872  36.520   7.827
 2553POPC   C4B35566  19.703  36.586   7.382
 2554POPC   NC335567  17.630  26.744   9.477
 2554POPC   PO435568  18.025  26.136   9.369
 2554POPC   GL135569  17.708  26.425   9.086
 2554POPC   GL235570  17.338  26.635   9.095
 2554POPC   C1A35571  17.672  26.722   8.729
 2554POPC   D2A35572  17.826  26.929   8.359
 2554POPC   C3A35573  17.661  26.772   7.983
 2554POPC   C4A35574  17.439  26.991   7.661
 2554POPC   C1B35575  17.184  26.510   8.725
 2554POPC   C2B35576  17.290  26.665   8.325
 2554POPC   C3B35577  17.096  26.713   7.926
 2554POPC   C4B35578  17.010  26.641   7.497
 2555POPC   NC335579  31.877  24.113   9.530
 2555POPC   PO435580  31.329  24.655   9.618
 2555POPC   GL135581  31.385  24.708   9.202
 2555POPC   GL235582  31.036  24.654   9.119
 2555POPC   C1A35583  31.683  24.810   8.843
 2555POPC   D2A35584  31.696  24.942   8.387
 2555POPC   C3A35585  31.636  24.605   8.095
 2555POPC   C4A35586  31.373  24.526   7.770
 2555POPC   C1B35587  31.302  24.373   8.828
 2555POPC   C2B35588  31.461  24.226   8.436
 2555POPC   C3B35589  31.308  24.114   8.047
 2555POPC   C4B35590  31.485  24.008   7.663
 2556POPC   NC335591  26.262  17.097   9.462
 2556POPC   PO435592  25.772  17.561   9.576
 2556POPC   GL135593  25.863  17.479   9.171
 2556POPC   GL235594  25.516  17.368   9.145
 2556POPC   C1A35595  26.088  17.647   8.789
 2556POPC   D2A35596  25.936  17.816   8.411
 2556POPC   C3A35597  26.020  17.635   8.055
 2556POPC   C4A35598  26.278  17.501   7.749
 2556POPC   C1B35599  25.651  17.432   8.687
 2556POPC   C2B35600  25.967  17.240   8.408
 2556POPC   C3B35601  25.972  17.105   7.972
 2556POPC   C4B35602  25.757  17.381   7.711
 2557POPC   NC335603  27.871  32.975   9.522
 2557POPC   PO435604  27.242  33.211   9.667
 2557POPC   GL135605  27.455  33.204   9.241
 2557POPC   GL235606  27.607  32.880   9.106
 2557POPC   C1A35607  27.539  33.250   8.777
 2557POPC   D2A35608  27.588  33.263   8.341
 2557POPC   C3A35609  27.387  33.037   8.025
 2557POPC   C4A35610  27.540  33.184   7.632
 2557POPC   C1B35611  27.938  32.869   8.757
 2557POPC   C2B35612  27.911  32.841   8.284
 2557POPC   C3B35613  27.875  32.843   7.819
 2557POPC   C4B35614  27.754  32.756   7.382
 2558POPC   NC335615  14.662   5.766   9.630
 2558POPC   PO435616  14.242   6.202   9.761
 2558POPC   GL135617  14.367   6.038   9.306
 2558POPC   GL235618  14.290   5.657   9.257
 2558POPC   C1A35619  14.540   6.132   8.886
 2558POPC   D2A35620  14.319   6.236   8.496
 2558POPC   C3A35621  14.447   6.173   8.076
 2558POPC   C4A35622  14.831   6.185   7.840
 2558POPC   C1B35623  14.257   5.729   8.817
 2558POPC   C2B35624  14.294   5.713   8.402
 2558POPC   C3B35625  14.226   5.713   8.003
 2558POPC   C4B35626  14.241   5.933   7.613
 2559POPC   NC335627  20.271  14.070   9.479
 2559POPC   PO435628  19.718  14.504   9.410
 2559POPC   GL135629  19.645  14.465   9.026
 2559POPC   GL235630  19.799  14.121   9.062
 2559POPC   C1A35631  19.904  14.594   8.700
 2559POPC   D2A35632  20.099  14.619   8.310
 2559POPC   C3A35633  19.775  14.600   8.004
 2559POPC   C4A35634  19.601  14.222   7.803
 2559POPC   C1B35635  19.573  14.117   8.676
 2559POPC   C2B35636  19.720  14.146   8.294
 2559POPC   C3B35637  20.054  14.165   8.030
 2559POPC   C4B35638  20.061  14.208   7.575
 2560POPC   NC335639  43.273  35.519   9.271
 2560POPC   PO435640  42.708  35.011   9.447
 2560POPC   GL135641  42.940  35.135   9.108
 2560POPC   GL235642  42.771  35.438   9.144
 2560POPC   C1A35643  43.163  35.212   8.718
 2560POPC   D2A35644  43.491  35.377   8.464
 2560POPC   C3A35645  43.403  35.483   8.045
 2560POPC   C4A35646  43.328  35.068   7.860
 2560POPC   C1B35647  42.888  35.641   8.741
 2560POPC   C2B35648  42.983  35.473   8.317
 2560POPC   C3B35649  42.916  35.442   7.861
 2560POPC   C4B35650  42.837  35.705   7.494
 2561POPC   NC335651  22.027  32.696   9.483
 2561POPC   PO435652  22.286  32.086   9.684
 2561POPC   GL135653  22.079  32.166   9.285
 2561POPC   GL235654  21.755  32.283   9.261
 2561POPC   C1A35655  22.058  32.027   8.859
 2561POPC   D2A35656  22.182  32.241   8.494
 2561POPC   C3A35657  22.020  32.026   8.142
 2561POPC   C4A35658  22.160  32.158   7.773
 2561POPC   C1B35659  21.921  32.527   8.876
 2561POPC   C2B35660  21.789  32.566   8.459
 2561POPC   C3B35661  21.993  32.554   8.080
 2561POPC   C4B35662  21.792  32.499   7.701
 2562POPC   NC335663   7.339   6.892   9.406
 2562POPC   PO435664   7.649   6.246   9.482
 2562POPC   GL135665   7.417   6.455   9.151
 2562POPC   GL235666   7.721   6.632   9.044
 2562POPC   C1A35667   7.293   6.669   8.742
 2562POPC   D2A35668   7.063   6.670   8.355
 2562POPC   C3A35669   7.248   6.698   7.931
 2562POPC   C4A35670   7.181   6.782   7.474
 2562POPC   C1B35671   7.623   6.255   8.736
 2562POPC   C2B35672   7.421   6.312   8.318
 2562POPC   C3B35673   7.560   6.272   7.888
 2562POPC   C4B35674   7.560   6.421   7.485
 2563POPC   NC335675  29.016  38.600   9.495
 2563POPC   PO435676  29.529  38.257   9.484
 2563POPC   GL135677  29.265  38.366   9.120
 2563POPC   GL235678  29.369  38.699   9.078
 2563POPC   C1A35679  29.045  38.481   8.702
 2563POPC   D2A35680  29.203  38.655   8.310
 2563POPC   C3A35681  29.035  38.539   7.893
 2563POPC   C4A35682  28.860  38.130   7.729
 2563POPC   C1B35683  29.549  38.468   8.707
 2563POPC   C2B35684  29.551  38.260   8.339
 2563POPC   C3B35685  29.546  38.438   7.929
 2563POPC   C4B35686  29.458  38.779   7.654
 2564POPC   NC335687  14.614  11.720   9.441
 2564POPC   PO435688  14.597  12.439   9.502
 2564POPC   GL135689  14.509  12.304   9.093
 2564POPC   GL235690  14.272  12.026   9.126
 2564POPC   C1A35691  14.403  12.170   8.664
 2564POPC   D2A35692  14.632  11.917   8.369
 2564POPC   C3A35693  14.622  11.912   7.944
 2564POPC   C4A35694  14.919  12.004   7.635
 2564POPC   C1B35695  13.970  11.899   8.770
 2564POPC   C2B35696  13.933  12.081   8.353
 2564POPC   C3B35697  14.002  11.910   7.957
 2564POPC   C4B35698  14.225  11.822   7.610
 2565POPC   NC335699  42.570  15.844   9.645
 2565POPC   PO435700  42.014  15.991   9.618
 2565POPC   GL135701  42.258  15.726   9.259
 2565POPC   GL235702  42.624  15.566   9.220
 2565POPC   C1A35703  42.318  15.720   8.794
 2565POPC   D2A35704  42.132  15.835   8.370
 2565POPC   C3A35705  42.303  15.964   7.960
 2565POPC   C4A35706  42.364  15.753   7.573
 2565POPC   C1B35707  42.823  15.715   8.801
 2565POPC   C2B35708  42.681  15.872   8.356
 2565POPC   C3B35709  42.764  15.750   7.897
 2565POPC   C4B35710  42.851  15.684   7.402
 2566POPC   NC335711   9.961  16.803   9.548
 2566POPC   PO435712   9.331  16.754   9.380
 2566POPC   GL135713   9.614  16.956   9.086
 2566POPC   GL235714   9.975  16.813   9.054
 2566POPC   C1A35715   9.705  16.877   8.635
 2566POPC   D2A35716   9.977  17.007   8.285
 2566POPC   C3A35717   9.774  16.921   7.939
 2566POPC   C4A35718   9.900  16.972   7.542
 2566POPC   C1B35719   9.760  16.441   8.901
 2566POPC   C2B35720   9.614  16.348   8.487
 2566POPC   C3B35721   9.663  16.433   8.044
 2566POPC   C4B35722   9.550  16.589   7.599
 2567POPC   NC335723  28.508  19.296   9.534
 2567POPC   PO435724  28.167  19.896   9.734
 2567POPC   GL135725  28.280  19.727   9.364
 2567POPC   GL235726  28.633  19.820   9.316
 2567POPC   C1A35727  28.268  19.607   8.952
 2567POPC   D2A35728  28.178  19.668   8.531
 2567POPC   C3A35729  28.204  19.303   8.260
 2567POPC   C4A35730  28.340  19.468   7.866
 2567POPC   C1B35731  28.670  19.920   8.871
 2567POPC   C2B35732  28.722  19.786   8.450
 2567POPC   C3B35733  28.600  19.889   8.037
 2567POPC   C4B35734  28.365  20.265   7.897
 2568POPC   NC335735  34.362  18.169   9.479
 2568POPC   PO435736  34.850  18.667   9.483
 2568POPC   GL135737  34.661  18.386   9.135
 2568POPC   GL235738  34.639  18.009   9.097
 2568POPC   C1A35739  34.732  18.319   8.701
 2568POPC   D2A35740  34.767  18.553   8.322
 2568POPC   C3A35741  34.809  18.350   7.939
 2568POPC   C4A35742  34.479  18.385   7.675
 2568POPC   C1B35743  34.359  17.966   8.732
 2568POPC   C2B35744  34.551  18.023   8.309
 2568POPC   C3B35745  34.554  17.901   7.876
 2568POPC   C4B35746  34.413  17.919   7.441
 2569POPC   NC335747  33.640  13.848   9.527
 2569POPC   PO435748  33.721  13.196   9.495
 2569POPC   GL135749  33.636  13.486   9.096
 2569POPC   GL235750  33.847  13.782   9.089
 2569POPC   C1A35751  33.826  13.589   8.638
 2569POPC   D2A35752  33.905  13.393   8.269
 2569POPC   C3A35753  33.666  13.448   7.937
 2569POPC   C4A35754  33.569  13.670   7.617
 2569POPC   C1B35755  34.138  13.957   8.793
 2569POPC   C2B35756  34.264  13.977   8.400
 2569POPC   C3B35757  34.014  13.816   8.039
 2569POPC   C4B35758  34.000  13.994   7.649
 2570POPC   NC335759   9.277  17.213   9.503
 2570POPC   PO435760   8.634  17.376   9.264
 2570POPC   GL135761   8.808  17.518   8.954
 2570POPC   GL235762   9.156  17.367   8.998
 2570POPC   C1A35763   8.823  17.529   8.539
 2570POPC   D2A35764   9.118  17.232   8.408
 2570POPC   C3A35765   9.038  17.085   8.004
 2570POPC   C4A35766   8.899  17.234   7.604
 2570POPC   C1B35767   9.324  17.641   8.736
 2570POPC   C2B35768   9.258  17.706   8.313
 2570POPC   C3B35769   8.970  17.597   8.032
 2570POPC   C4B35770   9.242  17.566   7.720
 2571POPC   NC335771   1.739   5.073   9.432
 2571POPC   PO435772   2.425   5.260   9.479
 2571POPC   GL135773   2.316   5.436   9.058
 2571POPC   GL235774   1.971   5.267   9.021
 2571POPC   C1A35775   2.279   5.296   8.626
 2571POPC   D2A35776   2.025   4.925   8.491
 2571POPC   C3A35777   1.991   4.889   8.050
 2571POPC   C4A35778   2.134   5.173   7.733
 2571POPC   C1B35779   1.791   5.437   8.639
 2571POPC   C2B35780   1.925   5.374   8.206
 2571POPC   C3B35781   1.778   5.528   7.812
 2571POPC   C4B35782   1.666   5.417   7.360
 2572POPC   NC335783  27.729  16.176   9.527
 2572POPC   PO435784  27.527  15.564   9.586
 2572POPC   GL135785  27.412  15.896   9.245
 2572POPC   GL235786  27.754  15.984   9.069
 2572POPC   C1A35787  27.297  16.120   8.862
 2572POPC   D2A35788  27.465  16.232   8.460
 2572POPC   C3A35789  27.382  16.046   8.103
 2572POPC   C4A35790  27.463  16.274   7.744
 2572POPC   C1B35791  27.703  15.823   8.679
 2572POPC   C2B35792  27.884  15.828   8.284
 2572POPC   C3B35793  27.847  15.969   7.864
 2572POPC   C4B35794  27.861  16.101   7.458
 2573POPC   NC335795  13.494  27.725   9.810
 2573POPC   PO435796  13.884  27.402   9.322
 2573POPC   GL135797  13.748  27.625   9.004
 2573POPC   GL235798  13.432  27.684   9.157
 2573POPC   C1A35799  13.793  27.857   8.640
 2573POPC   D2A35800  13.493  27.716   8.341
 2573POPC   C3A35801  13.719  27.482   8.014
 2573POPC   C4A35802  13.913  27.639   7.637
 2573POPC   C1B35803  13.258  27.510   8.766
 2573POPC   C2B35804  13.062  27.386   8.383
 2573POPC   C3B35805  13.199  27.442   7.979
 2573POPC   C4B35806  13.452  27.404   7.593
 2574POPC   NC335807  32.585  39.463   9.708
 2574POPC   PO435808  32.018  39.202   9.484
 2574POPC   GL135809  32.138  39.476   9.108
 2574POPC   GL235810  32.532  39.601   9.137
 2574POPC   C1A35811  32.127  39.202   8.718
 2574POPC   D2A35812  32.246  38.869   8.466
 2574POPC   C3A35813  32.242  39.003   8.058
 2574POPC   C4A35814  32.196  39.328   7.799
 2574POPC   C1B35815  32.466  39.580   8.721
 2574POPC   C2B35816  32.438  39.390   8.326
 2574POPC   C3B35817  32.560  39.604   7.998
 2574POPC   C4B35818  32.332  39.817   7.682
 2575POPC   NC335819  19.475  23.036   9.409
 2575POPC   PO435820  20.001  22.624   9.510
 2575POPC   GL135821  19.823  22.787   9.110
 2575POPC   GL235822  19.698  23.157   8.971
 2575POPC   C1A35823  19.962  22.838   8.704
 2575POPC   D2A35824  19.907  23.120   8.393
 2575POPC   C3A35825  19.981  22.890   8.027
 2575POPC   C4A35826  20.044  22.971   7.600
 2575POPC   C1B35827  19.575  23.488   8.661
 2575POPC   C2B35828  19.593  23.564   8.231
 2575POPC   C3B35829  19.786  23.333   7.889
 2575POPC   C4B35830  19.756  23.379   7.434
 2576POPC   NC335831  43.334  28.975   9.636
 2576POPC   PO435832  42.858  29.443   9.586
 2576POPC   GL135833  42.962  29.128   9.255
 2576POPC   GL235834  43.327  29.121   9.147
 2576POPC   C1A35835  42.879  28.990   8.834
 2576POPC   D2A35836  43.141  28.996   8.430
 2576POPC   C3A35837  42.987  29.048   8.042
 2576POPC   C4A35838  43.043  28.923   7.624
 2576POPC   C1B35839  43.538  29.057   8.741
 2576POPC   C2B35840  43.595  28.805   8.395
 2576POPC   C3B35841  43.503  29.057   8.016
 2576POPC   C4B35842  43.278  29.361   7.741
 2577POPC   NC335843  37.370  11.432   9.653
 2577POPC   PO435844  37.852  11.576   9.233
 2577POPC   GL135845  37.645  11.172   9.178
 2577POPC   GL235846  37.829  10.843   9.281
 2577POPC   C1A35847  37.528  11.207   8.759
 2577POPC   D2A35848  37.645  11.480   8.411
 2577POPC   C3A35849  37.430  11.363   8.037
 2577POPC   C4A35850  37.546  11.380   7.614
 2577POPC   C1B35851  37.975  10.943   8.868
 2577POPC   C2B35852  37.902  11.022   8.447
 2577POPC   C3B35853  38.114  10.954   8.081
 2577POPC   C4B35854  37.951  11.010   7.681
 2578POPC   NC335855  19.391   4.587   9.522
 2578POPC   PO435856  19.269   3.819   9.503
 2578POPC   GL135857  19.017   4.057   9.175
 2578POPC   GL235858  19.090   4.435   9.149
 2578POPC   C1A35859  18.911   4.211   8.746
 2578POPC   D2A35860  19.156   4.288   8.388
 2578POPC   C3A35861  18.937   4.355   8.038
 2578POPC   C4A35862  18.734   4.226   7.679
 2578POPC   C1B35863  19.225   4.638   8.767
 2578POPC   C2B35864  19.277   4.782   8.354
 2578POPC   C3B35865  19.382   4.650   7.919
 2578POPC   C4B35866  19.307   4.348   7.558
 2579POPC   NC335867   8.388  11.253   9.331
 2579POPC   PO435868   8.981  11.447   9.662
 2579POPC   GL135869   9.021  11.551   9.255
 2579POPC   GL235870   8.758  11.728   9.181
 2579POPC   C1A35871   9.007  11.364   8.836
 2579POPC   D2A35872   9.223  11.378   8.435
 2579POPC   C3A35873   8.923  11.346   8.104
 2579POPC   C4A35874   8.829  11.178   7.696
 2579POPC   C1B35875   8.591  11.670   8.822
 2579POPC   C2B35876   8.573  11.836   8.422
 2579POPC   C3B35877   8.538  11.661   8.029
 2579POPC   C4B35878   8.806  11.685   7.681
 2580POPC   NC335879  32.691  23.816   9.586
 2580POPC   PO435880  32.024  23.658   9.459
 2580POPC   GL135881  32.156  23.893   9.129
 2580POPC   GL235882  32.510  24.000   9.164
 2580POPC   C1A35883  32.192  23.707   8.728
 2580POPC   D2A35884  32.543  23.486   8.524
 2580POPC   C3A35885  32.496  23.556   8.110
 2580POPC   C4A35886  32.104  23.655   7.875
 2580POPC   C1B35887  32.413  24.181   8.799
 2580POPC   C2B35888  32.475  24.004   8.410
 2580POPC   C3B35889  32.394  24.077   8.027
 2580POPC   C4B35890  32.545  23.866   7.721
 2581POPC   NC335891  30.706  27.790   9.469
 2581POPC   PO435892  30.479  27.132   9.509
 2581POPC   GL135893  30.584  27.370   9.146
 2581POPC   GL235894  30.961  27.419   9.141
 2581POPC   C1A35895  30.390  27.440   8.736
 2581POPC   D2A35896  30.311  27.464   8.286
 2581POPC   C3A35897  30.586  27.641   8.004
 2581POPC   C4A35898  30.894  27.453   7.784
 2581POPC   C1B35899  31.039  27.601   8.710
 2581POPC   C2B35900  31.011  27.753   8.288
 2581POPC   C3B35901  31.004  27.953   7.885
 2581POPC   C4B35902  30.673  27.967   7.599
 2582POPC   NC335903  24.866  15.766   9.484
 2582POPC   PO435904  24.601  16.360   9.559
 2582POPC   GL135905  24.716  16.126   9.122
 2582POPC   GL235906  24.942  15.843   8.991
 2582POPC   C1A35907  24.519  16.000   8.725
 2582POPC   D2A35908  24.666  15.915   8.307
 2582POPC   C3A35909  24.417  15.968   7.984
 2582POPC   C4A35910  24.365  15.990   7.557
 2582POPC   C1B35911  24.750  15.554   8.668
 2582POPC   C2B35912  24.624  15.389   8.268
 2582POPC   C3B35913  24.846  15.596   7.936
 2582POPC   C4B35914  24.900  15.996   7.742
 2583POPC   NC335915  14.620   9.315   9.469
 2583POPC   PO435916  14.166   9.632   9.785
 2583POPC   GL135917  14.225   9.630   9.213
 2583POPC   GL235918  14.499   9.898   9.080
 2583POPC   C1A35919  14.242   9.775   8.696
 2583POPC   D2A35920  14.597   9.836   8.379
 2583POPC   C3A35921  14.472   9.837   7.927
 2583POPC   C4A35922  14.366   9.771   7.466
 2583POPC   C1B35923  14.750   9.593   8.839
 2583POPC   C2B35924  14.997   9.509   8.468
 2583POPC   C3B35925  14.835   9.478   8.054
 2583POPC   C4B35926  14.827   9.614   7.617
 2584POPC   NC335927  31.850  18.533   9.634
 2584POPC   PO435928  31.229  18.266   9.645
 2584POPC   GL135929  31.333  18.503   9.267
 2584POPC   GL235930  31.677  18.426   9.156
 2584POPC   C1A35931  31.304  18.501   8.797
 2584POPC   D2A35932  31.350  18.159   8.492
 2584POPC   C3A35933  31.408  18.211   8.058
 2584POPC   C4A35934  31.323  17.988   7.728
 2584POPC   C1B35935  31.796  18.453   8.707
 2584POPC   C2B35936  31.653  18.589   8.309
 2584POPC   C3B35937  31.835  18.482   7.933
 2584POPC   C4B35938  31.691  18.305   7.554
 2585POPC   NC335939  34.950  31.157   9.541
 2585POPC   PO435940  34.266  31.110   9.435
 2585POPC   GL135941  34.389  31.361   9.123
 2585POPC   GL235942  34.417  31.713   9.230
 2585POPC   C1A35943  34.465  31.369   8.702
 2585POPC   D2A35944  34.745  31.407   8.393
 2585POPC   C3A35945  34.504  31.315   8.046
 2585POPC   C4A35946  34.717  31.449   7.726
 2585POPC   C1B35947  34.211  31.782   8.851
 2585POPC   C2B35948  34.193  31.735   8.401
 2585POPC   C3B35949  34.456  31.847   8.033
 2585POPC   C4B35950  34.544  31.906   7.588
 2586POPC   NC335951  36.207  20.832   9.629
 2586POPC   PO435952  35.630  20.743   9.530
 2586POPC   GL135953  35.927  20.847   9.167
 2586POPC   GL235954  36.297  20.943   9.127
 2586POPC   C1A35955  36.035  20.675   8.773
 2586POPC   D2A35956  35.856  20.511   8.437
 2586POPC   C3A35957  35.876  20.741   8.080
 2586POPC   C4A35958  36.087  20.647   7.737
 2586POPC   C1B35959  36.427  20.996   8.678
 2586POPC   C2B35960  36.377  20.734   8.277
 2586POPC   C3B35961  36.582  20.730   7.828
 2586POPC   C4B35962  36.733  20.709   7.374
 2587POPC   NC335963  22.430  11.861   9.541
 2587POPC   PO435964  21.785  11.548   9.429
 2587POPC   GL135965  22.082  11.888   9.195
 2587POPC   GL235966  22.193  12.253   9.296
 2587POPC   C1A35967  22.414  11.975   8.851
 2587POPC   D2A35968  22.619  11.879   8.427
 2587POPC   C3A35969  22.431  12.083   8.049
 2587POPC   C4A35970  22.304  11.937   7.623
 2587POPC   C1B35971  22.009  12.310   8.886
 2587POPC   C2B35972  22.118  12.337   8.463
 2587POPC   C3B35973  21.940  12.226   8.092
 2587POPC   C4B35974  22.070  12.353   7.704
 2588POPC   NC335975   5.971   1.562   9.822
 2588POPC   PO435976   5.893   1.013   9.481
 2588POPC   GL135977   5.999   0.980   9.064
 2588POPC   GL235978   5.658   1.131   9.033
 2588POPC   C1A35979   6.009   1.183   8.658
 2588POPC   D2A35980   5.793   1.060   8.309
 2588POPC   C3A35981   6.024   0.898   7.951
 2588POPC   C4A35982   5.943   1.052   7.536
 2588POPC   C1B35983   5.590   1.464   8.740
 2588POPC   C2B35984   5.767   1.582   8.348
 2588POPC   C3B35985   5.714   1.405   7.945
 2588POPC   C4B35986   5.571   1.631   7.596
 2589POPC   NC335987   3.979  11.106   9.446
 2589POPC   PO435988   4.625  11.371   9.502
 2589POPC   GL135989   4.366  11.293   9.119
 2589POPC   GL235990   4.011  11.406   9.058
 2589POPC   C1A35991   4.280  11.235   8.674
 2589POPC   D2A35992   4.483  11.207   8.301
 2589POPC   C3A35993   4.251  11.165   7.953
 2589POPC   C4A35994   4.154  10.891   7.676
 2589POPC   C1B35995   3.834  11.542   8.691
 2589POPC   C2B35996   3.942  11.382   8.296
 2589POPC   C3B35997   4.054  11.622   7.931
 2589POPC   C4B35998   3.786  11.631   7.594
 2590POPC   NC335999   1.027  22.878   9.510
 2590POPC   PO436000   1.092  23.440   9.142
 2590POPC   GL136001   1.255  23.048   9.059
 2590POPC   GL236002   1.210  22.663   9.094
 2590POPC   C1A36003   1.326  22.948   8.683
 2590POPC   D2A36004   1.204  22.789   8.325
 2590POPC   C3A36005   1.348  23.053   8.042
 2590POPC   C4A36006   1.221  23.280   7.745
 2590POPC   C1B36007   1.240  22.430   8.724
 2590POPC   C2B36008   1.530  22.406   8.386
 2590POPC   C3B36009   1.547  22.581   7.958
 2590POPC   C4B36010   1.652  22.864   7.579
 2591POPC   NC336011   6.590   6.184   9.462
 2591POPC   PO436012   6.853   6.815   9.465
 2591POPC   GL136013   6.732   6.587   9.152
 2591POPC   GL236014   6.491   6.836   9.054
 2591POPC   C1A36015   6.754   6.500   8.734
 2591POPC   D2A36016   6.545   6.668   8.382
 2591POPC   C3A36017   6.740   6.476   8.021
 2591POPC   C4A36018   6.692   6.676   7.633
 2591POPC   C1B36019   6.871   7.012   8.836
 2591POPC   C2B36020   6.917   7.150   8.417
 2591POPC   C3B36021   6.779   7.009   8.037
 2591POPC   C4B36022   6.858   7.154   7.641
 2592POPC   NC336023  25.173  13.185   9.297
 2592POPC   PO436024  25.442  12.641   9.575
 2592POPC   GL136025  25.325  12.734   9.124
 2592POPC   GL236026  25.492  13.060   8.922
 2592POPC   C1A36027  25.434  12.605   8.737
 2592POPC   D2A36028  25.523  12.830   8.401
 2592POPC   C3A36029  25.179  12.774   8.129
 2592POPC   C4A36030  25.228  12.509   7.793
 2592POPC   C1B36031  25.079  12.982   8.655
 2592POPC   C2B36032  24.808  13.264   8.375
 2592POPC   C3B36033  24.721  13.355   7.956
 2592POPC   C4B36034  25.059  13.166   7.775
 2593POPC   NC336035  36.220  24.171   9.451
 2593POPC   PO436036  35.817  24.722   9.548
 2593POPC   GL136037  35.915  24.519   9.172
 2593POPC   GL236038  36.234  24.494   9.072
 2593POPC   C1A36039  35.829  24.751   8.775
 2593POPC   D2A36040  36.053  24.853   8.372
 2593POPC   C3A36041  36.015  24.595   8.028
 2593POPC   C4A36042  35.679  24.654   7.762
 2593POPC   C1B36043  36.183  24.406   8.683
 2593POPC   C2B36044  36.380  24.477   8.358
 2593POPC   C3B36045  36.447  24.279   8.016
 2593POPC   C4B36046  36.405  24.536   7.679
 2594POPC   NC336047  28.192  44.245   9.516
 2594POPC   PO436048  28.554  43.664   9.594
 2594POPC   GL136049  28.334  43.770   9.246
 2594POPC   GL236050  27.975  43.805   9.336
 2594POPC   C1A36051  28.391  43.659   8.815
 2594POPC   D2A36052  28.270  43.435   8.432
 2594POPC   C3A36053  28.421  43.580   8.023
 2594POPC   C4A36054  28.648  43.707   7.639
 2594POPC   C1B36055  27.979  43.948   8.909
 2594POPC   C2B36056  28.079  43.923   8.475
 2594POPC   C3B36057  28.067  44.061   8.066
 2594POPC   C4B36058  28.203  43.941   7.714
 2595POPC   NC336059   5.258  44.386   9.621
 2595POPC   PO436060   4.886  44.913   9.444
 2595POPC   GL136061   5.049  44.754   9.068
 2595POPC   GL236062   5.389  44.668   9.169
 2595POPC   C1A36063   4.899  44.902   8.663
 2595POPC   D2A36064   5.164  44.919   8.325
 2595POPC   C3A36065   5.103   0.042   7.943
 2595POPC   C4A36066   5.381   0.009   7.649
 2595POPC   C1B36067   5.443  44.734   8.720
 2595POPC   C2B36068   5.434  44.486   8.325
 2595POPC   C3B36069   5.331  44.549   7.877
 2595POPC   C4B36070   5.338  44.226   7.552
 2596POPC   NC336071  44.321  17.793   9.317
 2596POPC   PO436072  43.960  17.240   9.517
 2596POPC   GL136073  44.091  17.396   9.056
 2596POPC   GL236074  43.960  17.748   8.962
 2596POPC   C1A36075  43.848  17.388   8.619
 2596POPC   D2A36076  43.961  17.285   8.216
 2596POPC   C3A36077  43.759  17.440   7.862
 2596POPC   C4A36078  43.756  17.179   7.510
 2596POPC   C1B36079  44.188  17.750   8.629
 2596POPC   C2B36080  44.090  17.774   8.224
 2596POPC   C3B36081  44.209  17.651   7.873
 2596POPC   C4B36082  44.146  17.973   7.649
 2597POPC   NC336083  28.135  29.155   9.764
 2597POPC   PO436084  28.596  28.730   9.468
 2597POPC   GL136085  28.337  28.900   9.145
 2597POPC   GL236086  28.072  28.674   9.119
 2597POPC   C1A36087  28.383  29.180   8.761
 2597POPC   D2A36088  28.152  29.431   8.449
 2597POPC   C3A36089  28.240  29.303   8.016
 2597POPC   C4A36090  28.468  28.979   7.786
 2597POPC   C1B36091  28.359  28.632   8.733
 2597POPC   C2B36092  28.462  28.854   8.351
 2597POPC   C3B36093  28.127  28.741   8.107
 2597POPC   C4B36094  27.904  28.407   7.899
 2598POPC   NC336095  31.132  20.016   9.682
 2598POPC   PO436096  30.529  19.754   9.542
 2598POPC   GL136097  30.761  19.753   9.200
 2598POPC   GL236098  30.886  20.059   9.232
 2598POPC   C1A36099  30.853  19.634   8.804
 2598POPC   D2A36100  30.846  19.778   8.404
 2598POPC   C3A36101  30.831  19.566   8.033
 2598POPC   C4A36102  30.561  19.720   7.737
 2598POPC   C1B36103  30.929  20.130   8.793
 2598POPC   C2B36104  30.893  20.271   8.382
 2598POPC   C3B36105  30.822  20.130   7.958
 2598POPC   C4B36106  31.029  20.065   7.565
 2599POPC   NC336107  38.526  30.065   9.670
 2599POPC   PO436108  37.961  29.895   9.397
 2599POPC   GL136109  38.246  29.992   9.088
 2599POPC   GL236110  38.603  30.032   9.148
 2599POPC   C1A36111  38.077  30.056   8.688
 2599POPC   D2A36112  38.134  29.868   8.306
 2599POPC   C3A36113  38.488  29.743   8.119
 2599POPC   C4A36114  38.400  29.852   7.701
 2599POPC   C1B36115  38.568  30.154   8.690
 2599POPC   C2B36116  38.512  30.230   8.227
 2599POPC   C3B36117  38.791  30.130   7.820
 2599POPC   C4B36118  38.597  30.206   7.363
 2600POPC   NC336119   9.849   4.583   9.384
 2600POPC   PO436120   9.827   3.980   9.565
 2600POPC   GL136121   9.718   4.129   9.128
 2600POPC   GL236122   9.493   3.842   8.997
 2600POPC   C1A36123   9.831   4.431   8.759
 2600POPC   D2A36124   9.617   4.536   8.365
 2600POPC   C3A36125   9.831   4.510   7.978
 2600POPC   C4A36126   9.670   4.455   7.542
 2600POPC   C1B36127   9.765   3.932   8.636
 2600POPC   C2B36128   9.697   4.045   8.205
 2600POPC   C3B36129   9.876   4.038   7.787
 2600POPC   C4B36130  10.084   4.136   7.397
 2601POPC   NC336131  30.049  11.293   9.612
 2601POPC   PO436132  30.620  11.620   9.555
 2601POPC   GL136133  30.272  11.544   9.233
 2601POPC   GL236134  29.980  11.739   9.177
 2601POPC   C1A36135  29.993  11.258   8.942
 2601POPC   D2A36136  29.797  11.304   8.508
 2601POPC   C3A36137  30.007  11.277   8.072
 2601POPC   C4A36138  29.933  11.053   7.652
 2601POPC   C1B36139  30.088  11.698   8.723
 2601POPC   C2B36140  29.863  11.785   8.361
 2601POPC   C3B36141  29.846  11.756   7.957
 2601POPC   C4B36142  30.115  11.624   7.687
 2602POPC   NC336143   7.612   7.710   9.544
 2602POPC   PO436144   7.796   7.083   9.371
 2602POPC   GL136145   7.539   7.385   9.125
 2602POPC   GL236146   7.719   7.714   9.060
 2602POPC   C1A36147   7.326   7.269   8.731
 2602POPC   D2A36148   7.444   7.026   8.354
 2602POPC   C3A36149   7.264   7.212   7.979
 2602POPC   C4A36150   7.358   7.265   7.543
 2602POPC   C1B36151   7.754   7.557   8.650
 2602POPC   C2B36152   7.550   7.536   8.265
 2602POPC   C3B36153   7.524   7.667   7.839
 2602POPC   C4B36154   7.526   7.730   7.410
 2603POPC   NC336155  17.072   2.835   9.183
 2603POPC   PO436156  17.522   3.209   9.501
 2603POPC   GL136157  17.527   3.047   9.076
 2603POPC   GL236158  17.534   2.672   9.006
 2603POPC   C1A36159  17.310   3.080   8.647
 2603POPC   D2A36160  17.077   3.262   8.284
 2603POPC   C3A36161  17.247   3.031   7.950
 2603POPC   C4A36162  17.670   2.999   7.842
 2603POPC   C1B36163  17.767   2.441   8.657
 2603POPC   C2B36164  17.587   2.273   8.261
 2603POPC   C3B36165  17.460   2.538   7.913
 2603POPC   C4B36166  17.780   2.525   7.612
 2604POPC   NC336167  25.929  39.092   9.797
 2604POPC   PO436168  25.358  39.116   9.524
 2604POPC   GL136169  25.371  39.255   9.099
 2604POPC   GL236170  25.678  39.410   9.108
 2604POPC   C1A36171  25.272  39.165   8.649
 2604POPC   D2A36172  25.339  39.270   8.202
 2604POPC   C3A36173  25.009  39.337   7.850
 2604POPC   C4A36174  25.084  39.675   7.497
 2604POPC   C1B36175  25.783  39.148   8.742
 2604POPC   C2B36176  25.938  39.184   8.305
 2604POPC   C3B36177  25.714  38.997   7.960
 2604POPC   C4B36178  25.383  39.021   7.676
 2605POPC   NC336179   7.429   9.188   9.298
 2605POPC   PO436180   7.385   8.517   9.376
 2605POPC   GL136181   7.497   8.758   9.030
 2605POPC   GL236182   7.173   8.875   8.954
 2605POPC   C1A36183   7.514   9.012   8.622
 2605POPC   D2A36184   7.111   8.969   8.389
 2605POPC   C3A36185   7.206   8.817   8.004
 2605POPC   C4A36186   7.591   8.981   7.821
 2605POPC   C1B36187   7.123   9.321   8.782
 2605POPC   C2B36188   7.373   9.518   8.489
 2605POPC   C3B36189   7.409   9.330   8.128
 2605POPC   C4B36190   7.055   9.278   7.859
 2606POPC   NC336191  30.859  40.768   9.418
 2606POPC   PO436192  30.285  41.064   9.459
 2606POPC   GL136193  30.567  40.956   9.057
 2606POPC   GL236194  30.973  40.933   8.954
 2606POPC   C1A36195  30.608  40.769   8.639
 2606POPC   D2A36196  30.867  40.936   8.367
 2606POPC   C3A36197  30.590  40.978   8.085
 2606POPC   C4A36198  30.546  40.939   7.683
 2606POPC   C1B36199  31.095  40.571   8.667
 2606POPC   C2B36200  30.963  40.391   8.281
 2606POPC   C3B36201  30.901  40.610   7.902
 2606POPC   C4B36202  31.048  41.050   7.865
 2607POPC   NC336203  39.720  13.284   9.485
 2607POPC   PO436204  40.212  13.808   9.505
 2607POPC   GL136205  40.105  13.537   9.172
 2607POPC   GL236206  39.763  13.578   9.079
 2607POPC   C1A36207  40.263  13.449   8.763
 2607POPC   D2A36208  40.214  13.247   8.402
 2607POPC   C3A36209  40.177  13.473   8.080
 2607POPC   C4A36210  40.375  13.368   7.742
 2607POPC   C1B36211  39.795  13.264   8.755
 2607POPC   C2B36212  39.701  13.397   8.362
 2607POPC   C3B36213  39.730  13.287   7.942
 2607POPC   C4B36214  39.902  13.582   7.667
 2608POPC   NC336215  11.509   6.220   9.646
 2608POPC   PO436216  11.263   5.571   9.760
 2608POPC   GL136217  11.267   5.882   9.348
 2608POPC   GL236218  11.598   6.019   9.176
 2608POPC   C1A36219  11.051   5.991   8.945
 2608POPC   D2A36220  10.827   5.690   8.640
 2608POPC   C3A36221  10.944   5.663   8.194
 2608POPC   C4A36222  11.127   5.882   7.804
 2608POPC   C1B36223  11.532   5.853   8.746
 2608POPC   C2B36224  11.404   5.855   8.298
 2608POPC   C3B36225  11.617   5.852   7.887
 2608POPC   C4B36226  11.554   5.850   7.419
 2609POPC   NC336227  30.601  14.161  10.134
 2609POPC   PO436228  30.786  14.286   9.484
 2609POPC   GL136229  30.726  14.607   9.202
 2609POPC   GL236230  30.406  14.588   9.130
 2609POPC   C1A36231  30.762  14.632   8.751
 2609POPC   D2A36232  30.663  14.381   8.392
 2609POPC   C3A36233  30.597  14.569   8.040
 2609POPC   C4A36234  30.735  14.725   7.686
 2609POPC   C1B36235  30.349  14.257   8.792
 2609POPC   C2B36236  30.169  14.167   8.380
 2609POPC   C3B36237  30.390  14.115   7.977
 2609POPC   C4B36238  30.468  14.106   7.533
 2610POPC   NC336239  34.222  21.902   9.508
 2610POPC   PO436240  34.749  22.414   9.505
 2610POPC   GL136241  34.614  22.127   9.192
 2610POPC   GL236242  34.697  21.771   9.171
 2610POPC   C1A36243  34.535  22.268   8.798
 2610POPC   D2A36244  34.598  22.481   8.420
 2610POPC   C3A36245  34.764  22.238   8.101
 2610POPC   C4A36246  34.738  22.371   7.715
 2610POPC   C1B36247  34.495  21.725   8.736
 2610POPC   C2B36248  34.543  21.812   8.259
 2610POPC   C3B36249  34.470  21.909   7.774
 2610POPC   C4B36250  34.472  21.781   7.289
 2611POPC   NC336251  34.404  22.817   9.500
 2611POPC   PO436252  35.014  23.145   9.617
 2611POPC   GL136253  34.710  23.144   9.207
 2611POPC   GL236254  34.333  23.147   9.110
 2611POPC   C1A36255  34.662  23.196   8.739
 2611POPC   D2A36256  34.387  23.108   8.392
 2611POPC   C3A36257  34.553  22.885   8.055
 2611POPC   C4A36258  34.846  22.960   7.723
 2611POPC   C1B36259  34.328  22.772   8.787
 2611POPC   C2B36260  34.127  22.653   8.344
 2611POPC   C3B36261  34.289  22.456   7.957
 2611POPC   C4B36262  34.417  22.727   7.593
 2612POPC   NC336263  30.076  19.660   9.560
 2612POPC   PO436264  29.547  19.622   9.273
 2612POPC   GL136265  29.876  19.833   9.096
 2612POPC   GL236266  30.239  19.832   9.113
 2612POPC   C1A36267  29.944  19.750   8.701
 2612POPC   D2A36268  29.743  19.867   8.364
 2612POPC   C3A36269  29.916  19.694   8.004
 2612POPC   C4A36270  29.602  19.795   7.718
 2612POPC   C1B36271  30.454  19.949   8.737
 2612POPC   C2B36272  30.417  20.059   8.294
 2612POPC   C3B36273  30.293  20.149   7.864
 2612POPC   C4B36274  30.099  19.870   7.559
 2613POPC   NC336275  25.491   0.136   9.527
 2613POPC   PO436276  24.920   0.527   9.554
 2613POPC   GL136277  25.173   0.592   9.119
 2613POPC   GL236278  25.436   0.353   9.081
 2613POPC   C1A36279  25.197   0.426   8.657
 2613POPC   D2A36280  25.083   0.280   8.272
 2613POPC   C3A36281  25.176   0.570   7.935
 2613POPC   C4A36282  24.929   0.818   7.683
 2613POPC   C1B36283  25.711   0.035   8.879
 2613POPC   C2B36284  25.559   0.012   8.447
 2613POPC   C3B36285  25.578   0.131   8.029
 2613POPC   C4B36286  25.347   0.183   7.648
 2614POPC   NC336287  42.436  29.420   9.725
 2614POPC   PO436288  41.960  29.023   9.458
 2614POPC   GL136289  42.257  29.135   9.125
 2614POPC   GL236290  42.488  29.391   9.222
 2614POPC   C1A36291  42.308  29.037   8.680
 2614POPC   D2A36292  41.937  29.093   8.386
 2614POPC   C3A36293  42.005  28.988   7.961
 2614POPC   C4A36294  42.072  28.575   7.795
 2614POPC   C1B36295  42.619  29.458   8.824
 2614POPC   C2B36296  42.738  29.298   8.449
 2614POPC   C3B36297  42.489  29.144   8.125
 2614POPC   C4B36298  42.520  28.941   7.790
 2615POPC   NC336299  32.605  43.024   9.426
 2615POPC   PO436300  32.044  42.863   9.707
 2615POPC   GL136301  32.056  42.962   9.250
 2615POPC   GL236302  32.335  42.738   9.100
 2615POPC   C1A36303  32.083  43.065   8.801
 2615POPC   D2A36304  32.235  42.825   8.444
 2615POPC   C3A36305  32.012  42.889   8.066
 2615POPC   C4A36306  31.894  43.206   7.752
 2615POPC   C1B36307  32.622  42.969   8.793
 2615POPC   C2B36308  32.637  43.188   8.428
 2615POPC   C3B36309  32.588  42.934   8.070
 2615POPC   C4B36310  32.355  42.977   7.710
 2616POPC   NC336311  24.785  36.729   9.561
 2616POPC   PO436312  24.420  37.352   9.496
 2616POPC   GL136313  24.540  37.067   9.210
 2616POPC   GL236314  24.270  36.818   9.118
 2616POPC   C1A36315  24.687  36.952   8.809
 2616POPC   D2A36316  24.474  36.800   8.466
 2616POPC   C3A36317  24.586  36.848   8.047
 2616POPC   C4A36318  24.289  36.584   7.855
 2616POPC   C1B36319  24.219  37.165   8.795
 2616POPC   C2B36320  24.238  37.341   8.347
 2616POPC   C3B36321  24.177  37.229   7.880
 2616POPC   C4B36322  24.182  37.318   7.413
 2617POPC   NC336323   5.268   0.137   9.310
 2617POPC   PO436324   4.955   0.670   9.532
 2617POPC   GL136325   4.859   0.599   9.141
 2617POPC   GL236326   4.805   0.252   9.073
 2617POPC   C1A36327   5.201   0.622   8.854
 2617POPC   D2A36328   5.352   0.330   8.563
 2617POPC   C3A36329   5.433   0.395   8.107
 2617POPC   C4A36330   5.196   0.481   7.708
 2617POPC   C1B36331   4.807   0.402   8.666
 2617POPC   C2B36332   4.923   0.393   8.254
 2617POPC   C3B36333   4.705   0.406   7.848
 2617POPC   C4B36334   4.530   0.401   7.406
 2618POPC   NC336335  39.067  12.106   9.447
 2618POPC   PO436336  38.741  11.553   9.393
 2618POPC   GL136337  39.016  11.780   9.065
 2618POPC   GL236338  39.363  11.784   9.144
 2618POPC   C1A36339  39.018  12.199   8.796
 2618POPC   D2A36340  38.847  12.408   8.398
 2618POPC   C3A36341  39.034  12.251   8.041
 2618POPC   C4A36342  39.213  11.974   7.786
 2618POPC   C1B36343  39.429  11.916   8.709
 2618POPC   C2B36344  39.519  12.015   8.256
 2618POPC   C3B36345  39.633  11.736   7.890
 2618POPC   C4B36346  39.565  11.668   7.432
 2619POPC   NC336347  36.210   9.300   9.675
 2619POPC   PO436348  35.906   9.927   9.624
 2619POPC   GL136349  36.013   9.951   9.182
 2619POPC   GL236350  35.856   9.629   9.134
 2619POPC   C1A36351  35.862  10.005   8.749
 2619POPC   D2A36352  36.020  10.168   8.362
 2619POPC   C3A36353  36.325   9.931   8.086
 2619POPC   C4A36354  36.255   9.629   7.750
 2619POPC   C1B36355  36.205   9.602   8.835
 2619POPC   C2B36356  36.079   9.628   8.411
 2619POPC   C3B36357  35.793   9.410   8.141
 2619POPC   C4B36358  35.772   9.270   7.726
 2620POPC   NC336359  36.563  21.644   9.534
 2620POPC   PO436360  37.278  21.579   9.416
 2620POPC   GL136361  36.892  21.635   9.134
 2620POPC   GL236362  36.561  21.401   9.093
 2620POPC   C1A36363  36.878  21.505   8.700
 2620POPC   D2A36364  37.098  21.647   8.356
 2620POPC   C3A36365  37.201  21.441   7.966
 2620POPC   C4A36366  37.091  21.656   7.599
 2620POPC   C1B36367  36.358  21.515   8.692
 2620POPC   C2B36368  36.476  21.455   8.260
 2620POPC   C3B36369  36.717  21.277   7.927
 2620POPC   C4B36370  36.575  21.162   7.538
 2621POPC   NC336371   1.446  38.177   9.385
 2621POPC   PO436372   2.123  38.161   9.581
 2621POPC   GL136373   1.979  38.306   9.186
 2621POPC   GL236374   1.706  38.584   9.181
 2621POPC   C1A36375   2.110  38.485   8.793
 2621POPC   D2A36376   1.968  38.239   8.418
 2621POPC   C3A36377   1.963  38.470   8.033
 2621POPC   C4A36378   2.225  38.593   7.698
 2621POPC   C1B36379   1.611  38.417   8.770
 2621POPC   C2B36380   1.485  38.532   8.354
 2621POPC   C3B36381   1.519  38.699   7.929
 2621POPC   C4B36382   1.735  38.716   7.530
 2622POPC   NC336383  43.658  39.359   9.719
 2622POPC   PO436384  44.246  39.010   9.586
 2622POPC   GL136385  43.954  39.242   9.261
 2622POPC   GL236386  43.612  39.163   9.236
 2622POPC   C1A36387  43.874  39.377   8.810
 2622POPC   D2A36388  43.983  39.175   8.430
 2622POPC   C3A36389  43.875  39.363   8.046
 2622POPC   C4A36390  43.817  39.260   7.615
 2622POPC   C1B36391  43.571  38.968   8.835
 2622POPC   C2B36392  43.646  38.809   8.415
 2622POPC   C3B36393  43.773  38.880   7.957
 2622POPC   C4B36394  43.504  38.867   7.555
 2623POPC   NC336395  37.599  29.595   9.347
 2623POPC   PO436396  37.252  30.149   9.594
 2623POPC   GL136397  37.461  30.135   9.205
 2623POPC   GL236398  37.776  30.235   9.072
 2623POPC   C1A36399  37.436  29.961   8.807
 2623POPC   D2A36400  37.659  29.877   8.453
 2623POPC   C3A36401  37.522  29.992   8.053
 2623POPC   C4A36402  37.487  29.774   7.651
 2623POPC   C1B36403  37.715  30.456   8.705
 2623POPC   C2B36404  37.928  30.429   8.306
 2623POPC   C3B36405  38.004  30.187   7.922
 2623POPC   C4B36406  38.070  30.186   7.469
 2624POPC   NC336407  10.652  39.433   9.572
 2624POPC   PO436408  11.291  39.275   9.596
 2624POPC   GL136409  11.194  39.222   9.202
 2624POPC   GL236410  10.885  39.155   9.218
 2624POPC   C1A36411  11.332  39.299   8.823
 2624POPC   D2A36412  11.453  39.569   8.501
 2624POPC   C3A36413  11.367  39.459   8.105
 2624POPC   C4A36414  11.564  39.299   7.727
 2624POPC   C1B36415  10.805  39.281   8.841
 2624POPC   C2B36416  10.968  39.319   8.442
 2624POPC   C3B36417  10.845  39.422   8.066
 2624POPC   C4B36418  11.051  39.345   7.724
 2625POPC   NC336419  44.342  22.794   9.419
 2625POPC   PO436420  43.752  23.106   9.464
 2625POPC   GL136421  43.919  22.888   9.148
 2625POPC   GL236422  43.835  22.561   9.300
 2625POPC   C1A36423  44.032  22.956   8.708
 2625POPC   D2A36424  44.212  22.856   8.292
 2625POPC   C3A36425  43.936  23.016   7.966
 2625POPC   C4A36426  44.113  23.387   7.748
 2625POPC   C1B36427  43.724  22.554   8.838
 2625POPC   C2B36428  43.748  22.646   8.378
 2625POPC   C3B36429  43.535  22.648   7.964
 2625POPC   C4B36430  43.539  22.719   7.512
 2626POPC   NC336431  20.055  20.529   9.739
 2626POPC   PO436432  20.641  20.752   9.482
 2626POPC   GL136433  20.499  20.643   9.100
 2626POPC   GL236434  20.171  20.744   9.182
 2626POPC   C1A36435  20.641  20.756   8.669
 2626POPC   D2A36436  20.891  20.782   8.272
 2626POPC   C3A36437  20.867  20.408   8.011
 2626POPC   C4A36438  20.496  20.294   7.818
 2626POPC   C1B36439  20.133  20.759   8.739
 2626POPC   C2B36440  20.256  20.933   8.334
 2626POPC   C3B36441  20.358  20.822   7.905
 2626POPC   C4B36442  20.347  21.156   7.573
 2627POPC   NC336443  44.636  40.402   9.520
 2627POPC   PO436444  44.194  39.889   9.544
 2627POPC   GL136445  44.550  39.894   9.209
 2627POPC   GL236446  44.869  40.017   9.218
 2627POPC   C1A36447  44.779  39.696   8.838
 2627POPC   D2A36448  44.672  39.568   8.414
 2627POPC   C3A36449  44.548  39.837   8.056
 2627POPC   C4A36450  44.393  40.201   7.786
 2627POPC   C1B36451  44.921  40.206   8.815
 2627POPC   C2B36452  44.960  40.031   8.405
 2627POPC   C3B36453  44.862  40.254   8.034
 2627POPC   C4B36454  44.849  40.485   7.659
 2628POPC   NC336455  12.023  28.681   9.482
 2628POPC   PO436456  12.268  29.311   9.507
 2628POPC   GL136457  12.220  29.079   9.184
 2628POPC   GL236458  11.895  29.109   9.151
 2628POPC   C1A36459  12.278  29.074   8.771
 2628POPC   D2A36460  11.990  29.122   8.444
 2628POPC   C3A36461  12.155  29.252   8.038
 2628POPC   C4A36462  11.964  29.524   7.748
 2628POPC   C1B36463  11.849  28.781   8.832
 2628POPC   C2B36464  11.806  28.656   8.409
 2628POPC   C3B36465  11.705  28.647   8.002
 2628POPC   C4B36466  11.853  28.952   7.727
 2629POPC   NC336467  34.157  24.976   9.516
 2629POPC   PO436468  33.652  25.431   9.508
 2629POPC   GL136469  33.658  25.169   9.133
 2629POPC   GL236470  33.981  25.010   9.039
 2629POPC   C1A36471  33.650  25.130   8.672
 2629POPC   D2A36472  33.729  25.359   8.309
 2629POPC   C3A36473  33.808  25.155   7.937
 2629POPC   C4A36474  34.150  25.322   7.707
 2629POPC   C1B36475  34.192  24.961   8.630
 2629POPC   C2B36476  34.269  25.012   8.157
 2629POPC   C3B36477  34.138  24.810   7.746
 2629POPC   C4B36478  34.124  24.968   7.317
 2630POPC   NC336479  19.291  44.448   9.361
 2630POPC   PO436480  19.028  43.856   9.502
 2630POPC   GL136481  18.815  43.836   9.101
 2630POPC   GL236482  18.524  44.086   9.098
 2630POPC   C1A36483  19.110  43.818   8.729
 2630POPC   D2A36484  19.413  43.575   8.469
 2630POPC   C3A36485  19.252  43.692   8.077
 2630POPC   C4A36486  19.276  43.550   7.650
 2630POPC   C1B36487  18.619  44.030   8.647
 2630POPC   C2B36488  18.774  43.803   8.286
 2630POPC   C3B36489  18.825  43.887   7.839
 2630POPC   C4B36490  18.582  44.030   7.479
 2631POPC   NC336491  33.184  38.990   9.413
 2631POPC   PO436492  33.829  39.246   9.616
 2631POPC   GL136493  33.813  39.385   9.211
 2631POPC   GL236494  33.453  39.410   9.129
 2631POPC   C1A36495  34.031  39.549   8.842
 2631POPC   D2A36496  33.890  39.570   8.407
 2631POPC   C3A36497  34.140  39.360   8.088
 2631POPC   C4A36498  34.032  39.068   7.758
 2631POPC   C1B36499  33.682  39.184   8.750
 2631POPC   C2B36500  33.684  39.064   8.298
 2631POPC   C3B36501  33.556  39.251   7.899
 2631POPC   C4B36502  33.588  39.287   7.444
 2632POPC   NC336503  12.854  10.116   9.299
 2632POPC   PO436504  12.768  10.736   9.624
 2632POPC   GL136505  12.838  10.642   9.165
 2632POPC   GL236506  13.162  10.491   9.164
 2632POPC   C1A36507  12.900  10.504   8.697
 2632POPC   D2A36508  12.618  10.308   8.347
 2632POPC   C3A36509  12.679  10.472   7.952
 2632POPC   C4A36510  13.059  10.704   7.889
 2632POPC   C1B36511  13.297  10.191   8.808
 2632POPC   C2B36512  13.268  10.045   8.382
 2632POPC   C3B36513  13.093  10.177   7.996
 2632POPC   C4B36514  13.140  10.318   7.564
 2633POPC   NC336515  21.341  38.088   9.519
 2633POPC   PO436516  21.169  38.755   9.517
 2633POPC   GL136517  21.331  38.475   9.186
 2633POPC   GL236518  21.109  38.182   9.086
 2633POPC   C1A36519  21.474  38.465   8.782
 2633POPC   D2A36520  21.432  38.677   8.391
 2633POPC   C3A36521  21.418  38.499   8.002
 2633POPC   C4A36522  21.183  38.770   7.732
 2633POPC   C1B36523  20.993  38.352   8.722
 2633POPC   C2B36524  21.098  38.237   8.351
 2633POPC   C3B36525  20.965  38.294   7.943
 2633POPC   C4B36526  21.217  38.254   7.571
 2634POPC   NC336527  37.781  32.876   9.580
 2634POPC   PO436528  37.354  33.357   9.403
 2634POPC   GL136529  37.537  33.057   9.143
 2634POPC   GL236530  37.900  33.035   9.120
 2634POPC   C1A36531  37.606  33.190   8.728
 2634POPC   D2A36532  37.945  33.359   8.506
 2634POPC   C3A36533  37.786  33.454   8.094
 2634POPC   C4A36534  37.634  33.307   7.715
 2634POPC   C1B36535  37.982  32.823   8.769
 2634POPC   C2B36536  38.061  32.898   8.357
 2634POPC   C3B36537  37.849  32.941   7.989
 2634POPC   C4B36538  37.469  32.757   7.820
 2635POPC   NC336539  27.842  30.554   9.635
 2635POPC   PO436540  27.264  30.962   9.569
 2635POPC   GL136541  27.600  30.857   9.245
 2635POPC   GL236542  27.958  30.729   9.178
 2635POPC   C1A36543  27.578  30.771   8.817
 2635POPC   D2A36544  27.644  30.967   8.419
 2635POPC   C3A36545  27.681  30.739   8.047
 2635POPC   C4A36546  27.558  30.756   7.598
 2635POPC   C1B36547  27.902  30.380   8.887
 2635POPC   C2B36548  27.729  30.412   8.481
 2635POPC   C3B36549  27.894  30.281   8.127
 2635POPC   C4B36550  27.956  30.451   7.739
 2636POPC   NC336551   4.227  43.800   9.686
 2636POPC   PO436552   4.729  43.978   9.263
 2636POPC   GL136553   4.330  43.929   9.085
 2636POPC   GL236554   4.050  44.175   9.089
 2636POPC   C1A36555   4.404  43.964   8.660
 2636POPC   D2A36556   4.713  43.963   8.329
 2636POPC   C3A36557   4.519  43.819   7.940
 2636POPC   C4A36558   4.441  43.983   7.525
 2636POPC   C1B36559   3.882  44.014   8.658
 2636POPC   C2B36560   3.848  44.221   8.246
 2636POPC   C3B36561   4.095  44.106   7.909
 2636POPC   C4B36562   4.063  43.693   7.709
 2637POPC   NC336563   2.298   9.552   9.595
 2637POPC   PO436564   2.901   9.674   9.412
 2637POPC   GL136565   2.811   9.800   9.040
 2637POPC   GL236566   2.451   9.757   9.043
 2637POPC   C1A36567   2.937   9.595   8.652
 2637POPC   D2A36568   2.790   9.390   8.267
 2637POPC   C3A36569   2.868   9.621   7.896
 2637POPC   C4A36570   2.671   9.700   7.532
 2637POPC   C1B36571   2.544  10.039   8.692
 2637POPC   C2B36572   2.355  10.164   8.310
 2637POPC   C3B36573   2.495   9.994   7.937
 2637POPC   C4B36574   2.654  10.204   7.596
 2638POPC   NC336575  18.875  33.780   9.590
 2638POPC   PO436576  19.368  34.250   9.621
 2638POPC   GL136577  19.173  33.991   9.234
 2638POPC   GL236578  19.181  33.609   9.216
 2638POPC   C1A36579  19.043  33.908   8.804
 2638POPC   D2A36580  18.934  34.060   8.394
 2638POPC   C3A36581  19.086  33.978   8.018
 2638POPC   C4A36582  18.955  34.185   7.662
 2638POPC   C1B36583  18.847  33.461   8.912
 2638POPC   C2B36584  18.949  33.551   8.456
 2638POPC   C3B36585  18.848  33.533   8.026
 2638POPC   C4B36586  18.870  33.669   7.604
 2639POPC   NC336587  35.567  31.788   9.320
 2639POPC   PO436588  35.208  32.217   9.715
 2639POPC   GL136589  35.283  32.254   9.227
 2639POPC   GL236590  35.580  32.224   9.046
 2639POPC   C1A36591  35.148  32.285   8.754
 2639POPC   D2A36592  34.997  32.656   8.481
 2639POPC   C3A36593  35.044  32.708   8.026
 2639POPC   C4A36594  35.360  32.470   7.807
 2639POPC   C1B36595  35.624  32.024   8.634
 2639POPC   C2B36596  35.605  32.152   8.199
 2639POPC   C3B36597  35.553  31.979   7.785
 2639POPC   C4B36598  35.526  31.693   7.421
 2640POPC   NC336599  28.860  22.903   9.642
 2640POPC   PO436600  29.507  22.682   9.597
 2640POPC   GL136601  29.285  22.740   9.231
 2640POPC   GL236602  29.177  23.075   9.166
 2640POPC   C1A36603  29.325  22.760   8.780
 2640POPC   D2A36604  29.379  23.063   8.468
 2640POPC   C3A36605  29.302  22.875   8.113
 2640POPC   C4A36606  29.291  23.054   7.783
 2640POPC   C1B36607  28.973  23.215   8.748
 2640POPC   C2B36608  28.909  23.175   8.261
 2640POPC   C3B36609  28.814  22.893   7.887
 2640POPC   C4B36610  28.630  22.987   7.431
 2641POPC   NC336611   0.106  11.725   9.430
 2641POPC   PO436612  44.968  12.334   9.411
 2641POPC   GL136613  44.766  12.221   9.044
 2641POPC   GL236614  44.688  11.877   9.107
 2641POPC   C1A36615  44.812  12.312   8.623
 2641POPC   D2A36616   0.004  12.081   8.293
 2641POPC   C3A36617  44.864  12.217   7.898
 2641POPC   C4A36618  44.552  12.513   7.852
 2641POPC   C1B36619  44.575  11.873   8.650
 2641POPC   C2B36620  44.485  12.113   8.246
 2641POPC   C3B36621  44.327  12.062   7.801
 2641POPC   C4B36622  44.160  12.099   7.354
 2642POPC   NC336623  32.327  38.504   9.586
 2642POPC   PO436624  31.717  38.667   9.391
 2642POPC   GL136625  32.003  38.474   9.166
 2642POPC   GL236626  32.191  38.746   9.069
 2642POPC   C1A36627  32.096  38.356   8.757
 2642POPC   D2A36628  32.361  38.326   8.420
 2642POPC   C3A36629  32.185  38.512   8.108
 2642POPC   C4A36630  32.294  38.309   7.791
 2642POPC   C1B36631  32.534  38.637   8.807
 2642POPC   C2B36632  32.745  38.655   8.437
 2642POPC   C3B36633  32.651  38.653   8.027
 2642POPC   C4B36634  32.526  38.736   7.612
 2643POPC   NC336635   5.588  15.343   9.487
 2643POPC   PO436636   6.214  14.976   9.383
 2643POPC   GL136637   5.913  15.121   9.131
 2643POPC   GL236638   5.998  15.456   9.152
 2643POPC   C1A36639   5.935  15.089   8.702
 2643POPC   D2A36640   6.029  15.185   8.260
 2643POPC   C3A36641   5.702  14.991   8.003
 2643POPC   C4A36642   5.726  14.772   7.607
 2643POPC   C1B36643   5.664  15.515   8.841
 2643POPC   C2B36644   5.536  15.281   8.456
 2643POPC   C3B36645   5.471  15.435   8.095
 2643POPC   C4B36646   5.710  15.476   7.762
 2644POPC   NC336647  13.121  24.586   9.465
 2644POPC   PO436648  12.538  24.759   9.551
 2644POPC   GL136649  12.692  24.681   9.119
 2644POPC   GL236650  13.051  24.593   8.963
 2644POPC   C1A36651  12.592  24.590   8.674
 2644POPC   D2A36652  12.818  24.411   8.335
 2644POPC   C3A36653  12.734  24.378   7.899
 2644POPC   C4A36654  12.413  24.179   7.641
 2644POPC   C1B36655  13.061  24.802   8.568
 2644POPC   C2B36656  13.053  24.826   8.125
 2644POPC   C3B36657  13.008  24.749   7.679
 2644POPC   C4B36658  13.267  24.919   7.339
 2645POPC   NC336659  17.836  41.403   9.653
 2645POPC   PO436660  17.338  41.821   9.590
 2645POPC   GL136661  17.533  41.797   9.180
 2645POPC   GL236662  17.742  41.602   9.197
 2645POPC   C1A36663  17.668  41.923   8.773
 2645POPC   D2A36664  17.502  41.732   8.425
 2645POPC   C3A36665  17.639  41.835   8.036
 2645POPC   C4A36666  17.428  41.716   7.681
 2645POPC   C1B36667  17.529  41.413   8.850
 2645POPC   C2B36668  17.687  41.260   8.452
 2645POPC   C3B36669  17.489  41.328   8.067
 2645POPC   C4B36670  17.353  41.203   7.687
 2646POPC   NC336671  16.230   7.120   9.647
 2646POPC   PO436672  15.741   7.575   9.494
 2646POPC   GL136673  16.018   7.492   9.134
 2646POPC   GL236674  16.235   7.780   9.066
 2646POPC   C1A36675  16.012   7.575   8.659
 2646POPC   D2A36676  15.806   7.784   8.311
 2646POPC   C3A36677  15.958   7.515   8.016
 2646POPC   C4A36678  16.042   7.129   7.810
 2646POPC   C1B36679  16.436   7.840   8.690
 2646POPC   C2B36680  16.395   7.614   8.288
 2646POPC   C3B36681  16.424   7.583   7.822
 2646POPC   C4B36682  16.584   7.620   7.359
 2647POPC   NC336683  20.104  23.987   9.411
 2647POPC   PO436684  19.805  23.367   9.425
 2647POPC   GL136685  19.753  23.721   9.139
 2647POPC   GL236686  19.559  24.008   9.303
 2647POPC   C1A36687  19.937  23.845   8.714
 2647POPC   D2A36688  20.103  23.591   8.372
 2647POPC   C3A36689  20.012  23.783   8.004
 2647POPC   C4A36690  20.030  23.782   7.567
 2647POPC   C1B36691  19.459  23.992   8.842
 2647POPC   C2B36692  19.349  23.976   8.438
 2647POPC   C3B36693  19.526  24.060   8.054
 2647POPC   C4B36694  19.557  23.756   7.740
 2648POPC   NC336695  11.009   7.551   9.585
 2648POPC   PO436696  11.562   7.283   9.387
 2648POPC   GL136697  11.193   7.318   9.137
 2648POPC   GL236698  11.245   7.674   9.087
 2648POPC   C1A36699  11.013   7.387   8.713
 2648POPC   D2A36700  10.992   7.666   8.356
 2648POPC   C3A36701  11.080   7.425   7.986
 2648POPC   C4A36702  11.195   7.198   7.559
 2648POPC   C1B36703  11.517   7.546   8.728
 2648POPC   C2B36704  11.564   7.608   8.278
 2648POPC   C3B36705  11.571   7.361   7.898
 2648POPC   C4B36706  11.592   7.492   7.458
 2649POPC   NC336707   7.685  17.838   9.522
 2649POPC   PO436708   7.474  18.523   9.499
 2649POPC   GL136709   7.389  18.199   9.198
 2649POPC   GL236710   7.211  18.403   8.956
 2649POPC   C1A36711   7.492  18.025   8.778
 2649POPC   D2A36712   7.427  18.311   8.411
 2649POPC   C3A36713   7.345  18.156   7.991
 2649POPC   C4A36714   7.611  17.871   7.756
 2649POPC   C1B36715   7.664  18.504   8.849
 2649POPC   C2B36716   7.866  18.581   8.476
 2649POPC   C3B36717   7.701  18.645   8.063
 2649POPC   C4B36718   7.888  18.646   7.653
 2650POPC   NC336719  20.411  15.053   9.359
 2650POPC   PO436720  20.902  15.506   9.324
 2650POPC   GL136721  20.694  15.292   8.982
 2650POPC   GL236722  20.372  15.440   9.006
 2650POPC   C1A36723  20.452  15.038   8.647
 2650POPC   D2A36724  20.595  14.781   8.286
 2650POPC   C3A36725  20.594  14.958   7.870
 2650POPC   C4A36726  20.725  15.197   7.510
 2650POPC   C1B36727  20.435  15.559   8.613
 2650POPC   C2B36728  20.487  15.333   8.215
 2650POPC   C3B36729  20.357  15.413   7.809
 2650POPC   C4B36730  20.389  15.627   7.441
 2651POPC   NC336731  38.592   2.654   9.555
 2651POPC   PO436732  38.095   3.066   9.590
 2651POPC   GL136733  38.215   2.746   9.227
 2651POPC   GL236734  38.573   2.745   9.062
 2651POPC   C1A36735  38.159   2.669   8.779
 2651POPC   D2A36736  38.540   2.741   8.532
 2651POPC   C3A36737  38.516   2.856   8.103
 2651POPC   C4A36738  38.435   2.609   7.702
 2651POPC   C1B36739  38.828   2.417   8.840
 2651POPC   C2B36740  38.935   2.358   8.395
 2651POPC   C3B36741  38.897   2.521   7.969
 2651POPC   C4B36742  38.880   2.882   7.718
 2652POPC   NC336743  42.868  14.272   9.622
 2652POPC   PO436744  43.157  14.871   9.821
 2652POPC   GL136745  43.108  14.659   9.369
 2652POPC   GL236746  43.406  14.561   9.202
 2652POPC   C1A36747  42.957  14.371   8.987
 2652POPC   D2A36748  42.822  14.481   8.539
 2652POPC   C3A36749  43.023  14.250   8.226
 2652POPC   C4A36750  43.027  14.067   7.824
 2652POPC   C1B36751  43.559  14.507   8.794
 2652POPC   C2B36752  43.636  14.336   8.418
 2652POPC   C3B36753  43.444  14.513   8.112
 2652POPC   C4B36754  43.315  14.486   7.717
 2653POPC   NC336755  40.466  30.454   9.809
 2653POPC   PO436756  41.029  30.294   9.508
 2653POPC   GL136757  40.849  29.993   9.218
 2653POPC   GL236758  41.013  29.663   9.184
 2653POPC   C1A36759  40.665  29.897   8.811
 2653POPC   D2A36760  40.420  30.079   8.458
 2653POPC   C3A36761  40.570  29.916   8.053
 2653POPC   C4A36762  40.552  30.052   7.628
 2653POPC   C1B36763  40.971  29.454   8.795
 2653POPC   C2B36764  40.833  29.620   8.385
 2653POPC   C3B36765  40.955  29.459   7.976
 2653POPC   C4B36766  41.270  29.528   7.631
 2654POPC   NC336767  14.895  13.490   9.411
 2654POPC   PO436768  15.356  13.909   9.473
 2654POPC   GL136769  15.251  13.948   9.068
 2654POPC   GL236770  14.911  13.901   9.082
 2654POPC   C1A36771  15.311  13.620   8.743
 2654POPC   D2A36772  15.411  13.506   8.308
 2654POPC   C3A36773  15.525  13.906   8.141
 2654POPC   C4A36774  15.554  13.940   7.699
 2654POPC   C1B36775  14.789  13.669   8.712
 2654POPC   C2B36776  14.778  13.315   8.403
 2654POPC   C3B36777  14.987  13.287   8.011
 2654POPC   C4B36778  15.139  13.701   7.862
 2655POPC   NC336779  19.162   8.217   9.584
 2655POPC   PO436780  18.678   8.022   9.246
 2655POPC   GL136781  18.974   8.276   9.102
 2655POPC   GL236782  19.222   8.004   9.082
 2655POPC   C1A36783  19.151   8.391   8.746
 2655POPC   D2A36784  19.344   8.190   8.423
 2655POPC   C3A36785  19.164   8.353   8.055
 2655POPC   C4A36786  18.794   8.384   7.789
 2655POPC   C1B36787  18.962   7.911   8.690
 2655POPC   C2B36788  18.754   8.091   8.337
 2655POPC   C3B36789  18.856   7.905   7.931
 2655POPC   C4B36790  19.293   7.933   7.799
 2656POPC   NC336791  33.893  28.296   9.498
 2656POPC   PO436792  33.209  28.112   9.421
 2656POPC   GL136793  33.455  28.426   9.170
 2656POPC   GL236794  33.751  28.238   9.024
 2656POPC   C1A36795  33.633  28.644   8.774
 2656POPC   D2A36796  33.893  28.774   8.408
 2656POPC   C3A36797  33.795  28.608   7.987
 2656POPC   C4A36798  33.708  28.434   7.547
 2656POPC   C1B36799  34.038  28.309   8.688
 2656POPC   C2B36800  34.156  28.343   8.262
 2656POPC   C3B36801  33.990  28.128   7.895
 2656POPC   C4B36802  34.055  28.086   7.423
 2657POPC   NC336803  13.678  11.640   9.405
 2657POPC   PO436804  13.757  10.940   9.511
 2657POPC   GL136805  13.686  11.119   9.117
 2657POPC   GL236806  13.372  11.300   9.146
 2657POPC   C1A36807  13.779  11.076   8.677
 2657POPC   D2A36808  13.943  11.143   8.245
 2657POPC   C3A36809  13.635  11.049   7.963
 2657POPC   C4A36810  13.211  11.193   7.834
 2657POPC   C1B36811  13.538  11.509   8.774
 2657POPC   C2B36812  13.494  11.375   8.342
 2657POPC   C3B36813  13.578  11.580   7.948
 2657POPC   C4B36814  13.483  11.587   7.511
 2658POPC   NC336815  21.931  14.504   9.967
 2658POPC   PO436816  22.306  14.460   9.428
 2658POPC   GL136817  22.265  14.244   9.063
 2658POPC   GL236818  21.967  14.034   9.002
 2658POPC   C1A36819  22.534  14.399   8.742
 2658POPC   D2A36820  22.390  14.644   8.384
 2658POPC   C3A36821  22.465  14.509   7.976
 2658POPC   C4A36822  22.513  14.582   7.581
 2658POPC   C1B36823  22.025  14.328   8.622
 2658POPC   C2B36824  22.009  14.363   8.165
 2658POPC   C3B36825  22.104  14.229   7.709
 2658POPC   C4B36826  22.059  13.943   7.309
 2659POPC   NC336827  29.165  14.235   9.393
 2659POPC   PO436828  29.399  14.840   9.565
 2659POPC   GL136829  29.258  14.680   9.167
 2659POPC   GL236830  29.492  14.444   9.028
 2659POPC   C1A36831  28.948  14.513   8.845
 2659POPC   D2A36832  28.684  14.519   8.461
 2659POPC   C3A36833  28.778  14.631   8.020
 2659POPC   C4A36834  29.179  14.535   7.798
 2659POPC   C1B36835  29.269  14.144   8.716
 2659POPC   C2B36836  29.129  14.055   8.290
 2659POPC   C3B36837  29.334  14.059   7.903
 2659POPC   C4B36838  29.205  14.107   7.475
 2660POPC   NC336839  30.193  15.920   9.588
 2660POPC   PO436840  29.691  16.261   9.802
 2660POPC   GL136841  29.786  15.926   9.313
 2660POPC   GL236842  30.142  15.773   9.125
 2660POPC   C1A36843  29.837  15.942   8.794
 2660POPC   D2A36844  30.024  16.195   8.444
 2660POPC   C3A36845  29.736  16.150   8.096
 2660POPC   C4A36846  29.546  16.228   7.675
 2660POPC   C1B36847  30.336  15.807   8.698
 2660POPC   C2B36848  30.178  15.753   8.226
 2660POPC   C3B36849  29.944  15.784   7.799
 2660POPC   C4B36850  29.989  15.574   7.401
 2661POPC   NC336851  30.644  32.432   9.441
 2661POPC   PO436852  30.900  31.762   9.431
 2661POPC   GL136853  30.730  31.802   9.033
 2661POPC   GL236854  30.552  32.093   9.030
 2661POPC   C1A36855  30.686  31.860   8.563
 2661POPC   D2A36856  30.554  32.202   8.258
 2661POPC   C3A36857  30.596  32.366   7.848
 2661POPC   C4A36858  31.020  32.303   7.881
 2661POPC   C1B36859  30.719  32.372   8.718
 2661POPC   C2B36860  30.705  32.687   8.407
 2661POPC   C3B36861  30.902  32.760   8.063
 2661POPC   C4B36862  30.785  32.842   7.730
 2662POPC   NC336863  19.186  43.454   9.325
 2662POPC   PO436864  18.851  42.878   9.509
 2662POPC   GL136865  18.760  43.161   9.142
 2662POPC   GL236866  19.063  43.111   8.973
 2662POPC   C1A36867  18.776  43.441   8.748
 2662POPC   D2A36868  18.987  43.326   8.383
 2662POPC   C3A36869  18.866  43.381   7.962
 2662POPC   C4A36870  18.848  43.062   7.675
 2662POPC   C1B36871  19.249  42.839   8.702
 2662POPC   C2B36872  19.319  42.908   8.322
 2662POPC   C3B36873  19.350  43.183   8.019
 2662POPC   C4B36874  19.394  43.050   7.623
 2663POPC   NC336875  14.226   6.661   9.732
 2663POPC   PO436876  13.577   6.605   9.493
 2663POPC   GL136877  13.563   6.583   9.114
 2663POPC   GL236878  13.462   6.242   9.121
 2663POPC   C1A36879  13.606   6.806   8.723
 2663POPC   D2A36880  13.581   6.961   8.300
 2663POPC   C3A36881  13.693   6.843   7.872
 2663POPC   C4A36882  13.459   6.941   7.457
 2663POPC   C1B36883  13.709   6.293   8.743
 2663POPC   C2B36884  13.570   6.418   8.386
 2663POPC   C3B36885  13.527   6.370   7.971
 2663POPC   C4B36886  13.601   6.463   7.543
 2664POPC   NC336887  18.269  39.220   9.595
 2664POPC   PO436888  18.665  38.741   9.654
 2664POPC   GL136889  18.667  38.920   9.199
 2664POPC   GL236890  18.574  39.243   9.169
 2664POPC   C1A36891  18.753  39.071   8.720
 2664POPC   D2A36892  18.636  39.139   8.250
 2664POPC   C3A36893  18.315  38.995   7.933
 2664POPC   C4A36894  18.252  38.638   7.645
 2664POPC   C1B36895  18.733  39.571   8.894
 2664POPC   C2B36896  18.863  39.539   8.456
 2664POPC   C3B36897  18.739  39.608   8.023
 2664POPC   C4B36898  18.406  39.519   7.726
 2665POPC   NC336899  29.593  23.146   9.559
 2665POPC   PO436900  30.279  22.879   9.510
 2665POPC   GL136901  30.136  22.822   9.132
 2665POPC   GL236902  29.817  22.871   9.215
 2665POPC   C1A36903  29.931  22.723   8.744
 2665POPC   D2A36904  29.796  22.803   8.348
 2665POPC   C3A36905  30.106  22.969   8.088
 2665POPC   C4A36906  30.124  22.919   7.624
 2665POPC   C1B36907  29.656  23.139   8.907
 2665POPC   C2B36908  29.837  23.313   8.551
 2665POPC   C3B36909  29.662  23.460   8.178
 2665POPC   C4B36910  29.757  23.218   7.826
 2666POPC   NC336911  10.880  20.250   9.376
 2666POPC   PO436912  10.887  20.807   9.531
 2666POPC   GL136913  11.113  20.831   9.113
 2666POPC   GL236914  11.216  20.479   9.070
 2666POPC   C1A36915  11.279  20.809   8.660
 2666POPC   D2A36916  11.328  20.622   8.209
 2666POPC   C3A36917  11.416  20.897   7.856
 2666POPC   C4A36918  11.108  21.122   7.612
 2666POPC   C1B36919  11.260  20.287   8.651
 2666POPC   C2B36920  11.675  20.317   8.430
 2666POPC   C3B36921  11.756  20.415   7.990
 2666POPC   C4B36922  11.410  20.353   7.721
 2667POPC   NC336923  40.160  27.052   9.568
 2667POPC   PO436924  39.788  26.546   9.536
 2667POPC   GL136925  40.029  26.726   9.173
 2667POPC   GL236926  39.802  27.010   9.183
 2667POPC   C1A36927  40.174  26.686   8.717
 2667POPC   D2A36928  40.021  26.476   8.317
 2667POPC   C3A36929  40.170  26.592   7.908
 2667POPC   C4A36930  40.407  26.949   7.708
 2667POPC   C1B36931  39.668  26.818   8.793
 2667POPC   C2B36932  39.793  26.917   8.371
 2667POPC   C3B36933  39.678  26.814   7.961
 2667POPC   C4B36934  39.895  26.919   7.577
 2668POPC   NC336935  40.614   4.429   9.424
 2668POPC   PO436936  41.044   3.870   9.282
 2668POPC   GL136937  40.867   4.183   9.039
 2668POPC   GL236938  40.925   4.517   9.026
 2668POPC   C1A36939  40.532   4.287   8.763
 2668POPC   D2A36940  40.537   4.079   8.391
 2668POPC   C3A36941  40.611   4.275   8.009
 2668POPC   C4A36942  40.824   4.077   7.679
 2668POPC   C1B36943  41.068   4.382   8.627
 2668POPC   C2B36944  41.038   4.153   8.264
 2668POPC   C3B36945  41.154   4.395   7.925
 2668POPC   C4B36946  41.195   4.843   7.871
 2669POPC   NC336947  26.003  30.199   9.772
 2669POPC   PO436948  26.123  29.582   9.586
 2669POPC   GL136949  25.907  29.740   9.247
 2669POPC   GL236950  26.156  29.618   9.059
 2669POPC   C1A36951  25.867  30.095   8.940
 2669POPC   D2A36952  25.942  30.190   8.494
 2669POPC   C3A36953  25.778  29.947   8.124
 2669POPC   C4A36954  25.905  30.125   7.795
 2669POPC   C1B36955  25.945  29.664   8.698
 2669POPC   C2B36956  26.152  29.721   8.362
 2669POPC   C3B36957  26.109  29.509   8.023
 2669POPC   C4B36958  25.904  29.590   7.690
 2670POPC   NC336959  42.971  40.673   9.578
 2670POPC   PO436960  43.153  41.266   9.371
 2670POPC   GL136961  43.055  40.901   9.132
 2670POPC   GL236962  43.385  40.810   9.056
 2670POPC   C1A36963  42.999  40.662   8.750
 2670POPC   D2A36964  43.258  40.813   8.454
 2670POPC   C3A36965  43.157  40.971   8.045
 2670POPC   C4A36966  42.964  40.918   7.630
 2670POPC   C1B36967  43.485  40.457   8.790
 2670POPC   C2B36968  43.328  40.299   8.398
 2670POPC   C3B36969  43.120  40.478   8.086
 2670POPC   C4B36970  43.328  40.594   7.747
 2671POPC   NC336971  15.418  42.897   9.783
 2671POPC   PO436972  15.073  43.498   9.644
 2671POPC   GL136973  15.253  43.315   9.238
 2671POPC   GL236974  14.972  43.211   8.992
 2671POPC   C1A36975  15.462  43.276   8.835
 2671POPC   D2A36976  15.223  43.183   8.477
 2671POPC   C3A36977  15.305  43.415   8.131
 2671POPC   C4A36978  15.318  43.234   7.732
 2671POPC   C1B36979  15.059  42.822   8.797
 2671POPC   C2B36980  14.999  42.682   8.384
 2671POPC   C3B36981  15.137  42.890   8.057
 2671POPC   C4B36982  15.435  42.719   7.760
 2672POPC   NC336983  44.472  28.518   9.510
 2672POPC   PO436984  44.712  27.894   9.595
 2672POPC   GL136985  44.794  28.226   9.237
 2672POPC   GL236986  44.471  28.286   9.065
 2672POPC   C1A36987  44.914  28.338   8.783
 2672POPC   D2A36988  44.949  28.131   8.357
 2672POPC   C3A36989  44.828  28.343   7.952
 2672POPC   C4A36990  44.859  28.203   7.478
 2672POPC   C1B36991  44.408  28.495   8.701
 2672POPC   C2B36992  44.587  28.593   8.335
 2672POPC   C3B36993  44.391  28.706   7.960
 2672POPC   C4B36994  44.574  28.741   7.567
 2673POPC   NC336995  36.186  32.745   9.449
 2673POPC   PO436996  36.008  33.363   9.530
 2673POPC   GL136997  36.019  33.163   9.129
 2673POPC   GL236998  35.683  33.235   9.051
 2673POPC   C1A36999  36.285  33.174   8.728
 2673POPC   D2A37000  36.316  32.963   8.313
 2673POPC   C3A37001  36.060  32.971   7.936
 2673POPC   C4A37002  36.001  32.831   7.499
 2673POPC   C1B37003  35.803  33.050   8.673
 2673POPC   C2B37004  35.899  33.265   8.341
 2673POPC   C3B37005  35.763  33.403   7.983
 2673POPC   C4B37006  35.879  33.344   7.604
 2674POPC   NC337007   9.099  39.741   9.574
 2674POPC   PO437008   9.270  40.294   9.317
 2674POPC   GL137009   9.029  40.096   9.078
 2674POPC   GL237010   9.295  39.808   9.093
 2674POPC   C1A37011   8.914  40.297   8.680
 2674POPC   D2A37012   8.736  40.168   8.275
 2674POPC   C3A37013   8.966  40.200   7.851
 2674POPC   C4A37014   8.805  40.236   7.408
 2674POPC   C1B37015   9.265  39.905   8.661
 2674POPC   C2B37016   9.179  39.767   8.262
 2674POPC   C3B37017   9.257  39.744   7.822
 2674POPC   C4B37018   9.211  39.908   7.436
 2675POPC   NC337019  29.707  27.959   9.550
 2675POPC   PO437020  29.897  28.615   9.559
 2675POPC   GL137021  29.967  28.499   9.133
 2675POPC   GL237022  29.676  28.325   9.145
 2675POPC   C1A37023  30.084  28.535   8.701
 2675POPC   D2A37024  30.100  28.238   8.354
 2675POPC   C3A37025  30.152  28.379   7.923
 2675POPC   C4A37026  30.201  28.182   7.525
 2675POPC   C1B37027  29.668  28.231   8.713
 2675POPC   C2B37028  29.630  28.488   8.327
 2675POPC   C3B37029  29.656  28.455   7.888
 2675POPC   C4B37030  29.787  28.471   7.453
 2676POPC   NC337031  21.065   2.816   9.493
 2676POPC   PO437032  21.684   2.534   9.430
 2676POPC   GL137033  21.487   2.664   9.116
 2676POPC   GL237034  21.205   2.480   9.129
 2676POPC   C1A37035  21.496   2.550   8.689
 2676POPC   D2A37036  21.415   2.756   8.304
 2676POPC   C3A37037  21.696   2.606   7.990
 2676POPC   C4A37038  21.814   2.680   7.558
 2676POPC   C1B37039  21.062   2.808   8.835
 2676POPC   C2B37040  20.867   2.750   8.453
 2676POPC   C3B37041  20.974   2.664   8.055
 2676POPC   C4B37042  20.950   2.800   7.689
 2677POPC   NC337043  30.652  12.697   9.527
 2677POPC   PO437044  30.769  13.327   9.407
 2677POPC   GL137045  30.704  13.001   9.130
 2677POPC   GL237046  30.413  12.887   9.105
 2677POPC   C1A37047  30.883  12.728   8.863
 2677POPC   D2A37048  30.874  12.736   8.429
 2677POPC   C3A37049  31.048  12.502   8.104
 2677POPC   C4A37050  31.086  12.732   7.706
 2677POPC   C1B37051  30.452  12.963   8.677
 2677POPC   C2B37052  30.401  12.803   8.292
 2677POPC   C3B37053  30.640  12.848   7.923
 2677POPC   C4B37054  30.634  12.640   7.474
 2678POPC   NC337055  32.736  29.349   9.626
 2678POPC   PO437056  33.209  28.919   9.771
 2678POPC   GL137057  33.040  29.037   9.348
 2678POPC   GL237058  33.304  28.983   9.114
 2678POPC   C1A37059  32.856  29.087   8.919
 2678POPC   D2A37060  32.957  29.168   8.491
 2678POPC   C3A37061  32.746  29.276   8.072
 2678POPC   C4A37062  32.883  29.060   7.675
 2678POPC   C1B37063  33.230  29.431   8.908
 2678POPC   C2B37064  33.327  29.565   8.497
 2678POPC   C3B37065  33.273  29.318   8.122
 2678POPC   C4B37066  33.315  29.357   7.728
 2679POPC   NC337067  20.439  10.578   9.511
 2679POPC   PO437068  21.089  10.490   9.641
 2679POPC   GL137069  20.827  10.394   9.253
 2679POPC   GL237070  20.717  10.727   9.110
 2679POPC   C1A37071  20.599  10.291   8.866
 2679POPC   D2A37072  20.382  10.358   8.489
 2679POPC   C3A37073  20.631  10.527   8.144
 2679POPC   C4A37074  20.627  10.266   7.756
 2679POPC   C1B37075  20.446  10.775   8.761
 2679POPC   C2B37076  20.285  10.952   8.365
 2679POPC   C3B37077  20.111  10.883   7.959
 2679POPC   C4B37078  20.422  10.777   7.694
 2680POPC   NC337079  36.119   3.152   9.527
 2680POPC   PO437080  35.926   3.765   9.607
 2680POPC   GL137081  35.881   3.487   9.232
 2680POPC   GL237082  36.197   3.405   9.080
 2680POPC   C1A37083  35.802   3.422   8.781
 2680POPC   D2A37084  35.917   3.704   8.470
 2680POPC   C3A37085  35.750   3.512   8.151
 2680POPC   C4A37086  35.887   3.574   7.784
 2680POPC   C1B37087  36.311   3.384   8.641
 2680POPC   C2B37088  36.275   3.461   8.163
 2680POPC   C3B37089  36.351   3.348   7.720
 2680POPC   C4B37090  36.489   3.253   7.277
 2681POPC   NC337091  43.056  24.978   9.457
 2681POPC   PO437092  42.781  25.570   9.554
 2681POPC   GL137093  43.012  25.449   9.195
 2681POPC   GL237094  43.377  25.390   9.226
 2681POPC   C1A37095  42.863  25.406   8.779
 2681POPC   D2A37096  42.853  25.178   8.416
 2681POPC   C3A37097  42.706  25.325   8.014
 2681POPC   C4A37098  42.787  25.115   7.648
 2681POPC   C1B37099  43.294  25.124   8.850
 2681POPC   C2B37100  43.365  25.029   8.423
 2681POPC   C3B37101  43.176  25.123   8.012
 2681POPC   C4B37102  43.313  25.120   7.601
 2682POPC   NC337103   8.473  44.206   9.448
 2682POPC   PO437104   8.051  43.661   9.511
 2682POPC   GL137105   8.236  43.796   9.148
 2682POPC   GL237106   8.103  44.090   9.077
 2682POPC   C1A37107   8.368  43.770   8.720
 2682POPC   D2A37108   8.157  43.656   8.361
 2682POPC   C3A37109   8.221  43.816   7.939
 2682POPC   C4A37110   8.074  43.613   7.638
 2682POPC   C1B37111   7.914  44.006   8.648
 2682POPC   C2B37112   7.785  43.986   8.226
 2682POPC   C3B37113   7.813  44.134   7.836
 2682POPC   C4B37114   8.020  44.108   7.475
 2683POPC   NC337115  27.359  43.691   9.507
 2683POPC   PO437116  27.732  44.189   9.607
 2683POPC   GL137117  27.537  44.092   9.213
 2683POPC   GL237118  27.556  43.734   9.049
 2683POPC   C1A37119  27.529  44.185   8.794
 2683POPC   D2A37120  27.580  43.864   8.519
 2683POPC   C3A37121  27.565  44.001   8.126
 2683POPC   C4A37122  27.699  43.883   7.696
 2683POPC   C1B37123  27.759  43.456   8.790
 2683POPC   C2B37124  27.753  43.364   8.406
 2683POPC   C3B37125  27.877  43.591   8.103
 2683POPC   C4B37126  27.984  43.443   7.751
 2684POPC   NC337127  20.168  11.450   9.392
 2684POPC   PO437128  19.673  11.013   9.480
 2684POPC   GL137129  19.797  11.203   9.112
 2684POPC   GL237130  19.705  11.565   9.128
 2684POPC   C1A37131  20.126  11.193   8.803
 2684POPC   D2A37132  20.174  11.454   8.470
 2684POPC   C3A37133  19.884  11.277   8.175
 2684POPC   C4A37134  19.786  11.251   7.747
 2684POPC   C1B37135  19.709  11.470   8.673
 2684POPC   C2B37136  19.688  11.720   8.291
 2684POPC   C3B37137  19.509  11.655   7.887
 2684POPC   C4B37138  19.472  11.596   7.395
 2685POPC   NC337139  28.523  17.879   9.486
 2685POPC   PO437140  28.048  18.187   9.753
 2685POPC   GL137141  28.281  18.311   9.297
 2685POPC   GL237142  28.607  18.405   9.319
 2685POPC   C1A37143  28.302  18.153   8.824
 2685POPC   D2A37144  28.532  18.284   8.417
 2685POPC   C3A37145  28.381  18.202   7.985
 2685POPC   C4A37146  28.432  18.146   7.528
 2685POPC   C1B37147  28.633  18.532   8.876
 2685POPC   C2B37148  28.497  18.803   8.487
 2685POPC   C3B37149  28.365  18.728   8.083
 2685POPC   C4B37150  28.488  18.610   7.709
 2686POPC   NC337151  18.598  38.275   9.616
 2686POPC   PO437152  19.333  38.234   9.527
 2686POPC   GL137153  19.185  38.365   9.154
 2686POPC   GL237154  18.865  38.445   9.205
 2686POPC   C1A37155  19.100  38.262   8.753
 2686POPC   D2A37156  19.300  38.427   8.433
 2686POPC   C3A37157  19.111  38.374   8.063
 2686POPC   C4A37158  19.178  38.241   7.679
 2686POPC   C1B37159  18.702  38.564   8.794
 2686POPC   C2B37160  18.840  38.688   8.370
 2686POPC   C3B37161  18.697  38.652   7.932
 2686POPC   C4B37162  18.712  38.425   7.526
 2687POPC   NC337163  32.130  17.574   9.600
 2687POPC   PO437164  32.747  17.930   9.457
 2687POPC   GL137165  32.390  17.664   9.195
 2687POPC   GL237166  32.395  17.316   9.192
 2687POPC   C1A37167  32.049  17.507   8.876
 2687POPC   D2A37168  31.884  17.619   8.461
 2687POPC   C3A37169  32.217  17.605   8.125
 2687POPC   C4A37170  32.289  17.269   7.788
 2687POPC   C1B37171  32.399  17.094   8.800
 2687POPC   C2B37172  32.551  17.099   8.368
 2687POPC   C3B37173  32.657  16.940   7.952
 2687POPC   C4B37174  32.721  16.995   7.503
 2688POPC   NC337175   1.573  42.406   9.335
 2688POPC   PO437176   2.142  42.446   9.667
 2688POPC   GL137177   2.087  42.272   9.234
 2688POPC   GL237178   2.053  42.606   9.173
 2688POPC   C1A37179   1.873  42.175   8.790
 2688POPC   D2A37180   1.736  42.325   8.355
 2688POPC   C3A37181   2.046  42.217   7.997
 2688POPC   C4A37182   2.309  41.883   7.790
 2688POPC   C1B37183   1.882  42.682   8.772
 2688POPC   C2B37184   2.115  42.636   8.388
 2688POPC   C3B37185   2.296  42.676   8.015
 2688POPC   C4B37186   2.022  42.680   7.703
 2689POPC   NC337187   8.463  41.327   9.426
 2689POPC   PO437188   9.020  41.611   9.374
 2689POPC   GL137189   8.895  41.573   8.975
 2689POPC   GL237190   8.633  41.341   8.941
 2689POPC   C1A37191   8.962  41.625   8.544
 2689POPC   D2A37192   8.891  41.978   8.258
 2689POPC   C3A37193   8.678  41.842   7.917
 2689POPC   C4A37194   8.979  41.515   7.821
 2689POPC   C1B37195   8.402  41.184   8.603
 2689POPC   C2B37196   8.497  41.180   8.150
 2689POPC   C3B37197   8.643  41.127   7.719
 2689POPC   C4B37198   8.944  41.214   7.368
 2690POPC   NC337199  15.500  30.117   9.698
 2690POPC   PO437200  15.018  30.217   9.257
 2690POPC   GL137201  15.253  29.997   8.994
 2690POPC   GL237202  15.559  29.993   9.188
 2690POPC   C1A37203  15.114  29.807   8.594
 2690POPC   D2A37204  15.039  30.080   8.266
 2690POPC   C3A37205  15.083  30.080   7.853
 2690POPC   C4A37206  14.719  29.897   7.763
 2690POPC   C1B37207  15.717  29.918   8.758
 2690POPC   C2B37208  15.566  29.849   8.318
 2690POPC   C3B37209  15.555  29.856   7.858
 2690POPC   C4B37210  15.510  30.140   7.512
 2691POPC   NC337211  16.040  26.643   9.536
 2691POPC   PO437212  15.607  27.236   9.522
 2691POPC   GL137213  15.827  27.041   9.124
 2691POPC   GL237214  15.755  26.655   9.106
 2691POPC   C1A37215  16.121  27.213   8.763
 2691POPC   D2A37216  16.392  27.096   8.404
 2691POPC   C3A37217  16.221  27.127   8.016
 2691POPC   C4A37218  16.062  26.844   7.754
 2691POPC   C1B37219  16.021  26.717   8.713
 2691POPC   C2B37220  15.903  26.803   8.291
 2691POPC   C3B37221  15.771  26.508   7.987
 2691POPC   C4B37222  16.140  26.341   7.745
 2692POPC   NC337223   2.160  36.006   9.333
 2692POPC   PO437224   2.029  36.613   9.399
 2692POPC   GL137225   1.890  36.395   9.062
 2692POPC   GL237226   1.672  36.111   9.167
 2692POPC   C1A37227   2.156  36.283   8.718
 2692POPC   D2A37228   2.089  36.062   8.364
 2692POPC   C3A37229   1.866  36.246   8.026
 2692POPC   C4A37230   2.096  36.101   7.679
 2692POPC   C1B37231   1.702  35.853   8.784
 2692POPC   C2B37232   1.623  35.884   8.352
 2692POPC   C3B37233   1.755  35.724   7.931
 2692POPC   C4B37234   1.646  35.872   7.499
 2693POPC   NC337235  32.913  26.230   9.551
 2693POPC   PO437236  33.676  26.356   9.571
 2693POPC   GL137237  33.408  26.169   9.262
 2693POPC   GL237238  33.038  26.172   9.088
 2693POPC   C1A37239  33.441  26.056   8.847
 2693POPC   D2A37240  33.182  26.253   8.544
 2693POPC   C3A37241  33.307  26.118   8.161
 2693POPC   C4A37242  33.366  26.009   7.749
 2693POPC   C1B37243  32.963  25.863   8.803
 2693POPC   C2B37244  32.824  25.905   8.383
 2693POPC   C3B37245  32.913  25.825   7.981
 2693POPC   C4B37246  32.870  26.028   7.650
 2694POPC   NC337247  21.162  31.250   9.409
 2694POPC   PO437248  21.576  31.831   9.449
 2694POPC   GL137249  21.281  31.689   9.160
 2694POPC   GL237250  21.514  31.415   9.055
 2694POPC   C1A37251  21.193  31.843   8.751
 2694POPC   D2A37252  21.310  31.626   8.389
 2694POPC   C3A37253  21.530  31.715   8.055
 2694POPC   C4A37254  21.532  31.511   7.650
 2694POPC   C1B37255  21.169  31.325   8.775
 2694POPC   C2B37256  21.083  31.162   8.358
 2694POPC   C3B37257  21.124  31.329   7.934
 2694POPC   C4B37258  21.118  31.039   7.587
 2695POPC   NC337259  18.469   3.779   9.396
 2695POPC   PO437260  18.240   4.380   9.636
 2695POPC   GL137261  18.156   4.217   9.231
 2695POPC   GL237262  18.124   4.573   9.171
 2695POPC   C1A37263  18.378   4.242   8.827
 2695POPC   D2A37264  18.529   4.440   8.427
 2695POPC   C3A37265  18.401   4.171   8.087
 2695POPC   C4A37266  18.228   4.265   7.695
 2695POPC   C1B37267  18.209   4.768   8.784
 2695POPC   C2B37268  17.955   4.833   8.431
 2695POPC   C3B37269  18.108   4.627   8.083
 2695POPC   C4B37270  18.489   4.649   7.904
 2696POPC   NC337271  23.925  38.912   9.408
 2696POPC   PO437272  23.510  38.372   9.574
 2696POPC   GL137273  23.505  38.418   9.139
 2696POPC   GL237274  23.833  38.532   9.104
 2696POPC   C1A37275  23.644  38.209   8.723
 2696POPC   D2A37276  23.551  37.966   8.310
 2696POPC   C3A37277  23.656  38.102   7.863
 2696POPC   C4A37278  23.407  38.315   7.511
 2696POPC   C1B37279  23.674  38.744   8.755
 2696POPC   C2B37280  23.807  38.585   8.371
 2696POPC   C3B37281  23.718  38.638   7.950
 2696POPC   C4B37282  23.880  38.503   7.579
 2697POPC   NC337283  42.704  37.314   9.498
 2697POPC   PO437284  42.645  37.978   9.599
 2697POPC   GL137285  42.422  37.834   9.207
 2697POPC   GL237286  42.110  37.654   9.058
 2697POPC   C1A37287  42.369  37.959   8.767
 2697POPC   D2A37288  42.211  37.748   8.428
 2697POPC   C3A37289  42.395  37.906   8.091
 2697POPC   C4A37290  42.469  37.729   7.730
 2697POPC   C1B37291  42.458  37.451   8.786
 2697POPC   C2B37292  42.555  37.343   8.340
 2697POPC   C3B37293  42.421  37.258   7.906
 2697POPC   C4B37294  42.610  37.250   7.480
 2698POPC   NC337295  33.649  20.575   9.866
 2698POPC   PO437296  33.077  20.635   9.470
 2698POPC   GL137297  33.063  20.684   9.090
 2698POPC   GL237298  32.826  20.393   9.061
 2698POPC   C1A37299  33.211  20.940   8.751
 2698POPC   D2A37300  33.057  20.949   8.353
 2698POPC   C3A37301  33.192  20.631   8.106
 2698POPC   C4A37302  33.170  20.852   7.730
 2698POPC   C1B37303  32.912  20.518   8.635
 2698POPC   C2B37304  32.670  20.605   8.312
 2698POPC   C3B37305  32.688  20.705   7.934
 2698POPC   C4B37306  32.896  20.436   7.689
 2699POPC   NC337307  15.973  10.680   9.522
 2699POPC   PO437308  15.541  10.060   9.491
 2699POPC   GL137309  15.693  10.385   9.201
 2699POPC   GL237310  16.076  10.407   9.094
 2699POPC   C1A37311  15.712  10.623   8.829
 2699POPC   D2A37312  15.955  10.491   8.502
 2699POPC   C3A37313  15.797  10.515   8.102
 2699POPC   C4A37314  15.888  10.386   7.704
 2699POPC   C1B37315  16.323  10.712   8.791
 2699POPC   C2B37316  16.311  10.820   8.324
 2699POPC   C3B37317  16.223  10.710   7.889
 2699POPC   C4B37318  16.205  10.705   7.412
 2700POPC   NC337319  41.634  31.825   9.847
 2700POPC   PO437320  41.571  31.191   9.611
 2700POPC   GL137321  41.477  31.454   9.234
 2700POPC   GL237322  41.629  31.775   9.260
 2700POPC   C1A37323  41.590  31.378   8.798
 2700POPC   D2A37324  41.749  31.598   8.436
 2700POPC   C3A37325  41.740  31.423   8.022
 2700POPC   C4A37326  41.339  31.297   7.881
 2700POPC   C1B37327  41.391  31.838   8.831
 2700POPC   C2B37328  41.274  31.727   8.395
 2700POPC   C3B37329  41.495  31.876   8.044
 2700POPC   C4B37330  41.381  32.041   7.658
 2701POPC   NC337331  23.845  40.356   9.525
 2701POPC   PO437332  23.389  39.880   9.602
 2701POPC   GL137333  23.654  40.000   9.202
 2701POPC   GL237334  23.602  40.309   9.078
 2701POPC   C1A37335  23.822  39.931   8.764
 2701POPC   D2A37336  24.081  40.128   8.460
 2701POPC   C3A37337  24.134  39.899   8.072
 2701POPC   C4A37338  23.864  39.805   7.717
 2701POPC   C1B37339  23.525  40.370   8.655
 2701POPC   C2B37340  23.677  40.334   8.221
 2701POPC   C3B37341  23.581  40.302   7.753
 2701POPC   C4B37342  23.341  40.262   7.349
 2702POPC   NC337343  10.839  42.127   9.468
 2702POPC   PO437344  11.469  42.318   9.533
 2702POPC   GL137345  11.392  42.227   9.144
 2702POPC   GL237346  11.645  42.037   8.971
 2702POPC   C1A37347  11.160  42.383   8.777
 2702POPC   D2A37348  11.341  42.422   8.374
 2702POPC   C3A37349  11.172  42.414   7.987
 2702POPC   C4A37350  11.455  42.273   7.738
 2702POPC   C1B37351  11.638  42.513   8.806
 2702POPC   C2B37352  11.724  42.731   8.407
 2702POPC   C3B37353  11.524  42.776   7.994
 2702POPC   C4B37354  11.659  42.698   7.550
 2703POPC   NC337355  33.228  12.309   9.336
 2703POPC   PO437356  32.655  11.861   9.507
 2703POPC   GL137357  32.819  12.050   9.147
 2703POPC   GL237358  33.106  11.846   9.063
 2703POPC   C1A37359  32.878  12.097   8.704
 2703POPC   D2A37360  32.738  11.931   8.312
 2703POPC   C3A37361  32.991  11.998   7.942
 2703POPC   C4A37362  33.132  12.197   7.551
 2703POPC   C1B37363  33.385  11.938   8.696
 2703POPC   C2B37364  33.581  11.952   8.249
 2703POPC   C3B37365  33.510  11.934   7.774
 2703POPC   C4B37366  33.580  12.039   7.314
 2704POPC   NC337367   3.684  44.559   9.577
 2704POPC   PO437368   3.046  44.725   9.526
 2704POPC   GL137369   3.344  44.600   9.184
 2704POPC   GL237370   3.716  44.582   9.092
 2704POPC   C1A37371   3.399  44.762   8.757
 2704POPC   D2A37372   3.451  44.517   8.406
 2704POPC   C3A37373   3.585  44.653   8.003
 2704POPC   C4A37374   3.756  44.435   7.726
 2704POPC   C1B37375   3.879  44.517   8.716
 2704POPC   C2B37376   3.935  44.730   8.370
 2704POPC   C3B37377   4.121  44.660   8.021
 2704POPC   C4B37378   3.982  44.885   7.686
 2705POPC   NC337379  30.477  34.584   9.584
 2705POPC   PO437380  30.824  35.066   9.362
 2705POPC   GL137381  30.837  34.671   9.176
 2705POPC   GL237382  30.540  34.505   9.089
 2705POPC   C1A37383  30.994  34.441   8.866
 2705POPC   D2A37384  30.750  34.580   8.504
 2705POPC   C3A37385  30.902  34.514   8.123
 2705POPC   C4A37386  30.691  34.511   7.777
 2705POPC   C1B37387  30.549  34.181   8.746
 2705POPC   C2B37388  30.559  33.933   8.385
 2705POPC   C3B37389  30.490  34.094   7.971
 2705POPC   C4B37390  30.312  34.242   7.563
 2706POPC   NC337391  28.746   5.089   9.489
 2706POPC   PO437392  28.137   5.301   9.648
 2706POPC   GL137393  28.187   5.291   9.225
 2706POPC   GL237394  28.014   5.002   9.141
 2706POPC   C1A37395  28.423   5.250   8.839
 2706POPC   D2A37396  28.398   5.053   8.421
 2706POPC   C3A37397  28.475   5.309   8.070
 2706POPC   C4A37398  28.551   5.135   7.694
 2706POPC   C1B37399  27.965   5.091   8.690
 2706POPC   C2B37400  27.913   5.148   8.268
 2706POPC   C3B37401  28.046   5.100   7.889
 2706POPC   C4B37402  28.088   4.746   7.699
 2707POPC   NC337403  17.635   5.385   9.377
 2707POPC   PO437404  17.005   5.279   9.538
 2707POPC   GL137405  17.209   5.118   9.194
 2707POPC   GL237406  17.513   4.873   9.255
 2707POPC   C1A37407  17.365   5.249   8.793
 2707POPC   D2A37408  17.537   5.136   8.430
 2707POPC   C3A37409  17.595   5.344   8.093
 2707POPC   C4A37410  17.600   5.113   7.699
 2707POPC   C1B37411  17.306   4.738   8.873
 2707POPC   C2B37412  17.441   4.645   8.463
 2707POPC   C3B37413  17.601   4.761   8.064
 2707POPC   C4B37414  17.317   4.653   7.714
 2708POPC   NC337415   0.832  37.470   9.451
 2708POPC   PO437416   1.194  36.916   9.586
 2708POPC   GL137417   1.171  37.137   9.232
 2708POPC   GL237418   1.118  36.811   9.077
 2708POPC   C1A37419   1.107  37.231   8.805
 2708POPC   D2A37420   1.107  36.901   8.517
 2708POPC   C3A37421   1.169  37.049   8.106
 2708POPC   C4A37422   1.075  36.864   7.724
 2708POPC   C1B37423   1.515  36.719   8.883
 2708POPC   C2B37424   1.661  36.404   8.589
 2708POPC   C3B37425   1.399  36.421   8.251
 2708POPC   C4B37426   1.427  36.496   7.814
 2709POPC   NC337427   7.852  43.242   9.429
 2709POPC   PO437428   8.469  43.091   9.332
 2709POPC   GL137429   8.175  43.066   9.065
 2709POPC   GL237430   7.952  42.787   9.159
 2709POPC   C1A37431   8.254  43.264   8.688
 2709POPC   D2A37432   8.566  43.338   8.397
 2709POPC   C3A37433   8.365  43.342   8.027
 2709POPC   C4A37434   8.179  43.135   7.742
 2709POPC   C1B37435   7.925  42.862   8.686
 2709POPC   C2B37436   8.045  42.944   8.234
 2709POPC   C3B37437   7.920  42.738   7.850
 2709POPC   C4B37438   7.925  42.801   7.370
 2710POPC   NC337439  44.013  24.983   9.646
 2710POPC   PO437440  43.955  24.361   9.711
 2710POPC   GL137441  44.103  24.562   9.304
 2710POPC   GL237442  43.970  24.314   9.075
 2710POPC   C1A37443  44.089  24.744   8.866
 2710POPC   D2A37444  43.859  24.914   8.516
 2710POPC   C3A37445  43.954  24.763   8.107
 2710POPC   C4A37446  44.073  24.649   7.698
 2710POPC   C1B37447  43.779  24.106   8.722
 2710POPC   C2B37448  43.722  23.998   8.315
 2710POPC   C3B37449  43.693  24.233   7.972
 2710POPC   C4B37450  43.891  24.196   7.610
 2711POPC   NC337451  28.829  37.620   9.425
 2711POPC   PO437452  29.445  37.432   9.543
 2711POPC   GL137453  29.319  37.694   9.176
 2711POPC   GL237454  29.583  37.957   9.066
 2711POPC   C1A37455  29.047  37.567   8.793
 2711POPC   D2A37456  29.139  37.451   8.365
 2711POPC   C3A37457  28.934  37.657   7.996
 2711POPC   C4A37458  29.160  37.735   7.589
 2711POPC   C1B37459  29.291  38.015   8.747
 2711POPC   C2B37460  29.075  37.981   8.381
 2711POPC   C3B37461  29.273  38.023   7.992
 2711POPC   C4B37462  29.688  37.963   7.863
 2712POPC   NC337463   4.604  11.883   9.517
 2712POPC   PO437464   4.006  12.125   9.718
 2712POPC   GL137465   4.193  12.094   9.251
 2712POPC   GL237466   4.282  11.810   9.158
 2712POPC   C1A37467   4.423  12.196   8.814
 2712POPC   D2A37468   4.263  12.232   8.379
 2712POPC   C3A37469   4.436  12.107   7.998
 2712POPC   C4A37470   4.249  12.150   7.580
 2712POPC   C1B37471   4.348  11.711   8.784
 2712POPC   C2B37472   4.322  11.693   8.379
 2712POPC   C3B37473   4.614  11.633   8.055
 2712POPC   C4B37474   4.489  11.708   7.657
 2713POPC   NC337475   0.749   4.551   9.573
 2713POPC   PO437476   0.144   4.276   9.563
 2713POPC   GL137477   0.383   4.367   9.163
 2713POPC   GL237478   0.668   4.605   9.096
 2713POPC   C1A37479   0.436   4.217   8.736
 2713POPC   D2A37480   0.549   4.040   8.338
 2713POPC   C3A37481   0.472   4.217   7.911
 2713POPC   C4A37482   0.627   3.999   7.557
 2713POPC   C1B37483   0.458   4.723   8.760
 2713POPC   C2B37484   0.179   4.636   8.423
 2713POPC   C3B37485   0.296   4.711   7.994
 2713POPC   C4B37486   0.677   4.679   7.741
 2714POPC   NC337487  28.520  24.964   9.585
 2714POPC   PO437488  28.189  25.490   9.422
 2714POPC   GL137489  28.317  25.143   9.151
 2714POPC   GL237490  28.672  25.042   9.105
 2714POPC   C1A37491  28.292  25.073   8.723
 2714POPC   D2A37492  28.137  25.397   8.453
 2714POPC   C3A37493  28.236  25.267   8.035
 2714POPC   C4A37494  28.176  25.461   7.665
 2714POPC   C1B37495  28.670  25.411   8.799
 2714POPC   C2B37496  28.623  25.470   8.329
 2714POPC   C3B37497  28.788  25.284   7.928
 2714POPC   C4B37498  28.706  25.083   7.500
 2715POPC   NC337499  28.690  44.938  10.038
 2715POPC   PO437500  28.190  44.695   9.603
 2715POPC   GL137501  28.397  44.549   9.171
 2715POPC   GL237502  28.593  44.216   9.168
 2715POPC   C1A37503  28.504  44.690   8.760
 2715POPC   D2A37504  28.617  44.966   8.428
 2715POPC   C3A37505  28.535  44.798   8.005
 2715POPC   C4A37506  28.566  44.978   7.562
 2715POPC   C1B37507  28.426  44.183   8.767
 2715POPC   C2B37508  28.349  44.373   8.363
 2715POPC   C3B37509  28.530  44.288   7.950
 2715POPC   C4B37510  28.385  44.469   7.569
 2716POPC   NC337511  31.794  20.792   9.662
 2716POPC   PO437512  31.277  20.418   9.519
 2716POPC   GL137513  31.500  20.674   9.232
 2716POPC   GL237514  31.830  20.586   9.191
 2716POPC   C1A37515  31.556  20.822   8.822
 2716POPC   D2A37516  31.370  20.843   8.408
 2716POPC   C3A37517  31.641  20.868   8.081
 2716POPC   C4A37518  31.666  20.714   7.722
 2716POPC   C1B37519  31.904  20.386   8.821
 2716POPC   C2B37520  31.808  20.558   8.442
 2716POPC   C3B37521  31.822  20.348   8.026
 2716POPC   C4B37522  31.960  20.326   7.592
 2717POPC   NC337523  19.529  38.086   9.926
 2717POPC   PO437524  19.886  37.802   9.474
 2717POPC   GL137525  19.961  37.638   9.121
 2717POPC   GL237526  19.640  37.502   9.020
 2717POPC   C1A37527  19.957  37.794   8.733
 2717POPC   D2A37528  20.004  37.626   8.362
 2717POPC   C3A37529  19.824  37.757   8.007
 2717POPC   C4A37530  19.884  37.607   7.641
 2717POPC   C1B37531  19.626  37.400   8.620
 2717POPC   C2B37532  19.473  37.473   8.245
 2717POPC   C3B37533  19.511  37.346   7.824
 2717POPC   C4B37534  19.500  37.270   7.385
 2718POPC   NC337535  28.796  31.851   9.432
 2718POPC   PO437536  29.201  32.347   9.495
 2718POPC   GL137537  29.168  32.084   9.134
 2718POPC   GL237538  28.844  32.258   9.119
 2718POPC   C1A37539  29.295  31.986   8.695
 2718POPC   D2A37540  29.222  32.199   8.285
 2718POPC   C3A37541  29.167  31.927   7.913
 2718POPC   C4A37542  29.151  31.966   7.455
 2718POPC   C1B37543  28.952  32.413   8.725
 2718POPC   C2B37544  28.719  32.418   8.344
 2718POPC   C3B37545  28.893  32.479   7.942
 2718POPC   C4B37546  28.740  32.253   7.600
 2719POPC   NC337547  33.387  44.429   9.488
 2719POPC   PO437548  33.986  44.203   9.471
 2719POPC   GL137549  33.788  44.470   9.136
 2719POPC   GL237550  33.517  44.711   9.114
 2719POPC   C1A37551  33.689  44.386   8.709
 2719POPC   D2A37552  33.901  44.351   8.319
 2719POPC   C3A37553  33.711  44.266   7.947
 2719POPC   C4A37554  33.923  44.461   7.601
 2719POPC   C1B37555  33.581  44.882   8.758
 2719POPC   C2B37556  33.843  44.831   8.452
 2719POPC   C3B37557  33.770  44.778   8.033
 2719POPC   C4B37558  34.017  44.955   7.762
 2720POPC   NC337559   2.489  41.216   9.386
 2720POPC   PO437560   2.785  41.685   9.723
 2720POPC   GL137561   2.731  41.712   9.226
 2720POPC   GL237562   3.017  41.817   9.038
 2720POPC   C1A37563   2.702  41.491   8.798
 2720POPC   D2A37564   2.480  41.486   8.389
 2720POPC   C3A37565   2.605  41.450   7.950
 2720POPC   C4A37566   2.928  41.200   7.718
 2720POPC   C1B37567   2.692  42.020   8.778
 2720POPC   C2B37568   2.529  41.999   8.361
 2720POPC   C3B37569   2.807  41.914   8.022
 2720POPC   C4B37570   3.031  41.986   7.645
 2721POPC   NC337571  14.316  29.240   9.558
 2721POPC   PO437572  14.903  29.236   9.413
 2721POPC   GL137573  14.557  29.218   9.101
 2721POPC   GL237574  14.341  28.889   9.153
 2721POPC   C1A37575  14.247  29.281   8.749
 2721POPC   D2A37576  14.010  29.372   8.342
 2721POPC   C3A37577  14.183  29.225   7.941
 2721POPC   C4A37578  14.555  29.387   7.781
 2721POPC   C1B37579  14.559  28.859   8.740
 2721POPC   C2B37580  14.471  29.013   8.322
 2721POPC   C3B37581  14.536  28.847   7.896
 2721POPC   C4B37582  14.171  28.757   7.644
 2722POPC   NC337583  23.714  39.584   9.458
 2722POPC   PO437584  23.478  39.017   9.384
 2722POPC   GL137585  23.525  39.161   9.009
 2722POPC   GL237586  23.826  39.298   9.060
 2722POPC   C1A37587  23.531  39.495   8.700
 2722POPC   D2A37588  23.762  39.589   8.314
 2722POPC   C3A37589  23.532  39.408   7.913
 2722POPC   C4A37590  23.425  39.358   7.458
 2722POPC   C1B37591  23.989  39.245   8.654
 2722POPC   C2B37592  23.904  39.109   8.226
 2722POPC   C3B37593  24.018  39.264   7.818
 2722POPC   C4B37594  23.841  39.006   7.497
 2723POPC   NC337595   0.026  23.409   9.551
 2723POPC   PO437596  44.436  23.695   9.624
 2723POPC   GL137597  44.729  23.727   9.282
 2723POPC   GL237598  44.525  23.539   9.062
 2723POPC   C1A37599  44.999  23.511   8.910
 2723POPC   D2A37600  44.906  23.451   8.488
 2723POPC   C3A37601  44.989  23.606   8.073
 2723POPC   C4A37602  44.685  23.500   7.720
 2723POPC   C1B37603  44.734  23.926   8.831
 2723POPC   C2B37604  44.750  23.947   8.409
 2723POPC   C3B37605  44.590  23.928   7.996
 2723POPC   C4B37606  44.763  23.975   7.562
 2724POPC   NC337607  16.079  34.050   9.586
 2724POPC   PO437608  16.046  33.414   9.559
 2724POPC   GL137609  15.934  33.716   9.202
 2724POPC   GL237610  16.209  33.942   9.096
 2724POPC   C1A37611  15.833  33.912   8.777
 2724POPC   D2A37612  16.062  33.867   8.418
 2724POPC   C3A37613  15.880  33.989   8.027
 2724POPC   C4A37614  15.737  33.830   7.671
 2724POPC   C1B37615  16.319  33.580   8.821
 2724POPC   C2B37616  16.426  33.512   8.384
 2724POPC   C3B37617  16.314  33.688   7.996
 2724POPC   C4B37618  16.282  33.743   7.577
 2725POPC   NC337619  20.418   0.138   9.542
 2725POPC   PO437620  20.745   0.713   9.450
 2725POPC   GL137621  20.716   0.451   9.146
 2725POPC   GL237622  20.372   0.434   9.136
 2725POPC   C1A37623  20.876   0.419   8.731
 2725POPC   D2A37624  20.662   0.427   8.357
 2725POPC   C3A37625  20.820   0.491   8.028
 2725POPC   C4A37626  20.671   0.505   7.648
 2725POPC   C1B37627  20.373   0.296   8.748
 2725POPC   C2B37628  20.171   0.406   8.400
 2725POPC   C3B37629  20.270   0.456   7.973
 2725POPC   C4B37630  20.122   0.794   7.719
 2726POPC   NC337631  11.807  17.276   9.324
 2726POPC   PO437632  12.281  17.734   9.355
 2726POPC   GL137633  12.074  17.582   9.001
 2726POPC   GL237634  11.752  17.714   9.050
 2726POPC   C1A37635  12.008  17.408   8.594
 2726POPC   D2A37636  12.062  17.657   8.213
 2726POPC   C3A37637  12.259  17.439   7.839
 2726POPC   C4A37638  12.477  17.286   7.479
 2726POPC   C1B37639  11.622  17.779   8.622
 2726POPC   C2B37640  11.578  17.489   8.276
 2726POPC   C3B37641  11.746  17.494   7.868
 2726POPC   C4B37642  11.957  17.789   7.623
 2727POPC   NC337643  11.200  14.361   9.551
 2727POPC   PO437644  11.862  14.393   9.538
 2727POPC   GL137645  11.570  14.322   9.159
 2727POPC   GL237646  11.294  14.598   9.119
 2727POPC   C1A37647  11.537  14.454   8.715
 2727POPC   D2A37648  11.240  14.604   8.421
 2727POPC   C3A37649  11.304  14.416   7.994
 2727POPC   C4A37650  11.590  14.649   7.756
 2727POPC   C1B37651  11.064  14.314   8.845
 2727POPC   C2B37652  11.049  14.153   8.400
 2727POPC   C3B37653  10.818  14.440   8.118
 2727POPC   C4B37654  10.762  14.324   7.688
 2728POPC   NC337655  29.540  36.223   9.548
 2728POPC   PO437656  28.830  36.057   9.472
 2728POPC   GL137657  29.104  36.057   9.140
 2728POPC   GL237658  29.189  36.393   9.199
 2728POPC   C1A37659  28.905  35.900   8.766
 2728POPC   D2A37660  28.810  35.704   8.372
 2728POPC   C3A37661  29.018  35.911   8.061
 2728POPC   C4A37662  29.012  35.937   7.611
 2728POPC   C1B37663  28.953  36.470   8.817
 2728POPC   C2B37664  28.877  36.303   8.397
 2728POPC   C3B37665  29.077  36.402   7.990
 2728POPC   C4B37666  29.165  36.397   7.549
 2729POPC   NC337667  26.611  38.505   9.752
 2729POPC   PO437668  25.911  38.397   9.510
 2729POPC   GL137669  25.795  38.335   9.123
 2729POPC   GL237670  26.115  38.308   9.012
 2729POPC   C1A37671  25.660  38.602   8.788
 2729POPC   D2A37672  25.790  38.694   8.372
 2729POPC   C3A37673  25.576  38.505   8.014
 2729POPC   C4A37674  25.772  38.596   7.632
 2729POPC   C1B37675  26.063  38.332   8.605
 2729POPC   C2B37676  26.276  38.296   8.266
 2729POPC   C3B37677  26.257  38.063   7.913
 2729POPC   C4B37678  26.218  38.357   7.639
 2730POPC   NC337679   3.198   4.555   9.512
 2730POPC   PO437680   3.793   4.247   9.489
 2730POPC   GL137681   3.842   4.371   9.084
 2730POPC   GL237682   3.484   4.341   9.072
 2730POPC   C1A37683   3.766   4.334   8.634
 2730POPC   D2A37684   3.443   4.334   8.306
 2730POPC   C3A37685   3.671   4.246   7.928
 2730POPC   C4A37686   3.639   4.069   7.511
 2730POPC   C1B37687   3.340   4.605   8.750
 2730POPC   C2B37688   3.313   4.808   8.350
 2730POPC   C3B37689   3.511   4.749   7.955
 2730POPC   C4B37690   3.326   4.811   7.524
 2731POPC   NC337691  18.251  13.817   9.684
 2731POPC   PO437692  18.279  13.246   9.500
 2731POPC   GL137693  18.134  13.479   9.104
 2731POPC   GL237694  18.216  13.833   9.147
 2731POPC   C1A37695  18.173  13.588   8.635
 2731POPC   D2A37696  18.196  13.332   8.247
 2731POPC   C3A37697  18.167  13.395   7.794
 2731POPC   C4A37698  18.514  13.382   7.465
 2731POPC   C1B37699  18.408  14.019   8.772
 2731POPC   C2B37700  18.559  13.869   8.352
 2731POPC   C3B37701  18.334  13.844   7.953
 2731POPC   C4B37702  18.286  13.821   7.470
 2732POPC   NC337703  41.943   5.271   9.557
 2732POPC   PO437704  42.452   4.856   9.565
 2732POPC   GL137705  42.482   5.038   9.139
 2732POPC   GL237706  42.221   5.307   9.134
 2732POPC   C1A37707  42.467   5.145   8.692
 2732POPC   D2A37708  42.143   5.297   8.392
 2732POPC   C3A37709  42.340   5.328   7.997
 2732POPC   C4A37710  42.626   5.042   7.836
 2732POPC   C1B37711  42.028   4.961   8.890
 2732POPC   C2B37712  41.882   4.862   8.488
 2732POPC   C3B37713  42.076   4.863   8.101
 2732POPC   C4B37714  41.961   5.065   7.771
 2733POPC   NC337715  19.543   9.825   9.720
 2733POPC   PO437716  19.005   9.433   9.517
 2733POPC   GL137717  18.940   9.679   9.153
 2733POPC   GL237718  19.218   9.513   9.038
 2733POPC   C1A37719  18.925   9.784   8.700
 2733POPC   D2A37720  19.174   9.797   8.323
 2733POPC   C3A37721  18.952   9.981   7.964
 2733POPC   C4A37722  18.681   9.942   7.607
 2733POPC   C1B37723  19.404   9.396   8.659
 2733POPC   C2B37724  19.489   9.412   8.212
 2733POPC   C3B37725  19.194   9.513   7.841
 2733POPC   C4B37726  19.373   9.523   7.362
 2734POPC   NC337727  30.546   3.694   9.379
 2734POPC   PO437728  31.018   3.424   9.479
 2734POPC   GL137729  30.891   3.537   9.040
 2734POPC   GL237730  30.558   3.672   8.867
 2734POPC   C1A37731  30.924   3.391   8.636
 2734POPC   D2A37732  30.540   3.345   8.386
 2734POPC   C3A37733  30.568   3.335   7.947
 2734POPC   C4A37734  30.826   3.472   7.687
 2734POPC   C1B37735  30.858   3.910   8.589
 2734POPC   C2B37736  31.113   4.052   8.218
 2734POPC   C3B37737  30.887   3.965   7.797
 2734POPC   C4B37738  30.440   3.803   7.640
 2735POPC   NC337739  13.495  10.563   9.585
 2735POPC   PO437740  13.829  10.014   9.422
 2735POPC   GL137741  13.630  10.292   9.178
 2735POPC   GL237742  13.830  10.215   8.948
 2735POPC   C1A37743  13.545  10.636   8.869
 2735POPC   D2A37744  13.702  10.633   8.448
 2735POPC   C3A37745  13.511  10.478   8.093
 2735POPC   C4A37746  13.542  10.631   7.691
 2735POPC   C1B37747  13.736   9.965   8.614
 2735POPC   C2B37748  13.894  10.172   8.297
 2735POPC   C3B37749  14.045  10.117   7.911
 2735POPC   C4B37750  13.976  10.361   7.595
 2736POPC   NC337751  42.031  14.771   9.494
 2736POPC   PO437752  42.405  15.408   9.699
 2736POPC   GL137753  42.212  15.215   9.266
 2736POPC   GL237754  42.367  14.925   9.125
 2736POPC   C1A37755  42.148  15.234   8.778
 2736POPC   D2A37756  42.414  15.400   8.403
 2736POPC   C3A37757  42.259  15.444   7.982
 2736POPC   C4A37758  42.106  15.321   7.568
 2736POPC   C1B37759  42.642  15.223   8.830
 2736POPC   C2B37760  42.801  15.080   8.425
 2736POPC   C3B37761  42.597  15.061   8.042
 2736POPC   C4B37762  42.631  15.310   7.660
 2737POPC   NC337763   0.944  21.115   9.566
 2737POPC   PO437764   1.528  21.375   9.806
 2737POPC   GL137765   1.484  21.301   9.318
 2737POPC   GL237766   1.144  21.390   9.182
 2737POPC   C1A37767   1.526  21.423   8.859
 2737POPC   D2A37768   1.234  21.532   8.529
 2737POPC   C3A37769   1.290  21.517   8.133
 2737POPC   C4A37770   1.366  21.204   7.845
 2737POPC   C1B37771   0.970  21.219   8.793
 2737POPC   C2B37772   0.824  21.226   8.315
 2737POPC   C3B37773   0.835  21.470   7.888
 2737POPC   C4B37774   1.151  21.778   7.715
 2738POPC   NC337775   4.640  29.981   9.812
 2738POPC   PO437776   5.069  29.606   9.354
 2738POPC   GL137777   5.036  29.914   9.090
 2738POPC   GL237778   5.368  29.906   9.041
 2738POPC   C1A37779   4.747  30.056   8.724
 2738POPC   D2A37780   4.561  30.069   8.321
 2738POPC   C3A37781   4.898  30.039   8.037
 2738POPC   C4A37782   5.342  30.194   7.938
 2738POPC   C1B37783   5.166  29.751   8.656
 2738POPC   C2B37784   5.285  29.698   8.280
 2738POPC   C3B37785   5.188  29.603   7.939
 2738POPC   C4B37786   5.406  29.522   7.600
 2739POPC   NC337787  36.695  44.870   9.562
 2739POPC   PO437788  37.318   0.120   9.555
 2739POPC   GL137789  37.164  44.891   9.172
 2739POPC   GL237790  36.822  44.768   9.098
 2739POPC   C1A37791  37.253  44.635   8.807
 2739POPC   D2A37792  37.240  44.805   8.389
 2739POPC   C3A37793  37.153  44.530   8.050
 2739POPC   C4A37794  36.835  44.510   7.721
 2739POPC   C1B37795  36.834  44.908   8.718
 2739POPC   C2B37796  36.748  44.688   8.372
 2739POPC   C3B37797  36.837  44.926   8.022
 2739POPC   C4B37798  36.771   0.045   7.616
 2740POPC   NC337799  37.592   7.045   9.510
 2740POPC   PO437800  37.891   7.641   9.352
 2740POPC   GL137801  37.542   7.445   9.143
 2740POPC   GL237802  37.318   7.722   9.023
 2740POPC   C1A37803  37.492   7.172   8.751
 2740POPC   D2A37804  37.281   7.126   8.301
 2740POPC   C3A37805  37.599   7.184   7.966
 2740POPC   C4A37806  37.920   7.479   7.903
 2740POPC   C1B37807  37.703   7.692   8.730
 2740POPC   C2B37808  37.822   7.414   8.420
 2740POPC   C3B37809  37.499   7.598   8.203
 2740POPC   C4B37810  37.436   7.755   7.822
 2741POPC   NC337811  13.540  34.332   9.804
 2741POPC   PO437812  13.462  34.860   9.810
 2741POPC   GL137813  13.553  34.695   9.325
 2741POPC   GL237814  13.660  34.346   9.181
 2741POPC   C1A37815  13.676  34.729   8.833
 2741POPC   D2A37816  13.875  34.596   8.418
 2741POPC   C3A37817  13.685  34.676   8.000
 2741POPC   C4A37818  13.418  34.432   7.730
 2741POPC   C1B37819  13.782  34.183   8.719
 2741POPC   C2B37820  13.806  34.051   8.234
 2741POPC   C3B37821  13.821  33.962   7.763
 2741POPC   C4B37822  13.832  33.957   7.294
 2742POPC   NC337823  16.945  32.753   9.543
 2742POPC   PO437824  16.342  32.736   9.217
 2742POPC   GL137825  16.554  32.970   8.977
 2742POPC   GL237826  16.893  32.968   9.071
 2742POPC   C1A37827  16.496  33.024   8.562
 2742POPC   D2A37828  16.783  33.166   8.267
 2742POPC   C3A37829  16.543  33.141   7.892
 2742POPC   C4A37830  16.537  32.689   7.783
 2742POPC   C1B37831  16.990  32.859   8.668
 2742POPC   C2B37832  17.205  32.837   8.283
 2742POPC   C3B37833  16.988  32.876   7.891
 2742POPC   C4B37834  17.038  32.621   7.562
 2743POPC   NC337835  38.961  29.168   9.590
 2743POPC   PO437836  39.570  29.449   9.491
 2743POPC   GL137837  39.315  29.137   9.220
 2743POPC   GL237838  38.957  29.237   9.093
 2743POPC   C1A37839  39.155  28.857   8.845
 2743POPC   D2A37840  38.987  29.061   8.451
 2743POPC   C3A37841  39.061  28.813   8.056
 2743POPC   C4A37842  39.190  28.965   7.643
 2743POPC   C1B37843  39.264  29.447   8.827
 2743POPC   C2B37844  39.407  29.412   8.411
 2743POPC   C3B37845  39.173  29.342   8.019
 2743POPC   C4B37846  38.791  29.474   7.811
 2744POPC   NC337847  18.782  18.014   9.410
 2744POPC   PO437848  19.395  17.579   9.372
 2744POPC   GL137849  19.141  17.538   9.032
 2744POPC   GL237850  19.133  17.923   9.055
 2744POPC   C1A37851  19.055  17.340   8.599
 2744POPC   D2A37852  18.793  17.618   8.353
 2744POPC   C3A37853  18.896  17.589   7.963
 2744POPC   C4A37854  18.940  17.422   7.625
 2744POPC   C1B37855  19.201  17.853   8.633
 2744POPC   C2B37856  19.296  17.779   8.229
 2744POPC   C3B37857  19.205  17.969   7.860
 2744POPC   C4B37858  18.952  17.912   7.510
 2745POPC   NC337859  41.202  31.057   9.389
 2745POPC   PO437860  40.573  30.810   9.492
 2745POPC   GL137861  40.834  30.756   9.138
 2745POPC   GL237862  41.156  30.609   9.114
 2745POPC   C1A37863  40.897  30.837   8.712
 2745POPC   D2A37864  41.123  30.656   8.374
 2745POPC   C3A37865  41.036  30.826   7.976
 2745POPC   C4A37866  40.698  30.930   7.710
 2745POPC   C1B37867  40.944  30.340   8.818
 2745POPC   C2B37868  40.935  30.139   8.420
 2745POPC   C3B37869  40.854  30.324   8.040
 2745POPC   C4B37870  40.905  30.457   7.643
 2746POPC   NC337871  34.242   6.739   9.647
 2746POPC   PO437872  34.863   6.582   9.613
 2746POPC   GL137873  34.740   6.816   9.237
 2746POPC   GL237874  35.043   6.935   9.140
 2746POPC   C1A37875  34.731   6.690   8.765
 2746POPC   D2A37876  34.884   6.514   8.346
 2746POPC   C3A37877  34.663   6.669   7.927
 2746POPC   C4A37878  34.225   6.633   7.759
 2746POPC   C1B37879  34.964   7.132   8.742
 2746POPC   C2B37880  34.827   7.020   8.321
 2746POPC   C3B37881  34.906   7.170   7.901
 2746POPC   C4B37882  34.940   6.890   7.530
 2747POPC   NC337883  24.484  26.348   9.450
 2747POPC   PO437884  24.310  27.005   9.569
 2747POPC   GL137885  24.336  26.799   9.207
 2747POPC   GL237886  24.686  26.809   9.159
 2747POPC   C1A37887  24.307  26.617   8.806
 2747POPC   D2A37888  24.474  26.733   8.422
 2747POPC   C3A37889  24.205  26.712   8.072
 2747POPC   C4A37890  24.235  26.533   7.672
 2747POPC   C1B37891  24.874  26.880   8.740
 2747POPC   C2B37892  24.909  26.971   8.302
 2747POPC   C3B37893  24.720  26.769   7.953
 2747POPC   C4B37894  24.662  26.748   7.520
 2748POPC   NC337895  21.033  16.644   9.576
 2748POPC   PO437896  20.359  16.705   9.533
 2748POPC   GL137897  20.447  16.441   9.181
 2748POPC   GL237898  20.133  16.296   9.041
 2748POPC   C1A37899  20.683  16.549   8.799
 2748POPC   D2A37900  20.855  16.775   8.435
 2748POPC   C3A37901  20.688  16.717   8.009
 2748POPC   C4A37902  20.620  17.004   7.680
 2748POPC   C1B37903  20.165  16.615   8.771
 2748POPC   C2B37904  20.284  16.675   8.381
 2748POPC   C3B37905  20.316  16.361   8.112
 2748POPC   C4B37906  20.366  16.423   7.693
 2749POPC   NC337907  21.541  34.339   9.581
 2749POPC   PO437908  21.050  34.747   9.533
 2749POPC   GL137909  21.305  34.533   9.180
 2749POPC   GL237910  21.636  34.657   9.190
 2749POPC   C1A37911  21.444  34.388   8.767
 2749POPC   D2A37912  21.286  34.438   8.331
 2749POPC   C3A37913  21.491  34.231   8.018
 2749POPC   C4A37914  21.195  34.230   7.685
 2749POPC   C1B37915  21.687  34.998   8.892
 2749POPC   C2B37916  21.510  34.865   8.538
 2749POPC   C3B37917  21.575  34.897   8.123
 2749POPC   C4B37918  21.398  34.696   7.796
 2750POPC   NC337919  39.846  11.634   9.282
 2750POPC   PO437920  39.517  12.182   9.450
 2750POPC   GL137921  39.750  12.152   9.083
 2750POPC   GL237922  40.105  12.131   9.099
 2750POPC   C1A37923  39.846  12.205   8.647
 2750POPC   D2A37924  39.872  12.419   8.265
 2750POPC   C3A37925  39.965  12.109   7.942
 2750POPC   C4A37926  40.065  11.780   7.627
 2750POPC   C1B37927  40.312  12.364   8.772
 2750POPC   C2B37928  40.294  12.168   8.352
 2750POPC   C3B37929  40.466  12.145   7.937
 2750POPC   C4B37930  40.628  12.442   7.694
 2751POPC   NC337931  21.280  17.487   9.662
 2751POPC   PO437932  21.038  16.984   9.246
 2751POPC   GL137933  21.292  17.310   9.169
 2751POPC   GL237934  21.222  17.668   9.193
 2751POPC   C1A37935  21.477  17.397   8.781
 2751POPC   D2A37936  21.713  17.285   8.440
 2751POPC   C3A37937  21.566  17.418   8.074
 2751POPC   C4A37938  21.221  17.378   7.847
 2751POPC   C1B37939  21.358  17.893   8.836
 2751POPC   C2B37940  21.475  17.833   8.418
 2751POPC   C3B37941  21.311  17.877   8.017
 2751POPC   C4B37942  21.039  17.812   7.655
 2752POPC   NC337943   7.015  21.305   9.868
 2752POPC   PO437944   7.713  21.425   9.735
 2752POPC   GL137945   7.734  21.240   9.290
 2752POPC   GL237946   7.400  21.125   9.188
 2752POPC   C1A37947   7.702  21.346   8.811
 2752POPC   D2A37948   7.504  21.336   8.397
 2752POPC   C3A37949   7.682  21.474   8.009
 2752POPC   C4A37950   7.517  21.445   7.582
 2752POPC   C1B37951   7.352  20.965   8.773
 2752POPC   C2B37952   7.246  20.897   8.329
 2752POPC   C3B37953   7.288  21.156   7.941
 2752POPC   C4B37954   7.017  21.333   7.593
 2753POPC   NC337955  42.242  36.724   9.490
 2753POPC   PO437956  42.250  37.309   9.412
 2753POPC   GL137957  42.120  37.107   9.031
 2753POPC   GL237958  42.257  36.766   8.997
 2753POPC   C1A37959  42.189  37.023   8.573
 2753POPC   D2A37960  42.217  36.686   8.260
 2753POPC   C3A37961  42.206  36.801   7.806
 2753POPC   C4A37962  42.169  37.028   7.407
 2753POPC   C1B37963  42.595  36.608   8.735
 2753POPC   C2B37964  42.684  36.440   8.317
 2753POPC   C3B37965  42.456  36.377   7.909
 2753POPC   C4B37966  42.456  36.542   7.452
 2754POPC   NC337967  41.978  21.528   9.476
 2754POPC   PO437968  42.265  20.958   9.623
 2754POPC   GL137969  42.433  21.200   9.256
 2754POPC   GL237970  42.524  21.546   9.347
 2754POPC   C1A37971  42.241  21.376   8.871
 2754POPC   D2A37972  42.080  21.298   8.455
 2754POPC   C3A37973  42.336  21.339   8.082
 2754POPC   C4A37974  42.281  21.636   7.748
 2754POPC   C1B37975  42.626  21.710   8.928
 2754POPC   C2B37976  42.528  21.602   8.488
 2754POPC   C3B37977  42.674  21.729   8.082
 2754POPC   C4B37978  42.775  21.825   7.675
 2755POPC   NC337979  38.902  12.703   9.802
 2755POPC   PO437980  39.485  12.874   9.483
 2755POPC   GL137981  39.487  12.989   9.058
 2755POPC   GL237982  39.326  12.645   9.002
 2755POPC   C1A37983  39.367  12.980   8.612
 2755POPC   D2A37984  39.357  12.601   8.364
 2755POPC   C3A37985  39.193  12.735   7.985
 2755POPC   C4A37986  39.355  13.014   7.639
 2755POPC   C1B37987  38.927  12.750   8.753
 2755POPC   C2B37988  38.909  12.952   8.344
 2755POPC   C3B37989  38.921  13.132   7.894
 2755POPC   C4B37990  38.876  12.896   7.455
 2756POPC   NC337991  30.485  41.497   9.459
 2756POPC   PO437992  31.098  41.181   9.420
 2756POPC   GL137993  30.864  41.414   9.102
 2756POPC   GL237994  30.709  41.732   9.059
 2756POPC   C1A37995  30.829  41.486   8.661
 2756POPC   D2A37996  30.710  41.429   8.275
 2756POPC   C3A37997  30.883  41.640   7.977
 2756POPC   C4A37998  30.680  41.428   7.656
 2756POPC   C1B37999  30.505  41.888   8.671
 2756POPC   C2B38000  30.373  41.811   8.240
 2756POPC   C3B38001  30.443  41.857   7.805
 2756POPC   C4B38002  30.353  41.914   7.350
 2757POPC   NC338003  14.963  30.704   9.395
 2757POPC   PO438004  15.564  30.579   9.736
 2757POPC   GL138005  15.433  30.506   9.307
 2757POPC   GL238006  15.603  30.755   9.198
 2757POPC   C1A38007  15.245  30.665   8.840
 2757POPC   D2A38008  14.941  30.524   8.509
 2757POPC   C3A38009  15.040  30.591   8.068
 2757POPC   C4A38010  14.931  30.892   7.750
 2757POPC   C1B38011  15.686  30.419   8.892
 2757POPC   C2B38012  15.400  30.270   8.566
 2757POPC   C3B38013  15.471  30.310   8.113
 2757POPC   C4B38014  15.498  30.578   7.780
 2758POPC   NC338015   1.866  15.768   9.468
 2758POPC   PO438016   1.974  16.397   9.494
 2758POPC   GL138017   1.949  16.154   9.138
 2758POPC   GL238018   2.242  15.940   9.143
 2758POPC   C1A38019   1.797  15.970   8.778
 2758POPC   D2A38020   1.996  16.011   8.385
 2758POPC   C3A38021   1.779  16.085   8.000
 2758POPC   C4A38022   1.693  15.833   7.636
 2758POPC   C1B38023   2.339  16.134   8.752
 2758POPC   C2B38024   2.523  16.109   8.360
 2758POPC   C3B38025   2.318  16.029   7.979
 2758POPC   C4B38026   2.127  16.311   7.703
 2759POPC   NC338027  19.989   1.927   9.587
 2759POPC   PO438028  19.491   2.201   9.254
 2759POPC   GL138029  19.907   2.108   9.121
 2759POPC   GL238030  19.965   1.782   9.087
 2759POPC   C1A38031  20.067   2.145   8.729
 2759POPC   D2A38032  20.072   2.358   8.351
 2759POPC   C3A38033  19.777   2.216   8.069
 2759POPC   C4A38034  19.751   2.083   7.666
 2759POPC   C1B38035  19.844   1.590   8.736
 2759POPC   C2B38036  19.804   1.808   8.380
 2759POPC   C3B38037  19.858   1.690   7.985
 2759POPC   C4B38038  19.592   1.536   7.708
 2760POPC   NC338039  41.879  43.825   9.580
 2760POPC   PO438040  41.430  44.206   9.284
 2760POPC   GL138041  41.613  43.862   9.075
 2760POPC   GL238042  41.837  43.580   9.131
 2760POPC   C1A38043  41.644  43.928   8.646
 2760POPC   D2A38044  41.886  44.061   8.314
 2760POPC   C3A38045  41.671  43.941   7.963
 2760POPC   C4A38046  41.469  43.855   7.569
 2760POPC   C1B38047  41.890  43.491   8.698
 2760POPC   C2B38048  41.798  43.541   8.245
 2760POPC   C3B38049  41.830  43.500   7.771
 2760POPC   C4B38050  41.947  43.445   7.311
 2761POPC   NC338051   7.074  44.701   9.678
 2761POPC   PO438052   6.448  44.366   9.486
 2761POPC   GL138053   6.625  44.585   9.144
 2761POPC   GL238054   6.919  44.383   9.146
 2761POPC   C1A38055   6.468  44.741   8.716
 2761POPC   D2A38056   6.290   0.056   8.373
 2761POPC   C3A38057   6.399  44.996   7.917
 2761POPC   C4A38058   6.459  44.553   7.805
 2761POPC   C1B38059   6.947  44.524   8.721
 2761POPC   C2B38060   6.751  44.556   8.308
 2761POPC   C3B38061   6.964  44.619   7.909
 2761POPC   C4B38062   6.898  44.402   7.505
 2762POPC   NC338063   3.538  27.443   9.897
 2762POPC   PO438064   3.210  28.055   9.655
 2762POPC   GL138065   3.460  27.887   9.209
 2762POPC   GL238066   3.466  27.507   9.183
 2762POPC   C1A38067   3.594  27.717   8.733
 2762POPC   D2A38068   3.348  27.607   8.332
 2762POPC   C3A38069   3.407  27.819   7.954
 2762POPC   C4A38070   3.820  27.839   7.836
 2762POPC   C1B38071   3.354  27.257   8.775
 2762POPC   C2B38072   3.516  27.130   8.346
 2762POPC   C3B38073   3.629  27.339   7.945
 2762POPC   C4B38074   3.359  27.426   7.595
 2763POPC   NC338075  23.526   2.606   9.472
 2763POPC   PO438076  24.141   2.973   9.445
 2763POPC   GL138077  23.837   2.791   9.135
 2763POPC   GL238078  23.885   2.428   9.150
 2763POPC   C1A38079  23.547   2.616   8.796
 2763POPC   D2A38080  23.522   2.851   8.414
 2763POPC   C3A38081  23.650   2.691   8.020
 2763POPC   C4A38082  23.521   2.637   7.604
 2763POPC   C1B38083  23.936   2.244   8.772
 2763POPC   C2B38084  23.828   2.370   8.378
 2763POPC   C3B38085  24.099   2.472   8.018
 2763POPC   C4B38086  23.983   2.433   7.590
 2764POPC   NC338087  15.617  34.805   9.710
 2764POPC   PO438088  16.089  35.046   9.401
 2764POPC   GL138089  16.214  35.066   8.990
 2764POPC   GL238090  15.868  35.118   8.868
 2764POPC   C1A38091  16.243  35.276   8.568
 2764POPC   D2A38092  15.882  35.247   8.271
 2764POPC   C3A38093  15.942  35.489   7.880
 2764POPC   C4A38094  15.868  35.605   7.444
 2764POPC   C1B38095  16.067  34.805   8.579
 2764POPC   C2B38096  16.188  34.859   8.155
 2764POPC   C3B38097  15.924  34.990   7.808
 2764POPC   C4B38098  15.803  35.097   7.388
 2765POPC   NC338099  19.904  14.852   9.642
 2765POPC   PO438100  20.155  15.433   9.449
 2765POPC   GL138101  19.884  15.269   9.183
 2765POPC   GL238102  19.753  14.960   9.181
 2765POPC   C1A38103  19.981  15.170   8.774
 2765POPC   D2A38104  20.005  15.372   8.390
 2765POPC   C3A38105  20.063  15.071   8.072
 2765POPC   C4A38106  19.927  15.180   7.707
 2765POPC   C1B38107  19.527  14.938   8.820
 2765POPC   C2B38108  19.681  14.972   8.403
 2765POPC   C3B38109  19.488  15.056   8.036
 2765POPC   C4B38110  19.503  14.885   7.663
 2766POPC   NC338111  10.515  18.478   9.476
 2766POPC   PO438112  10.567  17.866   9.215
 2766POPC   GL138113  10.581  18.248   8.963
 2766POPC   GL238114  10.609  18.618   9.003
 2766POPC   C1A38115  10.607  18.392   8.543
 2766POPC   D2A38116  10.795  18.514   8.182
 2766POPC   C3A38117  10.770  18.188   7.951
 2766POPC   C4A38118  10.692  18.031   7.566
 2766POPC   C1B38119  10.212  18.605   8.778
 2766POPC   C2B38120  10.086  18.288   8.501
 2766POPC   C3B38121  10.296  18.220   8.157
 2766POPC   C4B38122  10.270  18.227   7.737
 2767POPC   NC338123  27.797   4.982   9.635
 2767POPC   PO438124  27.557   5.620   9.742
 2767POPC   GL138125  27.665   5.366   9.310
 2767POPC   GL238126  27.487   5.002   9.219
 2767POPC   C1A38127  27.547   5.322   8.839
 2767POPC   D2A38128  27.461   5.043   8.469
 2767POPC   C3A38129  27.465   5.245   8.027
 2767POPC   C4A38130  27.713   5.427   7.667
 2767POPC   C1B38131  27.674   4.726   8.866
 2767POPC   C2B38132  27.665   4.579   8.412
 2767POPC   C3B38133  27.654   4.773   7.990
 2767POPC   C4B38134  27.534   4.958   7.563
 2768POPC   NC338135  27.322  29.672   9.496
 2768POPC   PO438136  27.778  30.106   9.517
 2768POPC   GL138137  27.483  30.025   9.160
 2768POPC   GL238138  27.488  29.670   9.004
 2768POPC   C1A38139  27.395  30.102   8.733
 2768POPC   D2A38140  27.520  29.973   8.337
 2768POPC   C3A38141  27.413  30.218   7.991
 2768POPC   C4A38142  27.274  30.032   7.623
 2768POPC   C1B38143  27.859  29.850   8.863
 2768POPC   C2B38144  28.012  29.933   8.492
 2768POPC   C3B38145  27.904  29.723   8.099
 2768POPC   C4B38146  27.783  29.958   7.745
 2769POPC   NC338147  42.769  27.116   9.480
 2769POPC   PO438148  43.345  27.619   9.712
 2769POPC   GL138149  43.205  27.803   9.239
 2769POPC   GL238150  42.832  27.811   9.099
 2769POPC   C1A38151  43.221  27.728   8.782
 2769POPC   D2A38152  43.054  27.759   8.372
 2769POPC   C3A38153  43.332  27.790   8.054
 2769POPC   C4A38154  43.415  27.564   7.733
 2769POPC   C1B38155  42.730  27.568   8.717
 2769POPC   C2B38156  42.729  27.328   8.309
 2769POPC   C3B38157  42.942  27.419   7.921
 2769POPC   C4B38158  42.973  27.567   7.491
 2770POPC   NC338159  42.879  27.998   9.590
 2770POPC   PO438160  43.262  28.525   9.493
 2770POPC   GL138161  43.047  28.609   9.133
 2770POPC   GL238162  42.857  28.313   9.166
 2770POPC   C1A38163  43.162  28.575   8.699
 2770POPC   D2A38164  43.281  28.351   8.340
 2770POPC   C3A38165  43.276  28.611   8.012
 2770POPC   C4A38166  43.183  28.431   7.641
 2770POPC   C1B38167  42.918  28.142   8.754
 2770POPC   C2B38168  42.786  28.240   8.378
 2770POPC   C3B38169  42.926  28.101   7.980
 2770POPC   C4B38170  42.830  28.074   7.561
 2771POPC   NC338171   6.960  10.347   9.366
 2771POPC   PO438172   6.283  10.449   9.489
 2771POPC   GL138173   6.462  10.533   9.116
 2771POPC   GL238174   6.580  10.908   9.155
 2771POPC   C1A38175   6.724  10.581   8.736
 2771POPC   D2A38176   6.943  10.756   8.390
 2771POPC   C3A38177   6.717  10.801   8.034
 2771POPC   C4A38178   6.572  10.502   7.736
 2771POPC   C1B38179   6.312  10.881   8.794
 2771POPC   C2B38180   6.319  10.665   8.415
 2771POPC   C3B38181   6.195  10.775   8.016
 2771POPC   C4B38182   6.152  10.780   7.595
 2772POPC   NC338183  39.949   9.576   9.431
 2772POPC   PO438184  39.700  10.219   9.351
 2772POPC   GL138185  39.823   9.875   8.998
 2772POPC   GL238186  39.771   9.489   8.995
 2772POPC   C1A38187  39.811   9.776   8.527
 2772POPC   D2A38188  39.583   9.555   8.169
 2772POPC   C3A38189  39.652   9.755   7.748
 2772POPC   C4A38190  39.539   9.651   7.288
 2772POPC   C1B38191  39.768   9.284   8.619
 2772POPC   C2B38192  40.041   9.338   8.281
 2772POPC   C3B38193  40.094   9.539   7.891
 2772POPC   C4B38194  39.811   9.271   7.720
 2773POPC   NC338195  31.103   8.128   9.535
 2773POPC   PO438196  31.722   7.874   9.358
 2773POPC   GL138197  31.524   8.276   9.248
 2773POPC   GL238198  31.739   8.431   9.046
 2773POPC   C1A38199  31.271   8.411   8.871
 2773POPC   D2A38200  31.263   8.181   8.452
 2773POPC   C3A38201  31.387   8.409   8.071
 2773POPC   C4A38202  31.779   8.435   7.874
 2773POPC   C1B38203  31.710   8.176   8.712
 2773POPC   C2B38204  31.783   8.121   8.290
 2773POPC   C3B38205  31.584   7.943   7.923
 2773POPC   C4B38206  31.651   7.742   7.503
 2774POPC   NC338207   1.350  37.357   9.673
 2774POPC   PO438208   1.062  37.873   9.320
 2774POPC   GL138209   1.261  37.734   9.002
 2774POPC   GL238210   1.557  37.940   8.952
 2774POPC   C1A38211   1.032  37.703   8.622
 2774POPC   D2A38212   0.878  37.406   8.363
 2774POPC   C3A38213   0.911  37.596   7.993
 2774POPC   C4A38214   0.938  37.945   7.764
 2774POPC   C1B38215   1.603  37.646   8.625
 2774POPC   C2B38216   1.390  37.507   8.240
 2774POPC   C3B38217   1.348  37.445   7.784
 2774POPC   C4B38218   1.404  37.748   7.461
 2775POPC   NC338219  12.133  14.769   9.618
 2775POPC   PO438220  11.939  15.377   9.377
 2775POPC   GL138221  12.202  15.091   9.169
 2775POPC   GL238222  11.947  15.136   8.905
 2775POPC   C1A38223  12.397  14.939   8.776
 2775POPC   D2A38224  12.598  15.098   8.362
 2775POPC   C3A38225  12.277  15.025   8.037
 2775POPC   C4A38226  11.897  15.056   7.743
 2775POPC   C1B38227  11.691  15.447   8.655
 2775POPC   C2B38228  11.586  15.411   8.192
 2775POPC   C3B38229  11.701  15.549   7.765
 2775POPC   C4B38230  11.562  15.439   7.336
 2776POPC   NC338231  16.902   9.389   9.558
 2776POPC   PO438232  16.755   8.724   9.425
 2776POPC   GL138233  16.673   8.952   9.098
 2776POPC   GL238234  16.971   9.112   9.102
 2776POPC   C1A38235  16.690   8.818   8.689
 2776POPC   D2A38236  16.880   8.872   8.310
 2776POPC   C3A38237  16.594   8.966   7.977
 2776POPC   C4A38238  16.315   8.609   7.885
 2776POPC   C1B38239  17.154   9.435   8.823
 2776POPC   C2B38240  17.015   9.622   8.412
 2776POPC   C3B38241  16.919   9.467   7.988
 2776POPC   C4B38242  16.957   9.370   7.545
 2777POPC   NC338243  24.165   3.425   9.576
 2777POPC   PO438244  23.560   3.786   9.494
 2777POPC   GL138245  23.886   3.679   9.236
 2777POPC   GL238246  23.856   3.317   9.134
 2777POPC   C1A38247  24.041   3.705   8.841
 2777POPC   D2A38248  24.128   3.648   8.431
 2777POPC   C3A38249  23.854   3.757   8.111
 2777POPC   C4A38250  23.826   3.454   7.775
 2777POPC   C1B38251  23.743   3.272   8.666
 2777POPC   C2B38252  23.593   3.310   8.207
 2777POPC   C3B38253  23.472   3.111   7.795
 2777POPC   C4B38254  23.274   3.001   7.362
 2778POPC   NC338255  33.930  38.762   9.678
 2778POPC   PO438256  33.406  38.577   9.366
 2778POPC   GL138257  33.792  38.613   9.136
 2778POPC   GL238258  34.053  38.361   9.013
 2778POPC   C1A38259  33.773  38.636   8.682
 2778POPC   D2A38260  33.963  38.377   8.387
 2778POPC   C3A38261  33.981  38.671   8.069
 2778POPC   C4A38262  33.622  38.736   7.775
 2778POPC   C1B38263  33.685  38.133   8.845
 2778POPC   C2B38264  33.435  38.243   8.489
 2778POPC   C3B38265  33.559  38.216   8.080
 2778POPC   C4B38266  33.907  38.238   7.830
 2779POPC   NC338267  14.794  16.583   5.587
 2779POPC   PO438268  15.308  16.786   5.118
 2779POPC   GL138269  15.317  16.736   5.589
 2779POPC   GL238270  15.638  16.616   5.745
 2779POPC   C1A38271  15.243  16.718   6.067
 2779POPC   D2A38272  15.356  16.636   6.520
 2779POPC   C3A38273  15.085  16.679   6.919
 2779POPC   C4A38274  15.011  16.390   7.244
 2779POPC   C1B38275  15.733  16.824   6.157
 2779POPC   C2B38276  15.784  16.965   6.561
 2779POPC   C3B38277  15.579  16.825   6.940
 2779POPC   C4B38278  15.428  16.717   7.361
 2780POPC   NC338279  39.863  25.047   5.473
 2780POPC   PO438280  40.366  25.585   5.369
 2780POPC   GL138281  40.166  25.415   5.724
 2780POPC   GL238282  40.188  25.072   5.872
 2780POPC   C1A38283  40.120  25.507   6.151
 2780POPC   D2A38284  39.932  25.561   6.530
 2780POPC   C3A38285  39.823  25.328   6.868
 2780POPC   C4A38286  40.142  25.147   7.133
 2780POPC   C1B38287  39.923  25.026   6.270
 2780POPC   C2B38288  39.622  24.912   6.627
 2780POPC   C3B38289  39.654  24.908   7.098
 2780POPC   C4B38290  39.937  24.811   7.441
 2781POPC   NC338291  12.392  41.840   5.188
 2781POPC   PO438292  11.981  41.408   5.547
 2781POPC   GL138293  12.106  41.599   5.896
 2781POPC   GL238294  12.364  41.804   5.782
 2781POPC   C1A38295  12.072  41.681   6.328
 2781POPC   D2A38296  11.860  41.781   6.693
 2781POPC   C3A38297  12.070  41.595   7.056
 2781POPC   C4A38298  12.180  41.388   7.470
 2781POPC   C1B38299  12.562  41.777   6.219
 2781POPC   C2B38300  12.470  41.651   6.676
 2781POPC   C3B38301  12.495  41.887   7.088
 2781POPC   C4B38302  12.221  41.913   7.470
 2782POPC   NC338303  24.383  42.738   5.413
 2782POPC   PO438304  24.442  42.014   5.443
 2782POPC   GL138305  24.300  42.356   5.760
 2782POPC   GL238306  24.644  42.478   5.808
 2782POPC   C1A38307  24.266  42.546   6.213
 2782POPC   D2A38308  24.083  42.565   6.653
 2782POPC   C3A38309  24.256  42.324   7.035
 2782POPC   C4A38310  24.690  42.138   7.082
 2782POPC   C1B38311  24.561  42.130   6.147
 2782POPC   C2B38312  24.455  42.192   6.579
 2782POPC   C3B38313  24.610  42.591   6.779
 2782POPC   C4B38314  24.538  42.831   7.132
 2783POPC   NC338315  33.241  10.198   5.268
 2783POPC   PO438316  32.750  10.713   5.409
 2783POPC   GL138317  32.933  10.434   5.632
 2783POPC   GL238318  32.657  10.423   5.853
 2783POPC   C1A38319  33.196  10.442   5.971
 2783POPC   D2A38320  33.083  10.399   6.378
 2783POPC   C3A38321  33.317  10.587   6.709
 2783POPC   C4A38322  33.218  10.635   7.143
 2783POPC   C1B38323  32.702  10.696   6.203
 2783POPC   C2B38324  32.812  10.739   6.641
 2783POPC   C3B38325  32.749  10.489   7.003
 2783POPC   C4B38326  32.493  10.711   7.254
 2784POPC   NC338327  10.522  12.382   5.402
 2784POPC   PO438328  10.289  11.773   5.364
 2784POPC   GL138329  10.564  11.820   5.779
 2784POPC   GL238330  10.642  12.180   5.872
 2784POPC   C1A38331  10.586  11.896   6.264
 2784POPC   D2A38332  10.715  12.164   6.628
 2784POPC   C3A38333  10.578  11.984   7.017
 2784POPC   C4A38334  10.363  11.897   7.432
 2784POPC   C1B38335  10.312  12.324   6.243
 2784POPC   C2B38336  10.229  12.349   6.727
 2784POPC   C3B38337  10.422  12.449   7.144
 2784POPC   C4B38338  10.894  12.390   7.142
 2785POPC   NC338339  34.312  13.859   5.360
 2785POPC   PO438340  34.897  13.515   5.205
 2785POPC   GL138341  34.647  13.582   5.651
 2785POPC   GL238342  34.333  13.673   5.809
 2785POPC   C1A38343  34.690  13.580   6.169
 2785POPC   D2A38344  34.601  13.323   6.567
 2785POPC   C3A38345  34.611  13.543   7.006
 2785POPC   C4A38346  34.855  13.936   7.086
 2785POPC   C1B38347  34.191  13.517   6.154
 2785POPC   C2B38348  34.294  13.755   6.503
 2785POPC   C3B38349  34.209  13.867   6.898
 2785POPC   C4B38350  34.392  13.958   7.308
 2786POPC   NC338351  34.350   9.703   5.345
 2786POPC   PO438352  34.955   9.496   5.445
 2786POPC   GL138353  34.700   9.740   5.762
 2786POPC   GL238354  34.369   9.938   5.796
 2786POPC   C1A38355  34.711   9.809   6.195
 2786POPC   D2A38356  34.777  10.020   6.584
 2786POPC   C3A38357  34.710   9.654   6.823
 2786POPC   C4A38358  34.614   9.632   7.229
 2786POPC   C1B38359  34.197   9.773   6.162
 2786POPC   C2B38360  34.282   9.572   6.540
 2786POPC   C3B38361  34.168   9.570   6.980
 2786POPC   C4B38362  34.172   9.561   7.452
 2787POPC   NC338363  30.431   6.566   5.234
 2787POPC   PO438364  31.070   6.876   5.393
 2787POPC   GL138365  30.730   6.706   5.668
 2787POPC   GL238366  30.506   6.392   5.732
 2787POPC   C1A38367  30.871   6.551   6.075
 2787POPC   D2A38368  30.873   6.526   6.537
 2787POPC   C3A38369  30.797   6.818   6.873
 2787POPC   C4A38370  30.730   6.814   7.322
 2787POPC   C1B38371  30.382   6.444   6.192
 2787POPC   C2B38372  30.356   6.612   6.631
 2787POPC   C3B38373  30.397   6.510   7.059
 2787POPC   C4B38374  30.731   6.228   7.190
 2788POPC   NC338375  44.281  37.729   5.355
 2788POPC   PO438376  43.642  37.961   5.149
 2788POPC   GL138377  43.707  37.905   5.613
 2788POPC   GL238378  43.961  37.668   5.775
 2788POPC   C1A38379  43.589  37.916   6.065
 2788POPC   D2A38380  43.737  37.993   6.489
 2788POPC   C3A38381  43.548  37.879   6.889
 2788POPC   C4A38382  43.748  37.968   7.267
 2788POPC   C1B38383  43.992  37.589   6.243
 2788POPC   C2B38384  43.914  37.543   6.711
 2788POPC   C3B38385  43.865  37.471   7.173
 2788POPC   C4B38386  44.137  37.328   7.536
 2789POPC   NC338387   8.368   7.531   5.362
 2789POPC   PO438388   8.533   6.876   5.304
 2789POPC   GL138389   8.201   7.135   5.647
 2789POPC   GL238390   8.242   7.485   5.855
 2789POPC   C1A38391   8.083   7.099   6.124
 2789POPC   D2A38392   8.241   7.313   6.499
 2789POPC   C3A38393   8.123   7.283   6.938
 2789POPC   C4A38394   8.352   7.335   7.316
 2789POPC   C1B38395   7.980   7.662   6.229
 2789POPC   C2B38396   7.982   7.716   6.716
 2789POPC   C3B38397   8.039   7.737   7.201
 2789POPC   C4B38398   8.009   7.738   7.682
 2790POPC   NC338399  10.735  25.666   5.668
 2790POPC   PO438400  10.691  25.127   5.233
 2790POPC   GL138401  10.701  25.032   5.740
 2790POPC   GL238402  10.548  25.297   5.957
 2790POPC   C1A38403  10.535  24.853   6.187
 2790POPC   D2A38404  10.332  25.064   6.579
 2790POPC   C3A38405  10.444  24.914   6.990
 2790POPC   C4A38406  10.352  24.850   7.416
 2790POPC   C1B38407  10.756  25.300   6.376
 2790POPC   C2B38408  10.795  25.251   6.842
 2790POPC   C3B38409  10.560  25.359   7.225
 2790POPC   C4B38410  10.543  25.661   7.549
 2791POPC   NC338411  43.489   3.159   5.498
 2791POPC   PO438412  43.048   3.693   5.174
 2791POPC   GL138413  43.109   3.510   5.603
 2791POPC   GL238414  42.852   3.255   5.685
 2791POPC   C1A38415  43.129   3.522   6.080
 2791POPC   D2A38416  43.080   3.333   6.517
 2791POPC   C3A38417  43.140   3.599   6.916
 2791POPC   C4A38418  42.974   3.578   7.373
 2791POPC   C1B38419  42.666   3.277   6.143
 2791POPC   C2B38420  42.618   3.527   6.539
 2791POPC   C3B38421  42.654   3.433   6.991
 2791POPC   C4B38422  42.556   3.280   7.423
 2792POPC   NC338423  25.313  42.668   5.375
 2792POPC   PO438424  25.409  42.022   5.191
 2792POPC   GL138425  25.474  42.247   5.616
 2792POPC   GL238426  25.134  42.241   5.727
 2792POPC   C1A38427  25.532  42.446   6.034
 2792POPC   D2A38428  25.459  42.353   6.489
 2792POPC   C3A38429  25.617  42.637   6.820
 2792POPC   C4A38430  25.615  42.497   7.256
 2792POPC   C1B38431  25.033  42.332   6.160
 2792POPC   C2B38432  24.961  42.256   6.591
 2792POPC   C3B38433  25.157  42.423   6.944
 2792POPC   C4B38434  24.942  42.541   7.284
 2793POPC   NC338435  25.614   4.580   5.284
 2793POPC   PO438436  25.014   4.327   5.497
 2793POPC   GL138437  25.121   4.089   5.841
 2793POPC   GL238438  24.936   3.779   5.774
 2793POPC   C1A38439  25.191   4.234   6.282
 2793POPC   D2A38440  25.325   4.097   6.693
 2793POPC   C3A38441  25.266   4.345   7.061
 2793POPC   C4A38442  25.539   4.618   7.248
 2793POPC   C1B38443  24.774   3.928   6.181
 2793POPC   C2B38444  24.796   4.129   6.597
 2793POPC   C3B38445  24.909   3.989   7.009
 2793POPC   C4B38446  24.960   4.124   7.430
 2794POPC   NC338447  26.308  15.150   5.249
 2794POPC   PO438448  26.860  15.413   5.400
 2794POPC   GL138449  27.052  15.265   5.768
 2794POPC   GL238450  26.707  15.181   5.856
 2794POPC   C1A38451  27.076  15.175   6.228
 2794POPC   D2A38452  26.881  15.323   6.614
 2794POPC   C3A38453  27.056  15.247   7.047
 2794POPC   C4A38454  27.023  15.384   7.499
 2794POPC   C1B38455  26.531  14.988   6.216
 2794POPC   C2B38456  26.706  14.830   6.565
 2794POPC   C3B38457  26.605  14.930   6.954
 2794POPC   C4B38458  26.796  14.870   7.319
 2795POPC   NC338459  30.934  39.815   5.707
 2795POPC   PO438460  30.421  40.111   5.355
 2795POPC   GL138461  30.448  39.979   5.762
 2795POPC   GL238462  30.662  40.267   5.783
 2795POPC   C1A38463  30.497  39.783   6.193
 2795POPC   D2A38464  30.503  39.614   6.608
 2795POPC   C3A38465  30.675  39.839   6.973
 2795POPC   C4A38466  30.593  39.746   7.401
 2795POPC   C1B38467  30.502  40.310   6.167
 2795POPC   C2B38468  30.610  40.194   6.567
 2795POPC   C3B38469  30.540  40.402   6.935
 2795POPC   C4B38470  30.455  40.220   7.297
 2796POPC   NC338471  11.694  29.309   5.426
 2796POPC   PO438472  11.072  29.088   5.463
 2796POPC   GL138473  11.349  29.216   5.835
 2796POPC   GL238474  11.590  28.969   5.868
 2796POPC   C1A38475  11.512  29.271   6.289
 2796POPC   D2A38476  11.503  29.223   6.754
 2796POPC   C3A38477  11.224  29.372   7.086
 2796POPC   C4A38478  11.049  29.097   7.433
 2796POPC   C1B38479  11.428  28.785   6.264
 2796POPC   C2B38480  11.387  28.645   6.677
 2796POPC   C3B38481  11.278  28.860   7.019
 2796POPC   C4B38482  11.584  29.055   7.250
 2797POPC   NC338483  17.426  30.242   5.339
 2797POPC   PO438484  17.967  30.085   5.624
 2797POPC   GL138485  17.573  29.815   5.663
 2797POPC   GL238486  17.327  30.026   5.813
 2797POPC   C1A38487  17.476  29.601   6.067
 2797POPC   D2A38488  17.645  29.534   6.491
 2797POPC   C3A38489  17.787  29.847   6.806
 2797POPC   C4A38490  17.580  29.897   7.196
 2797POPC   C1B38491  17.379  30.393   6.103
 2797POPC   C2B38492  17.264  30.451   6.545
 2797POPC   C3B38493  17.497  30.351   6.908
 2797POPC   C4B38494  17.396  30.367   7.309
 2798POPC   NC338495  10.433  27.402   5.424
 2798POPC   PO438496  10.539  28.019   5.439
 2798POPC   GL138497  10.394  27.806   5.825
 2798POPC   GL238498  10.524  27.458   5.912
 2798POPC   C1A38499  10.400  27.801   6.273
 2798POPC   D2A38500  10.506  27.508   6.600
 2798POPC   C3A38501  10.259  27.541   7.002
 2798POPC   C4A38502  10.164  27.896   7.280
 2798POPC   C1B38503  10.865  27.678   6.104
 2798POPC   C2B38504  10.866  27.880   6.511
 2798POPC   C3B38505  10.903  27.735   6.905
 2798POPC   C4B38506  10.663  27.758   7.230
 2799POPC   NC338507  35.006   7.421   5.573
 2799POPC   PO438508  34.366   7.368   5.405
 2799POPC   GL138509  34.571   7.234   5.769
 2799POPC   GL238510  34.579   7.566   5.836
 2799POPC   C1A38511  34.749   7.288   6.212
 2799POPC   D2A38512  34.729   7.565   6.591
 2799POPC   C3A38513  34.759   7.309   6.977
 2799POPC   C4A38514  34.819   7.369   7.420
 2799POPC   C1B38515  34.387   7.769   6.173
 2799POPC   C2B38516  34.189   7.764   6.593
 2799POPC   C3B38517  34.176   7.875   7.042
 2799POPC   C4B38518  34.234   7.981   7.497
 2800POPC   NC338519   8.406  16.932   5.611
 2800POPC   PO438520   7.918  16.618   5.248
 2800POPC   GL138521   8.048  16.596   5.751
 2800POPC   GL238522   8.403  16.518   5.886
 2800POPC   C1A38523   8.068  16.722   6.203
 2800POPC   D2A38524   8.295  16.528   6.531
 2800POPC   C3A38525   8.273  16.728   6.922
 2800POPC   C4A38526   8.058  16.830   7.274
 2800POPC   C1B38527   8.620  16.269   6.190
 2800POPC   C2B38528   8.518  16.056   6.557
 2800POPC   C3B38529   8.511  16.271   6.933
 2800POPC   C4B38530   8.636  16.557   7.253
 2801POPC   NC338531  34.904  20.701   5.387
 2801POPC   PO438532  34.270  20.431   5.265
 2801POPC   GL138533  34.494  20.450   5.656
 2801POPC   GL238534  34.765  20.225   5.593
 2801POPC   C1A38535  34.540  20.627   6.102
 2801POPC   D2A38536  34.609  20.891   6.485
 2801POPC   C3A38537  34.426  20.765   6.884
 2801POPC   C4A38538  34.362  20.430   7.178
 2801POPC   C1B38539  34.900  20.281   6.020
 2801POPC   C2B38540  34.908  20.438   6.464
 2801POPC   C3B38541  34.914  20.528   6.925
 2801POPC   C4B38542  34.835  20.361   7.325
 2802POPC   NC338543  18.004  34.065   5.578
 2802POPC   PO438544  18.547  33.791   5.422
 2802POPC   GL138545  18.458  33.794   5.883
 2802POPC   GL238546  18.110  33.737   5.980
 2802POPC   C1A38547  18.464  33.789   6.360
 2802POPC   D2A38548  18.340  34.021   6.746
 2802POPC   C3A38549  18.275  33.736   7.067
 2802POPC   C4A38550  18.533  33.444   7.260
 2802POPC   C1B38551  18.050  34.073   6.260
 2802POPC   C2B38552  17.913  34.238   6.624
 2802POPC   C3B38553  17.890  34.066   7.040
 2802POPC   C4B38554  18.022  33.946   7.495
 2803POPC   NC338555  29.928  30.270   5.602
 2803POPC   PO438556  30.091  30.888   5.458
 2803POPC   GL138557  29.993  30.726   5.868
 2803POPC   GL238558  29.666  30.635   5.928
 2803POPC   C1A38559  29.958  30.650   6.329
 2803POPC   D2A38560  29.958  30.414   6.682
 2803POPC   C3A38561  29.965  30.666   7.040
 2803POPC   C4A38562  30.344  30.757   7.151
 2803POPC   C1B38563  29.587  30.990   6.217
 2803POPC   C2B38564  29.596  30.944   6.661
 2803POPC   C3B38565  29.479  30.745   7.002
 2803POPC   C4B38566  29.615  30.692   7.430
 2804POPC   NC338567   9.313  19.010   5.396
 2804POPC   PO438568   8.741  19.351   5.395
 2804POPC   GL138569   9.001  19.210   5.772
 2804POPC   GL238570   9.111  18.841   5.845
 2804POPC   C1A38571   8.883  19.162   6.220
 2804POPC   D2A38572   8.614  19.106   6.584
 2804POPC   C3A38573   8.798  19.164   7.014
 2804POPC   C4A38574   8.898  19.417   7.377
 2804POPC   C1B38575   9.195  18.750   6.286
 2804POPC   C2B38576   9.156  18.524   6.682
 2804POPC   C3B38577   9.319  18.609   7.099
 2804POPC   C4B38578   9.239  18.997   7.252
 2805POPC   NC338579  24.756  41.745   5.646
 2805POPC   PO438580  24.312  41.261   5.498
 2805POPC   GL138581  24.444  41.430   5.892
 2805POPC   GL238582  24.789  41.297   5.907
 2805POPC   C1A38583  24.501  41.561   6.322
 2805POPC   D2A38584  24.402  41.347   6.709
 2805POPC   C3A38585  24.488  41.590   7.105
 2805POPC   C4A38586  24.530  41.434   7.538
 2805POPC   C1B38587  25.007  41.420   6.290
 2805POPC   C2B38588  24.880  41.507   6.719
 2805POPC   C3B38589  24.995  41.421   7.140
 2805POPC   C4B38590  24.908  41.760   7.405
 2806POPC   NC338591  38.920  32.582   5.371
 2806POPC   PO438592  39.419  32.083   5.504
 2806POPC   GL138593  39.259  32.365   5.796
 2806POPC   GL238594  38.906  32.381   5.876
 2806POPC   C1A38595  39.448  32.361   6.211
 2806POPC   D2A38596  39.232  32.322   6.603
 2806POPC   C3A38597  39.484  32.332   6.977
 2806POPC   C4A38598  39.351  32.276   7.370
 2806POPC   C1B38599  39.070  31.996   6.154
 2806POPC   C2B38600  39.099  31.784   6.584
 2806POPC   C3B38601  39.147  31.934   7.001
 2806POPC   C4B38602  39.507  31.829   7.162
 2807POPC   NC338603   6.086   8.868   5.420
 2807POPC   PO438604   5.356   8.711   5.258
 2807POPC   GL138605   5.576   8.909   5.704
 2807POPC   GL238606   5.844   9.159   5.765
 2807POPC   C1A38607   5.833   8.829   6.141
 2807POPC   D2A38608   6.051   8.742   6.552
 2807POPC   C3A38609   5.821   8.834   6.950
 2807POPC   C4A38610   5.838   9.052   7.335
 2807POPC   C1B38611   5.544   9.247   6.124
 2807POPC   C2B38612   5.605   9.090   6.559
 2807POPC   C3B38613   5.543   9.331   6.977
 2807POPC   C4B38614   5.586   9.489   7.418
 2808POPC   NC338615  34.810  17.014   5.408
 2808POPC   PO438616  34.550  17.607   5.345
 2808POPC   GL138617  34.485  17.693   5.733
 2808POPC   GL238618  34.827  17.694   5.803
 2808POPC   C1A38619  34.392  17.480   6.105
 2808POPC   D2A38620  34.584  17.416   6.456
 2808POPC   C3A38621  34.454  17.522   6.863
 2808POPC   C4A38622  34.728  17.430   7.219
 2808POPC   C1B38623  34.707  17.875   6.179
 2808POPC   C2B38624  34.797  17.860   6.609
 2808POPC   C3B38625  34.739  17.918   7.022
 2808POPC   C4B38626  34.746  18.251   7.276
 2809POPC   NC338627  36.010  44.861   5.452
 2809POPC   PO438628  36.223  44.299   5.464
 2809POPC   GL138629  36.195  44.594   5.857
 2809POPC   GL238630  35.972  44.900   5.949
 2809POPC   C1A38631  36.186  44.583   6.300
 2809POPC   D2A38632  36.428  44.392   6.602
 2809POPC   C3A38633  36.643  44.576   6.929
 2809POPC   C4A38634  36.540  44.695   7.318
 2809POPC   C1B38635  35.860  44.966   6.347
 2809POPC   C2B38636  35.918  44.732   6.697
 2809POPC   C3B38637  36.025  44.845   7.072
 2809POPC   C4B38638  36.051  44.660   7.426
 2810POPC   NC338639  17.291  33.565   5.646
 2810POPC   PO438640  16.771  33.840   5.368
 2810POPC   GL138641  16.768  33.648   5.769
 2810POPC   GL238642  16.979  33.885   5.927
 2810POPC   C1A38643  16.710  33.506   6.211
 2810POPC   D2A38644  16.520  33.696   6.584
 2810POPC   C3A38645  16.568  33.570   7.009
 2810POPC   C4A38646  16.527  33.947   7.190
 2810POPC   C1B38647  17.115  33.839   6.359
 2810POPC   C2B38648  16.969  33.901   6.815
 2810POPC   C3B38649  17.047  33.755   7.243
 2810POPC   C4B38650  17.187  33.669   7.671
 2811POPC   NC338651   2.667  30.601   5.460
 2811POPC   PO438652   3.326  30.744   5.523
 2811POPC   GL138653   3.020  30.604   5.831
 2811POPC   GL238654   2.847  30.928   5.801
 2811POPC   C1A38655   2.861  30.491   6.247
 2811POPC   D2A38656   2.913  30.722   6.636
 2811POPC   C3A38657   2.689  30.605   7.024
 2811POPC   C4A38658   2.821  30.567   7.450
 2811POPC   C1B38659   2.521  30.831   6.097
 2811POPC   C2B38660   2.481  30.984   6.489
 2811POPC   C3B38661   2.375  31.008   6.898
 2811POPC   C4B38662   2.407  31.171   7.295
 2812POPC   NC338663  14.682  12.624   5.404
 2812POPC   PO438664  14.349  13.215   5.426
 2812POPC   GL138665  14.473  13.043   5.829
 2812POPC   GL238666  14.869  13.121   5.788
 2812POPC   C1A38667  14.339  12.678   6.139
 2812POPC   D2A38668  14.473  12.472   6.518
 2812POPC   C3A38669  14.446  12.666   6.886
 2812POPC   C4A38670  14.317  12.593   7.262
 2812POPC   C1B38671  14.818  12.883   6.176
 2812POPC   C2B38672  14.517  13.019   6.491
 2812POPC   C3B38673  14.508  13.166   6.912
 2812POPC   C4B38674  14.624  12.995   7.315
 2813POPC   NC338675  24.642  35.996   5.346
 2813POPC   PO438676  24.362  36.584   5.558
 2813POPC   GL138677  24.512  36.247   5.804
 2813POPC   GL238678  24.441  35.921   5.816
 2813POPC   C1A38679  24.570  36.195   6.227
 2813POPC   D2A38680  24.650  36.359   6.609
 2813POPC   C3A38681  24.344  36.156   6.829
 2813POPC   C4A38682  24.370  36.044   7.196
 2813POPC   C1B38683  24.403  35.695   6.210
 2813POPC   C2B38684  24.276  35.671   6.622
 2813POPC   C3B38685  24.202  35.526   7.021
 2813POPC   C4B38686  24.208  35.643   7.431
 2814POPC   NC338687  24.566  14.056   5.530
 2814POPC   PO438688  23.997  14.384   5.583
 2814POPC   GL138689  24.355  14.425   5.872
 2814POPC   GL238690  24.669  14.629   5.788
 2814POPC   C1A38691  24.430  14.321   6.300
 2814POPC   D2A38692  24.419  14.057   6.690
 2814POPC   C3A38693  24.527  14.213   7.094
 2814POPC   C4A38694  24.429  14.236   7.573
 2814POPC   C1B38695  24.824  14.655   6.234
 2814POPC   C2B38696  24.813  14.425   6.661
 2814POPC   C3B38697  24.754  14.688   6.997
 2814POPC   C4B38698  24.471  14.687   7.328
 2815POPC   NC338699  43.099  27.495   5.247
 2815POPC   PO438700  42.979  26.831   5.138
 2815POPC   GL138701  42.980  26.744   5.671
 2815POPC   GL238702  42.983  27.071   5.820
 2815POPC   C1A38703  43.065  26.664   6.171
 2815POPC   D2A38704  42.825  26.730   6.622
 2815POPC   C3A38705  42.889  26.483   7.024
 2815POPC   C4A38706  43.184  26.467   7.353
 2815POPC   C1B38707  43.267  27.138   6.191
 2815POPC   C2B38708  43.215  27.084   6.615
 2815POPC   C3B38709  43.245  26.869   6.994
 2815POPC   C4B38710  43.535  26.830   7.329
 2816POPC   NC338711  36.015  40.609   5.135
 2816POPC   PO438712  36.387  41.135   5.432
 2816POPC   GL138713  36.272  40.894   5.821
 2816POPC   GL238714  35.990  40.718   5.649
 2816POPC   C1A38715  36.302  40.889   6.261
 2816POPC   D2A38716  36.359  40.653   6.611
 2816POPC   C3A38717  36.462  40.877   6.983
 2816POPC   C4A38718  36.260  40.940   7.366
 2816POPC   C1B38719  35.881  40.660   6.077
 2816POPC   C2B38720  35.845  40.669   6.516
 2816POPC   C3B38721  35.985  40.654   6.959
 2816POPC   C4B38722  35.807  40.699   7.352
 2817POPC   NC338723  36.818   2.302   5.401
 2817POPC   PO438724  36.530   2.922   5.516
 2817POPC   GL138725  36.636   2.733   5.884
 2817POPC   GL238726  36.899   2.499   5.874
 2817POPC   C1A38727  36.741   2.946   6.280
 2817POPC   D2A38728  36.562   2.859   6.688
 2817POPC   C3A38729  36.830   2.777   7.021
 2817POPC   C4A38730  37.034   3.103   7.260
 2817POPC   C1B38731  37.055   2.553   6.272
 2817POPC   C2B38732  37.139   2.823   6.598
 2817POPC   C3B38733  37.353   2.776   6.968
 2817POPC   C4B38734  37.283   2.520   7.315
 2818POPC   NC338735  44.400  41.715   5.167
 2818POPC   PO438736  44.687  42.291   5.435
 2818POPC   GL138737  44.443  42.309   5.817
 2818POPC   GL238738  44.254  42.004   5.849
 2818POPC   C1A38739  44.547  42.434   6.238
 2818POPC   D2A38740  44.652  42.252   6.639
 2818POPC   C3A38741  44.652  42.522   6.960
 2818POPC   C4A38742  44.728  42.470   7.382
 2818POPC   C1B38743  44.482  41.919   6.238
 2818POPC   C2B38744  44.299  41.888   6.640
 2818POPC   C3B38745  44.258  42.151   6.974
 2818POPC   C4B38746  44.247  42.387   7.317
 2819POPC   NC338747   9.986   4.047   5.467
 2819POPC   PO438748  10.212   4.658   5.238
 2819POPC   GL138749   9.788   4.513   5.551
 2819POPC   GL238750   9.913   4.310   5.906
 2819POPC   C1A38751   9.496   4.555   5.940
 2819POPC   D2A38752   9.430   4.356   6.351
 2819POPC   C3A38753   9.369   4.353   6.803
 2819POPC   C4A38754   9.658   4.223   7.105
 2819POPC   C1B38755   9.904   4.614   6.312
 2819POPC   C2B38756  10.060   4.785   6.727
 2819POPC   C3B38757  10.174   4.559   7.122
 2819POPC   C4B38758  10.153   4.604   7.590
 2820POPC   NC338759  44.524  21.268   5.323
 2820POPC   PO438760  44.574  21.845   5.682
 2820POPC   GL138761  44.648  21.453   5.773
 2820POPC   GL238762  44.965  21.366   5.697
 2820POPC   C1A38763  44.500  21.165   6.044
 2820POPC   D2A38764  44.351  21.183   6.453
 2820POPC   C3A38765  44.549  21.400   6.785
 2820POPC   C4A38766  44.596  21.199   7.181
 2820POPC   C1B38767  44.935  21.391   6.183
 2820POPC   C2B38768   0.074  21.522   6.621
 2820POPC   C3B38769  44.939  21.609   7.064
 2820POPC   C4B38770  44.920  21.526   7.511
 2821POPC   NC338771   7.082  32.523   5.472
 2821POPC   PO438772   7.042  31.959   5.496
 2821POPC   GL138773   7.306  32.101   5.845
 2821POPC   GL238774   7.539  32.323   5.679
 2821POPC   C1A38775   7.296  32.169   6.331
 2821POPC   D2A38776   7.294  32.098   6.822
 2821POPC   C3A38777   7.439  32.391   7.169
 2821POPC   C4A38778   7.510  32.498   7.610
 2821POPC   C1B38779   7.751  32.248   6.099
 2821POPC   C2B38780   7.753  32.014   6.515
 2821POPC   C3B38781   7.803  32.079   6.960
 2821POPC   C4B38782   7.950  32.440   7.203
 2822POPC   NC338783  37.675  27.278   5.561
 2822POPC   PO438784  37.501  26.568   5.582
 2822POPC   GL138785  37.757  26.814   5.808
 2822POPC   GL238786  37.467  27.005   5.931
 2822POPC   C1A38787  37.924  27.000   6.177
 2822POPC   D2A38788  37.862  26.866   6.592
 2822POPC   C3A38789  37.707  27.155   6.887
 2822POPC   C4A38790  37.731  27.087   7.321
 2822POPC   C1B38791  37.417  26.662   6.229
 2822POPC   C2B38792  37.495  26.474   6.619
 2822POPC   C3B38793  37.424  26.736   6.929
 2822POPC   C4B38794  37.298  26.737   7.316
 2823POPC   NC338795  37.197  19.602   5.453
 2823POPC   PO438796  36.653  19.645   5.374
 2823POPC   GL138797  36.637  19.792   5.823
 2823POPC   GL238798  37.000  19.760   5.914
 2823POPC   C1A38799  36.664  19.850   6.313
 2823POPC   D2A38800  36.532  20.086   6.712
 2823POPC   C3A38801  36.581  19.959   7.161
 2823POPC   C4A38802  36.848  20.097   7.525
 2823POPC   C1B38803  37.166  19.748   6.346
 2823POPC   C2B38804  36.976  19.810   6.764
 2823POPC   C3B38805  37.077  19.744   7.207
 2823POPC   C4B38806  37.261  19.783   7.634
 2824POPC   NC338807  26.770   2.510   5.206
 2824POPC   PO438808  26.464   2.824   5.677
 2824POPC   GL138809  26.610   2.896   6.048
 2824POPC   GL238810  26.968   2.840   6.044
 2824POPC   C1A38811  26.416   2.905   6.423
 2824POPC   D2A38812  26.675   2.782   6.721
 2824POPC   C3A38813  26.750   3.000   7.043
 2824POPC   C4A38814  27.166   2.909   7.159
 2824POPC   C1B38815  26.837   2.484   6.337
 2824POPC   C2B38816  26.865   2.313   6.796
 2824POPC   C3B38817  26.743   2.520   7.199
 2824POPC   C4B38818  26.552   2.393   7.657
 2825POPC   NC338819  43.135  17.767   5.460
 2825POPC   PO438820  42.868  17.238   5.749
 2825POPC   GL138821  43.046  17.613   5.980
 2825POPC   GL238822  43.374  17.811   5.916
 2825POPC   C1A38823  43.004  17.535   6.436
 2825POPC   D2A38824  43.143  17.205   6.751
 2825POPC   C3A38825  42.942  17.342   7.091
 2825POPC   C4A38826  42.936  17.763   7.108
 2825POPC   C1B38827  43.306  17.928   6.335
 2825POPC   C2B38828  43.332  17.789   6.749
 2825POPC   C3B38829  43.459  17.515   7.068
 2825POPC   C4B38830  43.402  17.552   7.494
 2826POPC   NC338831   9.890  22.132   5.452
 2826POPC   PO438832   9.284  22.447   5.366
 2826POPC   GL138833   9.515  22.311   5.779
 2826POPC   GL238834   9.674  21.976   5.874
 2826POPC   C1A38835   9.751  22.350   6.199
 2826POPC   D2A38836   9.900  22.101   6.537
 2826POPC   C3A38837   9.683  21.928   6.850
 2826POPC   C4A38838   9.728  22.264   7.115
 2826POPC   C1B38839   9.979  21.811   6.120
 2826POPC   C2B38840   9.976  21.586   6.499
 2826POPC   C3B38841  10.104  21.660   6.914
 2826POPC   C4B38842  10.115  21.950   7.260
 2827POPC   NC338843   3.037  29.681   5.330
 2827POPC   PO438844   2.560  30.147   5.406
 2827POPC   GL138845   2.701  30.154   5.806
 2827POPC   GL238846   2.845  29.813   5.804
 2827POPC   C1A38847   2.613  30.013   6.219
 2827POPC   D2A38848   2.889  30.034   6.549
 2827POPC   C3A38849   2.658  30.069   6.897
 2827POPC   C4A38850   2.784  30.085   7.316
 2827POPC   C1B38851   2.992  29.654   6.194
 2827POPC   C2B38852   2.908  29.533   6.626
 2827POPC   C3B38853   3.041  29.736   7.005
 2827POPC   C4B38854   3.068  29.441   7.315
 2828POPC   NC338855  21.414  38.768   5.473
 2828POPC   PO438856  21.188  38.152   5.721
 2828POPC   GL138857  21.239  38.506   5.918
 2828POPC   GL238858  21.582  38.502   5.912
 2828POPC   C1A38859  21.319  38.429   6.337
 2828POPC   D2A38860  21.098  38.371   6.646
 2828POPC   C3A38861  21.285  38.311   6.972
 2828POPC   C4A38862  21.235  38.643   7.244
 2828POPC   C1B38863  21.787  38.227   6.239
 2828POPC   C2B38864  21.757  38.358   6.678
 2828POPC   C3B38865  21.727  38.491   7.118
 2828POPC   C4B38866  21.714  38.410   7.580
 2829POPC   NC338867  16.638  31.736   5.571
 2829POPC   PO438868  17.041  31.209   5.511
 2829POPC   GL138869  16.889  31.231   5.927
 2829POPC   GL238870  16.898  31.590   5.987
 2829POPC   C1A38871  16.957  31.298   6.397
 2829POPC   D2A38872  16.780  31.617   6.685
 2829POPC   C3A38873  16.727  31.445   7.068
 2829POPC   C4A38874  16.913  31.102   7.293
 2829POPC   C1B38875  16.504  31.585   6.242
 2829POPC   C2B38876  16.243  31.565   6.627
 2829POPC   C3B38877  16.251  31.719   7.074
 2829POPC   C4B38878  16.515  31.747   7.480
 2830POPC   NC338879  38.161  38.562   5.598
 2830POPC   PO438880  38.804  38.360   5.434
 2830POPC   GL138881  38.532  38.336   5.885
 2830POPC   GL238882  38.321  38.657   6.060
 2830POPC   C1A38883  38.491  38.315   6.380
 2830POPC   D2A38884  38.403  38.615   6.717
 2830POPC   C3A38885  38.691  38.549   7.040
 2830POPC   C4A38886  38.673  38.231   7.355
 2830POPC   C1B38887  38.009  38.525   6.374
 2830POPC   C2B38888  38.025  38.158   6.655
 2830POPC   C3B38889  38.243  38.195   7.036
 2830POPC   C4B38890  38.223  38.621   7.213
 2831POPC   NC338891   7.329  30.766   5.398
 2831POPC   PO438892   7.577  30.259   5.402
 2831POPC   GL138893   7.482  30.466   5.810
 2831POPC   GL238894   7.147  30.620   5.845
 2831POPC   C1A38895   7.486  30.618   6.256
 2831POPC   D2A38896   7.566  30.533   6.704
 2831POPC   C3A38897   7.348  30.737   7.065
 2831POPC   C4A38898   7.390  31.099   7.352
 2831POPC   C1B38899   7.114  30.285   6.118
 2831POPC   C2B38900   7.207  30.198   6.538
 2831POPC   C3B38901   7.229  30.248   6.980
 2831POPC   C4B38902   7.183  30.402   7.436
 2832POPC   NC338903  15.449  14.978   5.529
 2832POPC   PO438904  15.979  14.539   5.292
 2832POPC   GL138905  16.073  14.460   5.737
 2832POPC   GL238906  16.232  14.732   5.789
 2832POPC   C1A38907  15.956  14.237   6.158
 2832POPC   D2A38908  16.146  14.126   6.561
 2832POPC   C3A38909  15.985  14.108   7.021
 2832POPC   C4A38910  16.176  14.420   7.360
 2832POPC   C1B38911  15.924  14.757   6.144
 2832POPC   C2B38912  15.907  14.613   6.536
 2832POPC   C3B38913  15.943  14.616   6.952
 2832POPC   C4B38914  15.656  14.700   7.300
 2833POPC   NC338915  44.270  43.300   5.142
 2833POPC   PO438916  43.834  42.810   5.378
 2833POPC   GL138917  43.965  43.115   5.694
 2833POPC   GL238918  44.130  42.851   5.862
 2833POPC   C1A38919  43.792  43.205   6.120
 2833POPC   D2A38920  43.703  42.950   6.504
 2833POPC   C3A38921  43.643  43.202   6.863
 2833POPC   C4A38922  43.834  43.294   7.259
 2833POPC   C1B38923  44.144  42.802   6.291
 2833POPC   C2B38924  44.204  42.549   6.640
 2833POPC   C3B38925  44.229  42.802   6.996
 2833POPC   C4B38926  44.111  42.856   7.411
 2834POPC   NC338927  37.078  10.652   5.410
 2834POPC   PO438928  36.587  10.167   5.393
 2834POPC   GL138929  36.811  10.391   5.748
 2834POPC   GL238930  36.713  10.753   5.741
 2834POPC   C1A38931  36.975  10.547   6.159
 2834POPC   D2A38932  36.950  10.293   6.546
 2834POPC   C3A38933  36.958  10.413   6.995
 2834POPC   C4A38934  36.921  10.115   7.375
 2834POPC   C1B38935  36.525  10.858   6.112
 2834POPC   C2B38936  36.617  10.735   6.510
 2834POPC   C3B38937  36.554  10.743   6.928
 2834POPC   C4B38938  36.892  10.905   7.166
 2835POPC   NC338939   0.692  22.698   5.468
 2835POPC   PO438940   0.221  23.081   5.303
 2835POPC   GL138941   0.422  23.152   5.738
 2835POPC   GL238942   0.729  23.393   5.740
 2835POPC   C1A38943   0.298  23.035   6.192
 2835POPC   D2A38944   0.038  23.081   6.588
 2835POPC   C3A38945   0.196  22.957   6.968
 2835POPC   C4A38946   0.428  23.151   7.281
 2835POPC   C1B38947   0.816  23.303   6.183
 2835POPC   C2B38948   0.669  23.096   6.556
 2835POPC   C3B38949   0.792  23.244   6.946
 2835POPC   C4B38950   1.023  23.140   7.292
 2836POPC   NC338951   0.394  44.299   5.422
 2836POPC   PO438952   0.538  43.644   5.455
 2836POPC   GL138953   0.612  43.969   5.766
 2836POPC   GL238954   0.951  44.113   5.683
 2836POPC   C1A38955   0.374  44.052   6.184
 2836POPC   D2A38956   0.307  43.794   6.601
 2836POPC   C3A38957   0.352  44.028   6.992
 2836POPC   C4A38958   0.553  43.977   7.424
 2836POPC   C1B38959   0.872  44.215   6.132
 2836POPC   C2B38960   0.738  44.067   6.558
 2836POPC   C3B38961   0.853  43.988   6.979
 2836POPC   C4B38962   0.774  44.376   7.192
 2837POPC   NC338963   8.046   4.887   5.407
 2837POPC   PO438964   7.794   5.419   5.738
 2837POPC   GL138965   8.191   5.187   5.803
 2837POPC   GL238966   8.547   5.339   5.773
 2837POPC   C1A38967   8.174   4.955   6.178
 2837POPC   D2A38968   7.854   5.138   6.493
 2837POPC   C3A38969   7.969   5.096   6.919
 2837POPC   C4A38970   8.371   4.938   7.075
 2837POPC   C1B38971   8.393   5.442   6.205
 2837POPC   C2B38972   8.348   5.213   6.594
 2837POPC   C3B38973   8.373   5.422   6.973
 2837POPC   C4B38974   8.557   5.342   7.399
 2838POPC   NC338975  10.530   4.880   5.517
 2838POPC   PO438976  10.163   5.463   5.396
 2838POPC   GL138977  10.450   5.338   5.731
 2838POPC   GL238978  10.305   5.118   5.968
 2838POPC   C1A38979  10.718   5.338   6.130
 2838POPC   D2A38980  10.561   5.348   6.585
 2838POPC   C3A38981  10.816   5.366   6.962
 2838POPC   C4A38982  10.784   5.242   7.376
 2838POPC   C1B38983  10.432   4.901   6.387
 2838POPC   C2B38984  10.530   4.912   6.895
 2838POPC   C3B38985  10.566   4.799   7.375
 2838POPC   C4B38986  10.575   4.720   7.844
 2839POPC   NC338987  24.416   1.466   5.516
 2839POPC   PO438988  24.614   2.100   5.450
 2839POPC   GL138989  24.636   2.057   5.872
 2839POPC   GL238990  24.306   1.945   5.920
 2839POPC   C1A38991  24.855   1.937   6.255
 2839POPC   D2A38992  24.779   1.775   6.683
 2839POPC   C3A38993  24.536   1.928   7.019
 2839POPC   C4A38994  24.735   2.095   7.369
 2839POPC   C1B38995  24.398   2.242   6.297
 2839POPC   C2B38996  24.417   2.412   6.745
 2839POPC   C3B38997  24.301   2.349   7.194
 2839POPC   C4B38998  24.278   2.009   7.555
 2840POPC   NC338999  24.909   2.901   5.393
 2840POPC   PO439000  25.486   2.603   5.432
 2840POPC   GL139001  25.203   2.713   5.778
 2840POPC   GL239002  24.882   2.493   5.715
 2840POPC   C1A39003  25.364   2.887   6.158
 2840POPC   D2A39004  25.569   2.686   6.510
 2840POPC   C3A39005  25.394   2.546   6.885
 2840POPC   C4A39006  25.293   2.709   7.292
 2840POPC   C1B39007  24.873   2.472   6.160
 2840POPC   C2B39008  25.037   2.707   6.513
 2840POPC   C3B39009  24.985   2.835   6.919
 2840POPC   C4B39010  24.772   2.612   7.256
 2841POPC   NC339011  21.085  15.703   5.599
 2841POPC   PO439012  21.648  15.240   5.366
 2841POPC   GL139013  21.473  15.086   5.768
 2841POPC   GL239014  21.373  15.415   5.922
 2841POPC   C1A39015  21.354  14.999   6.213
 2841POPC   D2A39016  21.404  15.238   6.583
 2841POPC   C3A39017  21.509  15.077   6.972
 2841POPC   C4A39018  21.522  14.797   7.326
 2841POPC   C1B39019  21.048  15.445   6.283
 2841POPC   C2B39020  21.047  15.578   6.741
 2841POPC   C3B39021  21.068  15.292   7.095
 2841POPC   C4B39022  21.234  15.242   7.526
 2842POPC   NC339023   1.573   9.759   5.456
 2842POPC   PO439024   0.970   9.653   5.521
 2842POPC   GL139025   1.259   9.747   5.903
 2842POPC   GL239026   1.619   9.800   5.965
 2842POPC   C1A39027   1.301   9.955   6.338
 2842POPC   D2A39028   1.322   9.789   6.761
 2842POPC   C3A39029   1.289  10.014   7.170
 2842POPC   C4A39030   0.905  10.023   7.423
 2842POPC   C1B39031   1.577   9.510   6.335
 2842POPC   C2B39032   1.684   9.424   6.783
 2842POPC   C3B39033   1.500   9.562   7.205
 2842POPC   C4B39034   1.737   9.514   7.614
 2843POPC   NC339035  11.530  21.844   5.439
 2843POPC   PO439036  11.641  22.485   5.379
 2843POPC   GL139037  11.380  22.240   5.763
 2843POPC   GL239038  11.106  22.005   5.742
 2843POPC   C1A39039  11.467  21.879   6.098
 2843POPC   D2A39040  11.384  21.758   6.543
 2843POPC   C3A39041  11.253  22.125   6.831
 2843POPC   C4A39042  11.383  22.426   7.176
 2843POPC   C1B39043  11.014  22.098   6.201
 2843POPC   C2B39044  10.880  21.872   6.596
 2843POPC   C3B39045  10.948  21.761   7.047
 2843POPC   C4B39046  11.155  22.007   7.376
 2844POPC   NC339047   0.731   0.797   5.515
 2844POPC   PO439048   0.197   0.322   5.555
 2844POPC   GL139049   0.458   0.484   5.881
 2844POPC   GL239050   0.437   0.839   5.958
 2844POPC   C1A39051   0.410   0.436   6.339
 2844POPC   D2A39052   0.066   0.549   6.602
 2844POPC   C3A39053   0.177   0.529   7.025
 2844POPC   C4A39054   0.231   0.146   7.253
 2844POPC   C1B39055   0.803   0.741   6.223
 2844POPC   C2B39056   0.895   0.458   6.540
 2844POPC   C3B39057   0.622   0.349   6.871
 2844POPC   C4B39058   0.636   0.503   7.276
 2845POPC   NC339059   1.510  34.575   5.479
 2845POPC   PO439060   0.846  34.485   5.502
 2845POPC   GL139061   1.137  34.605   5.841
 2845POPC   GL239062   1.229  34.935   5.750
 2845POPC   C1A39063   1.337  34.397   6.192
 2845POPC   D2A39064   1.407  34.469   6.622
 2845POPC   C3A39065   1.206  34.324   7.003
 2845POPC   C4A39066   1.369  34.333   7.425
 2845POPC   C1B39067   1.036  35.030   6.160
 2845POPC   C2B39068   1.089  34.888   6.563
 2845POPC   C3B39069   1.219  34.818   6.975
 2845POPC   C4B39070   0.989  34.696   7.325
 2846POPC   NC339071   0.714  20.068   5.593
 2846POPC   PO439072   1.311  19.784   5.358
 2846POPC   GL139073   1.091  19.685   5.698
 2846POPC   GL239074   1.171  20.013   5.859
 2846POPC   C1A39075   1.047  19.584   6.104
 2846POPC   D2A39076   1.111  19.826   6.439
 2846POPC   C3A39077   1.144  19.549   6.777
 2846POPC   C4A39078   1.189  19.737   7.144
 2846POPC   C1B39079   1.498  20.073   6.190
 2846POPC   C2B39080   1.443  20.216   6.629
 2846POPC   C3B39081   1.608  20.045   7.026
 2846POPC   C4B39082   1.706  20.206   7.440
 2847POPC   NC339083  24.139  43.647   5.072
 2847POPC   PO439084  24.793  43.856   5.144
 2847POPC   GL139085  24.629  43.866   5.566
 2847POPC   GL239086  24.292  43.724   5.622
 2847POPC   C1A39087  24.576  44.019   5.996
 2847POPC   D2A39088  24.409  43.980   6.401
 2847POPC   C3A39089  24.520  44.005   6.831
 2847POPC   C4A39090  24.290  44.114   7.204
 2847POPC   C1B39091  24.229  43.608   6.087
 2847POPC   C2B39092  24.295  43.508   6.551
 2847POPC   C3B39093  24.233  43.615   7.020
 2847POPC   C4B39094  24.124  43.479   7.437
 2848POPC   NC339095  40.185  44.084   5.503
 2848POPC   PO439096  40.824  43.915   5.455
 2848POPC   GL139097  40.608  43.966   5.818
 2848POPC   GL239098  40.681  43.591   5.892
 2848POPC   C1A39099  40.713  44.155   6.216
 2848POPC   D2A39100  40.785  43.888   6.588
 2848POPC   C3A39101  40.825  44.072   6.972
 2848POPC   C4A39102  40.756  43.914   7.364
 2848POPC   C1B39103  40.432  43.709   6.257
 2848POPC   C2B39104  40.295  43.651   6.684
 2848POPC   C3B39105  40.414  43.608   7.121
 2848POPC   C4B39106  40.613  43.321   7.404
 2849POPC   NC339107  23.458  14.084   5.094
 2849POPC   PO439108  23.454  13.552   5.469
 2849POPC   GL139109  23.501  13.739   5.883
 2849POPC   GL239110  23.458  14.099   5.902
 2849POPC   C1A39111  23.696  13.620   6.250
 2849POPC   D2A39112  23.489  13.532   6.622
 2849POPC   C3A39113  23.750  13.541   6.979
 2849POPC   C4A39114  23.636  13.718   7.332
 2849POPC   C1B39115  23.831  14.114   6.201
 2849POPC   C2B39116  23.880  13.929   6.644
 2849POPC   C3B39117  23.782  14.131   7.044
 2849POPC   C4B39118  23.954  14.323   7.416
 2850POPC   NC339119  36.564  42.283   5.140
 2850POPC   PO439120  35.916  42.016   5.380
 2850POPC   GL139121  36.171  42.160   5.773
 2850POPC   GL239122  36.008  42.426   5.954
 2850POPC   C1A39123  36.264  42.138   6.260
 2850POPC   D2A39124  36.097  42.365   6.646
 2850POPC   C3A39125  36.375  42.363   7.013
 2850POPC   C4A39126  36.436  41.956   7.072
 2850POPC   C1B39127  35.756  42.160   6.231
 2850POPC   C2B39128  35.650  42.123   6.691
 2850POPC   C3B39129  35.903  42.149   7.077
 2850POPC   C4B39130  35.984  42.587   7.240
 2851POPC   NC339131  36.748  35.442   5.358
 2851POPC   PO439132  37.227  35.849   5.136
 2851POPC   GL139133  37.121  35.666   5.638
 2851POPC   GL239134  36.780  35.469   5.846
 2851POPC   C1A39135  37.192  35.539   6.096
 2851POPC   D2A39136  37.191  35.356   6.528
 2851POPC   C3A39137  36.996  35.626   6.832
 2851POPC   C4A39138  36.743  35.595   7.187
 2851POPC   C1B39139  36.847  35.146   6.182
 2851POPC   C2B39140  36.658  35.111   6.556
 2851POPC   C3B39141  36.837  35.133   6.944
 2851POPC   C4B39142  36.545  35.057   7.245
 2852POPC   NC339143   3.017  27.158   5.077
 2852POPC   PO439144   3.050  26.648   5.476
 2852POPC   GL139145   2.732  26.642   5.819
 2852POPC   GL239146   2.433  26.828   5.714
 2852POPC   C1A39147   2.771  26.568   6.258
 2852POPC   D2A39148   2.844  26.883   6.590
 2852POPC   C3A39149   2.958  26.749   7.007
 2852POPC   C4A39150   3.177  26.999   7.305
 2852POPC   C1B39151   2.275  26.677   6.132
 2852POPC   C2B39152   2.393  26.620   6.586
 2852POPC   C3B39153   2.453  26.917   6.916
 2852POPC   C4B39154   2.582  26.942   7.335
 2853POPC   NC339155  30.137  39.717   5.316
 2853POPC   PO439156  29.697  40.209   5.346
 2853POPC   GL139157  29.944  40.072   5.668
 2853POPC   GL239158  30.095  40.346   5.842
 2853POPC   C1A39159  30.011  39.827   6.043
 2853POPC   D2A39160  30.124  40.031   6.459
 2853POPC   C3A39161  29.874  39.914   6.819
 2853POPC   C4A39162  30.108  39.870   7.207
 2853POPC   C1B39163  29.797  40.266   6.151
 2853POPC   C2B39164  29.782  40.421   6.548
 2853POPC   C3B39165  29.988  40.397   6.946
 2853POPC   C4B39166  29.686  40.239   7.208
 2854POPC   NC339167   6.572  19.384   5.419
 2854POPC   PO439168   6.531  18.708   5.485
 2854POPC   GL139169   6.633  18.983   5.762
 2854POPC   GL239170   6.968  18.932   5.711
 2854POPC   C1A39171   6.505  18.964   6.171
 2854POPC   D2A39172   6.680  18.776   6.520
 2854POPC   C3A39173   6.476  18.993   6.841
 2854POPC   C4A39174   6.506  19.049   7.267
 2854POPC   C1B39175   7.008  18.983   6.155
 2854POPC   C2B39176   7.145  19.019   6.584
 2854POPC   C3B39177   6.962  19.010   7.007
 2854POPC   C4B39178   6.976  19.008   7.469
 2855POPC   NC339179  43.124  13.741   5.319
 2855POPC   PO439180  42.580  13.471   5.416
 2855POPC   GL139181  42.939  13.606   5.776
 2855POPC   GL239182  43.290  13.783   5.819
 2855POPC   C1A39183  43.070  13.548   6.238
 2855POPC   D2A39184  42.800  13.545   6.621
 2855POPC   C3A39185  43.002  13.430   7.019
 2855POPC   C4A39186  42.837  13.228   7.375
 2855POPC   C1B39187  43.280  14.038   6.198
 2855POPC   C2B39188  43.186  13.932   6.611
 2855POPC   C3B39189  43.311  13.896   7.009
 2855POPC   C4B39190  43.190  13.770   7.414
 2856POPC   NC339191  37.938  36.597   5.546
 2856POPC   PO439192  37.588  37.234   5.554
 2856POPC   GL139193  37.698  36.954   5.870
 2856POPC   GL239194  38.025  37.132   5.853
 2856POPC   C1A39195  37.503  36.859   6.280
 2856POPC   D2A39196  37.253  36.716   6.639
 2856POPC   C3A39197  37.372  36.841   7.063
 2856POPC   C4A39198  37.793  36.855   7.205
 2856POPC   C1B39199  37.840  37.282   6.248
 2856POPC   C2B39200  37.655  37.155   6.660
 2856POPC   C3B39201  37.561  37.354   7.026
 2856POPC   C4B39202  37.828  37.339   7.364
 2857POPC   NC339203  42.741  42.381   5.616
 2857POPC   PO439204  43.254  42.009   5.413
 2857POPC   GL139205  43.165  42.111   5.827
 2857POPC   GL239206  43.255  42.464   5.853
 2857POPC   C1A39207  43.066  42.197   6.263
 2857POPC   D2A39208  43.250  42.100   6.647
 2857POPC   C3A39209  42.967  42.155   6.963
 2857POPC   C4A39210  43.066  42.163   7.373
 2857POPC   C1B39211  43.271  42.690   6.261
 2857POPC   C2B39212  43.129  42.589   6.682
 2857POPC   C3B39213  43.281  42.562   7.101
 2857POPC   C4B39214  43.368  42.975   7.228
 2858POPC   NC339215  34.860  39.644   5.385
 2858POPC   PO439216  34.445  40.179   5.443
 2858POPC   GL139217  34.496  40.089   5.836
 2858POPC   GL239218  34.464  39.770   5.799
 2858POPC   C1A39219  34.629  39.911   6.271
 2858POPC   D2A39220  34.922  39.861   6.641
 2858POPC   C3A39221  34.825  39.836   7.084
 2858POPC   C4A39222  34.804  39.995   7.525
 2858POPC   C1B39223  34.114  39.947   6.100
 2858POPC   C2B39224  34.202  39.940   6.535
 2858POPC   C3B39225  34.095  39.983   6.978
 2858POPC   C4B39226  34.295  39.870   7.369
 2859POPC   NC339227  34.056   7.709   5.451
 2859POPC   PO439228  33.566   7.254   5.452
 2859POPC   GL139229  33.775   7.380   5.790
 2859POPC   GL239230  34.046   7.186   5.747
 2859POPC   C1A39231  33.788   7.560   6.193
 2859POPC   D2A39232  33.830   7.358   6.574
 2859POPC   C3A39233  33.771   7.558   6.963
 2859POPC   C4A39234  33.824   7.273   7.284
 2859POPC   C1B39235  34.214   7.312   6.110
 2859POPC   C2B39236  34.325   7.277   6.501
 2859POPC   C3B39237  34.245   7.347   6.906
 2859POPC   C4B39238  34.295   7.441   7.303
 2860POPC   NC339239  31.947  35.156   5.447
 2860POPC   PO439240  31.279  34.757   5.381
 2860POPC   GL139241  31.405  34.671   5.840
 2860POPC   GL239242  31.314  34.315   5.829
 2860POPC   C1A39243  31.624  34.761   6.285
 2860POPC   D2A39244  31.525  34.823   6.723
 2860POPC   C3A39245  31.689  34.833   7.147
 2860POPC   C4A39246  31.588  34.612   7.532
 2860POPC   C1B39247  31.495  34.254   6.256
 2860POPC   C2B39248  31.358  34.308   6.685
 2860POPC   C3B39249  31.570  34.350   7.074
 2860POPC   C4B39250  31.905  34.098   7.266
 2861POPC   NC339251  28.451  38.847   5.324
 2861POPC   PO439252  28.096  38.261   5.335
 2861POPC   GL139253  28.199  38.484   5.704
 2861POPC   GL239254  28.568  38.439   5.729
 2861POPC   C1A39255  28.274  38.488   6.171
 2861POPC   D2A39256  28.056  38.587   6.575
 2861POPC   C3A39257  28.198  38.484   6.999
 2861POPC   C4A39258  28.092  38.073   7.112
 2861POPC   C1B39259  28.643  38.138   6.080
 2861POPC   C2B39260  28.663  38.017   6.505
 2861POPC   C3B39261  28.579  38.091   6.931
 2861POPC   C4B39262  28.864  38.314   7.213
 2862POPC   NC339263  17.288   3.022   5.491
 2862POPC   PO439264  17.831   2.675   5.250
 2862POPC   GL139265  17.598   2.630   5.671
 2862POPC   GL239266  17.918   2.618   5.805
 2862POPC   C1A39267  17.381   2.816   6.113
 2862POPC   D2A39268  17.368   3.043   6.548
 2862POPC   C3A39269  17.342   2.758   6.932
 2862POPC   C4A39270  17.402   2.821   7.415
 2862POPC   C1B39271  17.877   2.863   6.209
 2862POPC   C2B39272  17.794   2.778   6.654
 2862POPC   C3B39273  17.806   2.690   7.106
 2862POPC   C4B39274  17.923   2.965   7.408
 2863POPC   NC339275  44.176   1.896   5.060
 2863POPC   PO439276  43.693   2.329   5.341
 2863POPC   GL139277  43.823   2.162   5.755
 2863POPC   GL239278  44.008   1.867   5.896
 2863POPC   C1A39279  43.796   2.288   6.188
 2863POPC   D2A39280  43.651   2.215   6.612
 2863POPC   C3A39281  43.904   2.001   6.917
 2863POPC   C4A39282  43.745   1.857   7.310
 2863POPC   C1B39283  43.713   1.775   6.245
 2863POPC   C2B39284  43.605   1.611   6.673
 2863POPC   C3B39285  43.364   1.622   7.060
 2863POPC   C4B39286  43.364   1.554   7.520
 2864POPC   NC339287   4.713   5.956   5.333
 2864POPC   PO439288   5.297   5.585   5.112
 2864POPC   GL139289   5.268   5.775   5.611
 2864POPC   GL239290   4.944   5.725   5.782
 2864POPC   C1A39291   5.317   5.887   6.132
 2864POPC   D2A39292   5.446   5.886   6.629
 2864POPC   C3A39293   5.091   5.943   6.985
 2864POPC   C4A39294   5.010   5.779   7.421
 2864POPC   C1B39295   4.809   6.057   6.113
 2864POPC   C2B39296   4.743   6.117   6.566
 2864POPC   C3B39297   4.574   6.216   6.966
 2864POPC   C4B39298   4.741   6.202   7.372
 2865POPC   NC339299   6.851  44.029   5.432
 2865POPC   PO439300   6.351  43.786   5.810
 2865POPC   GL139301   6.741  43.983   5.925
 2865POPC   GL239302   6.928  43.668   5.904
 2865POPC   C1A39303   6.764  44.234   6.308
 2865POPC   D2A39304   6.545  44.107   6.680
 2865POPC   C3A39305   6.640  44.269   7.071
 2865POPC   C4A39306   6.979  44.002   7.170
 2865POPC   C1B39307   6.743  43.701   6.342
 2865POPC   C2B39308   6.449  43.592   6.687
 2865POPC   C3B39309   6.425  43.688   7.143
 2865POPC   C4B39310   6.348  43.579   7.622
 2866POPC   NC339311   1.736  39.099   5.407
 2866POPC   PO439312   2.365  39.110   5.459
 2866POPC   GL139313   2.139  38.986   5.802
 2866POPC   GL239314   1.924  39.288   5.861
 2866POPC   C1A39315   1.937  38.902   6.195
 2866POPC   D2A39316   1.758  39.001   6.599
 2866POPC   C3A39317   2.115  39.096   6.833
 2866POPC   C4A39318   2.275  39.401   7.109
 2866POPC   C1B39319   1.661  39.520   6.174
 2866POPC   C2B39320   1.662  39.731   6.575
 2866POPC   C3B39321   1.779  39.477   6.943
 2866POPC   C4B39322   1.737  39.114   7.188
 2867POPC   NC339323  13.851  28.325   5.396
 2867POPC   PO439324  13.248  28.288   5.147
 2867POPC   GL139325  13.388  28.352   5.711
 2867POPC   GL239326  13.729  28.404   5.882
 2867POPC   C1A39327  13.357  28.367   6.237
 2867POPC   D2A39328  13.182  28.337   6.723
 2867POPC   C3A39329  13.470  28.339   7.128
 2867POPC   C4A39330  13.402  28.229   7.573
 2867POPC   C1B39331  13.917  28.435   6.324
 2867POPC   C2B39332  13.791  28.290   6.736
 2867POPC   C3B39333  13.934  28.038   7.065
 2867POPC   C4B39334  13.890  28.145   7.497
 2868POPC   NC339335  39.690  27.484   5.638
 2868POPC   PO439336  39.406  27.785   5.136
 2868POPC   GL139337  39.344  27.824   5.698
 2868POPC   GL239338  39.231  27.518   5.889
 2868POPC   C1A39339  39.543  27.759   6.182
 2868POPC   D2A39340  39.390  27.570   6.500
 2868POPC   C3A39341  39.612  27.606   6.859
 2868POPC   C4A39342  39.373  27.660   7.241
 2868POPC   C1B39343  39.047  27.863   6.153
 2868POPC   C2B39344  39.103  28.051   6.584
 2868POPC   C3B39345  38.981  28.034   7.019
 2868POPC   C4B39346  38.779  27.963   7.405
 2869POPC   NC339347   1.420  19.332   5.444
 2869POPC   PO439348   0.919  18.905   5.535
 2869POPC   GL139349   1.128  19.122   5.833
 2869POPC   GL239350   1.256  18.776   5.909
 2869POPC   C1A39351   1.322  19.171   6.253
 2869POPC   D2A39352   1.520  19.194   6.658
 2869POPC   C3A39353   1.262  19.064   7.011
 2869POPC   C4A39354   1.446  18.867   7.381
 2869POPC   C1B39355   0.903  18.860   6.231
 2869POPC   C2B39356   0.897  18.761   6.674
 2869POPC   C3B39357   0.710  18.929   7.038
 2869POPC   C4B39358   0.855  19.341   7.159
 2870POPC   NC339359   3.856   2.636   5.475
 2870POPC   PO439360   3.220   2.358   5.654
 2870POPC   GL139361   3.488   2.595   5.825
 2870POPC   GL239362   3.515   2.941   5.759
 2870POPC   C1A39363   3.722   2.646   6.165
 2870POPC   D2A39364   3.631   2.796   6.558
 2870POPC   C3A39365   3.429   2.584   6.880
 2870POPC   C4A39366   3.628   2.578   7.263
 2870POPC   C1B39367   3.723   3.172   6.127
 2870POPC   C2B39368   3.715   3.289   6.594
 2870POPC   C3B39369   3.599   3.057   7.010
 2870POPC   C4B39370   3.552   3.047   7.511
 2871POPC   NC339371  10.230  17.706   5.415
 2871POPC   PO439372  10.827  17.551   5.472
 2871POPC   GL139373  10.547  17.528   5.841
 2871POPC   GL239374  10.226  17.350   5.801
 2871POPC   C1A39375  10.761  17.536   6.237
 2871POPC   D2A39376  10.890  17.296   6.601
 2871POPC   C3A39377  10.755  17.557   6.953
 2871POPC   C4A39378  10.446  17.811   7.171
 2871POPC   C1B39379  10.222  17.292   6.235
 2871POPC   C2B39380  10.379  17.492   6.570
 2871POPC   C3B39381  10.186  17.478   6.910
 2871POPC   C4B39382  10.138  17.390   7.315
 2872POPC   NC339383  12.097  22.428   5.352
 2872POPC   PO439384  12.488  21.994   5.494
 2872POPC   GL139385  12.102  21.864   5.741
 2872POPC   GL239386  11.872  22.143   5.756
 2872POPC   C1A39387  11.991  21.893   6.202
 2872POPC   D2A39388  12.149  22.232   6.509
 2872POPC   C3A39389  12.085  22.194   6.954
 2872POPC   C4A39390  11.685  22.015   7.067
 2872POPC   C1B39391  11.711  22.335   6.172
 2872POPC   C2B39392  11.661  22.395   6.640
 2872POPC   C3B39393  11.811  22.613   7.002
 2872POPC   C4B39394  12.189  22.713   7.262
 2873POPC   NC339395  38.612  25.680   5.262
 2873POPC   PO439396  38.350  26.296   5.422
 2873POPC   GL139397  38.300  26.254   5.844
 2873POPC   GL239398  38.038  25.990   5.840
 2873POPC   C1A39399  38.617  26.251   6.174
 2873POPC   D2A39400  38.492  26.221   6.587
 2873POPC   C3A39401  38.720  26.259   6.925
 2873POPC   C4A39402  38.459  26.419   7.245
 2873POPC   C1B39403  38.160  25.983   6.273
 2873POPC   C2B39404  38.276  25.767   6.650
 2873POPC   C3B39405  38.355  25.883   7.097
 2873POPC   C4B39406  38.274  25.636   7.482
 2874POPC   NC339407  36.240   7.747   5.623
 2874POPC   PO439408  36.019   8.429   5.559
 2874POPC   GL139409  36.085   8.183   5.881
 2874POPC   GL239410  35.827   7.928   5.879
 2874POPC   C1A39411  36.082   8.337   6.294
 2874POPC   D2A39412  36.150   8.431   6.700
 2874POPC   C3A39413  35.858   8.533   7.017
 2874POPC   C4A39414  35.938   8.296   7.432
 2874POPC   C1B39415  36.020   7.834   6.249
 2874POPC   C2B39416  36.222   7.939   6.602
 2874POPC   C3B39417  36.088   8.025   7.001
 2874POPC   C4B39418  35.891   7.806   7.280
 2875POPC   NC339419   3.447  18.517   5.566
 2875POPC   PO439420   3.466  19.194   5.329
 2875POPC   GL139421   3.483  19.010   5.782
 2875POPC   GL239422   3.711  18.721   5.937
 2875POPC   C1A39423   3.516  19.156   6.217
 2875POPC   D2A39424   3.261  19.225   6.585
 2875POPC   C3A39425   3.511  19.191   6.921
 2875POPC   C4A39426   3.316  19.168   7.276
 2875POPC   C1B39427   3.422  18.606   6.236
 2875POPC   C2B39428   3.484  18.762   6.614
 2875POPC   C3B39429   3.631  18.687   6.995
 2875POPC   C4B39430   3.381  18.680   7.330
 2876POPC   NC339431   3.996   4.307   5.398
 2876POPC   PO439432   3.379   4.582   5.334
 2876POPC   GL139433   3.475   4.365   5.743
 2876POPC   GL239434   3.819   4.320   5.891
 2876POPC   C1A39435   3.408   4.107   6.142
 2876POPC   D2A39436   3.545   4.231   6.555
 2876POPC   C3A39437   3.406   4.072   6.942
 2876POPC   C4A39438   3.299   4.349   7.273
 2876POPC   C1B39439   3.885   4.576   6.265
 2876POPC   C2B39440   3.871   4.751   6.678
 2876POPC   C3B39441   3.725   4.543   7.052
 2876POPC   C4B39442   3.741   4.553   7.514
 2877POPC   NC339443  12.047  10.970   5.538
 2877POPC   PO439444  11.742  11.618   5.397
 2877POPC   GL139445  11.804  11.379   5.804
 2877POPC   GL239446  12.172  11.297   5.885
 2877POPC   C1A39447  11.831  11.225   6.248
 2877POPC   D2A39448  12.049  11.192   6.639
 2877POPC   C3A39449  11.828  11.205   7.002
 2877POPC   C4A39450  11.836  11.473   7.386
 2877POPC   C1B39451  12.369  11.361   6.282
 2877POPC   C2B39452  12.435  11.535   6.701
 2877POPC   C3B39453  12.321  11.328   7.095
 2877POPC   C4B39454  12.427  10.915   7.233
 2878POPC   NC339455  28.222  37.920   5.623
 2878POPC   PO439456  28.503  37.358   5.279
 2878POPC   GL139457  28.530  37.492   5.776
 2878POPC   GL239458  28.735  37.727   5.822
 2878POPC   C1A39459  28.374  37.679   6.216
 2878POPC   D2A39460  28.164  37.871   6.575
 2878POPC   C3A39461  28.229  37.599   6.909
 2878POPC   C4A39462  28.269  37.646   7.322
 2878POPC   C1B39463  28.855  37.538   6.226
 2878POPC   C2B39464  28.674  37.517   6.644
 2878POPC   C3B39465  28.719  37.475   7.078
 2878POPC   C4B39466  28.742  37.826   7.336
 2879POPC   NC339467  31.264  15.457   5.301
 2879POPC   PO439468  31.842  15.284   5.370
 2879POPC   GL139469  31.563  15.230   5.699
 2879POPC   GL239470  31.675  14.915   5.799
 2879POPC   C1A39471  31.340  15.285   6.094
 2879POPC   D2A39472  31.255  15.098   6.490
 2879POPC   C3A39473  31.388  15.249   6.840
 2879POPC   C4A39474  31.295  15.228   7.254
 2879POPC   C1B39475  31.781  15.054   6.238
 2879POPC   C2B39476  31.867  15.134   6.672
 2879POPC   C3B39477  31.811  15.246   7.097
 2879POPC   C4B39478  32.077  15.052   7.322
 2880POPC   NC339479  44.884  35.574   5.217
 2880POPC   PO439480  44.402  35.242   5.482
 2880POPC   GL139481  44.723  35.301   5.793
 2880POPC   GL239482  44.988  35.537   5.821
 2880POPC   C1A39483  44.650  35.367   6.241
 2880POPC   D2A39484  44.861  35.279   6.642
 2880POPC   C3A39485  44.726  35.331   7.063
 2880POPC   C4A39486  44.478  35.010   7.338
 2880POPC   C1B39487  44.960  35.776   6.229
 2880POPC   C2B39488  44.719  35.765   6.636
 2880POPC   C3B39489   0.019  35.777   6.950
 2880POPC   C4B39490   0.039  35.660   7.342
 2881POPC   NC339491   5.327  14.608   5.463
 2881POPC   PO439492   4.773  14.151   5.369
 2881POPC   GL139493   5.026  14.143   5.772
 2881POPC   GL239494   5.377  14.103   5.667
 2881POPC   C1A39495   5.002  14.246   6.269
 2881POPC   D2A39496   4.782  14.396   6.692
 2881POPC   C3A39497   5.003  14.378   7.120
 2881POPC   C4A39498   5.007  14.347   7.605
 2881POPC   C1B39499   5.386  13.925   6.095
 2881POPC   C2B39500   5.254  13.864   6.527
 2881POPC   C3B39501   5.348  14.022   6.943
 2881POPC   C4B39502   5.226  13.935   7.382
 2882POPC   NC339503  19.314  22.782   5.123
 2882POPC   PO439504  19.124  22.240   5.482
 2882POPC   GL139505  19.036  22.148   5.907
 2882POPC   GL239506  18.715  22.221   5.998
 2882POPC   C1A39507  19.014  21.866   6.270
 2882POPC   D2A39508  18.901  21.780   6.695
 2882POPC   C3A39509  19.050  22.132   6.926
 2882POPC   C4A39510  19.086  22.218   7.343
 2882POPC   C1B39511  18.935  22.352   6.405
 2882POPC   C2B39512  18.913  22.607   6.782
 2882POPC   C3B39513  18.723  22.552   7.194
 2882POPC   C4B39514  18.594  22.201   7.497
 2883POPC   NC339515  12.737  18.517   5.548
 2883POPC   PO439516  13.211  17.903   5.530
 2883POPC   GL139517  12.951  18.089   5.889
 2883POPC   GL239518  12.614  17.922   5.971
 2883POPC   C1A39519  12.914  18.180   6.332
 2883POPC   D2A39520  13.098  18.023   6.707
 2883POPC   C3A39521  13.054  18.373   7.005
 2883POPC   C4A39522  13.271  18.433   7.391
 2883POPC   C1B39523  12.421  18.163   6.297
 2883POPC   C2B39524  12.566  18.336   6.711
 2883POPC   C3B39525  12.446  18.375   7.170
 2883POPC   C4B39526  12.353  18.104   7.526
 2884POPC   NC339527  36.735  29.451   5.544
 2884POPC   PO439528  37.155  28.945   5.430
 2884POPC   GL139529  36.818  28.999   5.781
 2884POPC   GL239530  37.051  29.255   5.892
 2884POPC   C1A39531  36.694  29.188   6.223
 2884POPC   D2A39532  36.986  29.331   6.536
 2884POPC   C3A39533  36.895  29.248   6.969
 2884POPC   C4A39534  36.563  29.045   7.173
 2884POPC   C1B39535  37.098  28.884   6.211
 2884POPC   C2B39536  37.202  28.709   6.626
 2884POPC   C3B39537  37.137  28.716   7.075
 2884POPC   C4B39538  37.104  29.008   7.383
 2885POPC   NC339539   2.242  34.028   5.617
 2885POPC   PO439540   2.907  34.059   5.342
 2885POPC   GL139541   2.860  34.198   5.796
 2885POPC   GL239542   2.533  34.207   5.983
 2885POPC   C1A39543   3.034  34.144   6.206
 2885POPC   D2A39544   3.019  33.866   6.554
 2885POPC   C3A39545   2.979  34.060   6.939
 2885POPC   C4A39546   2.813  33.846   7.298
 2885POPC   C1B39547   2.445  33.907   6.309
 2885POPC   C2B39548   2.553  33.860   6.732
 2885POPC   C3B39549   2.563  33.511   7.007
 2885POPC   C4B39550   2.217  33.330   7.172
 2886POPC   NC339551  39.233   3.169   5.529
 2886POPC   PO439552  38.892   2.609   5.291
 2886POPC   GL139553  39.201   2.660   5.671
 2886POPC   GL239554  39.068   2.923   5.929
 2886POPC   C1A39555  39.354   2.559   6.114
 2886POPC   D2A39556  39.145   2.760   6.483
 2886POPC   C3A39557  39.342   2.697   6.898
 2886POPC   C4A39558  39.549   2.917   7.227
 2886POPC   C1B39559  38.718   2.910   6.192
 2886POPC   C2B39560  38.653   3.056   6.592
 2886POPC   C3B39561  38.993   3.100   6.861
 2886POPC   C4B39562  39.071   2.990   7.256
 2887POPC   NC339563  17.534  32.191   5.347
 2887POPC   PO439564  17.199  32.749   5.490
 2887POPC   GL139565  17.301  32.377   5.796
 2887POPC   GL239566  17.662  32.152   5.834
 2887POPC   C1A39567  17.472  32.411   6.198
 2887POPC   D2A39568  17.599  32.187   6.562
 2887POPC   C3A39569  17.448  32.383   6.898
 2887POPC   C4A39570  17.182  32.308   7.203
 2887POPC   C1B39571  17.508  31.866   6.178
 2887POPC   C2B39572  17.244  31.824   6.609
 2887POPC   C3B39573  17.337  31.829   7.060
 2887POPC   C4B39574  17.655  32.076   7.256
 2888POPC   NC339575  44.284   0.456   5.347
 2888POPC   PO439576  43.602   0.633   5.246
 2888POPC   GL139577  43.720   0.459   5.680
 2888POPC   GL239578  44.044   0.566   5.789
 2888POPC   C1A39579  43.675   0.466   6.158
 2888POPC   D2A39580  43.603   0.587   6.594
 2888POPC   C3A39581  43.862   0.417   6.954
 2888POPC   C4A39582  43.930   0.554   7.393
 2888POPC   C1B39583  44.140   0.270   6.130
 2888POPC   C2B39584  44.112   0.158   6.571
 2888POPC   C3B39585  44.297   0.138   6.982
 2888POPC   C4B39586  44.323   0.225   7.428
 2889POPC   NC339587  23.937  32.032   5.529
 2889POPC   PO439588  23.747  32.672   5.461
 2889POPC   GL139589  23.712  32.466   5.859
 2889POPC   GL239590  23.499  32.155   5.839
 2889POPC   C1A39591  23.932  32.266   6.228
 2889POPC   D2A39592  24.081  31.966   6.538
 2889POPC   C3A39593  23.896  31.925   6.932
 2889POPC   C4A39594  23.699  32.153   7.247
 2889POPC   C1B39595  23.419  32.340   6.269
 2889POPC   C2B39596  23.515  32.462   6.722
 2889POPC   C3B39597  23.279  32.414   7.131
 2889POPC   C4B39598  23.414  32.376   7.613
 2890POPC   NC339599  22.286   0.261   5.571
 2890POPC   PO439600  22.003   0.820   5.467
 2890POPC   GL139601  21.955   0.699   5.904
 2890POPC   GL239602  22.286   0.567   6.017
 2890POPC   C1A39603  21.902   0.543   6.354
 2890POPC   D2A39604  22.040   0.399   6.775
 2890POPC   C3A39605  21.824   0.509   7.191
 2890POPC   C4A39606  21.879   0.719   7.647
 2890POPC   C1B39607  22.258   0.158   6.262
 2890POPC   C2B39608  22.410   0.015   6.665
 2890POPC   C3B39609  22.569   0.318   6.941
 2890POPC   C4B39610  22.309   0.562   7.178
 2891POPC   NC339611  25.648  29.278   5.304
 2891POPC   PO439612  26.285  28.998   5.377
 2891POPC   GL139613  25.997  29.178   5.680
 2891POPC   GL239614  25.732  28.931   5.686
 2891POPC   C1A39615  26.012  29.347   6.103
 2891POPC   D2A39616  26.235  29.191   6.479
 2891POPC   C3A39617  25.988  29.275   6.872
 2891POPC   C4A39618  26.127  29.392   7.283
 2891POPC   C1B39619  25.976  28.841   6.096
 2891POPC   C2B39620  25.881  28.854   6.539
 2891POPC   C3B39621  26.137  28.791   6.903
 2891POPC   C4B39622  25.945  28.832   7.294
 2892POPC   NC339623   8.739   6.152   5.447
 2892POPC   PO439624   9.029   5.592   5.310
 2892POPC   GL139625   9.003   5.645   5.752
 2892POPC   GL239626   9.067   5.985   5.867
 2892POPC   C1A39627   8.884   5.603   6.171
 2892POPC   D2A39628   8.987   5.833   6.588
 2892POPC   C3A39629   8.833   5.670   7.012
 2892POPC   C4A39630   8.842   5.861   7.391
 2892POPC   C1B39631   9.358   5.751   6.146
 2892POPC   C2B39632   9.326   5.451   6.495
 2892POPC   C3B39633   9.315   5.549   6.927
 2892POPC   C4B39634   9.491   5.613   7.323
 2893POPC   NC339635  43.843  15.518   5.402
 2893POPC   PO439636  43.972  16.195   5.365
 2893POPC   GL139637  44.070  16.036   5.768
 2893POPC   GL239638  44.175  15.674   5.779
 2893POPC   C1A39639  43.870  16.115   6.165
 2893POPC   D2A39640  43.611  16.007   6.540
 2893POPC   C3A39641  43.757  15.984   6.957
 2893POPC   C4A39642  43.790  16.312   7.261
 2893POPC   C1B39643  44.328  15.820   6.174
 2893POPC   C2B39644  44.176  16.000   6.553
 2893POPC   C3B39645  44.267  16.169   6.906
 2893POPC   C4B39646  44.168  15.965   7.272
 2894POPC   NC339647  17.035   1.418   5.263
 2894POPC   PO439648  16.812   0.675   5.278
 2894POPC   GL139649  16.811   1.025   5.652
 2894POPC   GL239650  16.524   1.204   5.837
 2894POPC   C1A39651  16.895   1.087   6.150
 2894POPC   D2A39652  16.822   0.949   6.613
 2894POPC   C3A39653  17.008   1.108   6.970
 2894POPC   C4A39654  17.016   1.461   7.235
 2894POPC   C1B39655  16.408   1.094   6.318
 2894POPC   C2B39656  16.375   1.136   6.791
 2894POPC   C3B39657  16.532   1.241   7.209
 2894POPC   C4B39658  16.428   0.986   7.605
 2895POPC   NC339659   3.173   7.186   5.453
 2895POPC   PO439660   3.812   7.448   5.421
 2895POPC   GL139661   3.591   7.335   5.761
 2895POPC   GL239662   3.813   7.138   5.965
 2895POPC   C1A39663   3.513   7.530   6.141
 2895POPC   D2A39664   3.583   7.738   6.536
 2895POPC   C3A39665   3.468   7.507   6.933
 2895POPC   C4A39666   3.560   7.286   7.369
 2895POPC   C1B39667   3.839   7.246   6.430
 2895POPC   C2B39668   3.972   7.540   6.784
 2895POPC   C3B39669   3.953   7.563   7.210
 2895POPC   C4B39670   4.040   7.298   7.578
 2896POPC   NC339671   2.792   8.251   5.518
 2896POPC   PO439672   3.099   7.628   5.605
 2896POPC   GL139673   2.846   7.883   5.864
 2896POPC   GL239674   2.547   7.753   5.887
 2896POPC   C1A39675   2.783   8.248   6.168
 2896POPC   D2A39676   2.879   8.560   6.486
 2896POPC   C3A39677   2.954   8.360   6.860
 2896POPC   C4A39678   2.612   8.275   7.098
 2896POPC   C1B39679   2.709   7.733   6.334
 2896POPC   C2B39680   2.612   7.887   6.748
 2896POPC   C3B39681   2.629   7.761   7.178
 2896POPC   C4B39682   2.855   7.734   7.560
 2897POPC   NC339683  40.590   6.100   5.432
 2897POPC   PO439684  41.211   5.946   5.318
 2897POPC   GL139685  41.003   5.814   5.717
 2897POPC   GL239686  40.627   5.692   5.754
 2897POPC   C1A39687  40.932   5.875   6.161
 2897POPC   D2A39688  40.787   5.988   6.591
 2897POPC   C3A39689  41.004   5.959   6.990
 2897POPC   C4A39690  41.034   6.099   7.427
 2897POPC   C1B39691  40.416   5.940   6.095
 2897POPC   C2B39692  40.289   6.026   6.538
 2897POPC   C3B39693  40.444   5.979   6.973
 2897POPC   C4B39694  40.616   5.820   7.391
 2898POPC   NC339695  34.960   9.159   5.117
 2898POPC   PO439696  35.396   8.605   5.380
 2898POPC   GL139697  35.560   8.628   5.832
 2898POPC   GL239698  35.498   8.968   5.868
 2898POPC   C1A39699  35.685   8.639   6.238
 2898POPC   D2A39700  35.522   8.549   6.642
 2898POPC   C3A39701  35.397   8.848   6.969
 2898POPC   C4A39702  35.060   8.824   7.300
 2898POPC   C1B39703  35.329   9.007   6.299
 2898POPC   C2B39704  35.362   9.260   6.656
 2898POPC   C3B39705  35.122   9.296   7.031
 2898POPC   C4B39706  35.303   9.313   7.423
 2899POPC   NC339707  26.410  37.592   5.442
 2899POPC   PO439708  25.808  37.618   5.402
 2899POPC   GL139709  25.992  37.701   5.780
 2899POPC   GL239710  26.184  37.992   5.726
 2899POPC   C1A39711  25.915  37.733   6.220
 2899POPC   D2A39712  26.211  37.740   6.584
 2899POPC   C3A39713  26.035  37.770   6.998
 2899POPC   C4A39714  25.916  37.675   7.436
 2899POPC   C1B39715  26.385  37.957   6.136
 2899POPC   C2B39716  26.414  38.239   6.509
 2899POPC   C3B39717  26.407  38.120   6.943
 2899POPC   C4B39718  26.360  37.945   7.367
 2900POPC   NC339719  10.347  41.239   5.540
 2900POPC   PO439720  10.476  41.890   5.264
 2900POPC   GL139721  10.540  41.703   5.712
 2900POPC   GL239722  10.377  41.916   5.940
 2900POPC   C1A39723  10.650  41.500   6.145
 2900POPC   D2A39724  10.436  41.389   6.576
 2900POPC   C3A39725  10.634  41.454   7.002
 2900POPC   C4A39726  10.767  41.236   7.393
 2900POPC   C1B39727  10.150  41.741   6.281
 2900POPC   C2B39728  10.257  41.876   6.670
 2900POPC   C3B39729  10.297  41.840   7.082
 2900POPC   C4B39730  10.620  41.927   7.325
 2901POPC   NC339731  23.371  34.914   5.364
 2901POPC   PO439732  22.853  35.417   5.231
 2901POPC   GL139733  23.061  35.355   5.688
 2901POPC   GL239734  23.416  35.254   5.777
 2901POPC   C1A39735  23.019  35.511   6.151
 2901POPC   D2A39736  22.914  35.743   6.558
 2901POPC   C3A39737  22.807  35.542   6.944
 2901POPC   C4A39738  22.916  35.449   7.352
 2901POPC   C1B39739  23.415  35.204   6.244
 2901POPC   C2B39740  23.155  35.274   6.640
 2901POPC   C3B39741  23.261  35.181   7.085
 2901POPC   C4B39742  23.311  35.245   7.551
 2902POPC   NC339743   5.586  20.642   5.286
 2902POPC   PO439744   6.204  20.563   5.344
 2902POPC   GL139745   6.051  20.414   5.761
 2902POPC   GL239746   5.679  20.340   5.761
 2902POPC   C1A39747   6.069  20.301   6.213
 2902POPC   D2A39748   5.746  20.276   6.556
 2902POPC   C3A39749   5.792  20.362   7.015
 2902POPC   C4A39750   6.104  20.606   7.254
 2902POPC   C1B39751   5.630  20.611   6.148
 2902POPC   C2B39752   5.428  20.946   6.444
 2902POPC   C3B39753   5.530  21.122   6.880
 2902POPC   C4B39754   5.594  21.035   7.344
 2903POPC   NC339755   4.618  12.337   5.183
 2903POPC   PO439756   4.147  11.927   5.464
 2903POPC   GL139757   4.167  12.209   5.816
 2903POPC   GL239758   4.518  12.370   5.924
 2903POPC   C1A39759   4.213  12.166   6.261
 2903POPC   D2A39760   4.230  11.939   6.630
 2903POPC   C3A39761   4.215  12.072   7.036
 2903POPC   C4A39762   4.165  11.729   7.277
 2903POPC   C1B39763   4.830  12.542   6.226
 2903POPC   C2B39764   4.760  12.550   6.662
 2903POPC   C3B39765   4.701  12.187   6.893
 2903POPC   C4B39766   4.662  12.093   7.305
 2904POPC   NC339767  21.043  29.307   5.591
 2904POPC   PO439768  21.515  28.906   5.384
 2904POPC   GL139769  21.524  29.189   5.752
 2904POPC   GL239770  21.644  29.532   5.696
 2904POPC   C1A39771  21.343  29.122   6.184
 2904POPC   D2A39772  21.244  28.829   6.516
 2904POPC   C3A39773  21.399  28.975   6.890
 2904POPC   C4A39774  21.272  28.996   7.284
 2904POPC   C1B39775  21.469  29.627   6.115
 2904POPC   C2B39776  21.503  29.470   6.560
 2904POPC   C3B39777  21.361  29.488   7.011
 2904POPC   C4B39778  21.571  29.376   7.397
 2905POPC   NC339779  17.122   7.632   5.318
 2905POPC   PO439780  16.391   7.613   5.446
 2905POPC   GL139781  16.771   7.442   5.695
 2905POPC   GL239782  16.717   7.088   5.855
 2905POPC   C1A39783  16.975   7.463   6.130
 2905POPC   D2A39784  16.759   7.354   6.534
 2905POPC   C3A39785  16.937   7.411   6.954
 2905POPC   C4A39786  17.063   7.510   7.390
 2905POPC   C1B39787  16.459   7.405   6.104
 2905POPC   C2B39788  16.279   7.600   6.466
 2905POPC   C3B39789  16.439   7.572   6.867
 2905POPC   C4B39790  16.483   7.204   7.060
 2906POPC   NC339791  17.004  14.717   5.509
 2906POPC   PO439792  17.526  14.407   5.241
 2906POPC   GL139793  17.510  14.426   5.760
 2906POPC   GL239794  17.761  14.255   5.904
 2906POPC   C1A39795  17.504  14.518   6.262
 2906POPC   D2A39796  17.190  14.619   6.625
 2906POPC   C3A39797  17.392  14.515   7.019
 2906POPC   C4A39798  17.791  14.584   7.088
 2906POPC   C1B39799  17.916  14.144   6.254
 2906POPC   C2B39800  17.906  14.320   6.639
 2906POPC   C3B39801  17.846  14.080   6.977
 2906POPC   C4B39802  17.887  14.143   7.362
 2907POPC   NC339803  11.417   4.712   5.421
 2907POPC   PO439804  10.898   5.155   5.466
 2907POPC   GL139805  11.177   5.057   5.784
 2907POPC   GL239806  11.049   4.699   5.803
 2907POPC   C1A39807  11.317   5.263   6.195
 2907POPC   D2A39808  11.476   5.306   6.641
 2907POPC   C3A39809  11.318   5.246   7.088
 2907POPC   C4A39810  11.565   5.345   7.457
 2907POPC   C1B39811  10.943   4.893   6.219
 2907POPC   C2B39812  11.013   4.991   6.675
 2907POPC   C3B39813  11.006   4.840   7.130
 2907POPC   C4B39814  11.020   4.858   7.620
 2908POPC   NC339815  38.913  33.203   5.315
 2908POPC   PO439816  39.375  32.743   5.400
 2908POPC   GL139817  39.130  32.869   5.746
 2908POPC   GL239818  39.235  33.185   5.807
 2908POPC   C1A39819  39.148  32.762   6.182
 2908POPC   D2A39820  39.321  32.918   6.580
 2908POPC   C3A39821  39.141  32.719   6.931
 2908POPC   C4A39822  39.173  32.756   7.365
 2908POPC   C1B39823  39.102  33.254   6.256
 2908POPC   C2B39824  39.062  33.360   6.723
 2908POPC   C3B39825  39.109  33.195   7.135
 2908POPC   C4B39826  39.071  33.301   7.587
 2909POPC   NC339827  21.039  23.143   5.418
 2909POPC   PO439828  20.506  22.701   5.571
 2909POPC   GL139829  20.674  23.029   5.822
 2909POPC   GL239830  20.915  22.850   5.957
 2909POPC   C1A39831  20.562  23.097   6.271
 2909POPC   D2A39832  20.496  22.912   6.684
 2909POPC   C3A39833  20.642  23.142   7.054
 2909POPC   C4A39834  20.547  23.083   7.489
 2909POPC   C1B39835  20.679  22.558   6.225
 2909POPC   C2B39836  20.414  22.371   6.526
 2909POPC   C3B39837  20.414  22.466   6.960
 2909POPC   C4B39838  20.726  22.670   7.227
 2910POPC   NC339839  19.626  19.665   5.450
 2910POPC   PO439840  20.139  20.086   5.357
 2910POPC   GL139841  20.100  19.883   5.741
 2910POPC   GL239842  20.160  20.201   5.890
 2910POPC   C1A39843  20.176  19.725   6.172
 2910POPC   D2A39844  20.203  19.574   6.627
 2910POPC   C3A39845  19.894  19.566   6.962
 2910POPC   C4A39846  20.044  19.836   7.291
 2910POPC   C1B39847  19.784  20.055   6.121
 2910POPC   C2B39848  19.772  19.871   6.536
 2910POPC   C3B39849  19.701  20.040   6.960
 2910POPC   C4B39850  19.586  20.005   7.394
 2911POPC   NC339851   4.103  11.122   5.480
 2911POPC   PO439852   4.666  11.528   5.522
 2911POPC   GL139853   4.441  11.312   5.827
 2911POPC   GL239854   4.164  11.544   5.818
 2911POPC   C1A39855   4.378  11.179   6.251
 2911POPC   D2A39856   4.270  11.422   6.616
 2911POPC   C3A39857   4.315  11.170   6.963
 2911POPC   C4A39858   4.447  11.301   7.344
 2911POPC   C1B39859   4.419  11.693   6.183
 2911POPC   C2B39860   4.703  11.734   6.549
 2911POPC   C3B39861   4.603  11.656   6.985
 2911POPC   C4B39862   4.874  11.618   7.354
 2912POPC   NC339863   7.190   0.650   5.326
 2912POPC   PO439864   7.610   0.185   5.390
 2912POPC   GL139865   7.452   0.383   5.766
 2912POPC   GL239866   7.136   0.456   5.910
 2912POPC   C1A39867   7.537   0.345   6.213
 2912POPC   D2A39868   7.426   0.220   6.662
 2912POPC   C3A39869   7.670   0.347   7.011
 2912POPC   C4A39870   7.971   0.482   7.306
 2912POPC   C1B39871   7.060   0.454   6.383
 2912POPC   C2B39872   7.201   0.705   6.790
 2912POPC   C3B39873   7.350   0.674   7.238
 2912POPC   C4B39874   7.118   0.692   7.635
 2913POPC   NC339875  26.213  13.428   5.465
 2913POPC   PO439876  25.919  14.054   5.458
 2913POPC   GL139877  25.909  13.693   5.804
 2913POPC   GL239878  26.241  13.495   5.957
 2913POPC   C1A39879  25.865  13.633   6.255
 2913POPC   D2A39880  25.987  13.746   6.695
 2913POPC   C3A39881  25.758  13.501   7.044
 2913POPC   C4A39882  25.456  13.685   7.318
 2913POPC   C1B39883  26.325  13.463   6.412
 2913POPC   C2B39884  26.153  13.265   6.780
 2913POPC   C3B39885  26.233  13.396   7.220
 2913POPC   C4B39886  26.199  13.398   7.686
 2914POPC   NC339887  43.116  30.456   5.272
 2914POPC   PO439888  42.775  29.880   5.150
 2914POPC   GL139889  42.764  29.941   5.624
 2914POPC   GL239890  42.834  29.623   5.816
 2914POPC   C1A39891  42.778  30.061   6.078
 2914POPC   D2A39892  42.723  30.126   6.550
 2914POPC   C3A39893  43.081  30.234   6.799
 2914POPC   C4A39894  43.059  30.070   7.192
 2914POPC   C1B39895  43.101  29.592   6.146
 2914POPC   C2B39896  43.096  29.775   6.547
 2914POPC   C3B39897  42.819  29.726   6.897
 2914POPC   C4B39898  42.996  29.500   7.257
 2915POPC   NC339899   6.347  28.218   5.338
 2915POPC   PO439900   6.886  28.525   5.430
 2915POPC   GL139901   6.513  28.494   5.743
 2915POPC   GL239902   6.281  28.203   5.846
 2915POPC   C1A39903   6.471  28.565   6.200
 2915POPC   D2A39904   6.794  28.511   6.544
 2915POPC   C3A39905   6.777  28.576   7.022
 2915POPC   C4A39906   6.807  28.305   7.407
 2915POPC   C1B39907   6.497  28.058   6.239
 2915POPC   C2B39908   6.444  28.171   6.685
 2915POPC   C3B39909   6.203  28.082   7.058
 2915POPC   C4B39910   6.284  28.250   7.473
 2916POPC   NC339911  23.245  26.429   5.653
 2916POPC   PO439912  22.937  26.884   5.232
 2916POPC   GL139913  22.987  26.911   5.720
 2916POPC   GL239914  23.309  26.910   5.863
 2916POPC   C1A39915  22.844  26.712   6.181
 2916POPC   D2A39916  22.994  26.631   6.631
 2916POPC   C3A39917  22.788  26.811   6.974
 2916POPC   C4A39918  22.785  26.659   7.391
 2916POPC   C1B39919  23.328  26.832   6.303
 2916POPC   C2B39920  23.363  26.998   6.706
 2916POPC   C3B39921  23.299  26.928   7.138
 2916POPC   C4B39922  23.480  26.887   7.555
 2917POPC   NC339923  36.066  28.037   5.281
 2917POPC   PO439924  36.220  28.670   5.203
 2917POPC   GL139925  36.100  28.469   5.635
 2917POPC   GL239926  35.761  28.333   5.666
 2917POPC   C1A39927  36.105  28.500   6.114
 2917POPC   D2A39928  36.299  28.533   6.547
 2917POPC   C3A39929  36.180  28.388   6.945
 2917POPC   C4A39930  36.317  28.329   7.367
 2917POPC   C1B39931  35.926  28.031   5.975
 2917POPC   C2B39932  35.940  28.101   6.418
 2917POPC   C3B39933  35.784  28.115   6.834
 2917POPC   C4B39934  35.806  28.209   7.308
 2918POPC   NC339935  25.988   1.697   5.364
 2918POPC   PO439936  25.826   1.039   5.411
 2918POPC   GL139937  26.075   1.107   5.784
 2918POPC   GL239938  26.101   1.458   5.814
 2918POPC   C1A39939  26.094   0.988   6.240
 2918POPC   D2A39940  26.223   0.792   6.651
 2918POPC   C3A39941  26.181   1.034   7.054
 2918POPC   C4A39942  26.249   1.157   7.443
 2918POPC   C1B39943  25.888   1.665   6.176
 2918POPC   C2B39944  25.979   1.728   6.624
 2918POPC   C3B39945  25.838   1.494   6.995
 2918POPC   C4B39946  25.918   1.532   7.451
 2919POPC   NC339947  21.856  13.408   5.402
 2919POPC   PO439948  22.430  13.713   5.387
 2919POPC   GL139949  22.198  13.568   5.775
 2919POPC   GL239950  21.825  13.697   5.821
 2919POPC   C1A39951  22.374  13.460   6.190
 2919POPC   D2A39952  22.210  13.425   6.616
 2919POPC   C3A39953  22.361  13.693   6.930
 2919POPC   C4A39954  22.335  13.532   7.342
 2919POPC   C1B39955  21.908  13.664   6.259
 2919POPC   C2B39956  21.845  13.792   6.681
 2919POPC   C3B39957  21.885  13.513   7.032
 2919POPC   C4B39958  21.807  13.501   7.473
 2920POPC   NC339959   3.988  44.720   5.125
 2920POPC   PO439960   4.463   0.013   5.451
 2920POPC   GL139961   4.349  44.697   5.772
 2920POPC   GL239962   3.995  44.563   5.763
 2920POPC   C1A39963   4.520  44.729   6.184
 2920POPC   D2A39964   4.494   0.015   6.496
 2920POPC   C3A39965   4.475  44.799   6.872
 2920POPC   C4A39966   4.633  44.727   7.280
 2920POPC   C1B39967   4.137  44.389   6.138
 2920POPC   C2B39968   4.089  44.644   6.483
 2920POPC   C3B39969   4.082  44.474   6.841
 2920POPC   C4B39970   4.371  44.314   7.128
 2921POPC   NC339971   7.631   3.029   5.523
 2921POPC   PO439972   8.322   2.783   5.409
 2921POPC   GL139973   8.047   2.739   5.773
 2921POPC   GL239974   8.018   3.069   5.852
 2921POPC   C1A39975   8.081   2.694   6.252
 2921POPC   D2A39976   8.210   2.608   6.694
 2921POPC   C3A39977   8.180   2.841   7.107
 2921POPC   C4A39978   8.242   2.666   7.586
 2921POPC   C1B39979   8.274   3.169   6.207
 2921POPC   C2B39980   8.416   3.056   6.575
 2921POPC   C3B39981   8.598   3.098   6.949
 2921POPC   C4B39982   8.596   2.974   7.387
 2922POPC   NC339983   0.425  31.480   5.404
 2922POPC   PO439984  44.937  31.942   5.367
 2922POPC   GL139985   0.160  31.705   5.774
 2922POPC   GL239986   0.577  31.687   5.823
 2922POPC   C1A39987   0.318  31.477   6.169
 2922POPC   D2A39988   0.353  31.638   6.584
 2922POPC   C3A39989   0.189  31.399   6.939
 2922POPC   C4A39990   0.422  31.172   7.233
 2922POPC   C1B39991   0.795  31.620   6.200
 2922POPC   C2B39992   0.837  31.450   6.589
 2922POPC   C3B39993   0.674  31.537   6.978
 2922POPC   C4B39994   0.733  31.621   7.392
 2923POPC   NC339995  22.030  25.387   5.347
 2923POPC   PO439996  22.775  25.328   5.474
 2923POPC   GL139997  22.423  25.435   5.735
 2923POPC   GL239998  22.152  25.196   5.797
 2923POPC   C1A39999  22.272  25.514   6.164
 2923POPC   D2A40000  22.064  25.198   6.421
 2923POPC   C3A40001  22.122  25.321   6.857
 2923POPC   C4A40002  21.940  25.147   7.250
 2923POPC   C1B40003  22.463  25.045   6.105
 2923POPC   C2B40004  22.502  24.980   6.575
 2923POPC   C3B40005  22.322  24.876   6.971
 2923POPC   C4B40006  22.383  24.898   7.429
 2924POPC   NC340007   6.971  36.052   5.436
 2924POPC   PO440008   7.587  35.786   5.566
 2924POPC   GL140009   7.574  36.065   5.954
 2924POPC   GL240010   7.225  36.176   5.920
 2924POPC   C1A40011   7.752  36.196   6.371
 2924POPC   D2A40012   7.501  36.296   6.742
 2924POPC   C3A40013   7.667  36.193   7.146
 2924POPC   C4A40014   7.553  36.050   7.563
 2924POPC   C1B40015   6.900  36.029   6.216
 2924POPC   C2B40016   6.929  35.923   6.667
 2924POPC   C3B40017   7.206  35.941   7.025
 2924POPC   C4B40018   7.095  35.915   7.429
 2925POPC   NC340019  35.727  43.423   5.678
 2925POPC   PO440020  35.524  42.849   5.420
 2925POPC   GL140021  35.436  43.048   5.808
 2925POPC   GL240022  35.788  43.045   6.010
 2925POPC   C1A40023  35.296  43.061   6.222
 2925POPC   D2A40024  35.406  43.113   6.649
 2925POPC   C3A40025  35.036  43.062   6.878
 2925POPC   C4A40026  35.104  42.796   7.225
 2925POPC   C1B40027  35.665  43.422   6.309
 2925POPC   C2B40028  35.713  43.532   6.745
 2925POPC   C3B40029  35.703  43.252   7.101
 2925POPC   C4B40030  35.696  43.318   7.589
 2926POPC   NC340031  19.962  13.419   5.040
 2926POPC   PO440032  19.878  13.911   5.507
 2926POPC   GL140033  19.872  13.706   5.888
 2926POPC   GL240034  19.592  13.491   5.807
 2926POPC   C1A40035  19.794  13.833   6.300
 2926POPC   D2A40036  19.996  13.913   6.668
 2926POPC   C3A40037  19.703  13.817   6.969
 2926POPC   C4A40038  19.706  13.906   7.399
 2926POPC   C1B40039  19.680  13.328   6.193
 2926POPC   C2B40040  19.528  13.450   6.592
 2926POPC   C3B40041  19.495  13.185   6.930
 2926POPC   C4B40042  19.825  13.194   7.208
 2927POPC   NC340043  36.704   9.841   5.098
 2927POPC   PO440044  37.199   9.450   5.319
 2927POPC   GL140045  37.120   9.714   5.728
 2927POPC   GL240046  36.776   9.848   5.791
 2927POPC   C1A40047  37.139   9.907   6.172
 2927POPC   D2A40048  37.253   9.850   6.633
 2927POPC   C3A40049  36.887   9.906   6.912
 2927POPC   C4A40050  36.614   9.715   7.242
 2927POPC   C1B40051  36.770   9.535   6.175
 2927POPC   C2B40052  36.673   9.528   6.662
 2927POPC   C3B40053  36.622   9.234   7.061
 2927POPC   C4B40054  36.625   9.298   7.555
 2928POPC   NC340055  21.697  33.152   5.483
 2928POPC   PO440056  22.336  33.019   5.347
 2928POPC   GL140057  22.137  33.001   5.728
 2928POPC   GL240058  22.457  32.889   5.824
 2928POPC   C1A40059  21.914  33.077   6.123
 2928POPC   D2A40060  22.155  33.075   6.478
 2928POPC   C3A40061  21.983  33.049   6.866
 2928POPC   C4A40062  22.124  33.164   7.219
 2928POPC   C1B40063  22.586  32.951   6.208
 2928POPC   C2B40064  22.567  32.805   6.619
 2928POPC   C3B40065  22.550  33.067   6.958
 2928POPC   C4B40066  22.516  32.885   7.362
 2929POPC   NC340067   1.217  21.497   4.969
 2929POPC   PO440068   1.668  21.127   5.390
 2929POPC   GL140069   1.401  21.334   5.729
 2929POPC   GL240070   1.059  21.448   5.733
 2929POPC   C1A40071   1.320  21.444   6.173
 2929POPC   D2A40072   1.205  21.290   6.585
 2929POPC   C3A40073   1.296  21.533   6.955
 2929POPC   C4A40074   1.302  21.429   7.394
 2929POPC   C1B40075   0.896  21.729   6.072
 2929POPC   C2B40076   1.045  21.791   6.501
 2929POPC   C3B40077   0.878  21.804   6.924
 2929POPC   C4B40078   0.819  21.631   7.352
 2930POPC   NC340079  30.113  34.358   5.387
 2930POPC   PO440080  29.759  34.948   5.320
 2930POPC   GL140081  29.722  34.694   5.755
 2930POPC   GL240082  30.040  34.607   5.823
 2930POPC   C1A40083  29.806  34.572   6.263
 2930POPC   D2A40084  29.671  34.352   6.664
 2930POPC   C3A40085  29.720  34.587   7.089
 2930POPC   C4A40086  29.848  34.443   7.529
 2930POPC   C1B40087  30.158  34.255   6.054
 2930POPC   C2B40088  30.175  34.209   6.494
 2930POPC   C3B40089  30.150  34.485   6.830
 2930POPC   C4B40090  30.208  34.647   7.230
 2931POPC   NC340091  13.739  30.823   5.212
 2931POPC   PO440092  13.120  30.904   5.247
 2931POPC   GL140093  13.428  30.757   5.628
 2931POPC   GL240094  13.762  30.857   5.723
 2931POPC   C1A40095  13.462  30.588   6.091
 2931POPC   D2A40096  13.661  30.499   6.493
 2931POPC   C3A40097  13.498  30.525   6.929
 2931POPC   C4A40098  13.678  30.318   7.313
 2931POPC   C1B40099  13.505  31.085   6.048
 2931POPC   C2B40100  13.456  30.979   6.503
 2931POPC   C3B40101  13.597  31.033   6.935
 2931POPC   C4B40102  13.393  31.287   7.247
 2932POPC   NC340103   3.139  35.978   5.391
 2932POPC   PO440104   3.624  36.358   5.444
 2932POPC   GL140105   3.556  36.168   5.827
 2932POPC   GL240106   3.212  36.325   5.861
 2932POPC   C1A40107   3.720  35.849   6.179
 2932POPC   D2A40108   3.745  35.560   6.619
 2932POPC   C3A40109   3.746  35.839   7.025
 2932POPC   C4A40110   3.709  36.299   7.193
 2932POPC   C1B40111   3.235  36.012   6.188
 2932POPC   C2B40112   3.392  35.927   6.595
 2932POPC   C3B40113   3.283  36.104   6.982
 2932POPC   C4B40114   3.335  35.980   7.356
 2933POPC   NC340115  36.486  38.204   5.024
 2933POPC   PO440116  37.009  38.441   5.440
 2933POPC   GL140117  36.971  38.528   5.836
 2933POPC   GL240118  37.247  38.409   5.940
 2933POPC   C1A40119  36.805  38.468   6.253
 2933POPC   D2A40120  36.922  38.479   6.642
 2933POPC   C3A40121  36.586  38.492   6.906
 2933POPC   C4A40122  36.659  38.666   7.295
 2933POPC   C1B40123  37.182  38.089   6.236
 2933POPC   C2B40124  37.155  38.039   6.654
 2933POPC   C3B40125  37.304  38.314   6.997
 2933POPC   C4B40126  37.260  38.245   7.440
 2934POPC   NC340127  43.425  20.345   5.621
 2934POPC   PO440128  43.862  20.716   5.249
 2934POPC   GL140129  43.919  20.765   5.689
 2934POPC   GL240130  44.276  20.869   5.709
 2934POPC   C1A40131  43.784  20.610   6.110
 2934POPC   D2A40132  43.937  20.415   6.493
 2934POPC   C3A40133  43.833  20.601   6.856
 2934POPC   C4A40134  43.787  20.450   7.224
 2934POPC   C1B40135  44.298  20.710   6.188
 2934POPC   C2B40136  44.356  20.706   6.664
 2934POPC   C3B40137  44.261  20.697   7.120
 2934POPC   C4B40138  44.202  20.391   7.497
 2935POPC   NC340139   7.385  41.853   5.566
 2935POPC   PO440140   7.238  41.287   5.613
 2935POPC   GL140141   7.444  41.514   5.943
 2935POPC   GL240142   7.714  41.768   5.921
 2935POPC   C1A40143   7.304  41.576   6.348
 2935POPC   D2A40144   7.190  41.227   6.590
 2935POPC   C3A40145   7.304  41.221   6.976
 2935POPC   C4A40146   7.452  41.499   7.213
 2935POPC   C1B40147   7.826  41.583   6.292
 2935POPC   C2B40148   7.701  41.463   6.703
 2935POPC   C3B40149   7.882  41.680   7.038
 2935POPC   C4B40150   7.711  41.928   7.322
 2936POPC   NC340151  29.379  27.836   5.358
 2936POPC   PO440152  29.187  27.293   5.770
 2936POPC   GL140153  29.013  27.714   5.740
 2936POPC   GL240154  29.256  27.948   5.830
 2936POPC   C1A40155  28.861  27.837   6.152
 2936POPC   D2A40156  28.979  27.653   6.563
 2936POPC   C3A40157  28.791  27.683   6.971
 2936POPC   C4A40158  28.955  27.498   7.304
 2936POPC   C1B40159  29.378  27.765   6.236
 2936POPC   C2B40160  29.493  27.671   6.668
 2936POPC   C3B40161  29.410  27.600   7.112
 2936POPC   C4B40162  29.396  27.587   7.575
 2937POPC   NC340163  34.260  42.927   5.416
 2937POPC   PO440164  34.778  43.340   5.241
 2937POPC   GL140165  34.637  43.191   5.656
 2937POPC   GL240166  34.922  43.045   5.792
 2937POPC   C1A40167  34.468  43.249   6.082
 2937POPC   D2A40168  34.687  43.286   6.493
 2937POPC   C3A40169  34.504  43.154   6.877
 2937POPC   C4A40170  34.486  43.381   7.244
 2937POPC   C1B40171  34.806  42.874   6.193
 2937POPC   C2B40172  34.695  42.743   6.621
 2937POPC   C3B40173  34.613  42.692   7.067
 2937POPC   C4B40174  34.689  42.912   7.489
 2938POPC   NC340175  37.377   1.564   5.524
 2938POPC   PO440176  37.802   1.006   5.333
 2938POPC   GL140177  37.528   1.090   5.696
 2938POPC   GL240178  37.758   1.313   5.777
 2938POPC   C1A40179  37.440   1.270   6.165
 2938POPC   D2A40180  37.268   1.287   6.585
 2938POPC   C3A40181  37.448   1.445   6.894
 2938POPC   C4A40182  37.552   1.296   7.317
 2938POPC   C1B40183  37.956   1.272   6.151
 2938POPC   C2B40184  37.816   1.222   6.552
 2938POPC   C3B40185  37.934   1.321   6.951
 2938POPC   C4B40186  38.060   1.382   7.321
 2939POPC   NC340187   0.441  17.980   5.417
 2939POPC   PO440188   0.689  18.566   5.105
 2939POPC   GL140189   0.543  18.496   5.579
 2939POPC   GL240190   0.222  18.318   5.729
 2939POPC   C1A40191   0.576  18.510   6.050
 2939POPC   D2A40192   0.726  18.342   6.446
 2939POPC   C3A40193   0.595  18.407   6.893
 2939POPC   C4A40194   0.468  18.182   7.260
 2939POPC   C1B40195   0.253  18.102   6.146
 2939POPC   C2B40196   0.250  18.144   6.605
 2939POPC   C3B40197   0.214  17.873   6.970
 2939POPC   C4B40198   0.108  17.870   7.441
 2940POPC   NC340199  20.001  22.090   5.445
 2940POPC   PO440200  19.701  22.725   5.397
 2940POPC   GL140201  19.805  22.424   5.765
 2940POPC   GL240202  19.519  22.290   5.851
 2940POPC   C1A40203  19.913  22.104   6.139
 2940POPC   D2A40204  19.905  22.102   6.592
 2940POPC   C3A40205  19.904  21.724   6.827
 2940POPC   C4A40206  19.775  21.701   7.216
 2940POPC   C1B40207  19.419  22.200   6.263
 2940POPC   C2B40208  19.456  22.335   6.677
 2940POPC   C3B40209  19.555  22.149   7.079
 2940POPC   C4B40210  19.573  22.354   7.497
 2941POPC   NC340211  25.898  41.210   5.008
 2941POPC   PO440212  26.140  40.669   5.349
 2941POPC   GL140213  26.065  40.905   5.732
 2941POPC   GL240214  26.324  41.143   5.718
 2941POPC   C1A40215  25.949  40.753   6.158
 2941POPC   D2A40216  25.950  40.827   6.615
 2941POPC   C3A40217  26.051  40.742   7.059
 2941POPC   C4A40218  25.737  40.788   7.376
 2941POPC   C1B40219  26.465  41.221   6.138
 2941POPC   C2B40220  26.387  41.060   6.558
 2941POPC   C3B40221  26.245  41.216   6.954
 2941POPC   C4B40222  26.268  41.107   7.368
 2942POPC   NC340223  36.946   6.430   5.307
 2942POPC   PO440224  36.673   7.061   5.232
 2942POPC   GL140225  36.619   6.922   5.706
 2942POPC   GL240226  36.756   6.562   5.801
 2942POPC   C1A40227  36.500   6.972   6.175
 2942POPC   D2A40228  36.341   6.925   6.642
 2942POPC   C3A40229  36.644   6.786   6.971
 2942POPC   C4A40230  36.775   6.392   7.143
 2942POPC   C1B40231  37.112   6.344   6.088
 2942POPC   C2B40232  37.237   6.125   6.514
 2942POPC   C3B40233  37.244   6.254   6.976
 2942POPC   C4B40234  37.183   6.724   7.091
 2943POPC   NC340235  17.368  33.928   5.160
 2943POPC   PO440236  17.753  33.602   5.613
 2943POPC   GL140237  17.608  33.786   5.955
 2943POPC   GL240238  17.459  34.045   5.811
 2943POPC   C1A40239  17.686  33.707   6.345
 2943POPC   D2A40240  17.931  33.717   6.668
 2943POPC   C3A40241  17.693  33.604   7.003
 2943POPC   C4A40242  17.577  33.754   7.369
 2943POPC   C1B40243  17.542  34.190   6.247
 2943POPC   C2B40244  17.465  34.031   6.685
 2943POPC   C3B40245  17.387  34.119   7.100
 2943POPC   C4B40246  17.274  34.148   7.552
 2944POPC   NC340247  38.567  22.684   5.355
 2944POPC   PO440248  38.613  23.407   5.433
 2944POPC   GL140249  38.370  23.232   5.812
 2944POPC   GL240250  38.391  22.849   5.836
 2944POPC   C1A40251  38.309  23.142   6.271
 2944POPC   D2A40252  38.540  22.861   6.576
 2944POPC   C3A40253  38.768  22.992   6.943
 2944POPC   C4A40254  38.733  23.333   7.230
 2944POPC   C1B40255  38.241  22.627   6.229
 2944POPC   C2B40256  38.089  22.684   6.713
 2944POPC   C3B40257  38.297  22.785   7.129
 2944POPC   C4B40258  38.227  22.698   7.621
 2945POPC   NC340259  42.707   1.516   5.081
 2945POPC   PO440260  42.287   1.084   5.501
 2945POPC   GL140261  42.297   1.183   5.937
 2945POPC   GL240262  42.574   1.386   6.070
 2945POPC   C1A40263  42.156   1.068   6.343
 2945POPC   D2A40264  42.353   0.848   6.664
 2945POPC   C3A40265  42.219   1.053   7.040
 2945POPC   C4A40266  42.377   1.421   7.212
 2945POPC   C1B40267  42.219   1.574   6.271
 2945POPC   C2B40268  42.304   1.430   6.675
 2945POPC   C3B40269  42.722   1.417   6.847
 2945POPC   C4B40270  42.894   1.489   7.260
 2946POPC   NC340271  40.024  11.871   5.403
 2946POPC   PO440272  40.189  11.182   5.370
 2946POPC   GL140273  39.947  11.338   5.787
 2946POPC   GL240274  40.043  11.668   5.869
 2946POPC   C1A40275  39.906  11.412   6.304
 2946POPC   D2A40276  40.017  11.356   6.791
 2946POPC   C3A40277  39.778  11.258   7.200
 2946POPC   C4A40278  39.857  11.305   7.672
 2946POPC   C1B40279  40.117  11.891   6.247
 2946POPC   C2B40280  40.316  11.739   6.612
 2946POPC   C3B40281  40.477  11.593   7.014
 2946POPC   C4B40282  40.263  11.399   7.351
 2947POPC   NC340283   6.500   5.009   5.526
 2947POPC   PO440284   7.139   5.171   5.445
 2947POPC   GL140285   6.877   5.206   5.829
 2947POPC   GL240286   6.504   5.366   5.872
 2947POPC   C1A40287   6.957   4.875   6.158
 2947POPC   D2A40288   7.050   4.773   6.593
 2947POPC   C3A40289   6.869   5.083   6.836
 2947POPC   C4A40290   6.601   5.026   7.175
 2947POPC   C1B40291   6.653   5.295   6.271
 2947POPC   C2B40292   6.554   5.430   6.634
 2947POPC   C3B40293   6.588   5.525   7.013
 2947POPC   C4B40294   6.227   5.450   7.235
 2948POPC   NC340295  33.354   6.819   5.448
 2948POPC   PO440296  34.069   6.526   5.312
 2948POPC   GL140297  33.995   6.671   5.739
 2948POPC   GL240298  33.693   6.820   5.815
 2948POPC   C1A40299  34.058   6.508   6.153
 2948POPC   D2A40300  33.917   6.351   6.548
 2948POPC   C3A40301  34.011   6.465   6.943
 2948POPC   C4A40302  33.614   6.607   7.162
 2948POPC   C1B40303  33.850   6.979   6.188
 2948POPC   C2B40304  34.081   6.845   6.542
 2948POPC   C3B40305  33.918   6.957   6.912
 2948POPC   C4B40306  34.048   6.823   7.318
 2949POPC   NC340307  42.396   2.248   5.240
 2949POPC   PO440308  42.287   1.575   5.260
 2949POPC   GL140309  42.408   1.862   5.685
 2949POPC   GL240310  42.397   2.236   5.749
 2949POPC   C1A40311  42.601   1.926   6.132
 2949POPC   D2A40312  42.356   2.001   6.534
 2949POPC   C3A40313  42.428   1.861   6.928
 2949POPC   C4A40314  42.590   1.926   7.313
 2949POPC   C1B40315  42.108   2.047   6.066
 2949POPC   C2B40316  41.948   2.295   6.465
 2949POPC   C3B40317  42.030   2.232   6.915
 2949POPC   C4B40318  42.094   2.005   7.296
 2950POPC   NC340319  10.883  21.067   5.451
 2950POPC   PO440320  10.317  21.415   5.225
 2950POPC   GL140321  10.370  21.478   5.668
 2950POPC   GL240322  10.712  21.452   5.759
 2950POPC   C1A40323  10.315  21.429   6.122
 2950POPC   D2A40324  10.541  21.529   6.449
 2950POPC   C3A40325  10.558  21.463   6.852
 2950POPC   C4A40326  10.478  21.568   7.257
 2950POPC   C1B40327  10.756  21.155   6.123
 2950POPC   C2B40328  10.507  20.990   6.439
 2950POPC   C3B40329  10.638  20.962   6.869
 2950POPC   C4B40330  10.905  21.238   7.154
 2951POPC   NC340331  28.522  27.450   5.019
 2951POPC   PO440332  28.252  28.010   5.407
 2951POPC   GL140333  28.487  27.785   5.760
 2951POPC   GL240334  28.603  27.403   5.788
 2951POPC   C1A40335  28.369  27.715   6.201
 2951POPC   D2A40336  28.530  27.931   6.558
 2951POPC   C3A40337  28.304  27.810   6.894
 2951POPC   C4A40338  28.256  27.786   7.324
 2951POPC   C1B40339  28.713  27.332   6.240
 2951POPC   C2B40340  28.525  27.373   6.647
 2951POPC   C3B40341  28.319  27.326   7.045
 2951POPC   C4B40342  28.503  27.353   7.461
 2952POPC   NC340343  31.038  17.833   5.744
 2952POPC   PO440344  30.522  17.383   5.486
 2952POPC   GL140345  30.767  17.397   5.868
 2952POPC   GL240346  30.538  17.673   5.939
 2952POPC   C1A40347  30.863  17.343   6.321
 2952POPC   D2A40348  30.544  17.391   6.653
 2952POPC   C3A40349  30.632  17.401   7.102
 2952POPC   C4A40350  30.547  17.116   7.425
 2952POPC   C1B40351  30.684  17.833   6.317
 2952POPC   C2B40352  31.051  17.798   6.564
 2952POPC   C3B40353  31.107  17.562   6.927
 2952POPC   C4B40354  31.137  17.706   7.327
 2953POPC   NC340355  16.757  15.441   5.177
 2953POPC   PO440356  16.556  14.791   5.355
 2953POPC   GL140357  16.684  15.150   5.596
 2953POPC   GL240358  16.409  15.203   5.765
 2953POPC   C1A40359  16.842  15.232   6.031
 2953POPC   D2A40360  16.784  15.008   6.416
 2953POPC   C3A40361  16.669  15.252   6.765
 2953POPC   C4A40362  16.846  15.238   7.170
 2953POPC   C1B40363  16.325  15.057   6.215
 2953POPC   C2B40364  16.275  14.945   6.687
 2953POPC   C3B40365  16.465  14.852   7.100
 2953POPC   C4B40366  16.533  14.754   7.562
 2954POPC   NC340367   6.326  14.631   5.433
 2954POPC   PO440368   6.879  14.181   5.313
 2954POPC   GL140369   6.701  14.322   5.713
 2954POPC   GL240370   6.382  14.180   5.702
 2954POPC   C1A40371   6.763  14.314   6.182
 2954POPC   D2A40372   6.870  14.120   6.613
 2954POPC   C3A40373   6.908  14.452   6.952
 2954POPC   C4A40374   6.641  14.534   7.300
 2954POPC   C1B40375   6.249  14.150   6.127
 2954POPC   C2B40376   6.340  14.097   6.550
 2954POPC   C3B40377   6.431  14.222   6.947
 2954POPC   C4B40378   6.236  13.976   7.211
 2955POPC   NC340379   5.020  17.164   5.316
 2955POPC   PO440380   5.429  17.482   5.794
 2955POPC   GL140381   5.176  17.740   6.043
 2955POPC   GL240382   4.862  17.717   5.847
 2955POPC   C1A40383   5.279  17.886   6.462
 2955POPC   D2A40384   5.252  17.553   6.739
 2955POPC   C3A40385   5.303  17.592   7.152
 2955POPC   C4A40386   5.050  17.421   7.497
 2955POPC   C1B40387   4.769  17.370   6.154
 2955POPC   C2B40388   4.653  17.395   6.601
 2955POPC   C3B40389   4.839  17.358   7.024
 2955POPC   C4B40390   4.606  17.225   7.397
 2956POPC   NC340391  22.507   1.810   5.514
 2956POPC   PO440392  22.942   2.274   5.268
 2956POPC   GL140393  22.888   2.065   5.746
 2956POPC   GL240394  22.778   1.704   5.919
 2956POPC   C1A40395  22.899   2.045   6.246
 2956POPC   D2A40396  22.817   1.866   6.660
 2956POPC   C3A40397  22.860   2.084   7.065
 2956POPC   C4A40398  22.993   2.107   7.522
 2956POPC   C1B40399  23.064   1.549   6.266
 2956POPC   C2B40400  23.294   1.650   6.660
 2956POPC   C3B40401  23.074   1.615   7.051
 2956POPC   C4B40402  22.794   1.667   7.407
 2957POPC   NC340403   1.183  30.965   5.399
 2957POPC   PO440404   1.109  30.403   5.089
 2957POPC   GL140405   1.109  30.547   5.655
 2957POPC   GL240406   0.895  30.846   5.782
 2957POPC   C1A40407   1.390  30.756   6.055
 2957POPC   D2A40408   1.586  30.862   6.503
 2957POPC   C3A40409   1.386  30.824   6.939
 2957POPC   C4A40410   1.071  30.697   7.246
 2957POPC   C1B40411   0.904  30.640   6.163
 2957POPC   C2B40412   0.758  30.613   6.567
 2957POPC   C3B40413   0.802  30.287   6.817
 2957POPC   C4B40414   0.811  30.237   7.224
 2958POPC   NC340415   3.264  36.687   5.480
 2958POPC   PO440416   3.887  37.069   5.443
 2958POPC   GL140417   3.596  37.024   5.753
 2958POPC   GL240418   3.658  36.690   5.837
 2958POPC   C1A40419   3.367  37.040   6.139
 2958POPC   D2A40420   3.400  36.907   6.587
 2958POPC   C3A40421   3.493  37.161   6.968
 2958POPC   C4A40422   3.739  37.184   7.353
 2958POPC   C1B40423   3.510  36.515   6.239
 2958POPC   C2B40424   3.525  36.428   6.685
 2958POPC   C3B40425   3.362  36.654   7.057
 2958POPC   C4B40426   3.554  36.736   7.475
 2959POPC   NC340427  24.126  12.494   5.284
 2959POPC   PO440428  24.608  12.889   5.276
 2959POPC   GL140429  24.539  12.802   5.756
 2959POPC   GL240430  24.646  12.472   5.788
 2959POPC   C1A40431  24.543  13.033   6.208
 2959POPC   D2A40432  24.343  13.098   6.630
 2959POPC   C3A40433  24.554  13.108   7.030
 2959POPC   C4A40434  24.215  13.020   7.305
 2959POPC   C1B40435  24.747  12.573   6.228
 2959POPC   C2B40436  24.704  12.737   6.677
 2959POPC   C3B40437  24.714  12.626   7.142
 2959POPC   C4B40438  24.725  12.464   7.613
 2960POPC   NC340439  14.568  40.510   5.428
 2960POPC   PO440440  13.909  40.615   5.446
 2960POPC   GL140441  14.206  40.733   5.753
 2960POPC   GL240442  14.126  41.069   5.825
 2960POPC   C1A40443  14.400  40.607   6.162
 2960POPC   D2A40444  14.365  40.777   6.598
 2960POPC   C3A40445  14.447  40.592   7.016
 2960POPC   C4A40446  14.700  40.680   7.398
 2960POPC   C1B40447  14.014  40.937   6.230
 2960POPC   C2B40448  13.867  40.978   6.661
 2960POPC   C3B40449  14.074  40.952   7.064
 2960POPC   C4B40450  14.222  40.804   7.466
 2961POPC   NC340451  18.953  41.819   5.401
 2961POPC   PO440452  18.945  41.150   5.308
 2961POPC   GL140453  18.968  41.404   5.713
 2961POPC   GL240454  19.245  41.680   5.815
 2961POPC   C1A40455  18.910  41.503   6.161
 2961POPC   D2A40456  19.159  41.426   6.526
 2961POPC   C3A40457  19.012  41.486   6.941
 2961POPC   C4A40458  18.824  41.343   7.323
 2961POPC   C1B40459  19.416  41.789   6.255
 2961POPC   C2B40460  19.380  41.842   6.751
 2961POPC   C3B40461  19.471  41.686   7.191
 2961POPC   C4B40462  19.375  41.841   7.644
 2962POPC   NC340463  26.482  40.204   5.539
 2962POPC   PO440464  25.884  39.898   5.381
 2962POPC   GL140465  25.963  39.726   5.812
 2962POPC   GL240466  26.033  40.073   5.874
 2962POPC   C1A40467  26.108  39.710   6.236
 2962POPC   D2A40468  26.049  39.839   6.618
 2962POPC   C3A40469  26.337  40.014   6.897
 2962POPC   C4A40470  26.394  39.761   7.192
 2962POPC   C1B40471  26.065  40.254   6.289
 2962POPC   C2B40472  25.993  40.335   6.740
 2962POPC   C3B40473  25.861  40.269   7.146
 2962POPC   C4B40474  25.797  40.305   7.559
 2963POPC   NC340475  23.297  32.534   5.521
 2963POPC   PO440476  22.747  32.110   5.405
 2963POPC   GL140477  22.934  32.232   5.767
 2963POPC   GL240478  22.648  32.414   5.833
 2963POPC   C1A40479  22.948  32.106   6.196
 2963POPC   D2A40480  23.051  32.234   6.616
 2963POPC   C3A40481  23.043  31.993   6.970
 2963POPC   C4A40482  23.080  32.057   7.438
 2963POPC   C1B40483  22.419  32.172   6.083
 2963POPC   C2B40484  22.538  32.331   6.455
 2963POPC   C3B40485  22.614  32.283   6.866
 2963POPC   C4B40486  22.654  32.311   7.277
 2964POPC   NC340487  19.168  14.336   5.236
 2964POPC   PO440488  18.520  14.490   5.322
 2964POPC   GL140489  18.786  14.433   5.738
 2964POPC   GL240490  19.013  14.205   5.719
 2964POPC   C1A40491  19.093  14.518   6.112
 2964POPC   D2A40492  19.293  14.657   6.509
 2964POPC   C3A40493  19.204  14.484   6.912
 2964POPC   C4A40494  19.005  14.522   7.329
 2964POPC   C1B40495  18.887  14.061   6.129
 2964POPC   C2B40496  18.856  14.287   6.541
 2964POPC   C3B40497  18.863  14.139   6.977
 2964POPC   C4B40498  19.244  14.077   7.255
 2965POPC   NC340499  35.691  34.836   5.488
 2965POPC   PO440500  35.177  34.475   5.193
 2965POPC   GL140501  35.246  34.526   5.697
 2965POPC   GL240502  35.545  34.391   5.732
 2965POPC   C1A40503  35.200  34.755   6.123
 2965POPC   D2A40504  35.182  34.958   6.556
 2965POPC   C3A40505  35.124  34.752   6.968
 2965POPC   C4A40506  35.148  34.852   7.446
 2965POPC   C1B40507  35.599  34.360   6.146
 2965POPC   C2B40508  35.540  34.576   6.504
 2965POPC   C3B40509  35.535  34.431   6.895
 2965POPC   C4B40510  35.554  34.602   7.266
 2966POPC   NC340511  19.760   9.423   5.470
 2966POPC   PO440512  19.863  10.097   5.359
 2966POPC   GL140513  19.934   9.927   5.776
 2966POPC   GL240514  20.174   9.629   5.716
 2966POPC   C1A40515  19.731   9.964   6.202
 2966POPC   D2A40516  19.507   9.927   6.615
 2966POPC   C3A40517  19.813   9.936   6.977
 2966POPC   C4A40518  19.721  10.075   7.391
 2966POPC   C1B40519  20.077   9.482   6.131
 2966POPC   C2B40520  20.134   9.543   6.587
 2966POPC   C3B40521  20.145   9.439   7.049
 2966POPC   C4B40522  19.881   9.583   7.416
 2967POPC   NC340523  11.455  12.898   5.495
 2967POPC   PO440524  10.805  12.746   5.352
 2967POPC   GL140525  11.020  12.708   5.756
 2967POPC   GL240526  11.007  13.019   5.918
 2967POPC   C1A40527  11.261  12.641   6.179
 2967POPC   D2A40528  11.090  12.538   6.592
 2967POPC   C3A40529  11.256  12.836   6.885
 2967POPC   C4A40530  11.048  12.896   7.234
 2967POPC   C1B40531  11.368  13.147   6.211
 2967POPC   C2B40532  11.633  13.053   6.594
 2967POPC   C3B40533  11.771  13.205   7.014
 2967POPC   C4B40534  11.763  13.416   7.444
 2968POPC   NC340535  34.053  38.175   5.365
 2968POPC   PO440536  33.802  38.794   5.365
 2968POPC   GL140537  33.721  38.443   5.665
 2968POPC   GL240538  33.827  38.663   5.936
 2968POPC   C1A40539  33.679  38.234   6.125
 2968POPC   D2A40540  33.728  38.456   6.538
 2968POPC   C3A40541  33.778  38.175   6.897
 2968POPC   C4A40542  33.933  38.173   7.324
 2968POPC   C1B40543  34.164  38.648   6.250
 2968POPC   C2B40544  34.277  38.616   6.675
 2968POPC   C3B40545  34.170  38.592   7.098
 2968POPC   C4B40546  34.152  38.594   7.564
 2969POPC   NC340547   3.261   1.913   5.539
 2969POPC   PO440548   3.906   2.173   5.432
 2969POPC   GL140549   3.684   2.082   5.751
 2969POPC   GL240550   3.666   1.708   5.771
 2969POPC   C1A40551   3.743   2.057   6.170
 2969POPC   D2A40552   3.599   2.264   6.503
 2969POPC   C3A40553   3.602   2.052   6.869
 2969POPC   C4A40554   3.251   2.144   7.118
 2969POPC   C1B40555   3.436   1.612   6.176
 2969POPC   C2B40556   3.507   1.571   6.625
 2969POPC   C3B40557   3.290   1.653   7.023
 2969POPC   C4B40558   3.254   1.639   7.479
 2970POPC   NC340559  21.100  27.728   5.128
 2970POPC   PO440560  21.677  27.493   5.480
 2970POPC   GL140561  21.468  27.557   5.842
 2970POPC   GL240562  21.643  27.853   5.980
 2970POPC   C1A40563  21.281  27.430   6.219
 2970POPC   D2A40564  21.067  27.610   6.576
 2970POPC   C3A40565  21.313  27.608   6.961
 2970POPC   C4A40566  21.406  27.346   7.324
 2970POPC   C1B40567  21.803  27.474   6.212
 2970POPC   C2B40568  21.615  27.361   6.604
 2970POPC   C3B40569  21.801  27.465   6.999
 2970POPC   C4B40570  21.761  27.715   7.343
 2971POPC   NC340571  31.969  11.611   5.413
 2971POPC   PO440572  32.036  10.883   5.248
 2971POPC   GL140573  32.139  11.022   5.682
 2971POPC   GL240574  32.477  10.926   5.796
 2971POPC   C1A40575  31.990  11.094   6.131
 2971POPC   D2A40576  32.105  11.313   6.537
 2971POPC   C3A40577  32.017  11.173   6.974
 2971POPC   C4A40578  32.236  11.143   7.375
 2971POPC   C1B40579  32.503  11.162   6.213
 2971POPC   C2B40580  32.619  11.231   6.677
 2971POPC   C3B40581  32.556  11.436   7.087
 2971POPC   C4B40582  32.656  11.431   7.548
 2972POPC   NC340583  37.480   3.466   5.310
 2972POPC   PO440584  37.480   3.005   5.816
 2972POPC   GL140585  37.764   3.353   5.837
 2972POPC   GL240586  37.590   3.643   5.783
 2972POPC   C1A40587  37.947   3.628   6.167
 2972POPC   D2A40588  38.011   3.863   6.558
 2972POPC   C3A40589  37.912   3.637   6.948
 2972POPC   C4A40590  38.074   3.840   7.283
 2972POPC   C1B40591  37.435   3.783   6.182
 2972POPC   C2B40592  37.516   3.674   6.613
 2972POPC   C3B40593  37.409   3.827   7.038
 2972POPC   C4B40594  37.152   3.628   7.350
 2973POPC   NC340595   2.386   9.424   4.980
 2973POPC   PO440596   2.740   9.936   5.310
 2973POPC   GL140597   2.793   9.688   5.749
 2973POPC   GL240598   3.172   9.584   5.845
 2973POPC   C1A40599   2.594   9.547   6.209
 2973POPC   D2A40600   2.327   9.462   6.635
 2973POPC   C3A40601   2.518   9.574   7.053
 2973POPC   C4A40602   2.731  10.000   7.115
 2973POPC   C1B40603   2.996   9.879   6.162
 2973POPC   C2B40604   2.895   9.972   6.581
 2973POPC   C3B40605   2.978   9.642   6.852
 2973POPC   C4B40606   3.070   9.615   7.255
 2974POPC   NC340607  29.363  42.284   5.439
 2974POPC   PO440608  28.648  42.261   5.477
 2974POPC   GL140609  28.975  42.365   5.805
 2974POPC   GL240610  29.043  42.708   5.921
 2974POPC   C1A40611  29.062  42.160   6.225
 2974POPC   D2A40612  28.819  41.946   6.581
 2974POPC   C3A40613  28.960  42.076   6.982
 2974POPC   C4A40614  29.087  42.430   7.191
 2974POPC   C1B40615  29.302  42.685   6.297
 2974POPC   C2B40616  29.269  42.396   6.645
 2974POPC   C3B40617  29.490  42.226   6.975
 2974POPC   C4B40618  29.632  42.502   7.303
 2975POPC   NC340619  23.752  19.669   5.208
 2975POPC   PO440620  23.722  20.081   5.555
 2975POPC   GL140621  23.782  19.662   5.758
 2975POPC   GL240622  24.132  19.662   5.823
 2975POPC   C1A40623  23.728  19.447   6.192
 2975POPC   D2A40624  23.854  19.513   6.662
 2975POPC   C3A40625  23.582  19.657   7.030
 2975POPC   C4A40626  23.601  19.650   7.501
 2975POPC   C1B40627  24.082  19.818   6.276
 2975POPC   C2B40628  24.022  20.006   6.703
 2975POPC   C3B40629  24.011  19.887   7.154
 2975POPC   C4B40630  24.160  19.826   7.577
 2976POPC   NC340631  29.025  22.991   5.429
 2976POPC   PO440632  29.626  22.803   5.231
 2976POPC   GL140633  29.454  22.829   5.723
 2976POPC   GL240634  29.094  22.767   5.900
 2976POPC   C1A40635  29.327  23.139   6.099
 2976POPC   D2A40636  29.067  23.016   6.468
 2976POPC   C3A40637  29.111  23.233   6.882
 2976POPC   C4A40638  29.136  23.096   7.305
 2976POPC   C1B40639  29.356  22.619   6.238
 2976POPC   C2B40640  29.411  22.702   6.695
 2976POPC   C3B40641  29.138  22.639   7.084
 2976POPC   C4B40642  29.234  22.610   7.554
 2977POPC   NC340643  34.203  16.094   5.491
 2977POPC   PO440644  33.677  15.646   5.377
 2977POPC   GL140645  33.780  15.752   5.766
 2977POPC   GL240646  33.591  16.027   5.954
 2977POPC   C1A40647  33.730  15.569   6.170
 2977POPC   D2A40648  33.645  15.816   6.520
 2977POPC   C3A40649  33.938  15.815   6.836
 2977POPC   C4A40650  33.768  15.793   7.207
 2977POPC   C1B40651  34.013  16.010   6.136
 2977POPC   C2B40652  34.115  16.181   6.493
 2977POPC   C3B40653  33.855  16.335   6.816
 2977POPC   C4B40654  33.889  16.327   7.255
 2978POPC   NC340655  31.111  16.255   5.450
 2978POPC   PO440656  31.749  16.012   5.450
 2978POPC   GL140657  31.452  16.039   5.794
 2978POPC   GL240658  31.185  15.764   5.765
 2978POPC   C1A40659  31.495  15.818   6.180
 2978POPC   D2A40660  31.615  15.535   6.482
 2978POPC   C3A40661  31.567  15.731   6.888
 2978POPC   C4A40662  31.228  15.766   7.190
 2978POPC   C1B40663  31.020  15.942   6.155
 2978POPC   C2B40664  31.157  16.033   6.596
 2978POPC   C3B40665  31.157  16.256   7.006
 2978POPC   C4B40666  31.130  16.357   7.456
 2979POPC   NC340667  43.194   4.069   5.404
 2979POPC   PO440668  42.998   4.720   5.284
 2979POPC   GL140669  42.952   4.571   5.722
 2979POPC   GL240670  43.256   4.398   5.787
 2979POPC   C1A40671  43.019   4.600   6.194
 2979POPC   D2A40672  42.881   4.537   6.615
 2979POPC   C3A40673  43.095   4.331   6.960
 2979POPC   C4A40674  42.835   4.157   7.291
 2979POPC   C1B40675  43.208   4.099   6.141
 2979POPC   C2B40676  43.358   3.879   6.524
 2979POPC   C3B40677  43.516   3.997   6.913
 2979POPC   C4B40678  43.322   3.935   7.283
 2980POPC   NC340679  38.705  30.385   5.488
 2980POPC   PO440680  38.254  30.889   5.399
 2980POPC   GL140681  38.481  30.787   5.743
 2980POPC   GL240682  38.762  30.958   5.853
 2980POPC   C1A40683  38.342  30.816   6.159
 2980POPC   D2A40684  38.234  30.539   6.499
 2980POPC   C3A40685  38.258  30.747   6.882
 2980POPC   C4A40686  38.334  30.642   7.298
 2980POPC   C1B40687  38.850  30.766   6.269
 2980POPC   C2B40688  38.782  30.708   6.729
 2980POPC   C3B40689  38.806  30.834   7.174
 2980POPC   C4B40690  38.853  30.577   7.537
 2981POPC   NC340691  38.988  40.328   5.388
 2981POPC   PO440692  39.540  39.868   5.241
 2981POPC   GL140693  39.422  39.836   5.704
 2981POPC   GL240694  39.276  40.163   5.825
 2981POPC   C1A40695  39.288  39.759   6.161
 2981POPC   D2A40696  39.004  39.966   6.495
 2981POPC   C3A40697  39.085  39.910   6.947
 2981POPC   C4A40698  39.448  39.787   7.196
 2981POPC   C1B40699  39.509  40.228   6.224
 2981POPC   C2B40700  39.430  40.365   6.668
 2981POPC   C3B40701  39.597  40.290   7.113
 2981POPC   C4B40702  39.377  40.403   7.512
 2982POPC   NC340703  32.981  25.717   5.558
 2982POPC   PO440704  32.853  25.147   5.213
 2982POPC   GL140705  32.862  25.205   5.677
 2982POPC   GL240706  33.156  25.357   5.861
 2982POPC   C1A40707  32.636  25.227   6.083
 2982POPC   D2A40708  32.643  25.317   6.542
 2982POPC   C3A40709  32.966  25.154   6.846
 2982POPC   C4A40710  33.051  25.095   7.316
 2982POPC   C1B40711  32.970  25.603   6.225
 2982POPC   C2B40712  33.110  25.642   6.657
 2982POPC   C3B40713  33.145  25.555   7.097
 2982POPC   C4B40714  33.302  25.553   7.513
 2983POPC   NC340715   8.550  29.683   5.122
 2983POPC   PO440716   8.000  29.588   5.414
 2983POPC   GL140717   7.962  29.708   5.839
 2983POPC   GL240718   8.345  29.689   5.896
 2983POPC   C1A40719   8.031  29.760   6.295
 2983POPC   D2A40720   7.915  29.553   6.666
 2983POPC   C3A40721   8.004  29.763   7.059
 2983POPC   C4A40722   8.018  29.739   7.506
 2983POPC   C1B40723   8.505  29.535   6.339
 2983POPC   C2B40724   8.451  29.545   6.826
 2983POPC   C3B40725   8.486  29.792   7.245
 2983POPC   C4B40726   8.479  29.981   7.674
 2984POPC   NC340727  23.323  34.116   5.398
 2984POPC   PO440728  22.584  33.846   5.447
 2984POPC   GL140729  22.983  33.869   5.711
 2984POPC   GL240730  23.083  33.521   5.735
 2984POPC   C1A40731  23.212  34.013   6.140
 2984POPC   D2A40732  23.384  34.065   6.594
 2984POPC   C3A40733  23.227  33.859   6.971
 2984POPC   C4A40734  23.174  33.566   7.303
 2984POPC   C1B40735  22.852  33.637   6.133
 2984POPC   C2B40736  23.021  33.674   6.546
 2984POPC   C3B40737  22.759  33.629   6.943
 2984POPC   C4B40738  22.697  33.387   7.344
 2985POPC   NC340739   3.146  20.213   5.392
 2985POPC   PO440740   3.559  20.731   5.345
 2985POPC   GL140741   3.477  20.574   5.763
 2985POPC   GL240742   3.742  20.387   5.920
 2985POPC   C1A40743   3.343  20.569   6.212
 2985POPC   D2A40744   3.575  20.595   6.625
 2985POPC   C3A40745   3.260  20.676   6.955
 2985POPC   C4A40746   3.313  20.740   7.388
 2985POPC   C1B40747   3.653  20.169   6.327
 2985POPC   C2B40748   3.639  20.103   6.778
 2985POPC   C3B40749   3.679  20.372   7.138
 2985POPC   C4B40750   3.782  20.335   7.593
 2986POPC   NC340751  41.708  42.962   5.474
 2986POPC   PO440752  41.266  43.483   5.329
 2986POPC   GL140753  41.629  43.462   5.709
 2986POPC   GL240754  41.533  43.220   5.997
 2986POPC   C1A40755  41.880  43.512   6.167
 2986POPC   D2A40756  41.769  43.174   6.481
 2986POPC   C3A40757  41.508  43.158   6.842
 2986POPC   C4A40758  41.622  43.031   7.260
 2986POPC   C1B40759  41.298  43.022   6.365
 2986POPC   C2B40760  41.059  42.925   6.708
 2986POPC   C3B40761  41.263  42.718   7.027
 2986POPC   C4B40762  41.262  42.756   7.468
 2987POPC   NC340763  35.215   6.459   5.482
 2987POPC   PO440764  35.670   6.833   5.217
 2987POPC   GL140765  35.667   6.668   5.688
 2987POPC   GL240766  35.336   6.728   5.898
 2987POPC   C1A40767  35.675   6.450   6.125
 2987POPC   D2A40768  35.423   6.587   6.487
 2987POPC   C3A40769  35.433   6.472   6.937
 2987POPC   C4A40770  35.395   6.697   7.367
 2987POPC   C1B40771  34.988   6.656   6.214
 2987POPC   C2B40772  34.945   6.479   6.647
 2987POPC   C3B40773  34.950   6.619   7.080
 2987POPC   C4B40774  34.915   6.388   7.505
 2988POPC   NC340775  40.506  30.772   5.482
 2988POPC   PO440776  40.980  30.338   5.542
 2988POPC   GL140777  41.093  30.686   5.799
 2988POPC   GL240778  40.799  30.853   5.897
 2988POPC   C1A40779  41.162  30.746   6.235
 2988POPC   D2A40780  40.968  30.788   6.617
 2988POPC   C3A40781  41.198  30.738   6.997
 2988POPC   C4A40782  40.900  30.787   7.269
 2988POPC   C1B40783  40.579  30.815   6.264
 2988POPC   C2B40784  40.318  30.846   6.574
 2988POPC   C3B40785  40.414  30.841   7.001
 2988POPC   C4B40786  40.579  31.189   7.263
 2989POPC   NC340787  24.824  34.208   5.677
 2989POPC   PO440788  24.509  34.731   5.367
 2989POPC   GL140789  24.453  34.852   5.808
 2989POPC   GL240790  24.460  34.499   5.892
 2989POPC   C1A40791  24.484  34.809   6.293
 2989POPC   D2A40792  24.755  34.601   6.606
 2989POPC   C3A40793  24.751  34.789   6.987
 2989POPC   C4A40794  24.480  34.789   7.350
 2989POPC   C1B40795  24.543  34.264   6.281
 2989POPC   C2B40796  24.413  34.205   6.702
 2989POPC   C3B40797  24.614  34.302   7.088
 2989POPC   C4B40798  24.399  34.296   7.484
 2990POPC   NC340799  11.864  36.692   5.387
 2990POPC   PO440800  12.357  36.949   5.331
 2990POPC   GL140801  12.198  36.821   5.779
 2990POPC   GL240802  11.846  36.872   5.880
 2990POPC   C1A40803  12.133  36.613   6.238
 2990POPC   D2A40804  11.998  36.589   6.718
 2990POPC   C3A40805  12.200  36.804   7.109
 2990POPC   C4A40806  12.174  36.956   7.563
 2990POPC   C1B40807  11.640  36.776   6.282
 2990POPC   C2B40808  11.502  36.743   6.724
 2990POPC   C3B40809  11.686  36.773   7.130
 2990POPC   C4B40810  11.660  36.968   7.540
 2991POPC   NC340811  40.065  23.522   5.444
 2991POPC   PO440812  39.473  23.302   5.530
 2991POPC   GL140813  39.713  23.573   5.791
 2991POPC   GL240814  39.837  23.934   5.689
 2991POPC   C1A40815  39.995  23.577   6.115
 2991POPC   D2A40816  39.789  23.483   6.469
 2991POPC   C3A40817  39.952  23.630   6.821
 2991POPC   C4A40818  40.227  23.513   7.125
 2991POPC   C1B40819  40.064  24.084   6.055
 2991POPC   C2B40820  40.126  24.011   6.486
 2991POPC   C3B40821  40.114  24.107   6.923
 2991POPC   C4B40822  39.887  23.914   7.264
 2992POPC   NC340823  15.549  30.839   5.444
 2992POPC   PO440824  14.981  30.589   5.191
 2992POPC   GL140825  15.125  30.614   5.738
 2992POPC   GL240826  15.382  30.831   5.899
 2992POPC   C1A40827  15.174  30.646   6.293
 2992POPC   D2A40828  14.907  30.618   6.681
 2992POPC   C3A40829  15.155  30.698   7.048
 2992POPC   C4A40830  15.101  30.473   7.479
 2992POPC   C1B40831  15.421  31.132   6.250
 2992POPC   C2B40832  15.518  30.968   6.663
 2992POPC   C3B40833  15.598  31.045   7.095
 2992POPC   C4B40834  15.322  30.967   7.449
 2993POPC   NC340835   8.042  20.230   5.374
 2993POPC   PO440836   8.308  19.713   5.136
 2993POPC   GL140837   8.280  19.723   5.640
 2993POPC   GL240838   8.418  20.031   5.716
 2993POPC   C1A40839   8.084  19.784   6.125
 2993POPC   D2A40840   7.907  19.731   6.582
 2993POPC   C3A40841   8.093  19.831   6.940
 2993POPC   C4A40842   7.948  19.915   7.338
 2993POPC   C1B40843   8.534  19.978   6.128
 2993POPC   C2B40844   8.350  20.086   6.520
 2993POPC   C3B40845   8.537  20.089   6.937
 2993POPC   C4B40846   8.649  20.286   7.339
 2994POPC   NC340847  14.996  26.227   5.326
 2994POPC   PO440848  15.704  26.032   5.265
 2994POPC   GL140849  15.410  26.123   5.673
 2994POPC   GL240850  15.124  26.357   5.799
 2994POPC   C1A40851  15.193  25.928   6.066
 2994POPC   D2A40852  15.212  25.704   6.485
 2994POPC   C3A40853  14.903  25.755   6.846
 2994POPC   C4A40854  14.895  25.854   7.292
 2994POPC   C1B40855  15.214  26.421   6.208
 2994POPC   C2B40856  15.141  26.204   6.555
 2994POPC   C3B40857  15.129  26.207   6.980
 2994POPC   C4B40858  15.286  26.420   7.303
 2995POPC   NC340859  13.666  33.193   5.317
 2995POPC   PO440860  14.168  32.782   5.256
 2995POPC   GL140861  14.025  32.895   5.730
 2995POPC   GL240862  13.711  33.112   5.814
 2995POPC   C1A40863  13.887  32.836   6.202
 2995POPC   D2A40864  13.840  33.088   6.615
 2995POPC   C3A40865  13.609  33.002   6.992
 2995POPC   C4A40866  13.324  33.275   7.209
 2995POPC   C1B40867  13.923  33.357   6.160
 2995POPC   C2B40868  13.848  33.593   6.577
 2995POPC   C3B40869  13.850  33.493   7.032
 2995POPC   C4B40870  14.078  33.164   7.225
 2996POPC   NC340871  22.351  20.189   5.633
 2996POPC   PO440872  21.837  20.462   5.354
 2996POPC   GL140873  21.945  20.483   5.805
 2996POPC   GL240874  21.865  20.806   5.901
 2996POPC   C1A40875  22.042  20.501   6.285
 2996POPC   D2A40876  22.242  20.432   6.716
 2996POPC   C3A40877  22.187  20.657   7.143
 2996POPC   C4A40878  22.222  20.460   7.581
 2996POPC   C1B40879  21.725  20.915   6.305
 2996POPC   C2B40880  21.847  20.784   6.701
 2996POPC   C3B40881  21.688  20.741   7.095
 2996POPC   C4B40882  21.877  20.933   7.470
 2997POPC   NC340883  16.451  12.507   5.449
 2997POPC   PO440884  17.131  12.516   5.343
 2997POPC   GL140885  16.870  12.685   5.721
 2997POPC   GL240886  16.609  13.001   5.770
 2997POPC   C1A40887  16.793  12.716   6.163
 2997POPC   D2A40888  17.012  12.900   6.497
 2997POPC   C3A40889  16.758  12.840   6.829
 2997POPC   C4A40890  16.700  12.559   7.151
 2997POPC   C1B40891  16.413  13.298   6.098
 2997POPC   C2B40892  16.293  13.308   6.537
 2997POPC   C3B40893  16.415  13.247   6.943
 2997POPC   C4B40894  16.606  13.054   7.257
 2998POPC   NC340895  44.832  40.890   5.387
 2998POPC   PO440896   0.119  40.475   5.845
 2998POPC   GL140897  44.850  40.822   5.874
 2998POPC   GL240898  44.483  40.857   5.764
 2998POPC   C1A40899  44.790  41.012   6.190
 2998POPC   D2A40900  44.755  40.760   6.537
 2998POPC   C3A40901  44.824  40.980   6.895
 2998POPC   C4A40902  44.890  40.761   7.221
 2998POPC   C1B40903  44.285  40.856   6.147
 2998POPC   C2B40904  44.281  40.922   6.558
 2998POPC   C3B40905  44.385  40.726   6.946
 2998POPC   C4B40906  44.434  41.005   7.285
 2999POPC   NC340907  23.295  40.570   5.225
 2999POPC   PO440908  23.844  40.922   5.228
 2999POPC   GL140909  23.519  40.883   5.589
 2999POPC   GL240910  23.376  41.243   5.599
 2999POPC   C1A40911  23.469  40.636   6.019
 2999POPC   D2A40912  23.595  40.491   6.450
 2999POPC   C3A40913  23.414  40.534   6.871
 2999POPC   C4A40914  23.653  40.648   7.254
 2999POPC   C1B40915  23.455  41.155   6.035
 2999POPC   C2B40916  23.452  40.990   6.468
 2999POPC   C3B40917  23.668  41.006   6.881
 2999POPC   C4B40918  23.560  41.302   7.218
 3000POPC   NC340919   7.480   3.842   5.335
 3000POPC   PO440920   7.165   3.179   5.387
 3000POPC   GL140921   7.317   3.465   5.665
 3000POPC   GL240922   7.112   3.759   5.689
 3000POPC   C1A40923   7.452   3.378   6.050
 3000POPC   D2A40924   7.377   3.179   6.484
 3000POPC   C3A40925   7.536   3.463   6.789
 3000POPC   C4A40926   7.462   3.572   7.187
 3000POPC   C1B40927   7.300   3.898   6.083
 3000POPC   C2B40928   7.546   3.864   6.466
 3000POPC   C3B40929   7.535   4.011   6.915
 3000POPC   C4B40930   7.766   3.956   7.320
 3001POPC   NC340931  31.695  30.364   5.518
 3001POPC   PO440932  32.298  30.557   5.282
 3001POPC   GL140933  32.292  30.592   5.711
 3001POPC   GL240934  32.561  30.811   5.757
 3001POPC   C1A40935  32.202  30.684   6.132
 3001POPC   D2A40936  32.068  30.843   6.516
 3001POPC   C3A40937  32.211  30.703   6.912
 3001POPC   C4A40938  31.978  30.593   7.259
 3001POPC   C1B40939  32.548  31.066   6.131
 3001POPC   C2B40940  32.463  31.160   6.570
 3001POPC   C3B40941  32.635  30.978   6.962
 3001POPC   C4B40942  32.611  30.809   7.388
 3002POPC   NC340943  21.524  12.864   5.492
 3002POPC   PO440944  22.141  13.054   5.472
 3002POPC   GL140945  21.892  13.123   5.837
 3002POPC   GL240946  21.895  12.775   5.888
 3002POPC   C1A40947  21.936  13.112   6.293
 3002POPC   D2A40948  22.137  12.872   6.627
 3002POPC   C3A40949  21.943  12.863   6.989
 3002POPC   C4A40950  22.080  13.119   7.283
 3002POPC   C1B40951  22.172  12.631   6.192
 3002POPC   C2B40952  22.550  12.577   6.483
 3002POPC   C3B40953  22.552  12.532   6.934
 3002POPC   C4B40954  22.278  12.646   7.306
 3003POPC   NC340955  34.358  19.986   5.371
 3003POPC   PO440956  34.828  19.495   5.312
 3003POPC   GL140957  34.597  19.656   5.716
 3003POPC   GL240958  34.431  19.963   5.881
 3003POPC   C1A40959  34.416  19.538   6.153
 3003POPC   D2A40960  34.518  19.686   6.574
 3003POPC   C3A40961  34.776  19.530   6.888
 3003POPC   C4A40962  34.970  19.559   7.284
 3003POPC   C1B40963  34.494  20.135   6.319
 3003POPC   C2B40964  34.591  20.160   6.780
 3003POPC   C3B40965  34.538  19.925   7.175
 3003POPC   C4B40966  34.346  20.083   7.567
 3004POPC   NC340967  35.397  17.618   5.405
 3004POPC   PO440968  35.268  17.036   5.489
 3004POPC   GL140969  35.248  17.390   5.845
 3004POPC   GL240970  35.512  17.667   5.896
 3004POPC   C1A40971  35.138  17.642   6.244
 3004POPC   D2A40972  35.294  17.819   6.629
 3004POPC   C3A40973  35.177  17.648   7.033
 3004POPC   C4A40974  35.436  17.811   7.375
 3004POPC   C1B40975  35.556  17.370   6.263
 3004POPC   C2B40976  35.385  17.312   6.674
 3004POPC   C3B40977  35.517  17.278   7.100
 3004POPC   C4B40978  35.523  16.939   7.397
 3005POPC   NC340979  37.084  31.288   5.329
 3005POPC   PO440980  37.325  31.920   5.267
 3005POPC   GL140981  37.309  31.667   5.705
 3005POPC   GL240982  37.211  31.306   5.845
 3005POPC   C1A40983  37.066  31.706   6.135
 3005POPC   D2A40984  36.942  31.501   6.567
 3005POPC   C3A40985  36.872  31.554   7.085
 3005POPC   C4A40986  36.879  31.750   7.536
 3005POPC   C1B40987  36.809  31.197   6.078
 3005POPC   C2B40988  36.545  31.185   6.452
 3005POPC   C3B40989  36.771  31.112   6.834
 3005POPC   C4B40990  36.918  31.027   7.222
 3006POPC   NC340991  42.927  35.767   5.208
 3006POPC   PO440992  43.416  35.388   5.400
 3006POPC   GL140993  43.234  35.557   5.730
 3006POPC   GL240994  43.033  35.310   5.893
 3006POPC   C1A40995  43.394  35.562   6.160
 3006POPC   D2A40996  43.305  35.241   6.487
 3006POPC   C3A40997  43.358  35.418   6.906
 3006POPC   C4A40998  43.203  35.402   7.331
 3006POPC   C1B40999  42.822  35.079   6.214
 3006POPC   C2B41000  42.820  35.042   6.651
 3006POPC   C3B41001  43.040  34.999   7.048
 3006POPC   C4B41002  42.958  35.002   7.528
 3007POPC   NC341003   3.484  37.509   5.556
 3007POPC   PO441004   4.058  37.537   5.218
 3007POPC   GL141005   3.958  37.564   5.703
 3007POPC   GL241006   3.908  37.901   5.854
 3007POPC   C1A41007   3.754  37.439   6.143
 3007POPC   D2A41008   3.399  37.424   6.483
 3007POPC   C3A41009   3.363  37.662   6.892
 3007POPC   C4A41010   3.370  37.532   7.350
 3007POPC   C1B41011   3.794  37.926   6.312
 3007POPC   C2B41012   3.855  37.613   6.665
 3007POPC   C3B41013   3.823  37.641   7.117
 3007POPC   C4B41014   3.978  37.981   7.358
 3008POPC   NC341015  43.701  15.037   5.054
 3008POPC   PO441016  44.228  15.235   5.484
 3008POPC   GL141017  44.072  15.149   5.822
 3008POPC   GL241018  43.693  15.193   5.776
 3008POPC   C1A41019  44.320  15.305   6.192
 3008POPC   D2A41020  44.140  15.488   6.562
 3008POPC   C3A41021  44.036  15.280   6.946
 3008POPC   C4A41022  43.864  15.528   7.221
 3008POPC   C1B41023  43.814  15.351   6.189
 3008POPC   C2B41024  43.690  15.207   6.562
 3008POPC   C3B41025  43.515  15.295   6.910
 3008POPC   C4B41026  43.542  15.113   7.289
 3009POPC   NC341027   0.209   6.892   5.470
 3009POPC   PO441028   0.664   6.541   5.519
 3009POPC   GL141029   0.342   6.536   5.844
 3009POPC   GL241030   0.532   6.801   5.973
 3009POPC   C1A41031   0.068   6.336   6.183
 3009POPC   D2A41032   0.223   6.246   6.639
 3009POPC   C3A41033   0.072   6.459   7.044
 3009POPC   C4A41034   0.159   6.782   7.422
 3009POPC   C1B41035   0.416   6.663   6.374
 3009POPC   C2B41036   0.340   6.790   6.764
 3009POPC   C3B41037   0.554   6.688   7.107
 3009POPC   C4B41038   0.946   6.560   7.216
 3010POPC   NC341039  19.144  10.164   5.204
 3010POPC   PO441040  19.553  10.601   5.537
 3010POPC   GL141041  19.745  10.459   5.890
 3010POPC   GL241042  20.060  10.507   5.842
 3010POPC   C1A41043  19.819  10.558   6.292
 3010POPC   D2A41044  19.845  10.313   6.608
 3010POPC   C3A41045  19.839  10.625   6.871
 3010POPC   C4A41046  19.808  10.552   7.250
 3010POPC   C1B41047  20.191  10.210   6.159
 3010POPC   C2B41048  20.342  10.358   6.562
 3010POPC   C3B41049  20.223  10.336   6.998
 3010POPC   C4B41050  20.269  10.386   7.421
 3011POPC   NC341051   9.506  27.029   5.413
 3011POPC   PO441052   9.940  26.519   5.289
 3011POPC   GL141053   9.853  26.664   5.737
 3011POPC   GL241054  10.076  26.927   5.794
 3011POPC   C1A41055   9.719  26.871   6.180
 3011POPC   D2A41056   9.677  26.690   6.646
 3011POPC   C3A41057   9.662  26.901   7.095
 3011POPC   C4A41058   9.635  26.961   7.576
 3011POPC   C1B41059  10.188  26.687   6.158
 3011POPC   C2B41060  10.201  26.701   6.593
 3011POPC   C3B41061  10.044  26.570   7.003
 3011POPC   C4B41062   9.972  26.571   7.446
 3012POPC   NC341063  28.146   0.270   5.437
 3012POPC   PO441064  27.501   0.538   5.406
 3012POPC   GL141065  27.669   0.347   5.797
 3012POPC   GL241066  27.971   0.553   5.842
 3012POPC   C1A41067  27.462   0.248   6.248
 3012POPC   D2A41068  27.342   0.437   6.690
 3012POPC   C3A41069  27.365   0.245   7.121
 3012POPC   C4A41070  27.406   0.537   7.461
 3012POPC   C1B41071  27.977   0.267   6.211
 3012POPC   C2B41072  27.801   0.207   6.632
 3012POPC   C3B41073  27.859   0.362   7.047
 3012POPC   C4B41074  27.815   0.224   7.460
 3013POPC   NC341075  33.633  37.433   5.441
 3013POPC   PO441076  33.272  36.840   5.358
 3013POPC   GL141077  33.129  36.844   5.758
 3013POPC   GL241078  32.858  37.100   5.764
 3013POPC   C1A41079  33.288  36.915   6.160
 3013POPC   D2A41080  33.098  36.926   6.542
 3013POPC   C3A41081  33.340  36.983   6.896
 3013POPC   C4A41082  33.333  37.283   7.236
 3013POPC   C1B41083  32.747  36.865   6.138
 3013POPC   C2B41084  32.580  36.939   6.560
 3013POPC   C3B41085  32.796  37.083   6.924
 3013POPC   C4B41086  32.993  36.858   7.237
 3014POPC   NC341087  15.228   1.967   5.362
 3014POPC   PO441088  15.102   1.346   5.406
 3014POPC   GL141089  15.308   1.338   5.821
 3014POPC   GL241090  15.311   0.978   5.908
 3014POPC   C1A41091  15.452   1.326   6.254
 3014POPC   D2A41092  15.178   1.276   6.626
 3014POPC   C3A41093  15.311   1.251   7.045
 3014POPC   C4A41094  15.559   1.233   7.388
 3014POPC   C1B41095  15.276   0.824   6.367
 3014POPC   C2B41096  15.195   0.801   6.845
 3014POPC   C3B41097  14.857   1.039   7.112
 3014POPC   C4B41098  14.638   1.054   7.523
 3015POPC   NC341099  24.348  26.643   5.444
 3015POPC   PO441100  24.548  27.202   5.481
 3015POPC   GL141101  24.740  26.934   5.770
 3015POPC   GL241102  24.430  26.912   5.953
 3015POPC   C1A41103  24.871  26.912   6.221
 3015POPC   D2A41104  24.683  26.992   6.648
 3015POPC   C3A41105  24.710  26.665   6.995
 3015POPC   C4A41106  24.489  26.333   7.264
 3015POPC   C1B41107  24.518  27.321   6.203
 3015POPC   C2B41108  24.443  27.469   6.642
 3015POPC   C3B41109  24.321  27.175   6.990
 3015POPC   C4B41110  24.248  26.807   7.227
 3016POPC   NC341111  20.018   5.641   5.044
 3016POPC   PO441112  19.447   5.444   5.405
 3016POPC   GL141113  19.724   5.735   5.658
 3016POPC   GL241114  19.596   6.103   5.615
 3016POPC   C1A41115  19.899   5.822   6.091
 3016POPC   D2A41116  19.974   5.673   6.532
 3016POPC   C3A41117  20.017   5.935   6.871
 3016POPC   C4A41118  19.797   5.770   7.207
 3016POPC   C1B41119  19.511   6.147   6.079
 3016POPC   C2B41120  19.714   6.127   6.488
 3016POPC   C3B41121  19.543   6.091   6.902
 3016POPC   C4B41122  19.435   6.163   7.329
 3017POPC   NC341123  29.770  43.589   5.106
 3017POPC   PO441124  29.980  44.037   5.552
 3017POPC   GL141125  29.937  43.684   5.808
 3017POPC   GL241126  29.653  43.439   5.677
 3017POPC   C1A41127  29.982  43.853   6.239
 3017POPC   D2A41128  30.205  44.151   6.547
 3017POPC   C3A41129  30.157  44.061   6.982
 3017POPC   C4A41130  29.929  43.750   7.209
 3017POPC   C1B41131  29.562  43.556   6.133
 3017POPC   C2B41132  29.688  43.607   6.572
 3017POPC   C3B41133  29.603  43.434   6.953
 3017POPC   C4B41134  29.417  43.351   7.330
 3018POPC   NC341135  36.960  30.298   5.405
 3018POPC   PO441136  36.737  30.984   5.258
 3018POPC   GL141137  36.811  30.788   5.712
 3018POPC   GL241138  36.704  30.446   5.816
 3018POPC   C1A41139  37.026  30.675   6.144
 3018POPC   D2A41140  37.159  30.778   6.576
 3018POPC   C3A41141  36.946  30.630   6.930
 3018POPC   C4A41142  37.030  30.509   7.341
 3018POPC   C1B41143  36.503  30.638   6.197
 3018POPC   C2B41144  36.506  30.709   6.658
 3018POPC   C3B41145  36.466  30.805   7.107
 3018POPC   C4B41146  36.603  30.778   7.538
 3019POPC   NC341147  19.982  26.509   5.362
 3019POPC   PO441148  19.432  26.881   5.431
 3019POPC   GL141149  19.793  26.836   5.733
 3019POPC   GL241150  19.843  26.479   5.854
 3019POPC   C1A41151  19.876  26.916   6.186
 3019POPC   D2A41152  19.531  26.808   6.508
 3019POPC   C3A41153  19.517  26.932   6.937
 3019POPC   C4A41154  19.926  27.019   7.057
 3019POPC   C1B41155  19.840  26.426   6.304
 3019POPC   C2B41156  20.077  26.660   6.635
 3019POPC   C3B41157  20.173  26.561   7.040
 3019POPC   C4B41158  19.717  26.494   7.138
 3020POPC   NC341159  40.589  31.760   5.355
 3020POPC   PO441160  40.813  31.146   5.473
 3020POPC   GL141161  40.809  31.367   5.854
 3020POPC   GL241162  40.668  31.704   5.857
 3020POPC   C1A41163  40.867  31.233   6.292
 3020POPC   D2A41164  40.690  31.197   6.704
 3020POPC   C3A41165  41.025  31.229   7.004
 3020POPC   C4A41166  41.060  31.245   7.464
 3020POPC   C1B41167  40.957  31.731   6.207
 3020POPC   C2B41168  40.783  31.684   6.585
 3020POPC   C3B41169  40.741  31.650   7.015
 3020POPC   C4B41170  41.098  31.733   7.311
 3021POPC   NC341171  14.966  31.649   5.500
 3021POPC   PO441172  15.661  31.288   5.412
 3021POPC   GL141173  15.384  31.378   5.776
 3021POPC   GL241174  15.112  31.193   5.695
 3021POPC   C1A41175  15.120  31.529   6.154
 3021POPC   D2A41176  15.203  31.562   6.605
 3021POPC   C3A41177  15.032  31.682   7.035
 3021POPC   C4A41178  15.171  31.783   7.467
 3021POPC   C1B41179  14.937  31.041   6.077
 3021POPC   C2B41180  14.996  31.092   6.532
 3021POPC   C3B41181  15.134  31.191   6.947
 3021POPC   C4B41182  14.923  31.245   7.319
 3022POPC   NC341183  34.522  18.068   5.370
 3022POPC   PO441184  34.984  18.508   5.349
 3022POPC   GL141185  34.738  18.331   5.780
 3022POPC   GL241186  34.358  18.335   5.778
 3022POPC   C1A41187  34.567  18.363   6.253
 3022POPC   D2A41188  34.564  18.326   6.733
 3022POPC   C3A41189  34.636  18.681   7.047
 3022POPC   C4A41190  34.881  18.694   7.493
 3022POPC   C1B41191  34.236  17.974   6.070
 3022POPC   C2B41192  34.302  17.857   6.502
 3022POPC   C3B41193  34.241  17.993   6.935
 3022POPC   C4B41194  34.261  18.363   7.207
 3023POPC   NC341195   8.716  19.834   5.321
 3023POPC   PO441196   9.384  20.071   5.457
 3023POPC   GL141197   9.119  19.856   5.775
 3023POPC   GL241198   8.791  19.677   5.790
 3023POPC   C1A41199   9.070  19.718   6.208
 3023POPC   D2A41200   8.845  19.879   6.548
 3023POPC   C3A41201   8.854  19.666   6.894
 3023POPC   C4A41202   8.948  19.909   7.208
 3023POPC   C1B41203   8.499  19.472   6.084
 3023POPC   C2B41204   8.424  19.586   6.512
 3023POPC   C3B41205   8.396  19.446   6.915
 3023POPC   C4B41206   8.461  19.702   7.276
 3024POPC   NC341207  19.743  24.094   5.387
 3024POPC   PO441208  20.123  24.629   5.197
 3024POPC   GL141209  19.926  24.564   5.721
 3024POPC   GL241210  19.837  24.243   5.880
 3024POPC   C1A41211  19.992  24.711   6.163
 3024POPC   D2A41212  20.046  24.417   6.502
 3024POPC   C3A41213  20.027  24.476   6.939
 3024POPC   C4A41214  20.239  24.723   7.301
 3024POPC   C1B41215  19.594  24.398   6.260
 3024POPC   C2B41216  19.574  24.355   6.714
 3024POPC   C3B41217  19.553  24.375   7.157
 3024POPC   C4B41218  19.576  24.279   7.606
 3025POPC   NC341219  21.805   6.530   5.206
 3025POPC   PO441220  22.368   6.016   5.404
 3025POPC   GL141221  22.214   5.945   5.840
 3025POPC   GL241222  22.023   6.173   5.914
 3025POPC   C1A41223  22.016   5.739   6.202
 3025POPC   D2A41224  21.930   5.818   6.639
 3025POPC   C3A41225  22.214   5.957   6.942
 3025POPC   C4A41226  22.097   6.111   7.331
 3025POPC   C1B41227  21.811   6.211   6.293
 3025POPC   C2B41228  21.684   6.287   6.704
 3025POPC   C3B41229  21.651   5.975   7.051
 3025POPC   C4B41230  21.904   5.630   7.175
 3026POPC   NC341231  21.873  40.194   5.300
 3026POPC   PO441232  22.045  40.838   5.098
 3026POPC   GL141233  21.942  40.656   5.586
 3026POPC   GL241234  22.231  40.768   5.884
 3026POPC   C1A41235  21.829  40.434   5.986
 3026POPC   D2A41236  21.814  40.551   6.447
 3026POPC   C3A41237  22.073  40.643   6.820
 3026POPC   C4A41238  22.311  40.457   7.146
 3026POPC   C1B41239  22.529  41.030   6.205
 3026POPC   C2B41240  22.575  41.133   6.664
 3026POPC   C3B41241  22.419  40.964   7.069
 3026POPC   C4B41242  22.326  40.833   7.518
 3027POPC   NC341243   6.780  13.742   5.492
 3027POPC   PO441244   6.167  13.753   5.483
 3027POPC   GL141245   6.367  13.693   5.871
 3027POPC   GL241246   6.617  13.430   5.896
 3027POPC   C1A41247   6.643  13.813   6.220
 3027POPC   D2A41248   6.767  13.587   6.567
 3027POPC   C3A41249   6.554  13.714   6.913
 3027POPC   C4A41250   6.449  13.508   7.304
 3027POPC   C1B41251   6.909  13.248   6.204
 3027POPC   C2B41252   7.095  13.155   6.598
 3027POPC   C3B41253   6.963  13.102   7.017
 3027POPC   C4B41254   6.721  13.094   7.411
 3028POPC   NC341255  38.140  32.397   5.453
 3028POPC   PO441256  37.438  32.475   5.461
 3028POPC   GL141257  37.551  32.322   5.816
 3028POPC   GL241258  37.878  32.153   5.828
 3028POPC   C1A41259  37.665  32.432   6.242
 3028POPC   D2A41260  37.750  32.153   6.573
 3028POPC   C3A41261  37.792  32.281   7.013
 3028POPC   C4A41262  37.554  32.419   7.423
 3028POPC   C1B41263  37.555  31.909   6.095
 3028POPC   C2B41264  37.408  31.768   6.498
 3028POPC   C3B41265  37.174  31.864   6.834
 3028POPC   C4B41266  37.259  31.879   7.244
 3029POPC   NC341267   5.103  16.156   5.352
 3029POPC   PO441268   5.605  15.632   5.356
 3029POPC   GL141269   5.240  15.707   5.744
 3029POPC   GL241270   5.178  16.059   5.835
 3029POPC   C1A41271   5.013  15.760   6.206
 3029POPC   D2A41272   4.754  15.648   6.596
 3029POPC   C3A41273   4.790  15.895   6.969
 3029POPC   C4A41274   5.144  15.920   7.227
 3029POPC   C1B41275   5.349  16.176   6.232
 3029POPC   C2B41276   5.207  16.133   6.674
 3029POPC   C3B41277   5.378  16.325   7.044
 3029POPC   C4B41278   5.414  16.231   7.546
 3030POPC   NC341279  30.532  21.873   5.290
 3030POPC   PO441280  30.964  22.371   5.391
 3030POPC   GL141281  30.685  22.375   5.788
 3030POPC   GL241282  30.499  22.055   5.778
 3030POPC   C1A41283  30.633  22.261   6.269
 3030POPC   D2A41284  30.570  22.232   6.724
 3030POPC   C3A41285  30.909  22.148   6.966
 3030POPC   C4A41286  30.956  22.332   7.338
 3030POPC   C1B41287  30.551  21.779   6.147
 3030POPC   C2B41288  30.318  21.872   6.492
 3030POPC   C3B41289  30.291  21.848   6.928
 3030POPC   C4B41290  30.541  21.891   7.268
 3031POPC   NC341291  32.885  37.464   5.392
 3031POPC   PO441292  33.433  37.734   5.164
 3031POPC   GL141293  33.260  37.664   5.701
 3031POPC   GL241294  33.308  37.342   5.834
 3031POPC   C1A41295  33.075  37.880   6.128
 3031POPC   D2A41296  32.885  38.068   6.544
 3031POPC   C3A41297  33.131  38.146   6.921
 3031POPC   C4A41298  33.193  37.948   7.333
 3031POPC   C1B41299  33.018  37.356   6.189
 3031POPC   C2B41300  33.062  37.572   6.571
 3031POPC   C3B41301  32.998  37.591   7.004
 3031POPC   C4B41302  32.826  37.362   7.347
 3032POPC   NC341303  17.659   1.622   5.588
 3032POPC   PO441304  17.636   0.983   5.339
 3032POPC   GL141305  17.640   1.058   5.769
 3032POPC   GL241306  17.291   1.159   5.777
 3032POPC   C1A41307  17.581   1.284   6.189
 3032POPC   D2A41308  17.278   1.231   6.522
 3032POPC   C3A41309  17.403   1.443   6.905
 3032POPC   C4A41310  17.582   1.311   7.302
 3032POPC   C1B41311  17.326   0.838   6.114
 3032POPC   C2B41312  17.597   0.827   6.453
 3032POPC   C3B41313  17.528   0.926   6.888
 3032POPC   C4B41314  17.388   0.855   7.285
 3033POPC   NC341315   6.479  44.957   5.450
 3033POPC   PO441316   7.041  44.500   5.539
 3033POPC   GL141317   6.800  44.721   5.862
 3033POPC   GL241318   6.426  44.805   5.923
 3033POPC   C1A41319   6.814  44.780   6.305
 3033POPC   D2A41320   7.022  44.919   6.679
 3033POPC   C3A41321   6.907  44.774   7.103
 3033POPC   C4A41322   6.716  44.864   7.498
 3033POPC   C1B41323   6.339  44.585   6.285
 3033POPC   C2B41324   6.520  44.628   6.695
 3033POPC   C3B41325   6.391  44.799   7.059
 3033POPC   C4B41326   6.208  44.937   7.407
 3034POPC   NC341327  12.577  14.126   5.125
 3034POPC   PO441328  13.088  14.226   5.578
 3034POPC   GL141329  12.987  14.596   5.785
 3034POPC   GL241330  12.660  14.499   5.845
 3034POPC   C1A41331  12.969  14.744   6.209
 3034POPC   D2A41332  12.813  14.573   6.591
 3034POPC   C3A41333  12.934  14.706   7.001
 3034POPC   C4A41334  13.033  14.539   7.434
 3034POPC   C1B41335  12.832  14.210   6.194
 3034POPC   C2B41336  12.701  14.077   6.629
 3034POPC   C3B41337  12.765  14.195   7.092
 3034POPC   C4B41338  12.557  14.002   7.482
 3035POPC   NC341339  25.559  32.288   5.379
 3035POPC   PO441340  26.193  32.102   5.139
 3035POPC   GL141341  26.125  32.198   5.628
 3035POPC   GL241342  26.147  31.887   5.825
 3035POPC   C1A41343  25.956  32.315   6.080
 3035POPC   D2A41344  25.849  32.564   6.473
 3035POPC   C3A41345  25.989  32.527   6.931
 3035POPC   C4A41346  25.965  32.739   7.370
 3035POPC   C1B41347  26.253  31.815   6.263
 3035POPC   C2B41348  26.360  31.837   6.708
 3035POPC   C3B41349  26.243  32.084   7.070
 3035POPC   C4B41350  25.957  32.221   7.398
 3036POPC   NC341351  34.917  16.108   5.189
 3036POPC   PO441352  34.456  15.651   5.555
 3036POPC   GL141353  34.671  15.863   5.825
 3036POPC   GL241354  34.653  16.229   5.795
 3036POPC   C1A41355  34.528  15.913   6.231
 3036POPC   D2A41356  34.404  15.764   6.608
 3036POPC   C3A41357  34.730  15.822   6.918
 3036POPC   C4A41358  34.774  16.135   7.229
 3036POPC   C1B41359  34.557  16.415   6.220
 3036POPC   C2B41360  34.606  16.247   6.640
 3036POPC   C3B41361  34.321  16.148   6.965
 3036POPC   C4B41362  34.228  15.987   7.361
 3037POPC   NC341363  21.599  43.482   5.084
 3037POPC   PO441364  21.161  43.944   5.394
 3037POPC   GL141365  21.165  43.776   5.835
 3037POPC   GL241366  21.518  43.892   5.934
 3037POPC   C1A41367  21.014  43.816   6.282
 3037POPC   D2A41368  21.327  43.802   6.564
 3037POPC   C3A41369  21.268  43.687   6.972
 3037POPC   C4A41370  21.611  43.695   7.253
 3037POPC   C1B41371  21.300  44.210   6.203
 3037POPC   C2B41372  21.197  44.282   6.663
 3037POPC   C3B41373  21.074  44.256   7.129
 3037POPC   C4B41374  21.118  44.075   7.542
 3038POPC   NC341375   8.451   1.526   5.355
 3038POPC   PO441376   9.045   1.337   5.289
 3038POPC   GL141377   8.854   1.326   5.735
 3038POPC   GL241378   9.063   1.078   5.901
 3038POPC   C1A41379   8.774   1.399   6.231
 3038POPC   D2A41380   8.584   1.492   6.690
 3038POPC   C3A41381   8.868   1.461   7.073
 3038POPC   C4A41382   8.879   1.327   7.519
 3038POPC   C1B41383   9.193   1.097   6.362
 3038POPC   C2B41384   9.146   1.096   6.833
 3038POPC   C3B41385   8.863   0.948   7.165
 3038POPC   C4B41386   8.928   0.794   7.572
 3039POPC   NC341387  22.167  24.237   5.210
 3039POPC   PO441388  22.000  24.916   5.378
 3039POPC   GL141389  22.083  24.692   5.804
 3039POPC   GL241390  22.164  24.349   5.757
 3039POPC   C1A41391  22.164  24.675   6.290
 3039POPC   D2A41392  22.418  24.455   6.644
 3039POPC   C3A41393  22.282  24.361   7.048
 3039POPC   C4A41394  21.991  24.608   7.240
 3039POPC   C1B41395  21.905  24.260   6.148
 3039POPC   C2B41396  21.871  24.359   6.608
 3039POPC   C3B41397  21.813  24.155   7.031
 3039POPC   C4B41398  21.875  24.177   7.490
 3040POPC   NC341399  42.616  20.155   5.297
 3040POPC   PO441400  42.620  19.484   5.424
 3040POPC   GL141401  42.364  19.749   5.750
 3040POPC   GL241402  42.402  20.101   5.763
 3040POPC   C1A41403  42.360  19.715   6.190
 3040POPC   D2A41404  42.259  19.520   6.572
 3040POPC   C3A41405  42.274  19.691   6.982
 3040POPC   C4A41406  42.111  19.510   7.350
 3040POPC   C1B41407  42.243  20.217   6.195
 3040POPC   C2B41408  42.174  20.109   6.619
 3040POPC   C3B41409  42.269  20.202   7.030
 3040POPC   C4B41410  42.084  20.093   7.432
 3041POPC   NC341411  22.535  17.625   5.709
 3041POPC   PO441412  23.158  17.420   5.453
 3041POPC   GL141413  23.055  17.581   5.852
 3041POPC   GL241414  22.871  17.280   5.895
 3041POPC   C1A41415  23.083  17.496   6.317
 3041POPC   D2A41416  23.259  17.390   6.749
 3041POPC   C3A41417  23.013  17.534   7.091
 3041POPC   C4A41418  22.588  17.683   7.069
 3041POPC   C1B41419  22.626  17.266   6.273
 3041POPC   C2B41420  22.741  17.355   6.686
 3041POPC   C3B41421  22.716  17.109   7.025
 3041POPC   C4B41422  22.652  17.250   7.392
 3042POPC   NC341423  42.183  24.362   5.136
 3042POPC   PO441424  42.570  24.764   5.526
 3042POPC   GL141425  42.238  24.743   5.780
 3042POPC   GL241426  42.210  24.387   5.808
 3042POPC   C1A41427  42.110  24.647   6.215
 3042POPC   D2A41428  42.293  24.512   6.582
 3042POPC   C3A41429  42.189  24.762   6.923
 3042POPC   C4A41430  42.307  24.649   7.302
 3042POPC   C1B41431  42.122  24.097   6.158
 3042POPC   C2B41432  42.181  23.965   6.590
 3042POPC   C3B41433  42.228  24.179   6.983
 3042POPC   C4B41434  41.958  24.307   7.304
 3043POPC   NC341435  30.250  14.303   5.360
 3043POPC   PO441436  29.619  14.221   5.340
 3043POPC   GL141437  29.850  14.475   5.683
 3043POPC   GL241438  30.110  14.262   5.849
 3043POPC   C1A41439  29.885  14.603   6.160
 3043POPC   D2A41440  30.152  14.465   6.544
 3043POPC   C3A41441  30.190  14.694   6.952
 3043POPC   C4A41442  29.903  14.626   7.277
 3043POPC   C1B41443  30.189  14.031   6.236
 3043POPC   C2B41444  30.129  13.943   6.686
 3043POPC   C3B41445  30.203  14.191   7.062
 3043POPC   C4B41446  29.976  14.166   7.454
 3044POPC   NC341447   9.982  15.735   5.373
 3044POPC   PO441448   9.413  16.156   5.415
 3044POPC   GL141449   9.656  16.057   5.814
 3044POPC   GL241450   9.984  16.139   5.827
 3044POPC   C1A41451   9.846  15.777   6.183
 3044POPC   D2A41452  10.062  15.842   6.596
 3044POPC   C3A41453   9.826  15.797   7.016
 3044POPC   C4A41454   9.579  16.154   7.238
 3044POPC   C1B41455   9.885  16.292   6.238
 3044POPC   C2B41456   9.702  16.220   6.624
 3044POPC   C3B41457   9.987  16.270   6.944
 3044POPC   C4B41458   9.949  16.544   7.268
 3045POPC   NC341459  20.867  13.266   5.438
 3045POPC   PO441460  21.134  12.621   5.409
 3045POPC   GL141461  21.151  12.760   5.809
 3045POPC   GL241462  21.417  12.520   5.858
 3045POPC   C1A41463  21.178  13.115   6.105
 3045POPC   D2A41464  21.444  13.213   6.491
 3045POPC   C3A41465  21.333  13.039   6.904
 3045POPC   C4A41466  21.569  13.099   7.260
 3045POPC   C1B41467  21.518  12.745   6.211
 3045POPC   C2B41468  21.633  12.718   6.604
 3045POPC   C3B41469  21.519  12.540   6.986
 3045POPC   C4B41470  21.814  12.440   7.273
 3046POPC   NC341471   2.764  32.410   5.420
 3046POPC   PO441472   3.119  31.715   5.407
 3046POPC   GL141473   2.833  31.951   5.651
 3046POPC   GL241474   3.046  32.166   5.786
 3046POPC   C1A41475   2.584  32.198   6.008
 3046POPC   D2A41476   2.601  32.327   6.433
 3046POPC   C3A41477   2.613  32.005   6.741
 3046POPC   C4A41478   2.562  32.031   7.169
 3046POPC   C1B41479   3.048  32.408   6.171
 3046POPC   C2B41480   3.091  32.209   6.583
 3046POPC   C3B41481   3.029  32.137   7.043
 3046POPC   C4B41482   2.960  32.331   7.444
 3047POPC   NC341483   3.531  31.949   5.482
 3047POPC   PO441484   3.206  32.565   5.482
 3047POPC   GL141485   3.503  32.369   5.763
 3047POPC   GL241486   3.846  32.321   5.857
 3047POPC   C1A41487   3.461  32.112   6.139
 3047POPC   D2A41488   3.587  31.924   6.500
 3047POPC   C3A41489   3.506  32.079   6.887
 3047POPC   C4A41490   3.480  32.306   7.253
 3047POPC   C1B41491   3.695  32.590   6.169
 3047POPC   C2B41492   3.536  32.461   6.537
 3047POPC   C3B41493   3.708  32.603   6.907
 3047POPC   C4B41494   3.712  32.770   7.319
 3048POPC   NC341495  43.981  32.528   5.376
 3048POPC   PO441496  44.017  31.813   5.258
 3048POPC   GL141497  43.829  32.103   5.696
 3048POPC   GL241498  44.012  32.466   5.857
 3048POPC   C1A41499  43.931  32.132   6.197
 3048POPC   D2A41500  44.029  31.996   6.627
 3048POPC   C3A41501  43.894  32.170   7.020
 3048POPC   C4A41502  44.038  32.134   7.441
 3048POPC   C1B41503  44.237  32.601   6.237
 3048POPC   C2B41504  44.297  32.472   6.709
 3048POPC   C3B41505  44.287  32.473   7.159
 3048POPC   C4B41506  44.020  32.645   7.519
 3049POPC   NC341507   9.657  12.821   5.349
 3049POPC   PO441508  10.141  13.258   5.607
 3049POPC   GL141509   9.903  12.965   5.837
 3049POPC   GL241510   9.555  12.880   5.850
 3049POPC   C1A41511   9.854  12.857   6.280
 3049POPC   D2A41512   9.874  12.773   6.725
 3049POPC   C3A41513   9.961  13.019   7.116
 3049POPC   C4A41514  10.151  12.789   7.492
 3049POPC   C1B41515   9.335  12.750   6.208
 3049POPC   C2B41516   9.416  12.511   6.579
 3049POPC   C3B41517   9.391  12.712   6.959
 3049POPC   C4B41518   9.611  12.690   7.325
 3050POPC   NC341519  12.105  17.101   5.405
 3050POPC   PO441520  11.694  17.594   5.266
 3050POPC   GL141521  12.034  17.559   5.669
 3050POPC   GL241522  12.060  17.245   5.882
 3050POPC   C1A41523  12.197  17.654   6.135
 3050POPC   D2A41524  12.272  17.393   6.503
 3050POPC   C3A41525  12.173  17.509   6.885
 3050POPC   C4A41526  12.273  17.693   7.237
 3050POPC   C1B41527  11.807  17.281   6.255
 3050POPC   C2B41528  11.592  17.262   6.651
 3050POPC   C3B41529  11.762  17.233   7.047
 3050POPC   C4B41530  11.970  17.320   7.408
 3051POPC   NC341531  42.341  34.222   5.291
 3051POPC   PO441532  42.000  34.780   5.347
 3051POPC   GL141533  42.215  34.824   5.802
 3051POPC   GL241534  42.583  34.718   5.862
 3051POPC   C1A41535  42.326  34.947   6.244
 3051POPC   D2A41536  42.468  34.696   6.579
 3051POPC   C3A41537  42.482  34.812   6.992
 3051POPC   C4A41538  42.281  34.528   7.218
 3051POPC   C1B41539  42.821  34.555   6.233
 3051POPC   C2B41540  42.756  34.200   6.491
 3051POPC   C3B41541  42.528  34.227   6.871
 3051POPC   C4B41542  42.599  34.121   7.270
 3052POPC   NC341543  37.943  43.408   5.807
 3052POPC   PO441544  37.871  42.905   5.386
 3052POPC   GL141545  37.611  43.011   5.812
 3052POPC   GL241546  37.486  43.359   5.991
 3052POPC   C1A41547  37.632  42.967   6.293
 3052POPC   D2A41548  37.451  42.904   6.687
 3052POPC   C3A41549  37.703  43.115   6.986
 3052POPC   C4A41550  37.607  43.247   7.408
 3052POPC   C1B41551  37.623  43.461   6.409
 3052POPC   C2B41552  38.006  43.302   6.577
 3052POPC   C3B41553  38.189  43.316   6.967
 3052POPC   C4B41554  38.098  43.162   7.346
 3053POPC   NC341555   2.805   6.622   5.316
 3053POPC   PO441556   2.320   7.008   5.462
 3053POPC   GL141557   2.636   6.797   5.783
 3053POPC   GL241558   2.772   6.444   5.792
 3053POPC   C1A41559   2.871   6.775   6.181
 3053POPC   D2A41560   2.851   7.021   6.562
 3053POPC   C3A41561   2.921   6.870   6.968
 3053POPC   C4A41562   2.737   6.896   7.364
 3053POPC   C1B41563   2.696   6.259   6.197
 3053POPC   C2B41564   2.711   6.481   6.595
 3053POPC   C3B41565   2.657   6.295   6.983
 3053POPC   C4B41566   2.614   6.407   7.385
 3054POPC   NC341567  22.263  38.013   5.392
 3054POPC   PO441568  21.801  38.514   5.442
 3054POPC   GL141569  22.024  38.715   5.843
 3054POPC   GL241570  22.310  38.502   5.992
 3054POPC   C1A41571  21.955  38.709   6.302
 3054POPC   D2A41572  22.244  38.434   6.520
 3054POPC   C3A41573  22.217  38.365   6.957
 3054POPC   C4A41574  22.064  38.119   7.304
 3054POPC   C1B41575  22.676  38.572   6.284
 3054POPC   C2B41576  22.710  38.602   6.751
 3054POPC   C3B41577  22.601  38.690   7.169
 3054POPC   C4B41578  22.456  38.447   7.511
 3055POPC   NC341579  18.567  11.528   5.501
 3055POPC   PO441580  18.095  11.027   5.343
 3055POPC   GL141581  18.119  10.921   5.776
 3055POPC   GL241582  18.357  11.173   5.799
 3055POPC   C1A41583  18.003  11.168   6.171
 3055POPC   D2A41584  17.884  11.443   6.542
 3055POPC   C3A41585  18.145  11.299   6.873
 3055POPC   C4A41586  18.101  11.013   7.193
 3055POPC   C1B41587  18.501  11.352   6.182
 3055POPC   C2B41588  18.710  11.349   6.572
 3055POPC   C3B41589  18.669  11.508   6.941
 3055POPC   C4B41590  18.485  11.324   7.291
 3056POPC   NC341591  39.717  37.210   5.391
 3056POPC   PO441592  39.282  36.690   5.436
 3056POPC   GL141593  39.246  36.975   5.847
 3056POPC   GL241594  39.576  37.098   5.864
 3056POPC   C1A41595  39.348  37.272   6.279
 3056POPC   D2A41596  39.460  37.311   6.754
 3056POPC   C3A41597  39.201  37.044   6.979
 3056POPC   C4A41598  39.016  36.742   7.223
 3056POPC   C1B41599  39.542  36.794   6.242
 3056POPC   C2B41600  39.331  36.667   6.645
 3056POPC   C3B41601  39.491  36.625   7.077
 3056POPC   C4B41602  39.603  37.019   7.333
 3057POPC   NC341603   0.811   3.526   5.498
 3057POPC   PO441604   1.300   3.905   5.555
 3057POPC   GL141605   1.148   3.689   5.891
 3057POPC   GL241606   0.806   3.777   5.959
 3057POPC   C1A41607   1.356   3.588   6.265
 3057POPC   D2A41608   1.369   3.774   6.674
 3057POPC   C3A41609   1.345   3.532   7.060
 3057POPC   C4A41610   1.510   3.610   7.424
 3057POPC   C1B41611   0.884   3.388   6.199
 3057POPC   C2B41612   1.108   3.307   6.613
 3057POPC   C3B41613   0.958   3.220   7.025
 3057POPC   C4B41614   1.133   3.294   7.491
 3058POPC   NC341615  12.115   6.107   5.521
 3058POPC   PO441616  11.624   5.812   5.260
 3058POPC   GL141617  11.893   5.669   5.678
 3058POPC   GL241618  11.681   5.669   5.980
 3058POPC   C1A41619  12.178   5.685   6.106
 3058POPC   D2A41620  12.049   5.751   6.569
 3058POPC   C3A41621  12.263   5.648   6.966
 3058POPC   C4A41622  12.359   5.949   7.297
 3058POPC   C1B41623  11.846   6.060   6.209
 3058POPC   C2B41624  11.877   6.231   6.640
 3058POPC   C3B41625  11.887   5.988   7.031
 3058POPC   C4B41626  11.747   5.556   7.017
 3059POPC   NC341627  18.341  43.018   5.531
 3059POPC   PO441628  18.654  43.506   5.222
 3059POPC   GL141629  18.569  43.442   5.723
 3059POPC   GL241630  18.228  43.261   5.953
 3059POPC   C1A41631  18.585  43.502   6.185
 3059POPC   D2A41632  18.388  43.199   6.472
 3059POPC   C3A41633  18.525  43.195   6.913
 3059POPC   C4A41634  18.641  42.842   7.186
 3059POPC   C1B41635  17.893  43.289   6.310
 3059POPC   C2B41636  17.948  43.238   6.769
 3059POPC   C3B41637  18.131  42.934   7.117
 3059POPC   C4B41638  18.127  42.841   7.587
 3060POPC   NC341639  11.785  39.448   5.436
 3060POPC   PO441640  11.236  39.068   5.285
 3060POPC   GL141641  11.123  39.071   5.746
 3060POPC   GL241642  11.369  39.346   5.830
 3060POPC   C1A41643  10.981  39.263   6.161
 3060POPC   D2A41644  11.075  39.502   6.561
 3060POPC   C3A41645  11.070  39.219   6.905
 3060POPC   C4A41646  11.298  39.228   7.284
 3060POPC   C1B41647  11.496  39.375   6.278
 3060POPC   C2B41648  11.632  39.385   6.720
 3060POPC   C3B41649  11.767  39.390   7.164
 3060POPC   C4B41650  11.797  39.717   7.490
 3061POPC   NC341651  37.599   9.680   5.341
 3061POPC   PO441652  37.946  10.061   5.583
 3061POPC   GL141653  37.683   9.760   5.843
 3061POPC   GL241654  37.529   9.397   5.749
 3061POPC   C1A41655  37.646   9.894   6.268
 3061POPC   D2A41656  37.891   9.932   6.626
 3061POPC   C3A41657  37.684   9.951   6.998
 3061POPC   C4A41658  37.742   9.712   7.371
 3061POPC   C1B41659  37.417   9.443   6.170
 3061POPC   C2B41660  37.623   9.470   6.573
 3061POPC   C3B41661  37.438   9.491   6.977
 3061POPC   C4B41662  37.258   9.777   7.241
 3062POPC   NC341663  14.425   6.037   5.203
 3062POPC   PO441664  13.970   5.566   5.431
 3062POPC   GL141665  14.238   5.651   5.815
 3062POPC   GL241666  14.596   5.741   5.728
 3062POPC   C1A41667  14.245   5.762   6.280
 3062POPC   D2A41668  13.981   5.918   6.661
 3062POPC   C3A41669  14.031   5.795   7.115
 3062POPC   C4A41670  14.390   5.596   7.253
 3062POPC   C1B41671  14.563   6.105   6.044
 3062POPC   C2B41672  14.543   6.167   6.521
 3062POPC   C3B41673  14.458   6.037   6.972
 3062POPC   C4B41674  14.690   5.970   7.386
 3063POPC   NC341675   8.836  41.028   5.370
 3063POPC   PO441676   9.208  40.455   5.449
 3063POPC   GL141677   9.002  40.702   5.777
 3063POPC   GL241678   9.201  40.988   5.726
 3063POPC   C1A41679   8.915  40.552   6.222
 3063POPC   D2A41680   8.696  40.533   6.643
 3063POPC   C3A41681   8.870  40.636   7.070
 3063POPC   C4A41682   8.927  40.729   7.534
 3063POPC   C1B41683   9.425  40.725   6.060
 3063POPC   C2B41684   9.368  40.598   6.479
 3063POPC   C3B41685   9.354  40.680   6.910
 3063POPC   C4B41686   9.443  40.859   7.324
 3064POPC   NC341687  19.753  27.241   5.356
 3064POPC   PO441688  20.046  27.897   5.458
 3064POPC   GL141689  19.788  27.649   5.801
 3064POPC   GL241690  19.593  27.315   5.818
 3064POPC   C1A41691  19.900  27.581   6.229
 3064POPC   D2A41692  20.199  27.697   6.564
 3064POPC   C3A41693  20.166  27.511   6.973
 3064POPC   C4A41694  19.975  27.783   7.271
 3064POPC   C1B41695  19.506  27.251   6.230
 3064POPC   C2B41696  19.709  27.321   6.646
 3064POPC   C3B41697  19.629  27.417   7.081
 3064POPC   C4B41698  19.387  27.278   7.432
 3065POPC   NC341699   1.384   2.509   5.558
 3065POPC   PO441700   1.114   3.155   5.408
 3065POPC   GL141701   1.134   2.911   5.796
 3065POPC   GL241702   0.938   2.571   5.822
 3065POPC   C1A41703   1.267   3.040   6.198
 3065POPC   D2A41704   1.422   2.844   6.554
 3065POPC   C3A41705   1.429   3.028   6.933
 3065POPC   C4A41706   1.215   2.853   7.275
 3065POPC   C1B41707   1.238   2.518   6.182
 3065POPC   C2B41708   1.399   2.335   6.550
 3065POPC   C3B41709   1.239   2.467   6.938
 3065POPC   C4B41710   0.946   2.240   7.188
 3066POPC   NC341711  17.739  14.044   5.435
 3066POPC   PO441712  17.375  13.407   5.369
 3066POPC   GL141713  17.453  13.497   5.809
 3066POPC   GL241714  17.478  13.843   5.830
 3066POPC   C1A41715  17.670  13.570   6.214
 3066POPC   D2A41716  17.800  13.765   6.580
 3066POPC   C3A41717  17.617  13.599   6.913
 3066POPC   C4A41718  17.405  13.489   7.262
 3066POPC   C1B41719  17.406  14.031   6.220
 3066POPC   C2B41720  17.418  14.128   6.667
 3066POPC   C3B41721  17.352  14.000   7.103
 3066POPC   C4B41722  17.389  14.224   7.478
 3067POPC   NC341723   9.783   9.365   5.327
 3067POPC   PO441724  10.097   8.675   5.389
 3067POPC   GL141725   9.851   8.964   5.642
 3067POPC   GL241726  10.058   9.214   5.736
 3067POPC   C1A41727   9.660   8.971   6.056
 3067POPC   D2A41728   9.822   8.754   6.450
 3067POPC   C3A41729   9.694   8.898   6.857
 3067POPC   C4A41730   9.821   8.833   7.282
 3067POPC   C1B41731  10.138   9.100   6.148
 3067POPC   C2B41732  10.065   9.169   6.568
 3067POPC   C3B41733  10.172   9.067   6.984
 3067POPC   C4B41734  10.157   9.221   7.399
 3068POPC   NC341735  41.438   3.687   5.416
 3068POPC   PO441736  42.118   3.644   5.388
 3068POPC   GL141737  41.922   3.704   5.753
 3068POPC   GL241738  41.696   3.445   5.757
 3068POPC   C1A41739  41.829   3.787   6.162
 3068POPC   D2A41740  41.683   3.634   6.520
 3068POPC   C3A41741  41.803   3.744   6.888
 3068POPC   C4A41742  41.474   3.819   7.159
 3068POPC   C1B41743  41.449   3.409   6.111
 3068POPC   C2B41744  41.531   3.149   6.455
 3068POPC   C3B41745  41.726   3.199   6.838
 3068POPC   C4B41746  41.694   3.366   7.241
 3069POPC   NC341747  32.422  25.155   5.395
 3069POPC   PO441748  31.870  25.546   5.350
 3069POPC   GL141749  32.083  25.427   5.764
 3069POPC   GL241750  32.174  25.088   5.868
 3069POPC   C1A41751  32.185  25.483   6.234
 3069POPC   D2A41752  31.912  25.490   6.611
 3069POPC   C3A41753  32.086  25.555   7.025
 3069POPC   C4A41754  32.542  25.422   7.067
 3069POPC   C1B41755  32.248  24.960   6.335
 3069POPC   C2B41756  32.232  25.115   6.771
 3069POPC   C3B41757  32.146  25.069   7.218
 3069POPC   C4B41758  32.155  24.952   7.676
 3070POPC   NC341759   5.389  12.852   5.404
 3070POPC   PO441760   4.823  12.515   5.556
 3070POPC   GL141761   5.108  12.711   5.808
 3070POPC   GL241762   4.891  12.953   5.913
 3070POPC   C1A41763   5.282  12.899   6.195
 3070POPC   D2A41764   5.057  12.957   6.562
 3070POPC   C3A41765   5.187  12.837   6.941
 3070POPC   C4A41766   4.851  12.617   7.166
 3070POPC   C1B41767   4.844  13.247   6.203
 3070POPC   C2B41768   4.835  13.435   6.625
 3070POPC   C3B41769   4.784  13.160   7.011
 3070POPC   C4B41770   4.654  13.028   7.430
 3071POPC   NC341771  30.433  35.819   5.595
 3071POPC   PO441772  30.792  36.268   5.320
 3071POPC   GL141773  30.883  36.072   5.730
 3071POPC   GL241774  30.924  36.395   5.878
 3071POPC   C1A41775  30.748  35.989   6.197
 3071POPC   D2A41776  30.572  36.090   6.634
 3071POPC   C3A41777  30.651  35.954   7.065
 3071POPC   C4A41778  30.389  35.768   7.399
 3071POPC   C1B41779  30.502  36.442   6.028
 3071POPC   C2B41780  30.377  36.547   6.500
 3071POPC   C3B41781  30.509  36.470   6.973
 3071POPC   C4B41782  30.879  36.420   7.251
 3072POPC   NC341783  10.814  39.216   5.368
 3072POPC   PO441784  10.122  39.378   5.271
 3072POPC   GL141785  10.388  39.384   5.684
 3072POPC   GL241786  10.582  39.092   5.828
 3072POPC   C1A41787  10.467  39.442   6.164
 3072POPC   D2A41788  10.632  39.243   6.555
 3072POPC   C3A41789  10.632  39.488   6.911
 3072POPC   C4A41790  10.905  39.556   7.239
 3072POPC   C1B41791  10.357  38.939   6.241
 3072POPC   C2B41792  10.143  39.114   6.600
 3072POPC   C3B41793  10.343  39.038   7.007
 3072POPC   C4B41794  10.332  38.889   7.444
 3073POPC   NC341795  24.620   4.077   5.472
 3073POPC   PO441796  24.076   4.549   5.544
 3073POPC   GL141797  24.294   4.270   5.826
 3073POPC   GL241798  24.665   4.347   5.880
 3073POPC   C1A41799  24.348   4.188   6.243
 3073POPC   D2A41800  24.339   4.366   6.625
 3073POPC   C3A41801  24.410   4.116   6.967
 3073POPC   C4A41802  24.191   4.121   7.336
 3073POPC   C1B41803  24.743   4.534   6.242
 3073POPC   C2B41804  24.885   4.636   6.620
 3073POPC   C3B41805  24.766   4.475   7.018
 3073POPC   C4B41806  24.573   4.462   7.438
 3074POPC   NC341807  31.307  27.557   5.169
 3074POPC   PO441808  30.723  27.661   5.340
 3074POPC   GL141809  30.761  27.766   5.756
 3074POPC   GL241810  31.126  27.737   5.781
 3074POPC   C1A41811  30.740  27.628   6.180
 3074POPC   D2A41812  30.775  27.353   6.528
 3074POPC   C3A41813  30.653  27.560   6.898
 3074POPC   C4A41814  30.712  27.524   7.321
 3074POPC   C1B41815  31.254  27.910   6.179
 3074POPC   C2B41816  31.169  28.071   6.590
 3074POPC   C3B41817  30.976  28.003   7.001
 3074POPC   C4B41818  31.117  27.827   7.390
 3075POPC   NC341819   3.895  20.418   5.400
 3075POPC   PO441820   4.533  20.443   5.482
 3075POPC   GL141821   4.256  20.515   5.786
 3075POPC   GL241822   4.236  20.856   5.701
 3075POPC   C1A41823   4.106  20.569   6.203
 3075POPC   D2A41824   4.057  20.399   6.592
 3075POPC   C3A41825   4.354  20.456   6.923
 3075POPC   C4A41826   4.210  20.393   7.317
 3075POPC   C1B41827   4.426  20.952   6.116
 3075POPC   C2B41828   4.443  20.796   6.538
 3075POPC   C3B41829   4.571  20.909   6.951
 3075POPC   C4B41830   4.355  20.909   7.310
 3076POPC   NC341831  22.291   1.244   5.388
 3076POPC   PO441832  21.739   1.425   5.701
 3076POPC   GL141833  22.049   1.223   5.842
 3076POPC   GL241834  22.290   1.491   5.838
 3076POPC   C1A41835  22.145   1.049   6.213
 3076POPC   D2A41836  22.322   0.804   6.510
 3076POPC   C3A41837  22.113   0.915   6.878
 3076POPC   C4A41838  22.134   1.014   7.309
 3076POPC   C1B41839  22.111   1.563   6.248
 3076POPC   C2B41840  22.075   1.373   6.649
 3076POPC   C3B41841  22.080   1.482   7.084
 3076POPC   C4B41842  22.303   1.509   7.481
 3077POPC   NC341843  41.954  26.991   5.588
 3077POPC   PO441844  41.348  26.957   5.328
 3077POPC   GL141845  41.470  26.935   5.770
 3077POPC   GL241846  41.612  26.629   5.822
 3077POPC   C1A41847  41.608  27.092   6.196
 3077POPC   D2A41848  41.353  27.174   6.568
 3077POPC   C3A41849  41.525  27.068   6.967
 3077POPC   C4A41850  41.527  26.720   7.263
 3077POPC   C1B41851  41.825  26.610   6.197
 3077POPC   C2B41852  41.819  26.793   6.611
 3077POPC   C3B41853  41.871  26.519   6.962
 3077POPC   C4B41854  41.976  26.509   7.402
 3078POPC   NC341855  32.669  27.965   5.377
 3078POPC   PO441856  32.349  27.371   5.504
 3078POPC   GL141857  32.262  27.526   5.889
 3078POPC   GL241858  32.461  27.854   5.880
 3078POPC   C1A41859  32.001  27.283   6.184
 3078POPC   D2A41860  31.859  27.361   6.601
 3078POPC   C3A41861  32.102  27.677   6.805
 3078POPC   C4A41862  32.090  27.841   7.216
 3078POPC   C1B41863  32.429  27.724   6.338
 3078POPC   C2B41864  32.550  27.444   6.697
 3078POPC   C3B41865  32.465  27.512   7.154
 3078POPC   C4B41866  32.485  27.409   7.608
 3079POPC   NC341867  42.234  40.172   5.659
 3079POPC   PO441868  42.562  39.605   5.595
 3079POPC   GL141869  42.374  39.736   5.937
 3079POPC   GL241870  42.030  39.703   5.816
 3079POPC   C1A41871  42.366  40.027   6.264
 3079POPC   D2A41872  42.150  40.126   6.605
 3079POPC   C3A41873  42.306  39.967   6.996
 3079POPC   C4A41874  42.490  40.092   7.395
 3079POPC   C1B41875  41.943  39.711   6.249
 3079POPC   C2B41876  41.845  39.687   6.666
 3079POPC   C3B41877  41.887  39.638   7.084
 3079POPC   C4B41878  42.020  39.854   7.419
 3080POPC   NC341879   8.430   4.207   5.345
 3080POPC   PO441880   7.846   4.475   5.413
 3080POPC   GL141881   8.139   4.384   5.767
 3080POPC   GL241882   8.206   4.020   5.765
 3080POPC   C1A41883   8.119   4.236   6.215
 3080POPC   D2A41884   7.970   4.181   6.646
 3080POPC   C3A41885   8.082   4.562   6.883
 3080POPC   C4A41886   8.181   4.523   7.279
 3080POPC   C1B41887   8.542   3.992   6.074
 3080POPC   C2B41888   8.485   4.090   6.524
 3080POPC   C3B41889   8.439   4.238   6.913
 3080POPC   C4B41890   8.633   4.284   7.332
 3081POPC   NC341891   8.189  16.273   5.382
 3081POPC   PO441892   8.019  15.623   5.273
 3081POPC   GL141893   8.134  15.736   5.739
 3081POPC   GL241894   8.369  16.011   5.809
 3081POPC   C1A41895   8.237  15.709   6.216
 3081POPC   D2A41896   8.096  15.590   6.635
 3081POPC   C3A41897   8.258  15.829   6.959
 3081POPC   C4A41898   8.280  15.811   7.396
 3081POPC   C1B41899   8.115  16.194   6.154
 3081POPC   C2B41900   7.982  16.105   6.590
 3081POPC   C3B41901   7.971  16.253   7.018
 3081POPC   C4B41902   8.219  16.307   7.374
 3082POPC   NC341903  20.366  39.516   5.405
 3082POPC   PO441904  20.961  39.056   5.416
 3082POPC   GL141905  20.705  39.228   5.754
 3082POPC   GL241906  20.349  39.091   5.742
 3082POPC   C1A41907  20.759  39.131   6.204
 3082POPC   D2A41908  20.980  38.852   6.502
 3082POPC   C3A41909  20.915  38.941   6.942
 3082POPC   C4A41910  20.768  39.323   7.124
 3082POPC   C1B41911  20.245  39.078   6.198
 3082POPC   C2B41912  20.420  39.286   6.570
 3082POPC   C3B41913  20.286  39.418   6.974
 3082POPC   C4B41914  20.312  39.209   7.368
 3083POPC   NC341915  43.182  32.647   5.482
 3083POPC   PO441916  43.215  33.334   5.311
 3083POPC   GL141917  42.966  33.149   5.681
 3083POPC   GL241918  43.241  32.985   5.863
 3083POPC   C1A41919  42.794  33.001   6.108
 3083POPC   D2A41920  42.673  32.914   6.537
 3083POPC   C3A41921  42.877  32.777   6.930
 3083POPC   C4A41922  42.822  32.938   7.355
 3083POPC   C1B41923  43.208  32.727   6.251
 3083POPC   C2B41924  43.339  32.700   6.685
 3083POPC   C3B41925  43.319  32.947   7.083
 3083POPC   C4B41926  43.344  32.812   7.508
 3084POPC   NC341927  29.591  44.539   5.362
 3084POPC   PO441928  30.133  44.355   5.138
 3084POPC   GL141929  30.057  44.544   5.637
 3084POPC   GL241930  29.767  44.681   5.810
 3084POPC   C1A41931  30.051  44.394   6.105
 3084POPC   D2A41932  29.806  44.516   6.475
 3084POPC   C3A41933  29.989  44.529   6.877
 3084POPC   C4A41934  29.697  44.310   7.141
 3084POPC   C1B41935  29.938  44.898   6.162
 3084POPC   C2B41936  30.133  44.922   6.537
 3084POPC   C3B41937  29.991   0.037   6.947
 3084POPC   C4B41938  30.078  44.910   7.361
 3085POPC   NC341939  38.926  31.970   5.524
 3085POPC   PO441940  38.928  31.295   5.520
 3085POPC   GL141941  39.194  31.533   5.800
 3085POPC   GL241942  39.576  31.502   5.763
 3085POPC   C1A41943  39.214  31.423   6.236
 3085POPC   D2A41944  39.058  31.218   6.624
 3085POPC   C3A41945  39.103  31.418   7.049
 3085POPC   C4A41946  38.894  31.287   7.433
 3085POPC   C1B41947  39.701  31.263   6.140
 3085POPC   C2B41948  39.574  31.229   6.597
 3085POPC   C3B41949  39.619  31.335   7.052
 3085POPC   C4B41950  39.398  31.218   7.456
 3086POPC   NC341951   8.250  15.396   4.949
 3086POPC   PO441952   7.988  15.090   5.459
 3086POPC   GL141953   8.079  15.227   5.863
 3086POPC   GL241954   8.117  14.850   5.894
 3086POPC   C1A41955   8.385  15.223   6.231
 3086POPC   D2A41956   8.556  15.384   6.641
 3086POPC   C3A41957   8.324  15.325   7.035
 3086POPC   C4A41958   8.442  15.334   7.449
 3086POPC   C1B41959   8.133  14.782   6.279
 3086POPC   C2B41960   8.156  15.004   6.637
 3086POPC   C3B41961   8.094  14.773   6.991
 3086POPC   C4B41962   8.140  14.919   7.413
 3087POPC   NC341963  43.286  17.014   5.613
 3087POPC   PO441964  43.065  16.486   5.242
 3087POPC   GL141965  43.075  16.489   5.709
 3087POPC   GL241966  43.384  16.513   5.788
 3087POPC   C1A41967  43.025  16.645   6.182
 3087POPC   D2A41968  42.924  16.572   6.669
 3087POPC   C3A41969  42.940  16.776   7.096
 3087POPC   C4A41970  42.873  16.635   7.540
 3087POPC   C1B41971  43.361  16.262   6.147
 3087POPC   C2B41972  43.398  16.470   6.524
 3087POPC   C3B41973  43.383  16.371   6.953
 3087POPC   C4B41974  43.347  16.557   7.376
 3088POPC   NC341975   8.446  44.238   5.386
 3088POPC   PO441976   8.062  43.696   5.396
 3088POPC   GL141977   8.197  43.824   5.760
 3088POPC   GL241978   8.319  43.536   5.835
 3088POPC   C1A41979   8.367  43.917   6.172
 3088POPC   D2A41980   8.229  44.062   6.548
 3088POPC   C3A41981   8.464  43.886   6.876
 3088POPC   C4A41982   8.326  43.786   7.248
 3088POPC   C1B41983   8.076  43.499   6.185
 3088POPC   C2B41984   8.255  43.549   6.540
 3088POPC   C3B41985   8.167  43.454   6.907
 3088POPC   C4B41986   8.141  43.254   7.266
 3089POPC   NC341987  20.942  34.582   5.358
 3089POPC   PO441988  20.272  34.302   5.383
 3089POPC   GL141989  20.497  34.545   5.762
 3089POPC   GL241990  20.805  34.709   5.818
 3089POPC   C1A41991  20.680  34.421   6.197
 3089POPC   D2A41992  20.665  34.121   6.524
 3089POPC   C3A41993  20.860  34.283   6.867
 3089POPC   C4A41994  20.670  34.409   7.239
 3089POPC   C1B41995  20.945  34.891   6.179
 3089POPC   C2B41996  20.790  34.778   6.568
 3089POPC   C3B41997  20.927  34.798   6.989
 3089POPC   C4B41998  20.630  35.010   7.228
 3090POPC   NC341999  19.984  21.272   5.479
 3090POPC   PO442000  19.636  21.857   5.600
 3090POPC   GL142001  19.910  21.632   5.872
 3090POPC   GL242002  19.693  21.324   5.891
 3090POPC   C1A42003  19.942  21.588   6.323
 3090POPC   D2A42004  19.636  21.349   6.568
 3090POPC   C3A42005  19.629  21.292   6.978
 3090POPC   C4A42006  20.060  21.231   7.152
 3090POPC   C1B42007  19.928  21.099   6.198
 3090POPC   C2B42008  19.876  20.867   6.582
 3090POPC   C3B42009  19.756  20.815   7.003
 3090POPC   C4B42010  19.685  21.012   7.428
 3091POPC   NC342011  41.418  32.077   5.246
 3091POPC   PO442012  41.710  32.657   5.458
 3091POPC   GL142013  41.470  32.451   5.783
 3091POPC   GL242014  41.372  32.076   5.747
 3091POPC   C1A42015  41.612  32.526   6.193
 3091POPC   D2A42016  41.822  32.412   6.571
 3091POPC   C3A42017  41.590  32.424   6.960
 3091POPC   C4A42018  41.710  32.167   7.305
 3091POPC   C1B42019  41.323  32.120   6.184
 3091POPC   C2B42020  41.448  32.056   6.595
 3091POPC   C3B42021  41.148  32.040   6.873
 3091POPC   C4B42022  41.181  32.225   7.225
 3092POPC   NC342023   1.297  38.525   5.290
 3092POPC   PO442024   0.736  38.231   5.482
 3092POPC   GL142025   0.981  38.493   5.771
 3092POPC   GL242026   1.333  38.378   5.803
 3092POPC   C1A42027   1.044  38.670   6.185
 3092POPC   D2A42028   1.334  38.638   6.536
 3092POPC   C3A42029   1.153  38.368   6.847
 3092POPC   C4A42030   0.965  38.534   7.220
 3092POPC   C1B42031   1.238  38.190   6.207
 3092POPC   C2B42032   1.337  37.955   6.571
 3092POPC   C3B42033   1.521  37.971   6.979
 3092POPC   C4B42034   1.498  38.336   7.232
 3093POPC   NC342035  41.624  11.584   5.512
 3093POPC   PO442036  41.090  11.368   5.420
 3093POPC   GL142037  41.281  11.380   5.850
 3093POPC   GL242038  41.584  11.176   5.839
 3093POPC   C1A42039  41.400  11.415   6.303
 3093POPC   D2A42040  41.540  11.635   6.681
 3093POPC   C3A42041  41.472  11.401   7.090
 3093POPC   C4A42042  41.593  11.267   7.521
 3093POPC   C1B42043  41.710  11.004   6.241
 3093POPC   C2B42044  41.742  11.144   6.687
 3093POPC   C3B42045  41.824  10.982   7.132
 3093POPC   C4B42046  41.978  10.910   7.579
 3094POPC   NC342047  40.531  23.119   5.015
 3094POPC   PO442048  40.762  22.562   5.319
 3094POPC   GL142049  40.702  22.814   5.692
 3094POPC   GL242050  41.002  23.069   5.706
 3094POPC   C1A42051  40.469  22.777   6.072
 3094POPC   D2A42052  40.393  22.708   6.518
 3094POPC   C3A42053  40.585  22.828   6.903
 3094POPC   C4A42054  40.795  22.741   7.309
 3094POPC   C1B42055  40.995  22.907   6.139
 3094POPC   C2B42056  41.006  22.790   6.589
 3094POPC   C3B42057  41.066  23.046   6.956
 3094POPC   C4B42058  41.084  23.397   7.234
 3095POPC   NC342059  39.293  16.033   5.038
 3095POPC   PO442060  38.970  15.936   5.477
 3095POPC   GL142061  39.183  15.876   5.886
 3095POPC   GL242062  39.395  15.592   5.832
 3095POPC   C1A42063  39.203  15.964   6.348
 3095POPC   D2A42064  39.499  15.971   6.703
 3095POPC   C3A42065  39.562  16.057   7.159
 3095POPC   C4A42066  39.714  16.082   7.614
 3095POPC   C1B42067  39.204  15.461   6.230
 3095POPC   C2B42068  39.227  15.552   6.673
 3095POPC   C3B42069  39.263  15.619   7.119
 3095POPC   C4B42070  38.945  15.518   7.498
 3096POPC   NC342071  32.697  30.411   5.434
 3096POPC   PO442072  32.927  31.007   5.326
 3096POPC   GL142073  33.051  30.934   5.797
 3096POPC   GL242074  33.092  30.542   5.823
 3096POPC   C1A42075  33.270  30.843   6.189
 3096POPC   D2A42076  33.170  30.528   6.519
 3096POPC   C3A42077  33.123  30.722   6.922
 3096POPC   C4A42078  33.050  30.577   7.331
 3096POPC   C1B42079  32.781  30.561   6.151
 3096POPC   C2B42080  32.633  30.661   6.564
 3096POPC   C3B42081  32.676  30.463   6.992
 3096POPC   C4B42082  32.461  30.315   7.396
 3097POPC   NC342083   4.082  33.431   5.360
 3097POPC   PO442084   4.565  33.833   5.379
 3097POPC   GL142085   4.297  33.690   5.741
 3097POPC   GL242086   3.968  33.868   5.729
 3097POPC   C1A42087   4.328  33.682   6.195
 3097POPC   D2A42088   4.407  33.912   6.584
 3097POPC   C3A42089   4.324  33.632   6.918
 3097POPC   C4A42090   4.303  33.608   7.344
 3097POPC   C1B42091   3.833  33.717   6.131
 3097POPC   C2B42092   3.949  33.631   6.556
 3097POPC   C3B42093   3.813  33.759   6.974
 3097POPC   C4B42094   3.867  33.949   7.366
 3098POPC   NC342095  33.926  29.061   5.172
 3098POPC   PO442096  33.500  29.454   5.604
 3098POPC   GL142097  33.685  29.188   5.859
 3098POPC   GL242098  33.955  29.001   5.711
 3098POPC   C1A42099  33.707  29.282   6.273
 3098POPC   D2A42100  33.547  29.077   6.611
 3098POPC   C3A42101  33.565  29.317   6.963
 3098POPC   C4A42102  33.668  29.273   7.374
 3098POPC   C1B42103  33.995  28.874   6.165
 3098POPC   C2B42104  34.083  29.082   6.594
 3098POPC   C3B42105  33.925  28.955   7.019
 3098POPC   C4B42106  33.936  28.879   7.484
 3099POPC   NC342107  27.257  15.500   5.173
 3099POPC   PO442108  27.854  15.873   5.405
 3099POPC   GL142109  27.585  15.904   5.802
 3099POPC   GL242110  27.431  15.592   5.919
 3099POPC   C1A42111  27.462  16.135   6.170
 3099POPC   D2A42112  27.491  16.119   6.620
 3099POPC   C3A42113  27.158  16.219   6.913
 3099POPC   C4A42114  27.380  16.119   7.275
 3099POPC   C1B42115  27.326  15.650   6.369
 3099POPC   C2B42116  27.244  15.694   6.819
 3099POPC   C3B42117  27.387  15.623   7.228
 3099POPC   C4B42118  27.369  15.753   7.674
 3100POPC   NC342119  10.572   4.355   5.294
 3100POPC   PO442120  10.193   4.690   5.758
 3100POPC   GL142121  10.566   4.572   5.929
 3100POPC   GL242122  10.626   4.247   5.812
 3100POPC   C1A42123  10.706   4.464   6.332
 3100POPC   D2A42124  10.448   4.435   6.681
 3100POPC   C3A42125  10.671   4.418   7.060
 3100POPC   C4A42126  10.581   4.309   7.501
 3100POPC   C1B42127  10.684   3.983   6.212
 3100POPC   C2B42128  10.780   4.013   6.701
 3100POPC   C3B42129  10.838   3.955   7.187
 3100POPC   C4B42130  10.919   3.937   7.650
 3101POPC   NC342131  18.887  24.305   5.260
 3101POPC   PO442132  19.499  24.464   5.509
 3101POPC   GL142133  19.122  24.372   5.710
 3101POPC   GL242134  19.062  24.716   5.792
 3101POPC   C1A42135  18.976  24.355   6.150
 3101POPC   D2A42136  19.129  24.538   6.530
 3101POPC   C3A42137  19.090  24.316   6.894
 3101POPC   C4A42138  19.078  24.403   7.315
 3101POPC   C1B42139  19.008  24.898   6.187
 3101POPC   C2B42140  18.740  24.885   6.566
 3101POPC   C3B42141  18.852  24.784   6.983
 3101POPC   C4B42142  18.736  24.753   7.428
 3102POPC   NC342143   0.242  43.299   5.371
 3102POPC   PO442144   0.499  42.658   5.295
 3102POPC   GL142145   0.533  42.936   5.631
 3102POPC   GL242146   0.175  42.872   5.703
 3102POPC   C1A42147   0.551  42.996   6.098
 3102POPC   D2A42148   0.308  43.002   6.508
 3102POPC   C3A42149   0.472  43.135   6.921
 3102POPC   C4A42150   0.508  43.549   7.143
 3102POPC   C1B42151  44.988  42.731   6.119
 3102POPC   C2B42152   0.026  42.579   6.543
 3102POPC   C3B42153   0.093  42.784   6.937
 3102POPC   C4B42154   0.382  42.722   7.243
 3103POPC   NC342155  14.521  29.329   5.062
 3103POPC   PO442156  14.131  29.507   5.580
 3103POPC   GL142157  14.497  29.235   5.742
 3103POPC   GL242158  14.416  28.878   5.640
 3103POPC   C1A42159  14.612  29.086   6.185
 3103POPC   D2A42160  14.732  29.085   6.647
 3103POPC   C3A42161  14.512  29.301   6.979
 3103POPC   C4A42162  14.322  29.152   7.358
 3103POPC   C1B42163  14.285  28.696   6.044
 3103POPC   C2B42164  14.378  28.696   6.500
 3103POPC   C3B42165  14.340  28.779   6.939
 3103POPC   C4B42166  14.054  28.535   7.192
 3104POPC   NC342167  36.365  15.102   5.522
 3104POPC   PO442168  35.896  15.407   5.060
 3104POPC   GL142169  35.842  15.272   5.592
 3104POPC   GL242170  35.884  14.962   5.754
 3104POPC   C1A42171  35.769  15.306   6.102
 3104POPC   D2A42172  35.945  15.409   6.537
 3104POPC   C3A42173  36.008  15.214   6.964
 3104POPC   C4A42174  36.301  15.308   7.309
 3104POPC   C1B42175  36.178  15.010   6.157
 3104POPC   C2B42176  36.178  14.833   6.564
 3104POPC   C3B42177  36.317  14.804   6.971
 3104POPC   C4B42178  36.199  14.823   7.404
 3105POPC   NC342179  20.595   7.797   5.471
 3105POPC   PO442180  20.425   8.434   5.389
 3105POPC   GL142181  20.541   8.244   5.771
 3105POPC   GL242182  20.865   8.157   5.722
 3105POPC   C1A42183  20.425   8.235   6.223
 3105POPC   D2A42184  20.101   8.470   6.479
 3105POPC   C3A42185  20.200   8.415   6.896
 3105POPC   C4A42186  20.569   8.208   7.026
 3105POPC   C1B42187  20.895   8.448   6.092
 3105POPC   C2B42188  21.003   8.503   6.531
 3105POPC   C3B42189  21.115   8.443   6.920
 3105POPC   C4B42190  20.936   8.373   7.301
 3106POPC   NC342191  42.230  25.033   5.325
 3106POPC   PO442192  42.467  25.697   5.341
 3106POPC   GL142193  42.511  25.334   5.660
 3106POPC   GL242194  42.164  25.277   5.762
 3106POPC   C1A42195  42.498  25.099   6.087
 3106POPC   D2A42196  42.241  25.073   6.460
 3106POPC   C3A42197  42.398  25.231   6.824
 3106POPC   C4A42198  42.497  25.179   7.230
 3106POPC   C1B42199  42.033  25.487   6.145
 3106POPC   C2B42200  41.907  25.439   6.579
 3106POPC   C3B42201  41.879  25.215   6.984
 3106POPC   C4B42202  42.016  25.051   7.365
 3107POPC   NC342203  29.325  16.489   5.246
 3107POPC   PO442204  29.176  17.155   5.266
 3107POPC   GL142205  29.005  16.983   5.705
 3107POPC   GL242206  28.933  16.611   5.777
 3107POPC   C1A42207  29.217  16.849   6.132
 3107POPC   D2A42208  29.183  16.584   6.525
 3107POPC   C3A42209  29.358  16.742   6.925
 3107POPC   C4A42210  29.319  16.720   7.373
 3107POPC   C1B42211  28.699  16.830   6.118
 3107POPC   C2B42212  28.810  16.935   6.551
 3107POPC   C3B42213  28.862  16.811   6.968
 3107POPC   C4B42214  28.869  16.929   7.421
 3108POPC   NC342215  21.799  19.419   5.304
 3108POPC   PO442216  21.353  18.975   5.328
 3108POPC   GL142217  21.270  19.118   5.726
 3108POPC   GL242218  21.498  19.372   5.713
 3108POPC   C1A42219  21.224  18.983   6.171
 3108POPC   D2A42220  21.309  18.919   6.626
 3108POPC   C3A42221  21.057  18.816   6.991
 3108POPC   C4A42222  21.146  18.667   7.433
 3108POPC   C1B42223  21.351  19.511   6.100
 3108POPC   C2B42224  21.411  19.408   6.522
 3108POPC   C3B42225  21.159  19.364   6.903
 3108POPC   C4B42226  21.224  19.187   7.312
 3109POPC   NC342227   2.042  39.795   5.519
 3109POPC   PO442228   1.692  40.411   5.421
 3109POPC   GL142229   1.751  40.191   5.774
 3109POPC   GL242230   2.091  40.309   5.775
 3109POPC   C1A42231   1.862  40.008   6.173
 3109POPC   D2A42232   1.965  40.178   6.584
 3109POPC   C3A42233   1.922  39.972   6.949
 3109POPC   C4A42234   1.685  40.105   7.279
 3109POPC   C1B42235   2.350  40.329   6.120
 3109POPC   C2B42236   2.460  40.195   6.513
 3109POPC   C3B42237   2.381  40.362   6.920
 3109POPC   C4B42238   2.192  40.225   7.293
 3110POPC   NC342239  39.145  38.755   5.407
 3110POPC   PO442240  39.602  38.266   5.461
 3110POPC   GL142241  39.365  38.440   5.785
 3110POPC   GL242242  39.481  38.786   5.816
 3110POPC   C1A42243  39.192  38.293   6.185
 3110POPC   D2A42244  39.346  38.260   6.616
 3110POPC   C3A42245  39.094  38.239   6.994
 3110POPC   C4A42246  39.182  38.344   7.422
 3110POPC   C1B42247  39.102  38.791   6.089
 3110POPC   C2B42248  38.944  38.632   6.499
 3110POPC   C3B42249  39.196  38.724   6.846
 3110POPC   C4B42250  39.085  38.812   7.234
 3111POPC   NC342251  41.002   7.027   5.441
 3111POPC   PO442252  40.489   6.561   5.486
 3111POPC   GL142253  40.732   6.394   5.822
 3111POPC   GL242254  40.916   6.696   5.859
 3111POPC   C1A42255  40.679   6.360   6.251
 3111POPC   D2A42256  40.610   6.616   6.598
 3111POPC   C3A42257  40.753   6.417   6.984
 3111POPC   C4A42258  40.545   6.309   7.345
 3111POPC   C1B42259  41.029   6.752   6.300
 3111POPC   C2B42260  41.086   6.749   6.763
 3111POPC   C3B42261  40.982   6.848   7.218
 3111POPC   C4B42262  40.773   7.000   7.619
 3112POPC   NC342263  38.247  42.590   5.324
 3112POPC   PO442264  38.281  42.033   5.657
 3112POPC   GL142265  38.439  42.435   5.783
 3112POPC   GL242266  38.121  42.595   5.817
 3112POPC   C1A42267  38.582  42.601   6.196
 3112POPC   D2A42268  38.735  42.336   6.559
 3112POPC   C3A42269  38.565  42.448   6.969
 3112POPC   C4A42270  38.415  42.285   7.363
 3112POPC   C1B42271  38.141  42.337   6.200
 3112POPC   C2B42272  38.275  42.090   6.537
 3112POPC   C3B42273  38.119  42.129   6.944
 3112POPC   C4B42274  37.909  42.252   7.296
 3113POPC   NC342275  31.736  40.149   5.270
 3113POPC   PO442276  31.177  39.832   5.319
 3113POPC   GL142277  31.489  39.926   5.681
 3113POPC   GL242278  31.732  40.206   5.768
 3113POPC   C1A42279  31.643  39.783   6.104
 3113POPC   D2A42280  31.437  39.556   6.472
 3113POPC   C3A42281  31.356  39.846   6.827
 3113POPC   C4A42282  31.633  39.829   7.180
 3113POPC   C1B42283  31.681  40.342   6.190
 3113POPC   C2B42284  31.697  40.169   6.602
 3113POPC   C3B42285  31.603  40.311   7.026
 3113POPC   C4B42286  31.783  40.415   7.414
 3114POPC   NC342287  29.108   3.188   5.411
 3114POPC   PO442288  28.813   3.792   5.308
 3114POPC   GL142289  28.936   3.614   5.761
 3114POPC   GL242290  29.197   3.359   5.886
 3114POPC   C1A42291  29.117   3.750   6.226
 3114POPC   D2A42292  29.191   3.695   6.691
 3114POPC   C3A42293  29.178   3.489   7.116
 3114POPC   C4A42294  29.137   3.625   7.538
 3114POPC   C1B42295  28.870   3.307   6.240
 3114POPC   C2B42296  28.847   3.309   6.718
 3114POPC   C3B42297  28.950   3.017   7.062
 3114POPC   C4B42298  29.095   3.107   7.497
 3115POPC   NC342299   3.794   1.192   5.148
 3115POPC   PO442300   3.258   1.417   5.523
 3115POPC   GL142301   3.496   1.223   5.848
 3115POPC   GL242302   3.802   1.172   5.685
 3115POPC   C1A42303   3.595   1.112   6.275
 3115POPC   D2A42304   3.613   0.991   6.700
 3115POPC   C3A42305   3.548   1.238   7.054
 3115POPC   C4A42306   3.488   1.180   7.489
 3115POPC   C1B42307   3.952   1.399   6.059
 3115POPC   C2B42308   4.020   1.344   6.516
 3115POPC   C3B42309   3.943   1.580   6.893
 3115POPC   C4B42310   3.918   1.466   7.299
 3116POPC   NC342311  11.567  13.674   5.480
 3116POPC   PO442312  11.126  13.225   5.443
 3116POPC   GL142313  11.111  13.515   5.759
 3116POPC   GL242314  11.142  13.875   5.702
 3116POPC   C1A42315  10.942  13.474   6.148
 3116POPC   D2A42316  10.998  13.611   6.544
 3116POPC   C3A42317  11.308  13.413   6.766
 3116POPC   C4A42318  11.318  13.346   7.176
 3116POPC   C1B42319  11.246  13.876   6.160
 3116POPC   C2B42320  11.387  13.910   6.635
 3116POPC   C3B42321  11.256  13.887   7.101
 3116POPC   C4B42322  11.230  14.149   7.530
 3117POPC   NC342323  29.636  19.566   5.421
 3117POPC   PO442324  30.196  19.914   5.466
 3117POPC   GL142325  29.974  19.878   5.800
 3117POPC   GL242326  29.672  19.960   5.767
 3117POPC   C1A42327  29.813  19.614   6.120
 3117POPC   D2A42328  29.935  19.563   6.542
 3117POPC   C3A42329  29.737  19.750   6.887
 3117POPC   C4A42330  29.793  19.560   7.273
 3117POPC   C1B42331  29.762  20.132   6.186
 3117POPC   C2B42332  29.601  20.205   6.560
 3117POPC   C3B42333  29.778  20.280   6.960
 3117POPC   C4B42334  29.708  20.092   7.323
 3118POPC   NC342335  16.116  14.984   5.342
 3118POPC   PO442336  15.593  15.443   5.476
 3118POPC   GL142337  15.647  15.360   5.847
 3118POPC   GL242338  15.897  15.128   5.801
 3118POPC   C1A42339  15.560  15.195   6.218
 3118POPC   D2A42340  15.850  15.136   6.506
 3118POPC   C3A42341  15.736  15.084   6.919
 3118POPC   C4A42342  16.015  15.030   7.245
 3118POPC   C1B42343  16.100  15.486   6.037
 3118POPC   C2B42344  16.220  15.525   6.457
 3118POPC   C3B42345  16.119  15.442   6.861
 3118POPC   C4B42346  16.375  15.355   7.193
 3119POPC   NC342347  35.375   0.189   5.153
 3119POPC   PO442348  35.322   0.804   5.467
 3119POPC   GL142349  35.557   0.528   5.799
 3119POPC   GL242350  35.652   0.193   5.652
 3119POPC   C1A42351  35.555   0.490   6.291
 3119POPC   D2A42352  35.732   0.616   6.708
 3119POPC   C3A42353  35.449   0.582   7.032
 3119POPC   C4A42354  35.156   0.289   7.237
 3119POPC   C1B42355  35.457   0.017   6.042
 3119POPC   C2B42356  35.384  44.913   6.498
 3119POPC   C3B42357  35.631   0.131   6.824
 3119POPC   C4B42358  35.903   0.338   7.148
 3120POPC   NC342359   5.647   1.407   5.115
 3120POPC   PO442360   5.916   0.992   5.515
 3120POPC   GL142361   5.900   0.931   5.907
 3120POPC   GL242362   6.241   1.004   5.927
 3120POPC   C1A42363   5.811   0.861   6.336
 3120POPC   D2A42364   5.510   0.955   6.645
 3120POPC   C3A42365   5.646   1.071   7.039
 3120POPC   C4A42366   5.869   1.438   7.196
 3120POPC   C1B42367   6.077   1.308   6.230
 3120POPC   C2B42368   5.950   1.233   6.659
 3120POPC   C3B42369   6.161   1.070   6.999
 3120POPC   C4B42370   6.347   1.279   7.327
 3121POPC   NC342371   3.637  30.368   5.537
 3121POPC   PO442372   4.014  30.854   5.292
 3121POPC   GL142373   3.758  30.823   5.758
 3121POPC   GL242374   3.521  30.537   5.975
 3121POPC   C1A42375   3.824  30.855   6.210
 3121POPC   D2A42376   3.777  30.485   6.461
 3121POPC   C3A42377   3.657  30.495   6.872
 3121POPC   C4A42378   3.795  30.770   7.161
 3121POPC   C1B42379   3.291  30.785   6.237
 3121POPC   C2B42380   3.449  30.894   6.614
 3121POPC   C3B42381   3.279  30.821   7.004
 3121POPC   C4B42382   3.290  30.733   7.424
 3122POPC   NC342383  38.967  22.106   5.481
 3122POPC   PO442384  38.298  22.280   5.451
 3122POPC   GL142385  38.619  22.369   5.765
 3122POPC   GL242386  38.685  22.032   5.885
 3122POPC   C1A42387  38.751  22.564   6.171
 3122POPC   D2A42388  38.908  22.510   6.617
 3122POPC   C3A42389  38.606  22.434   6.935
 3122POPC   C4A42390  38.621  22.023   7.113
 3122POPC   C1B42391  38.302  22.132   6.111
 3122POPC   C2B42392  38.364  22.234   6.539
 3122POPC   C3B42393  38.153  22.122   6.912
 3122POPC   C4B42394  38.168  22.301   7.295
 3123POPC   NC342395  33.957  25.041   5.626
 3123POPC   PO442396  34.591  25.107   5.544
 3123POPC   GL142397  34.412  25.396   5.873
 3123POPC   GL242398  34.629  25.715   5.958
 3123POPC   C1A42399  34.305  25.247   6.282
 3123POPC   D2A42400  34.532  25.094   6.640
 3123POPC   C3A42401  34.545  25.207   7.081
 3123POPC   C4A42402  34.916  25.033   7.262
 3123POPC   C1B42403  34.733  25.520   6.347
 3123POPC   C2B42404  34.892  25.462   6.768
 3123POPC   C3B42405  34.952  25.549   7.194
 3123POPC   C4B42406  35.018  25.387   7.625
 3124POPC   NC342407  39.031   7.835   5.728
 3124POPC   PO442408  38.630   8.146   5.277
 3124POPC   GL142409  38.581   8.207   5.734
 3124POPC   GL242410  38.618   8.571   5.704
 3124POPC   C1A42411  38.428   8.067   6.174
 3124POPC   D2A42412  38.585   7.869   6.563
 3124POPC   C3A42413  38.427   8.048   6.953
 3124POPC   C4A42414  38.251   8.200   7.343
 3124POPC   C1B42415  38.493   8.586   6.158
 3124POPC   C2B42416  38.286   8.482   6.571
 3124POPC   C3B42417  38.421   8.575   7.013
 3124POPC   C4B42418  38.756   8.345   7.232
 3125POPC   NC342419  28.767  35.661   5.173
 3125POPC   PO442420  29.095  35.113   5.441
 3125POPC   GL142421  29.189  35.374   5.810
 3125POPC   GL242422  29.526  35.429   5.991
 3125POPC   C1A42423  29.021  35.475   6.193
 3125POPC   D2A42424  29.086  35.217   6.542
 3125POPC   C3A42425  29.300  35.432   6.868
 3125POPC   C4A42426  29.150  35.679   7.192
 3125POPC   C1B42427  29.520  35.003   6.186
 3125POPC   C2B42428  29.414  34.803   6.605
 3125POPC   C3B42429  29.211  34.938   7.004
 3125POPC   C4B42430  29.156  35.201   7.363
 3126POPC   NC342431  44.669  41.851   5.608
 3126POPC   PO442432  44.753  41.317   5.204
 3126POPC   GL142433  44.613  41.336   5.642
 3126POPC   GL242434  44.911  41.342   5.785
 3126POPC   C1A42435  44.429  41.380   6.102
 3126POPC   D2A42436  44.605  41.301   6.547
 3126POPC   C3A42437  44.496  41.432   6.959
 3126POPC   C4A42438  44.425  41.769   7.259
 3126POPC   C1B42439  44.904  41.575   6.195
 3126POPC   C2B42440  44.808  41.750   6.609
 3126POPC   C3B42441  44.838  41.890   7.005
 3126POPC   C4B42442   0.225  41.847   7.207
 3127POPC   NC342443  20.823  20.615   5.318
 3127POPC   PO442444  20.326  20.961   5.481
 3127POPC   GL142445  20.531  20.627   5.786
 3127POPC   GL242446  20.918  20.529   5.813
 3127POPC   C1A42447  20.651  20.747   6.229
 3127POPC   D2A42448  20.629  20.982   6.645
 3127POPC   C3A42449  20.519  20.733   7.022
 3127POPC   C4A42450  20.628  20.728   7.476
 3127POPC   C1B42451  21.048  20.445   6.234
 3127POPC   C2B42452  20.900  20.539   6.650
 3127POPC   C3B42453  20.816  20.305   7.007
 3127POPC   C4B42454  20.866  20.290   7.457
 3128POPC   NC342455   2.499  13.599   5.501
 3128POPC   PO442456   2.037  13.157   5.420
 3128POPC   GL142457   2.045  13.508   5.716
 3128POPC   GL242458   1.737  13.707   5.714
 3128POPC   C1A42459   2.156  13.628   6.150
 3128POPC   D2A42460   2.063  13.409   6.540
 3128POPC   C3A42461   2.123  13.594   6.940
 3128POPC   C4A42462   2.306  13.370   7.254
 3128POPC   C1B42463   1.670  13.831   6.156
 3128POPC   C2B42464   1.807  13.855   6.601
 3128POPC   C3B42465   1.649  13.874   7.014
 3128POPC   C4B42466   1.494  13.622   7.351
 3129POPC   NC342467  17.230   0.727   5.464
 3129POPC   PO442468  17.680   0.250   5.536
 3129POPC   GL142469  17.606   0.497   5.850
 3129POPC   GL242470  17.279   0.357   5.835
 3129POPC   C1A42471  17.767   0.356   6.239
 3129POPC   D2A42472  17.549   0.218   6.631
 3129POPC   C3A42473  17.595   0.419   7.015
 3129POPC   C4A42474  17.771   0.109   7.270
 3129POPC   C1B42475  17.269   0.356   6.254
 3129POPC   C2B42476  17.197   0.593   6.651
 3129POPC   C3B42477  17.026   0.592   7.041
 3129POPC   C4B42478  17.148   0.433   7.439
 3130POPC   NC342479  13.157  31.330   5.456
 3130POPC   PO442480  13.855  31.288   5.234
 3130POPC   GL142481  13.709  31.372   5.684
 3130POPC   GL242482  13.439  31.570   5.832
 3130POPC   C1A42483  13.847  31.478   6.145
 3130POPC   D2A42484  13.888  31.737   6.552
 3130POPC   C3A42485  13.747  31.526   6.935
 3130POPC   C4A42486  13.893  31.289   7.301
 3130POPC   C1B42487  13.461  31.811   6.248
 3130POPC   C2B42488  13.412  31.912   6.705
 3130POPC   C3B42489  13.611  31.982   7.103
 3130POPC   C4B42490  13.639  31.703   7.443
 3131POPC   NC342491  10.682  21.711   5.240
 3131POPC   PO442492  10.325  22.225   5.318
 3131POPC   GL142493  10.584  22.048   5.646
 3131POPC   GL242494  10.737  22.353   5.786
 3131POPC   C1A42495  10.569  21.885   6.069
 3131POPC   D2A42496  10.388  22.022   6.472
 3131POPC   C3A42497  10.501  21.993   6.908
 3131POPC   C4A42498  10.625  22.049   7.338
 3131POPC   C1B42499  10.595  22.413   6.205
 3131POPC   C2B42500  10.781  22.370   6.598
 3131POPC   C3B42501  10.850  22.373   7.034
 3131POPC   C4B42502  10.976  22.468   7.468
 3132POPC   NC342503  23.981  29.450   5.528
 3132POPC   PO442504  23.373  29.123   5.587
 3132POPC   GL142505  23.556  29.011   5.951
 3132POPC   GL242506  23.881  29.117   5.927
 3132POPC   C1A42507  23.665  29.185   6.375
 3132POPC   D2A42508  23.460  29.318   6.746
 3132POPC   C3A42509  23.671  29.148   7.093
 3132POPC   C4A42510  24.057  28.964   7.237
 3132POPC   C1B42511  24.083  29.453   6.150
 3132POPC   C2B42512  24.105  29.570   6.549
 3132POPC   C3B42513  23.911  29.601   6.907
 3132POPC   C4B42514  24.108  29.471   7.271
 3133POPC   NC342515  20.597  36.029   5.165
 3133POPC   PO442516  20.827  36.434   5.644
 3133POPC   GL142517  20.569  36.092   5.756
 3133POPC   GL242518  20.391  36.283   5.941
 3133POPC   C1A42519  20.368  35.808   6.056
 3133POPC   D2A42520  20.448  35.760   6.510
 3133POPC   C3A42521  20.371  36.090   6.854
 3133POPC   C4A42522  20.551  36.071   7.298
 3133POPC   C1B42523  20.684  36.168   6.271
 3133POPC   C2B42524  20.863  36.225   6.686
 3133POPC   C3B42525  21.019  36.324   7.119
 3133POPC   C4B42526  20.960  36.264   7.587
 3134POPC   NC342527  30.192  22.208   5.124
 3134POPC   PO442528  29.784  21.896   5.503
 3134POPC   GL142529  29.826  22.114   5.912
 3134POPC   GL242530  30.069  21.966   6.059
 3134POPC   C1A42531  29.669  22.203   6.335
 3134POPC   D2A42532  29.864  21.976   6.673
 3134POPC   C3A42533  29.865  22.085   7.112
 3134POPC   C4A42534  29.506  22.326   7.209
 3134POPC   C1B42535  30.148  22.337   6.333
 3134POPC   C2B42536  30.081  22.434   6.782
 3134POPC   C3B42537  30.311  22.331   7.180
 3134POPC   C4B42538  30.142  22.084   7.577
 3135POPC   NC342539  44.324  16.445   5.499
 3135POPC   PO442540  43.710  16.775   5.486
 3135POPC   GL142541  43.896  16.544   5.805
 3135POPC   GL242542  44.154  16.774   5.851
 3135POPC   C1A42543  43.832  16.617   6.262
 3135POPC   D2A42544  43.873  16.449   6.703
 3135POPC   C3A42545  43.986  16.719   7.061
 3135POPC   C4A42546  44.303  16.477   7.298
 3135POPC   C1B42547  44.318  16.806   6.244
 3135POPC   C2B42548  44.308  16.834   6.691
 3135POPC   C3B42549  44.433  16.987   7.122
 3135POPC   C4B42550  44.170  16.910   7.509
 3136POPC   NC342551  20.257  33.131   5.297
 3136POPC   PO442552  19.702  32.878   5.347
 3136POPC   GL142553  19.938  32.993   5.703
 3136POPC   GL242554  20.015  32.632   5.723
 3136POPC   C1A42555  19.837  33.217   6.108
 3136POPC   D2A42556  19.665  33.051   6.491
 3136POPC   C3A42557  19.813  33.129   6.887
 3136POPC   C4A42558  19.971  33.283   7.238
 3136POPC   C1B42559  19.813  32.647   6.128
 3136POPC   C2B42560  19.986  32.665   6.539
 3136POPC   C3B42561  19.816  32.617   6.914
 3136POPC   C4B42562  19.822  32.788   7.289
 3137POPC   NC342563  38.056  28.202   5.532
 3137POPC   PO442564  37.364  28.408   5.418
 3137POPC   GL142565  37.585  28.261   5.751
 3137POPC   GL242566  37.776  28.549   5.788
 3137POPC   C1A42567  37.685  28.236   6.208
 3137POPC   D2A42568  37.718  28.501   6.596
 3137POPC   C3A42569  37.753  28.295   6.995
 3137POPC   C4A42570  37.510  28.426   7.300
 3137POPC   C1B42571  37.952  28.682   6.142
 3137POPC   C2B42572  38.202  28.594   6.494
 3137POPC   C3B42573  38.187  28.592   6.916
 3137POPC   C4B42574  37.993  28.647   7.298
 3138POPC   NC342575  34.430  32.125   5.416
 3138POPC   PO442576  34.928  32.494   5.362
 3138POPC   GL142577  34.750  32.309   5.767
 3138POPC   GL242578  34.808  31.937   5.753
 3138POPC   C1A42579  34.486  32.140   6.138
 3138POPC   D2A42580  34.144  32.182   6.484
 3138POPC   C3A42581  34.350  32.151   6.853
 3138POPC   C4A42582  34.201  32.075   7.240
 3138POPC   C1B42583  35.124  32.121   6.060
 3138POPC   C2B42584  35.030  32.271   6.468
 3138POPC   C3B42585  34.859  32.013   6.780
 3138POPC   C4B42586  34.763  32.119   7.176
 3139POPC   NC342587  40.824  20.516   5.231
 3139POPC   PO442588  40.864  21.182   5.226
 3139POPC   GL142589  41.035  21.055   5.673
 3139POPC   GL242590  41.030  20.671   5.724
 3139POPC   C1A42591  40.933  20.998   6.155
 3139POPC   D2A42592  41.037  20.805   6.591
 3139POPC   C3A42593  40.928  20.881   7.020
 3139POPC   C4A42594  40.544  21.108   7.176
 3139POPC   C1B42595  40.967  20.303   6.058
 3139POPC   C2B42596  41.108  20.300   6.544
 3139POPC   C3B42597  40.912  20.362   6.971
 3139POPC   C4B42598  40.790  20.147   7.385
 3140POPC   NC342599  37.806  30.823   5.493
 3140POPC   PO442600  37.427  30.263   5.324
 3140POPC   GL142601  37.477  30.487   5.697
 3140POPC   GL242602  37.327  30.807   5.720
 3140POPC   C1A42603  37.550  30.385   6.130
 3140POPC   D2A42604  37.345  30.299   6.507
 3140POPC   C3A42605  37.458  30.477   6.912
 3140POPC   C4A42606  37.854  30.504   7.135
 3140POPC   C1B42607  37.501  30.901   6.143
 3140POPC   C2B42608  37.721  30.752   6.534
 3140POPC   C3B42609  37.726  30.963   6.934
 3140POPC   C4B42610  37.389  30.898   7.194
 3141POPC   NC342611  44.926  17.167   5.146
 3141POPC   PO442612  44.372  17.525   5.426
 3141POPC   GL142613  44.356  17.279   5.850
 3141POPC   GL242614  44.356  17.593   5.978
 3141POPC   C1A42615  44.652  17.178   6.223
 3141POPC   D2A42616  44.605  17.243   6.669
 3141POPC   C3A42617  44.880  17.482   6.912
 3141POPC   C4A42618  44.825  17.409   7.343
 3141POPC   C1B42619  44.679  17.688   6.280
 3141POPC   C2B42620  44.784  17.915   6.637
 3141POPC   C3B42621  44.720  17.949   7.074
 3141POPC   C4B42622  44.602  17.834   7.501
 3142POPC   NC342623  21.079  14.002   5.251
 3142POPC   PO442624  21.382  13.366   5.407
 3142POPC   GL142625  21.270  13.579   5.746
 3142POPC   GL242626  21.342  13.936   5.753
 3142POPC   C1A42627  21.414  13.592   6.141
 3142POPC   D2A42628  21.320  13.745   6.520
 3142POPC   C3A42629  21.383  13.576   6.918
 3142POPC   C4A42630  21.577  13.912   7.122
 3142POPC   C1B42631  21.102  14.049   6.138
 3142POPC   C2B42632  20.998  14.144   6.590
 3142POPC   C3B42633  21.096  14.017   7.006
 3142POPC   C4B42634  21.024  13.945   7.462
 3143POPC   NC342635  30.001   0.470   5.407
 3143POPC   PO442636  29.843  44.913   5.352
 3143POPC   GL142637  30.087   0.073   5.707
 3143POPC   GL242638  29.763   0.217   5.803
 3143POPC   C1A42639  30.139   0.353   6.125
 3143POPC   D2A42640  29.916   0.405   6.558
 3143POPC   C3A42641  30.098   0.524   7.001
 3143POPC   C4A42642  29.887   0.379   7.382
 3143POPC   C1B42643  29.503   0.335   6.166
 3143POPC   C2B42644  29.389   0.448   6.595
 3143POPC   C3B42645  29.588   0.466   6.989
 3143POPC   C4B42646  29.571   0.795   7.334
 3144POPC   NC342647  17.477  42.575   5.291
 3144POPC   PO442648  17.787  42.023   5.137
 3144POPC   GL142649  17.674  42.103   5.631
 3144POPC   GL242650  17.299  41.937   5.699
 3144POPC   C1A42651  17.852  42.308   6.098
 3144POPC   D2A42652  17.796  42.307   6.615
 3144POPC   C3A42653  17.472  42.373   6.991
 3144POPC   C4A42654  17.150  42.594   7.193
 3144POPC   C1B42655  17.423  42.050   6.103
 3144POPC   C2B42656  17.640  41.849   6.441
 3144POPC   C3B42657  17.530  41.889   6.880
 3144POPC   C4B42658  17.609  41.990   7.312
 3145POPC   NC342659  28.142  15.481   5.442
 3145POPC   PO442660  28.702  15.075   5.263
 3145POPC   GL142661  28.557  15.124   5.710
 3145POPC   GL242662  28.247  14.966   5.752
 3145POPC   C1A42663  28.644  15.254   6.158
 3145POPC   D2A42664  28.732  15.477   6.557
 3145POPC   C3A42665  28.763  15.269   6.951
 3145POPC   C4A42666  28.560  15.330   7.337
 3145POPC   C1B42667  28.131  15.280   6.090
 3145POPC   C2B42668  28.217  15.466   6.522
 3145POPC   C3B42669  28.174  15.466   6.992
 3145POPC   C4B42670  28.096  15.134   7.299
 3146POPC   NC342671  10.411  22.640   5.493
 3146POPC   PO442672  10.634  23.162   5.156
 3146POPC   GL142673  10.386  23.104   5.717
 3146POPC   GL242674  10.555  22.832   5.933
 3146POPC   C1A42675  10.208  22.889   6.238
 3146POPC   D2A42676  10.276  22.612   6.645
 3146POPC   C3A42677  10.384  22.756   7.115
 3146POPC   C4A42678  10.216  22.913   7.537
 3146POPC   C1B42679  10.777  22.891   6.314
 3146POPC   C2B42680  10.728  22.855   6.743
 3146POPC   C3B42681  10.903  22.862   7.144
 3146POPC   C4B42682  10.725  23.006   7.515
 3147POPC   NC342683  44.444  18.019   5.352
 3147POPC   PO442684   0.026  17.765   5.472
 3147POPC   GL142685  44.734  17.942   5.809
 3147POPC   GL242686  44.376  18.109   5.841
 3147POPC   C1A42687  44.759  18.201   6.176
 3147POPC   D2A42688  44.983  18.514   6.399
 3147POPC   C3A42689  44.869  18.399   6.827
 3147POPC   C4A42690  44.899  18.384   7.247
 3147POPC   C1B42691  44.277  18.021   6.258
 3147POPC   C2B42692  44.426  18.284   6.570
 3147POPC   C3B42693  44.356  18.462   6.959
 3147POPC   C4B42694  44.365  18.238   7.294
 3148POPC   NC342695  10.111  42.011   5.521
 3148POPC   PO442696  10.757  42.193   5.733
 3148POPC   GL142697  10.574  42.475   5.948
 3148POPC   GL242698  10.237  42.447   5.834
 3148POPC   C1A42699  10.646  42.647   6.348
 3148POPC   D2A42700  10.480  42.857   6.690
 3148POPC   C3A42701  10.650  42.719   7.061
 3148POPC   C4A42702  10.841  42.338   7.148
 3148POPC   C1B42703  10.271  42.280   6.301
 3148POPC   C2B42704  10.328  42.382   6.764
 3148POPC   C3B42705  10.313  42.334   7.242
 3148POPC   C4B42706  10.302  42.135   7.692
 3149POPC   NC342707  22.698  11.696   5.371
 3149POPC   PO442708  23.080  11.139   5.519
 3149POPC   GL142709  22.878  11.313   5.844
 3149POPC   GL242710  22.555  11.422   5.801
 3149POPC   C1A42711  22.904  11.256   6.259
 3149POPC   D2A42712  23.152  11.214   6.610
 3149POPC   C3A42713  23.007  11.191   6.997
 3149POPC   C4A42714  23.166  11.109   7.374
 3149POPC   C1B42715  22.455  11.572   6.227
 3149POPC   C2B42716  22.632  11.459   6.636
 3149POPC   C3B42717  22.534  11.376   7.055
 3149POPC   C4B42718  22.493  11.476   7.494
 3150POPC   NC342719  35.837   0.955   5.508
 3150POPC   PO442720  36.258   1.434   5.137
 3150POPC   GL142721  36.217   1.296   5.602
 3150POPC   GL242722  36.524   1.311   5.832
 3150POPC   C1A42723  36.010   1.286   6.059
 3150POPC   D2A42724  35.985   0.969   6.441
 3150POPC   C3A42725  35.971   1.045   6.925
 3150POPC   C4A42726  35.930   1.072   7.413
 3150POPC   C1B42727  36.441   1.173   6.293
 3150POPC   C2B42728  36.277   1.376   6.663
 3150POPC   C3B42729  36.365   1.357   7.105
 3150POPC   C4B42730  36.404   1.351   7.528
 3151POPC   NC342731  27.172  37.590   5.395
 3151POPC   PO442732  26.605  38.047   5.415
 3151POPC   GL142733  26.819  37.854   5.743
 3151POPC   GL242734  27.101  38.059   5.733
 3151POPC   C1A42735  26.855  37.713   6.192
 3151POPC   D2A42736  26.724  37.855   6.604
 3151POPC   C3A42737  26.560  37.601   6.948
 3151POPC   C4A42738  26.932  37.388   7.039
 3151POPC   C1B42739  27.288  38.025   6.149
 3151POPC   C2B42740  27.277  37.869   6.600
 3151POPC   C3B42741  27.243  37.834   7.057
 3151POPC   C4B42742  26.874  37.818   7.323
 3152POPC   NC342743  22.808   6.178   5.356
 3152POPC   PO442744  22.858   5.521   5.319
 3152POPC   GL142745  22.951   5.801   5.695
 3152POPC   GL242746  22.709   6.030   5.829
 3152POPC   C1A42747  22.959   5.727   6.161
 3152POPC   D2A42748  23.082   5.625   6.582
 3152POPC   C3A42749  22.816   5.802   6.896
 3152POPC   C4A42750  22.969   5.753   7.296
 3152POPC   C1B42751  22.460   6.247   6.152
 3152POPC   C2B42752  22.494   6.202   6.570
 3152POPC   C3B42753  22.587   6.298   6.955
 3152POPC   C4B42754  22.595   6.096   7.290
 3153POPC   NC342755  34.939   0.659   5.206
 3153POPC   PO442756  34.667   1.168   5.455
 3153POPC   GL142757  34.788   1.093   5.930
 3153POPC   GL242758  35.052   1.332   6.033
 3153POPC   C1A42759  34.677   0.951   6.374
 3153POPC   D2A42760  34.667   1.076   6.841
 3153POPC   C3A42761  34.486   0.805   7.180
 3153POPC   C4A42762  34.292   0.781   7.607
 3153POPC   C1B42763  35.029   1.305   6.478
 3153POPC   C2B42764  35.113   1.327   6.896
 3153POPC   C3B42765  34.970   1.300   7.308
 3153POPC   C4B42766  34.753   1.018   7.592
 3154POPC   NC342767  42.124  33.712   5.492
 3154POPC   PO442768  42.480  33.036   5.402
 3154POPC   GL142769  42.403  33.096   5.807
 3154POPC   GL242770  42.450  33.455   5.823
 3154POPC   C1A42771  42.298  32.810   6.174
 3154POPC   D2A42772  42.300  32.580   6.591
 3154POPC   C3A42773  42.384  32.827   6.963
 3154POPC   C4A42774  42.276  32.919   7.373
 3154POPC   C1B42775  42.170  33.338   6.188
 3154POPC   C2B42776  42.170  33.102   6.590
 3154POPC   C3B42777  42.173  33.293   7.011
 3154POPC   C4B42778  41.926  33.289   7.411
 3155POPC   NC342779   3.870  21.442   5.387
 3155POPC   PO442780   3.185  21.393   5.476
 3155POPC   GL142781   3.474  21.393   5.799
 3155POPC   GL242782   3.617  21.089   5.704
 3155POPC   C1A42783   3.595  21.534   6.232
 3155POPC   D2A42784   3.789  21.437   6.647
 3155POPC   C3A42785   3.619  21.596   7.048
 3155POPC   C4A42786   3.233  21.631   7.268
 3155POPC   C1B42787   3.553  21.021   6.144
 3155POPC   C2B42788   3.433  21.067   6.572
 3155POPC   C3B42789   3.623  21.047   6.966
 3155POPC   C4B42790   3.534  21.202   7.368
 3156POPC   NC342791  21.953   7.496   5.423
 3156POPC   PO442792  22.575   7.427   5.575
 3156POPC   GL142793  22.398   7.555   5.934
 3156POPC   GL242794  22.086   7.378   5.902
 3156POPC   C1A42795  22.215   7.584   6.367
 3156POPC   D2A42796  21.850   7.361   6.556
 3156POPC   C3A42797  21.863   7.396   7.007
 3156POPC   C4A42798  22.296   7.444   7.115
 3156POPC   C1B42799  22.172   7.097   6.229
 3156POPC   C2B42800  22.325   7.128   6.653
 3156POPC   C3B42801  22.135   6.964   6.981
 3156POPC   C4B42802  21.873   6.936   7.349
 3157POPC   NC342803   3.334   5.057   5.409
 3157POPC   PO442804   3.939   4.727   5.591
 3157POPC   GL142805   3.604   4.869   5.863
 3157POPC   GL242806   3.464   5.228   5.859
 3157POPC   C1A42807   3.672   5.051   6.280
 3157POPC   D2A42808   3.486   5.259   6.616
 3157POPC   C3A42809   3.593   5.068   6.988
 3157POPC   C4A42810   3.436   5.257   7.318
 3157POPC   C1B42811   3.181   5.430   6.128
 3157POPC   C2B42812   3.018   5.496   6.520
 3157POPC   C3B42813   3.070   5.405   6.944
 3157POPC   C4B42814   3.075   5.611   7.351
 3158POPC   NC342815  18.729   6.729   5.415
 3158POPC   PO442816  19.246   6.353   5.307
 3158POPC   GL142817  19.027   6.431   5.736
 3158POPC   GL242818  19.016   6.824   5.830
 3158POPC   C1A42819  19.121   6.484   6.201
 3158POPC   D2A42820  19.401   6.513   6.573
 3158POPC   C3A42821  19.152   6.406   6.956
 3158POPC   C4A42822  18.847   6.502   7.218
 3158POPC   C1B42823  18.942   6.977   6.254
 3158POPC   C2B42824  18.977   6.779   6.635
 3158POPC   C3B42825  19.274   6.903   6.922
 3158POPC   C4B42826  19.250   6.793   7.295
 3159POPC   NC342827  22.046   4.581   5.386
 3159POPC   PO442828  22.356   4.026   5.136
 3159POPC   GL142829  22.129   4.136   5.588
 3159POPC   GL242830  22.360   4.415   5.746
 3159POPC   C1A42831  21.973   4.238   6.048
 3159POPC   D2A42832  22.131   4.261   6.500
 3159POPC   C3A42833  21.995   4.413   6.917
 3159POPC   C4A42834  22.020   4.027   7.167
 3159POPC   C1B42835  22.330   4.588   6.157
 3159POPC   C2B42836  22.247   4.756   6.581
 3159POPC   C3B42837  22.478   4.759   6.971
 3159POPC   C4B42838  22.366   4.549   7.372
 3160POPC   NC342839   9.068  21.461   5.506
 3160POPC   PO442840   8.947  20.854   5.667
 3160POPC   GL142841   9.074  21.157   5.945
 3160POPC   GL242842   8.901  21.436   5.970
 3160POPC   C1A42843   9.060  21.245   6.393
 3160POPC   D2A42844   8.794  21.077   6.662
 3160POPC   C3A42845   8.893  21.333   6.997
 3160POPC   C4A42846   9.221  21.547   7.213
 3160POPC   C1B42847   8.551  21.441   6.244
 3160POPC   C2B42848   8.476  21.501   6.684
 3160POPC   C3B42849   8.456  21.569   7.111
 3160POPC   C4B42850   8.776  21.787   7.255
 3161POPC   NC342851  41.099  22.180   5.504
 3161POPC   PO442852  40.367  21.989   5.541
 3161POPC   GL142853  40.698  22.244   5.806
 3161POPC   GL242854  40.974  22.051   5.963
 3161POPC   C1A42855  40.797  22.427   6.236
 3161POPC   D2A42856  40.840  22.213   6.611
 3161POPC   C3A42857  40.884  22.405   6.956
 3161POPC   C4A42858  40.673  22.222   7.331
 3161POPC   C1B42859  41.074  21.870   6.311
 3161POPC   C2B42860  41.072  21.719   6.681
 3161POPC   C3B42861  40.970  21.904   7.029
 3161POPC   C4B42862  40.997  21.803   7.409
 3162POPC   NC342863  27.485  36.327   5.418
 3162POPC   PO442864  27.337  35.684   5.364
 3162POPC   GL142865  27.463  35.813   5.809
 3162POPC   GL242866  27.829  35.766   5.961
 3162POPC   C1A42867  27.454  36.172   6.103
 3162POPC   D2A42868  27.452  36.459   6.479
 3162POPC   C3A42869  27.723  36.427   6.839
 3162POPC   C4A42870  27.507  36.277   7.217
 3162POPC   C1B42871  27.807  35.934   6.389
 3162POPC   C2B42872  27.523  35.978   6.749
 3162POPC   C3B42873  27.622  35.773   7.143
 3162POPC   C4B42874  27.332  35.466   7.216
 3163POPC   NC342875   2.072  28.230   5.469
 3163POPC   PO442876   1.517  28.113   5.214
 3163POPC   GL142877   1.617  28.259   5.665
 3163POPC   GL242878   1.649  27.959   5.847
 3163POPC   C1A42879   1.849  28.443   6.080
 3163POPC   D2A42880   2.016  28.339   6.535
 3163POPC   C3A42881   1.874  28.513   6.936
 3163POPC   C4A42882   1.841  28.698   7.346
 3163POPC   C1B42883   1.695  28.003   6.284
 3163POPC   C2B42884   1.585  27.914   6.683
 3163POPC   C3B42885   1.839  27.997   7.016
 3163POPC   C4B42886   2.269  28.116   7.057
 3164POPC   NC342887  33.686  36.555   5.419
 3164POPC   PO442888  34.134  37.085   5.461
 3164POPC   GL142889  33.984  36.807   5.773
 3164POPC   GL242890  34.154  37.009   6.009
 3164POPC   C1A42891  33.778  36.661   6.171
 3164POPC   D2A42892  33.778  36.849   6.606
 3164POPC   C3A42893  34.000  36.628   6.964
 3164POPC   C4A42894  33.769  36.518   7.357
 3164POPC   C1B42895  33.720  37.175   6.102
 3164POPC   C2B42896  33.495  37.285   6.484
 3164POPC   C3B42897  33.726  37.324   6.860
 3164POPC   C4B42898  33.781  37.020   7.173
 3165POPC   NC342899  16.540  23.953   5.081
 3165POPC   PO442900  16.538  23.563   5.602
 3165POPC   GL142901  16.706  23.880   5.889
 3165POPC   GL242902  16.409  24.032   6.034
 3165POPC   C1A42903  16.813  23.982   6.327
 3165POPC   D2A42904  16.696  23.836   6.728
 3165POPC   C3A42905  16.736  23.971   7.155
 3165POPC   C4A42906  16.868  23.738   7.517
 3165POPC   C1B42907  16.450  23.620   6.275
 3165POPC   C2B42908  16.511  23.370   6.653
 3165POPC   C3B42909  16.455  23.521   7.088
 3165POPC   C4B42910  16.220  23.567   7.490
 3166POPC   NC342911   3.021  38.009   5.557
 3166POPC   PO442912   2.723  38.560   5.216
 3166POPC   GL142913   2.670  38.568   5.691
 3166POPC   GL242914   2.644  38.242   5.845
 3166POPC   C1A42915   2.703  38.647   6.153
 3166POPC   D2A42916   2.683  38.411   6.533
 3166POPC   C3A42917   2.859  38.540   6.900
 3166POPC   C4A42918   2.848  38.694   7.302
 3166POPC   C1B42919   2.981  38.201   6.181
 3166POPC   C2B42920   3.188  38.247   6.573
 3166POPC   C3B42921   3.136  38.120   6.990
 3166POPC   C4B42922   2.986  38.202   7.401
 3167POPC   NC342923   2.413  35.880   5.704
 3167POPC   PO442924   2.867  36.358   5.481
 3167POPC   GL142925   2.597  36.343   5.845
 3167POPC   GL242926   2.233  36.452   5.874
 3167POPC   C1A42927   2.777  36.224   6.186
 3167POPC   D2A42928   3.012  36.275   6.550
 3167POPC   C3A42929   2.888  35.901   6.739
 3167POPC   C4A42930   2.855  35.907   7.188
 3167POPC   C1B42931   2.206  36.172   6.245
 3167POPC   C2B42932   2.464  36.173   6.570
 3167POPC   C3B42933   2.486  36.183   6.974
 3167POPC   C4B42934   2.498  36.279   7.384
 3168POPC   NC342935  11.187  30.110   5.107
 3168POPC   PO442936  11.689  29.803   5.316
 3168POPC   GL142937  11.706  29.813   5.762
 3168POPC   GL242938  11.458  30.093   5.817
 3168POPC   C1A42939  11.536  29.762   6.192
 3168POPC   D2A42940  11.309  29.664   6.576
 3168POPC   C3A42941  11.545  29.742   6.941
 3168POPC   C4A42942  11.703  29.574   7.285
 3168POPC   C1B42943  11.371  30.232   6.279
 3168POPC   C2B42944  11.294  30.154   6.741
 3168POPC   C3B42945  11.085  29.925   7.092
 3168POPC   C4B42946  10.852  30.007   7.497
 3169POPC   NC342947  35.831  25.789   5.373
 3169POPC   PO442948  36.422  26.011   5.421
 3169POPC   GL142949  36.130  26.015   5.770
 3169POPC   GL242950  36.137  25.649   5.787
 3169POPC   C1A42951  36.185  26.135   6.234
 3169POPC   D2A42952  36.382  26.260   6.649
 3169POPC   C3A42953  36.172  26.009   6.962
 3169POPC   C4A42954  36.272  25.759   7.324
 3169POPC   C1B42955  35.860  25.751   6.154
 3169POPC   C2B42956  35.774  25.870   6.611
 3169POPC   C3B42957  35.794  25.667   7.048
 3169POPC   C4B42958  35.890  25.383   7.402
 3170POPC   NC342959   3.724  14.826   5.512
 3170POPC   PO442960   3.834  14.165   5.389
 3170POPC   GL142961   3.585  14.384   5.743
 3170POPC   GL242962   3.881  14.452   5.851
 3170POPC   C1A42963   3.435  14.573   6.167
 3170POPC   D2A42964   3.374  14.391   6.618
 3170POPC   C3A42965   3.424  14.541   7.095
 3170POPC   C4A42966   3.446  14.426   7.565
 3170POPC   C1B42967   3.948  14.541   6.262
 3170POPC   C2B42968   3.784  14.719   6.624
 3170POPC   C3B42969   3.960  14.564   6.993
 3170POPC   C4B42970   3.858  14.687   7.394
 3171POPC   NC342971   4.675  41.559   5.483
 3171POPC   PO442972   5.254  41.815   5.458
 3171POPC   GL142973   5.116  41.529   5.811
 3171POPC   GL242974   5.385  41.683   5.949
 3171POPC   C1A42975   5.001  41.368   6.267
 3171POPC   D2A42976   4.841  41.598   6.667
 3171POPC   C3A42977   4.849  41.603   7.142
 3171POPC   C4A42978   5.170  41.373   7.430
 3171POPC   C1B42979   5.357  41.689   6.369
 3171POPC   C2B42980   5.352  41.397   6.666
 3171POPC   C3B42981   5.363  41.587   7.023
 3171POPC   C4B42982   5.231  41.871   7.323
 3172POPC   NC342983   3.929  42.404   5.434
 3172POPC   PO442984   4.618  42.324   5.491
 3172POPC   GL142985   4.505  42.483   5.867
 3172POPC   GL242986   4.155  42.546   5.905
 3172POPC   C1A42987   4.548  42.356   6.257
 3172POPC   D2A42988   4.330  42.352   6.631
 3172POPC   C3A42989   4.541  42.358   6.996
 3172POPC   C4A42990   4.343  42.347   7.429
 3172POPC   C1B42991   4.065  42.181   6.204
 3172POPC   C2B42992   3.991  41.968   6.638
 3172POPC   C3B42993   4.059  42.153   7.054
 3172POPC   C4B42994   3.943  42.045   7.493
 3173POPC   NC342995  18.469  25.112   4.841
 3173POPC   PO442996  18.356  25.057   5.503
 3173POPC   GL142997  18.143  25.278   5.806
 3173POPC   GL242998  18.440  25.424   5.934
 3173POPC   C1A42999  18.089  25.245   6.241
 3173POPC   D2A43000  18.326  25.240   6.614
 3173POPC   C3A43001  18.156  25.231   7.031
 3173POPC   C4A43002  18.240  24.962   7.425
 3173POPC   C1B43003  18.492  25.742   6.278
 3173POPC   C2B43004  18.460  25.781   6.715
 3173POPC   C3B43005  18.447  25.694   7.153
 3173POPC   C4B43006  18.227  25.480   7.508
 3174POPC   NC343007  40.828  13.984   5.281
 3174POPC   PO443008  41.050  14.591   5.542
 3174POPC   GL143009  41.131  14.349   5.912
 3174POPC   GL243010  40.961  14.023   5.816
 3174POPC   C1A43011  41.051  14.493   6.344
 3174POPC   D2A43012  40.701  14.440   6.653
 3174POPC   C3A43013  40.836  14.395   7.081
 3174POPC   C4A43014  41.003  14.521   7.490
 3174POPC   C1B43015  41.048  13.992   6.276
 3174POPC   C2B43016  41.190  14.130   6.731
 3174POPC   C3B43017  41.253  14.136   7.216
 3174POPC   C4B43018  40.956  14.027   7.599
 3175POPC   NC343019  24.745  40.106   5.470
 3175POPC   PO443020  24.022  40.175   5.417
 3175POPC   GL143021  24.328  40.044   5.793
 3175POPC   GL243022  24.658  39.817   5.913
 3175POPC   C1A43023  24.427  40.094   6.245
 3175POPC   D2A43024  24.603  39.785   6.541
 3175POPC   C3A43025  24.586  40.010   6.927
 3175POPC   C4A43026  24.365  40.297   7.169
 3175POPC   C1B43027  24.272  39.625   6.108
 3175POPC   C2B43028  24.103  39.701   6.515
 3175POPC   C3B43029  24.240  39.607   6.945
 3175POPC   C4B43030  24.276  39.820   7.350
 3176POPC   NC343031  32.770  42.586   5.550
 3176POPC   PO443032  33.308  42.091   5.483
 3176POPC   GL143033  33.104  42.293   5.806
 3176POPC   GL243034  32.820  42.140   5.881
 3176POPC   C1A43035  33.073  42.555   6.166
 3176POPC   D2A43036  32.808  42.597   6.521
 3176POPC   C3A43037  32.892  42.504   6.952
 3176POPC   C4A43038  33.165  42.595   7.276
 3176POPC   C1B43039  32.896  42.106   6.318
 3176POPC   C2B43040  32.667  42.126   6.693
 3176POPC   C3B43041  32.719  41.970   7.108
 3176POPC   C4B43042  32.728  41.885   7.564
 3177POPC   NC343043  38.368  29.444   5.509
 3177POPC   PO443044  38.151  28.703   5.470
 3177POPC   GL143045  38.226  29.001   5.796
 3177POPC   GL243046  38.569  28.974   5.865
 3177POPC   C1A43047  38.275  29.060   6.255
 3177POPC   D2A43048  38.515  28.973   6.599
 3177POPC   C3A43049  38.514  29.161   6.973
 3177POPC   C4A43050  38.411  28.922   7.309
 3177POPC   C1B43051  38.753  29.239   6.146
 3177POPC   C2B43052  38.861  29.390   6.556
 3177POPC   C3B43053  38.941  29.485   6.981
 3177POPC   C4B43054  38.873  29.240   7.339
 3178POPC   NC343055   2.387  27.290   5.334
 3178POPC   PO443056   2.053  26.717   5.241
 3178POPC   GL143057   1.958  26.624   5.695
 3178POPC   GL243058   1.933  26.995   5.684
 3178POPC   C1A43059   1.774  26.494   6.114
 3178POPC   D2A43060   1.897  26.602   6.533
 3178POPC   C3A43061   1.742  26.602   6.964
 3178POPC   C4A43062   2.101  26.706   7.226
 3178POPC   C1B43063   2.133  27.159   6.044
 3178POPC   C2B43064   2.117  27.080   6.484
 3178POPC   C3B43065   1.957  27.063   6.895
 3178POPC   C4B43066   2.160  27.207   7.242
 3179POPC   NC343067   5.354  30.462   5.408
 3179POPC   PO443068   5.964  30.841   5.448
 3179POPC   GL143069   5.788  30.600   5.756
 3179POPC   GL243070   5.485  30.757   5.857
 3179POPC   C1A43071   5.947  30.646   6.158
 3179POPC   D2A43072   5.906  30.921   6.503
 3179POPC   C3A43073   5.887  30.767   6.876
 3179POPC   C4A43074   5.919  30.655   7.261
 3179POPC   C1B43075   5.470  30.760   6.307
 3179POPC   C2B43076   5.416  30.618   6.728
 3179POPC   C3B43077   5.418  30.775   7.151
 3179POPC   C4B43078   5.361  30.643   7.598
 3180POPC   NC343079  13.731  12.325   5.482
 3180POPC   PO443080  13.271  11.832   5.470
 3180POPC   GL143081  13.486  12.010   5.800
 3180POPC   GL243082  13.364  12.354   5.903
 3180POPC   C1A43083  13.609  12.013   6.206
 3180POPC   D2A43084  13.626  12.254   6.587
 3180POPC   C3A43085  13.818  11.976   6.847
 3180POPC   C4A43086  13.865  11.815   7.251
 3180POPC   C1B43087  13.711  12.565   6.170
 3180POPC   C2B43088  13.979  12.635   6.575
 3180POPC   C3B43089  13.880  12.464   7.006
 3180POPC   C4B43090  13.526  12.205   7.194
 3181POPC   NC343091  23.813  12.010   5.297
 3181POPC   PO443092  23.139  11.894   5.414
 3181POPC   GL143093  23.308  12.126   5.766
 3181POPC   GL243094  23.671  12.166   5.766
 3181POPC   C1A43095  23.392  12.000   6.197
 3181POPC   D2A43096  23.628  11.879   6.564
 3181POPC   C3A43097  23.429  12.076   6.905
 3181POPC   C4A43098  23.540  12.248   7.303
 3181POPC   C1B43099  23.912  11.994   6.109
 3181POPC   C2B43100  24.074  12.113   6.520
 3181POPC   C3B43101  23.938  12.190   6.939
 3181POPC   C4B43102  23.961  11.990   7.344
 3182POPC   NC343103  12.811  23.815   5.161
 3182POPC   PO443104  12.388  23.394   5.210
 3182POPC   GL143105  12.508  23.746   5.591
 3182POPC   GL243106  12.901  23.836   5.678
 3182POPC   C1A43107  12.580  23.888   6.049
 3182POPC   D2A43108  12.741  24.007   6.487
 3182POPC   C3A43109  12.522  23.810   6.864
 3182POPC   C4A43110  12.576  23.774   7.329
 3182POPC   C1B43111  13.056  23.738   6.150
 3182POPC   C2B43112  12.948  23.555   6.598
 3182POPC   C3B43113  12.944  23.527   7.074
 3182POPC   C4B43114  13.074  23.681   7.506
 3183POPC   NC343115  15.534  35.512   5.437
 3183POPC   PO443116  15.952  35.171   5.489
 3183POPC   GL143117  15.989  35.258   5.931
 3183POPC   GL243118  15.714  35.470   5.975
 3183POPC   C1A43119  15.893  35.199   6.409
 3183POPC   D2A43120  15.861  35.044   6.849
 3183POPC   C3A43121  16.121  35.333   7.080
 3183POPC   C4A43122  16.278  35.274   7.524
 3183POPC   C1B43123  15.607  35.626   6.406
 3183POPC   C2B43124  15.648  35.513   6.868
 3183POPC   C3B43125  15.425  35.409   7.280
 3183POPC   C4B43126  15.475  35.273   7.741
 3184POPC   NC343127  28.921  40.210   5.705
 3184POPC   PO443128  28.333  39.871   5.533
 3184POPC   GL143129  28.125  39.761   5.876
 3184POPC   GL243130  28.058  40.064   5.997
 3184POPC   C1A43131  28.361  39.702   6.247
 3184POPC   D2A43132  28.677  39.865   6.483
 3184POPC   C3A43133  28.438  39.855   6.832
 3184POPC   C4A43134  28.424  39.618   7.219
 3184POPC   C1B43135  28.329  40.235   6.260
 3184POPC   C2B43136  28.174  40.505   6.587
 3184POPC   C3B43137  28.165  40.458   7.038
 3184POPC   C4B43138  28.455  40.144   7.246
 3185POPC   NC343139  16.981  33.005   5.167
 3185POPC   PO443140  16.416  32.918   5.526
 3185POPC   GL143141  16.599  33.148   5.853
 3185POPC   GL243142  16.967  33.160   5.867
 3185POPC   C1A43143  16.715  32.989   6.275
 3185POPC   D2A43144  16.676  32.787   6.642
 3185POPC   C3A43145  16.690  33.068   7.004
 3185POPC   C4A43146  16.709  32.987   7.427
 3185POPC   C1B43147  17.213  32.867   6.200
 3185POPC   C2B43148  17.179  32.781   6.679
 3185POPC   C3B43149  17.175  32.871   7.135
 3185POPC   C4B43150  17.155  33.207   7.474
 3186POPC   NC343151  40.647  34.300   5.401
 3186POPC   PO443152  41.131  34.651   5.177
 3186POPC   GL143153  40.857  34.745   5.616
 3186POPC   GL243154  40.502  34.693   5.700
 3186POPC   C1A43155  40.940  34.770   6.094
 3186POPC   D2A43156  41.018  34.461   6.470
 3186POPC   C3A43157  40.844  34.292   6.885
 3186POPC   C4A43158  40.809  34.540   7.280
 3186POPC   C1B43159  40.579  34.394   6.059
 3186POPC   C2B43160  40.504  34.304   6.486
 3186POPC   C3B43161  40.409  34.549   6.867
 3186POPC   C4B43162  40.241  34.698   7.245
 3187POPC   NC343163  18.675  33.341   5.417
 3187POPC   PO443164  18.187  32.858   5.382
 3187POPC   GL143165  18.317  32.962   5.777
 3187POPC   GL243166  18.275  33.315   5.747
 3187POPC   C1A43167  18.339  32.759   6.186
 3187POPC   D2A43168  18.137  32.868   6.563
 3187POPC   C3A43169  18.310  32.768   6.933
 3187POPC   C4A43170  18.630  32.893   7.184
 3187POPC   C1B43171  18.145  33.259   6.181
 3187POPC   C2B43172  18.278  33.360   6.610
 3187POPC   C3B43173  18.070  33.253   6.982
 3187POPC   C4B43174  18.015  33.437   7.399
 3188POPC   NC343175  42.574  26.833   5.354
 3188POPC   PO443176  41.952  26.548   5.442
 3188POPC   GL143177  42.197  26.640   5.845
 3188POPC   GL243178  42.478  26.914   5.838
 3188POPC   C1A43179  42.173  26.963   6.241
 3188POPC   D2A43180  42.366  27.044   6.660
 3188POPC   C3A43181  42.122  26.954   7.024
 3188POPC   C4A43182  41.874  27.071   7.346
 3188POPC   C1B43183  42.554  26.622   6.188
 3188POPC   C2B43184  42.267  26.527   6.520
 3188POPC   C3B43185  42.397  26.551   6.929
 3188POPC   C4B43186  42.640  26.903   7.135
 3189POPC   NC343187  15.426  27.173   5.457
 3189POPC   PO443188  15.069  26.693   5.433
 3189POPC   GL143189  15.164  26.893   5.813
 3189POPC   GL243190  14.898  27.114   5.865
 3189POPC   C1A43191  15.355  26.899   6.229
 3189POPC   D2A43192  15.019  26.808   6.534
 3189POPC   C3A43193  15.174  26.723   6.908
 3189POPC   C4A43194  15.568  26.856   7.044
 3189POPC   C1B43195  15.062  27.289   6.191
 3189POPC   C2B43196  15.243  27.262   6.612
 3189POPC   C3B43197  15.174  27.224   7.071
 3189POPC   C4B43198  15.136  26.912   7.419
 3190POPC   NC343199   5.990  17.458   5.161
 3190POPC   PO443200   5.469  17.280   5.247
 3190POPC   GL143201   5.882  17.311   5.636
 3190POPC   GL243202   5.991  17.666   5.701
 3190POPC   C1A43203   5.891  17.149   6.113
 3190POPC   D2A43204   5.571  17.217   6.465
 3190POPC   C3A43205   5.739  17.387   6.852
 3190POPC   C4A43206   5.691  17.258   7.249
 3190POPC   C1B43207   6.037  17.910   6.115
 3190POPC   C2B43208   5.816  17.757   6.492
 3190POPC   C3B43209   5.644  17.908   6.892
 3190POPC   C4B43210   5.851  17.780   7.271
 3191POPC   NC343211  32.941  35.188   5.338
 3191POPC   PO443212  33.133  35.852   5.476
 3191POPC   GL143213  33.021  35.448   5.785
 3191POPC   GL243214  33.199  35.075   5.756
 3191POPC   C1A43215  32.734  35.283   6.143
 3191POPC   D2A43216  32.526  35.444   6.551
 3191POPC   C3A43217  32.816  35.409   6.908
 3191POPC   C4A43218  32.899  35.088   7.222
 3191POPC   C1B43219  33.267  35.148   6.190
 3191POPC   C2B43220  33.080  35.098   6.585
 3191POPC   C3B43221  33.317  35.196   6.958
 3191POPC   C4B43222  33.275  35.438   7.330
 3192POPC   NC343223  17.855  19.559   5.318
 3192POPC   PO443224  18.228  19.978   5.356
 3192POPC   GL143225  18.401  19.822   5.781
 3192POPC   GL243226  18.577  19.463   5.814
 3192POPC   C1A43227  18.410  20.030   6.218
 3192POPC   D2A43228  18.445  20.197   6.676
 3192POPC   C3A43229  18.226  20.037   7.063
 3192POPC   C4A43230  18.285  20.098   7.533
 3192POPC   C1B43231  18.324  19.518   6.183
 3192POPC   C2B43232  18.329  19.681   6.606
 3192POPC   C3B43233  18.415  19.530   7.001
 3192POPC   C4B43234  18.231  19.613   7.392
 3193POPC   NC343235  29.747   6.526   5.456
 3193POPC   PO443236  30.314   6.975   5.403
 3193POPC   GL143237  30.220   6.801   5.826
 3193POPC   GL243238  29.964   6.516   5.907
 3193POPC   C1A43239  30.076   6.850   6.263
 3193POPC   D2A43240  29.858   6.541   6.518
 3193POPC   C3A43241  29.913   6.674   6.941
 3193POPC   C4A43242  29.948   6.530   7.352
 3193POPC   C1B43243  29.563   6.343   6.127
 3193POPC   C2B43244  29.320   6.393   6.514
 3193POPC   C3B43245  29.409   6.411   6.972
 3193POPC   C4B43246  29.450   6.564   7.433
 3194POPC   NC343247  43.782  44.205   5.511
 3194POPC   PO443248  44.127  43.640   5.412
 3194POPC   GL143249  43.866  43.660   5.792
 3194POPC   GL243250  43.529  43.752   5.730
 3194POPC   C1A43251  43.937  43.923   6.167
 3194POPC   D2A43252  44.166  43.957   6.526
 3194POPC   C3A43253  44.094  43.764   6.879
 3194POPC   C4A43254  43.911  44.084   7.111
 3194POPC   C1B43255  43.502  43.681   6.172
 3194POPC   C2B43256  43.701  43.638   6.566
 3194POPC   C3B43257  43.598  43.699   7.015
 3194POPC   C4B43258  43.691  43.783   7.453
 3195POPC   NC343259  36.892   3.940   5.475
 3195POPC   PO443260  37.037   4.521   5.400
 3195POPC   GL143261  36.926   4.350   5.821
 3195POPC   GL243262  37.001   3.980   5.960
 3195POPC   C1A43263  36.790   4.560   6.217
 3195POPC   D2A43264  36.991   4.416   6.581
 3195POPC   C3A43265  36.822   4.442   7.002
 3195POPC   C4A43266  36.945   4.078   7.202
 3195POPC   C1B43267  36.705   4.059   6.279
 3195POPC   C2B43268  36.510   4.265   6.637
 3195POPC   C3B43269  36.446   4.089   7.029
 3195POPC   C4B43270  36.480   4.182   7.435
 3196POPC   NC343271  45.000  27.582   5.487
 3196POPC   PO443272  44.481  27.214   5.366
 3196POPC   GL143273  44.518  27.553   5.734
 3196POPC   GL243274  44.601  27.932   5.745
 3196POPC   C1A43275  44.569  27.574   6.208
 3196POPC   D2A43276  44.356  27.462   6.624
 3196POPC   C3A43277  44.554  27.467   7.034
 3196POPC   C4A43278  44.864  27.209   7.201
 3196POPC   C1B43279  44.826  28.019   6.151
 3196POPC   C2B43280  44.651  27.946   6.565
 3196POPC   C3B43281  44.772  27.992   6.986
 3196POPC   C4B43282  44.945  27.693   7.281
 3197POPC   NC343283  11.036  10.526   5.514
 3197POPC   PO443284  11.628  10.870   5.713
 3197POPC   GL143285  11.323  10.644   5.940
 3197POPC   GL243286  11.347  10.297   5.869
 3197POPC   C1A43287  11.072  10.448   6.281
 3197POPC   D2A43288  10.938  10.531   6.718
 3197POPC   C3A43289  11.295  10.417   6.966
 3197POPC   C4A43290  11.600  10.660   7.138
 3197POPC   C1B43291  11.689  10.334   6.151
 3197POPC   C2B43292  11.655  10.223   6.560
 3197POPC   C3B43293  11.849  10.268   6.936
 3197POPC   C4B43294  11.670  10.154   7.337
 3198POPC   NC343295  32.570  33.751   5.474
 3198POPC   PO443296  32.187  34.281   5.377
 3198POPC   GL143297  32.178  34.133   5.793
 3198POPC   GL243298  32.211  33.777   5.831
 3198POPC   C1A43299  32.061  34.092   6.216
 3198POPC   D2A43300  32.285  33.868   6.480
 3198POPC   C3A43301  32.224  34.028   6.869
 3198POPC   C4A43302  32.395  34.215   7.256
 3198POPC   C1B43303  32.535  33.608   6.108
 3198POPC   C2B43304  32.578  33.419   6.488
 3198POPC   C3B43305  32.330  33.483   6.819
 3198POPC   C4B43306  32.454  33.712   7.188
 3199POPC   NC343307  26.223  27.042   5.437
 3199POPC   PO443308  25.604  26.654   5.495
 3199POPC   GL143309  25.856  26.874   5.814
 3199POPC   GL243310  26.240  26.823   5.878
 3199POPC   C1A43311  25.868  26.839   6.272
 3199POPC   D2A43312  25.688  26.707   6.688
 3199POPC   C3A43313  25.885  26.799   7.090
 3199POPC   C4A43314  26.058  26.582   7.471
 3199POPC   C1B43315  26.369  26.701   6.256
 3199POPC   C2B43316  26.254  26.794   6.675
 3199POPC   C3B43317  26.399  26.743   7.087
 3199POPC   C4B43318  26.262  27.080   7.351
 3200POPC   NC343319  17.067  27.932   5.464
 3200POPC   PO443320  16.713  27.254   5.343
 3200POPC   GL143321  16.628  27.502   5.705
 3200POPC   GL243322  16.825  27.242   5.853
 3200POPC   C1A43323  16.756  27.717   6.111
 3200POPC   D2A43324  16.927  27.704   6.566
 3200POPC   C3A43325  16.580  27.636   6.825
 3200POPC   C4A43326  16.408  27.571   7.194
 3200POPC   C1B43327  16.997  27.278   6.233
 3200POPC   C2B43328  16.749  27.209   6.559
 3200POPC   C3B43329  16.888  27.241   6.952
 3200POPC   C4B43330  16.956  27.595   7.201
 3201POPC   NC343331  19.614  15.958   5.334
 3201POPC   PO443332  20.073  16.322   5.533
 3201POPC   GL143333  19.908  16.041   5.829
 3201POPC   GL243334  19.765  15.678   5.747
 3201POPC   C1A43335  19.900  16.215   6.250
 3201POPC   D2A43336  19.621  16.229   6.586
 3201POPC   C3A43337  19.654  16.387   6.999
 3201POPC   C4A43338  19.595  16.177   7.400
 3201POPC   C1B43339  19.790  15.705   6.208
 3201POPC   C2B43340  19.588  15.713   6.601
 3201POPC   C3B43341  19.685  15.850   7.008
 3201POPC   C4B43342  19.924  15.549   7.247
 3202POPC   NC343343  27.335  19.024   5.218
 3202POPC   PO443344  27.936  18.902   5.315
 3202POPC   GL143345  27.538  19.086   5.654
 3202POPC   GL243346  27.323  18.839   5.823
 3202POPC   C1A43347  27.503  19.247   6.132
 3202POPC   D2A43348  27.688  19.196   6.558
 3202POPC   C3A43349  27.428  18.994   6.861
 3202POPC   C4A43350  27.297  18.905   7.302
 3202POPC   C1B43351  27.479  18.748   6.269
 3202POPC   C2B43352  27.844  18.708   6.561
 3202POPC   C3B43353  27.936  18.907   6.941
 3202POPC   C4B43354  27.788  18.797   7.343
 3203POPC   NC343355  37.589  14.235   5.373
 3203POPC   PO443356  37.907  14.764   5.374
 3203POPC   GL143357  37.740  14.483   5.786
 3203POPC   GL243358  37.391  14.291   5.851
 3203POPC   C1A43359  37.739  14.231   6.203
 3203POPC   D2A43360  37.443  14.252   6.548
 3203POPC   C3A43361  37.608  14.457   6.931
 3203POPC   C4A43362  37.944  14.502   7.264
 3203POPC   C1B43363  37.229  13.966   6.173
 3203POPC   C2B43364  37.268  13.779   6.646
 3203POPC   C3B43365  37.381  14.013   7.058
 3203POPC   C4B43366  37.498  14.317   7.409
 3204POPC   NC343367  13.699  29.867   4.919
 3204POPC   PO443368  13.384  29.668   5.444
 3204POPC   GL143369  13.614  29.844   5.781
 3204POPC   GL243370  13.507  30.206   5.768
 3204POPC   C1A43371  13.703  29.671   6.192
 3204POPC   D2A43372  13.542  29.626   6.622
 3204POPC   C3A43373  13.645  29.844   7.024
 3204POPC   C4A43374  13.652  29.828   7.472
 3204POPC   C1B43375  13.398  30.083   6.230
 3204POPC   C2B43376  13.352  30.092   6.690
 3204POPC   C3B43377  13.223  30.120   7.140
 3204POPC   C4B43378  13.231  30.121   7.600
 3205POPC   NC343379  42.203  20.998   4.952
 3205POPC   PO443380  42.155  20.366   5.339
 3205POPC   GL143381  42.401  20.604   5.672
 3205POPC   GL243382  42.140  20.566   5.841
 3205POPC   C1A43383  42.557  20.603   6.167
 3205POPC   D2A43384  42.573  20.410   6.601
 3205POPC   C3A43385  42.413  20.686   6.959
 3205POPC   C4A43386  42.466  20.895   7.391
 3205POPC   C1B43387  42.081  20.809   6.192
 3205POPC   C2B43388  42.056  20.622   6.576
 3205POPC   C3B43389  41.906  20.777   6.938
 3205POPC   C4B43390  42.058  20.589   7.325
 3206POPC   NC343391  30.380  42.851   5.448
 3206POPC   PO443392  30.820  42.293   5.382
 3206POPC   GL143393  30.804  42.413   5.844
 3206POPC   GL243394  30.808  42.751   5.837
 3206POPC   C1A43395  30.936  42.391   6.320
 3206POPC   D2A43396  31.092  42.111   6.701
 3206POPC   C3A43397  30.770  42.079   7.035
 3206POPC   C4A43398  30.439  42.380   7.166
 3206POPC   C1B43399  31.073  42.909   6.187
 3206POPC   C2B43400  30.935  42.932   6.621
 3206POPC   C3B43401  30.835  42.613   6.948
 3206POPC   C4B43402  30.880  42.435   7.401
 3207POPC   NC343403  42.194   5.496   5.329
 3207POPC   PO443404  42.678   5.380   5.740
 3207POPC   GL143405  42.295   5.503   5.897
 3207POPC   GL243406  41.981   5.594   5.785
 3207POPC   C1A43407  42.212   5.770   6.250
 3207POPC   D2A43408  42.386   6.043   6.547
 3207POPC   C3A43409  42.245   5.982   6.954
 3207POPC   C4A43410  42.364   5.715   7.273
 3207POPC   C1B43411  41.795   5.491   6.180
 3207POPC   C2B43412  41.898   5.541   6.610
 3207POPC   C3B43413  41.928   5.598   7.054
 3207POPC   C4B43414  41.927   5.971   7.368
 3208POPC   NC343415  27.813  12.839   5.068
 3208POPC   PO443416  28.390  12.750   5.309
 3208POPC   GL143417  28.403  12.970   5.705
 3208POPC   GL243418  28.672  12.840   5.892
 3208POPC   C1A43419  28.350  13.200   6.084
 3208POPC   D2A43420  28.114  13.084   6.459
 3208POPC   C3A43421  28.295  13.140   6.875
 3208POPC   C4A43422  28.153  12.915   7.255
 3208POPC   C1B43423  28.752  12.952   6.341
 3208POPC   C2B43424  28.771  12.956   6.817
 3208POPC   C3B43425  28.680  12.841   7.273
 3208POPC   C4B43426  28.756  12.515   7.602
 3209POPC   NC343427  19.350   8.567   5.577
 3209POPC   PO443428  18.831   8.866   5.395
 3209POPC   GL143429  19.078   9.054   5.735
 3209POPC   GL243430  19.062   8.787   5.923
 3209POPC   C1A43431  19.065   9.247   6.185
 3209POPC   D2A43432  19.270   9.176   6.631
 3209POPC   C3A43433  19.076   9.186   7.041
 3209POPC   C4A43434  19.043   9.173   7.499
 3209POPC   C1B43435  19.018   8.751   6.310
 3209POPC   C2B43436  19.237   8.628   6.633
 3209POPC   C3B43437  19.279   8.694   7.016
 3209POPC   C4B43438  18.976   8.727   7.293
 3210POPC   NC343439  40.267  42.119   5.402
 3210POPC   PO443440  39.709  42.412   5.576
 3210POPC   GL143441  40.056  42.331   5.835
 3210POPC   GL243442  40.259  42.659   5.787
 3210POPC   C1A43443  40.241  42.121   6.214
 3210POPC   D2A43444  40.421  42.217   6.641
 3210POPC   C3A43445  40.118  42.057   6.944
 3210POPC   C4A43446  39.914  42.144   7.329
 3210POPC   C1B43447  40.149  42.626   6.247
 3210POPC   C2B43448  39.948  42.401   6.575
 3210POPC   C3B43449  40.017  42.562   6.968
 3210POPC   C4B43450  40.102  42.675   7.373
 3211POPC   NC343451  42.812  43.184   5.474
 3211POPC   PO443452  42.170  43.296   5.372
 3211POPC   GL143453  42.350  43.172   5.759
 3211POPC   GL243454  42.016  43.132   5.848
 3211POPC   C1A43455  42.362  43.168   6.210
 3211POPC   D2A43456  42.234  43.331   6.555
 3211POPC   C3A43457  42.434  43.135   6.864
 3211POPC   C4A43458  42.349  43.092   7.251
 3211POPC   C1B43459  41.978  42.828   6.156
 3211POPC   C2B43460  42.136  42.808   6.548
 3211POPC   C3B43461  41.976  42.908   6.921
 3211POPC   C4B43462  42.006  42.720   7.321
 3212POPC   NC343463  40.226  27.649   5.524
 3212POPC   PO443464  40.876  27.826   5.385
 3212POPC   GL143465  40.930  27.521   5.736
 3212POPC   GL243466  40.591  27.545   5.862
 3212POPC   C1A43467  40.845  27.186   6.096
 3212POPC   D2A43468  40.540  27.278   6.438
 3212POPC   C3A43469  40.730  27.305   6.853
 3212POPC   C4A43470  40.612  27.210   7.272
 3212POPC   C1B43471  40.473  27.762   6.241
 3212POPC   C2B43472  40.560  27.795   6.689
 3212POPC   C3B43473  40.560  27.714   7.121
 3212POPC   C4B43474  40.952  27.791   7.295
 3213POPC   NC343475   5.254   8.331   5.488
 3213POPC   PO443476   4.603   8.017   5.399
 3213POPC   GL143477   4.844   8.056   5.799
 3213POPC   GL243478   4.965   8.402   5.907
 3213POPC   C1A43479   4.866   8.066   6.280
 3213POPC   D2A43480   4.732   8.106   6.728
 3213POPC   C3A43481   5.085   7.976   7.032
 3213POPC   C4A43482   5.415   8.280   7.227
 3213POPC   C1B43483   4.810   8.601   6.274
 3213POPC   C2B43484   5.024   8.522   6.645
 3213POPC   C3B43485   4.965   8.473   7.063
 3213POPC   C4B43486   4.750   8.566   7.381
 3214POPC   NC343487  13.809  41.070   5.427
 3214POPC   PO443488  13.640  41.728   5.354
 3214POPC   GL143489  13.528  41.768   5.790
 3214POPC   GL243490  13.634  41.417   5.845
 3214POPC   C1A43491  13.676  41.903   6.217
 3214POPC   D2A43492  13.759  41.691   6.622
 3214POPC   C3A43493  13.533  41.681   7.023
 3214POPC   C4A43494  13.600  41.834   7.435
 3214POPC   C1B43495  13.409  41.470   6.247
 3214POPC   C2B43496  13.411  41.292   6.671
 3214POPC   C3B43497  13.396  41.186   7.106
 3214POPC   C4B43498  13.346  41.416   7.464
 3215POPC   NC343499  42.077  29.283   5.429
 3215POPC   PO443500  42.402  28.712   5.359
 3215POPC   GL143501  42.224  28.884   5.775
 3215POPC   GL243502  42.232  29.239   5.893
 3215POPC   C1A43503  42.345  28.882   6.239
 3215POPC   D2A43504  42.135  28.772   6.635
 3215POPC   C3A43505  42.414  28.714   6.970
 3215POPC   C4A43506  42.344  28.742   7.384
 3215POPC   C1B43507  42.092  29.427   6.254
 3215POPC   C2B43508  42.278  29.265   6.633
 3215POPC   C3B43509  42.192  29.142   7.078
 3215POPC   C4B43510  42.245  29.268   7.519
 3216POPC   NC343511  23.894  36.626   5.559
 3216POPC   PO443512  24.215  36.160   5.180
 3216POPC   GL143513  24.012  36.142   5.652
 3216POPC   GL243514  23.722  36.290   5.886
 3216POPC   C1A43515  23.983  35.915   6.050
 3216POPC   D2A43516  23.990  36.093   6.456
 3216POPC   C3A43517  23.849  35.900   6.845
 3216POPC   C4A43518  23.865  36.024   7.263
 3216POPC   C1B43519  23.426  36.349   6.205
 3216POPC   C2B43520  23.404  36.087   6.575
 3216POPC   C3B43521  23.429  36.180   7.009
 3216POPC   C4B43522  23.143  36.440   7.243
 3217POPC   NC343523  30.908  28.904   5.439
 3217POPC   PO443524  30.552  29.464   5.339
 3217POPC   GL143525  30.474  29.212   5.714
 3217POPC   GL243526  30.809  29.207   5.821
 3217POPC   C1A43527  30.471  29.308   6.181
 3217POPC   D2A43528  30.560  29.560   6.547
 3217POPC   C3A43529  30.395  29.365   6.891
 3217POPC   C4A43530  30.311  29.090   7.202
 3217POPC   C1B43531  30.994  29.032   6.168
 3217POPC   C2B43532  30.926  29.165   6.563
 3217POPC   C3B43533  31.011  29.020   6.956
 3217POPC   C4B43534  30.989  29.208   7.356
 3218POPC   NC343535  13.540   4.291   5.412
 3218POPC   PO443536  13.983   4.793   5.351
 3218POPC   GL143537  13.831   4.554   5.765
 3218POPC   GL243538  13.476   4.438   5.891
 3218POPC   C1A43539  13.868   4.362   6.208
 3218POPC   D2A43540  13.744   4.219   6.645
 3218POPC   C3A43541  13.591   4.523   6.966
 3218POPC   C4A43542  13.889   4.460   7.295
 3218POPC   C1B43543  13.375   4.206   6.287
 3218POPC   C2B43544  13.239   4.214   6.742
 3218POPC   C3B43545  13.095   4.141   7.165
 3218POPC   C4B43546  13.252   3.952   7.544
 3219POPC   NC343547  39.824  30.833   5.091
 3219POPC   PO443548  40.229  30.355   5.371
 3219POPC   GL143549  40.109  30.597   5.741
 3219POPC   GL243550  40.400  30.499   5.926
 3219POPC   C1A43551  40.041  30.869   6.097
 3219POPC   D2A43552  39.784  30.779   6.452
 3219POPC   C3A43553  39.893  30.919   6.860
 3219POPC   C4A43554  39.757  30.880   7.249
 3219POPC   C1B43555  40.114  30.403   6.291
 3219POPC   C2B43556  40.072  30.446   6.744
 3219POPC   C3B43557  40.050  30.478   7.160
 3219POPC   C4B43558  40.077  30.214   7.522
 3220POPC   NC343559   0.791  36.801   5.401
 3220POPC   PO443560   0.116  36.916   5.370
 3220POPC   GL143561   0.386  36.763   5.729
 3220POPC   GL243562   0.634  37.033   5.814
 3220POPC   C1A43563   0.456  36.746   6.187
 3220POPC   D2A43564   0.216  36.662   6.554
 3220POPC   C3A43565   0.436  36.790   6.926
 3220POPC   C4A43566   0.237  36.863   7.321
 3220POPC   C1B43567   0.617  37.241   6.195
 3220POPC   C2B43568   0.769  37.108   6.622
 3220POPC   C3B43569   0.885  37.280   7.015
 3220POPC   C4B43570   0.505  37.269   7.184
 3221POPC   NC343571  41.331  39.924   5.310
 3221POPC   PO443572  41.869  40.295   5.387
 3221POPC   GL143573  41.681  40.170   5.764
 3221POPC   GL243574  41.297  40.120   5.788
 3221POPC   C1A43575  41.814  40.213   6.193
 3221POPC   D2A43576  41.598  40.206   6.586
 3221POPC   C3A43577  41.807  40.151   6.973
 3221POPC   C4A43578  42.023  40.336   7.308
 3221POPC   C1B43579  41.451  39.825   6.124
 3221POPC   C2B43580  41.315  39.765   6.565
 3221POPC   C3B43581  41.264  39.972   6.953
 3221POPC   C4B43582  41.512  39.916   7.294
 3222POPC   NC343583  28.602  14.645   5.349
 3222POPC   PO443584  28.102  14.275   5.281
 3222POPC   GL143585  28.182  14.419   5.736
 3222POPC   GL243586  28.526  14.528   5.844
 3222POPC   C1A43587  28.138  14.265   6.200
 3222POPC   D2A43588  27.907  14.208   6.633
 3222POPC   C3A43589  28.133  14.273   7.027
 3222POPC   C4A43590  28.233  14.618   7.323
 3222POPC   C1B43591  28.676  14.297   6.213
 3222POPC   C2B43592  28.465  14.287   6.632
 3222POPC   C3B43593  28.616  14.535   6.996
 3222POPC   C4B43594  28.873  14.554   7.397
 3223POPC   NC343595   3.594  43.271   5.512
 3223POPC   PO443596   3.327  42.607   5.472
 3223POPC   GL143597   3.396  42.874   5.817
 3223POPC   GL243598   3.719  42.820   5.868
 3223POPC   C1A43599   3.276  43.130   6.192
 3223POPC   D2A43600   3.169  42.980   6.630
 3223POPC   C3A43601   3.142  43.256   6.990
 3223POPC   C4A43602   3.337  43.339   7.390
 3223POPC   C1B43603   3.787  43.147   6.188
 3223POPC   C2B43604   3.609  43.242   6.607
 3223POPC   C3B43605   3.626  43.026   7.035
 3223POPC   C4B43606   4.005  42.850   7.299
 3224POPC   NC343607  25.421  14.688   5.237
 3224POPC   PO443608  24.981  14.235   5.483
 3224POPC   GL143609  25.129  14.386   5.863
 3224POPC   GL243610  25.416  14.199   5.927
 3224POPC   C1A43611  25.111  14.242   6.304
 3224POPC   D2A43612  25.360  14.327   6.655
 3224POPC   C3A43613  25.234  14.485   7.083
 3224POPC   C4A43614  24.906  14.378   7.376
 3224POPC   C1B43615  25.502  14.551   6.195
 3224POPC   C2B43616  25.659  14.768   6.543
 3224POPC   C3B43617  25.712  14.578   6.913
 3224POPC   C4B43618  25.716  14.679   7.329
 3225POPC   NC343619  41.815  12.424   5.494
 3225POPC   PO443620  41.230  12.695   5.421
 3225POPC   GL143621  41.559  12.789   5.749
 3225POPC   GL243622  41.811  13.036   5.708
 3225POPC   C1A43623  41.571  12.674   6.193
 3225POPC   D2A43624  41.308  12.524   6.525
 3225POPC   C3A43625  41.247  12.807   6.870
 3225POPC   C4A43626  41.359  12.802   7.279
 3225POPC   C1B43627  41.980  12.959   6.121
 3225POPC   C2B43628  41.790  12.983   6.522
 3225POPC   C3B43629  41.757  12.799   6.884
 3225POPC   C4B43630  41.865  12.902   7.269
 3226POPC   NC343631   9.504  14.184   5.374
 3226POPC   PO443632   9.703  14.720   5.318
 3226POPC   GL143633   9.841  14.470   5.679
 3226POPC   GL243634   9.657  14.171   5.849
 3226POPC   C1A43635   9.997  14.435   6.110
 3226POPC   D2A43636   9.865  14.240   6.487
 3226POPC   C3A43637   9.922  14.516   6.817
 3226POPC   C4A43638  10.104  14.427   7.184
 3226POPC   C1B43639   9.394  14.235   6.216
 3226POPC   C2B43640   9.367  14.139   6.656
 3226POPC   C3B43641   9.667  14.105   6.990
 3226POPC   C4B43642   9.468  14.499   7.142
 3227POPC   NC343643  29.278  14.521   5.411
 3227POPC   PO443644  29.498  15.205   5.468
 3227POPC   GL143645  29.164  15.130   5.765
 3227POPC   GL243646  28.966  14.837   5.669
 3227POPC   C1A43647  29.307  15.061   6.194
 3227POPC   D2A43648  29.411  14.856   6.589
 3227POPC   C3A43649  29.351  15.199   6.878
 3227POPC   C4A43650  29.406  15.312   7.268
 3227POPC   C1B43651  28.880  14.787   6.119
 3227POPC   C2B43652  28.914  14.954   6.557
 3227POPC   C3B43653  29.036  14.835   7.006
 3227POPC   C4B43654  28.987  15.064   7.428
 3228POPC   NC343655  39.849  42.854   5.452
 3228POPC   PO443656  40.025  43.561   5.415
 3228POPC   GL143657  40.260  43.280   5.673
 3228POPC   GL243658  39.932  43.211   5.797
 3228POPC   C1A43659  40.321  43.087   6.089
 3228POPC   D2A43660  40.271  43.133   6.534
 3228POPC   C3A43661  40.103  43.091   6.976
 3228POPC   C4A43662  40.114  43.226   7.422
 3228POPC   C1B43663  39.786  42.972   6.130
 3228POPC   C2B43664  39.797  42.882   6.560
 3228POPC   C3B43665  39.609  42.958   6.940
 3228POPC   C4B43666  39.621  43.259   7.274
 3229POPC   NC343667  34.119  24.177   5.385
 3229POPC   PO443668  33.694  24.786   5.337
 3229POPC   GL143669  33.880  24.507   5.716
 3229POPC   GL243670  33.817  24.113   5.807
 3229POPC   C1A43671  33.974  24.433   6.178
 3229POPC   D2A43672  34.035  24.419   6.622
 3229POPC   C3A43673  33.868  24.604   6.989
 3229POPC   C4A43674  34.054  24.431   7.353
 3229POPC   C1B43675  33.546  24.157   6.212
 3229POPC   C2B43676  33.514  24.350   6.658
 3229POPC   C3B43677  33.437  24.338   7.109
 3229POPC   C4B43678  33.601  24.238   7.499
 3230POPC   NC343679  30.132  17.063   5.389
 3230POPC   PO443680  29.800  16.441   5.313
 3230POPC   GL143681  30.038  16.652   5.698
 3230POPC   GL243682  30.337  16.439   5.758
 3230POPC   C1A43683  29.908  16.924   6.099
 3230POPC   D2A43684  29.693  16.813   6.525
 3230POPC   C3A43685  29.856  16.847   6.978
 3230POPC   C4A43686  29.781  16.544   7.339
 3230POPC   C1B43687  30.312  16.622   6.196
 3230POPC   C2B43688  30.280  16.487   6.644
 3230POPC   C3B43689  30.208  16.471   7.086
 3230POPC   C4B43690  30.234  16.727   7.483
 3231POPC   NC343691  10.663  14.197   5.282
 3231POPC   PO443692   9.979  14.067   5.433
 3231POPC   GL143693  10.339  14.321   5.669
 3231POPC   GL243694  10.622  14.612   5.661
 3231POPC   C1A43695  10.500  14.369   6.098
 3231POPC   D2A43696  10.396  14.171   6.499
 3231POPC   C3A43697  10.521  14.368   6.887
 3231POPC   C4A43698  10.516  14.147   7.271
 3231POPC   C1B43699  10.864  14.756   6.070
 3231POPC   C2B43700  10.946  14.742   6.552
 3231POPC   C3B43701  10.829  14.832   7.006
 3231POPC   C4B43702  10.577  14.652   7.341
 3232POPC   NC343703  32.787  24.225   5.448
 3232POPC   PO443704  33.047  23.489   5.425
 3232POPC   GL143705  32.906  23.626   5.845
 3232POPC   GL243706  32.723  23.900   5.812
 3232POPC   C1A43707  33.066  23.582   6.275
 3232POPC   D2A43708  33.284  23.887   6.568
 3232POPC   C3A43709  33.211  23.841   7.012
 3232POPC   C4A43710  33.234  23.459   7.245
 3232POPC   C1B43711  32.748  23.991   6.216
 3232POPC   C2B43712  32.764  23.844   6.603
 3232POPC   C3B43713  32.626  23.877   6.981
 3232POPC   C4B43714  32.794  23.717   7.319
 3233POPC   NC343715  42.091   4.132   5.526
 3233POPC   PO443716  42.796   3.943   5.636
 3233POPC   GL143717  42.495   4.250   5.837
 3233POPC   GL243718  42.132   4.184   6.027
 3233POPC   C1A43719  42.579   4.312   6.245
 3233POPC   D2A43720  42.371   4.258   6.601
 3233POPC   C3A43721  42.519   4.399   6.956
 3233POPC   C4A43722  42.298   4.296   7.286
 3233POPC   C1B43723  42.102   4.558   6.304
 3233POPC   C2B43724  42.166   4.736   6.741
 3233POPC   C3B43725  42.290   4.800   7.187
 3233POPC   C4B43726  42.272   4.706   7.615
 3234POPC   NC343727  19.876   8.036   5.443
 3234POPC   PO443728  19.472   8.393   5.165
 3234POPC   GL143729  19.833   8.505   5.619
 3234POPC   GL243730  20.035   8.250   5.862
 3234POPC   C1A43731  19.723   8.514   6.133
 3234POPC   D2A43732  19.611   8.235   6.521
 3234POPC   C3A43733  19.792   8.109   6.921
 3234POPC   C4A43734  19.741   8.474   7.207
 3234POPC   C1B43735  20.002   7.907   6.205
 3234POPC   C2B43736  20.255   7.784   6.585
 3234POPC   C3B43737  20.320   7.782   7.043
 3234POPC   C4B43738  20.145   8.110   7.307
 3235POPC   NC343739  17.981   0.677   5.541
 3235POPC   PO443740  18.561   0.618   5.238
 3235POPC   GL143741  18.416   0.490   5.739
 3235POPC   GL243742  18.121   0.260   5.837
 3235POPC   C1A43743  18.225   0.610   6.195
 3235POPC   D2A43744  17.986   0.571   6.633
 3235POPC   C3A43745  18.229   0.790   6.895
 3235POPC   C4A43746  18.415   0.852   7.279
 3235POPC   C1B43747  18.352   0.124   6.225
 3235POPC   C2B43748  18.415   0.332   6.620
 3235POPC   C3B43749  18.259   0.240   7.031
 3235POPC   C4B43750  18.065   0.498   7.285
 3236POPC   NC343751  30.718   7.205   5.429
 3236POPC   PO443752  30.824   7.832   5.550
 3236POPC   GL143753  30.735   7.487   5.871
 3236POPC   GL243754  30.842   7.129   5.928
 3236POPC   C1A43755  30.701   7.430   6.330
 3236POPC   D2A43756  30.950   7.280   6.665
 3236POPC   C3A43757  30.789   7.295   7.098
 3236POPC   C4A43758  30.816   7.291   7.536
 3236POPC   C1B43759  30.601   6.932   6.272
 3236POPC   C2B43760  30.435   7.113   6.652
 3236POPC   C3B43761  30.343   7.039   7.074
 3236POPC   C4B43762  30.307   7.336   7.447
 3237POPC   NC343763   2.155  29.929   5.469
 3237POPC   PO443764   1.596  30.386   5.517
 3237POPC   GL143765   1.682  29.996   5.792
 3237POPC   GL243766   1.690  29.625   5.677
 3237POPC   C1A43767   1.989  29.876   6.133
 3237POPC   D2A43768   2.167  30.012   6.541
 3237POPC   C3A43769   1.959  29.943   6.943
 3237POPC   C4A43770   2.291  29.962   7.232
 3237POPC   C1B43771   1.705  29.448   6.110
 3237POPC   C2B43772   1.844  29.579   6.531
 3237POPC   C3B43773   1.966  29.440   6.937
 3237POPC   C4B43774   2.102  29.512   7.375
 3238POPC   NC343775  16.727  41.927   5.400
 3238POPC   PO443776  16.462  41.242   5.364
 3238POPC   GL143777  16.568  41.477   5.750
 3238POPC   GL243778  16.894  41.596   5.790
 3238POPC   C1A43779  16.601  41.524   6.223
 3238POPC   D2A43780  16.755  41.686   6.646
 3238POPC   C3A43781  16.644  41.439   7.033
 3238POPC   C4A43782  16.322  41.205   7.269
 3238POPC   C1B43783  16.952  41.879   6.162
 3238POPC   C2B43784  17.144  42.020   6.548
 3238POPC   C3B43785  17.022  42.101   6.964
 3238POPC   C4B43786  16.780  41.868   7.245
 3239POPC   NC343787  29.364  13.839   5.357
 3239POPC   PO443788  28.875  14.334   5.531
 3239POPC   GL143789  29.112  14.383   5.888
 3239POPC   GL243790  29.394  14.636   5.890
 3239POPC   C1A43791  29.223  14.445   6.321
 3239POPC   D2A43792  28.960  14.420   6.639
 3239POPC   C3A43793  29.131  14.299   7.002
 3239POPC   C4A43794  29.403  14.521   7.251
 3239POPC   C1B43795  29.569  14.203   6.014
 3239POPC   C2B43796  29.733  14.165   6.413
 3239POPC   C3B43797  29.697  14.331   6.827
 3239POPC   C4B43798  29.580  14.038   7.129
 3240POPC   NC343799  25.457  15.139   4.681
 3240POPC   PO443800  25.385  15.140   5.377
 3240POPC   GL143801  25.385  14.905   5.788
 3240POPC   GL243802  25.492  15.239   5.914
 3240POPC   C1A43803  25.245  14.967   6.247
 3240POPC   D2A43804  25.160  14.800   6.645
 3240POPC   C3A43805  25.342  14.972   7.022
 3240POPC   C4A43806  25.056  14.911   7.354
 3240POPC   C1B43807  25.409  15.452   6.300
 3240POPC   C2B43808  25.474  15.385   6.732
 3240POPC   C3B43809  25.540  15.442   7.177
 3240POPC   C4B43810  25.713  15.518   7.591
 3241POPC   NC343811  43.192  34.000   5.452
 3241POPC   PO443812  42.596  33.847   5.152
 3241POPC   GL143813  42.897  33.671   5.666
 3241POPC   GL243814  43.257  33.581   5.764
 3241POPC   C1A43815  42.987  33.868   6.116
 3241POPC   D2A43816  42.952  33.734   6.557
 3241POPC   C3A43817  43.026  33.900   6.961
 3241POPC   C4A43818  43.322  33.670   7.223
 3241POPC   C1B43819  43.135  33.384   6.180
 3241POPC   C2B43820  43.083  33.217   6.623
 3241POPC   C3B43821  42.919  33.356   7.039
 3241POPC   C4B43822  42.834  33.677   7.380
 3242POPC   NC343823   3.907  13.024   5.334
 3242POPC   PO443824   3.404  12.590   5.432
 3242POPC   GL143825   3.613  12.738   5.800
 3242POPC   GL243826   3.565  13.113   5.772
 3242POPC   C1A43827   3.475  12.628   6.244
 3242POPC   D2A43828   3.268  12.958   6.476
 3242POPC   C3A43829   3.389  13.037   6.883
 3242POPC   C4A43830   3.503  12.764   7.218
 3242POPC   C1B43831   3.721  13.081   6.202
 3242POPC   C2B43832   3.788  12.867   6.611
 3242POPC   C3B43833   3.882  13.054   7.016
 3242POPC   C4B43834   3.731  13.160   7.431
 3243POPC   NC343835  39.144  38.022   5.505
 3243POPC   PO443836  39.261  37.339   5.474
 3243POPC   GL143837  39.383  37.587   5.837
 3243POPC   GL243838  39.556  37.918   5.826
 3243POPC   C1A43839  39.180  37.781   6.195
 3243POPC   D2A43840  38.974  37.882   6.606
 3243POPC   C3A43841  38.985  37.533   6.920
 3243POPC   C4A43842  39.271  37.436   7.286
 3243POPC   C1B43843  39.653  38.042   6.237
 3243POPC   C2B43844  39.522  37.783   6.570
 3243POPC   C3B43845  39.388  37.826   6.954
 3243POPC   C4B43846  39.531  37.913   7.324
 3244POPC   NC343847  42.102  26.026   5.369
 3244POPC   PO443848  42.642  26.382   5.494
 3244POPC   GL143849  42.428  26.150   5.804
 3244POPC   GL243850  42.284  25.808   5.803
 3244POPC   C1A43851  42.466  26.118   6.244
 3244POPC   D2A43852  42.678  26.221   6.611
 3244POPC   C3A43853  42.559  26.035   6.983
 3244POPC   C4A43854  42.382  26.239   7.327
 3244POPC   C1B43855  42.527  25.625   6.122
 3244POPC   C2B43856  42.369  25.686   6.549
 3244POPC   C3B43857  42.162  25.656   6.961
 3244POPC   C4B43858  42.297  25.744   7.334
 3245POPC   NC343859  33.497  21.431   5.547
 3245POPC   PO443860  34.064  21.388   5.203
 3245POPC   GL143861  34.018  21.359   5.672
 3245POPC   GL243862  33.846  21.062   5.796
 3245POPC   C1A43863  33.819  21.498   6.112
 3245POPC   D2A43864  33.816  21.688   6.534
 3245POPC   C3A43865  33.793  21.426   6.898
 3245POPC   C4A43866  33.562  21.427   7.257
 3245POPC   C1B43867  33.493  21.089   6.125
 3245POPC   C2B43868  33.484  21.195   6.548
 3245POPC   C3B43869  33.346  20.985   6.912
 3245POPC   C4B43870  33.551  20.935   7.285
 3246POPC   NC343871  35.331  21.551   5.438
 3246POPC   PO443872  35.317  20.909   5.449
 3246POPC   GL143873  35.499  21.178   5.804
 3246POPC   GL243874  35.414  21.515   5.926
 3246POPC   C1A43875  35.592  21.183   6.282
 3246POPC   D2A43876  35.624  21.174   6.757
 3246POPC   C3A43877  35.300  21.280   7.107
 3246POPC   C4A43878  35.325  21.262   7.583
 3246POPC   C1B43879  35.271  21.756   6.256
 3246POPC   C2B43880  35.366  21.616   6.657
 3246POPC   C3B43881  35.601  21.681   6.996
 3246POPC   C4B43882  35.354  21.755   7.382
 3247POPC   NC343883  31.711  18.019   5.371
 3247POPC   PO443884  31.093  18.275   5.571
 3247POPC   GL143885  31.347  18.201   5.928
 3247POPC   GL243886  31.682  18.173   5.868
 3247POPC   C1A43887  31.432  18.158   6.369
 3247POPC   D2A43888  31.728  18.039   6.674
 3247POPC   C3A43889  31.430  17.982   6.984
 3247POPC   C4A43890  31.280  18.224   7.275
 3247POPC   C1B43891  31.843  18.434   6.235
 3247POPC   C2B43892  31.735  18.598   6.650
 3247POPC   C3B43893  31.747  18.419   7.059
 3247POPC   C4B43894  31.947  18.020   7.197
 3248POPC   NC343895  29.765  16.013   5.153
 3248POPC   PO443896  30.243  15.599   5.241
 3248POPC   GL143897  30.054  15.837   5.575
 3248POPC   GL243898  29.750  15.655   5.650
 3248POPC   C1A43899  30.017  15.859   6.052
 3248POPC   D2A43900  30.156  15.725   6.489
 3248POPC   C3A43901  30.120  15.990   6.868
 3248POPC   C4A43902  29.918  16.055   7.267
 3248POPC   C1B43903  29.587  15.584   6.098
 3248POPC   C2B43904  29.645  15.774   6.544
 3248POPC   C3B43905  29.677  15.651   6.992
 3248POPC   C4B43906  29.509  15.776   7.430
 3249POPC   NC343907  42.824  28.518   5.382
 3249POPC   PO443908  43.219  27.936   5.414
 3249POPC   GL143909  43.243  28.307   5.746
 3249POPC   GL243910  43.119  28.645   5.777
 3249POPC   C1A43911  43.278  28.466   6.221
 3249POPC   D2A43912  43.046  28.396   6.613
 3249POPC   C3A43913  43.250  28.294   7.040
 3249POPC   C4A43914  43.606  28.337   7.389
 3249POPC   C1B43915  42.817  28.703   6.130
 3249POPC   C2B43916  42.730  28.830   6.569
 3249POPC   C3B43917  42.938  28.763   6.965
 3249POPC   C4B43918  42.826  28.562   7.319
 3250POPC   NC343919  22.689   7.812   5.349
 3250POPC   PO443920  22.768   8.469   5.452
 3250POPC   GL143921  22.619   8.144   5.812
 3250POPC   GL243922  22.626   8.373   6.095
 3250POPC   C1A43923  22.615   7.886   6.263
 3250POPC   D2A43924  22.793   7.979   6.697
 3250POPC   C3A43925  22.592   8.231   7.010
 3250POPC   C4A43926  22.860   8.272   7.395
 3250POPC   C1B43927  23.023   8.179   6.273
 3250POPC   C2B43928  23.245   8.235   6.677
 3250POPC   C3B43929  23.262   8.135   7.116
 3250POPC   C4B43930  23.344   8.396   7.493
 3251POPC   NC343931   9.880  26.049   5.318
 3251POPC   PO443932   9.479  25.656   5.495
 3251POPC   GL143933   9.659  26.057   5.791
 3251POPC   GL243934  10.015  26.128   5.823
 3251POPC   C1A43935   9.766  26.354   6.183
 3251POPC   D2A43936   9.954  26.259   6.582
 3251POPC   C3A43937   9.706  26.175   6.929
 3251POPC   C4A43938   9.829  26.069   7.321
 3251POPC   C1B43939   9.953  25.875   6.247
 3251POPC   C2B43940  10.038  25.727   6.715
 3251POPC   C3B43941  10.138  25.652   7.196
 3251POPC   C4B43942  10.038  25.763   7.662
 3252POPC   NC343943  12.620   9.867   5.605
 3252POPC   PO443944  13.238   9.587   5.419
 3252POPC   GL143945  13.088   9.688   5.813
 3252POPC   GL243946  12.844   9.420   5.820
 3252POPC   C1A43947  12.938   9.724   6.234
 3252POPC   D2A43948  12.890   9.544   6.625
 3252POPC   C3A43949  13.081   9.622   7.008
 3252POPC   C4A43950  13.278   9.965   7.214
 3252POPC   C1B43951  12.534   9.387   6.171
 3252POPC   C2B43952  12.376   9.433   6.597
 3252POPC   C3B43953  12.575   9.397   7.015
 3252POPC   C4B43954  12.839   9.417   7.404
 3253POPC   NC343955  13.188  13.798   5.444
 3253POPC   PO443956  12.660  13.351   5.408
 3253POPC   GL143957  12.886  13.515   5.781
 3253POPC   GL243958  12.755  13.873   5.784
 3253POPC   C1A43959  13.003  13.672   6.237
 3253POPC   D2A43960  13.123  13.774   6.701
 3253POPC   C3A43961  13.089  13.410   6.957
 3253POPC   C4A43962  12.674  13.221   6.973
 3253POPC   C1B43963  12.495  13.662   6.118
 3253POPC   C2B43964  12.581  13.537   6.564
 3253POPC   C3B43965  12.634  13.715   7.007
 3253POPC   C4B43966  12.920  13.665   7.361
 3254POPC   NC343967  11.657  25.017   5.519
 3254POPC   PO443968  12.299  25.139   5.394
 3254POPC   GL143969  12.058  25.303   5.733
 3254POPC   GL243970  12.268  25.601   5.776
 3254POPC   C1A43971  11.987  25.195   6.154
 3254POPC   D2A43972  12.228  25.192   6.545
 3254POPC   C3A43973  12.054  25.283   6.946
 3254POPC   C4A43974  12.027  24.994   7.263
 3254POPC   C1B43975  12.414  25.528   6.214
 3254POPC   C2B43976  12.315  25.685   6.665
 3254POPC   C3B43977  12.357  25.659   7.134
 3254POPC   C4B43978  12.318  25.735   7.634
 3255POPC   NC343979  31.742  21.087   5.215
 3255POPC   PO443980  31.257  21.507   5.104
 3255POPC   GL143981  31.377  21.387   5.570
 3255POPC   GL243982  31.290  21.656   5.816
 3255POPC   C1A43983  31.433  21.233   6.059
 3255POPC   D2A43984  31.408  21.457   6.498
 3255POPC   C3A43985  31.434  21.259   6.910
 3255POPC   C4A43986  31.809  21.273   7.189
 3255POPC   C1B43987  31.021  21.545   6.181
 3255POPC   C2B43988  30.908  21.655   6.618
 3255POPC   C3B43989  30.980  21.646   7.078
 3255POPC   C4B43990  31.297  21.466   7.374
 3256POPC   NC343991   2.895   0.845   5.035
 3256POPC   PO443992   2.882   0.279   5.459
 3256POPC   GL143993   2.825   0.359   5.877
 3256POPC   GL243994   2.773   0.698   5.816
 3256POPC   C1A43995   2.919   0.454   6.301
 3256POPC   D2A43996   3.239   0.667   6.562
 3256POPC   C3A43997   3.084   0.550   6.983
 3256POPC   C4A43998   2.783   0.460   7.389
 3256POPC   C1B43999   2.615   0.908   6.182
 3256POPC   C2B44000   2.777   0.848   6.598
 3256POPC   C3B44001   2.677   0.815   7.038
 3256POPC   C4B44002   2.590   0.955   7.449
 3257POPC   NC344003  17.997  13.190   5.545
 3257POPC   PO444004  18.613  12.971   5.334
 3257POPC   GL144005  18.446  13.069   5.759
 3257POPC   GL244006  18.305  12.769   5.949
 3257POPC   C1A44007  18.247  13.199   6.185
 3257POPC   D2A44008  17.901  13.208   6.520
 3257POPC   C3A44009  18.065  13.109   6.931
 3257POPC   C4A44010  17.906  12.936   7.322
 3257POPC   C1B44011  17.953  12.750   6.259
 3257POPC   C2B44012  17.983  12.612   6.694
 3257POPC   C3B44013  18.365  12.669   6.922
 3257POPC   C4B44014  18.525  12.992   7.151
 3258POPC   NC344015  21.390  41.000   5.446
 3258POPC   PO444016  21.236  40.378   5.463
 3258POPC   GL144017  21.132  40.671   5.802
 3258POPC   GL244018  20.970  41.012   5.748
 3258POPC   C1A44019  21.436  40.757   6.136
 3258POPC   D2A44020  21.421  40.894   6.552
 3258POPC   C3A44021  21.586  40.780   6.933
 3258POPC   C4A44022  21.522  40.413   7.138
 3258POPC   C1B44023  21.067  41.091   6.203
 3258POPC   C2B44024  21.085  41.236   6.645
 3258POPC   C3B44025  21.118  41.042   7.062
 3258POPC   C4B44026  20.974  41.107   7.502
 3259POPC   NC344027  20.902  18.978   5.294
 3259POPC   PO444028  20.397  19.311   5.391
 3259POPC   GL144029  20.731  19.249   5.713
 3259POPC   GL244030  20.809  18.895   5.805
 3259POPC   C1A44031  20.810  19.274   6.159
 3259POPC   D2A44032  20.525  19.209   6.505
 3259POPC   C3A44033  20.578  18.991   6.891
 3259POPC   C4A44034  20.709  19.011   7.316
 3259POPC   C1B44035  20.418  18.902   6.063
 3259POPC   C2B44036  20.275  18.755   6.475
 3259POPC   C3B44037  20.211  18.626   6.892
 3259POPC   C4B44038  20.352  18.659   7.276
 3260POPC   NC344039  32.627  41.042   5.497
 3260POPC   PO444040  32.817  40.357   5.401
 3260POPC   GL144041  32.975  40.660   5.779
 3260POPC   GL244042  33.328  40.870   5.794
 3260POPC   C1A44043  33.173  40.659   6.238
 3260POPC   D2A44044  33.466  40.498   6.598
 3260POPC   C3A44045  33.235  40.536   7.004
 3260POPC   C4A44046  32.776  40.660   7.102
 3260POPC   C1B44047  33.297  41.180   6.180
 3260POPC   C2B44048  32.987  41.245   6.500
 3260POPC   C3B44049  33.065  41.017   6.868
 3260POPC   C4B44050  32.978  41.085   7.291
 3261POPC   NC344051   2.944  43.895   5.296
 3261POPC   PO444052   2.245  43.953   5.309
 3261POPC   GL144053   2.593  43.942   5.713
 3261POPC   GL244054   2.948  44.033   5.776
 3261POPC   C1A44055   2.671  43.812   6.164
 3261POPC   D2A44056   2.588  43.890   6.629
 3261POPC   C3A44057   2.770  43.752   7.062
 3261POPC   C4A44058   2.607  43.824   7.515
 3261POPC   C1B44059   3.144  44.062   6.176
 3261POPC   C2B44060   3.000  44.203   6.557
 3261POPC   C3B44061   3.114  44.187   6.977
 3261POPC   C4B44062   2.966  44.138   7.369
 3262POPC   NC344063  31.430  25.035   5.234
 3262POPC   PO444064  31.305  25.637   5.090
 3262POPC   GL144065  31.417  25.388   5.601
 3262POPC   GL244066  31.643  25.122   5.745
 3262POPC   C1A44067  31.300  25.321   6.088
 3262POPC   D2A44068  31.428  25.369   6.548
 3262POPC   C3A44069  31.295  25.371   7.003
 3262POPC   C4A44070  31.189  25.688   7.330
 3262POPC   C1B44071  31.779  25.147   6.203
 3262POPC   C2B44072  31.754  24.975   6.642
 3262POPC   C3B44073  31.665  24.959   7.095
 3262POPC   C4B44074  31.670  24.881   7.571
 3263POPC   NC344075   0.980  14.020   5.201
 3263POPC   PO444076   0.455  13.582   5.336
 3263POPC   GL144077   0.583  13.725   5.736
 3263POPC   GL244078   0.572  14.065   5.740
 3263POPC   C1A44079   0.580  13.651   6.188
 3263POPC   D2A44080   0.254  13.761   6.512
 3263POPC   C3A44081   0.395  13.629   6.907
 3263POPC   C4A44082   0.275  13.445   7.285
 3263POPC   C1B44083   0.478  14.144   6.201
 3263POPC   C2B44084   0.737  13.997   6.571
 3263POPC   C3B44085   0.728  14.018   7.029
 3263POPC   C4B44086   0.684  13.748   7.355
 3264POPC   NC344087  23.293  42.184   5.185
 3264POPC   PO444088  22.964  42.685   5.383
 3264POPC   GL144089  22.819  42.664   5.810
 3264POPC   GL244090  22.838  42.331   5.936
 3264POPC   C1A44091  22.835  42.763   6.238
 3264POPC   D2A44092  22.939  42.464   6.528
 3264POPC   C3A44093  22.782  42.554   6.934
 3264POPC   C4A44094  22.747  42.448   7.369
 3264POPC   C1B44095  22.685  42.063   6.282
 3264POPC   C2B44096  22.764  42.038   6.737
 3264POPC   C3B44097  22.967  42.043   7.146
 3264POPC   C4B44098  22.942  42.073   7.632
 3265POPC   NC344099  37.460  42.699   5.293
 3265POPC   PO444100  37.939  42.242   5.198
 3265POPC   GL144101  37.797  42.255   5.636
 3265POPC   GL244102  37.475  42.335   5.657
 3265POPC   C1A44103  37.747  42.056   6.077
 3265POPC   D2A44104  37.466  42.034   6.449
 3265POPC   C3A44105  37.589  42.061   6.905
 3265POPC   C4A44106  37.443  41.992   7.334
 3265POPC   C1B44107  37.652  42.545   6.028
 3265POPC   C2B44108  37.722  42.480   6.477
 3265POPC   C3B44109  37.757  42.562   6.917
 3265POPC   C4B44110  37.785  42.755   7.344
 3266POPC   NC344111  35.337   5.555   5.413
 3266POPC   PO444112  35.450   4.976   5.504
 3266POPC   GL144113  35.636   5.284   5.808
 3266POPC   GL244114  35.442   5.579   5.930
 3266POPC   C1A44115  35.567   5.180   6.253
 3266POPC   D2A44116  35.719   4.978   6.627
 3266POPC   C3A44117  35.447   5.029   7.012
 3266POPC   C4A44118  35.277   5.073   7.459
 3266POPC   C1B44119  35.400   5.618   6.423
 3266POPC   C2B44120  35.547   5.517   6.850
 3266POPC   C3B44121  35.306   5.542   7.234
 3266POPC   C4B44122  35.232   5.528   7.712
 3267POPC   NC344123  37.325  35.411   4.979
 3267POPC   PO444124  37.816  35.314   5.398
 3267POPC   GL144125  37.683  35.287   5.806
 3267POPC   GL244126  37.794  34.951   5.809
 3267POPC   C1A44127  37.651  35.448   6.242
 3267POPC   D2A44128  37.771  35.487   6.669
 3267POPC   C3A44129  37.489  35.546   6.973
 3267POPC   C4A44130  37.200  35.362   7.253
 3267POPC   C1B44131  38.020  34.960   6.150
 3267POPC   C2B44132  38.099  35.105   6.530
 3267POPC   C3B44133  37.909  35.015   6.919
 3267POPC   C4B44134  37.744  35.205   7.310
 3268POPC   NC344135  27.250  40.863   5.566
 3268POPC   PO444136  27.924  40.654   5.460
 3268POPC   GL144137  27.806  40.780   5.867
 3268POPC   GL244138  28.000  40.572   6.039
 3268POPC   C1A44139  27.762  40.963   6.298
 3268POPC   D2A44140  27.851  40.894   6.692
 3268POPC   C3A44141  27.490  40.843   6.947
 3268POPC   C4A44142  27.769  40.846   7.261
 3268POPC   C1B44143  27.704  40.446   6.324
 3268POPC   C2B44144  27.683  40.393   6.749
 3268POPC   C3B44145  27.646  40.367   7.157
 3268POPC   C4B44146  27.388  40.548   7.440
 3269POPC   NC344147  39.380  42.039   5.113
 3269POPC   PO444148  39.161  41.577   5.525
 3269POPC   GL144149  39.364  41.573   5.896
 3269POPC   GL244150  39.360  41.229   5.931
 3269POPC   C1A44151  39.331  41.614   6.325
 3269POPC   D2A44152  39.121  41.395   6.655
 3269POPC   C3A44153  39.003  41.605   7.015
 3269POPC   C4A44154  39.278  41.875   7.221
 3269POPC   C1B44155  39.690  41.245   6.227
 3269POPC   C2B44156  39.690  41.380   6.651
 3269POPC   C3B44157  39.455  41.348   7.049
 3269POPC   C4B44158  39.286  41.428   7.466
 3270POPC   NC344159  13.610  34.893   4.891
 3270POPC   PO444160  13.857  34.503   5.437
 3270POPC   GL144161  13.910  34.572   5.899
 3270POPC   GL244162  13.572  34.532   5.990
 3270POPC   C1A44163  13.939  34.809   6.314
 3270POPC   D2A44164  13.714  34.767   6.725
 3270POPC   C3A44165  13.887  34.641   7.131
 3270POPC   C4A44166  13.896  34.426   7.538
 3270POPC   C1B44167  13.727  34.352   6.395
 3270POPC   C2B44168  13.701  34.255   6.852
 3270POPC   C3B44169  13.458  34.295   7.240
 3270POPC   C4B44170  13.341  33.953   7.553
 3271POPC   NC344171  39.367  26.337   5.268
 3271POPC   PO444172  39.075  25.743   5.321
 3271POPC   GL144173  39.335  25.888   5.705
 3271POPC   GL244174  39.371  26.268   5.784
 3271POPC   C1A44175  39.168  25.860   6.158
 3271POPC   D2A44176  38.812  25.847   6.483
 3271POPC   C3A44177  38.827  25.721   6.929
 3271POPC   C4A44178  39.046  25.838   7.324
 3271POPC   C1B44179  39.525  26.268   6.213
 3271POPC   C2B44180  39.184  26.223   6.524
 3271POPC   C3B44181  39.212  26.072   6.907
 3271POPC   C4B44182  39.420  26.303   7.192
 3272POPC   NC344183  31.817  36.147   5.451
 3272POPC   PO444184  32.436  36.390   5.446
 3272POPC   GL144185  32.262  36.314   5.890
 3272POPC   GL244186  31.903  36.407   5.897
 3272POPC   C1A44187  32.402  36.170   6.355
 3272POPC   D2A44188  32.701  36.013   6.707
 3272POPC   C3A44189  32.462  35.803   7.016
 3272POPC   C4A44190  31.995  35.885   7.130
 3272POPC   C1B44191  31.876  36.189   6.290
 3272POPC   C2B44192  31.890  36.217   6.739
 3272POPC   C3B44193  32.284  36.275   6.956
 3272POPC   C4B44194  32.555  36.620   6.975
 3273POPC   NC344195  21.645  14.778   5.259
 3273POPC   PO444196  21.163  14.387   5.559
 3273POPC   GL144197  21.394  14.479   5.909
 3273POPC   GL244198  21.704  14.304   5.851
 3273POPC   C1A44199  21.245  14.518   6.320
 3273POPC   D2A44200  21.169  14.782   6.658
 3273POPC   C3A44201  21.235  14.528   6.965
 3273POPC   C4A44202  21.278  14.357   7.357
 3273POPC   C1B44203  21.607  14.089   6.229
 3273POPC   C2B44204  21.508  14.204   6.648
 3273POPC   C3B44205  21.727  14.384   6.953
 3273POPC   C4B44206  21.767  14.343   7.345
 3274POPC   NC344207  19.278  31.152   5.553
 3274POPC   PO444208  18.851  30.630   5.505
 3274POPC   GL144209  19.067  30.518   5.854
 3274POPC   GL244210  19.387  30.700   5.810
 3274POPC   C1A44211  18.870  30.447   6.235
 3274POPC   D2A44212  18.647  30.588   6.574
 3274POPC   C3A44213  18.710  30.420   6.935
 3274POPC   C4A44214  18.861  30.503   7.314
 3274POPC   C1B44215  19.107  30.945   6.123
 3274POPC   C2B44216  19.099  30.904   6.537
 3274POPC   C3B44217  19.088  30.836   6.972
 3274POPC   C4B44218  19.002  30.976   7.390
 3275POPC   NC344219   9.958  39.687   5.580
 3275POPC   PO444220   9.449  39.183   5.543
 3275POPC   GL144221   9.781  39.255   5.849
 3275POPC   GL244222  10.064  39.013   5.848
 3275POPC   C1A44223   9.804  39.378   6.283
 3275POPC   D2A44224   9.690  39.641   6.631
 3275POPC   C3A44225   9.431  39.627   6.989
 3275POPC   C4A44226   9.535  39.519   7.402
 3275POPC   C1B44227   9.835  38.873   6.212
 3275POPC   C2B44228   9.636  39.000   6.603
 3275POPC   C3B44229   9.738  39.195   6.971
 3275POPC   C4B44230   9.850  39.098   7.391
 3276POPC   NC344231  33.105  22.314   5.523
 3276POPC   PO444232  32.700  21.879   5.292
 3276POPC   GL144233  32.790  22.014   5.758
 3276POPC   GL244234  32.749  22.353   5.902
 3276POPC   C1A44235  32.934  22.010   6.212
 3276POPC   D2A44236  33.137  22.164   6.566
 3276POPC   C3A44237  32.986  21.961   6.881
 3276POPC   C4A44238  32.743  22.161   7.149
 3276POPC   C1B44239  33.179  22.456   6.133
 3276POPC   C2B44240  33.390  22.606   6.489
 3276POPC   C3B44241  33.368  22.508   6.925
 3276POPC   C4B44242  33.255  22.224   7.219
 3277POPC   NC344243  39.491  34.704   5.553
 3277POPC   PO444244  40.149  34.542   5.332
 3277POPC   GL144245  39.980  34.670   5.709
 3277POPC   GL244246  39.827  34.362   5.743
 3277POPC   C1A44247  39.866  34.829   6.124
 3277POPC   D2A44248  40.117  34.735   6.487
 3277POPC   C3A44249  39.925  34.813   6.862
 3277POPC   C4A44250  39.761  34.894   7.253
 3277POPC   C1B44251  40.066  34.363   6.147
 3277POPC   C2B44252  40.014  34.214   6.587
 3277POPC   C3B44253  39.985  34.303   7.032
 3277POPC   C4B44254  39.997  34.285   7.500
 3278POPC   NC344255  10.623  24.682   5.354
 3278POPC   PO444256  10.638  23.934   5.341
 3278POPC   GL144257  10.763  24.175   5.767
 3278POPC   GL244258  10.542  24.474   5.827
 3278POPC   C1A44259  10.783  24.292   6.244
 3278POPC   D2A44260  10.564  24.324   6.678
 3278POPC   C3A44261  10.787  24.536   7.071
 3278POPC   C4A44262  10.722  24.413   7.526
 3278POPC   C1B44263  10.274  24.389   6.195
 3278POPC   C2B44264  10.102  24.572   6.576
 3278POPC   C3B44265  10.084  24.566   7.018
 3278POPC   C4B44266  10.239  24.363   7.360
 3279POPC   NC344267  32.570  14.920   5.013
 3279POPC   PO444268  32.376  15.244   5.579
 3279POPC   GL144269  32.082  15.231   5.856
 3279POPC   GL244270  32.198  14.899   5.938
 3279POPC   C1A44271  32.143  15.417   6.254
 3279POPC   D2A44272  32.364  15.213   6.549
 3279POPC   C3A44273  32.291  15.301   6.939
 3279POPC   C4A44274  32.450  15.505   7.278
 3279POPC   C1B44275  32.349  14.738   6.345
 3279POPC   C2B44276  32.321  14.764   6.798
 3279POPC   C3B44277  32.552  14.907   7.155
 3279POPC   C4B44278  32.440  14.914   7.619
 3280POPC   NC344279  10.865  15.814   5.376
 3280POPC   PO444280  10.225  16.131   5.365
 3280POPC   GL144281  10.433  15.941   5.712
 3280POPC   GL244282  10.447  15.598   5.639
 3280POPC   C1A44283  10.390  16.040   6.171
 3280POPC   D2A44284  10.738  16.131   6.472
 3280POPC   C3A44285  10.570  16.118   6.889
 3280POPC   C4A44286  10.697  15.889   7.218
 3280POPC   C1B44287  10.338  15.547   6.099
 3280POPC   C2B44288  10.535  15.644   6.547
 3280POPC   C3B44289  10.333  15.633   6.985
 3280POPC   C4B44290  10.274  15.645   7.459
 3281POPC   NC344291  42.065  44.424   5.557
 3281POPC   PO444292  42.693  44.512   5.783
 3281POPC   GL144293  42.332  44.525   6.014
 3281POPC   GL244294  42.159  44.791   5.887
 3281POPC   C1A44295  42.347  44.752   6.406
 3281POPC   D2A44296  42.312  44.576   6.793
 3281POPC   C3A44297  42.503  44.708   7.173
 3281POPC   C4A44298  42.383  44.541   7.577
 3281POPC   C1B44299  41.896  44.902   6.223
 3281POPC   C2B44300  41.881  44.846   6.670
 3281POPC   C3B44301  42.019  44.868   7.096
 3281POPC   C4B44302  42.054  44.936   7.559
 3282POPC   NC344303  11.509  37.827   5.435
 3282POPC   PO444304  10.972  37.483   5.604
 3282POPC   GL144305  11.231  37.706   5.854
 3282POPC   GL244306  11.536  37.476   5.810
 3282POPC   C1A44307  11.119  37.888   6.251
 3282POPC   D2A44308  11.344  38.021   6.594
 3282POPC   C3A44309  11.150  37.818   6.939
 3282POPC   C4A44310  10.954  37.494   7.183
 3282POPC   C1B44311  11.588  37.682   6.242
 3282POPC   C2B44312  11.575  37.585   6.713
 3282POPC   C3B44313  11.657  37.732   7.140
 3282POPC   C4B44314  11.632  37.546   7.552
 3283POPC   NC344315  39.867  13.939   5.092
 3283POPC   PO444316  39.906  13.525   5.544
 3283POPC   GL144317  39.964  13.629   5.914
 3283POPC   GL244318  39.733  13.892   5.938
 3283POPC   C1A44319  39.972  13.573   6.338
 3283POPC   D2A44320  40.225  13.639   6.661
 3283POPC   C3A44321  40.072  13.404   6.999
 3283POPC   C4A44322  40.243  13.603   7.318
 3283POPC   C1B44323  39.531  13.818   6.356
 3283POPC   C2B44324  39.700  13.700   6.777
 3283POPC   C3B44325  39.768  13.784   7.220
 3283POPC   C4B44326  39.609  14.018   7.616
 3284POPC   NC344327   8.905  18.244   5.474
 3284POPC   PO444328   9.415  17.769   5.525
 3284POPC   GL144329   9.174  18.008   5.834
 3284POPC   GL244330   8.783  18.049   5.925
 3284POPC   C1A44331   9.161  18.232   6.234
 3284POPC   D2A44332   8.874  18.100   6.586
 3284POPC   C3A44333   8.976  18.181   7.037
 3284POPC   C4A44334   9.224  18.194   7.444
 3284POPC   C1B44335   8.714  18.461   6.181
 3284POPC   C2B44336   8.632  18.580   6.625
 3284POPC   C3B44337   8.800  18.664   7.051
 3284POPC   C4B44338   8.777  18.434   7.449
 3285POPC   NC344339  20.377   4.842   5.433
 3285POPC   PO444340  20.972   5.131   5.347
 3285POPC   GL144341  20.653   5.184   5.728
 3285POPC   GL244342  20.496   4.880   5.921
 3285POPC   C1A44343  20.748   5.279   6.198
 3285POPC   D2A44344  20.680   5.125   6.636
 3285POPC   C3A44345  20.784   5.351   7.013
 3285POPC   C4A44346  20.603   5.342   7.448
 3285POPC   C1B44347  20.281   5.059   6.278
 3285POPC   C2B44348  20.178   5.204   6.673
 3285POPC   C3B44349  20.321   5.071   7.102
 3285POPC   C4B44350  20.385   4.887   7.544
 3286POPC   NC344351  20.871  11.444   5.331
 3286POPC   PO444352  20.416  10.917   5.329
 3286POPC   GL144353  20.677  11.072   5.705
 3286POPC   GL244354  20.673  11.453   5.789
 3286POPC   C1A44355  20.596  11.130   6.170
 3286POPC   D2A44356  20.852  11.245   6.510
 3286POPC   C3A44357  20.682  11.201   6.907
 3286POPC   C4A44358  20.878  11.113   7.316
 3286POPC   C1B44359  20.598  11.649   6.177
 3286POPC   C2B44360  20.413  11.546   6.534
 3286POPC   C3B44361  20.279  11.583   6.926
 3286POPC   C4B44362  20.518  11.487   7.301
 3287POPC   NC344363  25.357  38.766   5.339
 3287POPC   PO444364  25.061  38.164   5.355
 3287POPC   GL144365  25.096  38.235   5.839
 3287POPC   GL244366  25.235  38.553   5.790
 3287POPC   C1A44367  25.138  38.305   6.370
 3287POPC   D2A44368  24.927  38.467   6.767
 3287POPC   C3A44369  25.014  38.336   7.207
 3287POPC   C4A44370  25.399  38.327   7.454
 3287POPC   C1B44371  25.535  38.441   6.094
 3287POPC   C2B44372  25.630  38.545   6.515
 3287POPC   C3B44373  25.440  38.473   6.923
 3287POPC   C4B44374  25.296  38.761   7.235
 3288POPC   NC344375   6.750  29.578   5.328
 3288POPC   PO444376   6.454  30.129   5.349
 3288POPC   GL144377   6.497  29.817   5.727
 3288POPC   GL244378   6.877  29.814   5.778
 3288POPC   C1A44379   6.336  29.733   6.189
 3288POPC   D2A44380   6.312  29.746   6.671
 3288POPC   C3A44381   6.389  30.076   6.948
 3288POPC   C4A44382   6.330  30.364   7.247
 3288POPC   C1B44383   7.067  29.791   6.183
 3288POPC   C2B44384   6.846  29.821   6.540
 3288POPC   C3B44385   6.869  29.895   6.944
 3288POPC   C4B44386   6.745  29.623   7.254
 3289POPC   NC344387  16.889  10.850   5.207
 3289POPC   PO444388  16.861  10.189   5.334
 3289POPC   GL144389  16.877  10.517   5.627
 3289POPC   GL244390  16.648  10.458   5.886
 3289POPC   C1A44391  17.114  10.559   6.032
 3289POPC   D2A44392  16.875  10.694   6.386
 3289POPC   C3A44393  16.984  10.730   6.819
 3289POPC   C4A44394  16.696  10.813   7.137
 3289POPC   C1B44395  16.396  10.515   6.288
 3289POPC   C2B44396  16.431  10.569   6.757
 3289POPC   C3B44397  16.508  10.326   7.165
 3289POPC   C4B44398  16.396  10.268   7.644
 3290POPC   NC344399  30.956  30.581   5.410
 3290POPC   PO444400  31.630  30.851   5.466
 3290POPC   GL144401  31.611  30.740   5.872
 3290POPC   GL244402  31.300  30.591   5.802
 3290POPC   C1A44403  31.578  30.649   6.319
 3290POPC   D2A44404  31.729  30.402   6.687
 3290POPC   C3A44405  31.509  30.489   7.062
 3290POPC   C4A44406  31.154  30.489   7.331
 3290POPC   C1B44407  31.072  30.655   6.144
 3290POPC   C2B44408  31.073  30.730   6.571
 3290POPC   C3B44409  31.206  30.877   6.942
 3290POPC   C4B44410  31.553  30.987   7.188
 3291POPC   NC344411   5.281   9.155   5.320
 3291POPC   PO444412   4.850   8.714   5.538
 3291POPC   GL144413   5.080   8.927   5.778
 3291POPC   GL244414   4.816   9.039   5.976
 3291POPC   C1A44415   5.285   8.803   6.151
 3291POPC   D2A44416   5.112   9.004   6.507
 3291POPC   C3A44417   5.227   8.915   6.947
 3291POPC   C4A44418   5.335   9.044   7.376
 3291POPC   C1B44419   4.660   9.180   6.391
 3291POPC   C2B44420   4.673   8.919   6.792
 3291POPC   C3B44421   4.744   9.109   7.211
 3291POPC   C4B44422   4.677   9.410   7.605
 3292POPC   NC344423  40.555  28.372   5.573
 3292POPC   PO444424  41.245  28.208   5.569
 3292POPC   GL144425  40.971  28.346   5.895
 3292POPC   GL244426  40.800  28.022   5.876
 3292POPC   C1A44427  40.638  28.512   6.231
 3292POPC   D2A44428  40.332  28.509   6.599
 3292POPC   C3A44429  40.508  28.657   6.995
 3292POPC   C4A44430  40.987  28.637   7.103
 3292POPC   C1B44431  40.905  28.040   6.317
 3292POPC   C2B44432  40.802  28.299   6.689
 3292POPC   C3B44433  40.688  28.204   7.109
 3292POPC   C4B44434  40.597  28.095   7.527
 3293POPC   NC344435  28.684   2.428   5.177
 3293POPC   PO444436  28.638   3.101   5.463
 3293POPC   GL144437  28.249   2.963   5.762
 3293POPC   GL244438  28.153   2.617   5.814
 3293POPC   C1A44439  28.333   2.891   6.248
 3293POPC   D2A44440  28.463   2.940   6.719
 3293POPC   C3A44441  28.514   2.649   7.091
 3293POPC   C4A44442  28.823   2.691   7.440
 3293POPC   C1B44443  27.923   2.582   6.181
 3293POPC   C2B44444  27.797   2.416   6.577
 3293POPC   C3B44445  28.046   2.480   6.930
 3293POPC   C4B44446  28.039   2.629   7.337
 3294POPC   NC344447  24.866  34.470   5.206
 3294POPC   PO444448  25.431  34.371   5.542
 3294POPC   GL144449  25.305  34.667   5.876
 3294POPC   GL244450  24.947  34.686   5.833
 3294POPC   C1A44451  25.316  34.508   6.338
 3294POPC   D2A44452  25.197  34.345   6.724
 3294POPC   C3A44453  25.405  34.535   7.028
 3294POPC   C4A44454  25.141  34.747   7.291
 3294POPC   C1B44455  25.008  34.889   6.251
 3294POPC   C2B44456  25.205  34.895   6.693
 3294POPC   C3B44457  25.514  35.023   7.056
 3294POPC   C4B44458  25.508  34.975   7.538
 3295POPC   NC344459  17.308  34.868   5.495
 3295POPC   PO444460  17.638  34.260   5.375
 3295POPC   GL144461  17.722  34.500   5.793
 3295POPC   GL244462  17.386  34.546   5.878
 3295POPC   C1A44463  17.677  34.688   6.257
 3295POPC   D2A44464  17.916  34.728   6.640
 3295POPC   C3A44465  17.717  34.560   6.998
 3295POPC   C4A44466  17.707  34.361   7.401
 3295POPC   C1B44467  17.187  34.830   6.161
 3295POPC   C2B44468  17.290  34.896   6.587
 3295POPC   C3B44469  17.106  34.886   6.990
 3295POPC   C4B44470  17.278  34.609   7.267
 3296POPC   NC344471  24.227  32.697   5.415
 3296POPC   PO444472  24.791  32.998   5.268
 3296POPC   GL144473  24.644  33.143   5.702
 3296POPC   GL244474  24.396  32.935   5.829
 3296POPC   C1A44475  24.621  33.241   6.171
 3296POPC   D2A44476  24.387  33.082   6.526
 3296POPC   C3A44477  24.441  33.219   6.957
 3296POPC   C4A44478  24.620  32.999   7.285
 3296POPC   C1B44479  24.747  32.751   6.030
 3296POPC   C2B44480  24.758  32.705   6.495
 3296POPC   C3B44481  24.502  32.701   6.896
 3296POPC   C4B44482  24.657  32.501   7.268
 3297POPC   NC344483   3.756  34.349   5.584
 3297POPC   PO444484   3.313  34.858   5.424
 3297POPC   GL144485   3.524  34.765   5.800
 3297POPC   GL244486   3.253  34.547   5.862
 3297POPC   C1A44487   3.789  34.627   6.182
 3297POPC   D2A44488   3.666  34.530   6.614
 3297POPC   C3A44489   3.840  34.724   6.980
 3297POPC   C4A44490   3.726  34.786   7.374
 3297POPC   C1B44491   3.283  34.615   6.276
 3297POPC   C2B44492   3.171  34.433   6.638
 3297POPC   C3B44493   3.297  34.630   7.018
 3297POPC   C4B44494   3.090  34.622   7.390
 3298POPC   NC344495  10.735  13.204   5.185
 3298POPC   PO444496  10.252  12.742   5.496
 3298POPC   GL144497  10.478  12.644   5.858
 3298POPC   GL244498  10.333  12.855   6.084
 3298POPC   C1A44499  10.761  12.584   6.185
 3298POPC   D2A44500  10.566  12.668   6.536
 3298POPC   C3A44501  10.708  12.782   6.875
 3298POPC   C4A44502  10.482  12.998   7.169
 3298POPC   C1B44503  10.638  13.096   6.264
 3298POPC   C2B44504  10.959  13.077   6.528
 3298POPC   C3B44505  10.843  13.269   6.909
 3298POPC   C4B44506  10.829  13.333   7.334
 3299POPC   NC344507  21.510   1.744   5.474
 3299POPC   PO444508  21.466   2.393   5.537
 3299POPC   GL144509  21.352   2.063   5.852
 3299POPC   GL244510  21.062   1.830   5.779
 3299POPC   C1A44511  21.387   2.051   6.292
 3299POPC   D2A44512  21.521   2.268   6.677
 3299POPC   C3A44513  21.387   1.985   6.972
 3299POPC   C4A44514  21.575   1.622   7.135
 3299POPC   C1B44515  20.986   1.707   6.234
 3299POPC   C2B44516  21.231   1.604   6.627
 3299POPC   C3B44517  21.084   1.605   7.055
 3299POPC   C4B44518  21.007   1.710   7.450
 3300POPC   NC344519  18.361  26.919   5.366
 3300POPC   PO444520  18.093  26.262   5.333
 3300POPC   GL144521  18.190  26.594   5.727
 3300POPC   GL244522  18.270  27.003   5.851
 3300POPC   C1A44523  18.223  26.645   6.195
 3300POPC   D2A44524  18.194  26.893   6.549
 3300POPC   C3A44525  18.401  26.721   6.882
 3300POPC   C4A44526  18.186  26.667   7.279
 3300POPC   C1B44527  18.472  27.212   6.236
 3300POPC   C2B44528  18.604  27.198   6.705
 3300POPC   C3B44529  18.423  27.153   7.138
 3300POPC   C4B44530  18.454  27.007   7.570
 3301POPC   NC344531   6.662  15.525   5.285
 3301POPC   PO444532   6.362  16.221   5.284
 3301POPC   GL144533   6.671  16.253   5.658
 3301POPC   GL244534   6.704  15.916   5.707
 3301POPC   C1A44535   6.878  16.171   6.128
 3301POPC   D2A44536   6.947  16.272   6.598
 3301POPC   C3A44537   6.993  16.014   6.995
 3301POPC   C4A44538   6.712  16.226   7.289
 3301POPC   C1B44539   6.394  16.051   6.042
 3301POPC   C2B44540   6.521  15.911   6.443
 3301POPC   C3B44541   6.502  15.999   6.866
 3301POPC   C4B44542   6.564  15.745   7.251
 3302POPC   NC344543  26.241  30.052   5.528
 3302POPC   PO444544  25.598  29.722   5.454
 3302POPC   GL144545  25.922  29.743   5.782
 3302POPC   GL244546  25.892  30.084   5.890
 3302POPC   C1A44547  26.213  29.817   6.170
 3302POPC   D2A44548  26.005  29.664   6.522
 3302POPC   C3A44549  26.128  29.780   6.915
 3302POPC   C4A44550  26.043  29.927   7.325
 3302POPC   C1B44551  25.751  30.055   6.290
 3302POPC   C2B44552  25.816  30.137   6.705
 3302POPC   C3B44553  25.615  30.152   7.081
 3302POPC   C4B44554  25.764  30.403   7.411
 3303POPC   NC344555  14.500  32.533   5.454
 3303POPC   PO444556  14.506  31.875   5.505
 3303POPC   GL144557  14.346  32.130   5.817
 3303POPC   GL244558  14.612  32.287   5.895
 3303POPC   C1A44559  14.203  32.224   6.262
 3303POPC   D2A44560  14.331  32.344   6.688
 3303POPC   C3A44561  14.081  32.213   7.083
 3303POPC   C4A44562  13.896  32.149   7.523
 3303POPC   C1B44563  14.718  32.131   6.289
 3303POPC   C2B44564  14.867  32.011   6.689
 3303POPC   C3B44565  14.586  32.058   7.022
 3303POPC   C4B44566  14.503  32.490   7.173
 3304POPC   NC344567  29.494  37.966   5.630
 3304POPC   PO444568  30.036  37.630   5.323
 3304POPC   GL144569  29.854  37.494   5.731
 3304POPC   GL244570  30.172  37.341   5.813
 3304POPC   C1A44571  29.724  37.634   6.178
 3304POPC   D2A44572  29.855  37.843   6.577
 3304POPC   C3A44573  29.695  37.710   6.977
 3304POPC   C4A44574  29.607  37.920   7.366
 3304POPC   C1B44575  30.248  37.553   6.183
 3304POPC   C2B44576  30.258  37.520   6.615
 3304POPC   C3B44577  30.220  37.632   7.031
 3304POPC   C4B44578  30.122  38.019   7.241
 3305POPC   NC344579  44.137  22.793   5.467
 3305POPC   PO444580  43.566  23.152   5.366
 3305POPC   GL144581  43.750  22.998   5.809
 3305POPC   GL244582  43.942  22.679   5.919
 3305POPC   C1A44583  43.935  23.021   6.270
 3305POPC   D2A44584  43.940  23.215   6.674
 3305POPC   C3A44585  44.125  22.971   7.009
 3305POPC   C4A44586  43.985  22.983   7.443
 3305POPC   C1B44587  43.864  22.479   6.319
 3305POPC   C2B44588  43.802  22.546   6.794
 3305POPC   C3B44589  43.917  22.536   7.220
 3305POPC   C4B44590  43.971  22.555   7.695
 3306POPC   NC344591  38.378  39.126   5.300
 3306POPC   PO444592  38.015  39.618   5.493
 3306POPC   GL144593  38.239  39.348   5.774
 3306POPC   GL244594  38.608  39.376   5.726
 3306POPC   C1A44595  38.353  39.429   6.190
 3306POPC   D2A44596  38.177  39.460   6.588
 3306POPC   C3A44597  38.262  39.140   6.893
 3306POPC   C4A44598  38.249  39.366   7.280
 3306POPC   C1B44599  38.639  39.037   6.010
 3306POPC   C2B44600  38.581  39.023   6.452
 3306POPC   C3B44601  38.767  39.026   6.859
 3306POPC   C4B44602  38.665  39.098   7.263
 3307POPC   NC344603   0.510  13.083   5.363
 3307POPC   PO444604   1.004  12.604   5.506
 3307POPC   GL144605   0.588  12.672   5.759
 3307POPC   GL244606   0.298  12.392   5.749
 3307POPC   C1A44607   0.514  12.972   6.124
 3307POPC   D2A44608   0.441  13.249   6.490
 3307POPC   C3A44609   0.395  13.103   6.940
 3307POPC   C4A44610   0.274  12.966   7.398
 3307POPC   C1B44611   0.228  12.550   6.176
 3307POPC   C2B44612   0.254  12.754   6.592
 3307POPC   C3B44613   0.206  12.611   7.047
 3307POPC   C4B44614   0.168  12.328   7.435
 3308POPC   NC344615  23.184  37.440   5.415
 3308POPC   PO444616  22.708  37.874   5.417
 3308POPC   GL144617  22.995  37.770   5.747
 3308POPC   GL244618  22.796  37.467   5.777
 3308POPC   C1A44619  22.953  37.753   6.198
 3308POPC   D2A44620  22.671  37.634   6.556
 3308POPC   C3A44621  22.872  37.681   6.951
 3308POPC   C4A44622  23.006  37.879   7.315
 3308POPC   C1B44623  22.811  37.274   6.194
 3308POPC   C2B44624  23.117  37.385   6.547
 3308POPC   C3B44625  23.288  37.262   6.923
 3308POPC   C4B44626  23.163  37.401   7.318
 3309POPC   NC344627   5.586  18.408   5.067
 3309POPC   PO444628   6.156  18.000   5.343
 3309POPC   GL144629   5.992  18.224   5.701
 3309POPC   GL244630   6.338  18.283   5.809
 3309POPC   C1A44631   5.807  18.400   6.113
 3309POPC   D2A44632   5.792  18.257   6.516
 3309POPC   C3A44633   5.766  18.449   6.895
 3309POPC   C4A44634   5.808  18.297   7.278
 3309POPC   C1B44635   6.317  18.411   6.248
 3309POPC   C2B44636   6.170  18.621   6.630
 3309POPC   C3B44637   6.172  18.667   7.104
 3309POPC   C4B44638   6.174  18.545   7.542
 3310POPC   NC344639  38.127  24.476   5.385
 3310POPC   PO444640  38.692  24.221   5.219
 3310POPC   GL144641  38.544  24.379   5.693
 3310POPC   GL244642  38.698  24.726   5.809
 3310POPC   C1A44643  38.330  24.522   6.122
 3310POPC   D2A44644  38.423  24.797   6.532
 3310POPC   C3A44645  38.244  24.676   6.963
 3310POPC   C4A44646  38.108  24.327   7.234
 3310POPC   C1B44647  38.832  24.558   6.234
 3310POPC   C2B44648  38.799  24.457   6.695
 3310POPC   C3B44649  38.743  24.557   7.152
 3310POPC   C4B44650  38.803  24.654   7.651
 3311POPC   NC344651  32.218  32.823   5.344
 3311POPC   PO444652  32.648  33.307   5.417
 3311POPC   GL144653  32.347  33.262   5.754
 3311POPC   GL244654  32.193  32.924   5.827
 3311POPC   C1A44655  32.191  33.241   6.206
 3311POPC   D2A44656  32.262  32.989   6.568
 3311POPC   C3A44657  32.093  33.058   6.975
 3311POPC   C4A44658  32.363  33.218   7.261
 3311POPC   C1B44659  32.349  32.646   6.144
 3311POPC   C2B44660  32.178  32.486   6.529
 3311POPC   C3B44661  32.212  32.557   6.951
 3311POPC   C4B44662  31.949  32.647   7.263
 3312POPC   NC344663  35.362  11.670   5.406
 3312POPC   PO444664  35.024  11.057   5.258
 3312POPC   GL144665  35.127  11.254   5.690
 3312POPC   GL244666  35.329  11.040   5.925
 3312POPC   C1A44667  35.265  11.529   6.085
 3312POPC   D2A44668  35.536  11.606   6.474
 3312POPC   C3A44669  35.611  11.343   6.834
 3312POPC   C4A44670  35.770  11.527   7.214
 3312POPC   C1B44671  35.218  11.123   6.400
 3312POPC   C2B44672  35.089  11.432   6.737
 3312POPC   C3B44673  35.237  11.362   7.168
 3312POPC   C4B44674  35.404  10.962   7.233
 3313POPC   NC344675  22.782  13.405   5.380
 3313POPC   PO444676  23.015  14.045   5.222
 3313POPC   GL144677  23.013  13.863   5.678
 3313POPC   GL244678  23.061  13.492   5.794
 3313POPC   C1A44679  22.815  13.816   6.122
 3313POPC   D2A44680  22.744  13.619   6.546
 3313POPC   C3A44681  23.052  13.671   6.894
 3313POPC   C4A44682  22.796  13.674   7.219
 3313POPC   C1B44683  22.958  13.284   6.188
 3313POPC   C2B44684  23.058  13.219   6.626
 3313POPC   C3B44685  22.952  13.215   7.070
 3313POPC   C4B44686  22.941  13.220   7.549
 3314POPC   NC344687  24.701  37.195   5.401
 3314POPC   PO444688  24.268  37.706   5.391
 3314POPC   GL144689  24.456  37.681   5.768
 3314POPC   GL244690  24.422  38.038   5.803
 3314POPC   C1A44691  24.779  37.756   6.088
 3314POPC   D2A44692  24.784  37.940   6.501
 3314POPC   C3A44693  24.748  37.619   6.814
 3314POPC   C4A44694  24.436  37.296   6.959
 3314POPC   C1B44695  24.315  37.956   6.201
 3314POPC   C2B44696  24.378  37.610   6.437
 3314POPC   C3B44697  24.283  37.799   6.786
 3314POPC   C4B44698  24.235  37.790   7.222
 3315POPC   NC344699  39.845  13.086   5.625
 3315POPC   PO444700  39.626  12.474   5.401
 3315POPC   GL144701  39.645  12.617   5.833
 3315POPC   GL244702  39.982  12.662   5.881
 3315POPC   C1A44703  39.686  12.831   6.272
 3315POPC   D2A44704  39.902  12.661   6.678
 3315POPC   C3A44705  39.968  12.900   7.098
 3315POPC   C4A44706  40.007  13.051   7.553
 3315POPC   C1B44707  40.207  12.889   6.195
 3315POPC   C2B44708  40.417  12.742   6.548
 3315POPC   C3B44709  40.351  12.579   6.961
 3315POPC   C4B44710  40.345  12.682   7.362
 3316POPC   NC344711  14.550  24.751   5.550
 3316POPC   PO444712  14.576  24.131   5.606
 3316POPC   GL144713  14.362  24.422   5.923
 3316POPC   GL244714  14.097  24.652   5.808
 3316POPC   C1A44715  14.357  24.650   6.348
 3316POPC   D2A44716  14.310  24.736   6.817
 3316POPC   C3A44717  14.628  24.833   7.088
 3316POPC   C4A44718  14.682  24.779   7.527
 3316POPC   C1B44719  13.906  24.436   6.177
 3316POPC   C2B44720  14.050  24.284   6.585
 3316POPC   C3B44721  14.262  24.257   6.997
 3316POPC   C4B44722  14.260  24.557   7.331
 3317POPC   NC344723  26.984  30.236   5.209
 3317POPC   PO444724  26.596  29.753   5.503
 3317POPC   GL144725  26.822  30.076   5.712
 3317POPC   GL244726  27.193  30.005   5.654
 3317POPC   C1A44727  26.748  30.171   6.160
 3317POPC   D2A44728  26.558  30.099   6.569
 3317POPC   C3A44729  26.815  30.068   6.931
 3317POPC   C4A44730  26.565  29.794   7.160
 3317POPC   C1B44731  27.111  29.789   6.047
 3317POPC   C2B44732  26.975  29.716   6.456
 3317POPC   C3B44733  26.955  29.570   6.885
 3317POPC   C4B44734  27.062  29.725   7.281
 3318POPC   NC344735   7.433  42.511   5.356
 3318POPC   PO444736   6.952  41.952   5.439
 3318POPC   GL144737   7.192  42.244   5.789
 3318POPC   GL244738   7.100  42.613   5.795
 3318POPC   C1A44739   7.415  42.087   6.197
 3318POPC   D2A44740   7.618  41.963   6.605
 3318POPC   C3A44741   7.428  42.137   6.967
 3318POPC   C4A44742   7.221  42.012   7.393
 3318POPC   C1B44743   7.442  42.623   6.114
 3318POPC   C2B44744   7.586  42.476   6.524
 3318POPC   C3B44745   7.572  42.636   6.968
 3318POPC   C4B44746   7.271  42.525   7.290
 3319POPC   NC344747  38.424   2.649   5.255
 3319POPC   PO444748  38.048   3.130   5.453
 3319POPC   GL144749  38.317   2.830   5.741
 3319POPC   GL244750  38.647   2.695   5.730
 3319POPC   C1A44751  38.283   2.585   6.114
 3319POPC   D2A44752  38.467   2.583   6.492
 3319POPC   C3A44753  38.306   2.759   6.847
 3319POPC   C4A44754  38.293   2.505   7.176
 3319POPC   C1B44755  38.860   2.431   6.046
 3319POPC   C2B44756  38.894   2.322   6.504
 3319POPC   C3B44757  38.817   2.612   6.877
 3319POPC   C4B44758  38.784   2.560   7.322
 3320POPC   NC344759  20.473  19.768   5.402
 3320POPC   PO444760  20.928  20.184   5.411
 3320POPC   GL144761  20.650  20.094   5.767
 3320POPC   GL244762  20.616  19.747   5.890
 3320POPC   C1A44763  20.569  20.214   6.207
 3320POPC   D2A44764  20.280  20.063   6.541
 3320POPC   C3A44765  20.410  19.994   6.969
 3320POPC   C4A44766  20.395  20.301   7.299
 3320POPC   C1B44767  20.646  19.717   6.344
 3320POPC   C2B44768  20.719  19.631   6.768
 3320POPC   C3B44769  20.547  19.492   7.156
 3320POPC   C4B44770  20.802  19.460   7.545
 3321POPC   NC344771  25.927  30.883   5.599
 3321POPC   PO444772  25.300  30.871   5.445
 3321POPC   GL144773  25.159  30.654   5.766
 3321POPC   GL244774  25.458  30.490   5.803
 3321POPC   C1A44775  25.228  30.829   6.176
 3321POPC   D2A44776  25.163  31.027   6.559
 3321POPC   C3A44777  25.334  30.939   6.933
 3321POPC   C4A44778  25.122  31.031   7.318
 3321POPC   C1B44779  25.340  30.339   6.188
 3321POPC   C2B44780  25.342  30.513   6.582
 3321POPC   C3B44781  25.185  30.407   6.948
 3321POPC   C4B44782  25.280  30.540   7.312
 3322POPC   NC344783  20.957  31.659   5.588
 3322POPC   PO444784  20.558  31.307   5.176
 3322POPC   GL144785  20.526  31.423   5.636
 3322POPC   GL244786  20.405  31.779   5.720
 3322POPC   C1A44787  20.663  31.473   6.121
 3322POPC   D2A44788  20.493  31.490   6.548
 3322POPC   C3A44789  20.735  31.542   6.915
 3322POPC   C4A44790  20.558  31.436   7.285
 3322POPC   C1B44791  20.269  31.803   6.166
 3322POPC   C2B44792  20.129  31.835   6.618
 3322POPC   C3B44793  20.241  31.803   7.062
 3322POPC   C4B44794  20.413  31.959   7.462
 3323POPC   NC344795  35.799   8.838   5.453
 3323POPC   PO444796  36.365   8.991   5.154
 3323POPC   GL144797  36.254   9.001   5.624
 3323POPC   GL244798  35.958   9.239   5.741
 3323POPC   C1A44799  36.150   8.828   6.047
 3323POPC   D2A44800  36.318   8.819   6.450
 3323POPC   C3A44801  36.218   8.901   6.912
 3323POPC   C4A44802  36.323   8.509   7.165
 3323POPC   C1B44803  35.817   9.163   6.194
 3323POPC   C2B44804  35.810   8.997   6.589
 3323POPC   C3B44805  35.788   9.201   6.960
 3323POPC   C4B44806  35.790   8.981   7.304
 3324POPC   NC344807  27.698  14.606   5.251
 3324POPC   PO444808  27.573  14.012   5.479
 3324POPC   GL144809  27.485  14.318   5.817
 3324POPC   GL244810  27.287  14.588   5.644
 3324POPC   C1A44811  27.497  14.342   6.309
 3324POPC   D2A44812  27.384  14.288   6.766
 3324POPC   C3A44813  27.625  14.355   7.151
 3324POPC   C4A44814  27.924  14.243   7.501
 3324POPC   C1B44815  27.376  14.776   6.066
 3324POPC   C2B44816  27.238  14.765   6.513
 3324POPC   C3B44817  27.387  14.781   6.938
 3324POPC   C4B44818  27.279  14.857   7.338
 3325POPC   NC344819  18.568   7.366   5.303
 3325POPC   PO444820  17.987   7.659   5.509
 3325POPC   GL144821  18.178   7.500   5.871
 3325POPC   GL244822  18.529   7.554   5.821
 3325POPC   C1A44823  18.077   7.609   6.303
 3325POPC   D2A44824  17.721   7.580   6.619
 3325POPC   C3A44825  17.909   7.389   6.999
 3325POPC   C4A44826  18.255   7.087   7.042
 3325POPC   C1B44827  18.606   7.397   6.251
 3325POPC   C2B44828  18.463   7.458   6.689
 3325POPC   C3B44829  18.599   7.464   7.114
 3325POPC   C4B44830  18.708   7.611   7.504
 3326POPC   NC344831  24.820  16.458   5.385
 3326POPC   PO444832  24.290  16.837   5.090
 3326POPC   GL144833  24.455  16.779   5.576
 3326POPC   GL244834  24.186  16.716   5.815
 3326POPC   C1A44835  24.606  16.631   6.065
 3326POPC   D2A44836  24.807  16.747   6.502
 3326POPC   C3A44837  24.941  16.597   6.926
 3326POPC   C4A44838  24.736  16.709   7.316
 3326POPC   C1B44839  24.198  16.943   6.219
 3326POPC   C2B44840  24.297  16.627   6.510
 3326POPC   C3B44841  24.439  16.616   6.899
 3326POPC   C4B44842  24.251  16.921   7.177
 3327POPC   NC344843   1.882   7.007   5.293
 3327POPC   PO444844   1.636   6.332   5.415
 3327POPC   GL144845   1.893   6.619   5.675
 3327POPC   GL244846   2.229   6.483   5.799
 3327POPC   C1A44847   1.891   6.759   6.113
 3327POPC   D2A44848   1.806   6.543   6.477
 3327POPC   C3A44849   1.817   6.776   6.776
 3327POPC   C4A44850   1.834   6.778   7.165
 3327POPC   C1B44851   2.365   6.634   6.218
 3327POPC   C2B44852   2.308   6.817   6.626
 3327POPC   C3B44853   2.371   6.756   7.039
 3327POPC   C4B44854   2.236   6.710   7.470
 3328POPC   NC344855   8.951  11.172   5.281
 3328POPC   PO444856   9.291  11.704   5.371
 3328POPC   GL144857   9.068  11.630   5.745
 3328POPC   GL244858   8.762  11.443   5.706
 3328POPC   C1A44859   9.117  11.329   6.092
 3328POPC   D2A44860   8.958  11.075   6.452
 3328POPC   C3A44861   8.991  11.266   6.855
 3328POPC   C4A44862   8.946  11.426   7.260
 3328POPC   C1B44863   8.589  11.326   6.103
 3328POPC   C2B44864   8.475  11.307   6.523
 3328POPC   C3B44865   8.512  11.452   6.919
 3328POPC   C4B44866   8.518  11.198   7.275
 3329POPC   NC344867  28.399  28.789   5.243
 3329POPC   PO444868  27.894  29.224   5.351
 3329POPC   GL144869  28.150  28.970   5.643
 3329POPC   GL244870  28.452  29.164   5.702
 3329POPC   C1A44871  28.215  28.914   6.102
 3329POPC   D2A44872  28.135  28.924   6.555
 3329POPC   C3A44873  28.337  29.186   6.904
 3329POPC   C4A44874  28.214  29.023   7.315
 3329POPC   C1B44875  28.497  29.363   6.143
 3329POPC   C2B44876  28.656  29.483   6.591
 3329POPC   C3B44877  28.749  29.479   7.077
 3329POPC   C4B44878  28.468  29.399   7.497
 3330POPC   NC344879   9.435  22.857   5.491
 3330POPC   PO444880   9.973  22.569   5.621
 3330POPC   GL144881   9.782  22.807   5.932
 3330POPC   GL244882   9.899  23.160   5.914
 3330POPC   C1A44883   9.724  22.826   6.390
 3330POPC   D2A44884   9.759  23.018   6.793
 3330POPC   C3A44885   9.856  22.766   7.157
 3330POPC   C4A44886   9.698  22.799   7.580
 3330POPC   C1B44887   9.968  23.312   6.353
 3330POPC   C2B44888  10.235  23.148   6.700
 3330POPC   C3B44889  10.130  23.209   7.122
 3330POPC   C4B44890   9.896  23.327   7.498
 3331POPC   NC344891  21.843  34.768   5.673
 3331POPC   PO444892  21.399  34.537   5.198
 3331POPC   GL144893  21.317  34.617   5.690
 3331POPC   GL244894  21.309  34.887   5.797
 3331POPC   C1A44895  21.198  34.414   6.103
 3331POPC   D2A44896  21.227  34.546   6.535
 3331POPC   C3A44897  21.386  34.356   6.868
 3331POPC   C4A44898  21.301  34.476   7.254
 3331POPC   C1B44899  21.459  34.841   6.196
 3331POPC   C2B44900  21.666  34.871   6.583
 3331POPC   C3B44901  21.439  34.889   6.951
 3331POPC   C4B44902  21.532  34.922   7.365
 3332POPC   NC344903  21.329  34.165   5.497
 3332POPC   PO444904  21.620  33.565   5.277
 3332POPC   GL144905  21.537  33.721   5.698
 3332POPC   GL244906  21.545  33.426   5.889
 3332POPC   C1A44907  21.427  33.910   6.118
 3332POPC   D2A44908  21.163  34.014   6.485
 3332POPC   C3A44909  21.323  33.847   6.887
 3332POPC   C4A44910  21.485  34.008   7.288
 3332POPC   C1B44911  21.835  33.583   6.188
 3332POPC   C2B44912  21.806  33.443   6.596
 3332POPC   C3B44913  21.789  33.524   7.030
 3332POPC   C4B44914  21.441  33.513   7.258
 3333POPC   NC344915  33.420   8.476   5.393
 3333POPC   PO444916  33.971   8.165   5.374
 3333POPC   GL144917  33.811   8.236   5.766
 3333POPC   GL244918  33.860   8.564   5.717
 3333POPC   C1A44919  33.938   8.049   6.162
 3333POPC   D2A44920  33.712   7.927   6.561
 3333POPC   C3A44921  33.742   8.164   6.951
 3333POPC   C4A44922  33.754   7.988   7.335
 3333POPC   C1B44923  34.032   8.583   6.132
 3333POPC   C2B44924  34.055   8.352   6.537
 3333POPC   C3B44925  34.219   8.367   6.913
 3333POPC   C4B44926  34.071   8.459   7.286
 3334POPC   NC344927  21.370   4.951   5.491
 3334POPC   PO444928  21.568   5.562   5.635
 3334POPC   GL144929  21.704   5.131   5.838
 3334POPC   GL244930  21.974   4.843   5.816
 3334POPC   C1A44931  21.422   4.973   6.173
 3334POPC   D2A44932  21.174   5.170   6.501
 3334POPC   C3A44933  21.250   5.131   6.939
 3334POPC   C4A44934  21.595   5.243   7.164
 3334POPC   C1B44935  21.855   4.734   6.244
 3334POPC   C2B44936  21.659   4.882   6.639
 3334POPC   C3B44937  21.603   4.747   7.055
 3334POPC   C4B44938  21.879   4.752   7.408
 3335POPC   NC344939   8.282   8.103   5.297
 3335POPC   PO444940   7.688   8.442   5.490
 3335POPC   GL144941   8.046   8.283   5.740
 3335POPC   GL244942   7.989   8.574   5.962
 3335POPC   C1A44943   8.330   7.986   5.987
 3335POPC   D2A44944   8.459   7.788   6.411
 3335POPC   C3A44945   8.354   8.056   6.792
 3335POPC   C4A44946   8.361   8.141   7.232
 3335POPC   C1B44947   7.874   8.217   6.227
 3335POPC   C2B44948   7.822   8.193   6.674
 3335POPC   C3B44949   7.880   8.210   7.102
 3335POPC   C4B44950   7.761   8.148   7.523
 3336POPC   NC344951  36.113  36.609   5.320
 3336POPC   PO444952  36.644  36.927   5.676
 3336POPC   GL144953  36.315  37.111   5.905
 3336POPC   GL244954  36.032  37.106   5.661
 3336POPC   C1A44955  36.279  37.024   6.361
 3336POPC   D2A44956  36.620  37.124   6.654
 3336POPC   C3A44957  36.505  37.016   7.041
 3336POPC   C4A44958  36.164  36.878   7.268
 3336POPC   C1B44959  35.854  36.945   6.035
 3336POPC   C2B44960  35.761  37.015   6.475
 3336POPC   C3B44961  35.934  37.120   6.855
 3336POPC   C4B44962  35.730  37.153   7.251
 3337POPC   NC344963  27.125  13.024   5.388
 3337POPC   PO444964  26.490  12.920   5.276
 3337POPC   GL144965  26.722  12.912   5.680
 3337POPC   GL244966  26.701  13.269   5.699
 3337POPC   C1A44967  26.980  12.841   6.107
 3337POPC   D2A44968  27.095  12.964   6.560
 3337POPC   C3A44969  26.990  12.799   7.000
 3337POPC   C4A44970  26.819  12.704   7.431
 3337POPC   C1B44971  26.582  13.141   6.113
 3337POPC   C2B44972  26.557  13.002   6.547
 3337POPC   C3B44973  26.525  13.000   6.991
 3337POPC   C4B44974  26.681  13.189   7.341
 3338POPC   NC344975  19.263  22.661   5.616
 3338POPC   PO444976  18.814  23.023   5.237
 3338POPC   GL144977  18.909  23.001   5.737
 3338POPC   GL244978  18.928  22.695   5.989
 3338POPC   C1A44979  19.113  23.134   6.153
 3338POPC   D2A44980  19.005  23.075   6.615
 3338POPC   C3A44981  19.059  23.049   7.075
 3338POPC   C4A44982  18.804  23.110   7.485
 3338POPC   C1B44983  19.291  22.706   6.326
 3338POPC   C2B44984  19.458  22.840   6.744
 3338POPC   C3B44985  19.308  22.602   7.097
 3338POPC   C4B44986  19.125  22.701   7.477
 3339POPC   NC344987  30.319  31.933   5.320
 3339POPC   PO444988  29.676  32.285   5.417
 3339POPC   GL144989  29.985  32.225   5.699
 3339POPC   GL244990  29.998  31.855   5.726
 3339POPC   C1A44991  30.019  32.422   6.113
 3339POPC   D2A44992  29.837  32.357   6.502
 3339POPC   C3A44993  29.961  32.449   6.902
 3339POPC   C4A44994  29.897  32.691   7.277
 3339POPC   C1B44995  29.725  31.974   6.087
 3339POPC   C2B44996  29.714  31.879   6.516
 3339POPC   C3B44997  29.592  32.071   6.919
 3339POPC   C4B44998  29.883  32.083   7.267
 3340POPC   NC344999  31.924  27.661   5.484
 3340POPC   PO445000  31.532  27.151   5.243
 3340POPC   GL145001  31.532  27.374   5.719
 3340POPC   GL245002  31.644  27.707   5.884
 3340POPC   C1A45003  31.492  27.388   6.226
 3340POPC   D2A45004  31.241  27.561   6.558
 3340POPC   C3A45005  31.148  27.513   6.977
 3340POPC   C4A45006  31.203  27.330   7.355
 3340POPC   C1B45007  31.907  27.775   6.219
 3340POPC   C2B45008  31.661  27.861   6.558
 3340POPC   C3B45009  31.609  27.713   6.947
 3340POPC   C4B45010  31.611  27.669   7.355
 3341POPC   NC345011  38.289   9.768   5.547
 3341POPC   PO445012  38.888   9.527   5.437
 3341POPC   GL145013  38.770   9.578   5.844
 3341POPC   GL245014  38.687   9.921   5.846
 3341POPC   C1A45015  38.516   9.649   6.236
 3341POPC   D2A45016  38.417   9.907   6.610
 3341POPC   C3A45017  38.464   9.641   6.985
 3341POPC   C4A45018  38.229   9.828   7.316
 3341POPC   C1B45019  38.826  10.092   6.254
 3341POPC   C2B45020  38.915   9.980   6.708
 3341POPC   C3B45021  38.683  10.078   7.115
 3341POPC   C4B45022  38.665   9.927   7.577
 3342POPC   NC345023  23.130  12.425   5.342
 3342POPC   PO445024  22.469  12.112   5.398
 3342POPC   GL145025  22.790  12.152   5.713
 3342POPC   GL245026  22.869  11.838   5.836
 3342POPC   C1A45027  22.868  12.241   6.178
 3342POPC   D2A45028  22.724  12.070   6.618
 3342POPC   C3A45029  22.943  12.208   7.002
 3342POPC   C4A45030  23.077  12.408   7.364
 3342POPC   C1B45031  22.934  11.748   6.231
 3342POPC   C2B45032  23.142  11.732   6.582
 3342POPC   C3B45033  22.996  11.701   6.950
 3342POPC   C4B45034  22.992  11.588   7.343
 3343POPC   NC345035  22.000   5.685   5.488
 3343POPC   PO445036  22.129   5.029   5.288
 3343POPC   GL145037  22.244   5.260   5.691
 3343POPC   GL245038  22.471   5.543   5.642
 3343POPC   C1A45039  22.093   5.218   6.155
 3343POPC   D2A45040  21.963   5.300   6.590
 3343POPC   C3A45041  22.044   5.049   6.984
 3343POPC   C4A45042  22.103   5.206   7.428
 3343POPC   C1B45043  22.488   5.556   6.086
 3343POPC   C2B45044  22.431   5.689   6.521
 3343POPC   C3B45045  22.335   5.472   6.907
 3343POPC   C4B45046  22.533   5.507   7.281
 3344POPC   NC345047  28.582  34.024   5.521
 3344POPC   PO445048  28.089  33.497   5.363
 3344POPC   GL145049  28.149  33.776   5.722
 3344POPC   GL245050  28.482  33.702   5.917
 3344POPC   C1A45051  28.104  33.946   6.159
 3344POPC   D2A45052  28.187  33.648   6.508
 3344POPC   C3A45053  28.399  33.813   6.856
 3344POPC   C4A45054  28.262  34.139   7.122
 3344POPC   C1B45055  28.813  33.539   6.206
 3344POPC   C2B45056  28.943  33.660   6.619
 3344POPC   C3B45057  28.829  33.582   7.038
 3344POPC   C4B45058  28.556  33.757   7.370
 3345POPC   NC345059  22.331   3.663   5.431
 3345POPC   PO445060  21.905   3.199   5.472
 3345POPC   GL145061  22.294   3.279   5.807
 3345POPC   GL245062  22.498   3.591   5.897
 3345POPC   C1A45063  22.479   3.308   6.283
 3345POPC   D2A45064  22.439   3.305   6.731
 3345POPC   C3A45065  22.115   3.578   6.885
 3345POPC   C4A45066  21.855   3.535   7.249
 3345POPC   C1B45067  22.372   3.842   6.262
 3345POPC   C2B45068  22.528   3.854   6.684
 3345POPC   C3B45069  22.526   3.738   7.142
 3345POPC   C4B45070  22.418   3.319   7.240
 3346POPC   NC345071   0.031   5.334   5.040
 3346POPC   PO445072  44.481   5.038   5.367
 3346POPC   GL145073  44.581   5.006   5.809
 3346POPC   GL245074  44.909   5.112   5.863
 3346POPC   C1A45075  44.400   4.953   6.231
 3346POPC   D2A45076  44.520   5.037   6.655
 3346POPC   C3A45077  44.516   4.804   7.020
 3346POPC   C4A45078  44.290   4.842   7.402
 3346POPC   C1B45079  44.930   4.973   6.292
 3346POPC   C2B45080  44.941   4.752   6.695
 3346POPC   C3B45081   0.007   4.904   7.109
 3346POPC   C4B45082  44.713   5.133   7.384
 3347POPC   NC345083  37.609  38.504   5.155
 3347POPC   PO445084  38.046  38.123   5.544
 3347POPC   GL145085  37.710  38.281   5.721
 3347POPC   GL245086  37.626  38.616   5.659
 3347POPC   C1A45087  37.682  38.206   6.144
 3347POPC   D2A45088  37.543  38.339   6.537
 3347POPC   C3A45089  37.780  38.534   6.884
 3347POPC   C4A45090  37.779  38.280   7.242
 3347POPC   C1B45091  37.596  38.745   6.116
 3347POPC   C2B45092  37.410  38.823   6.541
 3347POPC   C3B45093  37.472  38.936   6.963
 3347POPC   C4B45094  37.456  38.696   7.327
 3348POPC   NC345095  33.892  31.653   5.504
 3348POPC   PO445096  33.447  31.185   5.582
 3348POPC   GL145097  33.607  31.290   5.948
 3348POPC   GL245098  33.732  31.617   5.971
 3348POPC   C1A45099  33.648  31.301   6.375
 3348POPC   D2A45100  33.834  31.649   6.568
 3348POPC   C3A45101  33.768  31.503   7.015
 3348POPC   C4A45102  33.458  31.350   7.297
 3348POPC   C1B45103  34.098  31.796   6.148
 3348POPC   C2B45104  34.355  31.702   6.506
 3348POPC   C3B45105  34.235  31.668   6.949
 3348POPC   C4B45106  34.128  31.592   7.413
 3349POPC   NC345107  12.130  29.948   5.345
 3349POPC   PO445108  12.424  29.409   5.465
 3349POPC   GL145109  12.193  29.622   5.798
 3349POPC   GL245110  12.212  29.998   5.838
 3349POPC   C1A45111  12.040  29.728   6.224
 3349POPC   D2A45112  11.843  29.558   6.567
 3349POPC   C3A45113  12.073  29.705   6.912
 3349POPC   C4A45114  12.191  29.743   7.336
 3349POPC   C1B45115  11.868  30.179   6.125
 3349POPC   C2B45116  11.774  30.063   6.585
 3349POPC   C3B45117  11.864  30.134   7.068
 3349POPC   C4B45118  12.260  30.241   7.343
 3350POPC   NC345119  44.392  28.376   5.478
 3350POPC   PO445120   0.054  28.040   5.523
 3350POPC   GL145121  44.909  28.412   5.763
 3350POPC   GL245122  44.578  28.434   5.949
 3350POPC   C1A45123   0.038  28.514   6.187
 3350POPC   D2A45124  44.883  28.408   6.610
 3350POPC   C3A45125  44.836  28.716   6.941
 3350POPC   C4A45126   0.028  28.657   7.341
 3350POPC   C1B45127  44.309  28.127   6.152
 3350POPC   C2B45128  44.145  28.093   6.549
 3350POPC   C3B45129  44.330  28.250   6.873
 3350POPC   C4B45130  44.490  28.413   7.204
 3351POPC   NC345131  38.925   4.115   5.634
 3351POPC   PO445132  38.416   4.498   5.674
 3351POPC   GL145133  38.388   4.191   5.978
 3351POPC   GL245134  38.722   4.221   6.139
 3351POPC   C1A45135  38.255   4.310   6.385
 3351POPC   D2A45136  38.468   4.462   6.746
 3351POPC   C3A45137  38.344   4.238   7.090
 3351POPC   C4A45138  38.549   4.030   7.420
 3351POPC   C1B45139  38.618   4.679   6.288
 3351POPC   C2B45140  38.396   4.947   6.611
 3351POPC   C3B45141  38.450   4.860   7.072
 3351POPC   C4B45142  38.696   4.561   7.293
 3352POPC   NC345143  16.836  29.644   5.488
 3352POPC   PO445144  16.578  28.976   5.313
 3352POPC   GL145145  16.809  29.123   5.730
 3352POPC   GL245146  17.018  29.410   5.884
 3352POPC   C1A45147  16.703  29.160   6.191
 3352POPC   D2A45148  16.621  29.378   6.579
 3352POPC   C3A45149  16.701  29.092   6.879
 3352POPC   C4A45150  16.571  28.953   7.278
 3352POPC   C1B45151  17.026  29.561   6.304
 3352POPC   C2B45152  17.145  29.396   6.695
 3352POPC   C3B45153  16.936  29.536   7.044
 3352POPC   C4B45154  16.479  29.479   7.111
 3353POPC   NC345155   9.833   6.607   5.435
 3353POPC   PO445156   9.432   7.224   5.541
 3353POPC   GL145157   9.641   6.982   5.835
 3353POPC   GL245158   9.990   6.847   5.887
 3353POPC   C1A45159   9.582   6.792   6.229
 3353POPC   D2A45160   9.605   6.544   6.577
 3353POPC   C3A45161   9.436   6.667   6.956
 3353POPC   C4A45162   9.505   6.588   7.372
 3353POPC   C1B45163   9.987   6.475   6.186
 3353POPC   C2B45164  10.001   6.232   6.603
 3353POPC   C3B45165   9.998   6.509   6.984
 3353POPC   C4B45166  10.289   6.832   7.109
 3354POPC   NC345167  35.500  41.034   5.660
 3354POPC   PO445168  35.361  40.405   5.422
 3354POPC   GL145169  35.265  40.577   5.803
 3354POPC   GL245170  35.013  40.833   5.766
 3354POPC   C1A45171  35.383  40.589   6.205
 3354POPC   D2A45172  35.378  40.935   6.475
 3354POPC   C3A45173  35.491  40.814   6.880
 3354POPC   C4A45174  35.251  40.694   7.204
 3354POPC   C1B45175  34.907  40.865   6.204
 3354POPC   C2B45176  34.882  41.062   6.621
 3354POPC   C3B45177  35.072  41.170   7.064
 3354POPC   C4B45178  35.089  41.040   7.554
 3355POPC   NC345179  20.762   8.783   5.459
 3355POPC   PO445180  20.276   9.293   5.322
 3355POPC   GL145181  20.284   9.093   5.725
 3355POPC   GL245182  20.585   9.172   5.784
 3355POPC   C1A45183  20.401   8.726   6.007
 3355POPC   D2A45184  20.559   8.708   6.417
 3355POPC   C3A45185  20.634   8.686   6.848
 3355POPC   C4A45186  20.494   8.660   7.274
 3355POPC   C1B45187  20.528   9.197   6.226
 3355POPC   C2B45188  20.736   9.191   6.638
 3355POPC   C3B45189  20.598   9.135   7.082
 3355POPC   C4B45190  20.794   9.205   7.490
 3356POPC   NC345191  43.520  16.329   5.320
 3356POPC   PO445192  43.364  15.647   5.425
 3356POPC   GL145193  43.212  15.931   5.732
 3356POPC   GL245194  43.562  16.034   5.743
 3356POPC   C1A45195  43.024  15.852   6.171
 3356POPC   D2A45196  43.071  16.079   6.585
 3356POPC   C3A45197  42.941  16.145   7.045
 3356POPC   C4A45198  43.206  16.074   7.395
 3356POPC   C1B45199  43.515  15.740   6.099
 3356POPC   C2B45200  43.331  15.591   6.504
 3356POPC   C3B45201  43.275  15.761   6.922
 3356POPC   C4B45202  43.329  15.575   7.297
 3357POPC   NC345203  42.615   3.624   5.362
 3357POPC   PO445204  42.417   2.997   5.512
 3357POPC   GL145205  42.353   3.372   5.745
 3357POPC   GL245206  42.116   3.235   5.899
 3357POPC   C1A45207  42.340   3.690   6.100
 3357POPC   D2A45208  42.182   3.770   6.537
 3357POPC   C3A45209  42.353   3.883   6.948
 3357POPC   C4A45210  42.476   3.797   7.377
 3357POPC   C1B45211  42.030   3.319   6.324
 3357POPC   C2B45212  42.197   3.304   6.745
 3357POPC   C3B45213  42.168   3.450   7.147
 3357POPC   C4B45214  42.093   3.425   7.604
 3358POPC   NC345215  14.004  42.049   5.370
 3358POPC   PO445216  13.617  42.578   5.406
 3358POPC   GL145217  13.506  42.320   5.804
 3358POPC   GL245218  13.843  42.369   5.870
 3358POPC   C1A45219  13.372  42.286   6.296
 3358POPC   D2A45220  13.556  42.290   6.751
 3358POPC   C3A45221  13.356  42.181   7.165
 3358POPC   C4A45222  13.422  42.258   7.652
 3358POPC   C1B45223  13.840  42.417   6.303
 3358POPC   C2B45224  14.033  42.171   6.604
 3358POPC   C3B45225  13.925  42.015   7.011
 3358POPC   C4B45226  13.832  42.264   7.334
 3359POPC   NC345227   2.064   8.919   5.365
 3359POPC   PO445228   1.694   8.437   5.481
 3359POPC   GL145229   1.785   8.814   5.790
 3359POPC   GL245230   2.149   8.880   5.867
 3359POPC   C1A45231   1.832   9.013   6.231
 3359POPC   D2A45232   1.980   8.819   6.631
 3359POPC   C3A45233   2.073   9.102   6.967
 3359POPC   C4A45234   1.725   9.139   7.263
 3359POPC   C1B45235   2.179   8.570   6.220
 3359POPC   C2B45236   2.377   8.440   6.633
 3359POPC   C3B45237   2.257   8.622   7.019
 3359POPC   C4B45238   1.873   8.671   7.192
 3360POPC   NC345239  28.651  13.139   5.307
 3360POPC   PO445240  28.862  13.816   5.333
 3360POPC   GL145241  29.023  13.824   5.748
 3360POPC   GL245242  29.152  13.480   5.714
 3360POPC   C1A45243  29.119  13.954   6.174
 3360POPC   D2A45244  29.286  14.001   6.591
 3360POPC   C3A45245  29.152  13.726   6.872
 3360POPC   C4A45246  29.241  13.650   7.260
 3360POPC   C1B45247  28.924  13.380   6.099
 3360POPC   C2B45248  28.912  13.392   6.552
 3360POPC   C3B45249  28.723  13.454   6.983
 3360POPC   C4B45250  28.919  13.277   7.368
 3361POPC   NC345251   1.428  40.773   5.520
 3361POPC   PO445252   1.886  40.917   5.080
 3361POPC   GL145253   1.944  40.798   5.663
 3361POPC   GL245254   1.714  40.707   5.898
 3361POPC   C1A45255   2.109  40.926   6.127
 3361POPC   D2A45256   2.199  40.656   6.529
 3361POPC   C3A45257   2.042  40.761   6.959
 3361POPC   C4A45258   2.139  40.719   7.395
 3361POPC   C1B45259   1.826  40.512   6.217
 3361POPC   C2B45260   1.685  40.601   6.609
 3361POPC   C3B45261   1.553  40.535   7.027
 3361POPC   C4B45262   1.654  40.851   7.302
 3362POPC   NC345263  27.786   0.910   5.446
 3362POPC   PO445264  27.580   1.541   5.539
 3362POPC   GL145265  27.572   1.285   5.860
 3362POPC   GL245266  27.840   1.061   5.918
 3362POPC   C1A45267  27.613   1.350   6.277
 3362POPC   D2A45268  27.912   1.352   6.559
 3362POPC   C3A45269  27.663   1.426   6.873
 3362POPC   C4A45270  27.504   1.353   7.237
 3362POPC   C1B45271  27.871   0.814   6.281
 3362POPC   C2B45272  27.801   0.737   6.695
 3362POPC   C3B45273  27.643   0.841   7.087
 3362POPC   C4B45274  27.872   0.734   7.423
 3363POPC   NC345275   3.537   6.255   5.473
 3363POPC   PO445276   3.680   5.536   5.372
 3363POPC   GL145277   3.782   5.632   5.811
 3363POPC   GL245278   3.467   5.798   5.843
 3363POPC   C1A45279   3.695   5.582   6.262
 3363POPC   D2A45280   3.434   5.797   6.580
 3363POPC   C3A45281   3.508   5.665   7.004
 3363POPC   C4A45282   3.811   5.756   7.320
 3363POPC   C1B45283   3.716   6.087   6.109
 3363POPC   C2B45284   3.826   6.153   6.541
 3363POPC   C3B45285   3.666   6.169   6.966
 3363POPC   C4B45286   3.793   6.369   7.359
 3364POPC   NC345287   7.618   7.987   5.382
 3364POPC   PO445288   7.048   8.360   5.255
 3364POPC   GL145289   7.198   8.438   5.674
 3364POPC   GL245290   7.297   8.123   5.739
 3364POPC   C1A45291   7.392   8.459   6.105
 3364POPC   D2A45292   7.158   8.603   6.481
 3364POPC   C3A45293   7.329   8.426   6.832
 3364POPC   C4A45294   7.378   8.262   7.207
 3364POPC   C1B45295   7.025   8.110   6.107
 3364POPC   C2B45296   6.853   8.155   6.495
 3364POPC   C3B45297   7.003   8.012   6.868
 3364POPC   C4B45298   7.062   7.815   7.231
 3365POPC   NC345299  34.164  14.553   5.357
 3365POPC   PO445300  33.616  14.052   5.393
 3365POPC   GL145301  33.791  14.359   5.650
 3365POPC   GL245302  34.031  14.122   5.752
 3365POPC   C1A45303  33.906  14.546   6.049
 3365POPC   D2A45304  33.726  14.568   6.452
 3365POPC   C3A45305  33.879  14.665   6.867
 3365POPC   C4A45306  33.626  14.640   7.237
 3365POPC   C1B45307  33.937  13.978   6.170
 3365POPC   C2B45308  33.696  14.065   6.528
 3365POPC   C3B45309  33.709  14.146   6.948
 3365POPC   C4B45310  34.025  14.299   7.221
 3366POPC   NC345311  27.967  41.263   5.733
 3366POPC   PO445312  28.124  41.726   5.262
 3366POPC   GL145313  28.175  41.771   5.756
 3366POPC   GL245314  28.352  42.075   5.870
 3366POPC   C1A45315  28.413  41.594   6.182
 3366POPC   D2A45316  28.328  41.354   6.567
 3366POPC   C3A45317  28.418  41.498   6.983
 3366POPC   C4A45318  28.517  41.392   7.397
 3366POPC   C1B45319  28.093  41.971   6.232
 3366POPC   C2B45320  28.166  41.844   6.673
 3366POPC   C3B45321  28.021  41.832   7.106
 3366POPC   C4B45322  28.068  41.922   7.544
 3367POPC   NC345323  37.864   7.149   5.348
 3367POPC   PO445324  37.389   7.616   5.385
 3367POPC   GL145325  37.534   7.517   5.797
 3367POPC   GL245326  37.889   7.426   5.780
 3367POPC   C1A45327  37.475   7.421   6.236
 3367POPC   D2A45328  37.471   7.238   6.665
 3367POPC   C3A45329  37.542   7.505   7.019
 3367POPC   C4A45330  37.641   7.418   7.474
 3367POPC   C1B45331  38.027   7.214   6.137
 3367POPC   C2B45332  38.175   7.114   6.535
 3367POPC   C3B45333  38.014   7.314   6.881
 3367POPC   C4B45334  38.090   7.258   7.280
 3368POPC   NC345335  43.527   2.658   5.057
 3368POPC   PO445336  43.147   2.779   5.566
 3368POPC   GL145337  43.237   3.013   5.925
 3368POPC   GL245338  42.938   2.863   6.029
 3368POPC   C1A45339  43.323   2.918   6.341
 3368POPC   D2A45340  43.263   2.556   6.600
 3368POPC   C3A45341  43.381   2.733   7.001
 3368POPC   C4A45342  43.221   3.144   7.136
 3368POPC   C1B45343  42.799   2.789   6.403
 3368POPC   C2B45344  42.592   3.024   6.646
 3368POPC   C3B45345  42.502   2.925   7.045
 3368POPC   C4B45346  42.871   2.779   7.229
 3369POPC   NC345347   4.577  28.113   5.206
 3369POPC   PO445348   4.641  28.713   5.569
 3369POPC   GL145349   4.225  28.598   5.778
 3369POPC   GL245350   4.221  28.251   5.906
 3369POPC   C1A45351   3.982  28.603   6.197
 3369POPC   D2A45352   4.189  28.577   6.599
 3369POPC   C3A45353   4.223  28.518   7.056
 3369POPC   C4A45354   4.613  28.644   7.265
 3369POPC   C1B45355   4.066  28.114   6.332
 3369POPC   C2B45356   4.134  28.066   6.786
 3369POPC   C3B45357   4.456  28.075   7.114
 3369POPC   C4B45358   4.702  27.789   7.348
 3370POPC   NC345359  35.867  15.820   5.315
 3370POPC   PO445360  36.269  15.514   5.690
 3370POPC   GL145361  35.893  15.720   5.841
 3370POPC   GL245362  35.968  16.049   5.838
 3370POPC   C1A45363  35.718  15.788   6.262
 3370POPC   D2A45364  35.757  15.871   6.717
 3370POPC   C3A45365  36.042  15.728   7.038
 3370POPC   C4A45366  36.076  15.744   7.493
 3370POPC   C1B45367  36.178  16.013   6.259
 3370POPC   C2B45368  36.206  16.117   6.713
 3370POPC   C3B45369  36.045  16.250   7.137
 3370POPC   C4B45370  36.152  16.259   7.584
 3371POPC   NC345371  10.839  18.338   5.591
 3371POPC   PO445372  10.166  18.209   5.498
 3371POPC   GL145373  10.332  18.285   5.881
 3371POPC   GL245374  10.562  18.021   6.004
 3371POPC   C1A45375  10.124  18.265   6.262
 3371POPC   D2A45376  10.324  18.022   6.558
 3371POPC   C3A45377  10.413  18.307   6.850
 3371POPC   C4A45378  10.383  18.308   7.262
 3371POPC   C1B45379  10.660  18.353   6.308
 3371POPC   C2B45380  10.868  18.488   6.689
 3371POPC   C3B45381  10.771  18.606   7.123
 3371POPC   C4B45382  10.768  18.557   7.599
 3372POPC   NC345383  35.583  10.871   5.442
 3372POPC   PO445384  35.687  10.177   5.442
 3372POPC   GL145385  35.615  10.469   5.800
 3372POPC   GL245386  35.256  10.552   5.771
 3372POPC   C1A45387  35.474  10.381   6.247
 3372POPC   D2A45388  35.500  10.064   6.606
 3372POPC   C3A45389  35.652  10.243   7.026
 3372POPC   C4A45390  35.474  10.422   7.425
 3372POPC   C1B45391  35.034  10.667   6.172
 3372POPC   C2B45392  34.998  10.508   6.609
 3372POPC   C3B45393  35.138  10.536   7.054
 3372POPC   C4B45394  35.051  10.699   7.483
 3373POPC   NC345395   6.058  15.867   5.425
 3373POPC   PO445396   5.560  16.305   5.448
 3373POPC   GL145397   5.675  15.965   5.772
 3373POPC   GL245398   5.967  15.789   5.887
 3373POPC   C1A45399   5.562  15.716   6.163
 3373POPC   D2A45400   5.611  15.521   6.566
 3373POPC   C3A45401   5.587  15.837   6.910
 3373POPC   C4A45402   5.664  15.842   7.346
 3373POPC   C1B45403   6.082  15.666   6.259
 3373POPC   C2B45404   6.043  15.819   6.630
 3373POPC   C3B45405   6.083  15.738   7.022
 3373POPC   C4B45406   6.204  16.073   7.266
 3374POPC   NC345407   9.137  22.010   5.381
 3374POPC   PO445408   8.657  21.692   5.559
 3374POPC   GL145409   8.870  21.928   5.871
 3374POPC   GL245410   9.199  21.851   5.903
 3374POPC   C1A45411   8.927  21.786   6.326
 3374POPC   D2A45412   8.874  21.818   6.750
 3374POPC   C3A45413   9.197  22.001   6.984
 3374POPC   C4A45414   9.172  22.042   7.407
 3374POPC   C1B45415   9.382  22.028   6.336
 3374POPC   C2B45416   9.443  22.359   6.689
 3374POPC   C3B45417   9.283  22.499   7.148
 3374POPC   C4B45418   9.069  22.511   7.585
 3375POPC   NC345419  28.992  15.452   5.350
 3375POPC   PO445420  29.323  16.050   5.088
 3375POPC   GL145421  29.082  15.972   5.512
 3375POPC   GL245422  29.239  15.699   5.710
 3375POPC   C1A45423  28.911  16.043   5.972
 3375POPC   D2A45424  28.929  15.937   6.452
 3375POPC   C3A45425  28.905  16.174   6.864
 3375POPC   C4A45426  29.186  16.214   7.234
 3375POPC   C1B45427  29.059  15.543   6.086
 3375POPC   C2B45428  29.227  15.487   6.485
 3375POPC   C3B45429  29.148  15.683   6.885
 3375POPC   C4B45430  29.001  15.598   7.282
 3376POPC   NC345431   1.228  41.768   5.328
 3376POPC   PO445432   1.538  41.209   5.447
 3376POPC   GL145433   1.413  41.530   5.735
 3376POPC   GL245434   1.633  41.824   5.640
 3376POPC   C1A45435   1.208  41.508   6.137
 3376POPC   D2A45436   0.943  41.702   6.474
 3376POPC   C3A45437   0.967  41.468   6.875
 3376POPC   C4A45438   1.114  41.578   7.295
 3376POPC   C1B45439   1.653  41.859   6.094
 3376POPC   C2B45440   1.474  41.757   6.493
 3376POPC   C3B45441   1.328  41.842   6.890
 3376POPC   C4B45442   1.591  41.714   7.204
 3377POPC   NC345443  23.203  25.482   5.399
 3377POPC   PO445444  23.800  25.460   5.249
 3377POPC   GL145445  23.612  25.312   5.695
 3377POPC   GL245446  23.758  25.007   5.845
 3377POPC   C1A45447  23.585  25.383   6.180
 3377POPC   D2A45448  23.820  25.434   6.617
 3377POPC   C3A45449  23.657  25.332   7.057
 3377POPC   C4A45450  23.470  24.952   7.242
 3377POPC   C1B45451  23.912  25.003   6.279
 3377POPC   C2B45452  24.015  24.848   6.682
 3377POPC   C3B45453  24.049  24.994   7.116
 3377POPC   C4B45454  23.862  25.158   7.515
 3378POPC   NC345455  38.229  33.393   5.437
 3378POPC   PO445456  38.612  32.882   5.184
 3378POPC   GL145457  38.619  32.911   5.666
 3378POPC   GL245458  38.374  33.117   5.835
 3378POPC   C1A45459  38.645  32.853   6.152
 3378POPC   D2A45460  38.789  32.968   6.573
 3378POPC   C3A45461  38.639  32.832   6.988
 3378POPC   C4A45462  38.707  33.023   7.386
 3378POPC   C1B45463  38.140  33.284   6.204
 3378POPC   C2B45464  38.286  33.120   6.626
 3378POPC   C3B45465  38.184  33.078   7.067
 3378POPC   C4B45466  37.834  33.281   7.249
 3379POPC   NC345467  11.381  35.931   5.421
 3379POPC   PO445468  11.447  36.534   5.335
 3379POPC   GL145469  11.437  36.504   5.820
 3379POPC   GL245470  11.410  36.151   5.878
 3379POPC   C1A45471  11.252  36.441   6.287
 3379POPC   D2A45472  11.111  36.202   6.689
 3379POPC   C3A45473  11.275  36.378   7.075
 3379POPC   C4A45474  11.458  36.479   7.488
 3379POPC   C1B45475  11.225  35.936   6.248
 3379POPC   C2B45476  11.248  35.706   6.646
 3379POPC   C3B45477  11.223  35.840   7.079
 3379POPC   C4B45478  10.999  35.613   7.406
 3380POPC   NC345479  35.637  24.816   5.493
 3380POPC   PO445480  36.294  24.392   5.427
 3380POPC   GL145481  36.168  24.282   5.823
 3380POPC   GL245482  35.826  24.382   5.817
 3380POPC   C1A45483  36.197  24.451   6.222
 3380POPC   D2A45484  36.440  24.500   6.583
 3380POPC   C3A45485  36.275  24.409   6.978
 3380POPC   C4A45486  36.224  24.742   7.247
 3380POPC   C1B45487  35.764  24.150   6.218
 3380POPC   C2B45488  36.006  24.147   6.591
 3380POPC   C3B45489  35.782  24.211   6.945
 3380POPC   C4B45490  35.873  24.399   7.356
 3381POPC   NC345491   9.352  36.860   5.459
 3381POPC   PO445492   8.643  37.122   5.430
 3381POPC   GL145493   8.814  37.148   5.817
 3381POPC   GL245494   9.014  36.868   5.848
 3381POPC   C1A45495   8.877  37.167   6.261
 3381POPC   D2A45496   8.761  37.418   6.619
 3381POPC   C3A45497   8.800  37.191   7.006
 3381POPC   C4A45498   9.042  37.135   7.367
 3381POPC   C1B45499   9.126  36.694   6.266
 3381POPC   C2B45500   9.008  36.835   6.684
 3381POPC   C3B45501   9.160  36.717   7.098
 3381POPC   C4B45502   9.209  36.355   7.378
 3382POPC   NC345503   0.772  21.671   5.378
 3382POPC   PO445504   0.338  22.204   5.308
 3382POPC   GL145505   0.357  22.314   5.761
 3382POPC   GL245506   0.714  22.330   5.847
 3382POPC   C1A45507   0.369  22.069   6.169
 3382POPC   D2A45508   0.485  21.866   6.570
 3382POPC   C3A45509   0.492  22.137   6.934
 3382POPC   C4A45510   0.192  22.243   7.222
 3382POPC   C1B45511   0.518  22.558   6.206
 3382POPC   C2B45512   0.416  22.621   6.643
 3382POPC   C3B45513   0.658  22.720   7.036
 3382POPC   C4B45514   0.794  22.489   7.405
 3383POPC   NC345515  16.849  41.100   5.545
 3383POPC   PO445516  17.202  40.593   5.540
 3383POPC   GL145517  16.971  40.763   5.929
 3383POPC   GL245518  16.731  41.052   6.022
 3383POPC   C1A45519  16.933  40.705   6.361
 3383POPC   D2A45520  17.105  40.444   6.655
 3383POPC   C3A45521  17.150  40.608   7.056
 3383POPC   C4A45522  16.882  40.552   7.434
 3383POPC   C1B45523  17.021  41.212   6.317
 3383POPC   C2B45524  16.986  41.121   6.765
 3383POPC   C3B45525  16.776  40.961   7.135
 3383POPC   C4B45526  16.871  41.070   7.555
 3384POPC   NC345527  36.477  27.270   5.522
 3384POPC   PO445528  36.647  26.691   5.215
 3384POPC   GL145529  36.653  26.797   5.698
 3384POPC   GL245530  36.947  27.036   5.787
 3384POPC   C1A45531  36.732  26.678   6.174
 3384POPC   D2A45532  37.004  26.655   6.580
 3384POPC   C3A45533  36.761  26.594   6.994
 3384POPC   C4A45534  36.879  26.471   7.466
 3384POPC   C1B45535  37.064  27.065   6.242
 3384POPC   C2B45536  36.824  27.120   6.641
 3384POPC   C3B45537  36.988  27.036   7.025
 3384POPC   C4B45538  36.889  26.986   7.491
 3385POPC   NC345539   6.859  15.405   5.774
 3385POPC   PO445540   6.435  15.077   5.318
 3385POPC   GL145541   6.576  14.958   5.768
 3385POPC   GL245542   6.467  15.189   6.012
 3385POPC   C1A45543   6.804  14.865   6.211
 3385POPC   D2A45544   6.962  14.913   6.680
 3385POPC   C3A45545   6.643  14.981   7.015
 3385POPC   C4A45546   6.351  15.289   7.228
 3385POPC   C1B45547   6.480  15.373   6.402
 3385POPC   C2B45548   6.529  15.490   6.799
 3385POPC   C3B45549   6.891  15.428   7.066
 3385POPC   C4B45550   7.008  15.367   7.486
 3386POPC   NC345551  13.049  13.054   5.422
 3386POPC   PO445552  12.588  12.559   5.535
 3386POPC   GL145553  12.691  12.912   5.777
 3386POPC   GL245554  13.003  12.745   5.818
 3386POPC   C1A45555  12.695  13.176   6.158
 3386POPC   D2A45556  12.994  13.194   6.504
 3386POPC   C3A45557  13.020  12.879   6.830
 3386POPC   C4A45558  12.730  12.724   7.124
 3386POPC   C1B45559  12.937  12.725   6.225
 3386POPC   C2B45560  13.247  12.579   6.479
 3386POPC   C3B45561  13.190  12.380   6.864
 3386POPC   C4B45562  13.189  12.581   7.280
 3387POPC   NC345563  34.787  44.631   5.390
 3387POPC   PO445564  34.200  44.857   5.288
 3387POPC   GL145565  34.334  44.579   5.660
 3387POPC   GL245566  34.113  44.497   5.935
 3387POPC   C1A45567  34.608  44.401   6.028
 3387POPC   D2A45568  34.442  44.236   6.423
 3387POPC   C3A45569  34.443  44.437   6.834
 3387POPC   C4A45570  34.723  44.545   7.192
 3387POPC   C1B45571  34.296  44.729   6.291
 3387POPC   C2B45572  34.418  44.934   6.678
 3387POPC   C3B45573  34.450  44.974   7.126
 3387POPC   C4B45574  34.384  44.722   7.525
 3388POPC   NC345575  21.493   3.258   5.273
 3388POPC   PO445576  20.891   3.616   5.384
 3388POPC   GL145577  21.162   3.566   5.750
 3388POPC   GL245578  21.429   3.321   5.775
 3388POPC   C1A45579  21.284   3.576   6.211
 3388POPC   D2A45580  21.111   3.594   6.646
 3388POPC   C3A45581  21.384   3.496   7.019
 3388POPC   C4A45582  21.385   3.509   7.476
 3388POPC   C1B45583  21.770   3.334   6.110
 3388POPC   C2B45584  21.981   3.201   6.503
 3388POPC   C3B45585  21.906   3.116   6.951
 3388POPC   C4B45586  21.620   3.081   7.291
 3389POPC   NC345587  39.577  24.391   5.517
 3389POPC   PO445588  40.221  24.740   5.472
 3389POPC   GL145589  40.030  24.558   5.801
 3389POPC   GL245590  39.740  24.739   5.881
 3389POPC   C1A45591  40.190  24.574   6.226
 3389POPC   D2A45592  40.374  24.569   6.633
 3389POPC   C3A45593  40.140  24.618   7.016
 3389POPC   C4A45594  40.129  24.352   7.392
 3389POPC   C1B45595  39.706  24.411   6.217
 3389POPC   C2B45596  39.830  24.435   6.657
 3389POPC   C3B45597  39.685  24.400   7.117
 3389POPC   C4B45598  39.649  24.450   7.620
 3390POPC   NC345599  38.057  21.691   5.488
 3390POPC   PO445600  37.491  21.486   5.253
 3390POPC   GL145601  37.582  21.515   5.732
 3390POPC   GL245602  37.387  21.814   5.787
 3390POPC   C1A45603  37.698  21.431   6.215
 3390POPC   D2A45604  37.595  21.377   6.701
 3390POPC   C3A45605  37.852  21.317   7.119
 3390POPC   C4A45606  38.028  21.335   7.577
 3390POPC   C1B45607  37.263  21.702   6.253
 3390POPC   C2B45608  37.215  21.746   6.740
 3390POPC   C3B45609  37.320  21.462   7.127
 3390POPC   C4B45610  37.546  21.467   7.524
 3391POPC   NC345611  29.527  12.662   5.093
 3391POPC   PO445612  28.987  12.825   5.273
 3391POPC   GL145613  29.135  12.948   5.688
 3391POPC   GL245614  29.420  12.725   5.717
 3391POPC   C1A45615  29.292  13.032   6.132
 3391POPC   D2A45616  29.249  12.925   6.568
 3391POPC   C3A45617  29.210  13.195   6.935
 3391POPC   C4A45618  29.334  12.989   7.275
 3391POPC   C1B45619  29.582  12.582   6.134
 3391POPC   C2B45620  29.582  12.461   6.621
 3391POPC   C3B45621  29.609  12.544   7.098
 3391POPC   C4B45622  29.760  12.531   7.570
 3392POPC   NC345623   9.679  40.499   5.463
 3392POPC   PO445624  10.187  40.818   5.439
 3392POPC   GL145625   9.906  40.778   5.823
 3392POPC   GL245626   9.939  40.384   5.899
 3392POPC   C1A45627   9.784  41.082   6.167
 3392POPC   D2A45628   9.935  41.244   6.568
 3392POPC   C3A45629   9.752  41.130   6.966
 3392POPC   C4A45630   9.962  40.919   7.294
 3392POPC   C1B45631   9.898  40.595   6.306
 3392POPC   C2B45632   9.847  40.684   6.746
 3392POPC   C3B45633   9.757  40.477   7.145
 3392POPC   C4B45634   9.723  40.398   7.606
 3393POPC   NC345635  26.225  27.781   5.559
 3393POPC   PO445636  25.797  27.316   5.237
 3393POPC   GL145637  25.881  27.386   5.720
 3393POPC   GL245638  26.230  27.334   5.882
 3393POPC   C1A45639  25.857  27.515   6.192
 3393POPC   D2A45640  25.886  27.905   6.445
 3393POPC   C3A45641  25.916  27.941   6.924
 3393POPC   C4A45642  26.062  27.922   7.377
 3393POPC   C1B45643  26.239  27.204   6.328
 3393POPC   C2B45644  26.094  27.434   6.684
 3393POPC   C3B45645  26.033  27.472   7.113
 3393POPC   C4B45646  25.820  27.309   7.463
 3394POPC   NC345647  44.045   5.371   5.205
 3394POPC   PO445648  43.447   5.385   5.492
 3394POPC   GL145649  43.757   5.161   5.733
 3394POPC   GL245650  44.120   5.217   5.697
 3394POPC   C1A45651  43.893   4.893   6.087
 3394POPC   D2A45652  43.967   4.771   6.525
 3394POPC   C3A45653  43.750   5.019   6.846
 3394POPC   C4A45654  43.785   4.926   7.261
 3394POPC   C1B45655  44.092   5.370   6.122
 3394POPC   C2B45656  44.100   5.298   6.573
 3394POPC   C3B45657  44.199   5.215   7.038
 3394POPC   C4B45658  44.144   5.366   7.484
 3395POPC   NC345659  30.391  42.045   5.420
 3395POPC   PO445660  29.982  42.567   5.490
 3395POPC   GL145661  29.920  42.590   5.920
 3395POPC   GL245662  30.255  42.734   5.939
 3395POPC   C1A45663  29.729  42.365   6.318
 3395POPC   D2A45664  29.851  42.064   6.646
 3395POPC   C3A45665  29.983  42.201   7.072
 3395POPC   C4A45666  29.943  42.180   7.533
 3395POPC   C1B45667  30.388  42.522   6.291
 3395POPC   C2B45668  30.202  42.487   6.699
 3395POPC   C3B45669  30.128  42.753   7.049
 3395POPC   C4B45670  30.086  42.728   7.495
 3396POPC   NC345671  30.840  22.798   5.513
 3396POPC   PO445672  30.467  23.268   5.509
 3396POPC   GL145673  30.554  23.014   5.861
 3396POPC   GL245674  30.971  23.007   5.955
 3396POPC   C1A45675  30.338  22.912   6.232
 3396POPC   D2A45676  30.452  22.708   6.584
 3396POPC   C3A45677  30.502  22.966   6.942
 3396POPC   C4A45678  30.436  23.186   7.301
 3396POPC   C1B45679  30.840  22.707   6.194
 3396POPC   C2B45680  30.938  22.557   6.586
 3396POPC   C3B45681  30.936  22.699   6.988
 3396POPC   C4B45682  30.968  22.997   7.315
 3397POPC   NC345683   9.367   7.679   5.689
 3397POPC   PO445684   8.743   7.784   5.393
 3397POPC   GL145685   8.739   7.428   5.717
 3397POPC   GL245686   9.043   7.303   5.864
 3397POPC   C1A45687   8.620   7.286   6.150
 3397POPC   D2A45688   8.747   7.139   6.577
 3397POPC   C3A45689   8.602   7.453   6.854
 3397POPC   C4A45690   8.654   7.756   7.164
 3397POPC   C1B45691   9.351   7.260   6.217
 3397POPC   C2B45692   9.439   7.101   6.628
 3397POPC   C3B45693   9.130   7.074   6.949
 3397POPC   C4B45694   8.925   7.328   7.238
 3398POPC   NC345695  31.151  10.265   5.473
 3398POPC   PO445696  31.263  10.897   5.088
 3398POPC   GL145697  31.317  10.724   5.722
 3398POPC   GL245698  31.445  10.399   5.876
 3398POPC   C1A45699  31.192  10.729   6.177
 3398POPC   D2A45700  31.300  10.757   6.602
 3398POPC   C3A45701  31.219  10.441   6.937
 3398POPC   C4A45702  31.211  10.448   7.413
 3398POPC   C1B45703  31.689  10.666   6.187
 3398POPC   C2B45704  31.788  10.888   6.589
 3398POPC   C3B45705  31.625  10.821   7.010
 3398POPC   C4B45706  31.659  10.449   7.195
 3399POPC   NC345707   1.478  16.097   5.119
 3399POPC   PO445708   1.971  15.733   5.357
 3399POPC   GL145709   2.016  15.956   5.764
 3399POPC   GL245710   1.693  16.074   5.909
 3399POPC   C1A45711   2.106  16.155   6.193
 3399POPC   D2A45712   1.908  16.249   6.606
 3399POPC   C3A45713   2.146  16.209   7.017
 3399POPC   C4A45714   2.120  15.907   7.373
 3399POPC   C1B45715   1.428  16.146   6.269
 3399POPC   C2B45716   1.392  16.171   6.704
 3399POPC   C3B45717   1.691  15.949   6.983
 3399POPC   C4B45718   1.699  15.555   7.186
 3400POPC   NC345719  20.264  28.361   5.399
 3400POPC   PO445720  20.813  27.990   5.394
 3400POPC   GL145721  20.742  28.277   5.705
 3400POPC   GL245722  20.424  28.140   5.828
 3400POPC   C1A45723  20.764  28.384   6.162
 3400POPC   D2A45724  20.685  28.579   6.583
 3400POPC   C3A45725  21.002  28.557   6.894
 3400POPC   C4A45726  20.942  28.277   7.210
 3400POPC   C1B45727  20.267  28.531   6.028
 3400POPC   C2B45728  20.224  28.710   6.413
 3400POPC   C3B45729  20.186  28.692   6.849
 3400POPC   C4B45730  20.484  28.488   7.097
 3401POPC   NC345731  39.226  44.254   5.272
 3401POPC   PO445732  39.450  44.892   5.309
 3401POPC   GL145733  39.449  44.632   5.670
 3401POPC   GL245734  39.097  44.587   5.660
 3401POPC   C1A45735  39.308  44.732   6.115
 3401POPC   D2A45736  39.121  44.857   6.518
 3401POPC   C3A45737  39.422  44.743   6.835
 3401POPC   C4A45738  39.439  44.743   7.265
 3401POPC   C1B45739  38.966  44.338   6.007
 3401POPC   C2B45740  38.911  44.377   6.456
 3401POPC   C3B45741  39.038  44.412   6.878
 3401POPC   C4B45742  38.890  44.545   7.250
 3402POPC   NC345743  35.327  22.092   5.185
 3402POPC   PO445744  35.005  22.547   5.463
 3402POPC   GL145745  35.287  22.351   5.808
 3402POPC   GL245746  35.370  21.995   5.714
 3402POPC   C1A45747  35.367  22.310   6.280
 3402POPC   D2A45748  35.125  22.119   6.586
 3402POPC   C3A45749  35.221  22.032   6.954
 3402POPC   C4A45750  35.343  22.295   7.256
 3402POPC   C1B45751  35.672  21.979   6.043
 3402POPC   C2B45752  35.709  21.956   6.498
 3402POPC   C3B45753  35.701  22.188   6.899
 3402POPC   C4B45754  35.780  22.022   7.334
 3403POPC   NC345755  25.056  28.569   5.242
 3403POPC   PO445756  25.652  28.354   5.286
 3403POPC   GL145757  25.331  28.507   5.653
 3403POPC   GL245758  25.164  28.233   5.861
 3403POPC   C1A45759  25.292  28.673   6.093
 3403POPC   D2A45760  25.439  28.616   6.537
 3403POPC   C3A45761  25.192  28.591   6.897
 3403POPC   C4A45762  24.868  28.352   7.142
 3403POPC   C1B45763  25.300  28.163   6.281
 3403POPC   C2B45764  25.475  28.129   6.692
 3403POPC   C3B45765  25.335  28.146   7.099
 3403POPC   C4B45766  25.164  27.923   7.419
 3404POPC   NC345767   3.079  35.243   5.316
 3404POPC   PO445768   2.463  35.445   5.528
 3404POPC   GL145769   2.879  35.479   5.784
 3404POPC   GL245770   3.182  35.210   5.822
 3404POPC   C1A45771   2.854  35.622   6.225
 3404POPC   D2A45772   2.707  35.352   6.545
 3404POPC   C3A45773   2.762  35.468   6.959
 3404POPC   C4A45774   2.632  35.335   7.344
 3404POPC   C1B45775   3.056  35.081   6.241
 3404POPC   C2B45776   3.045  34.944   6.677
 3404POPC   C3B45777   3.008  35.054   7.119
 3404POPC   C4B45778   2.963  35.065   7.610
 3405POPC   NC345779  31.627  25.958   5.083
 3405POPC   PO445780  31.296  25.866   5.627
 3405POPC   GL145781  31.336  25.826   5.988
 3405POPC   GL245782  31.423  26.187   5.989
 3405POPC   C1A45783  31.532  25.832   6.343
 3405POPC   D2A45784  31.514  26.167   6.604
 3405POPC   C3A45785  31.501  25.880   6.940
 3405POPC   C4A45786  31.686  25.834   7.318
 3405POPC   C1B45787  31.351  26.501   6.254
 3405POPC   C2B45788  31.134  26.508   6.619
 3405POPC   C3B45789  31.385  26.483   6.966
 3405POPC   C4B45790  31.368  26.257   7.313
 3406POPC   NC345791  17.807  25.488   5.487
 3406POPC   PO445792  17.419  24.945   5.481
 3406POPC   GL145793  17.468  25.276   5.804
 3406POPC   GL245794  17.161  25.453   5.901
 3406POPC   C1A45795  17.621  25.470   6.194
 3406POPC   D2A45796  17.845  25.513   6.593
 3406POPC   C3A45797  17.677  25.417   6.999
 3406POPC   C4A45798  17.763  25.099   7.325
 3406POPC   C1B45799  17.218  25.164   6.221
 3406POPC   C2B45800  17.363  25.244   6.595
 3406POPC   C3B45801  17.149  25.379   6.924
 3406POPC   C4B45802  17.266  25.397   7.298
 3407POPC   NC345803  21.303  26.239   5.517
 3407POPC   PO445804  21.623  25.648   5.352
 3407POPC   GL145805  21.518  25.822   5.728
 3407POPC   GL245806  21.184  25.841   5.849
 3407POPC   C1A45807  21.601  25.930   6.147
 3407POPC   D2A45808  21.619  26.134   6.545
 3407POPC   C3A45809  21.583  26.018   7.001
 3407POPC   C4A45810  21.664  25.951   7.450
 3407POPC   C1B45811  21.219  26.261   6.140
 3407POPC   C2B45812  21.066  26.415   6.532
 3407POPC   C3B45813  21.069  26.240   6.952
 3407POPC   C4B45814  21.000  26.274   7.393
 3408POPC   NC345815   2.902  23.184   5.491
 3408POPC   PO445816   2.512  22.574   5.476
 3408POPC   GL145817   2.532  22.865   5.789
 3408POPC   GL245818   2.364  22.631   5.984
 3408POPC   C1A45819   2.505  23.117   6.139
 3408POPC   D2A45820   2.503  23.181   6.568
 3408POPC   C3A45821   2.737  23.055   6.925
 3408POPC   C4A45822   2.490  23.081   7.286
 3408POPC   C1B45823   2.691  22.685   6.297
 3408POPC   C2B45824   2.904  22.605   6.706
 3408POPC   C3B45825   2.887  22.595   7.186
 3408POPC   C4B45826   3.127  22.654   7.582
 3409POPC   NC345827   8.396  36.750   5.306
 3409POPC   PO445828   7.776  36.995   5.372
 3409POPC   GL145829   7.988  36.985   5.800
 3409POPC   GL245830   8.344  36.917   5.816
 3409POPC   C1A45831   7.947  36.786   6.227
 3409POPC   D2A45832   8.044  36.605   6.635
 3409POPC   C3A45833   7.824  36.672   7.008
 3409POPC   C4A45834   7.807  37.067   7.177
 3409POPC   C1B45835   8.363  37.104   6.247
 3409POPC   C2B45836   8.142  37.130   6.651
 3409POPC   C3B45837   8.290  36.939   7.032
 3409POPC   C4B45838   8.536  36.991   7.396
 3410POPC   NC345839  17.819   6.372   5.626
 3410POPC   PO445840  17.402   6.900   5.367
 3410POPC   GL145841  17.514   6.850   5.810
 3410POPC   GL245842  17.586   6.549   6.023
 3410POPC   C1A45843  17.283   6.916   6.214
 3410POPC   D2A45844  17.126   6.803   6.674
 3410POPC   C3A45845  17.436   6.707   7.037
 3410POPC   C4A45846  17.436   6.846   7.496
 3410POPC   C1B45847  17.840   6.230   6.241
 3410POPC   C2B45848  17.744   6.104   6.627
 3410POPC   C3B45849  17.613   6.122   7.030
 3410POPC   C4B45850  17.575   6.359   7.399
 3411POPC   NC345851  29.535  27.032   5.669
 3411POPC   PO445852  30.132  26.969   5.559
 3411POPC   GL145853  29.947  26.730   5.886
 3411POPC   GL245854  29.655  26.503   5.850
 3411POPC   C1A45855  29.987  26.860   6.316
 3411POPC   D2A45856  30.242  26.700   6.650
 3411POPC   C3A45857  30.056  26.862   7.034
 3411POPC   C4A45858  30.113  26.884   7.463
 3411POPC   C1B45859  29.492  26.688   6.245
 3411POPC   C2B45860  29.535  27.028   6.570
 3411POPC   C3B45861  29.554  26.943   7.021
 3411POPC   C4B45862  29.668  26.671   7.392
 3412POPC   NC345863   5.424  39.110   5.371
 3412POPC   PO445864   4.793  39.420   5.330
 3412POPC   GL145865   5.049  39.343   5.678
 3412POPC   GL245866   4.881  39.069   5.756
 3412POPC   C1A45867   5.278  39.205   6.049
 3412POPC   D2A45868   5.260  39.072   6.477
 3412POPC   C3A45869   5.341  39.248   6.876
 3412POPC   C4A45870   5.148  39.325   7.272
 3412POPC   C1B45871   4.839  38.944   6.175
 3412POPC   C2B45872   4.865  38.764   6.566
 3412POPC   C3B45873   4.916  38.948   6.948
 3412POPC   C4B45874   4.890  38.854   7.356
 3413POPC   NC345875   4.783  21.705   5.482
 3413POPC   PO445876   4.329  21.261   5.278
 3413POPC   GL145877   4.328  21.355   5.739
 3413POPC   GL245878   4.673  21.250   5.785
 3413POPC   C1A45879   4.031  21.269   6.124
 3413POPC   D2A45880   3.947  20.969   6.485
 3413POPC   C3A45881   4.117  21.101   6.873
 3413POPC   C4A45882   4.024  21.301   7.254
 3413POPC   C1B45883   4.662  21.435   6.193
 3413POPC   C2B45884   4.534  21.296   6.608
 3413POPC   C3B45885   4.490  21.440   7.053
 3413POPC   C4B45886   4.451  21.446   7.518
 3414POPC   NC345887   8.436  11.760   5.485
 3414POPC   PO445888   7.821  11.998   5.422
 3414POPC   GL145889   8.113  12.124   5.772
 3414POPC   GL245890   8.339  12.418   5.781
 3414POPC   C1A45891   8.205  12.069   6.216
 3414POPC   D2A45892   8.471  11.853   6.522
 3414POPC   C3A45893   8.407  11.964   6.930
 3414POPC   C4A45894   8.121  12.087   7.233
 3414POPC   C1B45895   8.593  12.348   6.117
 3414POPC   C2B45896   8.419  12.422   6.534
 3414POPC   C3B45897   8.362  12.490   6.967
 3414POPC   C4B45898   8.681  12.277   7.249
 3415POPC   NC345899   1.032  18.469   5.425
 3415POPC   PO445900   0.832  17.919   5.658
 3415POPC   GL145901   1.052  18.274   5.910
 3415POPC   GL245902   1.430  18.243   5.930
 3415POPC   C1A45903   1.223  18.488   6.335
 3415POPC   D2A45904   1.394  18.654   6.741
 3415POPC   C3A45905   1.098  18.566   7.112
 3415POPC   C4A45906   0.982  18.166   7.296
 3415POPC   C1B45907   1.191  17.991   6.301
 3415POPC   C2B45908   1.112  18.110   6.718
 3415POPC   C3B45909   1.436  18.202   6.976
 3415POPC   C4B45910   1.605  18.364   7.336
 3416POPC   NC345911  33.286  40.285   5.425
 3416POPC   PO445912  33.058  39.641   5.472
 3416POPC   GL145913  33.093  39.813   5.881
 3416POPC   GL245914  33.066  40.161   5.887
 3416POPC   C1A45915  32.822  39.755   6.249
 3416POPC   D2A45916  32.941  39.608   6.662
 3416POPC   C3A45917  33.089  39.968   6.866
 3416POPC   C4A45918  33.147  40.092   7.287
 3416POPC   C1B45919  33.119  40.161   6.352
 3416POPC   C2B45920  32.878  40.388   6.644
 3416POPC   C3B45921  32.630  40.206   6.972
 3416POPC   C4B45922  32.650  40.249   7.431
 3417POPC   NC345923   9.448  24.643   5.493
 3417POPC   PO445924   8.885  24.598   5.489
 3417POPC   GL145925   9.121  24.522   5.877
 3417POPC   GL245926   9.392  24.284   5.861
 3417POPC   C1A45927   9.259  24.681   6.280
 3417POPC   D2A45928   9.180  24.529   6.700
 3417POPC   C3A45929   9.059  24.665   7.117
 3417POPC   C4A45930   9.119  24.705   7.566
 3417POPC   C1B45931   9.284  24.167   6.294
 3417POPC   C2B45932   9.174  24.027   6.715
 3417POPC   C3B45933   9.271  24.202   7.111
 3417POPC   C4B45934   9.242  24.045   7.517
 3418POPC   NC345935  39.351  27.331   5.159
 3418POPC   PO445936  39.062  26.695   5.169
 3418POPC   GL145937  39.097  26.699   5.642
 3418POPC   GL245938  39.023  27.039   5.779
 3418POPC   C1A45939  39.098  26.594   6.114
 3418POPC   D2A45940  39.371  26.690   6.481
 3418POPC   C3A45941  39.230  26.700   6.916
 3418POPC   C4A45942  39.530  26.821   7.236
 3418POPC   C1B45943  39.223  27.097   6.178
 3418POPC   C2B45944  39.130  27.127   6.596
 3418POPC   C3B45945  39.280  27.218   6.979
 3418POPC   C4B45946  39.087  27.086   7.346
 3419POPC   NC345947  15.339  17.373   5.303
 3419POPC   PO445948  14.762  17.619   5.209
 3419POPC   GL145949  14.815  17.486   5.680
 3419POPC   GL245950  15.069  17.210   5.775
 3419POPC   C1A45951  14.735  17.528   6.138
 3419POPC   D2A45952  15.073  17.565   6.475
 3419POPC   C3A45953  14.977  17.551   6.921
 3419POPC   C4A45954  15.041  17.826   7.302
 3419POPC   C1B45955  15.001  17.114   6.230
 3419POPC   C2B45956  15.187  17.101   6.660
 3419POPC   C3B45957  15.250  17.168   7.112
 3419POPC   C4B45958  15.353  17.198   7.559
 3420POPC   NC345959  24.868  31.940   5.547
 3420POPC   PO445960  25.114  32.459   5.204
 3420POPC   GL145961  25.113  32.445   5.692
 3420POPC   GL245962  25.443  32.375   5.885
 3420POPC   C1A45963  24.973  32.306   6.122
 3420POPC   D2A45964  24.965  32.067   6.507
 3420POPC   C3A45965  24.911  32.307   6.870
 3420POPC   C4A45966  25.152  32.370   7.262
 3420POPC   C1B45967  25.445  32.259   6.344
 3420POPC   C2B45968  25.473  32.320   6.803
 3420POPC   C3B45969  25.522  32.676   7.088
 3420POPC   C4B45970  25.520  32.597   7.536
 3421POPC   NC345971  14.023  12.876   5.556
 3421POPC   PO445972  13.368  12.618   5.446
 3421POPC   GL145973  13.508  12.847   5.778
 3421POPC   GL245974  13.690  13.139   5.804
 3421POPC   C1A45975  13.367  12.999   6.169
 3421POPC   D2A45976  13.591  12.960   6.532
 3421POPC   C3A45977  13.518  12.802   6.911
 3421POPC   C4A45978  13.375  13.059   7.212
 3421POPC   C1B45979  13.959  13.035   6.182
 3421POPC   C2B45980  14.046  13.175   6.606
 3421POPC   C3B45981  14.025  12.966   6.983
 3421POPC   C4B45982  13.860  13.066   7.356
 3422POPC   NC345983   1.863  42.301   5.366
 3422POPC   PO445984   2.353  42.748   5.651
 3422POPC   GL145985   2.221  42.297   5.788
 3422POPC   GL245986   1.853  42.271   5.863
 3422POPC   C1A45987   2.170  42.091   6.225
 3422POPC   D2A45988   2.123  42.349   6.627
 3422POPC   C3A45989   2.183  42.226   7.048
 3422POPC   C4A45990   2.306  42.398   7.414
 3422POPC   C1B45991   1.700  42.397   6.266
 3422POPC   C2B45992   1.618  42.218   6.663
 3422POPC   C3B45993   1.667  42.201   7.086
 3422POPC   C4B45994   1.864  42.203   7.493
 3423POPC   NC345995  13.737   5.244   5.184
 3423POPC   PO445996  13.420   4.730   5.442
 3423POPC   GL145997  13.470   4.936   5.820
 3423POPC   GL245998  13.640   5.186   5.684
 3423POPC   C1A45999  13.531   4.809   6.250
 3423POPC   D2A46000  13.552   5.102   6.583
 3423POPC   C3A46001  13.403   5.084   7.002
 3423POPC   C4A46002  13.616   4.906   7.331
 3423POPC   C1B46003  13.742   5.282   6.114
 3423POPC   C2B46004  14.009   5.353   6.477
 3423POPC   C3B46005  13.883   5.351   6.897
 3423POPC   C4B46006  13.993   5.276   7.301
 3424POPC   NC346007   4.415  39.757   5.402
 3424POPC   PO446008   4.168  40.422   5.547
 3424POPC   GL146009   4.230  40.152   5.883
 3424POPC   GL246010   4.083  39.809   5.846
 3424POPC   C1A46011   4.519  39.890   6.122
 3424POPC   D2A46012   4.630  39.760   6.548
 3424POPC   C3A46013   4.357  39.729   6.930
 3424POPC   C4A46014   4.574  39.891   7.256
 3424POPC   C1B46015   3.840  39.923   6.241
 3424POPC   C2B46016   3.803  40.017   6.707
 3424POPC   C3B46017   4.094  40.135   7.070
 3424POPC   C4B46018   4.046  40.036   7.510
 3425POPC   NC346019  28.679  25.360   5.466
 3425POPC   PO446020  28.050  25.636   5.405
 3425POPC   GL146021  28.110  25.476   5.829
 3425POPC   GL246022  28.437  25.571   5.852
 3425POPC   C1A46023  28.227  25.461   6.305
 3425POPC   D2A46024  28.347  25.510   6.745
 3425POPC   C3A46025  28.423  25.131   7.013
 3425POPC   C4A46026  28.208  25.036   7.413
 3425POPC   C1B46027  28.748  25.483   6.155
 3425POPC   C2B46028  28.811  25.645   6.564
 3425POPC   C3B46029  28.801  25.493   6.988
 3425POPC   C4B46030  28.514  25.534   7.303
 3426POPC   NC346031  37.315  44.724   5.455
 3426POPC   PO446032  38.032  44.489   5.404
 3426POPC   GL146033  37.731  44.555   5.717
 3426POPC   GL246034  37.693  44.847   5.856
 3426POPC   C1A46035  37.778  44.435   6.158
 3426POPC   D2A46036  37.889  44.585   6.566
 3426POPC   C3A46037  37.727  44.424   6.933
 3426POPC   C4A46038  37.878  44.403   7.340
 3426POPC   C1B46039  37.650  44.942   6.271
 3426POPC   C2B46040  37.416  44.890   6.603
 3426POPC   C3B46041  37.523  44.905   6.996
 3426POPC   C4B46042  37.395   0.197   7.250
 3427POPC   NC346043  34.147  10.353   5.528
 3427POPC   PO446044  33.515  10.559   5.237
 3427POPC   GL146045  33.609  10.644   5.722
 3427POPC   GL246046  33.726  10.318   5.828
 3427POPC   C1A46047  33.602  10.651   6.228
 3427POPC   D2A46048  33.770  10.845   6.633
 3427POPC   C3A46049  33.714  10.719   7.015
 3427POPC   C4A46050  33.629  10.347   7.180
 3427POPC   C1B46051  33.985  10.328   6.203
 3427POPC   C2B46052  33.827  10.336   6.645
 3427POPC   C3B46053  34.108  10.421   6.993
 3427POPC   C4B46054  34.191  10.413   7.437
 3428POPC   NC346055  25.808  42.270   5.227
 3428POPC   PO446056  26.449  42.199   5.291
 3428POPC   GL146057  26.145  42.409   5.563
 3428POPC   GL246058  25.999  42.121   5.697
 3428POPC   C1A46059  26.034  42.553   5.971
 3428POPC   D2A46060  25.949  42.486   6.392
 3428POPC   C3A46061  26.269  42.597   6.668
 3428POPC   C4A46062  26.085  42.591   7.058
 3428POPC   C1B46063  25.886  42.044   6.125
 3428POPC   C2B46064  25.759  41.877   6.525
 3428POPC   C3B46065  25.668  42.094   6.912
 3428POPC   C4B46066  25.973  42.135   7.243
 3429POPC   NC346067  14.782  11.089   5.497
 3429POPC   PO446068  14.108  11.482   5.469
 3429POPC   GL146069  14.290  11.356   5.862
 3429POPC   GL246070  14.623  11.445   5.867
 3429POPC   C1A46071  14.284  11.153   6.286
 3429POPC   D2A46072  14.066  11.086   6.701
 3429POPC   C3A46073  14.303  11.047   7.027
 3429POPC   C4A46074  14.376  11.168   7.441
 3429POPC   C1B46075  14.503  11.627   6.282
 3429POPC   C2B46076  14.380  11.499   6.715
 3429POPC   C3B46077  14.344  11.613   7.152
 3429POPC   C4B46078  14.660  11.598   7.505
 3430POPC   NC346079  38.815   6.082   5.433
 3430POPC   PO446080  39.471   5.750   5.365
 3430POPC   GL146081  39.221   5.907   5.694
 3430POPC   GL246082  39.190   5.592   5.816
 3430POPC   C1A46083  39.097   6.009   6.146
 3430POPC   D2A46084  39.320   5.991   6.563
 3430POPC   C3A46085  39.141   5.911   6.986
 3430POPC   C4A46086  38.886   6.168   7.245
 3430POPC   C1B46087  39.054   5.501   6.236
 3430POPC   C2B46088  39.221   5.473   6.658
 3430POPC   C3B46089  39.090   5.404   7.081
 3430POPC   C4B46090  39.153   5.559   7.496
 3431POPC   NC346091   1.866  36.351   5.012
 3431POPC   PO446092   2.043  36.912   5.366
 3431POPC   GL146093   2.057  37.001   5.799
 3431POPC   GL246094   1.795  36.770   5.816
 3431POPC   C1A46095   2.222  37.068   6.234
 3431POPC   D2A46096   2.408  37.039   6.630
 3431POPC   C3A46097   2.173  37.011   6.991
 3431POPC   C4A46098   2.206  37.084   7.402
 3431POPC   C1B46099   1.717  37.043   6.186
 3431POPC   C2B46100   1.848  37.058   6.592
 3431POPC   C3B46101   1.642  37.003   6.960
 3431POPC   C4B46102   1.773  36.847   7.323
 3432POPC   NC346103  18.002   1.226   5.094
 3432POPC   PO446104  18.352   0.984   5.605
 3432POPC   GL146105  18.387   1.094   6.010
 3432POPC   GL246106  18.705   1.298   5.886
 3432POPC   C1A46107  18.072   1.063   6.379
 3432POPC   D2A46108  17.854   1.280   6.723
 3432POPC   C3A46109  18.094   1.246   7.120
 3432POPC   C4A46110  18.519   1.340   7.225
 3432POPC   C1B46111  18.844   0.967   6.174
 3432POPC   C2B46112  18.625   0.801   6.536
 3432POPC   C3B46113  18.783   0.713   6.946
 3432POPC   C4B46114  18.916   1.008   7.253
 3433POPC   NC346115  25.816   2.934   5.489
 3433POPC   PO446116  26.273   2.481   5.248
 3433POPC   GL146117  26.049   2.517   5.700
 3433POPC   GL246118  25.738   2.616   5.891
 3433POPC   C1A46119  26.168   2.488   6.174
 3433POPC   D2A46120  26.046   2.584   6.609
 3433POPC   C3A46121  26.229   2.787   6.959
 3433POPC   C4A46122  26.251   2.439   7.229
 3433POPC   C1B46123  25.915   2.940   6.194
 3433POPC   C2B46124  25.888   3.090   6.632
 3433POPC   C3B46125  25.714   2.932   7.043
 3433POPC   C4B46126  25.610   3.020   7.493
 3434POPC   NC346127  16.087  31.028   5.376
 3434POPC   PO446128  15.706  30.419   5.540
 3434POPC   GL146129  15.971  30.710   5.773
 3434POPC   GL246130  15.844  31.045   5.835
 3434POPC   C1A46131  16.234  30.627   6.167
 3434POPC   D2A46132  16.372  30.617   6.603
 3434POPC   C3A46133  16.058  30.658   6.944
 3434POPC   C4A46134  16.036  30.863   7.304
 3434POPC   C1B46135  15.766  30.788   6.214
 3434POPC   C2B46136  15.825  30.524   6.519
 3434POPC   C3B46137  15.562  30.444   6.860
 3434POPC   C4B46138  15.595  30.574   7.274
 3435POPC   NC346139  22.875  41.375   5.449
 3435POPC   PO446140  22.525  41.951   5.234
 3435POPC   GL146141  22.784  41.864   5.661
 3435POPC   GL246142  23.147  41.967   5.763
 3435POPC   C1A46143  22.911  41.640   6.077
 3435POPC   D2A46144  22.980  41.602   6.530
 3435POPC   C3A46145  22.718  41.563   6.904
 3435POPC   C4A46146  22.824  41.251   7.215
 3435POPC   C1B46147  23.200  42.060   6.244
 3435POPC   C2B46148  23.294  41.965   6.704
 3435POPC   C3B46149  23.195  41.611   7.014
 3435POPC   C4B46150  23.182  41.668   7.444
 3436POPC   NC346151   6.977  28.995   5.361
 3436POPC   PO446152   6.335  29.355   5.355
 3436POPC   GL146153   6.605  29.284   5.709
 3436POPC   GL246154   6.707  28.962   5.800
 3436POPC   C1A46155   6.732  29.426   6.088
 3436POPC   D2A46156   6.607  29.376   6.490
 3436POPC   C3A46157   6.519  29.317   6.907
 3436POPC   C4A46158   6.775  29.105   7.203
 3436POPC   C1B46159   6.805  28.948   6.255
 3436POPC   C2B46160   6.901  28.975   6.701
 3436POPC   C3B46161   7.210  28.913   7.036
 3436POPC   C4B46162   7.085  28.741   7.442
 3437POPC   NC346163  19.474  10.145   5.605
 3437POPC   PO446164  19.005  10.610   5.344
 3437POPC   GL146165  18.909  10.668   5.807
 3437POPC   GL246166  19.218  10.518   5.894
 3437POPC   C1A46167  18.936  10.655   6.278
 3437POPC   D2A46168  18.972  10.869   6.622
 3437POPC   C3A46169  19.003  10.662   7.009
 3437POPC   C4A46170  19.091  10.863   7.401
 3437POPC   C1B46171  19.354  10.327   6.252
 3437POPC   C2B46172  19.386  10.541   6.619
 3437POPC   C3B46173  19.429  10.304   6.974
 3437POPC   C4B46174  19.333  10.423   7.351
 3438POPC   NC346175  17.042  17.637   5.548
 3438POPC   PO446176  16.654  17.150   5.581
 3438POPC   GL146177  16.718  17.411   5.890
 3438POPC   GL246178  17.066  17.318   5.951
 3438POPC   C1A46179  16.528  17.477   6.266
 3438POPC   D2A46180  16.740  17.408   6.624
 3438POPC   C3A46181  16.576  17.582   6.970
 3438POPC   C4A46182  16.854  17.387   7.200
 3438POPC   C1B46183  17.032  17.623   6.265
 3438POPC   C2B46184  17.153  17.763   6.679
 3438POPC   C3B46185  17.079  17.819   7.120
 3438POPC   C4B46186  17.113  17.861   7.571
 3439POPC   NC346187  21.983  27.841   5.578
 3439POPC   PO446188  22.350  27.226   5.499
 3439POPC   GL146189  22.494  27.466   5.857
 3439POPC   GL246190  22.431  27.832   5.912
 3439POPC   C1A46191  22.479  27.503   6.315
 3439POPC   D2A46192  22.173  27.498   6.643
 3439POPC   C3A46193  22.247  27.701   7.060
 3439POPC   C4A46194  22.218  27.562   7.512
 3439POPC   C1B46195  22.115  27.880   6.252
 3439POPC   C2B46196  21.804  27.850   6.611
 3439POPC   C3B46197  21.845  28.063   7.003
 3439POPC   C4B46198  22.140  28.075   7.404
 3440POPC   NC346199   3.714   8.639   5.503
 3440POPC   PO446200   3.412   9.290   5.453
 3440POPC   GL146201   3.483   9.120   5.835
 3440POPC   GL246202   3.839   9.086   5.762
 3440POPC   C1A46203   3.335   8.894   6.226
 3440POPC   D2A46204   3.340   8.707   6.651
 3440POPC   C3A46205   3.545   8.920   6.993
 3440POPC   C4A46206   3.426   8.869   7.433
 3440POPC   C1B46207   3.843   8.918   6.158
 3440POPC   C2B46208   3.712   9.144   6.545
 3440POPC   C3B46209   3.879   9.301   6.956
 3440POPC   C4B46210   3.882   9.090   7.370
 3441POPC   NC346211  39.606  36.459   5.664
 3441POPC   PO446212  39.245  35.988   5.345
 3441POPC   GL146213  39.076  35.981   5.728
 3441POPC   GL246214  39.034  36.340   5.727
 3441POPC   C1A46215  39.091  35.817   6.143
 3441POPC   D2A46216  39.312  35.774   6.527
 3441POPC   C3A46217  39.118  35.821   6.940
 3441POPC   C4A46218  38.979  35.689   7.323
 3441POPC   C1B46219  39.174  36.343   6.160
 3441POPC   C2B46220  39.003  36.205   6.539
 3441POPC   C3B46221  39.044  36.327   6.947
 3441POPC   C4B46222  39.188  36.222   7.366
 3442POPC   NC346223  14.115  29.941   5.391
 3442POPC   PO446224  14.779  29.803   5.322
 3442POPC   GL146225  14.559  29.771   5.756
 3442POPC   GL246226  14.261  29.956   5.881
 3442POPC   C1A46227  14.671  29.785   6.219
 3442POPC   D2A46228  14.686  30.071   6.597
 3442POPC   C3A46229  14.628  29.900   7.004
 3442POPC   C4A46230  14.552  29.666   7.349
 3442POPC   C1B46231  13.915  30.155   6.123
 3442POPC   C2B46232  13.843  30.030   6.551
 3442POPC   C3B46233  14.127  29.939   6.882
 3442POPC   C4B46234  14.134  30.022   7.313
 3443POPC   NC346235  33.271  28.243   4.995
 3443POPC   PO446236  32.936  28.746   5.225
 3443POPC   GL146237  32.914  28.412   5.592
 3443POPC   GL246238  33.252  28.388   5.819
 3443POPC   C1A46239  32.794  28.264   6.023
 3443POPC   D2A46240  33.046  28.297   6.425
 3443POPC   C3A46241  32.862  28.444   6.829
 3443POPC   C4A46242  32.810  28.205   7.217
 3443POPC   C1B46243  33.438  28.592   6.238
 3443POPC   C2B46244  33.344  28.630   6.707
 3443POPC   C3B46245  33.343  28.704   7.131
 3443POPC   C4B46246  32.903  28.742   7.270
 3444POPC   NC346247  36.041   3.637   5.444
 3444POPC   PO446248  35.572   3.510   5.778
 3444POPC   GL146249  36.062   3.363   5.862
 3444POPC   GL246250  36.381   3.520   5.802
 3444POPC   C1A46251  36.320   3.219   6.220
 3444POPC   D2A46252  36.108   3.362   6.588
 3444POPC   C3A46253  36.076   3.140   6.983
 3444POPC   C4A46254  35.881   3.314   7.358
 3444POPC   C1B46255  36.284   3.725   6.193
 3444POPC   C2B46256  36.452   3.748   6.608
 3444POPC   C3B46257  36.257   3.626   6.995
 3444POPC   C4B46258  36.180   3.711   7.391
 3445POPC   NC346259  43.552  31.774   5.256
 3445POPC   PO446260  43.023  31.359   5.165
 3445POPC   GL146261  43.193  31.380   5.671
 3445POPC   GL246262  43.411  31.076   5.813
 3445POPC   C1A46263  43.205  31.588   6.119
 3445POPC   D2A46264  43.061  31.896   6.490
 3445POPC   C3A46265  43.110  31.760   6.934
 3445POPC   C4A46266  42.977  31.356   7.050
 3445POPC   C1B46267  43.534  31.213   6.262
 3445POPC   C2B46268  43.347  31.396   6.632
 3445POPC   C3B46269  43.481  31.231   7.043
 3445POPC   C4B46270  43.322  31.395   7.426
 3446POPC   NC346271  20.912  22.462   5.619
 3446POPC   PO446272  20.957  21.867   5.254
 3446POPC   GL146273  20.638  21.989   5.576
 3446POPC   GL246274  20.879  21.988   5.821
 3446POPC   C1A46275  20.410  22.132   5.993
 3446POPC   D2A46276  20.338  21.886   6.397
 3446POPC   C3A46277  20.345  21.969   6.857
 3446POPC   C4A46278  20.068  22.144   7.202
 3446POPC   C1B46279  20.822  22.031   6.272
 3446POPC   C2B46280  20.906  21.833   6.661
 3446POPC   C3B46281  20.784  21.805   7.069
 3446POPC   C4B46282  20.592  22.111   7.296
 3447POPC   NC346283  17.834  35.712   5.176
 3447POPC   PO446284  17.708  35.126   5.456
 3447POPC   GL146285  17.650  35.028   5.866
 3447POPC   GL246286  17.976  34.969   5.897
 3447POPC   C1A46287  17.529  35.270   6.226
 3447POPC   D2A46288  17.654  35.657   6.512
 3447POPC   C3A46289  17.601  35.602   6.978
 3447POPC   C4A46290  17.208  35.509   7.199
 3447POPC   C1B46291  18.005  35.081   6.306
 3447POPC   C2B46292  17.716  35.177   6.680
 3447POPC   C3B46293  17.577  35.070   7.079
 3447POPC   C4B46294  17.719  34.872   7.451
 3448POPC   NC346295   6.645  16.713   5.291
 3448POPC   PO446296   7.077  16.718   5.776
 3448POPC   GL146297   6.720  16.649   5.990
 3448POPC   GL246298   6.439  16.704   5.766
 3448POPC   C1A46299   6.663  16.700   6.436
 3448POPC   D2A46300   6.645  17.088   6.699
 3448POPC   C3A46301   6.576  16.970   7.143
 3448POPC   C4A46302   6.811  16.728   7.457
 3448POPC   C1B46303   6.243  16.555   6.153
 3448POPC   C2B46304   6.268  16.343   6.557
 3448POPC   C3B46305   6.340  16.503   7.001
 3448POPC   C4B46306   6.076  16.822   7.249
 3449POPC   NC346307  36.528  23.045   5.551
 3449POPC   PO446308  36.042  23.384   5.291
 3449POPC   GL146309  36.049  23.077   5.723
 3449POPC   GL246310  36.310  22.883   5.946
 3449POPC   C1A46311  35.912  22.997   6.188
 3449POPC   D2A46312  36.102  22.824   6.556
 3449POPC   C3A46313  35.931  22.928   6.929
 3449POPC   C4A46314  36.172  22.955   7.274
 3449POPC   C1B46315  36.370  22.570   6.197
 3449POPC   C2B46316  36.533  22.487   6.565
 3449POPC   C3B46317  36.646  22.620   6.951
 3449POPC   C4B46318  36.415  22.525   7.337
 3450POPC   NC346319  17.417  16.367   5.378
 3450POPC   PO446320  17.898  16.820   5.484
 3450POPC   GL146321  17.582  16.703   5.818
 3450POPC   GL246322  17.216  16.583   5.790
 3450POPC   C1A46323  17.503  16.870   6.238
 3450POPC   D2A46324  17.332  16.825   6.647
 3450POPC   C3A46325  17.572  16.726   7.027
 3450POPC   C4A46326  17.690  16.851   7.458
 3450POPC   C1B46327  17.058  16.577   6.192
 3450POPC   C2B46328  17.036  16.407   6.577
 3450POPC   C3B46329  17.072  16.563   6.981
 3450POPC   C4B46330  17.221  16.629   7.384
 3451POPC   NC346331   9.377  15.015   5.242
 3451POPC   PO446332   9.856  15.328   5.548
 3451POPC   GL146333   9.536  15.084   5.734
 3451POPC   GL246334   9.714  14.865   5.946
 3451POPC   C1A46335   9.422  15.206   6.158
 3451POPC   D2A46336   9.634  15.300   6.553
 3451POPC   C3A46337   9.497  15.086   6.934
 3451POPC   C4A46338   9.417  15.441   7.164
 3451POPC   C1B46339   9.965  15.191   6.170
 3451POPC   C2B46340  10.149  15.305   6.568
 3451POPC   C3B46341   9.971  15.279   6.980
 3451POPC   C4B46342   9.906  15.267   7.414
 3452POPC   NC346343   5.717   7.369   5.433
 3452POPC   PO446344   6.237   7.636   5.795
 3452POPC   GL146345   5.769   7.533   5.925
 3452POPC   GL246346   5.695   7.185   5.900
 3452POPC   C1A46347   5.638   7.487   6.346
 3452POPC   D2A46348   6.061   7.484   6.564
 3452POPC   C3A46349   6.103   7.690   6.958
 3452POPC   C4A46350   5.768   7.579   7.236
 3452POPC   C1B46351   5.871   7.049   6.271
 3452POPC   C2B46352   5.724   7.110   6.700
 3452POPC   C3B46353   5.661   7.094   7.116
 3452POPC   C4B46354   5.926   7.009   7.454
 3453POPC   NC346355  13.689  18.216   5.498
 3453POPC   PO446356  13.154  18.699   5.498
 3453POPC   GL146357  13.373  18.409   5.857
 3453POPC   GL246358  13.757  18.363   5.968
 3453POPC   C1A46359  13.407  18.178   6.280
 3453POPC   D2A46360  13.498  18.354   6.698
 3453POPC   C3A46361  13.571  18.147   7.076
 3453POPC   C4A46362  13.801  18.293   7.451
 3453POPC   C1B46363  13.859  17.969   6.190
 3453POPC   C2B46364  13.702  17.869   6.614
 3453POPC   C3B46365  13.908  17.751   7.004
 3453POPC   C4B46366  14.094  17.859   7.408
 3454POPC   NC346367  44.954  12.345   5.270
 3454POPC   PO446368  44.422  12.527   5.421
 3454POPC   GL146369  44.748  12.341   5.753
 3454POPC   GL246370  44.654  11.988   5.758
 3454POPC   C1A46371  44.876  12.165   6.189
 3454POPC   D2A46372  44.660  12.167   6.605
 3454POPC   C3A46373  44.851  12.217   7.024
 3454POPC   C4A46374  44.652  12.219   7.428
 3454POPC   C1B46375  44.422  11.930   6.175
 3454POPC   C2B46376  44.366  11.751   6.604
 3454POPC   C3B46377  44.487  11.847   7.046
 3454POPC   C4B46378  44.570  11.723   7.491
 3455POPC   NC346379   4.000   9.391   5.381
 3455POPC   PO446380   4.607   9.642   5.615
 3455POPC   GL146381   4.252   9.738   5.802
 3455POPC   GL246382   4.148  10.075   5.822
 3455POPC   C1A46383   4.410   9.803   6.218
 3455POPC   D2A46384   4.631   9.674   6.550
 3455POPC   C3A46385   4.406   9.840   6.853
 3455POPC   C4A46386   4.641   9.697   7.162
 3455POPC   C1B46387   3.919   9.877   6.163
 3455POPC   C2B46388   3.800   9.952   6.583
 3455POPC   C3B46389   3.973  10.116   6.944
 3455POPC   C4B46390   4.101   9.873   7.275
 3456POPC   NC346391  36.244  30.822   5.051
 3456POPC   PO446392  36.399  30.198   5.411
 3456POPC   GL146393  36.206  30.483   5.723
 3456POPC   GL246394  36.002  30.742   5.553
 3456POPC   C1A46395  36.028  30.402   6.138
 3456POPC   D2A46396  35.863  30.353   6.550
 3456POPC   C3A46397  36.092  30.502   6.914
 3456POPC   C4A46398  36.206  30.449   7.373
 3456POPC   C1B46399  36.037  30.888   5.991
 3456POPC   C2B46400  36.059  30.844   6.424
 3456POPC   C3B46401  35.862  30.947   6.786
 3456POPC   C4B46402  35.965  30.914   7.204
 3457POPC   NC346403  20.501  37.977   5.451
 3457POPC   PO446404  20.333  37.289   5.493
 3457POPC   GL146405  20.624  37.497   5.790
 3457POPC   GL246406  20.735  37.829   5.889
 3457POPC   C1A46407  20.683  37.526   6.276
 3457POPC   D2A46408  20.457  37.795   6.552
 3457POPC   C3A46409  20.579  37.710   6.974
 3457POPC   C4A46410  20.520  37.367   7.199
 3457POPC   C1B46411  20.925  37.973   6.304
 3457POPC   C2B46412  20.958  37.904   6.735
 3457POPC   C3B46413  20.958  37.991   7.183
 3457POPC   C4B46414  20.725  37.999   7.552
 3458POPC   NC346415  43.016   5.552   5.481
 3458POPC   PO446416  43.331   6.103   5.440
 3458POPC   GL146417  43.324   5.795   5.839
 3458POPC   GL246418  42.948   5.770   5.963
 3458POPC   C1A46419  43.288   5.785   6.341
 3458POPC   D2A46420  43.003   5.859   6.730
 3458POPC   C3A46421  43.157   5.977   7.157
 3458POPC   C4A46422  43.167   6.218   7.589
 3458POPC   C1B46423  42.823   5.514   6.362
 3458POPC   C2B46424  42.903   5.363   6.803
 3458POPC   C3B46425  42.832   5.551   7.202
 3458POPC   C4B46426  42.716   5.503   7.659
 3459POPC   NC346427  37.453  25.576   5.323
 3459POPC   PO446428  36.927  25.120   5.389
 3459POPC   GL146429  36.875  25.204   5.809
 3459POPC   GL246430  36.535  25.151   5.771
 3459POPC   C1A46431  36.697  25.389   6.212
 3459POPC   D2A46432  36.699  25.334   6.674
 3459POPC   C3A46433  37.082  25.149   6.850
 3459POPC   C4A46434  37.105  25.478   7.118
 3459POPC   C1B46435  36.546  24.873   6.137
 3459POPC   C2B46436  36.777  24.862   6.538
 3459POPC   C3B46437  36.628  24.904   6.989
 3459POPC   C4B46438  36.613  24.984   7.491
 3460POPC   NC346439   9.591  19.660   5.635
 3460POPC   PO446440  10.183  19.953   5.492
 3460POPC   GL146441  10.048  20.063   5.867
 3460POPC   GL246442   9.727  20.166   5.820
 3460POPC   C1A46443   9.916  19.923   6.269
 3460POPC   D2A46444   9.786  20.077   6.681
 3460POPC   C3A46445   9.778  19.769   7.029
 3460POPC   C4A46446  10.133  19.592   7.322
 3460POPC   C1B46447   9.440  20.123   6.153
 3460POPC   C2B46448   9.306  20.277   6.540
 3460POPC   C3B46449   9.302  19.992   6.861
 3460POPC   C4B46450   9.428  20.109   7.258
 3461POPC   NC346451  19.606  38.138   5.458
 3461POPC   PO446452  20.250  38.552   5.479
 3461POPC   GL146453  20.033  38.348   5.855
 3461POPC   GL246454  20.285  38.105   5.921
 3461POPC   C1A46455  19.767  38.401   6.271
 3461POPC   D2A46456  19.472  38.583   6.615
 3461POPC   C3A46457  19.585  38.668   7.041
 3461POPC   C4A46458  19.924  38.430   7.226
 3461POPC   C1B46459  20.003  37.934   6.221
 3461POPC   C2B46460  19.926  37.952   6.649
 3461POPC   C3B46461  19.625  38.167   6.856
 3461POPC   C4B46462  19.460  38.180   7.249
 3462POPC   NC346463  44.974  24.917   5.283
 3462POPC   PO446464   0.530  24.608   5.242
 3462POPC   GL146465   0.350  24.440   5.688
 3462POPC   GL246466   0.084  24.704   5.768
 3462POPC   C1A46467   0.265  24.103   6.068
 3462POPC   D2A46468   0.390  24.005   6.506
 3462POPC   C3A46469   0.492  24.323   6.817
 3462POPC   C4A46470   0.450  24.227   7.246
 3462POPC   C1B46471   0.191  24.591   6.211
 3462POPC   C2B46472   0.269  24.784   6.615
 3462POPC   C3B46473   0.538  24.898   6.949
 3462POPC   C4B46474   0.520  24.722   7.352
 3463POPC   NC346475  14.116  26.204   5.243
 3463POPC   PO446476  14.724  25.832   5.283
 3463POPC   GL146477  14.684  26.022   5.715
 3463POPC   GL246478  14.338  26.137   5.784
 3463POPC   C1A46479  14.740  26.172   6.151
 3463POPC   D2A46480  14.692  26.415   6.542
 3463POPC   C3A46481  14.618  26.208   6.936
 3463POPC   C4A46482  14.427  25.844   7.108
 3463POPC   C1B46483  14.270  26.391   6.170
 3463POPC   C2B46484  14.218  26.249   6.605
 3463POPC   C3B46485  14.111  26.298   7.035
 3463POPC   C4B46486  14.035  26.017   7.360
 3464POPC   NC346487  22.953  35.818   5.449
 3464POPC   PO446488  23.515  36.252   5.434
 3464POPC   GL146489  23.215  36.143   5.760
 3464POPC   GL246490  22.972  36.415   5.860
 3464POPC   C1A46491  23.033  36.035   6.167
 3464POPC   D2A46492  22.969  36.344   6.501
 3464POPC   C3A46493  22.945  36.142   6.869
 3464POPC   C4A46494  23.018  35.932   7.240
 3464POPC   C1B46495  22.584  36.323   6.176
 3464POPC   C2B46496  22.459  36.177   6.594
 3464POPC   C3B46497  22.491  35.962   6.990
 3464POPC   C4B46498  22.633  36.263   7.270
 3465POPC   NC346499  44.953   2.286   5.384
 3465POPC   PO446500  44.523   1.774   5.395
 3465POPC   GL146501  44.569   2.006   5.796
 3465POPC   GL246502  44.318   2.270   5.857
 3465POPC   C1A46503  44.806   1.990   6.225
 3465POPC   D2A46504  44.826   1.753   6.645
 3465POPC   C3A46505  44.837   2.032   7.027
 3465POPC   C4A46506  44.656   1.993   7.428
 3465POPC   C1B46507  44.297   2.112   6.266
 3465POPC   C2B46508  44.541   2.191   6.636
 3465POPC   C3B46509  44.399   2.304   7.050
 3465POPC   C4B46510  44.166   2.143   7.392
 3466POPC   NC346511  31.416   6.490   5.391
 3466POPC   PO446512  31.968   6.889   5.500
 3466POPC   GL146513  31.625   6.841   5.833
 3466POPC   GL246514  31.260   6.821   5.864
 3466POPC   C1A46515  31.636   6.814   6.307
 3466POPC   D2A46516  31.847   7.004   6.683
 3466POPC   C3A46517  31.694   6.807   7.047
 3466POPC   C4A46518  31.391   6.514   7.213
 3466POPC   C1B46519  31.136   6.932   6.312
 3466POPC   C2B46520  31.299   6.928   6.753
 3466POPC   C3B46521  31.207   7.012   7.204
 3466POPC   C4B46522  31.096   6.888   7.657
 3467POPC   NC346523  38.595   6.833   5.390
 3467POPC   PO446524  37.929   6.681   5.322
 3467POPC   GL146525  38.235   6.622   5.689
 3467POPC   GL246526  38.272   6.967   5.770
 3467POPC   C1A46527  38.528   6.489   6.045
 3467POPC   D2A46528  38.583   6.276   6.469
 3467POPC   C3A46529  38.586   6.438   6.912
 3467POPC   C4A46530  38.838   6.692   7.210
 3467POPC   C1B46531  38.516   6.989   6.140
 3467POPC   C2B46532  38.604   6.808   6.535
 3467POPC   C3B46533  38.487   6.956   6.947
 3467POPC   C4B46534  38.386   6.846   7.400
 3468POPC   NC346535  39.173  41.084   5.433
 3468POPC   PO446536  39.488  40.509   5.506
 3468POPC   GL146537  39.201  40.705   5.823
 3468POPC   GL246538  38.925  40.980   5.853
 3468POPC   C1A46539  39.110  40.563   6.250
 3468POPC   D2A46540  38.813  40.433   6.564
 3468POPC   C3A46541  39.004  40.435   6.981
 3468POPC   C4A46542  39.344  40.726   7.099
 3468POPC   C1B46543  38.999  41.060   6.284
 3468POPC   C2B46544  39.016  40.890   6.711
 3468POPC   C3B46545  38.991  41.091   7.125
 3468POPC   C4B46546  38.876  41.151   7.555
 3469POPC   NC346547  31.759  34.331   5.555
 3469POPC   PO446548  31.364  33.815   5.535
 3469POPC   GL146549  31.375  33.805   5.950
 3469POPC   GL246550  31.699  33.947   5.910
 3469POPC   C1A46551  31.421  33.734   6.378
 3469POPC   D2A46552  31.763  33.857   6.639
 3469POPC   C3A46553  31.517  33.851   6.988
 3469POPC   C4A46554  31.437  33.959   7.389
 3469POPC   C1B46555  31.861  33.619   6.161
 3469POPC   C2B46556  31.750  33.319   6.475
 3469POPC   C3B46557  31.701  33.376   6.892
 3469POPC   C4B46558  31.960  33.610   7.145
 3470POPC   NC346559  39.662   6.196   5.393
 3470POPC   PO446560  40.224   5.804   5.397
 3470POPC   GL146561  40.021   5.997   5.744
 3470POPC   GL246562  39.725   5.784   5.796
 3470POPC   C1A46563  39.886   6.039   6.200
 3470POPC   D2A46564  39.808   5.837   6.602
 3470POPC   C3A46565  39.930   6.033   6.975
 3470POPC   C4A46566  40.119   5.969   7.379
 3470POPC   C1B46567  39.568   5.615   6.198
 3470POPC   C2B46568  39.709   5.330   6.553
 3470POPC   C3B46569  39.760   5.470   6.968
 3470POPC   C4B46570  39.590   5.765   7.268
 3471POPC   NC346571  29.444  17.470   5.060
 3471POPC   PO446572  28.888  17.643   5.446
 3471POPC   GL146573  28.820  17.572   5.873
 3471POPC   GL246574  28.934  17.906   5.881
 3471POPC   C1A46575  28.986  17.301   6.219
 3471POPC   D2A46576  29.270  17.126   6.561
 3471POPC   C3A46577  29.151  17.229   6.984
 3471POPC   C4A46578  29.536  17.253   7.202
 3471POPC   C1B46579  28.879  17.829   6.318
 3471POPC   C2B46580  29.190  17.622   6.570
 3471POPC   C3B46581  29.261  17.724   6.948
 3471POPC   C4B46582  28.852  17.807   7.116
 3472POPC   NC346583   4.669  42.799   5.503
 3472POPC   PO446584   3.980  42.994   5.468
 3472POPC   GL146585   4.195  43.075   5.872
 3472POPC   GL246586   4.534  43.178   5.828
 3472POPC   C1A46587   4.329  43.351   6.254
 3472POPC   D2A46588   4.633  43.300   6.624
 3472POPC   C3A46589   4.401  43.228   7.036
 3472POPC   C4A46590   4.326  43.218   7.511
 3472POPC   C1B46591   4.574  42.879   6.187
 3472POPC   C2B46592   4.746  42.722   6.584
 3472POPC   C3B46593   4.798  42.904   6.982
 3472POPC   C4B46594   4.498  42.784   7.253
 3473POPC   NC346595  30.499  12.591   5.315
 3473POPC   PO446596  30.724  13.233   5.210
 3473POPC   GL146597  30.832  12.957   5.628
 3473POPC   GL246598  30.796  12.601   5.722
 3473POPC   C1A46599  31.012  12.973   6.054
 3473POPC   D2A46600  30.767  13.026   6.451
 3473POPC   C3A46601  30.969  12.894   6.838
 3473POPC   C4A46602  30.998  12.954   7.260
 3473POPC   C1B46603  30.663  12.615   6.138
 3473POPC   C2B46604  30.754  12.516   6.563
 3473POPC   C3B46605  30.575  12.577   6.965
 3473POPC   C4B46606  30.380  12.963   7.116
 3474POPC   NC346607  42.011  36.553   5.366
 3474POPC   PO446608  42.213  35.756   5.383
 3474POPC   GL146609  42.099  35.987   5.746
 3474POPC   GL246610  42.170  35.817   6.026
 3474POPC   C1A46611  42.209  36.342   6.033
 3474POPC   D2A46612  42.219  36.556   6.472
 3474POPC   C3A46613  42.280  36.282   6.853
 3474POPC   C4A46614  42.035  36.085   7.190
 3474POPC   C1B46615  42.307  35.997   6.403
 3474POPC   C2B46616  42.663  35.966   6.675
 3474POPC   C3B46617  42.559  35.791   7.052
 3474POPC   C4B46618  42.250  35.631   7.264
 3475POPC   NC346619  41.809  20.660   5.430
 3475POPC   PO446620  41.278  20.298   5.349
 3475POPC   GL146621  41.463  20.404   5.784
 3475POPC   GL246622  41.664  20.718   5.890
 3475POPC   C1A46623  41.314  20.615   6.201
 3475POPC   D2A46624  41.541  20.751   6.537
 3475POPC   C3A46625  41.389  20.600   6.932
 3475POPC   C4A46626  41.569  20.747   7.315
 3475POPC   C1B46627  41.774  20.406   6.204
 3475POPC   C2B46628  41.662  20.258   6.605
 3475POPC   C3B46629  41.776  20.280   7.023
 3475POPC   C4B46630  41.599  20.240   7.432
 3476POPC   NC346631  27.817  35.598   5.480
 3476POPC   PO446632  28.427  35.384   5.293
 3476POPC   GL146633  28.305  35.412   5.738
 3476POPC   GL246634  28.666  35.479   5.793
 3476POPC   C1A46635  28.097  35.352   6.176
 3476POPC   D2A46636  28.125  35.575   6.608
 3476POPC   C3A46637  28.312  35.430   7.007
 3476POPC   C4A46638  28.203  35.146   7.359
 3476POPC   C1B46639  28.605  35.164   6.146
 3476POPC   C2B46640  28.523  35.164   6.589
 3476POPC   C3B46641  28.790  35.265   6.944
 3476POPC   C4B46642  28.686  35.074   7.251
 3477POPC   NC346643  37.152  43.564   5.441
 3477POPC   PO446644  37.197  44.258   5.416
 3477POPC   GL146645  36.942  43.954   5.756
 3477POPC   GL246646  37.066  43.654   5.927
 3477POPC   C1A46647  36.746  43.923   6.230
 3477POPC   D2A46648  36.855  44.130   6.634
 3477POPC   C3A46649  36.606  44.080   7.037
 3477POPC   C4A46650  36.905  44.302   7.270
 3477POPC   C1B46651  36.760  43.405   6.156
 3477POPC   C2B46652  36.644  43.472   6.583
 3477POPC   C3B46653  36.882  43.677   6.898
 3477POPC   C4B46654  37.082  43.797   7.300
 3478POPC   NC346655   1.406   7.427   5.122
 3478POPC   PO446656   1.543   7.587   5.712
 3478POPC   GL146657   1.340   7.382   6.093
 3478POPC   GL246658   1.183   7.024   6.071
 3478POPC   C1A46659   1.198   7.409   6.492
 3478POPC   D2A46660   1.251   7.682   6.834
 3478POPC   C3A46661   1.112   7.528   7.212
 3478POPC   C4A46662   1.209   7.583   7.638
 3478POPC   C1B46663   1.461   6.964   6.438
 3478POPC   C2B46664   1.487   7.175   6.850
 3478POPC   C3B46665   1.516   7.219   7.287
 3478POPC   C4B46666   1.385   7.104   7.752
 3479POPC   NC346667  42.870  44.170   5.536
 3479POPC   PO446668  43.137  43.519   5.490
 3479POPC   GL146669  42.971  43.724   5.831
 3479POPC   GL246670  43.152  44.042   5.943
 3479POPC   C1A46671  43.002  43.663   6.261
 3479POPC   D2A46672  43.215  43.948   6.523
 3479POPC   C3A46673  43.002  43.917   6.939
 3479POPC   C4A46674  42.897  43.862   7.374
 3479POPC   C1B46675  43.527  44.221   6.133
 3479POPC   C2B46676  43.702  44.198   6.550
 3479POPC   C3B46677  43.456  44.187   6.898
 3479POPC   C4B46678  43.341  44.104   7.286
 3480POPC   NC346679  31.223  44.314   5.194
 3480POPC   PO446680  31.584  43.732   5.419
 3480POPC   GL146681  31.608  43.742   5.825
 3480POPC   GL246682  31.239  43.663   5.853
 3480POPC   C1A46683  31.764  43.734   6.211
 3480POPC   D2A46684  31.698  43.576   6.604
 3480POPC   C3A46685  31.777  43.850   6.968
 3480POPC   C4A46686  31.532  44.069   7.274
 3480POPC   C1B46687  31.224  43.849   6.277
 3480POPC   C2B46688  31.318  43.917   6.716
 3480POPC   C3B46689  31.058  43.844   7.060
 3480POPC   C4B46690  31.048  44.057   7.467
 3481POPC   NC346691  23.049  38.216   5.405
 3481POPC   PO446692  22.398  38.455   5.492
 3481POPC   GL146693  22.779  38.536   5.736
 3481POPC   GL246694  22.761  38.211   5.847
 3481POPC   C1A46695  23.138  38.488   6.057
 3481POPC   D2A46696  23.044  38.206   6.393
 3481POPC   C3A46697  23.108  38.217   6.855
 3481POPC   C4A46698  23.079  38.531   7.191
 3481POPC   C1B46699  22.557  38.086   6.213
 3481POPC   C2B46700  22.632  38.123   6.670
 3481POPC   C3B46701  22.662  38.182   7.124
 3481POPC   C4B46702  22.502  37.942   7.501
 3482POPC   NC346703   3.352  17.798   5.479
 3482POPC   PO446704   3.788  17.293   5.229
 3482POPC   GL146705   3.865  17.380   5.706
 3482POPC   GL246706   3.841  17.046   5.866
 3482POPC   C1A46707   3.765  17.466   6.185
 3482POPC   D2A46708   3.348  17.546   6.432
 3482POPC   C3A46709   3.294  17.814   6.821
 3482POPC   C4A46710   3.480  17.813   7.239
 3482POPC   C1B46711   3.648  16.990   6.302
 3482POPC   C2B46712   3.629  17.209   6.700
 3482POPC   C3B46713   3.444  17.352   7.071
 3482POPC   C4B46714   3.707  17.391   7.440
 3483POPC   NC346715  20.412  34.043   5.737
 3483POPC   PO446716  20.080  33.544   5.412
 3483POPC   GL146717  19.910  33.773   5.758
 3483POPC   GL246718  19.824  34.121   5.696
 3483POPC   C1A46719  19.985  33.735   6.196
 3483POPC   D2A46720  19.876  33.526   6.563
 3483POPC   C3A46721  19.998  33.708   6.950
 3483POPC   C4A46722  19.816  33.969   7.253
 3483POPC   C1B46723  19.713  34.181   6.151
 3483POPC   C2B46724  19.961  34.118   6.567
 3483POPC   C3B46725  20.172  34.234   6.978
 3483POPC   C4B46726  20.220  34.241   7.451
 3484POPC   NC346727  37.033   2.974   5.692
 3484POPC   PO446728  36.936   3.533   5.285
 3484POPC   GL146729  36.878   3.490   5.732
 3484POPC   GL246730  37.163   3.421   5.914
 3484POPC   C1A46731  36.753   3.525   6.192
 3484POPC   D2A46732  36.739   3.332   6.625
 3484POPC   C3A46733  36.780   3.606   6.998
 3484POPC   C4A46734  36.669   3.715   7.436
 3484POPC   C1B46735  37.197   3.294   6.361
 3484POPC   C2B46736  37.229   3.295   6.820
 3484POPC   C3B46737  37.509   3.319   7.169
 3484POPC   C4B46738  37.379   3.270   7.630
 3485POPC   NC346739  36.462  23.301   5.069
 3485POPC   PO446740  36.919  22.909   5.358
 3485POPC   GL146741  36.960  22.913   5.799
 3485POPC   GL246742  36.755  22.607   5.840
 3485POPC   C1A46743  36.795  23.129   6.173
 3485POPC   D2A46744  36.674  22.980   6.569
 3485POPC   C3A46745  36.830  23.139   6.944
 3485POPC   C4A46746  36.696  22.979   7.294
 3485POPC   C1B46747  36.955  22.622   6.270
 3485POPC   C2B46748  37.109  22.762   6.688
 3485POPC   C3B46749  37.136  22.763   7.124
 3485POPC   C4B46750  36.916  22.504   7.387
 3486POPC   NC346751  18.332  40.248   5.402
 3486POPC   PO446752  18.186  39.661   5.386
 3486POPC   GL146753  18.314  39.851   5.815
 3486POPC   GL246754  18.355  40.209   5.902
 3486POPC   C1A46755  18.275  39.861   6.296
 3486POPC   D2A46756  17.982  40.034   6.642
 3486POPC   C3A46757  18.040  39.784   7.011
 3486POPC   C4A46758  18.403  39.661   7.228
 3486POPC   C1B46759  18.182  40.365   6.292
 3486POPC   C2B46760  18.442  40.250   6.666
 3486POPC   C3B46761  18.365  40.190   7.102
 3486POPC   C4B46762  18.447  40.333   7.541
 3487POPC   NC346763  39.258  12.277   5.626
 3487POPC   PO446764  38.730  11.808   5.441
 3487POPC   GL146765  38.937  11.902   5.821
 3487POPC   GL246766  38.905  12.213   5.967
 3487POPC   C1A46767  39.163  11.770   6.192
 3487POPC   D2A46768  39.386  11.666   6.584
 3487POPC   C3A46769  39.385  12.027   6.878
 3487POPC   C4A46770  39.238  12.062   7.285
 3487POPC   C1B46771  38.863  12.252   6.367
 3487POPC   C2B46772  38.986  12.367   6.758
 3487POPC   C3B46773  39.029  12.508   7.156
 3487POPC   C4B46774  39.156  12.471   7.566
 3488POPC   NC346775  13.297  10.631   5.621
 3488POPC   PO446776  12.754  10.297   5.495
 3488POPC   GL146777  12.880  10.371   5.893
 3488POPC   GL246778  12.833  10.730   5.844
 3488POPC   C1A46779  12.838  10.201   6.319
 3488POPC   D2A46780  12.826  10.388   6.696
 3488POPC   C3A46781  12.932  10.342   7.103
 3488POPC   C4A46782  12.696  10.534   7.442
 3488POPC   C1B46783  12.845  10.712   6.284
 3488POPC   C2B46784  13.098  10.813   6.633
 3488POPC   C3B46785  12.939  10.855   7.048
 3488POPC   C4B46786  13.156  10.794   7.400
 3489POPC   NC346787   4.444  27.201   5.595
 3489POPC   PO446788   3.969  26.883   5.664
 3489POPC   GL146789   4.248  26.971   6.023
 3489POPC   GL246790   4.580  26.837   5.980
 3489POPC   C1A46791   4.359  26.962   6.473
 3489POPC   D2A46792   4.196  26.791   6.886
 3489POPC   C3A46793   4.084  27.051   7.240
 3489POPC   C4A46794   4.123  26.988   7.687
 3489POPC   C1B46795   4.842  26.791   6.373
 3489POPC   C2B46796   4.811  26.913   6.819
 3489POPC   C3B46797   4.640  27.048   7.215
 3489POPC   C4B46798   4.678  26.976   7.670
 3490POPC   NC346799  20.698  38.641   5.413
 3490POPC   PO446800  20.922  38.068   5.276
 3490POPC   GL146801  20.729  38.316   5.775
 3490POPC   GL246802  20.493  38.613   5.901
 3490POPC   C1A46803  20.797  38.447   6.239
 3490POPC   D2A46804  20.602  38.292   6.648
 3490POPC   C3A46805  20.784  38.449   7.049
 3490POPC   C4A46806  20.765  38.486   7.513
 3490POPC   C1B46807  20.304  38.587   6.327
 3490POPC   C2B46808  20.440  38.782   6.753
 3490POPC   C3B46809  20.378  38.698   7.215
 3490POPC   C4B46810  20.310  38.747   7.651
 3491POPC   NC346811  13.254  24.545   5.497
 3491POPC   PO446812  12.676  24.213   5.362
 3491POPC   GL146813  12.763  24.447   5.747
 3491POPC   GL246814  12.933  24.246   5.995
 3491POPC   C1A46815  12.921  24.735   6.083
 3491POPC   D2A46816  13.107  24.763   6.460
 3491POPC   C3A46817  12.950  24.475   6.773
 3491POPC   C4A46818  12.899  24.591   7.197
 3491POPC   C1B46819  12.536  24.398   6.234
 3491POPC   C2B46820  12.438  24.367   6.703
 3491POPC   C3B46821  12.525  24.255   7.142
 3491POPC   C4B46822  12.890  24.165   7.449
 3492POPC   NC346823  11.597  25.999   5.437
 3492POPC   PO446824  11.078  25.496   5.422
 3492POPC   GL146825  11.222  25.829   5.747
 3492POPC   GL246826  11.025  26.134   5.709
 3492POPC   C1A46827  11.435  26.015   6.120
 3492POPC   D2A46828  11.402  26.342   6.454
 3492POPC   C3A46829  11.453  26.265   6.902
 3492POPC   C4A46830  11.427  25.901   7.174
 3492POPC   C1B46831  10.946  26.200   6.150
 3492POPC   C2B46832  10.966  26.097   6.576
 3492POPC   C3B46833  10.932  26.267   6.957
 3492POPC   C4B46834  11.112  26.402   7.329
 3493POPC   NC346835  10.104   8.173   5.446
 3493POPC   PO446836  10.793   8.395   5.541
 3493POPC   GL146837  10.592   8.296   5.913
 3493POPC   GL246838  10.380   7.980   5.868
 3493POPC   C1A46839  10.702   8.423   6.333
 3493POPC   D2A46840  10.944   8.342   6.675
 3493POPC   C3A46841  10.702   8.537   6.956
 3493POPC   C4A46842  10.544   8.322   7.302
 3493POPC   C1B46843  10.310   8.086   6.314
 3493POPC   C2B46844  10.462   8.146   6.747
 3493POPC   C3B46845  10.668   7.877   7.075
 3493POPC   C4B46846  10.725   7.897   7.535
 3494POPC   NC346847   9.332  43.853   5.646
 3494POPC   PO446848   8.849  43.713   5.295
 3494POPC   GL146849   8.888  44.096   5.591
 3494POPC   GL246850   8.687  43.922   5.787
 3494POPC   C1A46851   8.928  44.262   6.058
 3494POPC   D2A46852   8.771  44.037   6.474
 3494POPC   C3A46853   8.943  44.088   6.891
 3494POPC   C4A46854   8.839  43.852   7.260
 3494POPC   C1B46855   8.945  43.728   6.127
 3494POPC   C2B46856   9.015  43.577   6.551
 3494POPC   C3B46857   9.088  43.461   6.989
 3494POPC   C4B46858   9.052  43.434   7.467
 3495POPC   NC346859  34.444  41.341   5.435
 3495POPC   PO446860  35.032  41.561   5.272
 3495POPC   GL146861  34.775  41.640   5.668
 3495POPC   GL246862  34.771  41.306   5.839
 3495POPC   C1A46863  34.663  41.831   6.092
 3495POPC   D2A46864  34.397  41.801   6.506
 3495POPC   C3A46865  34.594  41.628   6.891
 3495POPC   C4A46866  34.705  41.480   7.321
 3495POPC   C1B46867  34.639  41.358   6.282
 3495POPC   C2B46868  34.347  41.256   6.606
 3495POPC   C3B46869  34.182  41.103   6.988
 3495POPC   C4B46870  34.212  41.217   7.433
 3496POPC   NC346871  10.133  18.682   5.609
 3496POPC   PO446872   9.727  19.237   5.516
 3496POPC   GL146873   9.515  19.166   5.869
 3496POPC   GL246874   9.668  18.858   5.880
 3496POPC   C1A46875   9.379  19.240   6.290
 3496POPC   D2A46876   9.204  19.106   6.702
 3496POPC   C3A46877   9.309  19.447   7.028
 3496POPC   C4A46878   9.617  19.413   7.361
 3496POPC   C1B46879   9.832  18.990   6.279
 3496POPC   C2B46880   9.728  19.163   6.693
 3496POPC   C3B46881   9.744  18.963   7.091
 3496POPC   C4B46882  10.017  19.106   7.420
 3497POPC   NC346883  42.938  24.987   5.334
 3497POPC   PO446884  43.259  25.603   5.380
 3497POPC   GL146885  43.192  25.303   5.683
 3497POPC   GL246886  43.391  25.025   5.626
 3497POPC   C1A46887  43.001  25.256   6.085
 3497POPC   D2A46888  42.772  25.317   6.473
 3497POPC   C3A46889  42.916  25.082   6.830
 3497POPC   C4A46890  43.024  25.228   7.210
 3497POPC   C1B46891  43.510  25.158   6.081
 3497POPC   C2B46892  43.327  25.240   6.519
 3497POPC   C3B46893  43.487  25.098   6.924
 3497POPC   C4B46894  43.323  24.793   7.206
 3498POPC   NC346895  34.109  39.831   5.403
 3498POPC   PO446896  33.751  40.355   5.377
 3498POPC   GL146897  33.755  40.079   5.743
 3498POPC   GL246898  33.780  39.690   5.789
 3498POPC   C1A46899  33.545  40.004   6.132
 3498POPC   D2A46900  33.697  39.995   6.562
 3498POPC   C3A46901  33.576  40.098   6.972
 3498POPC   C4A46902  33.695  39.945   7.379
 3498POPC   C1B46903  33.794  39.578   6.264
 3498POPC   C2B46904  33.956  39.542   6.706
 3498POPC   C3B46905  33.899  39.550   7.152
 3498POPC   C4B46906  33.946  39.583   7.644
 3499POPC   NC346907  12.485  28.942   5.415
 3499POPC   PO446908  11.828  28.855   5.412
 3499POPC   GL146909  12.068  29.102   5.742
 3499POPC   GL246910  12.395  29.111   5.881
 3499POPC   C1A46911  12.027  29.241   6.188
 3499POPC   D2A46912  12.224  29.231   6.610
 3499POPC   C3A46913  11.971  29.220   6.950
 3499POPC   C4A46914  12.043  29.229   7.349
 3499POPC   C1B46915  12.455  28.911   6.256
 3499POPC   C2B46916  12.399  28.752   6.665
 3499POPC   C3B46917  12.323  28.873   7.093
 3499POPC   C4B46918  12.327  28.894   7.559
 3500POPC   NC346919  44.388   4.595   5.245
 3500POPC   PO446920  43.924   4.084   5.218
 3500POPC   GL146921  44.033   4.376   5.622
 3500POPC   GL246922  43.768   4.202   5.796
 3500POPC   C1A46923  44.117   4.389   6.123
 3500POPC   D2A46924  43.861   4.147   6.481
 3500POPC   C3A46925  44.003   4.158   6.915
 3500POPC   C4A46926  44.072   4.563   7.045
 3500POPC   C1B46927  43.603   4.451   6.147
 3500POPC   C2B46928  43.392   4.412   6.519
 3500POPC   C3B46929  43.597   4.524   6.844
 3500POPC   C4B46930  43.582   4.439   7.233
 3501POPC   NC346931  17.854  17.966   5.338
 3501POPC   PO446932  17.335  18.431   5.334
 3501POPC   GL146933  17.463  18.202   5.649
 3501POPC   GL246934  17.799  18.212   5.792
 3501POPC   C1A46935  17.366  18.289   6.078
 3501POPC   D2A46936  17.436  18.192   6.529
 3501POPC   C3A46937  17.108  18.259   6.823
 3501POPC   C4A46938  17.110  18.304   7.265
 3501POPC   C1B46939  17.828  18.432   6.214
 3501POPC   C2B46940  17.749  18.581   6.658
 3501POPC   C3B46941  17.566  18.455   7.056
 3501POPC   C4B46942  17.486  18.603   7.507
 3502POPC   NC346943  15.244  10.203   5.548
 3502POPC   PO446944  15.051   9.637   5.187
 3502POPC   GL146945  15.290   9.690   5.617
 3502POPC   GL246946  15.281   9.340   5.686
 3502POPC   C1A46947  15.230   9.851   6.093
 3502POPC   D2A46948  14.962   9.817   6.455
 3502POPC   C3A46949  15.055   9.865   6.865
 3502POPC   C4A46950  15.190  10.173   7.171
 3502POPC   C1B46951  15.490   9.419   6.054
 3502POPC   C2B46952  15.360   9.483   6.480
 3502POPC   C3B46953  15.481   9.567   6.878
 3502POPC   C4B46954  15.264   9.672   7.276
 3503POPC   NC346955  22.820  43.128   5.447
 3503POPC   PO446956  23.426  43.419   5.417
 3503POPC   GL146957  23.188  43.318   5.764
 3503POPC   GL246958  23.221  42.973   5.753
 3503POPC   C1A46959  22.856  43.241   6.080
 3503POPC   D2A46960  22.730  43.286   6.501
 3503POPC   C3A46961  22.791  43.088   6.889
 3503POPC   C4A46962  22.878  43.319   7.251
 3503POPC   C1B46963  23.313  43.035   6.196
 3503POPC   C2B46964  23.199  42.916   6.598
 3503POPC   C3B46965  23.288  43.074   6.995
 3503POPC   C4B46966  23.050  42.841   7.286
 3504POPC   NC346967  21.717   2.771   5.448
 3504POPC   PO446968  21.098   3.015   5.340
 3504POPC   GL146969  21.267   2.839   5.740
 3504POPC   GL246970  21.201   2.547   5.958
 3504POPC   C1A46971  21.401   2.973   6.165
 3504POPC   D2A46972  21.302   3.119   6.579
 3504POPC   C3A46973  21.351   2.845   6.941
 3504POPC   C4A46974  21.329   2.657   7.380
 3504POPC   C1B46975  21.612   2.506   6.189
 3504POPC   C2B46976  21.768   2.732   6.551
 3504POPC   C3B46977  21.810   2.621   6.987
 3504POPC   C4B46978  21.657   2.322   7.209
 3505POPC   NC346979   7.725   9.588   5.368
 3505POPC   PO446980   7.109   9.817   5.213
 3505POPC   GL146981   7.288   9.762   5.637
 3505POPC   GL246982   7.395   9.416   5.741
 3505POPC   C1A46983   7.343   9.886   6.076
 3505POPC   D2A46984   7.324   9.745   6.506
 3505POPC   C3A46985   7.544   9.905   6.859
 3505POPC   C4A46986   7.311   9.950   7.260
 3505POPC   C1B46987   7.569   9.422   6.179
 3505POPC   C2B46988   7.712   9.412   6.635
 3505POPC   C3B46989   7.565   9.448   7.096
 3505POPC   C4B46990   7.808   9.332   7.517
 3506POPC   NC346991  15.996  19.052   5.341
 3506POPC   PO446992  15.715  19.415   5.475
 3506POPC   GL146993  15.831  19.113   5.837
 3506POPC   GL246994  15.873  18.741   5.766
 3506POPC   C1A46995  16.026  19.179   6.268
 3506POPC   D2A46996  15.893  19.301   6.703
 3506POPC   C3A46997  15.984  19.073   7.110
 3506POPC   C4A46998  16.319  18.890   7.404
 3506POPC   C1B46999  15.821  18.717   6.246
 3506POPC   C2B47000  16.061  18.782   6.657
 3506POPC   C3B47001  16.071  18.561   7.080
 3506POPC   C4B47002  15.835  18.681   7.452
 3507POPC   NC347003  24.469  24.606   5.009
 3507POPC   PO447004  24.574  24.365   5.428
 3507POPC   GL147005  24.340  24.374   5.865
 3507POPC   GL247006  24.202  24.715   5.959
 3507POPC   C1A47007  24.343  24.413   6.349
 3507POPC   D2A47008  24.482  24.617   6.742
 3507POPC   C3A47009  24.500  24.387   7.146
 3507POPC   C4A47010  24.720  24.085   7.454
 3507POPC   C1B47011  24.420  24.939   6.331
 3507POPC   C2B47012  24.432  25.136   6.754
 3507POPC   C3B47013  24.570  24.925   7.147
 3507POPC   C4B47014  24.320  24.744   7.494
 3508POPC   NC347015  17.678  26.480   5.467
 3508POPC   PO447016  17.893  27.045   5.188
 3508POPC   GL147017  17.787  26.956   5.675
 3508POPC   GL247018  17.546  26.715   5.874
 3508POPC   C1A47019  17.851  26.975   6.161
 3508POPC   D2A47020  17.672  26.983   6.598
 3508POPC   C3A47021  17.897  26.992   6.987
 3508POPC   C4A47022  17.682  26.752   7.295
 3508POPC   C1B47023  17.318  26.858   6.219
 3508POPC   C2B47024  17.107  26.853   6.611
 3508POPC   C3B47025  17.212  26.808   7.034
 3508POPC   C4B47026  17.347  26.393   7.144
 3509POPC   NC347027  21.393  12.246   5.408
 3509POPC   PO447028  21.600  11.619   5.376
 3509POPC   GL147029  21.465  11.901   5.760
 3509POPC   GL247030  21.703  12.086   5.819
 3509POPC   C1A47031  21.309  12.156   6.177
 3509POPC   D2A47032  21.108  12.207   6.583
 3509POPC   C3A47033  21.235  11.964   6.935
 3509POPC   C4A47034  21.351  12.130   7.319
 3509POPC   C1B47035  21.799  12.282   6.212
 3509POPC   C2B47036  21.615  12.194   6.613
 3509POPC   C3B47037  21.774  12.017   6.987
 3509POPC   C4B47038  21.834  11.971   7.441
 3510POPC   NC347039  31.654   7.214   5.431
 3510POPC   PO447040  31.458   7.783   5.228
 3510POPC   GL147041  31.463   7.673   5.681
 3510POPC   GL247042  31.267   7.350   5.745
 3510POPC   C1A47043  31.653   7.531   6.092
 3510POPC   D2A47044  31.498   7.296   6.438
 3510POPC   C3A47045  31.677   7.471   6.805
 3510POPC   C4A47046  31.658   7.305   7.220
 3510POPC   C1B47047  31.156   7.564   6.147
 3510POPC   C2B47048  31.259   7.713   6.588
 3510POPC   C3B47049  31.233   7.537   7.020
 3510POPC   C4B47050  31.104   7.731   7.372
 3511POPC   NC347051  36.510  40.678   5.454
 3511POPC   PO447052  37.197  40.939   5.385
 3511POPC   GL147053  37.060  41.032   5.804
 3511POPC   GL247054  36.774  40.808   5.880
 3511POPC   C1A47055  37.096  40.894   6.259
 3511POPC   D2A47056  36.852  40.800   6.635
 3511POPC   C3A47057  37.018  40.615   7.011
 3511POPC   C4A47058  37.196  40.831   7.357
 3511POPC   C1B47059  36.725  40.482   6.236
 3511POPC   C2B47060  36.676  40.263   6.665
 3511POPC   C3B47061  36.410  40.351   7.042
 3511POPC   C4B47062  36.620  40.569   7.378
 3512POPC   NC347063  28.939  24.020   5.541
 3512POPC   PO447064  28.847  23.419   5.362
 3512POPC   GL147065  28.999  23.598   5.814
 3512POPC   GL247066  29.329  23.801   5.821
 3512POPC   C1A47067  28.993  23.882   6.216
 3512POPC   D2A47068  28.953  23.695   6.649
 3512POPC   C3A47069  29.098  23.852   7.072
 3512POPC   C4A47070  29.039  23.798   7.543
 3512POPC   C1B47071  29.435  23.629   6.257
 3512POPC   C2B47072  29.476  23.764   6.686
 3512POPC   C3B47073  29.532  23.548   7.069
 3512POPC   C4B47074  29.438  23.460   7.508
 3513POPC   NC347075  36.284  12.987   5.396
 3513POPC   PO447076  35.857  12.598   5.562
 3513POPC   GL147077  36.078  12.872   5.855
 3513POPC   GL247078  36.445  13.009   5.895
 3513POPC   C1A47079  36.106  13.064   6.258
 3513POPC   D2A47080  36.331  12.901   6.601
 3513POPC   C3A47081  35.976  12.692   6.814
 3513POPC   C4A47082  35.703  12.791   7.150
 3513POPC   C1B47083  36.380  12.579   6.134
 3513POPC   C2B47084  36.354  12.386   6.548
 3513POPC   C3B47085  36.438  12.545   6.973
 3513POPC   C4B47086  36.322  12.960   7.128
 3514POPC   NC347087   1.939  32.151   5.368
 3514POPC   PO447088   2.351  32.643   5.399
 3514POPC   GL147089   2.172  32.382   5.769
 3514POPC   GL247090   1.791  32.333   5.833
 3514POPC   C1A47091   2.094  32.414   6.236
 3514POPC   D2A47092   2.148  32.210   6.636
 3514POPC   C3A47093   2.162  32.333   7.069
 3514POPC   C4A47094   2.166  32.116   7.478
 3514POPC   C1B47095   1.640  32.013   6.160
 3514POPC   C2B47096   1.737  31.930   6.555
 3514POPC   C3B47097   1.693  32.132   6.927
 3514POPC   C4B47098   1.530  31.821   7.166
 3515POPC   NC347099   6.861   8.021   5.508
 3515POPC   PO447100   6.321   7.684   5.273
 3515POPC   GL147101   6.388   8.103   5.642
 3515POPC   GL247102   6.667   8.397   5.759
 3515POPC   C1A47103   6.481   8.126   6.129
 3515POPC   D2A47104   6.367   7.908   6.499
 3515POPC   C3A47105   6.484   8.093   6.870
 3515POPC   C4A47106   6.401   8.003   7.284
 3515POPC   C1B47107   6.772   8.565   6.137
 3515POPC   C2B47108   6.597   8.627   6.540
 3515POPC   C3B47109   6.801   8.494   6.890
 3515POPC   C4B47110   6.874   8.288   7.286
 3516POPC   NC347111  20.740  18.002   5.445
 3516POPC   PO447112  20.604  18.641   5.369
 3516POPC   GL147113  20.669  18.403   5.782
 3516POPC   GL247114  20.928  18.150   5.892
 3516POPC   C1A47115  20.682  18.477   6.225
 3516POPC   D2A47116  20.507  18.297   6.595
 3516POPC   C3A47117  20.707  18.429   6.985
 3516POPC   C4A47118  20.888  18.216   7.347
 3516POPC   C1B47119  20.570  17.972   6.129
 3516POPC   C2B47120  20.518  17.782   6.530
 3516POPC   C3B47121  20.672  17.905   6.937
 3516POPC   C4B47122  20.642  17.756   7.351
 3517POPC   NC347123  37.727   4.489   5.438
 3517POPC   PO447124  37.762   3.835   5.343
 3517POPC   GL147125  37.834   4.073   5.721
 3517POPC   GL247126  37.456   4.159   5.760
 3517POPC   C1A47127  37.816   4.141   6.159
 3517POPC   D2A47128  37.783   4.512   6.410
 3517POPC   C3A47129  37.904   4.491   6.852
 3517POPC   C4A47130  38.057   4.624   7.269
 3517POPC   C1B47131  37.330   4.331   6.171
 3517POPC   C2B47132  37.437   4.183   6.586
 3517POPC   C3B47133  37.336   4.365   6.976
 3517POPC   C4B47134  37.594   4.438   7.283
 3518POPC   NC347135   0.624   2.397   5.430
 3518POPC   PO447136   0.229   1.914   5.260
 3518POPC   GL147137   0.372   1.869   5.735
 3518POPC   GL247138   0.687   2.087   5.828
 3518POPC   C1A47139   0.336   2.013   6.180
 3518POPC   D2A47140   0.192   2.135   6.594
 3518POPC   C3A47141   0.279   1.840   6.910
 3518POPC   C4A47142   0.602   1.793   7.152
 3518POPC   C1B47143   0.820   2.224   6.247
 3518POPC   C2B47144   0.784   2.293   6.694
 3518POPC   C3B47145   0.463   2.301   7.027
 3518POPC   C4B47146   0.520   2.212   7.464
 3519POPC   NC347147  21.527  15.681   5.359
 3519POPC   PO447148  21.069  16.240   5.498
 3519POPC   GL147149  21.262  16.106   5.861
 3519POPC   GL247150  21.564  15.899   5.843
 3519POPC   C1A47151  21.321  16.213   6.273
 3519POPC   D2A47152  21.535  16.189   6.655
 3519POPC   C3A47153  21.267  16.015   6.951
 3519POPC   C4A47154  21.081  16.135   7.301
 3519POPC   C1B47155  21.517  15.731   6.296
 3519POPC   C2B47156  21.612  15.670   6.745
 3519POPC   C3B47157  21.493  15.594   7.182
 3519POPC   C4B47158  21.604  15.580   7.626
 3520POPC   NC347159   7.659  43.447   5.348
 3520POPC   PO447160   7.196  42.913   5.398
 3520POPC   GL147161   7.390  43.051   5.769
 3520POPC   GL247162   7.345  43.386   5.766
 3520POPC   C1A47163   7.264  43.114   6.202
 3520POPC   D2A47164   7.400  42.945   6.558
 3520POPC   C3A47165   7.144  42.953   6.875
 3520POPC   C4A47166   7.215  43.064   7.272
 3520POPC   C1B47167   7.539  43.535   6.159
 3520POPC   C2B47168   7.352  43.482   6.571
 3520POPC   C3B47169   7.119  43.476   6.955
 3520POPC   C4B47170   7.327  43.567   7.314
 3521POPC   NC347171  22.365  16.201   5.463
 3521POPC   PO447172  22.379  16.882   5.540
 3521POPC   GL147173  22.261  16.610   5.837
 3521POPC   GL247174  21.961  16.407   5.767
 3521POPC   C1A47175  22.369  16.787   6.225
 3521POPC   D2A47176  22.407  16.955   6.633
 3521POPC   C3A47177  22.018  16.906   6.835
 3521POPC   C4A47178  21.970  16.884   7.262
 3521POPC   C1B47179  22.133  16.256   6.181
 3521POPC   C2B47180  22.204  16.464   6.581
 3521POPC   C3B47181  22.202  16.451   7.012
 3521POPC   C4B47182  21.786  16.407   7.164
 3522POPC   NC347183  34.332  27.972   5.377
 3522POPC   PO447184  34.508  27.364   5.387
 3522POPC   GL147185  34.418  27.622   5.786
 3522POPC   GL247186  34.604  27.957   5.833
 3522POPC   C1A47187  34.460  27.677   6.255
 3522POPC   D2A47188  34.670  27.579   6.636
 3522POPC   C3A47189  34.497  27.274   6.883
 3522POPC   C4A47190  34.387  27.226   7.344
 3522POPC   C1B47191  34.523  28.189   6.242
 3522POPC   C2B47192  34.751  28.212   6.638
 3522POPC   C3B47193  34.922  27.919   6.916
 3522POPC   C4B47194  34.681  27.631   7.186
 3523POPC   NC347195   5.526   4.500   5.220
 3523POPC   PO447196   6.162   4.339   5.341
 3523POPC   GL147197   6.287   4.190   5.797
 3523POPC   GL247198   5.992   4.164   5.958
 3523POPC   C1A47199   6.371   4.186   6.252
 3523POPC   D2A47200   6.175   4.406   6.579
 3523POPC   C3A47201   6.149   4.259   7.025
 3523POPC   C4A47202   5.904   4.496   7.352
 3523POPC   C1B47203   5.733   4.323   6.284
 3523POPC   C2B47204   5.740   4.180   6.715
 3523POPC   C3B47205   5.612   4.146   7.113
 3523POPC   C4B47206   5.222   3.970   7.144
 3524POPC   NC347207  19.805   0.933   5.437
 3524POPC   PO447208  19.769   1.629   5.521
 3524POPC   GL147209  19.667   1.356   5.829
 3524POPC   GL247210  19.527   1.649   5.980
 3524POPC   C1A47211  19.928   1.129   6.100
 3524POPC   D2A47212  20.074   1.050   6.494
 3524POPC   C3A47213  19.830   1.030   6.872
 3524POPC   C4A47214  19.981   0.790   7.230
 3524POPC   C1B47215  19.913   1.635   6.247
 3524POPC   C2B47216  19.904   1.551   6.677
 3524POPC   C3B47217  19.861   1.492   7.104
 3524POPC   C4B47218  19.483   1.340   7.178
 3525POPC   NC347219  14.688  33.783   5.421
 3525POPC   PO447220  13.950  33.807   5.378
 3525POPC   GL147221  14.258  33.894   5.727
 3525POPC   GL247222  14.453  33.605   5.875
 3525POPC   C1A47223  14.273  34.049   6.178
 3525POPC   D2A47224  14.110  34.023   6.629
 3525POPC   C3A47225  14.281  33.885   7.055
 3525POPC   C4A47226  14.292  34.075   7.502
 3525POPC   C1B47227  14.343  33.578   6.362
 3525POPC   C2B47228  14.298  33.396   6.785
 3525POPC   C3B47229  14.513  33.444   7.200
 3525POPC   C4B47230  14.588  33.380   7.672
 3526POPC   NC347231   6.151  43.522   5.479
 3526POPC   PO447232   5.723  43.140   5.116
 3526POPC   GL147233   5.860  43.155   5.644
 3526POPC   GL247234   5.757  42.854   5.823
 3526POPC   C1A47235   6.008  43.226   6.103
 3526POPC   D2A47236   6.125  43.025   6.521
 3526POPC   C3A47237   6.063  43.275   6.887
 3526POPC   C4A47238   6.162  43.259   7.294
 3526POPC   C1B47239   5.516  42.655   6.145
 3526POPC   C2B47240   5.686  42.584   6.559
 3526POPC   C3B47241   5.808  42.786   6.942
 3526POPC   C4B47242   5.618  42.650   7.302
 3527POPC   NC347243  24.220  40.794   5.444
 3527POPC   PO447244  24.778  40.544   5.655
 3527POPC   GL147245  24.409  40.558   5.871
 3527POPC   GL247246  24.406  40.919   5.911
 3527POPC   C1A47247  24.296  40.590   6.299
 3527POPC   D2A47248  24.435  40.485   6.697
 3527POPC   C3A47249  24.239  40.800   6.920
 3527POPC   C4A47250  24.061  40.949   7.260
 3527POPC   C1B47251  24.647  41.006   6.303
 3527POPC   C2B47252  24.721  40.956   6.754
 3527POPC   C3B47253  24.599  41.080   7.158
 3527POPC   C4B47254  24.837  41.015   7.515
 3528POPC   NC347255  31.178   8.093   5.414
 3528POPC   PO447256  31.844   8.433   5.481
 3528POPC   GL147257  31.575   8.187   5.732
 3528POPC   GL247258  31.577   8.464   5.927
 3528POPC   C1A47259  31.425   8.023   6.171
 3528POPC   D2A47260  31.454   8.216   6.632
 3528POPC   C3A47261  31.479   8.004   7.070
 3528POPC   C4A47262  31.348   8.152   7.521
 3528POPC   C1B47263  31.427   8.628   6.303
 3528POPC   C2B47264  31.451   8.782   6.733
 3528POPC   C3B47265  31.323   8.518   7.109
 3528POPC   C4B47266  30.953   8.453   7.428
 3529POPC   NC347267  39.335  39.453   5.330
 3529POPC   PO447268  38.825  39.084   5.367
 3529POPC   GL147269  39.106  39.170   5.717
 3529POPC   GL247270  39.438  39.308   5.806
 3529POPC   C1A47271  39.042  39.314   6.120
 3529POPC   D2A47272  39.094  39.126   6.493
 3529POPC   C3A47273  39.147  39.410   6.815
 3529POPC   C4A47274  39.060  39.419   7.217
 3529POPC   C1B47275  39.523  39.110   6.221
 3529POPC   C2B47276  39.549  39.104   6.720
 3529POPC   C3B47277  39.478  39.125   7.183
 3529POPC   C4B47278  39.447  39.425   7.567
 3530POPC   NC347279  36.608  24.756   5.404
 3530POPC   PO447280  37.206  24.418   5.497
 3530POPC   GL147281  36.971  24.655   5.781
 3530POPC   GL247282  36.655  24.471   5.828
 3530POPC   C1A47283  37.051  24.558   6.218
 3530POPC   D2A47284  37.275  24.694   6.603
 3530POPC   C3A47285  37.038  24.594   6.922
 3530POPC   C4A47286  37.051  24.835   7.267
 3530POPC   C1B47287  36.631  24.173   6.178
 3530POPC   C2B47288  36.525  24.011   6.584
 3530POPC   C3B47289  36.704  24.107   6.979
 3530POPC   C4B47290  36.715  24.455   7.288
 3531POPC   NC347291  26.372  34.158   5.536
 3531POPC   PO447292  26.033  33.636   5.391
 3531POPC   GL147293  26.060  33.772   5.801
 3531POPC   GL247294  25.781  34.018   5.842
 3531POPC   C1A47295  25.923  33.650   6.215
 3531POPC   D2A47296  25.903  33.813   6.622
 3531POPC   C3A47297  26.111  33.797   7.029
 3531POPC   C4A47298  25.994  33.725   7.483
 3531POPC   C1B47299  25.693  34.167   6.249
 3531POPC   C2B47300  25.694  34.268   6.674
 3531POPC   C3B47301  25.718  34.120   7.118
 3531POPC   C4B47302  25.679  34.114   7.583
 3532POPC   NC347303   9.109   8.072   5.435
 3532POPC   PO447304   8.534   8.514   5.413
 3532POPC   GL147305   8.795   8.327   5.774
 3532POPC   GL247306   8.856   7.954   5.876
 3532POPC   C1A47307   8.939   8.363   6.216
 3532POPC   D2A47308   9.034   8.563   6.610
 3532POPC   C3A47309   8.754   8.384   6.877
 3532POPC   C4A47310   8.667   8.530   7.260
 3532POPC   C1B47311   8.962   7.660   6.236
 3532POPC   C2B47312   9.096   7.525   6.669
 3532POPC   C3B47313   9.148   7.793   7.052
 3532POPC   C4B47314   9.038   8.189   7.250
 3533POPC   NC347315  30.143  18.655   5.209
 3533POPC   PO447316  29.657  19.078   5.366
 3533POPC   GL147317  29.855  19.149   5.766
 3533POPC   GL247318  30.128  19.388   5.770
 3533POPC   C1A47319  29.817  19.111   6.204
 3533POPC   D2A47320  29.728  18.889   6.552
 3533POPC   C3A47321  29.719  19.135   6.914
 3533POPC   C4A47322  29.762  18.967   7.311
 3533POPC   C1B47323  30.280  19.356   6.204
 3533POPC   C2B47324  30.177  19.130   6.613
 3533POPC   C3B47325  30.198  19.216   7.061
 3533POPC   C4B47326  30.167  19.311   7.529
 3534POPC   NC347327  10.424  38.194   5.391
 3534POPC   PO447328  10.691  38.783   5.438
 3534POPC   GL147329  10.742  38.468   5.720
 3534POPC   GL247330  10.463  38.596   5.874
 3534POPC   C1A47331  10.760  38.264   6.150
 3534POPC   D2A47332  10.786  38.115   6.576
 3534POPC   C3A47333  10.559  38.352   6.877
 3534POPC   C4A47334  10.273  38.305   7.215
 3534POPC   C1B47335  10.830  38.768   6.136
 3534POPC   C2B47336  10.767  38.743   6.581
 3534POPC   C3B47337  10.815  38.764   7.021
 3534POPC   C4B47338  10.853  38.585   7.469
 3535POPC   NC347339   7.032  10.956   4.962
 3535POPC   PO447340   6.590  11.371   5.253
 3535POPC   GL147341   6.492  11.478   5.696
 3535POPC   GL247342   6.825  11.452   5.809
 3535POPC   C1A47343   6.449  11.360   6.140
 3535POPC   D2A47344   6.336  11.479   6.539
 3535POPC   C3A47345   6.512  11.374   6.900
 3535POPC   C4A47346   6.356  11.289   7.266
 3535POPC   C1B47347   6.907  11.130   6.167
 3535POPC   C2B47348   6.784  11.016   6.627
 3535POPC   C3B47349   6.735  10.921   7.099
 3535POPC   C4B47350   6.600  10.977   7.571
 3536POPC   NC347351  13.676   7.693   5.477
 3536POPC   PO447352  13.394   7.087   5.344
 3536POPC   GL147353  13.460   7.308   5.767
 3536POPC   GL247354  13.296   7.644   5.822
 3536POPC   C1A47355  13.672   7.203   6.186
 3536POPC   D2A47356  13.621   7.370   6.625
 3536POPC   C3A47357  13.669   7.191   7.039
 3536POPC   C4A47358  13.897   7.523   7.276
 3536POPC   C1B47359  13.294   7.550   6.238
 3536POPC   C2B47360  13.203   7.667   6.649
 3536POPC   C3B47361  13.293   7.562   7.076
 3536POPC   C4B47362  13.238   7.846   7.425
 3537POPC   NC347363  15.223   7.293   5.358
 3537POPC   PO447364  14.524   7.270   5.419
 3537POPC   GL147365  14.907   7.382   5.754
 3537POPC   GL247366  15.189   7.132   5.828
 3537POPC   C1A47367  15.183   7.543   6.141
 3537POPC   D2A47368  15.199   7.462   6.604
 3537POPC   C3A47369  15.280   7.737   6.986
 3537POPC   C4A47370  15.155   7.703   7.449
 3537POPC   C1B47371  15.059   6.984   6.213
 3537POPC   C2B47372  15.184   6.948   6.638
 3537POPC   C3B47373  15.381   7.144   7.016
 3537POPC   C4B47374  15.205   7.198   7.448
 3538POPC   NC347375  29.238  18.860   5.389
 3538POPC   PO447376  28.692  19.285   5.314
 3538POPC   GL147377  29.063  19.280   5.646
 3538POPC   GL247378  29.091  18.948   5.861
 3538POPC   C1A47379  29.362  19.328   6.026
 3538POPC   D2A47380  29.217  19.076   6.393
 3538POPC   C3A47381  29.217  19.132   6.848
 3538POPC   C4A47382  29.324  19.237   7.287
 3538POPC   C1B47383  28.939  18.690   6.186
 3538POPC   C2B47384  28.826  18.527   6.565
 3538POPC   C3B47385  28.987  18.685   6.933
 3538POPC   C4B47386  28.860  18.992   7.222
 3539POPC   NC347387  10.405   5.859   5.359
 3539POPC   PO447388  10.814   6.133   5.751
 3539POPC   GL147389  10.557   5.818   5.908
 3539POPC   GL247390  10.166   5.779   5.812
 3539POPC   C1A47391  10.703   5.793   6.346
 3539POPC   D2A47392  10.990   6.037   6.593
 3539POPC   C3A47393  10.803   6.024   6.991
 3539POPC   C4A47394  10.364   6.166   7.172
 3539POPC   C1B47395  10.240   5.568   6.200
 3539POPC   C2B47396  10.246   5.759   6.603
 3539POPC   C3B47397  10.415   5.688   6.983
 3539POPC   C4B47398  10.374   5.535   7.372
 3540POPC   NC347399   6.508  12.673   5.448
 3540POPC   PO447400   5.845  12.811   5.384
 3540POPC   GL147401   5.819  12.764   5.827
 3540POPC   GL247402   6.156  12.930   5.813
 3540POPC   C1A47403   5.720  12.701   6.308
 3540POPC   D2A47404   5.644  12.655   6.757
 3540POPC   C3A47405   5.744  12.917   7.094
 3540POPC   C4A47406   5.674  12.853   7.547
 3540POPC   C1B47407   6.195  12.638   6.156
 3540POPC   C2B47408   6.165  12.755   6.620
 3540POPC   C3B47409   6.088  12.529   7.003
 3540POPC   C4B47410   6.022  12.513   7.441
 3541POPC   NC347411   1.027  39.478   5.428
 3541POPC   PO447412   1.357  38.959   5.191
 3541POPC   GL147413   1.357  38.885   5.685
 3541POPC   GL247414   1.045  39.024   5.799
 3541POPC   C1A47415   1.435  39.020   6.160
 3541POPC   D2A47416   1.356  39.332   6.536
 3541POPC   C3A47417   1.278  39.239   6.973
 3541POPC   C4A47418   1.376  38.796   7.045
 3541POPC   C1B47419   1.021  39.339   6.133
 3541POPC   C2B47420   0.857  39.247   6.557
 3541POPC   C3B47421   0.913  38.886   6.824
 3541POPC   C4B47422   0.828  39.019   7.251
 3542POPC   NC347423   2.387  20.701   5.046
 3542POPC   PO447424   1.850  20.507   5.387
 3542POPC   GL147425   1.849  20.693   5.819
 3542POPC   GL247426   1.566  20.851   5.875
 3542POPC   C1A47427   2.081  20.758   6.229
 3542POPC   D2A47428   2.229  20.466   6.575
 3542POPC   C3A47429   2.026  20.377   7.000
 3542POPC   C4A47430   2.287  20.510   7.301
 3542POPC   C1B47431   1.597  20.590   6.267
 3542POPC   C2B47432   1.754  20.662   6.682
 3542POPC   C3B47433   1.850  20.833   7.112
 3542POPC   C4B47434   1.849  20.671   7.538
 3543POPC   NC347435   5.356  34.172   5.107
 3543POPC   PO447436   5.441  33.496   5.403
 3543POPC   GL147437   5.187  33.623   5.859
 3543POPC   GL247438   4.812  33.688   5.829
 3543POPC   C1A47439   5.268  33.817   6.335
 3543POPC   D2A47440   5.308  33.850   6.846
 3543POPC   C3A47441   5.171  33.558   7.216
 3543POPC   C4A47442   5.333  33.369   7.631
 3543POPC   C1B47443   4.786  33.872   6.232
 3543POPC   C2B47444   4.865  33.709   6.658
 3543POPC   C3B47445   4.776  33.880   7.037
 3543POPC   C4B47446   4.620  34.273   7.181
 3544POPC   NC347447  18.578  28.635   5.204
 3544POPC   PO447448  18.201  27.992   5.278
 3544POPC   GL147449  18.280  28.248   5.671
 3544POPC   GL247450  18.547  28.531   5.704
 3544POPC   C1A47451  18.182  28.379   6.130
 3544POPC   D2A47452  18.113  28.201   6.560
 3544POPC   C3A47453  18.085  28.364   6.995
 3544POPC   C4A47454  17.762  28.364   7.302
 3544POPC   C1B47455  18.660  28.210   6.009
 3544POPC   C2B47456  18.637  28.359   6.421
 3544POPC   C3B47457  18.580  28.323   6.848
 3544POPC   C4B47458  18.516  28.622   7.151
 3545POPC   NC347459  34.468  23.472   5.486
 3545POPC   PO447460  34.608  24.109   5.483
 3545POPC   GL147461  34.617  23.863   5.826
 3545POPC   GL247462  34.272  23.818   5.803
 3545POPC   C1A47463  34.700  23.696   6.245
 3545POPC   D2A47464  34.873  23.403   6.545
 3545POPC   C3A47465  34.770  23.456   6.962
 3545POPC   C4A47466  34.799  23.802   7.200
 3545POPC   C1B47467  34.195  23.950   6.203
 3545POPC   C2B47468  34.361  24.042   6.601
 3545POPC   C3B47469  34.321  23.866   7.004
 3545POPC   C4B47470  34.316  23.506   7.261
 3546POPC   NC347471   1.015   1.567   5.103
 3546POPC   PO447472   1.063   2.220   5.418
 3546POPC   GL147473   1.192   2.004   5.746
 3546POPC   GL247474   1.011   1.681   5.763
 3546POPC   C1A47475   1.269   1.965   6.166
 3546POPC   D2A47476   1.211   1.687   6.493
 3546POPC   C3A47477   1.175   1.942   6.845
 3546POPC   C4A47478   1.430   2.054   7.200
 3546POPC   C1B47479   0.766   1.701   6.166
 3546POPC   C2B47480   0.722   1.761   6.615
 3546POPC   C3B47481   0.931   1.489   6.924
 3546POPC   C4B47482   1.071   1.706   7.304
 3547POPC   NC347483  16.601  11.038   5.601
 3547POPC   PO447484  16.648  11.647   5.234
 3547POPC   GL147485  16.576  11.553   5.688
 3547POPC   GL247486  16.917  11.555   5.732
 3547POPC   C1A47487  16.541  11.393   6.162
 3547POPC   D2A47488  16.557  11.082   6.562
 3547POPC   C3A47489  16.579  11.300   6.978
 3547POPC   C4A47490  16.467  11.172   7.405
 3547POPC   C1B47491  17.049  11.648   6.151
 3547POPC   C2B47492  16.912  11.473   6.561
 3547POPC   C3B47493  17.066  11.237   6.927
 3547POPC   C4B47494  16.961  11.493   7.300
 3548POPC   NC347495   1.258  14.746   5.712
 3548POPC   PO447496   0.831  14.496   5.184
 3548POPC   GL147497   1.004  14.310   5.621
 3548POPC   GL247498   1.363  14.261   5.753
 3548POPC   C1A47499   0.975  14.238   6.103
 3548POPC   D2A47500   1.142  14.409   6.527
 3548POPC   C3A47501   1.186  14.267   6.964
 3548POPC   C4A47502   0.891  14.455   7.257
 3548POPC   C1B47503   1.490  14.297   6.182
 3548POPC   C2B47504   1.689  14.348   6.569
 3548POPC   C3B47505   1.680  14.493   6.961
 3548POPC   C4B47506   1.621  14.274   7.336
 3549POPC   NC347507  18.439  35.787   5.357
 3549POPC   PO447508  18.632  35.199   5.548
 3549POPC   GL147509  18.356  35.342   5.835
 3549POPC   GL247510  18.044  35.462   5.678
 3549POPC   C1A47511  18.468  35.465   6.244
 3549POPC   D2A47512  18.591  35.660   6.635
 3549POPC   C3A47513  18.403  35.680   7.020
 3549POPC   C4A47514  18.454  35.514   7.408
 3549POPC   C1B47515  17.977  35.539   6.126
 3549POPC   C2B47516  18.118  35.478   6.607
 3549POPC   C3B47517  18.038  35.335   7.043
 3549POPC   C4B47518  17.984  35.672   7.339
 3550POPC   NC347519  41.076   4.094   5.045
 3550POPC   PO447520  41.645   4.224   5.405
 3550POPC   GL147521  41.635   4.268   5.820
 3550POPC   GL247522  41.480   3.955   5.856
 3550POPC   C1A47523  41.631   4.366   6.248
 3550POPC   D2A47524  41.871   4.149   6.525
 3550POPC   C3A47525  41.933   4.255   6.929
 3550POPC   C4A47526  41.812   4.629   7.119
 3550POPC   C1B47527  41.293   3.978   6.251
 3550POPC   C2B47528  41.404   4.060   6.685
 3550POPC   C3B47529  41.413   4.309   7.046
 3550POPC   C4B47530  41.045   4.127   7.219
 3551POPC   NC347531  16.431  10.231   5.476
 3551POPC   PO447532  16.514   9.586   5.370
 3551POPC   GL147533  16.735   9.657   5.746
 3551POPC   GL247534  16.876   9.991   5.806
 3551POPC   C1A47535  16.651   9.668   6.194
 3551POPC   D2A47536  16.885   9.763   6.552
 3551POPC   C3A47537  16.685   9.849   6.921
 3551POPC   C4A47538  16.876   9.779   7.277
 3551POPC   C1B47539  16.830  10.158   6.236
 3551POPC   C2B47540  16.828  10.267   6.668
 3551POPC   C3B47541  17.018  10.223   7.061
 3551POPC   C4B47542  16.891  10.233   7.515
 3552POPC   NC347543  13.452  19.040   5.460
 3552POPC   PO447544  13.885  18.641   5.509
 3552POPC   GL147545  13.672  18.853   5.885
 3552POPC   GL247546  13.725  19.219   5.881
 3552POPC   C1A47547  13.519  18.705   6.305
 3552POPC   D2A47548  13.395  18.851   6.748
 3552POPC   C3A47549  13.631  18.687   7.141
 3552POPC   C4A47550  13.779  18.789   7.610
 3552POPC   C1B47551  13.811  19.131   6.335
 3552POPC   C2B47552  13.907  18.925   6.749
 3552POPC   C3B47553  13.987  19.051   7.191
 3552POPC   C4B47554  14.224  19.100   7.582
 3553POPC   NC347555  15.069  43.551   5.456
 3553POPC   PO447556  15.323  44.165   5.455
 3553POPC   GL147557  15.102  43.935   5.783
 3553POPC   GL247558  15.393  43.754   5.807
 3553POPC   C1A47559  14.999  43.741   6.170
 3553POPC   D2A47560  15.191  43.744   6.569
 3553POPC   C3A47561  15.064  43.555   6.923
 3553POPC   C4A47562  15.077  43.935   7.170
 3553POPC   C1B47563  15.503  43.592   6.198
 3553POPC   C2B47564  15.709  43.681   6.604
 3553POPC   C3B47565  15.545  43.748   6.996
 3553POPC   C4B47566  15.371  43.532   7.337
 3554POPC   NC347567  15.849   7.636   5.371
 3554POPC   PO447568  15.996   8.266   5.180
 3554POPC   GL147569  15.906   8.120   5.623
 3554POPC   GL247570  16.144   8.306   5.863
 3554POPC   C1A47571  15.752   8.034   6.062
 3554POPC   D2A47572  15.926   7.972   6.489
 3554POPC   C3A47573  15.719   8.084   6.863
 3554POPC   C4A47574  15.621   8.057   7.257
 3554POPC   C1B47575  16.029   8.452   6.277
 3554POPC   C2B47576  16.138   8.387   6.713
 3554POPC   C3B47577  16.160   8.204   7.114
 3554POPC   C4B47578  15.996   8.366   7.488
 3555POPC   NC347579   1.709  30.820   5.385
 3555POPC   PO447580   2.403  31.061   5.495
 3555POPC   GL147581   2.122  30.795   5.738
 3555POPC   GL247582   2.094  30.410   5.727
 3555POPC   C1A47583   1.991  30.859   6.168
 3555POPC   D2A47584   2.069  30.668   6.578
 3555POPC   C3A47585   1.893  30.858   6.958
 3555POPC   C4A47586   2.032  30.863   7.396
 3555POPC   C1B47587   1.817  30.370   6.130
 3555POPC   C2B47588   1.666  30.151   6.498
 3555POPC   C3B47589   1.730  30.392   6.849
 3555POPC   C4B47590   2.061  30.415   7.160
 3556POPC   NC347591   0.552  34.859   5.423
 3556POPC   PO447592   0.207  34.231   5.502
 3556POPC   GL147593   0.401  34.542   5.807
 3556POPC   GL247594   0.669  34.808   5.898
 3556POPC   C1A47595   0.275  34.697   6.194
 3556POPC   D2A47596   0.266  34.396   6.489
 3556POPC   C3A47597   0.195  34.558   6.839
 3556POPC   C4A47598   0.201  34.421   7.223
 3556POPC   C1B47599   0.789  34.544   6.237
 3556POPC   C2B47600   0.824  34.446   6.668
 3556POPC   C3B47601   0.676  34.384   7.071
 3556POPC   C4B47602   0.616  34.439   7.535
 3557POPC   NC347603   8.364   3.256   5.371
 3557POPC   PO447604   7.759   3.479   5.416
 3557POPC   GL147605   7.894   3.566   5.870
 3557POPC   GL247606   8.266   3.521   5.832
 3557POPC   C1A47607   7.840   3.370   6.344
 3557POPC   D2A47608   7.960   3.179   6.730
 3557POPC   C3A47609   8.014   3.482   7.063
 3557POPC   C4A47610   8.374   3.426   7.301
 3557POPC   C1B47611   8.219   3.682   6.276
 3557POPC   C2B47612   8.364   3.548   6.675
 3557POPC   C3B47613   8.570   3.761   6.993
 3557POPC   C4B47614   8.267   3.920   7.256
 3558POPC   NC347615  13.738   5.985   5.471
 3558POPC   PO447616  13.359   5.493   5.340
 3558POPC   GL147617  13.468   5.661   5.773
 3558POPC   GL247618  13.397   6.003   5.841
 3558POPC   C1A47619  13.705   5.790   6.172
 3558POPC   D2A47620  13.574   5.609   6.538
 3558POPC   C3A47621  13.555   5.769   6.929
 3558POPC   C4A47622  13.539   5.500   7.283
 3558POPC   C1B47623  13.349   6.199   6.230
 3558POPC   C2B47624  13.523   6.210   6.636
 3558POPC   C3B47625  13.577   6.259   7.073
 3558POPC   C4B47626  13.645   5.983   7.400
 3559POPC   NC347627  22.366  31.836   5.432
 3559POPC   PO447628  21.985  31.257   5.289
 3559POPC   GL147629  22.154  31.424   5.704
 3559POPC   GL247630  21.946  31.718   5.755
 3559POPC   C1A47631  22.360  31.242   6.126
 3559POPC   D2A47632  22.626  31.311   6.504
 3559POPC   C3A47633  22.404  31.248   6.878
 3559POPC   C4A47634  22.287  31.464   7.256
 3559POPC   C1B47635  22.168  31.722   6.132
 3559POPC   C2B47636  22.146  31.512   6.513
 3559POPC   C3B47637  22.001  31.665   6.885
 3559POPC   C4B47638  21.803  31.681   7.254
 3560POPC   NC347639  29.370  25.573   5.349
 3560POPC   PO447640  29.038  25.029   5.463
 3560POPC   GL147641  29.166  25.053   5.853
 3560POPC   GL247642  29.227  25.357   5.828
 3560POPC   C1A47643  29.077  25.042   6.288
 3560POPC   D2A47644  28.801  25.116   6.648
 3560POPC   C3A47645  29.012  25.035   7.065
 3560POPC   C4A47646  29.463  24.984   7.202
 3560POPC   C1B47647  29.253  25.530   6.244
 3560POPC   C2B47648  29.240  25.402   6.696
 3560POPC   C3B47649  29.281  25.452   7.140
 3560POPC   C4B47650  28.983  25.518   7.505
 3561POPC   NC347651  35.947  35.833   5.463
 3561POPC   PO447652  36.049  35.140   5.547
 3561POPC   GL147653  36.233  35.414   5.835
 3561POPC   GL247654  36.348  35.172   6.088
 3561POPC   C1A47655  35.986  35.548   6.193
 3561POPC   D2A47656  36.009  35.387   6.606
 3561POPC   C3A47657  35.813  35.593   6.970
 3561POPC   C4A47658  35.872  35.542   7.439
 3561POPC   C1B47659  36.511  35.565   6.283
 3561POPC   C2B47660  36.460  35.716   6.713
 3561POPC   C3B47661  36.292  35.446   7.030
 3561POPC   C4B47662  36.022  35.103   7.178
 3562POPC   NC347663  39.246  12.487   5.124
 3562POPC   PO447664  39.053  13.026   5.387
 3562POPC   GL147665  39.114  12.756   5.749
 3562POPC   GL247666  39.338  13.010   5.842
 3562POPC   C1A47667  39.223  12.597   6.195
 3562POPC   D2A47668  39.300  12.789   6.621
 3562POPC   C3A47669  39.490  12.680   7.025
 3562POPC   C4A47670  39.669  12.655   7.454
 3562POPC   C1B47671  39.114  13.093   6.208
 3562POPC   C2B47672  38.979  13.171   6.635
 3562POPC   C3B47673  39.116  13.061   7.039
 3562POPC   C4B47674  39.066  13.349   7.371
 3563POPC   NC347675  23.864  43.439   5.555
 3563POPC   PO447676  23.946  42.726   5.566
 3563POPC   GL147677  23.687  42.793   5.857
 3563POPC   GL247678  23.722  43.149   5.938
 3563POPC   C1A47679  23.770  42.732   6.251
 3563POPC   D2A47680  23.710  42.971   6.564
 3563POPC   C3A47681  23.715  42.781   6.931
 3563POPC   C4A47682  23.548  42.793   7.323
 3563POPC   C1B47683  23.795  43.429   6.322
 3563POPC   C2B47684  23.830  43.403   6.792
 3563POPC   C3B47685  23.681  43.374   7.218
 3563POPC   C4B47686  23.673  43.534   7.694
 3564POPC   NC347687  22.575  29.951   5.091
 3564POPC   PO447688  21.981  29.853   5.430
 3564POPC   GL147689  21.936  29.942   5.834
 3564POPC   GL247690  21.940  30.290   5.797
 3564POPC   C1A47691  21.962  29.722   6.228
 3564POPC   D2A47692  22.156  29.834   6.612
 3564POPC   C3A47693  22.115  29.695   7.023
 3564POPC   C4A47694  22.537  29.751   7.160
 3564POPC   C1B47695  22.107  30.223   6.222
 3564POPC   C2B47696  22.288  30.335   6.608
 3564POPC   C3B47697  22.259  30.189   7.023
 3564POPC   C4B47698  21.990  30.309   7.308
 3565POPC   NC347699  35.830   1.745   5.112
 3565POPC   PO447700  36.325   2.188   5.398
 3565POPC   GL147701  36.084   2.086   5.764
 3565POPC   GL247702  36.204   1.744   5.856
 3565POPC   C1A47703  36.187   2.102   6.231
 3565POPC   D2A47704  35.987   2.047   6.643
 3565POPC   C3A47705  35.958   2.239   7.049
 3565POPC   C4A47706  35.636   2.021   7.296
 3565POPC   C1B47707  36.511   1.689   6.197
 3565POPC   C2B47708  36.490   1.882   6.613
 3565POPC   C3B47709  36.319   1.866   7.020
 3565POPC   C4B47710  36.217   2.038   7.423
 3566POPC   NC347711  19.151   4.302   5.335
 3566POPC   PO447712  18.559   4.637   5.306
 3566POPC   GL147713  18.895   4.562   5.662
 3566POPC   GL247714  19.045   4.218   5.810
 3566POPC   C1A47715  19.064   4.653   6.074
 3566POPC   D2A47716  18.849   4.545   6.451
 3566POPC   C3A47717  19.043   4.455   6.825
 3566POPC   C4A47718  18.925   4.396   7.234
 3566POPC   C1B47719  18.925   3.951   6.143
 3566POPC   C2B47720  19.041   3.968   6.566
 3566POPC   C3B47721  18.848   3.969   6.954
 3566POPC   C4B47722  19.105   3.910   7.298
 3567POPC   NC347723  21.207  22.245   5.175
 3567POPC   PO447724  21.615  22.304   5.654
 3567POPC   GL147725  21.358  22.100   5.927
 3567POPC   GL247726  21.153  22.375   6.059
 3567POPC   C1A47727  21.312  21.897   6.338
 3567POPC   D2A47728  21.362  22.094   6.756
 3567POPC   C3A47729  21.092  22.208   7.120
 3567POPC   C4A47730  21.056  21.956   7.494
 3567POPC   C1B47731  21.508  22.399   6.335
 3567POPC   C2B47732  21.602  22.544   6.750
 3567POPC   C3B47733  21.581  22.347   7.187
 3567POPC   C4B47734  21.321  22.381   7.615
 3568POPC   NC347735   6.918  10.150   5.449
 3568POPC   PO447736   6.766  10.758   5.308
 3568POPC   GL147737   6.802  10.675   5.764
 3568POPC   GL247738   6.636  10.362   5.840
 3568POPC   C1A47739   6.633  10.692   6.217
 3568POPC   D2A47740   6.591  10.539   6.645
 3568POPC   C3A47741   6.382  10.261   6.900
 3568POPC   C4A47742   6.411  10.540   7.242
 3568POPC   C1B47743   6.588  10.160   6.249
 3568POPC   C2B47744   6.834  10.035   6.614
 3568POPC   C3B47745   6.833  10.005   7.061
 3568POPC   C4B47746   6.580  10.102   7.395
 3569POPC   NC347747  18.988  13.224   5.307
 3569POPC   PO447748  19.030  12.512   5.476
 3569POPC   GL147749  18.953  12.878   5.720
 3569POPC   GL247750  19.293  13.044   5.707
 3569POPC   C1A47751  18.745  12.997   6.146
 3569POPC   D2A47752  18.593  13.021   6.585
 3569POPC   C3A47753  18.930  12.843   6.844
 3569POPC   C4A47754  19.176  12.901   7.218
 3569POPC   C1B47755  19.259  12.790   6.099
 3569POPC   C2B47756  19.368  12.908   6.512
 3569POPC   C3B47757  19.432  12.646   6.852
 3569POPC   C4B47758  19.269  12.350   7.117
 3570POPC   NC347759  16.668   5.400   5.175
 3570POPC   PO447760  16.679   6.084   5.199
 3570POPC   GL147761  16.786   5.828   5.603
 3570POPC   GL247762  16.492   5.721   5.844
 3570POPC   C1A47763  16.925   5.876   6.054
 3570POPC   D2A47764  16.710   5.958   6.453
 3570POPC   C3A47765  16.763   5.812   6.878
 3570POPC   C4A47766  16.897   6.000   7.261
 3570POPC   C1B47767  16.349   5.650   6.243
 3570POPC   C2B47768  16.342   5.560   6.670
 3570POPC   C3B47769  16.341   5.579   7.108
 3570POPC   C4B47770  16.433   5.435   7.535
 3571POPC   NC347771  16.301  17.455   5.545
 3571POPC   PO447772  15.665  17.679   5.395
 3571POPC   GL147773  15.819  17.388   5.746
 3571POPC   GL247774  15.588  17.137   5.797
 3571POPC   C1A47775  16.001  17.316   6.193
 3571POPC   D2A47776  16.182  17.318   6.648
 3571POPC   C3A47777  16.048  17.600   7.035
 3571POPC   C4A47778  16.090  17.657   7.521
 3571POPC   C1B47779  15.491  17.277   6.259
 3571POPC   C2B47780  15.591  17.410   6.727
 3571POPC   C3B47781  15.492  17.638   7.120
 3571POPC   C4B47782  15.591  17.638   7.566
 3572POPC   NC347783   4.712  20.904   5.412
 3572POPC   PO447784   5.223  20.370   5.317
 3572POPC   GL147785   5.179  20.602   5.724
 3572POPC   GL247786   4.830  20.670   5.828
 3572POPC   C1A47787   5.133  20.539   6.209
 3572POPC   D2A47788   5.287  20.482   6.631
 3572POPC   C3A47789   5.343  20.664   7.042
 3572POPC   C4A47790   5.466  20.546   7.456
 3572POPC   C1B47791   4.622  20.467   6.168
 3572POPC   C2B47792   4.768  20.373   6.573
 3572POPC   C3B47793   4.883  20.408   6.977
 3572POPC   C4B47794   4.889  20.688   7.282
 3573POPC   NC347795   3.699  44.286   5.434
 3573POPC   PO447796   3.509  43.695   5.343
 3573POPC   GL147797   3.328  43.674   5.746
 3573POPC   GL247798   3.500  43.982   5.813
 3573POPC   C1A47799   3.467  43.630   6.201
 3573POPC   D2A47800   3.641  43.837   6.586
 3573POPC   C3A47801   3.684  43.591   6.973
 3573POPC   C4A47802   3.633  43.750   7.353
 3573POPC   C1B47803   3.631  44.260   6.144
 3573POPC   C2B47804   3.507  44.341   6.554
 3573POPC   C3B47805   3.618  44.263   6.970
 3573POPC   C4B47806   3.463  44.219   7.385
 3574POPC   NC347807  25.626  36.455   5.368
 3574POPC   PO447808  25.156  35.878   5.353
 3574POPC   GL147809  25.027  36.110   5.707
 3574POPC   GL247810  25.360  36.231   5.729
 3574POPC   C1A47811  25.075  36.268   6.147
 3574POPC   D2A47812  25.093  36.608   6.440
 3574POPC   C3A47813  25.106  36.392   6.833
 3574POPC   C4A47814  24.862  36.150   7.119
 3574POPC   C1B47815  25.593  36.287   6.121
 3574POPC   C2B47816  25.540  36.394   6.551
 3574POPC   C3B47817  25.606  36.392   6.976
 3574POPC   C4B47818  25.375  36.130   7.200
 3575POPC   NC347819  34.162  38.979   5.119
 3575POPC   PO447820  34.707  39.215   5.428
 3575POPC   GL147821  34.527  39.249   5.806
 3575POPC   GL247822  34.186  39.357   5.799
 3575POPC   C1A47823  34.498  39.058   6.191
 3575POPC   D2A47824  34.638  38.981   6.580
 3575POPC   C3A47825  34.444  39.024   6.961
 3575POPC   C4A47826  34.553  38.875   7.369
 3575POPC   C1B47827  34.298  39.504   6.222
 3575POPC   C2B47828  34.509  39.499   6.599
 3575POPC   C3B47829  34.406  39.528   7.012
 3575POPC   C4B47830  34.256  39.280   7.366
 3576POPC   NC347831   5.405  35.709   5.333
 3576POPC   PO447832   4.826  35.354   5.550
 3576POPC   GL147833   4.955  35.108   5.864
 3576POPC   GL247834   5.259  35.286   5.928
 3576POPC   C1A47835   5.067  34.977   6.297
 3576POPC   D2A47836   5.269  35.227   6.604
 3576POPC   C3A47837   5.101  35.122   7.029
 3576POPC   C4A47838   4.992  35.121   7.490
 3576POPC   C1B47839   4.923  35.462   6.259
 3576POPC   C2B47840   4.804  35.437   6.743
 3576POPC   C3B47841   4.797  35.526   7.207
 3576POPC   C4B47842   4.728  35.769   7.612
 3577POPC   NC347843  29.950  38.039   5.028
 3577POPC   PO447844  29.517  38.393   5.463
 3577POPC   GL147845  29.705  38.389   5.869
 3577POPC   GL247846  30.037  38.546   5.802
 3577POPC   C1A47847  29.832  38.318   6.302
 3577POPC   D2A47848  29.712  38.537   6.672
 3577POPC   C3A47849  29.754  38.276   7.013
 3577POPC   C4A47850  29.787  38.393   7.455
 3577POPC   C1B47851  30.219  38.674   6.196
 3577POPC   C2B47852  30.204  38.659   6.650
 3577POPC   C3B47853  30.170  38.557   7.093
 3577POPC   C4B47854  30.317  38.594   7.514
 3578POPC   NC347855  27.756  18.115   5.271
 3578POPC   PO447856  27.252  18.558   5.375
 3578POPC   GL147857  27.395  18.298   5.748
 3578POPC   GL247858  27.440  17.898   5.791
 3578POPC   C1A47859  27.337  18.229   6.201
 3578POPC   D2A47860  27.572  18.278   6.583
 3578POPC   C3A47861  27.511  18.510   6.979
 3578POPC   C4A47862  27.221  18.364   7.305
 3578POPC   C1B47863  27.579  17.744   6.223
 3578POPC   C2B47864  27.432  17.785   6.670
 3578POPC   C3B47865  27.641  18.026   7.024
 3578POPC   C4B47866  27.607  18.066   7.486
 3579POPC   NC347867  38.322  27.560   5.516
 3579POPC   PO447868  38.995  27.447   5.448
 3579POPC   GL147869  38.737  27.601   5.795
 3579POPC   GL247870  38.570  27.269   5.900
 3579POPC   C1A47871  38.436  27.710   6.145
 3579POPC   D2A47872  38.548  27.882   6.543
 3579POPC   C3A47873  38.433  27.667   6.946
 3579POPC   C4A47874  38.260  27.891   7.319
 3579POPC   C1B47875  38.834  27.421   6.279
 3579POPC   C2B47876  38.927  27.587   6.700
 3579POPC   C3B47877  38.890  27.522   7.111
 3579POPC   C4B47878  38.605  27.266   7.289
 3580POPC   NC347879   3.177  42.168   5.448
 3580POPC   PO447880   2.953  42.604   5.034
 3580POPC   GL147881   2.763  42.425   5.554
 3580POPC   GL247882   2.702  42.082   5.673
 3580POPC   C1A47883   2.663  42.375   6.068
 3580POPC   D2A47884   2.616  42.187   6.483
 3580POPC   C3A47885   2.665  42.339   6.898
 3580POPC   C4A47886   2.794  42.467   7.289
 3580POPC   C1B47887   2.681  41.831   6.077
 3580POPC   C2B47888   2.620  41.679   6.511
 3580POPC   C3B47889   2.503  41.845   6.919
 3580POPC   C4B47890   2.589  41.994   7.349
 3581POPC   NC347891  36.142  10.302   5.366
 3581POPC   PO447892  36.015  10.928   5.288
 3581POPC   GL147893  36.165  10.752   5.715
 3581POPC   GL247894  36.316  10.424   5.807
 3581POPC   C1A47895  36.026  10.613   6.159
 3581POPC   D2A47896  35.913  10.396   6.554
 3581POPC   C3A47897  36.083  10.529   6.963
 3581POPC   C4A47898  36.115  10.378   7.374
 3581POPC   C1B47899  36.498  10.312   6.201
 3581POPC   C2B47900  36.440  10.282   6.647
 3581POPC   C3B47901  36.494  10.212   7.077
 3581POPC   C4B47902  36.619  10.512   7.387
 3582POPC   NC347903  17.910   3.765   5.294
 3582POPC   PO447904  17.299   3.497   5.455
 3582POPC   GL147905  17.571   3.690   5.738
 3582POPC   GL247906  17.833   3.444   5.707
 3582POPC   C1A47907  17.415   3.817   6.159
 3582POPC   D2A47908  17.358   3.571   6.560
 3582POPC   C3A47909  17.277   3.846   6.932
 3582POPC   C4A47910  17.360   3.752   7.369
 3582POPC   C1B47911  17.652   3.335   6.132
 3582POPC   C2B47912  17.851   3.306   6.533
 3582POPC   C3B47913  17.767   3.192   6.951
 3582POPC   C4B47914  17.386   3.353   7.040
 3583POPC   NC347915  44.498  31.777   5.299
 3583POPC   PO447916  44.319  31.211   5.657
 3583POPC   GL147917  44.673  31.471   5.717
 3583POPC   GL247918  44.652  31.803   5.844
 3583POPC   C1A47919  44.841  31.379   6.113
 3583POPC   D2A47920   0.025  31.235   6.491
 3583POPC   C3A47921  44.718  31.215   6.795
 3583POPC   C4A47922  44.564  31.473   7.126
 3583POPC   C1B47923  44.438  31.650   6.257
 3583POPC   C2B47924  44.345  31.606   6.681
 3583POPC   C3B47925  44.131  31.720   7.071
 3583POPC   C4B47926  44.252  31.680   7.500
 3584POPC   NC347927  34.180  38.873   5.625
 3584POPC   PO447928  34.010  39.393   5.293
 3584POPC   GL147929  33.727  39.164   5.705
 3584POPC   GL247930  33.423  38.873   5.722
 3584POPC   C1A47931  33.919  39.107   6.162
 3584POPC   D2A47932  34.139  39.104   6.548
 3584POPC   C3A47933  33.935  39.073   6.948
 3584POPC   C4A47934  33.802  38.858   7.309
 3584POPC   C1B47935  33.429  38.984   6.136
 3584POPC   C2B47936  33.578  39.043   6.556
 3584POPC   C3B47937  33.409  39.122   6.964
 3584POPC   C4B47938  33.296  38.887   7.309
 3585POPC   NC347939  31.552  29.630   5.683
 3585POPC   PO447940  31.240  30.168   5.517
 3585POPC   GL147941  31.104  30.084   5.962
 3585POPC   GL247942  31.369  29.838   6.112
 3585POPC   C1A47943  31.183  30.172   6.434
 3585POPC   D2A47944  31.502  29.885   6.654
 3585POPC   C3A47945  31.610  29.991   7.033
 3585POPC   C4A47946  31.546  30.131   7.422
 3585POPC   C1B47947  31.803  29.704   6.282
 3585POPC   C2B47948  31.995  29.485   6.628
 3585POPC   C3B47949  31.879  29.574   7.019
 3585POPC   C4B47950  31.736  29.630   7.405
 3586POPC   NC347951  43.621   5.778   5.303
 3586POPC   PO447952  44.349   5.728   5.280
 3586POPC   GL147953  44.245   5.727   5.728
 3586POPC   GL247954  43.868   5.671   5.741
 3586POPC   C1A47955  44.320   5.823   6.197
 3586POPC   D2A47956  44.400   5.714   6.656
 3586POPC   C3A47957  44.028   5.695   6.942
 3586POPC   C4A47958  44.070   5.882   7.383
 3586POPC   C1B47959  43.795   5.802   6.180
 3586POPC   C2B47960  43.742   5.993   6.597
 3586POPC   C3B47961  43.692   6.072   7.035
 3586POPC   C4B47962  43.576   5.953   7.442
 3587POPC   NC347963   7.776   1.423   5.570
 3587POPC   PO447964   7.290   1.108   5.177
 3587POPC   GL147965   7.325   1.189   5.664
 3587POPC   GL247966   7.276   0.913   5.776
 3587POPC   C1A47967   7.414   1.336   6.136
 3587POPC   D2A47968   7.487   1.135   6.585
 3587POPC   C3A47969   7.547   1.357   7.001
 3587POPC   C4A47970   7.259   1.703   7.153
 3587POPC   C1B47971   7.111   0.932   6.181
 3587POPC   C2B47972   7.020   1.265   6.457
 3587POPC   C3B47973   7.069   1.334   6.836
 3587POPC   C4B47974   7.143   1.127   7.206
 3588POPC   NC347975   0.711   3.011   5.218
 3588POPC   PO447976   0.237   2.662   5.355
 3588POPC   GL147977   0.281   2.924   5.737
 3588POPC   GL247978   0.637   3.023   5.768
 3588POPC   C1A47979   0.205   2.796   6.183
 3588POPC   D2A47980   0.413   2.641   6.568
 3588POPC   C3A47981   0.278   2.773   6.976
 3588POPC   C4A47982   0.376   2.683   7.390
 3588POPC   C1B47983   0.751   2.882   6.200
 3588POPC   C2B47984   0.909   2.818   6.630
 3588POPC   C3B47985   0.779   2.727   7.052
 3588POPC   C4B47986   0.732   3.018   7.414
 3589POPC   NC347987   8.682  27.619   5.253
 3589POPC   PO447988   9.185  27.365   5.434
 3589POPC   GL147989   8.982  27.690   5.719
 3589POPC   GL247990   9.127  28.038   5.755
 3589POPC   C1A47991   8.826  27.650   6.160
 3589POPC   D2A47992   8.986  27.765   6.577
 3589POPC   C3A47993   8.836  27.630   7.004
 3589POPC   C4A47994   8.840  27.412   7.420
 3589POPC   C1B47995   9.298  27.843   6.162
 3589POPC   C2B47996   9.458  27.592   6.516
 3589POPC   C3B47997   9.333  27.772   6.946
 3589POPC   C4B47998   9.150  27.810   7.370
 3590POPC   NC347999  35.418  18.486   5.224
 3590POPC   PO448000  35.741  17.898   5.303
 3590POPC   GL148001  35.522  18.114   5.611
 3590POPC   GL248002  35.189  18.047   5.731
 3590POPC   C1A48003  35.605  18.183   6.055
 3590POPC   D2A48004  35.670  18.142   6.512
 3590POPC   C3A48005  35.601  18.377   6.874
 3590POPC   C4A48006  35.621  18.306   7.316
 3590POPC   C1B48007  35.115  18.167   6.204
 3590POPC   C2B48008  35.090  18.291   6.658
 3590POPC   C3B48009  35.192  18.157   7.082
 3590POPC   C4B48010  35.163  18.254   7.549
 3591POPC   NC348011   3.342  22.287   5.479
 3591POPC   PO448012   3.910  21.897   5.473
 3591POPC   GL148013   3.559  21.901   5.781
 3591POPC   GL248014   3.203  21.840   5.724
 3591POPC   C1A48015   3.464  22.032   6.200
 3591POPC   D2A48016   3.530  21.886   6.618
 3591POPC   C3A48017   3.670  22.124   6.997
 3591POPC   C4A48018   3.732  22.067   7.439
 3591POPC   C1B48019   2.996  21.825   6.123
 3591POPC   C2B48020   2.974  21.983   6.539
 3591POPC   C3B48021   3.174  22.033   6.938
 3591POPC   C4B48022   3.237  22.206   7.347
 3592POPC   NC348023  13.410  17.446   5.430
 3592POPC   PO448024  13.971  17.822   5.481
 3592POPC   GL148025  13.717  17.680   5.784
 3592POPC   GL248026  13.857  17.362   5.712
 3592POPC   C1A48027  13.456  17.646   6.166
 3592POPC   D2A48028  13.346  17.427   6.555
 3592POPC   C3A48029  13.399  17.632   6.963
 3592POPC   C4A48030  13.582  17.748   7.405
 3592POPC   C1B48031  13.844  17.281   6.096
 3592POPC   C2B48032  13.881  17.414   6.475
 3592POPC   C3B48033  13.911  17.242   6.841
 3592POPC   C4B48034  13.704  17.308   7.202
 3593POPC   NC348035  30.129  17.806   5.352
 3593POPC   PO448036  29.519  18.094   5.256
 3593POPC   GL148037  29.865  18.207   5.564
 3593POPC   GL248038  29.919  18.567   5.667
 3593POPC   C1A48039  29.879  18.149   6.036
 3593POPC   D2A48040  29.764  18.352   6.452
 3593POPC   C3A48041  29.848  18.225   6.896
 3593POPC   C4A48042  29.601  18.192   7.298
 3593POPC   C1B48043  30.020  18.649   6.117
 3593POPC   C2B48044  30.176  18.628   6.570
 3593POPC   C3B48045  30.052  18.728   6.961
 3593POPC   C4B48046  29.996  18.496   7.323
 3594POPC   NC348047  31.773  25.867   5.660
 3594POPC   PO448048  32.520  25.701   5.618
 3594POPC   GL148049  32.271  25.892   5.907
 3594POPC   GL248050  32.139  26.184   5.843
 3594POPC   C1A48051  32.369  25.997   6.310
 3594POPC   D2A48052  32.408  25.755   6.680
 3594POPC   C3A48053  32.324  26.025   7.034
 3594POPC   C4A48054  32.415  25.925   7.455
 3594POPC   C1B48055  31.887  26.175   6.233
 3594POPC   C2B48056  31.961  25.990   6.656
 3594POPC   C3B48057  31.847  26.241   7.022
 3594POPC   C4B48058  32.002  26.210   7.430
 3595POPC   NC348059  18.687  38.516   5.509
 3595POPC   PO448060  19.395  38.566   5.515
 3595POPC   GL148061  19.179  38.291   5.810
 3595POPC   GL248062  18.809  38.251   5.931
 3595POPC   C1A48063  19.201  38.406   6.228
 3595POPC   D2A48064  18.927  38.407   6.565
 3595POPC   C3A48065  19.123  38.350   6.912
 3595POPC   C4A48066  19.138  38.552   7.273
 3595POPC   C1B48067  18.774  38.683   6.149
 3595POPC   C2B48068  18.654  38.835   6.584
 3595POPC   C3B48069  18.692  38.636   6.992
 3595POPC   C4B48070  18.773  38.878   7.339
 3596POPC   NC348071  37.008  23.995   5.607
 3596POPC   PO448072  36.700  23.478   5.421
 3596POPC   GL148073  36.859  23.516   5.809
 3596POPC   GL248074  36.568  23.786   5.840
 3596POPC   C1A48075  37.166  23.619   6.161
 3596POPC   D2A48076  37.044  23.873   6.531
 3596POPC   C3A48077  37.085  23.703   6.944
 3596POPC   C4A48078  37.013  23.913   7.332
 3596POPC   C1B48079  36.660  23.635   6.266
 3596POPC   C2B48080  36.671  23.544   6.695
 3596POPC   C3B48081  36.609  23.607   7.167
 3596POPC   C4B48082  36.677  23.709   7.638
 3597POPC   NC348083   5.433  40.917   5.365
 3597POPC   PO448084   5.942  40.560   5.567
 3597POPC   GL148085   5.915  40.908   5.858
 3597POPC   GL248086   5.543  40.874   5.880
 3597POPC   C1A48087   6.182  41.132   6.195
 3597POPC   D2A48088   6.324  41.258   6.640
 3597POPC   C3A48089   6.329  40.881   6.955
 3597POPC   C4A48090   6.151  40.477   7.160
 3597POPC   C1B48091   5.644  40.546   6.219
 3597POPC   C2B48092   5.571  40.582   6.675
 3597POPC   C3B48093   5.489  40.958   6.914
 3597POPC   C4B48094   5.585  41.175   7.250
 3598POPC   NC348095   9.800  11.691   5.381
 3598POPC   PO448096   9.595  12.340   5.243
 3598POPC   GL148097   9.536  12.374   5.681
 3598POPC   GL248098   9.409  12.033   5.769
 3598POPC   C1A48099   9.611  12.324   6.138
 3598POPC   D2A48100   9.791  12.176   6.524
 3598POPC   C3A48101   9.766  12.341   6.950
 3598POPC   C4A48102  10.033  12.046   7.098
 3598POPC   C1B48103   9.310  11.840   6.166
 3598POPC   C2B48104   9.326  11.951   6.587
 3598POPC   C3B48105   9.490  11.932   6.989
 3598POPC   C4B48106   9.454  12.193   7.348
 3599POPC   NC348107  42.197  27.827   5.525
 3599POPC   PO448108  42.684  27.331   5.461
 3599POPC   GL148109  42.468  27.458   5.869
 3599POPC   GL248110  42.483  27.816   5.948
 3599POPC   C1A48111  42.209  27.472   6.284
 3599POPC   D2A48112  41.887  27.329   6.628
 3599POPC   C3A48113  42.078  27.446   7.026
 3599POPC   C4A48114  42.526  27.388   7.072
 3599POPC   C1B48115  42.190  27.990   6.182
 3599POPC   C2B48116  42.347  27.909   6.566
 3599POPC   C3B48117  42.351  27.863   6.958
 3599POPC   C4B48118  42.008  27.913   7.273
 3600POPC   NC348119  22.761  39.739   5.377
 3600POPC   PO448120  23.296  40.112   5.202
 3600POPC   GL148121  23.086  40.254   5.620
 3600POPC   GL248122  22.736  40.148   5.686
 3600POPC   C1A48123  23.101  40.261   6.106
 3600POPC   D2A48124  23.128  39.889   6.435
 3600POPC   C3A48125  23.268  40.001   6.878
 3600POPC   C4A48126  23.090  39.813   7.259
 3600POPC   C1B48127  22.660  39.990   6.090
 3600POPC   C2B48128  22.733  40.183   6.483
 3600POPC   C3B48129  22.752  40.053   6.894
 3600POPC   C4B48130  22.839  40.247   7.259
 3601POPC   NC348131  44.975  22.009   5.571
 3601POPC   PO448132  44.524  22.518   5.425
 3601POPC   GL148133  44.837  22.467   5.794
 3601POPC   GL248134  44.769  22.194   6.008
 3601POPC   C1A48135  44.997  22.580   6.249
 3601POPC   D2A48136  44.783  22.638   6.668
 3601POPC   C3A48137  44.860  22.600   7.130
 3601POPC   C4A48138  44.797  22.369   7.542
 3601POPC   C1B48139  44.901  21.923   6.338
 3601POPC   C2B48140  44.998  22.052   6.769
 3601POPC   C3B48141  44.695  22.074   7.123
 3601POPC   C4B48142  44.450  21.708   7.218
 3602POPC   NC348143   8.807  36.057   5.443
 3602POPC   PO448144   9.331  36.412   5.571
 3602POPC   GL148145   8.950  36.355   5.854
 3602POPC   GL248146   8.652  36.519   5.733
 3602POPC   C1A48147   8.838  36.243   6.298
 3602POPC   D2A48148   9.021  36.323   6.720
 3602POPC   C3A48149   8.944  36.048   7.065
 3602POPC   C4A48150   9.017  35.877   7.484
 3602POPC   C1B48151   8.630  36.686   6.178
 3602POPC   C2B48152   8.562  36.556   6.647
 3602POPC   C3B48153   8.697  36.501   7.108
 3602POPC   C4B48154   8.669  36.253   7.531
 3603POPC   NC348155  42.183  32.679   5.474
 3603POPC   PO448156  42.482  32.037   5.454
 3603POPC   GL148157  42.179  32.208   5.730
 3603POPC   GL248158  41.857  32.153   5.583
 3603POPC   C1A48159  42.246  32.259   6.190
 3603POPC   D2A48160  42.518  32.050   6.516
 3603POPC   C3A48161  42.442  32.200   6.918
 3603POPC   C4A48162  42.107  32.415   7.060
 3603POPC   C1B48163  41.801  32.052   6.033
 3603POPC   C2B48164  41.935  31.925   6.446
 3603POPC   C3B48165  41.930  31.976   6.876
 3603POPC   C4B48166  42.174  31.879   7.251
 3604POPC   NC348167  18.710  14.871   5.501
 3604POPC   PO448168  18.146  15.192   5.249
 3604POPC   GL148169  18.265  15.232   5.686
 3604POPC   GL248170  18.605  15.368   5.684
 3604POPC   C1A48171  18.135  15.086   6.109
 3604POPC   D2A48172  18.334  14.978   6.502
 3604POPC   C3A48173  18.162  14.876   6.906
 3604POPC   C4A48174  18.262  14.983   7.336
 3604POPC   C1B48175  18.623  15.194   6.103
 3604POPC   C2B48176  18.631  15.385   6.508
 3604POPC   C3B48177  18.485  15.272   6.906
 3604POPC   C4B48178  18.532  15.419   7.290
 3605POPC   NC348179  38.279   0.853   5.250
 3605POPC   PO448180  38.644   1.472   5.420
 3605POPC   GL148181  38.459   1.252   5.785
 3605POPC   GL248182  38.175   1.029   5.717
 3605POPC   C1A48183  38.450   1.380   6.218
 3605POPC   D2A48184  38.655   1.322   6.592
 3605POPC   C3A48185  38.440   1.245   6.959
 3605POPC   C4A48186  38.582   1.451   7.313
 3605POPC   C1B48187  38.203   0.814   6.101
 3605POPC   C2B48188  38.268   0.966   6.517
 3605POPC   C3B48189  38.091   0.819   6.895
 3605POPC   C4B48190  38.135   0.892   7.308
 3606POPC   NC348191  44.797  33.962   5.483
 3606POPC   PO448192  44.393  33.425   5.624
 3606POPC   GL148193  44.504  33.691   5.932
 3606POPC   GL248194  44.345  33.982   5.804
 3606POPC   C1A48195  44.838  33.871   6.168
 3606POPC   D2A48196   0.081  33.858   6.511
 3606POPC   C3A48197  44.865  33.825   6.870
 3606POPC   C4A48198  44.854  34.060   7.233
 3606POPC   C1B48199  44.389  34.131   6.195
 3606POPC   C2B48200  44.463  33.872   6.532
 3606POPC   C3B48201  44.400  34.008   6.943
 3606POPC   C4B48202  44.489  33.717   7.252
 3607POPC   NC348203  10.437  23.570   5.127
 3607POPC   PO448204  10.133  23.678   5.669
 3607POPC   GL148205  10.539  23.709   5.826
 3607POPC   GL248206  10.731  23.426   5.946
 3607POPC   C1A48207  10.471  23.868   6.229
 3607POPC   D2A48208  10.271  23.661   6.591
 3607POPC   C3A48209  10.458  23.729   6.960
 3607POPC   C4A48210  10.623  24.066   7.146
 3607POPC   C1B48211  10.482  23.328   6.249
 3607POPC   C2B48212  10.686  23.357   6.630
 3607POPC   C3B48213  10.633  23.269   7.049
 3607POPC   C4B48214  10.866  23.534   7.306
 3608POPC   NC348215  33.744  41.941   5.559
 3608POPC   PO448216  34.024  42.551   5.572
 3608POPC   GL148217  33.838  42.595   5.970
 3608POPC   GL248218  33.606  42.344   5.888
 3608POPC   C1A48219  33.765  42.516   6.432
 3608POPC   D2A48220  34.038  42.227   6.700
 3608POPC   C3A48221  33.872  42.045   7.083
 3608POPC   C4A48222  33.984  42.070   7.531
 3608POPC   C1B48223  33.408  42.154   6.221
 3608POPC   C2B48224  33.298  42.289   6.620
 3608POPC   C3B48225  33.575  42.455   6.946
 3608POPC   C4B48226  33.605  42.363   7.398
 3609POPC   NC348227  20.466  12.350   5.450
 3609POPC   PO448228  20.428  13.076   5.484
 3609POPC   GL148229  20.621  12.920   5.895
 3609POPC   GL248230  20.688  12.560   5.896
 3609POPC   C1A48231  20.549  12.772   6.367
 3609POPC   D2A48232  20.449  12.615   6.824
 3609POPC   C3A48233  20.627  12.855   7.192
 3609POPC   C4A48234  20.778  13.275   7.122
 3609POPC   C1B48235  21.015  12.600   6.261
 3609POPC   C2B48236  20.987  12.680   6.736
 3609POPC   C3B48237  21.044  12.564   7.187
 3609POPC   C4B48238  20.883  12.602   7.625
 3610POPC   NC348239  27.201  26.905   5.480
 3610POPC   PO448240  26.558  26.693   5.419
 3610POPC   GL148241  26.802  26.704   5.774
 3610POPC   GL248242  26.712  27.034   5.780
 3610POPC   C1A48243  26.875  26.703   6.203
 3610POPC   D2A48244  26.756  26.918   6.536
 3610POPC   C3A48245  26.905  26.749   6.882
 3610POPC   C4A48246  26.868  26.543   7.260
 3610POPC   C1B48247  26.709  27.239   6.143
 3610POPC   C2B48248  26.684  27.433   6.525
 3610POPC   C3B48249  26.543  27.211   6.891
 3610POPC   C4B48250  26.764  27.049   7.263
 3611POPC   NC348251  22.534   5.231   5.185
 3611POPC   PO448252  23.055   4.839   5.371
 3611POPC   GL148253  22.743   5.079   5.628
 3611POPC   GL248254  22.893   5.319   5.842
 3611POPC   C1A48255  22.549   5.027   6.044
 3611POPC   D2A48256  22.489   5.188   6.488
 3611POPC   C3A48257  22.775   5.211   6.857
 3611POPC   C4A48258  23.006   4.884   7.088
 3611POPC   C1B48259  22.978   5.193   6.283
 3611POPC   C2B48260  23.239   5.111   6.659
 3611POPC   C3B48261  23.252   5.358   7.040
 3611POPC   C4B48262  23.061   5.259   7.428
 3612POPC   NC348263  27.689  28.810   5.461
 3612POPC   PO448264  27.289  28.244   5.471
 3612POPC   GL148265  27.444  28.528   5.828
 3612POPC   GL248266  27.788  28.683   5.919
 3612POPC   C1A48267  27.391  28.511   6.273
 3612POPC   D2A48268  27.344  28.239   6.662
 3612POPC   C3A48269  27.402  28.428   7.046
 3612POPC   C4A48270  27.093  28.665   7.246
 3612POPC   C1B48271  27.926  28.506   6.260
 3612POPC   C2B48272  27.817  28.509   6.669
 3612POPC   C3B48273  27.937  28.736   7.001
 3612POPC   C4B48274  27.943  28.563   7.403
 3613POPC   NC348275  12.144  12.658   5.578
 3613POPC   PO448276  11.812  13.255   5.494
 3613POPC   GL148277  11.838  13.047   5.872
 3613POPC   GL248278  12.203  13.041   5.910
 3613POPC   C1A48279  11.826  12.744   6.220
 3613POPC   D2A48280  12.023  12.712   6.634
 3613POPC   C3A48281  11.819  12.714   7.039
 3613POPC   C4A48282  11.981  12.964   7.432
 3613POPC   C1B48283  12.387  12.757   6.229
 3613POPC   C2B48284  12.533  12.871   6.632
 3613POPC   C3B48285  12.280  12.918   7.021
 3613POPC   C4B48286  12.244  12.548   7.307
 3614POPC   NC348287  14.296   7.724   5.473
 3614POPC   PO448288  14.639   8.288   5.348
 3614POPC   GL148289  14.390   8.318   5.738
 3614POPC   GL248290  14.347   8.667   5.862
 3614POPC   C1A48291  14.099   8.216   6.086
 3614POPC   D2A48292  14.019   8.272   6.551
 3614POPC   C3A48293  14.314   8.117   6.877
 3614POPC   C4A48294  14.205   7.999   7.297
 3614POPC   C1B48295  14.435   8.545   6.306
 3614POPC   C2B48296  14.736   8.393   6.636
 3614POPC   C3B48297  14.711   8.400   7.082
 3614POPC   C4B48298  14.317   8.495   7.267
 3615POPC   NC348299  38.940  20.328   4.983
 3615POPC   PO448300  38.505  20.031   5.247
 3615POPC   GL148301  38.558  19.896   5.749
 3615POPC   GL248302  38.343  19.617   5.891
 3615POPC   C1A48303  38.641  19.859   6.249
 3615POPC   D2A48304  38.416  19.944   6.659
 3615POPC   C3A48305  38.553  19.794   7.077
 3615POPC   C4A48306  38.311  19.853   7.477
 3615POPC   C1B48307  38.124  19.814   6.253
 3615POPC   C2B48308  37.992  19.663   6.682
 3615POPC   C3B48309  38.145  19.484   7.102
 3615POPC   C4B48310  38.235  19.276   7.525
 3616POPC   NC348311   1.095   6.400   5.398
 3616POPC   PO448312   1.413   7.000   5.297
 3616POPC   GL148313   1.361   6.669   5.717
 3616POPC   GL248314   1.016   6.539   5.873
 3616POPC   C1A48315   1.423   6.531   6.152
 3616POPC   D2A48316   1.288   6.390   6.580
 3616POPC   C3A48317   1.338   6.688   6.921
 3616POPC   C4A48318   1.374   6.760   7.382
 3616POPC   C1B48319   0.929   6.630   6.285
 3616POPC   C2B48320   0.875   6.774   6.703
 3616POPC   C3B48321   0.982   7.052   7.036
 3616POPC   C4B48322   0.969   7.101   7.467
 3617POPC   NC348323  42.415  17.285   5.653
 3617POPC   PO448324  42.639  17.860   5.224
 3617POPC   GL148325  42.630  17.756   5.691
 3617POPC   GL248326  42.457  18.054   5.864
 3617POPC   C1A48327  42.561  17.659   6.171
 3617POPC   D2A48328  42.243  17.579   6.498
 3617POPC   C3A48329  42.385  17.480   6.942
 3617POPC   C4A48330  42.478  17.083   7.207
 3617POPC   C1B48331  42.331  18.090   6.334
 3617POPC   C2B48332  42.306  17.989   6.792
 3617POPC   C3B48333  42.252  17.918   7.248
 3617POPC   C4B48334  42.307  17.855   7.735
 3618POPC   NC348335   7.901   2.373   5.287
 3618POPC   PO448336   8.026   1.712   5.294
 3618POPC   GL148337   7.931   1.878   5.734
 3618POPC   GL248338   7.694   2.142   5.780
 3618POPC   C1A48339   8.026   1.966   6.194
 3618POPC   D2A48340   8.173   1.855   6.631
 3618POPC   C3A48341   8.345   1.829   7.035
 3618POPC   C4A48342   8.064   1.764   7.351
 3618POPC   C1B48343   7.664   2.362   6.192
 3618POPC   C2B48344   7.826   2.247   6.605
 3618POPC   C3B48345   8.031   2.258   7.015
 3618POPC   C4B48346   7.852   2.526   7.323
 3619POPC   NC348347  26.390  36.595   5.374
 3619POPC   PO448348  25.867  36.856   5.313
 3619POPC   GL148349  25.813  36.771   5.751
 3619POPC   GL248350  25.783  37.109   5.871
 3619POPC   C1A48351  26.160  36.765   6.079
 3619POPC   D2A48352  26.422  36.806   6.487
 3619POPC   C3A48353  26.169  36.775   6.895
 3619POPC   C4A48354  25.821  36.777   7.216
 3619POPC   C1B48355  26.022  37.226   6.263
 3619POPC   C2B48356  26.206  37.241   6.676
 3619POPC   C3B48357  26.031  37.252   7.063
 3619POPC   C4B48358  25.615  37.229   7.155
 3620POPC   NC348359   7.425  36.880   5.107
 3620POPC   PO448360   6.929  36.513   5.371
 3620POPC   GL148361   7.187  36.669   5.746
 3620POPC   GL248362   7.568  36.587   5.821
 3620POPC   C1A48363   7.231  37.004   6.085
 3620POPC   D2A48364   7.568  37.110   6.392
 3620POPC   C3A48365   7.449  37.244   6.837
 3620POPC   C4A48366   7.359  37.269   7.271
 3620POPC   C1B48367   7.443  36.582   6.279
 3620POPC   C2B48368   7.343  36.775   6.691
 3620POPC   C3B48369   7.314  36.766   7.129
 3620POPC   C4B48370   7.299  36.456   7.435
 3621POPC   NC348371  23.082  31.760   5.349
 3621POPC   PO448372  22.853  31.165   5.231
 3621POPC   GL148373  22.988  31.169   5.700
 3621POPC   GL248374  22.676  31.317   5.750
 3621POPC   C1A48375  23.000  31.355   6.151
 3621POPC   D2A48376  23.068  31.652   6.520
 3621POPC   C3A48377  23.013  31.472   6.940
 3621POPC   C4A48378  22.757  31.269   7.239
 3621POPC   C1B48379  22.661  31.699   6.009
 3621POPC   C2B48380  22.591  31.819   6.434
 3621POPC   C3B48381  22.513  31.757   6.855
 3621POPC   C4B48382  22.687  31.784   7.245
 3622POPC   NC348383   6.552  18.293   5.297
 3622POPC   PO448384   7.105  18.191   5.091
 3622POPC   GL148385   6.999  18.339   5.575
 3622POPC   GL248386   6.794  18.041   5.717
 3622POPC   C1A48387   6.821  18.472   6.025
 3622POPC   D2A48388   6.768  18.267   6.455
 3622POPC   C3A48389   6.581  18.404   6.870
 3622POPC   C4A48390   6.667  18.559   7.302
 3622POPC   C1B48391   6.574  17.909   6.121
 3622POPC   C2B48392   6.339  17.967   6.521
 3622POPC   C3B48393   6.138  18.102   6.880
 3622POPC   C4B48394   6.292  18.085   7.281
 3623POPC   NC348395  14.282  25.744   5.438
 3623POPC   PO448396  14.220  25.053   5.503
 3623POPC   GL148397  14.285  25.390   5.832
 3623POPC   GL248398  14.041  25.672   5.870
 3623POPC   C1A48399  14.438  25.381   6.278
 3623POPC   D2A48400  14.278  25.236   6.682
 3623POPC   C3A48401  14.537  25.350   7.033
 3623POPC   C4A48402  14.582  25.484   7.471
 3623POPC   C1B48403  14.197  25.852   6.253
 3623POPC   C2B48404  14.126  25.743   6.692
 3623POPC   C3B48405  14.007  25.546   7.086
 3623POPC   C4B48406  14.074  25.488   7.529
 3624POPC   NC348407  40.450  24.332   5.556
 3624POPC   PO448408  41.121  24.321   5.588
 3624POPC   GL148409  40.825  24.383   5.931
 3624POPC   GL248410  40.574  24.705   5.882
 3624POPC   C1A48411  40.895  24.219   6.369
 3624POPC   D2A48412  40.596  24.098   6.687
 3624POPC   C3A48413  40.604  24.356   7.047
 3624POPC   C4A48414  40.949  24.268   7.277
 3624POPC   C1B48415  40.757  24.737   6.302
 3624POPC   C2B48416  40.873  24.746   6.736
 3624POPC   C3B48417  40.577  24.877   7.021
 3624POPC   C4B48418  40.467  24.751   7.399
 3625POPC   NC348419  37.587  24.150   5.437
 3625POPC   PO448420  37.819  24.789   5.521
 3625POPC   GL148421  37.617  24.543   5.781
 3625POPC   GL248422  37.848  24.260   5.856
 3625POPC   C1A48423  37.588  24.649   6.198
 3625POPC   D2A48424  37.898  24.732   6.510
 3625POPC   C3A48425  37.766  24.488   6.848
 3625POPC   C4A48426  37.507  24.614   7.142
 3625POPC   C1B48427  37.435  24.168   6.086
 3625POPC   C2B48428  37.417  24.220   6.511
 3625POPC   C3B48429  37.310  24.161   6.927
 3625POPC   C4B48430  37.626  24.110   7.202
 3626POPC   NC348431   4.607  12.952   5.516
 3626POPC   PO448432   4.188  12.510   5.288
 3626POPC   GL148433   4.206  12.715   5.718
 3626POPC   GL248434   4.061  12.994   5.835
 3626POPC   C1A48435   4.438  12.860   6.143
 3626POPC   D2A48436   4.537  13.017   6.561
 3626POPC   C3A48437   4.360  12.878   6.961
 3626POPC   C4A48438   4.351  12.529   7.229
 3626POPC   C1B48439   3.992  12.628   6.179
 3626POPC   C2B48440   4.152  12.508   6.633
 3626POPC   C3B48441   3.891  12.489   7.010
 3626POPC   C4B48442   3.896  12.564   7.477
 3627POPC   NC348443  35.379  41.845   5.402
 3627POPC   PO448444  34.995  42.364   5.560
 3627POPC   GL148445  35.308  42.297   5.896
 3627POPC   GL248446  35.529  42.574   5.935
 3627POPC   C1A48447  35.297  42.362   6.353
 3627POPC   D2A48448  35.186  42.581   6.720
 3627POPC   C3A48449  35.002  42.310   7.041
 3627POPC   C4A48450  34.834  42.402   7.433
 3627POPC   C1B48451  35.739  42.670   6.354
 3627POPC   C2B48452  35.709  42.696   6.809
 3627POPC   C3B48453  35.491  42.457   7.113
 3627POPC   C4B48454  35.426  42.058   7.247
 3628POPC   NC348455  20.064   2.539   5.467
 3628POPC   PO448456  19.569   3.012   5.526
 3628POPC   GL148457  19.685   2.689   5.794
 3628POPC   GL248458  20.006   2.731   5.956
 3628POPC   C1A48459  19.565   2.558   6.177
 3628POPC   D2A48460  19.558   2.799   6.571
 3628POPC   C3A48461  19.610   2.494   6.856
 3628POPC   C4A48462  19.803   2.684   7.178
 3628POPC   C1B48463  20.011   2.640   6.394
 3628POPC   C2B48464  20.140   2.439   6.786
 3628POPC   C3B48465  20.297   2.600   7.195
 3628POPC   C4B48466  20.047   2.525   7.595
 3629POPC   NC348467  31.903  13.254   5.430
 3629POPC   PO448468  32.463  12.775   5.371
 3629POPC   GL148469  32.191  12.902   5.700
 3629POPC   GL248470  32.452  13.060   5.887
 3629POPC   C1A48471  31.955  12.967   6.069
 3629POPC   D2A48472  31.846  12.911   6.501
 3629POPC   C3A48473  32.061  13.113   6.846
 3629POPC   C4A48474  32.174  12.888   7.244
 3629POPC   C1B48475  32.375  13.076   6.327
 3629POPC   C2B48476  32.362  12.773   6.619
 3629POPC   C3B48477  32.576  12.707   6.987
 3629POPC   C4B48478  32.686  12.700   7.422
 3630POPC   NC348479  18.938  16.237   5.290
 3630POPC   PO448480  19.278  15.752   5.100
 3630POPC   GL148481  19.207  15.819   5.603
 3630POPC   GL248482  18.856  15.832   5.721
 3630POPC   C1A48483  19.345  15.928   6.055
 3630POPC   D2A48484  19.169  15.994   6.490
 3630POPC   C3A48485  18.868  16.131   6.793
 3630POPC   C4A48486  19.193  16.168   7.090
 3630POPC   C1B48487  18.944  15.595   6.118
 3630POPC   C2B48488  19.115  15.504   6.533
 3630POPC   C3B48489  19.064  15.686   6.955
 3630POPC   C4B48490  18.783  15.900   7.261
 3631POPC   NC348491  27.199  43.381   5.633
 3631POPC   PO448492  26.663  43.056   5.406
 3631POPC   GL148493  26.796  42.979   5.792
 3631POPC   GL248494  26.753  43.319   5.893
 3631POPC   C1A48495  27.066  42.956   6.158
 3631POPC   D2A48496  27.220  42.842   6.550
 3631POPC   C3A48497  26.990  42.992   6.894
 3631POPC   C4A48498  26.945  43.150   7.306
 3631POPC   C1B48499  26.715  43.319   6.340
 3631POPC   C2B48500  26.478  43.116   6.667
 3631POPC   C3B48501  26.505  43.250   7.084
 3631POPC   C4B48502  26.530  43.238   7.548
 3632POPC   NC348503  44.315  42.641   5.423
 3632POPC   PO448504  44.711  43.285   5.320
 3632POPC   GL148505  44.475  43.196   5.677
 3632POPC   GL248506  44.332  43.465   5.860
 3632POPC   C1A48507  44.544  43.072   6.124
 3632POPC   D2A48508  44.604  42.866   6.529
 3632POPC   C3A48509  44.725  43.120   6.859
 3632POPC   C4A48510  44.666  42.976   7.267
 3632POPC   C1B48511  44.186  43.489   6.274
 3632POPC   C2B48512  44.123  43.261   6.651
 3632POPC   C3B48513  44.304  43.317   7.056
 3632POPC   C4B48514  44.688  43.499   7.240
 3633POPC   NC348515  31.607  10.937   5.410
 3633POPC   PO448516  31.413  11.559   5.451
 3633POPC   GL148517  31.406  11.251   5.805
 3633POPC   GL248518  31.088  11.141   5.926
 3633POPC   C1A48519  31.483  11.147   6.259
 3633POPC   D2A48520  31.581  11.376   6.629
 3633POPC   C3A48521  31.497  11.304   7.059
 3633POPC   C4A48522  31.749  11.557   7.274
 3633POPC   C1B48523  30.979  11.194   6.327
 3633POPC   C2B48524  31.100  11.230   6.736
 3633POPC   C3B48525  31.111  10.928   7.054
 3633POPC   C4B48526  31.239  10.968   7.460
 3634POPC   NC348527  20.116  20.538   5.440
 3634POPC   PO448528  19.622  20.941   5.395
 3634POPC   GL148529  19.868  20.829   5.775
 3634POPC   GL248530  19.741  20.500   5.806
 3634POPC   C1A48531  20.147  20.646   6.139
 3634POPC   D2A48532  20.315  20.561   6.571
 3634POPC   C3A48533  20.069  20.436   6.948
 3634POPC   C4A48534  20.121  20.724   7.361
 3634POPC   C1B48535  19.654  20.564   6.228
 3634POPC   C2B48536  19.546  20.433   6.643
 3634POPC   C3B48537  19.399  20.435   7.066
 3634POPC   C4B48538  19.665  20.513   7.403
 3635POPC   NC348539   4.156  17.667   5.275
 3635POPC   PO448540   4.563  17.189   5.389
 3635POPC   GL148541   4.346  17.193   5.761
 3635POPC   GL248542   4.342  17.567   5.809
 3635POPC   C1A48543   4.258  17.236   6.204
 3635POPC   D2A48544   4.106  17.400   6.573
 3635POPC   C3A48545   4.317  17.734   6.786
 3635POPC   C4A48546   4.456  17.651   7.193
 3635POPC   C1B48547   4.212  17.823   6.175
 3635POPC   C2B48548   3.902  17.873   6.485
 3635POPC   C3B48549   3.798  17.690   6.861
 3635POPC   C4B48550   4.014  17.913   7.172
 3636POPC   NC348551   5.877  29.106   5.451
 3636POPC   PO448552   5.584  29.674   5.397
 3636POPC   GL148553   5.688  29.471   5.772
 3636POPC   GL248554   6.083  29.442   5.822
 3636POPC   C1A48555   5.715  29.384   6.215
 3636POPC   D2A48556   6.074  29.331   6.515
 3636POPC   C3A48557   6.000  29.307   6.954
 3636POPC   C4A48558   5.630  29.450   7.146
 3636POPC   C1B48559   6.315  29.121   6.120
 3636POPC   C2B48560   6.395  28.919   6.567
 3636POPC   C3B48561   6.337  28.835   7.015
 3636POPC   C4B48562   6.082  28.726   7.403
 3637POPC   NC348563  19.570  27.982   5.491
 3637POPC   PO448564  19.849  28.587   5.469
 3637POPC   GL148565  19.625  28.418   5.796
 3637POPC   GL248566  19.887  28.188   5.851
 3637POPC   C1A48567  19.558  28.242   6.242
 3637POPC   D2A48568  19.448  28.165   6.701
 3637POPC   C3A48569  19.497  28.396   7.093
 3637POPC   C4A48570  19.841  28.662   7.251
 3637POPC   C1B48571  20.100  28.079   6.224
 3637POPC   C2B48572  20.233  28.221   6.631
 3637POPC   C3B48573  20.002  28.239   7.026
 3637POPC   C4B48574  20.183  28.280   7.457
 3638POPC   NC348575  28.647  17.165   5.312
 3638POPC   PO448576  28.611  16.526   5.397
 3638POPC   GL148577  28.281  16.625   5.734
 3638POPC   GL248578  28.052  16.333   5.860
 3638POPC   C1A48579  28.171  16.862   6.100
 3638POPC   D2A48580  28.328  16.852   6.506
 3638POPC   C3A48581  28.149  16.871   6.909
 3638POPC   C4A48582  28.419  16.897   7.191
 3638POPC   C1B48583  28.472  16.308   6.081
 3638POPC   C2B48584  28.671  16.422   6.459
 3638POPC   C3B48585  28.477  16.475   6.851
 3638POPC   C4B48586  28.634  16.452   7.246
 3639POPC   NC348587  42.779  18.443   5.473
 3639POPC   PO448588  43.381  18.161   5.507
 3639POPC   GL148589  43.215  18.313   5.850
 3639POPC   GL248590  42.964  18.113   5.827
 3639POPC   C1A48591  43.229  18.444   6.274
 3639POPC   D2A48592  43.002  18.473   6.665
 3639POPC   C3A48593  43.183  18.239   6.991
 3639POPC   C4A48594  43.415  18.440   7.291
 3639POPC   C1B48595  42.839  18.089   6.230
 3639POPC   C2B48596  42.816  17.993   6.660
 3639POPC   C3B48597  42.675  18.197   7.063
 3639POPC   C4B48598  42.692  18.031   7.489
 3640POPC   NC348599  22.394  40.727   5.406
 3640POPC   PO448600  23.040  40.965   5.289
 3640POPC   GL148601  22.955  40.935   5.702
 3640POPC   GL248602  22.787  40.660   5.711
 3640POPC   C1A48603  23.024  40.859   6.127
 3640POPC   D2A48604  23.042  40.630   6.489
 3640POPC   C3A48605  23.053  40.963   6.795
 3640POPC   C4A48606  23.232  40.930   7.160
 3640POPC   C1B48607  22.632  40.519   6.097
 3640POPC   C2B48608  22.509  40.632   6.529
 3640POPC   C3B48609  22.736  40.593   6.915
 3640POPC   C4B48610  22.809  40.745   7.378
 3641POPC   NC348611  24.411  28.236   5.422
 3641POPC   PO448612  24.667  28.729   5.076
 3641POPC   GL148613  24.703  28.624   5.607
 3641POPC   GL248614  24.361  28.591   5.798
 3641POPC   C1A48615  24.764  28.453   6.075
 3641POPC   D2A48616  24.467  28.556   6.397
 3641POPC   C3A48617  24.471  28.428   6.814
 3641POPC   C4A48618  24.426  28.615   7.214
 3641POPC   C1B48619  24.259  28.220   6.069
 3641POPC   C2B48620  24.433  27.999   6.428
 3641POPC   C3B48621  24.337  27.939   6.840
 3641POPC   C4B48622  24.383  28.112   7.236
 3642POPC   NC348623  30.112  29.516   5.466
 3642POPC   PO448624  29.660  29.030   5.376
 3642POPC   GL148625  29.880  29.132   5.726
 3642POPC   GL248626  29.742  29.421   5.846
 3642POPC   C1A48627  30.016  29.054   6.135
 3642POPC   D2A48628  30.041  29.243   6.515
 3642POPC   C3A48629  30.065  28.926   6.804
 3642POPC   C4A48630  29.827  28.899   7.197
 3642POPC   C1B48631  29.697  29.610   6.275
 3642POPC   C2B48632  29.609  29.522   6.704
 3642POPC   C3B48633  29.880  29.377   7.041
 3642POPC   C4B48634  29.695  29.372   7.514
 3643POPC   NC348635  12.726  25.360   5.383
 3643POPC   PO448636  13.286  25.001   5.447
 3643POPC   GL148637  12.984  25.154   5.773
 3643POPC   GL248638  12.656  24.969   5.719
 3643POPC   C1A48639  12.925  25.244   6.221
 3643POPC   D2A48640  12.832  25.543   6.554
 3643POPC   C3A48641  12.931  25.453   7.007
 3643POPC   C4A48642  12.749  25.557   7.421
 3643POPC   C1B48643  12.481  25.003   6.124
 3643POPC   C2B48644  12.598  24.834   6.531
 3643POPC   C3B48645  12.861  24.976   6.869
 3643POPC   C4B48646  12.780  25.068   7.316
 3644POPC   NC348647  36.467  20.761   5.315
 3644POPC   PO448648  35.971  21.140   5.583
 3644POPC   GL148649  35.944  20.953   5.981
 3644POPC   GL248650  35.679  20.730   5.980
 3644POPC   C1A48651  35.985  20.814   6.424
 3644POPC   D2A48652  36.256  20.504   6.619
 3644POPC   C3A48653  36.347  20.532   7.065
 3644POPC   C4A48654  36.383  20.332   7.475
 3644POPC   C1B48655  35.845  20.386   6.160
 3644POPC   C2B48656  35.810  20.273   6.561
 3644POPC   C3B48657  35.818  20.546   6.898
 3644POPC   C4B48658  35.881  20.481   7.313
 3645POPC   NC348659  41.414  25.527   5.247
 3645POPC   PO448660  41.767  24.992   5.455
 3645POPC   GL148661  41.649  25.316   5.743
 3645POPC   GL248662  41.815  25.643   5.649
 3645POPC   C1A48663  41.568  25.256   6.207
 3645POPC   D2A48664  41.641  24.994   6.577
 3645POPC   C3A48665  41.356  25.125   6.919
 3645POPC   C4A48666  41.389  25.356   7.295
 3645POPC   C1B48667  41.582  25.740   6.039
 3645POPC   C2B48668  41.562  25.798   6.505
 3645POPC   C3B48669  41.626  25.675   6.954
 3645POPC   C4B48670  41.449  25.873   7.352
 3646POPC   NC348671  17.159  44.145   5.365
 3646POPC   PO448672  16.545  43.818   5.094
 3646POPC   GL148673  16.737  43.926   5.576
 3646POPC   GL248674  17.058  43.732   5.702
 3646POPC   C1A48675  16.861  44.042   6.055
 3646POPC   D2A48676  17.036  43.911   6.486
 3646POPC   C3A48677  16.891  44.037   6.918
 3646POPC   C4A48678  16.741  44.019   7.351
 3646POPC   C1B48679  16.946  43.541   6.107
 3646POPC   C2B48680  17.030  43.400   6.509
 3646POPC   C3B48681  16.933  43.528   6.903
 3646POPC   C4B48682  17.107  43.669   7.280
 3647POPC   NC348683   0.488  30.707   5.339
 3647POPC   PO448684   0.074  31.177   5.511
 3647POPC   GL148685   0.381  30.968   5.808
 3647POPC   GL248686   0.462  30.590   5.835
 3647POPC   C1A48687   0.499  30.957   6.263
 3647POPC   D2A48688   0.511  31.054   6.719
 3647POPC   C3A48689   0.579  30.714   7.081
 3647POPC   C4A48690   0.704  30.673   7.580
 3647POPC   C1B48691   0.484  30.346   6.203
 3647POPC   C2B48692   0.309  30.398   6.596
 3647POPC   C3B48693   0.318  30.258   6.995
 3647POPC   C4B48694   0.349  30.375   7.404
 3648POPC   NC348695  27.011   4.146   5.562
 3648POPC   PO448696  26.746   4.797   5.381
 3648POPC   GL148697  26.729   4.535   5.766
 3648POPC   GL248698  27.034   4.668   5.841
 3648POPC   C1A48699  26.590   4.311   6.162
 3648POPC   D2A48700  26.496   4.155   6.588
 3648POPC   C3A48701  26.711   4.250   6.958
 3648POPC   C4A48702  26.754   4.554   7.260
 3648POPC   C1B48703  27.092   4.366   6.175
 3648POPC   C2B48704  27.065   4.228   6.575
 3648POPC   C3B48705  27.229   4.144   6.995
 3648POPC   C4B48706  26.979   3.937   7.270
 3649POPC   NC348707  34.849  38.144   5.338
 3649POPC   PO448708  34.326  38.570   5.312
 3649POPC   GL148709  34.627  38.587   5.646
 3649POPC   GL248710  34.626  38.244   5.788
 3649POPC   C1A48711  34.699  38.611   6.121
 3649POPC   D2A48712  34.780  38.470   6.541
 3649POPC   C3A48713  34.732  38.607   6.960
 3649POPC   C4A48714  34.573  38.358   7.299
 3649POPC   C1B48715  34.899  38.107   6.165
 3649POPC   C2B48716  35.090  38.068   6.630
 3649POPC   C3B48717  35.043  38.219   7.102
 3649POPC   C4B48718  34.939  38.149   7.605
 3650POPC   NC348719  41.833   1.436   5.398
 3650POPC   PO448720  41.624   2.112   5.467
 3650POPC   GL148721  41.677   1.783   5.803
 3650POPC   GL248722  41.376   1.594   5.934
 3650POPC   C1A48723  41.668   1.895   6.245
 3650POPC   D2A48724  41.455   2.178   6.539
 3650POPC   C3A48725  41.591   1.946   6.873
 3650POPC   C4A48726  41.586   1.968   7.294
 3650POPC   C1B48727  41.175   1.908   6.204
 3650POPC   C2B48728  41.186   1.735   6.643
 3650POPC   C3B48729  41.107   1.934   7.052
 3650POPC   C4B48730  41.133   1.859   7.495
 3651POPC   NC348731   8.014   0.017   5.516
 3651POPC   PO448732   8.602  44.680   5.350
 3651POPC   GL148733   8.363  44.673   5.745
 3651POPC   GL248734   8.266  44.339   5.878
 3651POPC   C1A48735   8.179  44.793   6.181
 3651POPC   D2A48736   8.091  44.578   6.585
 3651POPC   C3A48737   7.955  44.766   6.972
 3651POPC   C4A48738   7.746  44.494   7.268
 3651POPC   C1B48739   8.493  44.410   6.286
 3651POPC   C2B48740   8.540  44.389   6.765
 3651POPC   C3B48741   8.234  44.344   7.063
 3651POPC   C4B48742   8.205  44.598   7.451
 3652POPC   NC348743  36.031  41.556   5.450
 3652POPC   PO448744  35.740  40.988   5.275
 3652POPC   GL148745  35.928  41.237   5.814
 3652POPC   GL248746  35.837  41.669   5.952
 3652POPC   C1A48747  36.177  41.400   6.189
 3652POPC   D2A48748  36.000  41.741   6.490
 3652POPC   C3A48749  36.090  41.629   6.930
 3652POPC   C4A48750  36.445  41.386   7.169
 3652POPC   C1B48751  35.658  41.384   6.269
 3652POPC   C2B48752  35.809  41.174   6.630
 3652POPC   C3B48753  35.955  41.150   7.024
 3652POPC   C4B48754  35.978  41.378   7.393
 3653POPC   NC348755   9.163  43.391   5.160
 3653POPC   PO448756   8.755  42.975   5.377
 3653POPC   GL148757   9.044  43.210   5.656
 3653POPC   GL248758   8.803  43.412   5.767
 3653POPC   C1A48759   9.162  43.216   6.113
 3653POPC   D2A48760   9.208  43.090   6.560
 3653POPC   C3A48761   8.959  42.831   6.815
 3653POPC   C4A48762   8.955  42.992   7.198
 3653POPC   C1B48763   8.628  43.344   6.233
 3653POPC   C2B48764   8.644  43.256   6.727
 3653POPC   C3B48765   8.620  43.379   7.180
 3653POPC   C4B48766   8.580  43.568   7.621
 3654POPC   NC348767  39.778  14.238   5.540
 3654POPC   PO448768  40.315  13.873   5.225
 3654POPC   GL148769  40.211  14.021   5.666
 3654POPC   GL248770  40.241  14.380   5.751
 3654POPC   C1A48771  40.177  14.032   6.160
 3654POPC   D2A48772  39.895  14.133   6.534
 3654POPC   C3A48773  39.948  14.218   6.998
 3654POPC   C4A48774  39.793  14.465   7.377
 3654POPC   C1B48775  40.243  14.556   6.200
 3654POPC   C2B48776  40.155  14.580   6.667
 3654POPC   C3B48777  40.319  14.573   7.098
 3654POPC   C4B48778  40.614  14.831   7.350
 3655POPC   NC348779  15.684   3.699   5.581
 3655POPC   PO448780  15.854   3.127   5.294
 3655POPC   GL148781  15.907   3.318   5.802
 3655POPC   GL248782  16.201   3.585   5.898
 3655POPC   C1A48783  15.854   3.547   6.232
 3655POPC   D2A48784  15.980   3.664   6.642
 3655POPC   C3A48785  15.757   3.381   6.940
 3655POPC   C4A48786  15.609   3.317   7.355
 3655POPC   C1B48787  16.366   3.401   6.333
 3655POPC   C2B48788  16.235   3.271   6.792
 3655POPC   C3B48789  16.185   3.415   7.227
 3655POPC   C4B48790  16.449   3.504   7.604
 3656POPC   NC348791  21.864  16.979   5.633
 3656POPC   PO448792  22.172  17.589   5.419
 3656POPC   GL148793  21.988  17.483   5.809
 3656POPC   GL248794  22.069  17.812   5.900
 3656POPC   C1A48795  22.107  17.331   6.242
 3656POPC   D2A48796  22.266  17.496   6.653
 3656POPC   C3A48797  22.236  17.308   7.064
 3656POPC   C4A48798  21.901  17.409   7.320
 3656POPC   C1B48799  22.282  17.854   6.283
 3656POPC   C2B48800  22.097  18.002   6.657
 3656POPC   C3B48801  22.096  17.817   7.056
 3656POPC   C4B48802  21.979  17.910   7.446
 3657POPC   NC348803  31.366  41.843   5.330
 3657POPC   PO448804  31.839  41.496   5.573
 3657POPC   GL148805  31.578  41.437   5.864
 3657POPC   GL248806  31.313  41.597   5.852
 3657POPC   C1A48807  31.610  41.554   6.249
 3657POPC   D2A48808  31.560  41.360   6.586
 3657POPC   C3A48809  31.662  41.577   6.948
 3657POPC   C4A48810  31.586  41.383   7.339
 3657POPC   C1B48811  31.210  41.240   6.182
 3657POPC   C2B48812  31.142  41.040   6.604
 3657POPC   C3B48813  31.250  41.246   6.989
 3657POPC   C4B48814  31.192  41.684   7.108
 3658POPC   NC348815  36.919  41.313   5.347
 3658POPC   PO448816  36.854  41.935   5.112
 3658POPC   GL148817  36.787  41.727   5.618
 3658POPC   GL248818  36.650  41.395   5.780
 3658POPC   C1A48819  37.000  41.639   6.078
 3658POPC   D2A48820  37.015  41.810   6.514
 3658POPC   C3A48821  37.189  41.657   6.899
 3658POPC   C4A48822  36.864  41.720   7.199
 3658POPC   C1B48823  36.704  41.225   6.210
 3658POPC   C2B48824  36.819  41.322   6.660
 3658POPC   C3B48825  36.895  41.143   7.073
 3658POPC   C4B48826  36.750  41.027   7.508
 3659POPC   NC348827  43.746  36.875   5.383
 3659POPC   PO448828  44.285  37.300   5.537
 3659POPC   GL148829  43.949  37.129   5.799
 3659POPC   GL248830  43.926  36.765   5.828
 3659POPC   C1A48831  43.801  37.085   6.221
 3659POPC   D2A48832  43.534  37.030   6.560
 3659POPC   C3A48833  43.818  37.059   6.874
 3659POPC   C4A48834  43.983  36.953   7.244
 3659POPC   C1B48835  44.084  36.612   6.183
 3659POPC   C2B48836  44.074  36.731   6.578
 3659POPC   C3B48837  44.252  36.604   6.942
 3659POPC   C4B48838  44.177  36.501   7.364
 3660POPC   NC348839   0.157  42.342   5.350
 3660POPC   PO448840   0.086  41.719   5.444
 3660POPC   GL148841   0.166  41.976   5.813
 3660POPC   GL248842  44.971  42.283   5.859
 3660POPC   C1A48843   0.447  42.217   6.129
 3660POPC   D2A48844   0.744  42.227   6.491
 3660POPC   C3A48845   0.602  42.406   6.884
 3660POPC   C4A48846   0.593  42.236   7.308
 3660POPC   C1B48847  44.978  42.100   6.277
 3660POPC   C2B48848   0.185  42.122   6.694
 3660POPC   C3B48849   0.119  42.312   7.097
 3660POPC   C4B48850   0.132  42.226   7.568
 3661POPC   NC348851  13.232   9.124   5.331
 3661POPC   PO448852  12.674   8.764   5.346
 3661POPC   GL148853  12.913   8.897   5.708
 3661POPC   GL248854  12.732   8.658   5.888
 3661POPC   C1A48855  12.976   9.053   6.153
 3661POPC   D2A48856  12.762   9.070   6.564
 3661POPC   C3A48857  12.998   9.091   6.932
 3661POPC   C4A48858  13.264   9.156   7.264
 3661POPC   C1B48859  12.478   8.868   6.183
 3661POPC   C2B48860  12.379   8.732   6.591
 3661POPC   C3B48861  12.573   8.798   6.978
 3661POPC   C4B48862  12.559   8.503   7.263
 3662POPC   NC348863  19.467  13.984   5.700
 3662POPC   PO448864  18.885  13.822   5.429
 3662POPC   GL148865  19.061  13.671   5.827
 3662POPC   GL248866  18.904  13.370   5.803
 3662POPC   C1A48867  19.269  13.755   6.256
 3662POPC   D2A48868  19.264  13.990   6.612
 3662POPC   C3A48869  19.170  13.719   6.908
 3662POPC   C4A48870  19.359  13.557   7.242
 3662POPC   C1B48871  19.156  13.280   6.187
 3662POPC   C2B48872  19.028  13.311   6.639
 3662POPC   C3B48873  18.927  13.310   7.114
 3662POPC   C4B48874  19.018  13.389   7.595
 3663POPC   NC348875   6.868  41.429   5.381
 3663POPC   PO448876   6.235  41.620   5.465
 3663POPC   GL148877   6.565  41.730   5.770
 3663POPC   GL248878   6.923  41.621   5.847
 3663POPC   C1A48879   6.539  41.510   6.167
 3663POPC   D2A48880   6.793  41.521   6.527
 3663POPC   C3A48881   6.616  41.622   6.890
 3663POPC   C4A48882   6.403  41.366   7.149
 3663POPC   C1B48883   6.891  41.895   6.184
 3663POPC   C2B48884   7.083  41.968   6.588
 3663POPC   C3B48885   7.109  41.729   6.938
 3663POPC   C4B48886   6.930  41.470   7.273
 3664POPC   NC348887  24.228   6.806   5.357
 3664POPC   PO448888  24.812   6.783   5.542
 3664POPC   GL148889  24.526   6.593   5.882
 3664POPC   GL248890  24.175   6.491   5.903
 3664POPC   C1A48891  24.386   6.694   6.334
 3664POPC   D2A48892  24.181   6.583   6.753
 3664POPC   C3A48893  24.360   6.761   7.151
 3664POPC   C4A48894  24.116   6.928   7.536
 3664POPC   C1B48895  24.370   6.188   6.207
 3664POPC   C2B48896  24.479   6.065   6.642
 3664POPC   C3B48897  24.739   6.225   6.990
 3664POPC   C4B48898  24.819   6.568   7.306
 3665POPC   NC348899  12.237  19.476   5.640
 3665POPC   PO448900  11.709  19.908   5.491
 3665POPC   GL148901  11.739  19.975   5.917
 3665POPC   GL248902  12.077  19.865   5.938
 3665POPC   C1A48903  11.817  19.957   6.370
 3665POPC   D2A48904  11.766  19.665   6.705
 3665POPC   C3A48905  11.853  19.858   7.112
 3665POPC   C4A48906  12.137  19.746   7.467
 3665POPC   C1B48907  12.318  19.950   6.329
 3665POPC   C2B48908  12.151  20.095   6.757
 3665POPC   C3B48909  12.266  20.183   7.202
 3665POPC   C4B48910  12.555  20.047   7.545
 3666POPC   NC348911   7.108  19.862   5.467
 3666POPC   PO448912   7.616  20.289   5.572
 3666POPC   GL148913   7.478  19.929   5.818
 3666POPC   GL248914   7.132  19.825   5.975
 3666POPC   C1A48915   7.587  19.778   6.202
 3666POPC   D2A48916   7.375  19.823   6.590
 3666POPC   C3A48917   7.591  19.942   6.966
 3666POPC   C4A48918   7.469  20.032   7.401
 3666POPC   C1B48919   7.240  19.427   6.239
 3666POPC   C2B48920   7.548  19.328   6.517
 3666POPC   C3B48921   7.539  19.448   6.918
 3666POPC   C4B48922   7.302  19.591   7.218
 3667POPC   NC348923  35.738  20.700   5.483
 3667POPC   PO448924  35.189  20.249   5.319
 3667POPC   GL148925  35.262  20.457   5.704
 3667POPC   GL248926  35.503  20.242   5.820
 3667POPC   C1A48927  35.201  20.691   6.106
 3667POPC   D2A48928  35.489  20.696   6.472
 3667POPC   C3A48929  35.362  20.770   6.907
 3667POPC   C4A48930  35.640  20.931   7.231
 3667POPC   C1B48931  35.356  20.222   6.264
 3667POPC   C2B48932  35.334  20.279   6.716
 3667POPC   C3B48933  35.558  20.116   7.066
 3667POPC   C4B48934  35.352  20.404   7.271
 3668POPC   NC348935  27.013  28.624   5.549
 3668POPC   PO448936  26.586  28.095   5.533
 3668POPC   GL148937  26.695  28.319   5.883
 3668POPC   GL248938  27.012  28.207   5.888
 3668POPC   C1A48939  26.812  28.633   6.219
 3668POPC   D2A48940  26.948  28.612   6.661
 3668POPC   C3A48941  26.646  28.652   7.005
 3668POPC   C4A48942  26.656  28.491   7.444
 3668POPC   C1B48943  27.003  28.168   6.290
 3668POPC   C2B48944  26.786  28.135   6.619
 3668POPC   C3B48945  26.905  28.206   7.015
 3668POPC   C4B48946  27.046  28.161   7.411
 3669POPC   NC348947  26.397  32.488   5.291
 3669POPC   PO448948  26.610  31.981   5.633
 3669POPC   GL148949  26.870  32.267   5.800
 3669POPC   GL248950  26.632  32.502   5.748
 3669POPC   C1A48951  26.950  32.249   6.248
 3669POPC   D2A48952  26.783  32.098   6.573
 3669POPC   C3A48953  26.981  32.286   6.871
 3669POPC   C4A48954  26.765  32.190   7.211
 3669POPC   C1B48955  26.462  32.279   6.151
 3669POPC   C2B48956  26.310  32.335   6.542
 3669POPC   C3B48957  26.500  32.486   6.892
 3669POPC   C4B48958  26.402  32.513   7.312
 3670POPC   NC348959  19.240   5.871   5.240
 3670POPC   PO448960  18.674   5.519   5.589
 3670POPC   GL148961  18.905   5.844   5.763
 3670POPC   GL248962  19.224   5.776   5.744
 3670POPC   C1A48963  19.041   5.967   6.177
 3670POPC   D2A48964  19.141   6.087   6.563
 3670POPC   C3A48965  19.063   5.891   6.963
 3670POPC   C4A48966  18.928   6.037   7.357
 3670POPC   C1B48967  19.416   5.616   6.136
 3670POPC   C2B48968  19.458   5.681   6.589
 3670POPC   C3B48969  19.386   5.511   7.019
 3670POPC   C4B48970  19.274   5.691   7.454
 3671POPC   NC348971  33.297  38.092   5.440
 3671POPC   PO448972  33.055  38.682   5.362
 3671POPC   GL148973  32.969  38.426   5.705
 3671POPC   GL248974  33.258  38.409   5.906
 3671POPC   C1A48975  32.787  38.344   6.118
 3671POPC   D2A48976  32.722  38.616   6.477
 3671POPC   C3A48977  32.703  38.462   6.886
 3671POPC   C4A48978  32.954  38.513   7.243
 3671POPC   C1B48979  33.236  38.541   6.361
 3671POPC   C2B48980  33.303  38.624   6.821
 3671POPC   C3B48981  33.471  38.421   7.219
 3671POPC   C4B48982  33.322  38.341   7.635
 3672POPC   NC348983  37.559   5.326   5.221
 3672POPC   PO448984  37.977   4.847   5.299
 3672POPC   GL148985  37.678   4.980   5.682
 3672POPC   GL248986  37.704   5.332   5.764
 3672POPC   C1A48987  37.532   4.908   6.167
 3672POPC   D2A48988  37.374   4.756   6.612
 3672POPC   C3A48989  37.559   4.878   7.036
 3672POPC   C4A48990  37.482   4.852   7.524
 3672POPC   C1B48991  37.603   5.428   6.181
 3672POPC   C2B48992  37.470   5.267   6.591
 3672POPC   C3B48993  37.609   5.393   7.009
 3672POPC   C4B48994  37.447   5.344   7.420
 3673POPC   NC348995   1.445   4.916   5.196
 3673POPC   PO448996   1.256   5.501   5.531
 3673POPC   GL148997   1.275   5.228   5.916
 3673POPC   GL248998   1.368   4.902   5.780
 3673POPC   C1A48999   1.500   4.992   6.276
 3673POPC   D2A49000   1.391   4.829   6.708
 3673POPC   C3A49001   1.341   5.222   6.936
 3673POPC   C4A49002   1.105   5.325   7.263
 3673POPC   C1B49003   1.010   4.850   6.126
 3673POPC   C2B49004   0.932   4.550   6.471
 3673POPC   C3B49005   0.922   4.651   6.892
 3673POPC   C4B49006   1.000   4.833   7.263
 3674POPC   NC349007   5.387  22.502   5.482
 3674POPC   PO449008   5.143  21.971   5.367
 3674POPC   GL149009   5.034  22.035   5.785
 3674POPC   GL249010   4.987  22.375   5.802
 3674POPC   C1A49011   4.949  21.899   6.205
 3674POPC   D2A49012   5.182  21.986   6.577
 3674POPC   C3A49013   5.033  21.985   7.010
 3674POPC   C4A49014   5.280  21.996   7.422
 3674POPC   C1B49015   5.149  22.400   6.234
 3674POPC   C2B49016   5.097  22.476   6.701
 3674POPC   C3B49017   5.253  22.439   7.144
 3674POPC   C4B49018   5.204  22.548   7.599
 3675POPC   NC349019  23.794  13.957   5.537
 3675POPC   PO449020  23.546  14.522   5.224
 3675POPC   GL149021  23.550  14.583   5.708
 3675POPC   GL249022  23.810  14.808   5.863
 3675POPC   C1A49023  23.512  14.536   6.168
 3675POPC   D2A49024  23.518  14.323   6.560
 3675POPC   C3A49025  23.638  14.623   6.869
 3675POPC   C4A49026  23.503  14.576   7.272
 3675POPC   C1B49027  24.009  14.629   6.230
 3675POPC   C2B49028  24.030  14.409   6.599
 3675POPC   C3B49029  24.139  14.516   6.977
 3675POPC   C4B49030  23.953  14.804   7.251
 3676POPC   NC349031   6.069  13.294   5.442
 3676POPC   PO449032   5.471  13.734   5.289
 3676POPC   GL149033   5.698  13.608   5.670
 3676POPC   GL249034   5.597  13.246   5.688
 3676POPC   C1A49035   5.855  13.704   6.090
 3676POPC   D2A49036   5.814  14.023   6.428
 3676POPC   C3A49037   5.900  13.829   6.837
 3676POPC   C4A49038   5.740  13.947   7.256
 3676POPC   C1B49039   5.757  13.182   6.117
 3676POPC   C2B49040   5.821  13.131   6.572
 3676POPC   C3B49041   6.108  13.247   6.892
 3676POPC   C4B49042   5.959  13.480   7.224
 3677POPC   NC349043  44.520  25.570   5.506
 3677POPC   PO449044  44.621  24.905   5.572
 3677POPC   GL149045  44.515  25.188   5.844
 3677POPC   GL249046  44.858  25.317   5.838
 3677POPC   C1A49047  44.621  25.194   6.259
 3677POPC   D2A49048  44.813  25.012   6.554
 3677POPC   C3A49049  44.607  25.180   6.887
 3677POPC   C4A49050  44.697  25.196   7.253
 3677POPC   C1B49051   0.023  25.519   6.247
 3677POPC   C2B49052  44.798  25.565   6.623
 3677POPC   C3B49053  44.856  25.639   7.056
 3677POPC   C4B49054  44.952  25.556   7.479
 3678POPC   NC349055  32.372  31.030   5.339
 3678POPC   PO449056  31.951  31.485   5.145
 3678POPC   GL149057  31.946  31.400   5.679
 3678POPC   GL249058  32.055  31.058   5.776
 3678POPC   C1A49059  32.165  31.448   6.130
 3678POPC   D2A49060  32.370  31.691   6.474
 3678POPC   C3A49061  32.464  31.542   6.905
 3678POPC   C4A49062  32.442  31.703   7.312
 3678POPC   C1B49063  31.781  31.110   6.171
 3678POPC   C2B49064  31.631  31.069   6.634
 3678POPC   C3B49065  31.967  31.161   6.926
 3678POPC   C4B49066  32.278  31.163   7.258
 3679POPC   NC349067  35.192  14.231   5.656
 3679POPC   PO449068  35.295  14.614   5.157
 3679POPC   GL149069  35.467  14.656   5.667
 3679POPC   GL249070  35.698  14.448   5.811
 3679POPC   C1A49071  35.319  14.604   6.141
 3679POPC   D2A49072  35.092  14.557   6.529
 3679POPC   C3A49073  35.303  14.658   6.868
 3679POPC   C4A49074  35.398  14.484   7.273
 3679POPC   C1B49075  35.818  14.645   6.214
 3679POPC   C2B49076  35.755  14.549   6.648
 3679POPC   C3B49077  35.820  14.700   7.088
 3679POPC   C4B49078  35.750  14.698   7.579
 3680POPC   NC349079  25.429  28.012   5.502
 3680POPC   PO449080  25.281  27.446   5.093
 3680POPC   GL149081  25.338  27.493   5.595
 3680POPC   GL249082  25.050  27.706   5.687
 3680POPC   C1A49083  25.350  27.682   6.083
 3680POPC   D2A49084  25.459  27.649   6.514
 3680POPC   C3A49085  25.340  27.663   6.941
 3680POPC   C4A49086  25.597  27.725   7.273
 3680POPC   C1B49087  24.990  27.349   5.971
 3680POPC   C2B49088  25.037  27.363   6.423
 3680POPC   C3B49089  24.930  27.379   6.862
 3680POPC   C4B49090  24.820  27.119   7.194
 3681POPC   NC349091  32.393   7.080   5.537
 3681POPC   PO449092  31.948   7.551   5.520
 3681POPC   GL149093  32.139   7.484   5.912
 3681POPC   GL249094  32.495   7.484   5.903
 3681POPC   C1A49095  32.196   7.708   6.314
 3681POPC   D2A49096  32.189   7.536   6.740
 3681POPC   C3A49097  32.035   7.639   7.142
 3681POPC   C4A49098  32.086   7.485   7.596
 3681POPC   C1B49099  32.441   7.256   6.317
 3681POPC   C2B49100  32.546   7.187   6.780
 3681POPC   C3B49101  32.461   7.337   7.215
 3681POPC   C4B49102  32.487   7.107   7.644
 3682POPC   NC349103  25.792  40.349   5.333
 3682POPC   PO449104  25.165  40.079   5.269
 3682POPC   GL149105  25.158  39.958   5.724
 3682POPC   GL249106  25.485  39.883   5.831
 3682POPC   C1A49107  25.095  39.969   6.191
 3682POPC   D2A49108  25.121  39.805   6.636
 3682POPC   C3A49109  25.092  40.058   7.047
 3682POPC   C4A49110  24.863  40.489   7.157
 3682POPC   C1B49111  25.632  39.956   6.276
 3682POPC   C2B49112  25.591  40.023   6.741
 3682POPC   C3B49113  25.812  39.784   7.064
 3682POPC   C4B49114  25.553  39.901   7.399
 3683POPC   NC349115   3.473  32.777   5.179
 3683POPC   PO449116   2.925  33.222   5.236
 3683POPC   GL149117   2.720  33.072   5.664
 3683POPC   GL249118   2.643  32.728   5.815
 3683POPC   C1A49119   2.784  33.147   6.139
 3683POPC   D2A49120   3.020  33.288   6.515
 3683POPC   C3A49121   2.932  33.133   6.933
 3683POPC   C4A49122   3.075  33.301   7.330
 3683POPC   C1B49123   2.451  32.779   6.225
 3683POPC   C2B49124   2.634  32.809   6.629
 3683POPC   C3B49125   2.703  32.652   7.031
 3683POPC   C4B49126   2.647  32.988   7.350
 3684POPC   NC349127   2.165  34.126   5.101
 3684POPC   PO449128   2.045  33.587   5.520
 3684POPC   GL149129   1.950  33.714   5.930
 3684POPC   GL249130   1.766  34.014   5.901
 3684POPC   C1A49131   1.934  33.653   6.361
 3684POPC   D2A49132   2.099  33.632   6.763
 3684POPC   C3A49133   1.866  33.753   7.083
 3684POPC   C4A49134   1.781  34.180   7.164
 3684POPC   C1B49135   1.995  34.176   6.283
 3684POPC   C2B49136   2.115  34.151   6.745
 3684POPC   C3B49137   2.306  33.994   7.152
 3684POPC   C4B49138   2.242  33.739   7.514
 3685POPC   NC349139  39.734  40.290   5.173
 3685POPC   PO449140  40.354  40.305   5.493
 3685POPC   GL149141  40.230  40.125   5.884
 3685POPC   GL249142  39.881  39.993   5.901
 3685POPC   C1A49143  40.035  40.329   6.271
 3685POPC   D2A49144  39.927  40.181   6.680
 3685POPC   C3A49145  40.182  40.306   7.035
 3685POPC   C4A49146  40.072  40.279   7.493
 3685POPC   C1B49147  40.126  39.843   6.295
 3685POPC   C2B49148  40.271  39.766   6.707
 3685POPC   C3B49149  40.200  39.802   7.117
 3685POPC   C4B49150  40.455  39.916   7.428
 3686POPC   NC349151   6.849  31.538   5.493
 3686POPC   PO449152   6.190  31.656   5.435
 3686POPC   GL149153   6.280  31.501   5.822
 3686POPC   GL249154   6.350  31.160   5.690
 3686POPC   C1A49155   6.456  31.534   6.268
 3686POPC   D2A49156   6.413  31.629   6.738
 3686POPC   C3A49157   6.418  31.892   7.134
 3686POPC   C4A49158   6.478  31.748   7.578
 3686POPC   C1B49159   6.183  31.106   6.112
 3686POPC   C2B49160   6.376  31.075   6.521
 3686POPC   C3B49161   6.233  31.187   6.931
 3686POPC   C4B49162   6.544  31.384   7.194
 3687POPC   NC349163  41.524  38.958   5.507
 3687POPC   PO449164  41.165  39.526   5.466
 3687POPC   GL149165  41.385  39.337   5.843
 3687POPC   GL249166  41.446  38.974   6.005
 3687POPC   C1A49167  41.253  39.352   6.279
 3687POPC   D2A49168  41.510  39.284   6.635
 3687POPC   C3A49169  41.433  39.336   7.056
 3687POPC   C4A49170  41.511  39.042   7.390
 3687POPC   C1B49171  41.761  39.224   6.184
 3687POPC   C2B49172  42.009  39.184   6.563
 3687POPC   C3B49173  41.889  39.146   6.969
 3687POPC   C4B49174  42.010  39.205   7.348
 3688POPC   NC349175   8.824  28.884   5.265
 3688POPC   PO449176   9.402  29.019   5.563
 3688POPC   GL149177   9.131  28.942   5.909
 3688POPC   GL249178   8.778  29.007   5.784
 3688POPC   C1A49179   9.004  29.036   6.350
 3688POPC   D2A49180   8.746  29.095   6.727
 3688POPC   C3A49181   9.028  29.224   7.042
 3688POPC   C4A49182   9.186  29.627   7.182
 3688POPC   C1B49183   8.549  28.891   6.152
 3688POPC   C2B49184   8.534  28.671   6.539
 3688POPC   C3B49185   8.382  28.721   6.957
 3688POPC   C4B49186   8.624  28.961   7.228
 3689POPC   NC349187   6.899  22.398   5.104
 3689POPC   PO449188   7.174  21.930   5.286
 3689POPC   GL149189   7.351  21.884   5.747
 3689POPC   GL249190   7.601  21.613   5.842
 3689POPC   C1A49191   7.517  21.987   6.196
 3689POPC   D2A49192   7.563  21.828   6.635
 3689POPC   C3A49193   7.608  22.177   6.918
 3689POPC   C4A49194   7.431  22.278   7.332
 3689POPC   C1B49195   7.228  21.580   6.152
 3689POPC   C2B49196   7.074  21.829   6.507
 3689POPC   C3B49197   7.136  21.980   6.938
 3689POPC   C4B49198   6.876  22.154   7.272
 3690POPC   NC349199   3.552  23.136   4.995
 3690POPC   PO449200   3.306  22.753   5.484
 3690POPC   GL149201   3.053  22.823   5.860
 3690POPC   GL249202   2.910  22.525   5.801
 3690POPC   C1A49203   3.146  22.897   6.325
 3690POPC   D2A49204   3.482  22.889   6.650
 3690POPC   C3A49205   3.419  23.032   7.103
 3690POPC   C4A49206   3.419  23.122   7.558
 3690POPC   C1B49207   3.092  22.378   6.189
 3690POPC   C2B49208   3.340  22.376   6.575
 3690POPC   C3B49209   3.357  22.535   6.993
 3690POPC   C4B49210   3.596  22.586   7.387
 3691POPC   NC349211  11.465  27.748   5.419
 3691POPC   PO449212  11.583  27.086   5.338
 3691POPC   GL149213  11.373  27.310   5.716
 3691POPC   GL249214  10.990  27.337   5.684
 3691POPC   C1A49215  11.459  27.498   6.149
 3691POPC   D2A49216  11.580  27.344   6.596
 3691POPC   C3A49217  11.474  27.683   6.931
 3691POPC   C4A49218  11.432  27.915   7.335
 3691POPC   C1B49219  11.034  27.203   6.130
 3691POPC   C2B49220  11.097  27.430   6.525
 3691POPC   C3B49221  11.131  27.282   6.953
 3691POPC   C4B49222  10.949  27.358   7.375
 3692POPC   NC349223  12.897  15.429   5.697
 3692POPC   PO449224  12.561  15.017   5.323
 3692POPC   GL149225  12.541  15.009   5.771
 3692POPC   GL249226  12.423  15.333   5.851
 3692POPC   C1A49227  12.504  14.963   6.239
 3692POPC   D2A49228  12.811  15.091   6.562
 3692POPC   C3A49229  12.840  15.238   6.971
 3692POPC   C4A49230  12.864  15.035   7.391
 3692POPC   C1B49231  12.626  15.466   6.258
 3692POPC   C2B49232  12.586  15.619   6.641
 3692POPC   C3B49233  12.649  15.731   7.026
 3692POPC   C4B49234  12.471  15.406   7.269
 3693POPC   NC349235  23.949   1.217   5.199
 3693POPC   PO449236  23.432   0.799   5.235
 3693POPC   GL149237  23.607   1.035   5.648
 3693POPC   GL249238  23.984   1.121   5.708
 3693POPC   C1A49239  23.452   1.202   6.092
 3693POPC   D2A49240  23.640   1.158   6.517
 3693POPC   C3A49241  23.525   1.178   6.970
 3693POPC   C4A49242  23.881   1.155   7.225
 3693POPC   C1B49243  23.935   1.426   6.066
 3693POPC   C2B49244  23.780   1.666   6.441
 3693POPC   C3B49245  23.763   1.627   6.899
 3693POPC   C4B49246  23.524   1.639   7.278
 3694POPC   NC349247  36.878  13.072   5.576
 3694POPC   PO449248  36.534  12.564   5.292
 3694POPC   GL149249  36.736  12.618   5.778
 3694POPC   GL249250  37.081  12.729   5.881
 3694POPC   C1A49251  36.789  12.836   6.264
 3694POPC   D2A49252  37.108  12.883   6.610
 3694POPC   C3A49253  36.823  12.932   6.924
 3694POPC   C4A49254  36.830  12.693   7.265
 3694POPC   C1B49255  37.180  13.126   6.152
 3694POPC   C2B49256  37.497  13.235   6.431
 3694POPC   C3B49257  37.451  13.294   6.862
 3694POPC   C4B49258  37.260  13.021   7.175
 3695POPC   NC349259  20.793  26.866   5.344
 3695POPC   PO449260  20.144  26.946   5.350
 3695POPC   GL149261  20.313  26.695   5.722
 3695POPC   GL249262  20.682  26.659   5.821
 3695POPC   C1A49263  20.317  26.631   6.183
 3695POPC   D2A49264  20.536  26.889   6.522
 3695POPC   C3A49265  20.429  27.026   6.989
 3695POPC   C4A49266  20.227  26.916   7.442
 3695POPC   C1B49267  20.962  26.855   6.172
 3695POPC   C2B49268  21.047  26.963   6.612
 3695POPC   C3B49269  20.834  26.699   6.893
 3695POPC   C4B49270  20.656  26.655   7.256
 3696POPC   NC349271  39.186   2.247   5.307
 3696POPC   PO449272  39.390   1.684   5.198
 3696POPC   GL149273  39.423   1.775   5.671
 3696POPC   GL249274  39.634   1.658   5.982
 3696POPC   C1A49275  39.083   1.844   5.999
 3696POPC   D2A49276  38.848   1.772   6.406
 3696POPC   C3A49277  39.079   1.925   6.767
 3696POPC   C4A49278  39.143   2.267   7.089
 3696POPC   C1B49279  39.523   2.081   6.138
 3696POPC   C2B49280  39.415   2.279   6.549
 3696POPC   C3B49281  39.576   2.076   6.892
 3696POPC   C4B49282  39.847   1.891   7.178
 3697POPC   NC349283  22.036  11.821   5.452
 3697POPC   PO449284  21.807  12.468   5.504
 3697POPC   GL149285  22.182  12.245   5.827
 3697POPC   GL249286  22.350  11.896   5.839
 3697POPC   C1A49287  22.329  12.162   6.283
 3697POPC   D2A49288  22.115  12.340   6.705
 3697POPC   C3A49289  22.243  12.170   7.143
 3697POPC   C4A49290  22.594  11.897   7.208
 3697POPC   C1B49291  22.007  11.793   6.095
 3697POPC   C2B49292  21.982  11.869   6.498
 3697POPC   C3B49293  22.267  11.799   6.805
 3697POPC   C4B49294  22.119  11.637   7.190
 3698POPC   NC349295  17.361  15.641   5.645
 3698POPC   PO449296  17.780  16.045   5.401
 3698POPC   GL149297  17.599  16.178   5.824
 3698POPC   GL249298  17.478  15.913   6.043
 3698POPC   C1A49299  17.511  16.352   6.267
 3698POPC   D2A49300  17.503  16.159   6.691
 3698POPC   C3A49301  17.454  16.231   7.128
 3698POPC   C4A49302  17.292  15.977   7.471
 3698POPC   C1B49303  17.732  15.635   6.289
 3698POPC   C2B49304  17.663  15.653   6.706
 3698POPC   C3B49305  17.412  15.682   7.049
 3698POPC   C4B49306  17.616  15.535   7.380
 3699POPC   NC349307  41.389   5.503   5.321
 3699POPC   PO449308  41.916   5.938   5.410
 3699POPC   GL149309  41.552   5.861   5.698
 3699POPC   GL249310  41.458   5.538   5.801
 3699POPC   C1A49311  41.503   5.934   6.135
 3699POPC   D2A49312  41.290   5.880   6.519
 3699POPC   C3A49313  41.499   5.786   6.856
 3699POPC   C4A49314  41.448   5.910   7.224
 3699POPC   C1B49315  41.278   5.475   6.164
 3699POPC   C2B49316  41.410   5.372   6.557
 3699POPC   C3B49317  41.203   5.384   6.965
 3699POPC   C4B49318  41.501   5.417   7.259
 3700POPC   NC349319  41.322  28.624   5.404
 3700POPC   PO449320  41.608  29.248   5.361
 3700POPC   GL149321  41.745  29.074   5.747
 3700POPC   GL249322  41.440  28.974   5.788
 3700POPC   C1A49323  41.861  28.983   6.192
 3700POPC   D2A49324  41.758  29.185   6.612
 3700POPC   C3A49325  41.725  28.930   7.004
 3700POPC   C4A49326  41.866  28.914   7.451
 3700POPC   C1B49327  41.498  29.321   6.123
 3700POPC   C2B49328  41.298  29.468   6.503
 3700POPC   C3B49329  41.408  29.418   6.943
 3700POPC   C4B49330  41.784  29.432   7.186
 3701POPC   NC349331   4.536  34.978   5.522
 3701POPC   PO449332   4.101  35.479   5.429
 3701POPC   GL149333   4.110  35.280   5.823
 3701POPC   GL249334   4.448  35.218   5.970
 3701POPC   C1A49335   4.053  35.469   6.212
 3701POPC   D2A49336   4.364  35.500   6.497
 3701POPC   C3A49337   4.206  35.610   6.896
 3701POPC   C4A49338   4.344  35.806   7.267
 3701POPC   C1B49339   4.164  34.985   6.272
 3701POPC   C2B49340   4.107  35.104   6.717
 3701POPC   C3B49341   4.386  35.187   7.091
 3701POPC   C4B49342   4.167  35.001   7.417
 3702POPC   NC349343  18.371   8.717   5.372
 3702POPC   PO449344  18.126   9.347   5.421
 3702POPC   GL149345  18.186   9.010   5.779
 3702POPC   GL249346  18.545   8.828   5.824
 3702POPC   C1A49347  18.036   9.046   6.228
 3702POPC   D2A49348  18.238   9.052   6.621
 3702POPC   C3A49349  18.107   9.061   7.025
 3702POPC   C4A49350  18.254   8.744   7.215
 3702POPC   C1B49351  18.568   9.018   6.203
 3702POPC   C2B49352  18.762   9.079   6.590
 3702POPC   C3B49353  18.647   8.907   6.934
 3702POPC   C4B49354  18.591   9.166   7.249
 3703POPC   NC349355  41.914  41.994   5.628
 3703POPC   PO449356  41.602  42.491   5.213
 3703POPC   GL149357  41.750  42.457   5.661
 3703POPC   GL249358  41.451  42.269   5.743
 3703POPC   C1A49359  41.714  42.396   6.172
 3703POPC   D2A49360  41.618  42.640   6.593
 3703POPC   C3A49361  41.708  42.447   7.018
 3703POPC   C4A49362  41.626  42.398   7.479
 3703POPC   C1B49363  41.232  42.194   6.124
 3703POPC   C2B49364  41.124  42.390   6.509
 3703POPC   C3B49365  41.276  42.210   6.883
 3703POPC   C4B49366  41.165  42.295   7.288
 3704POPC   NC349367  20.201   8.831   5.293
 3704POPC   PO449368  19.595   8.971   5.543
 3704POPC   GL149369  19.800   9.108   5.882
 3704POPC   GL249370  19.533   9.344   5.958
 3704POPC   C1A49371  20.030   8.968   6.259
 3704POPC   D2A49372  20.247   9.038   6.655
 3704POPC   C3A49373  20.096   8.894   7.039
 3704POPC   C4A49374  19.971   9.071   7.419
 3704POPC   C1B49375  19.493   8.950   6.239
 3704POPC   C2B49376  19.702   8.848   6.652
 3704POPC   C3B49377  19.610   9.081   7.048
 3704POPC   C4B49378  19.478   8.896   7.436
 3705POPC   NC349379  40.903  26.925   5.387
 3705POPC   PO449380  40.336  27.171   5.547
 3705POPC   GL149381  40.584  26.785   5.773
 3705POPC   GL249382  40.993  26.730   5.843
 3705POPC   C1A49383  40.657  26.644   6.198
 3705POPC   D2A49384  40.854  26.866   6.547
 3705POPC   C3A49385  40.586  26.814   6.903
 3705POPC   C4A49386  40.646  26.688   7.340
 3705POPC   C1B49387  41.267  26.689   6.243
 3705POPC   C2B49388  41.301  26.654   6.721
 3705POPC   C3B49389  41.068  26.816   7.092
 3705POPC   C4B49390  41.105  26.688   7.570
 3706POPC   NC349391   9.076  15.814   5.326
 3706POPC   PO449392   8.649  16.328   5.485
 3706POPC   GL149393   8.894  16.087   5.812
 3706POPC   GL249394   9.181  15.864   5.832
 3706POPC   C1A49395   8.801  15.791   6.200
 3706POPC   D2A49396   8.917  15.735   6.655
 3706POPC   C3A49397   8.734  15.669   7.086
 3706POPC   C4A49398   8.738  16.057   7.333
 3706POPC   C1B49399   9.321  15.717   6.257
 3706POPC   C2B49400   9.432  15.764   6.689
 3706POPC   C3B49401   9.196  15.899   7.049
 3706POPC   C4B49402   9.156  15.764   7.463
 3707POPC   NC349403  38.666  28.707   5.447
 3707POPC   PO449404  38.495  28.022   5.474
 3707POPC   GL149405  38.493  28.167   5.885
 3707POPC   GL249406  38.345  28.489   5.874
 3707POPC   C1A49407  38.196  28.157   6.236
 3707POPC   D2A49408  38.107  28.095   6.684
 3707POPC   C3A49409  38.473  28.181   6.973
 3707POPC   C4A49410  38.465  28.401   7.394
 3707POPC   C1B49411  38.610  28.604   6.192
 3707POPC   C2B49412  38.713  28.442   6.588
 3707POPC   C3B49413  38.688  28.646   6.963
 3707POPC   C4B49414  38.897  28.739   7.302
 3708POPC   NC349415  44.256   1.485   5.635
 3708POPC   PO449416  44.436   0.868   5.537
 3708POPC   GL149417  44.691   1.210   5.693
 3708POPC   GL249418  44.436   1.132   5.977
 3708POPC   C1A49419  44.768   1.499   6.075
 3708POPC   D2A49420  44.557   1.322   6.442
 3708POPC   C3A49421  44.645   1.278   6.874
 3708POPC   C4A49422  44.641   1.551   7.207
 3708POPC   C1B49423  44.868   1.004   6.125
 3708POPC   C2B49424   0.072   1.123   6.473
 3708POPC   C3B49425   0.045   0.985   6.859
 3708POPC   C4B49426  44.876   0.902   7.234
 3709POPC   NC349427  37.901   6.253   5.067
 3709POPC   PO449428  37.373   6.331   5.474
 3709POPC   GL149429  37.492   6.602   5.801
 3709POPC   GL249430  37.781   6.836   5.819
 3709POPC   C1A49431  37.591   6.520   6.215
 3709POPC   D2A49432  37.469   6.600   6.627
 3709POPC   C3A49433  37.714   6.423   6.921
 3709POPC   C4A49434  37.606   6.534   7.304
 3709POPC   C1B49435  38.077   6.688   6.185
 3709POPC   C2B49436  38.147   6.576   6.639
 3709POPC   C3B49437  38.015   6.798   7.037
 3709POPC   C4B49438  37.624   7.017   7.139
 3710POPC   NC349439  15.100  10.252   5.050
 3710POPC   PO449440  15.311  10.778   5.490
 3710POPC   GL149441  15.105  10.595   5.835
 3710POPC   GL249442  14.781  10.489   5.810
 3710POPC   C1A49443  15.158  10.641   6.250
 3710POPC   D2A49444  15.537  10.614   6.483
 3710POPC   C3A49445  15.447  10.502   6.896
 3710POPC   C4A49446  15.218  10.762   7.210
 3710POPC   C1B49447  14.837  10.231   6.179
 3710POPC   C2B49448  14.986  10.304   6.601
 3710POPC   C3B49449  14.921  10.639   6.825
 3710POPC   C4B49450  14.721  10.802   7.184
 3711POPC   NC349451  19.683  39.944   5.435
 3711POPC   PO449452  20.323  40.215   5.416
 3711POPC   GL149453  19.969  40.204   5.761
 3711POPC   GL249454  19.962  39.829   5.846
 3711POPC   C1A49455  19.927  40.175   6.235
 3711POPC   D2A49456  19.609  40.215   6.563
 3711POPC   C3A49457  19.754  40.302   6.979
 3711POPC   C4A49458  19.866  40.175   7.372
 3711POPC   C1B49459  19.577  39.819   6.125
 3711POPC   C2B49460  19.565  39.714   6.601
 3711POPC   C3B49461  19.681  39.793   7.064
 3711POPC   C4B49462  19.631  39.758   7.570
 3712POPC   NC349463  26.277  14.155   5.159
 3712POPC   PO449464  25.878  14.650   5.373
 3712POPC   GL149465  25.795  14.552   5.804
 3712POPC   GL249466  25.912  14.197   5.936
 3712POPC   C1A49467  26.017  14.585   6.227
 3712POPC   D2A49468  26.187  14.800   6.605
 3712POPC   C3A49469  26.172  14.687   7.062
 3712POPC   C4A49470  26.328  14.827   7.459
 3712POPC   C1B49471  25.754  14.127   6.336
 3712POPC   C2B49472  26.024  14.265   6.624
 3712POPC   C3B49473  26.070  14.165   7.016
 3712POPC   C4B49474  25.692  14.171   7.236
 3713POPC   NC349475  36.139  23.955   5.408
 3713POPC   PO449476  35.556  23.978   5.590
 3713POPC   GL149477  35.902  23.857   5.841
 3713POPC   GL249478  36.021  23.588   5.747
 3713POPC   C1A49479  36.186  23.865   6.200
 3713POPC   D2A49480  36.125  23.662   6.612
 3713POPC   C3A49481  36.215  23.881   6.974
 3713POPC   C4A49482  35.937  23.897   7.296
 3713POPC   C1B49483  36.280  23.398   6.028
 3713POPC   C2B49484  36.308  23.257   6.401
 3713POPC   C3B49485  36.314  23.241   6.862
 3713POPC   C4B49486  36.130  23.441   7.218
 3714POPC   NC349487  22.004  39.572   5.400
 3714POPC   PO449488  22.320  40.237   5.382
 3714POPC   GL149489  22.210  40.124   5.806
 3714POPC   GL249490  21.978  39.831   5.839
 3714POPC   C1A49491  22.226  40.249   6.259
 3714POPC   D2A49492  22.279  40.198   6.696
 3714POPC   C3A49493  22.284  39.809   6.899
 3714POPC   C4A49494  22.422  39.956   7.291
 3714POPC   C1B49495  21.946  39.816   6.296
 3714POPC   C2B49496  21.797  40.077   6.650
 3714POPC   C3B49497  21.942  40.113   7.103
 3714POPC   C4B49498  22.021  39.682   7.368
 3715POPC   NC349499  17.273  37.582   5.417
 3715POPC   PO449500  17.290  38.153   5.622
 3715POPC   GL149501  17.083  37.795   5.878
 3715POPC   GL249502  16.965  37.452   5.794
 3715POPC   C1A49503  16.773  37.709   6.228
 3715POPC   D2A49504  16.505  37.620   6.596
 3715POPC   C3A49505  16.734  37.658   6.976
 3715POPC   C4A49506  16.671  37.491   7.373
 3715POPC   C1B49507  17.126  37.343   6.219
 3715POPC   C2B49508  16.900  37.265   6.617
 3715POPC   C3B49509  17.054  37.271   7.026
 3715POPC   C4B49510  16.915  37.061   7.419
 3716POPC   NC349511  37.937  41.830   5.424
 3716POPC   PO449512  37.277  41.588   5.499
 3716POPC   GL149513  37.499  41.686   5.851
 3716POPC   GL249514  37.783  41.508   5.821
 3716POPC   C1A49515  37.693  41.604   6.297
 3716POPC   D2A49516  37.891  41.760   6.613
 3716POPC   C3A49517  37.717  41.541   6.920
 3716POPC   C4A49518  37.798  41.602   7.319
 3716POPC   C1B49519  37.447  41.234   6.086
 3716POPC   C2B49520  37.330  41.270   6.547
 3716POPC   C3B49521  37.416  41.137   6.993
 3716POPC   C4B49522  37.613  41.120   7.438
 3717POPC   NC349523   7.263   2.916   5.028
 3717POPC   PO449524   7.561   2.559   5.550
 3717POPC   GL149525   7.270   2.586   5.867
 3717POPC   GL249526   7.234   2.954   5.860
 3717POPC   C1A49527   7.181   2.709   6.304
 3717POPC   D2A49528   7.163   2.705   6.738
 3717POPC   C3A49529   7.496   2.482   6.956
 3717POPC   C4A49530   7.377   2.704   7.336
 3717POPC   C1B49531   7.625   2.893   6.143
 3717POPC   C2B49532   7.678   2.765   6.567
 3717POPC   C3B49533   7.555   2.979   6.949
 3717POPC   C4B49534   7.782   3.092   7.288
 3718POPC   NC349535   2.045   2.951   5.133
 3718POPC   PO449536   1.818   2.386   5.473
 3718POPC   GL149537   1.827   2.683   5.828
 3718POPC   GL249538   2.197   2.719   5.830
 3718POPC   C1A49539   1.824   2.603   6.290
 3718POPC   D2A49540   2.229   2.660   6.586
 3718POPC   C3A49541   2.021   2.578   6.932
 3718POPC   C4A49542   1.683   2.620   7.182
 3718POPC   C1B49543   2.146   2.971   6.189
 3718POPC   C2B49544   1.892   3.016   6.601
 3718POPC   C3B49545   1.934   3.071   7.034
 3718POPC   C4B49546   1.646   3.106   7.399
 3719POPC   NC349547  10.137  39.795   5.023
 3719POPC   PO449548  10.661  40.047   5.355
 3719POPC   GL149549  10.495  40.137   5.770
 3719POPC   GL249550  10.787  40.334   5.833
 3719POPC   C1A49551  10.439  39.970   6.187
 3719POPC   D2A49552  10.646  39.925   6.586
 3719POPC   C3A49553  10.380  39.945   6.922
 3719POPC   C4A49554  10.500  39.859   7.271
 3719POPC   C1B49555  10.884  40.258   6.260
 3719POPC   C2B49556  10.746  40.459   6.652
 3719POPC   C3B49557  10.710  40.294   7.062
 3719POPC   C4B49558  10.993  40.056   7.301
 3720POPC   NC349559  26.172  35.623   5.465
 3720POPC   PO449560  26.088  36.240   5.351
 3720POPC   GL149561  25.886  36.143   5.701
 3720POPC   GL249562  25.710  35.820   5.634
 3720POPC   C1A49563  26.097  36.255   6.098
 3720POPC   D2A49564  26.025  36.480   6.482
 3720POPC   C3A49565  26.078  36.249   6.848
 3720POPC   C4A49566  26.152  36.394   7.252
 3720POPC   C1B49567  25.891  35.785   6.063
 3720POPC   C2B49568  25.840  35.971   6.463
 3720POPC   C3B49569  25.690  35.895   6.869
 3720POPC   C4B49570  25.856  35.991   7.303
 3721POPC   NC349571  25.605  34.797   5.471
 3721POPC   PO449572  26.310  34.597   5.403
 3721POPC   GL149573  26.194  34.591   5.841
 3721POPC   GL249574  25.834  34.531   5.851
 3721POPC   C1A49575  26.116  34.450   6.292
 3721POPC   D2A49576  26.217  34.230   6.690
 3721POPC   C3A49577  26.433  34.469   6.993
 3721POPC   C4A49578  26.291  34.762   7.302
 3721POPC   C1B49579  25.706  34.796   6.181
 3721POPC   C2B49580  25.714  34.780   6.623
 3721POPC   C3B49581  25.920  34.583   6.990
 3721POPC   C4B49582  25.797  34.583   7.398
 3722POPC   NC349583  28.436  20.466   5.400
 3722POPC   PO449584  28.264  20.999   5.558
 3722POPC   GL149585  28.609  20.765   5.794
 3722POPC   GL249586  28.604  20.358   5.865
 3722POPC   C1A49587  28.796  20.673   6.199
 3722POPC   D2A49588  28.612  20.533   6.581
 3722POPC   C3A49589  28.749  20.649   6.979
 3722POPC   C4A49590  28.369  20.750   7.193
 3722POPC   C1B49591  28.749  20.128   6.258
 3722POPC   C2B49592  28.713  20.051   6.735
 3722POPC   C3B49593  28.426  20.239   7.052
 3722POPC   C4B49594  28.167  20.321   7.421
 3723POPC   NC349595  41.268  43.965   5.339
 3723POPC   PO449596  41.828  44.035   5.625
 3723POPC   GL149597  41.577  43.914   5.953
 3723POPC   GL249598  41.220  43.787   5.817
 3723POPC   C1A49599  41.666  43.909   6.410
 3723POPC   D2A49600  41.734  43.654   6.788
 3723POPC   C3A49601  41.820  43.924   7.144
 3723POPC   C4A49602  41.960  43.984   7.553
 3723POPC   C1B49603  41.181  43.976   6.253
 3723POPC   C2B49604  41.265  44.066   6.693
 3723POPC   C3B49605  41.304  43.874   7.073
 3723POPC   C4B49606  41.436  43.495   7.222
 3724POPC   NC349607  32.075  41.873   5.426
 3724POPC   PO449608  32.591  41.681   4.999
 3724POPC   GL149609  32.493  41.564   5.533
 3724POPC   GL249610  32.425  41.821   5.803
 3724POPC   C1A49611  32.298  41.380   6.010
 3724POPC   D2A49612  32.069  41.505   6.436
 3724POPC   C3A49613  32.140  41.415   6.872
 3724POPC   C4A49614  32.396  41.573   7.211
 3724POPC   C1B49615  32.106  41.898   6.116
 3724POPC   C2B49616  32.106  42.033   6.552
 3724POPC   C3B49617  32.065  41.929   6.971
 3724POPC   C4B49618  31.932  41.738   7.362
 3725POPC   NC349619  21.211  33.301   5.050
 3725POPC   PO449620  21.362  32.809   5.422
 3725POPC   GL149621  21.416  32.877   5.814
 3725POPC   GL249622  21.709  32.727   5.812
 3725POPC   C1A49623  21.364  33.052   6.180
 3725POPC   D2A49624  21.127  32.978   6.528
 3725POPC   C3A49625  21.289  33.260   6.818
 3725POPC   C4A49626  21.403  33.023   7.147
 3725POPC   C1B49627  21.659  32.617   6.205
 3725POPC   C2B49628  21.643  32.847   6.554
 3725POPC   C3B49629  21.677  32.632   6.917
 3725POPC   C4B49630  21.809  32.773   7.284
 3726POPC   NC349631  40.074  39.351   5.129
 3726POPC   PO449632  39.546  39.026   5.362
 3726POPC   GL149633  39.899  39.170   5.606
 3726POPC   GL249634  39.847  39.547   5.565
 3726POPC   C1A49635  40.120  39.038   6.011
 3726POPC   D2A49636  39.955  38.978   6.444
 3726POPC   C3A49637  40.154  38.862   6.826
 3726POPC   C4A49638  40.222  39.092   7.202
 3726POPC   C1B49639  39.866  39.486   6.022
 3726POPC   C2B49640  39.790  39.492   6.459
 3726POPC   C3B49641  39.985  39.361   6.829
 3726POPC   C4B49642  39.849  39.458   7.209
 3727POPC   NC349643  42.342  13.122   5.249
 3727POPC   PO449644  42.244  12.523   5.336
 3727POPC   GL149645  42.240  12.749   5.728
 3727POPC   GL249646  42.395  13.074   5.751
 3727POPC   C1A49647  42.436  12.752   6.172
 3727POPC   D2A49648  42.199  12.699   6.564
 3727POPC   C3A49649  42.277  12.780   6.981
 3727POPC   C4A49650  42.238  12.641   7.472
 3727POPC   C1B49651  42.376  13.279   6.157
 3727POPC   C2B49652  42.249  13.217   6.558
 3727POPC   C3B49653  42.465  13.254   6.938
 3727POPC   C4B49654  42.332  13.120   7.340
 3728POPC   NC349655  39.764  44.579   5.177
 3728POPC   PO449656  40.366  44.502   5.407
 3728POPC   GL149657  39.989  44.558   5.705
 3728POPC   GL249658  39.891  44.928   5.662
 3728POPC   C1A49659  39.833  44.589   6.184
 3728POPC   D2A49660  39.919  44.460   6.658
 3728POPC   C3A49661  39.994  44.555   7.144
 3728POPC   C4A49662  40.190  44.534   7.578
 3728POPC   C1B49663  40.203  44.932   6.033
 3728POPC   C2B49664  40.128  44.929   6.509
 3728POPC   C3B49665  39.945   0.028   6.942
 3728POPC   C4B49666  40.022  44.998   7.432
 3729POPC   NC349667  40.255   6.974   5.419
 3729POPC   PO449668  39.693   6.643   5.276
 3729POPC   GL149669  39.978   6.541   5.633
 3729POPC   GL249670  39.933   6.834   5.822
 3729POPC   C1A49671  40.194   6.415   6.041
 3729POPC   D2A49672  40.039   6.465   6.467
 3729POPC   C3A49673  40.233   6.449   6.881
 3729POPC   C4A49674  40.063   6.457   7.274
 3729POPC   C1B49675  40.156   6.902   6.219
 3729POPC   C2B49676  39.971   6.956   6.643
 3729POPC   C3B49677  40.106   6.977   7.057
 3729POPC   C4B49678  40.466   6.793   7.229
 3730POPC   NC349679  32.203  23.486   5.391
 3730POPC   PO449680  32.359  24.026   5.418
 3730POPC   GL149681  32.243  23.745   5.835
 3730POPC   GL249682  32.004  23.447   5.870
 3730POPC   C1A49683  32.261  23.884   6.277
 3730POPC   D2A49684  32.017  24.075   6.608
 3730POPC   C3A49685  32.133  24.067   7.016
 3730POPC   C4A49686  32.161  23.771   7.370
 3730POPC   C1B49687  32.122  23.400   6.306
 3730POPC   C2B49688  32.230  23.602   6.723
 3730POPC   C3B49689  32.396  23.422   7.106
 3730POPC   C4B49690  32.456  23.397   7.575
 3731POPC   NC349691  34.952  22.999   5.399
 3731POPC   PO449692  34.336  23.029   5.418
 3731POPC   GL149693  34.478  23.066   5.844
 3731POPC   GL249694  34.652  22.776   5.792
 3731POPC   C1A49695  34.589  23.025   6.333
 3731POPC   D2A49696  34.715  22.946   6.810
 3731POPC   C3A49697  34.590  23.069   7.254
 3731POPC   C4A49698  34.410  23.243   7.700
 3731POPC   C1B49699  34.936  22.702   6.111
 3731POPC   C2B49700  34.869  22.552   6.503
 3731POPC   C3B49701  35.047  22.552   6.903
 3731POPC   C4B49702  34.799  22.610   7.264
 3732POPC   NC349703   7.182  16.339   5.544
 3732POPC   PO449704   7.168  15.706   5.575
 3732POPC   GL149705   7.328  15.967   5.917
 3732POPC   GL249706   7.702  15.949   5.935
 3732POPC   C1A49707   7.328  16.008   6.376
 3732POPC   D2A49708   7.480  16.244   6.739
 3732POPC   C3A49709   7.479  16.120   7.149
 3732POPC   C4A49710   7.194  16.386   7.357
 3732POPC   C1B49711   7.715  15.689   6.308
 3732POPC   C2B49712   7.613  15.752   6.765
 3732POPC   C3B49713   7.801  15.689   7.167
 3732POPC   C4B49714   7.944  15.428   7.517
 3733POPC   NC349715   4.286  16.002   4.992
 3733POPC   PO449716   4.750  15.721   5.494
 3733POPC   GL149717   4.660  15.993   5.834
 3733POPC   GL249718   4.295  16.122   5.808
 3733POPC   C1A49719   4.485  15.854   6.212
 3733POPC   D2A49720   4.126  16.018   6.425
 3733POPC   C3A49721   4.081  16.173   6.850
 3733POPC   C4A49722   4.001  15.998   7.249
 3733POPC   C1B49723   4.454  16.356   6.185
 3733POPC   C2B49724   4.630  16.208   6.562
 3733POPC   C3B49725   4.550  16.362   6.953
 3733POPC   C4B49726   4.508  16.177   7.353
 3734POPC   NC349727  39.965  25.822   5.337
 3734POPC   PO449728  39.818  26.408   5.401
 3734POPC   GL149729  39.844  26.104   5.784
 3734POPC   GL249730  40.125  25.935   5.866
 3734POPC   C1A49731  39.670  25.777   6.089
 3734POPC   D2A49732  39.517  25.833   6.533
 3734POPC   C3A49733  39.702  26.194   6.741
 3734POPC   C4A49734  39.910  26.193   7.143
 3734POPC   C1B49735  40.025  26.032   6.331
 3734POPC   C2B49736  40.182  25.954   6.732
 3734POPC   C3B49737  40.094  25.704   7.084
 3734POPC   C4B49738  40.323  25.950   7.316
 3735POPC   NC349739  15.722  31.769   5.376
 3735POPC   PO449740  16.350  31.410   5.366
 3735POPC   GL149741  16.205  31.429   5.801
 3735POPC   GL249742  15.867  31.572   5.823
 3735POPC   C1A49743  16.052  31.288   6.224
 3735POPC   D2A49744  16.033  31.026   6.578
 3735POPC   C3A49745  16.063  31.235   6.967
 3735POPC   C4A49746  16.327  31.287   7.323
 3735POPC   C1B49747  15.636  31.599   6.216
 3735POPC   C2B49748  15.717  31.465   6.631
 3735POPC   C3B49749  15.546  31.566   7.032
 3735POPC   C4B49750  15.557  31.440   7.464
 3736POPC   NC349751   2.419  20.003   5.418
 3736POPC   PO449752   2.934  19.646   5.344
 3736POPC   GL149753   2.649  19.584   5.692
 3736POPC   GL249754   2.827  19.351   5.899
 3736POPC   C1A49755   2.620  19.763   6.141
 3736POPC   D2A49756   2.534  19.711   6.598
 3736POPC   C3A49757   2.707  19.863   7.001
 3736POPC   C4A49758   2.523  20.069   7.411
 3736POPC   C1B49759   3.089  19.559   6.240
 3736POPC   C2B49760   3.085  19.781   6.640
 3736POPC   C3B49761   3.235  19.627   7.017
 3736POPC   C4B49762   2.889  19.357   7.100
 3737POPC   NC349763  28.003  40.193   5.516
 3737POPC   PO449764  27.456  39.775   5.375
 3737POPC   GL149765  27.614  39.913   5.771
 3737POPC   GL249766  27.602  40.290   5.820
 3737POPC   C1A49767  27.706  39.770   6.198
 3737POPC   D2A49768  27.948  40.018   6.497
 3737POPC   C3A49769  27.939  39.972   6.922
 3737POPC   C4A49770  27.724  39.876   7.257
 3737POPC   C1B49771  27.330  40.134   6.151
 3737POPC   C2B49772  27.417  39.977   6.568
 3737POPC   C3B49773  27.346  39.767   6.939
 3737POPC   C4B49774  27.249  40.059   7.237
 3738POPC   NC349775   2.242  33.104   5.386
 3738POPC   PO449776   1.602  33.163   5.414
 3738POPC   GL149777   1.892  33.179   5.798
 3738POPC   GL249778   2.120  32.889   5.846
 3738POPC   C1A49779   2.246  33.301   6.113
 3738POPC   D2A49780   2.312  33.214   6.562
 3738POPC   C3A49781   1.903  33.162   6.799
 3738POPC   C4A49782   1.784  33.014   7.213
 3738POPC   C1B49783   1.946  32.917   6.287
 3738POPC   C2B49784   2.130  32.726   6.672
 3738POPC   C3B49785   2.228  32.819   7.118
 3738POPC   C4B49786   2.012  32.616   7.506
 3739POPC   NC349787  15.336   6.143   5.601
 3739POPC   PO449788  15.181   6.784   5.430
 3739POPC   GL149789  15.218   6.617   5.839
 3739POPC   GL249790  14.942   6.404   5.845
 3739POPC   C1A49791  15.392   6.567   6.262
 3739POPC   D2A49792  15.341   6.363   6.673
 3739POPC   C3A49793  15.241   6.605   7.006
 3739POPC   C4A49794  14.927   6.897   7.113
 3739POPC   C1B49795  15.011   6.238   6.274
 3739POPC   C2B49796  15.032   5.955   6.600
 3739POPC   C3B49797  14.939   6.186   6.970
 3739POPC   C4B49798  14.962   6.400   7.382
 3740POPC   NC349799  19.138  19.379   5.196
 3740POPC   PO449800  18.884  18.799   5.391
 3740POPC   GL149801  19.185  19.039   5.683
 3740POPC   GL249802  19.140  19.392   5.753
 3740POPC   C1A49803  19.412  19.063   6.089
 3740POPC   D2A49804  19.442  19.320   6.448
 3740POPC   C3A49805  19.445  19.198   6.839
 3740POPC   C4A49806  19.177  19.044   7.153
 3740POPC   C1B49807  18.961  19.285   6.196
 3740POPC   C2B49808  18.983  19.357   6.686
 3740POPC   C3B49809  18.908  19.467   7.135
 3740POPC   C4B49810  18.615  19.262   7.416
 3741POPC   NC349811  22.595  34.325   5.519
 3741POPC   PO449812  23.191  34.510   5.173
 3741POPC   GL149813  22.988  34.666   5.608
 3741POPC   GL249814  23.010  34.366   5.820
 3741POPC   C1A49815  23.091  34.774   6.098
 3741POPC   D2A49816  23.070  34.477   6.487
 3741POPC   C3A49817  22.995  34.677   6.905
 3741POPC   C4A49818  22.761  35.024   7.097
 3741POPC   C1B49819  22.722  34.168   6.144
 3741POPC   C2B49820  22.634  33.993   6.545
 3741POPC   C3B49821  22.792  34.158   6.955
 3741POPC   C4B49822  23.138  34.287   7.222
 3742POPC   NC349823  33.896  23.134   5.392
 3742POPC   PO449824  33.427  22.618   5.351
 3742POPC   GL149825  33.633  22.791   5.731
 3742POPC   GL249826  34.019  22.758   5.732
 3742POPC   C1A49827  33.473  22.982   6.121
 3742POPC   D2A49828  33.589  23.080   6.558
 3742POPC   C3A49829  33.831  22.725   6.735
 3742POPC   C4A49830  33.770  22.731   7.143
 3742POPC   C1B49831  34.124  22.849   6.155
 3742POPC   C2B49832  34.096  23.097   6.503
 3742POPC   C3B49833  34.197  23.091   6.923
 3742POPC   C4B49834  34.103  23.028   7.354
 3743POPC   NC349835   9.551  37.757   5.349
 3743POPC   PO449836  10.185  37.822   5.530
 3743POPC   GL149837   9.831  37.814   5.800
 3743POPC   GL249838   9.579  38.076   5.750
 3743POPC   C1A49839   9.651  37.636   6.186
 3743POPC   D2A49840   9.534  37.480   6.616
 3743POPC   C3A49841   9.831  37.547   6.971
 3743POPC   C4A49842  10.129  37.810   7.214
 3743POPC   C1B49843   9.698  38.139   6.171
 3743POPC   C2B49844   9.591  38.002   6.594
 3743POPC   C3B49845   9.480  37.917   7.034
 3743POPC   C4B49846   9.673  37.760   7.427
 3744POPC   NC349847  29.505  36.189   5.593
 3744POPC   PO449848  28.864  36.137   5.305
 3744POPC   GL149849  28.902  36.076   5.796
 3744POPC   GL249850  29.172  36.282   5.976
 3744POPC   C1A49851  28.861  36.015   6.281
 3744POPC   D2A49852  29.151  35.902   6.660
 3744POPC   C3A49853  29.154  36.171   7.037
 3744POPC   C4A49854  28.764  36.236   7.240
 3744POPC   C1B49855  29.346  35.879   6.172
 3744POPC   C2B49856  29.628  35.774   6.538
 3744POPC   C3B49857  29.596  35.868   6.965
 3744POPC   C4B49858  29.501  35.991   7.397
 3745POPC   NC349859  39.483  42.007   5.640
 3745POPC   PO449860  38.930  42.111   5.223
 3745POPC   GL149861  38.992  42.152   5.730
 3745POPC   GL249862  39.243  42.445   5.823
 3745POPC   C1A49863  39.134  42.109   6.224
 3745POPC   D2A49864  39.187  41.958   6.680
 3745POPC   C3A49865  39.019  42.228   6.987
 3745POPC   C4A49866  38.937  42.356   7.421
 3745POPC   C1B49867  39.541  42.481   6.203
 3745POPC   C2B49868  39.418  42.422   6.621
 3745POPC   C3B49869  39.539  42.292   6.997
 3745POPC   C4B49870  39.609  42.580   7.284
 3746POPC   NC349871   1.480  27.702   5.428
 3746POPC   PO449872   2.217  27.776   5.455
 3746POPC   GL149873   2.037  27.603   5.808
 3746POPC   GL249874   1.712  27.438   5.823
 3746POPC   C1A49875   2.067  27.633   6.240
 3746POPC   D2A49876   2.115  27.849   6.603
 3746POPC   C3A49877   2.178  27.612   6.952
 3746POPC   C4A49878   2.193  27.737   7.401
 3746POPC   C1B49879   1.580  27.510   6.255
 3746POPC   C2B49880   1.778  27.450   6.645
 3746POPC   C3B49881   1.711  27.503   7.101
 3746POPC   C4B49882   1.678  27.805   7.465
 3747POPC   NC349883  41.367  13.310   5.373
 3747POPC   PO449884  41.271  13.979   5.147
 3747POPC   GL149885  41.415  13.822   5.659
 3747POPC   GL249886  41.319  13.485   5.849
 3747POPC   C1A49887  41.523  13.826   6.140
 3747POPC   D2A49888  41.319  13.657   6.530
 3747POPC   C3A49889  41.475  13.529   6.921
 3747POPC   C4A49890  41.678  13.823   7.157
 3747POPC   C1B49891  41.657  13.342   6.125
 3747POPC   C2B49892  41.815  13.487   6.543
 3747POPC   C3B49893  41.939  13.311   6.960
 3747POPC   C4B49894  42.005  13.507   7.355
 3748POPC   NC349895   9.878  42.811   5.322
 3748POPC   PO449896   9.684  42.181   5.402
 3748POPC   GL149897   9.732  42.476   5.703
 3748POPC   GL249898   9.409  42.466   5.819
 3748POPC   C1A49899   9.827  42.489   6.151
 3748POPC   D2A49900   9.810  42.208   6.518
 3748POPC   C3A49901   9.916  42.162   6.964
 3748POPC   C4A49902   9.814  42.436   7.302
 3748POPC   C1B49903   9.453  42.110   6.097
 3748POPC   C2B49904   9.349  41.991   6.519
 3748POPC   C3B49905   9.425  42.174   6.912
 3748POPC   C4B49906   9.525  42.015   7.307
 3749POPC   NC349907  38.133  44.956   5.390
 3749POPC   PO449908  38.708  44.545   5.318
 3749POPC   GL149909  38.531  44.681   5.726
 3749POPC   GL249910  38.220  44.547   5.882
 3749POPC   C1A49911  38.631  44.704   6.169
 3749POPC   D2A49912  38.600  44.969   6.527
 3749POPC   C3A49913  38.564  44.711   6.877
 3749POPC   C4A49914  38.359  44.471   7.185
 3749POPC   C1B49915  38.153  44.883   6.204
 3749POPC   C2B49916  38.069   0.058   6.641
 3749POPC   C3B49917  38.046  44.882   7.093
 3749POPC   C4B49918  37.749  44.881   7.466
 3750POPC   NC349919  33.431  26.499   5.142
 3750POPC   PO449920  32.947  26.605   5.594
 3750POPC   GL149921  33.028  26.852   5.900
 3750POPC   GL249922  33.215  27.131   5.742
 3750POPC   C1A49923  33.110  26.731   6.310
 3750POPC   D2A49924  33.041  26.799   6.718
 3750POPC   C3A49925  33.201  26.545   7.057
 3750POPC   C4A49926  32.896  26.785   7.234
 3750POPC   C1B49927  33.430  27.097   6.151
 3750POPC   C2B49928  33.537  26.997   6.592
 3750POPC   C3B49929  33.350  27.050   7.010
 3750POPC   C4B49930  33.343  26.892   7.443
 3751POPC   NC349931  28.476  36.246   5.527
 3751POPC   PO449932  27.858  36.080   5.549
 3751POPC   GL149933  28.111  36.204   5.893
 3751POPC   GL249934  28.366  35.943   5.922
 3751POPC   C1A49935  28.234  36.279   6.318
 3751POPC   D2A49936  28.403  36.026   6.636
 3751POPC   C3A49937  28.230  36.000   7.072
 3751POPC   C4A49938  28.307  36.133   7.507
 3751POPC   C1B49939  28.488  35.666   6.236
 3751POPC   C2B49940  28.723  35.620   6.583
 3751POPC   C3B49941  28.729  35.802   6.950
 3751POPC   C4B49942  28.620  35.746   7.336
 3752POPC   NC349943  20.490   9.722   5.248
 3752POPC   PO449944  20.869  10.079   5.631
 3752POPC   GL149945  20.684   9.704   5.786
 3752POPC   GL249946  20.954   9.494   5.917
 3752POPC   C1A49947  20.566   9.706   6.208
 3752POPC   D2A49948  20.745   9.752   6.611
 3752POPC   C3A49949  20.401   9.900   6.843
 3752POPC   C4A49950  20.254   9.896   7.269
 3752POPC   C1B49951  21.181   9.829   6.158
 3752POPC   C2B49952  21.215  10.008   6.591
 3752POPC   C3B49953  21.063   9.915   7.006
 3752POPC   C4B49954  20.699   9.625   7.131
 3753POPC   NC349955  24.044  44.404   5.362
 3753POPC   PO449956  23.349  44.410   5.308
 3753POPC   GL149957  23.527  44.551   5.744
 3753POPC   GL249958  23.826  44.792   5.701
 3753POPC   C1A49959  23.551  44.589   6.234
 3753POPC   D2A49960  23.616  44.829   6.642
 3753POPC   C3A49961  23.500  44.642   7.049
 3753POPC   C4A49962  23.430  44.216   7.186
 3753POPC   C1B49963  23.997  44.848   6.143
 3753POPC   C2B49964  24.032  44.569   6.530
 3753POPC   C3B49965  24.009  44.648   6.970
 3753POPC   C4B49966  24.226  44.965   7.194
 3754POPC   NC349967  44.467  18.809   5.504
 3754POPC   PO449968   0.047  19.048   5.455
 3754POPC   GL149969  44.815  18.991   5.840
 3754POPC   GL249970  44.804  18.607   5.845
 3754POPC   C1A49971  44.705  19.155   6.251
 3754POPC   D2A49972  44.972  19.181   6.624
 3754POPC   C3A49973  44.788  19.364   6.993
 3754POPC   C4A49974  44.653  19.203   7.424
 3754POPC   C1B49975  44.532  18.660   6.188
 3754POPC   C2B49976  44.609  18.781   6.611
 3754POPC   C3B49977  44.683  18.850   7.050
 3754POPC   C4B49978  44.428  18.735   7.409
 3755POPC   NC349979  42.932  31.013   5.448
 3755POPC   PO449980  43.295  30.547   5.683
 3755POPC   GL149981  42.895  30.537   5.818
 3755POPC   GL249982  42.943  30.876   5.929
 3755POPC   C1A49983  42.724  30.541   6.258
 3755POPC   D2A49984  42.800  30.664   6.665
 3755POPC   C3A49985  42.692  30.462   7.050
 3755POPC   C4A49986  42.853  30.626   7.438
 3755POPC   C1B49987  43.059  31.044   6.291
 3755POPC   C2B49988  43.270  30.892   6.643
 3755POPC   C3B49989  43.100  30.849   7.047
 3755POPC   C4B49990  43.309  30.885   7.419
 3756POPC   NC349991   1.446   3.477   5.526
 3756POPC   PO449992   2.020   3.709   5.333
 3756POPC   GL149993   1.937   3.559   5.722
 3756POPC   GL249994   2.016   3.191   5.683
 3756POPC   C1A49995   1.808   3.825   6.073
 3756POPC   D2A49996   2.063   3.925   6.447
 3756POPC   C3A49997   1.937   3.976   6.865
 3756POPC   C4A49998   1.585   3.988   7.103
 3756POPC   C1B49999   1.739   3.240   6.065
 3756POPC   C2B50000   1.833   3.468   6.419
 3756POPC   C3B50001   1.779   3.494   6.819
 3756POPC   C4B50002   1.963   3.560   7.205
 3757POPC   NC350003  39.780  10.902   5.361
 3757POPC   PO450004  39.511  10.287   5.253
 3757POPC   GL150005  39.268  10.376   5.646
 3757POPC   GL250006  38.914  10.375   5.750
 3757POPC   C1A50007  39.267  10.384   6.120
 3757POPC   D2A50008  39.103  10.444   6.544
 3757POPC   C3A50009  39.350  10.475   6.942
 3757POPC   C4A50010  39.543  10.768   7.244
 3757POPC   C1B50011  38.882  10.748   6.069
 3757POPC   C2B50012  38.788  10.885   6.508
 3757POPC   C3B50013  38.925  10.771   6.921
 3757POPC   C4B50014  38.807  10.745   7.372
 3758POPC   NC350015  38.027  37.586   5.428
 3758POPC   PO450016  37.655  38.053   5.183
 3758POPC   GL150017  37.638  37.771   5.663
 3758POPC   GL250018  37.938  37.769   5.876
 3758POPC   C1A50019  37.524  37.708   6.124
 3758POPC   D2A50020  37.424  37.605   6.542
 3758POPC   C3A50021  37.593  37.884   6.883
 3758POPC   C4A50022  37.499  37.807   7.306
 3758POPC   C1B50023  38.076  37.856   6.244
 3758POPC   C2B50024  37.948  37.641   6.602
 3758POPC   C3B50025  38.055  37.651   7.015
 3758POPC   C4B50026  38.000  37.813   7.419
 3759POPC   NC350027  12.485  21.548   5.455
 3759POPC   PO450028  11.847  21.510   5.467
 3759POPC   GL150029  11.717  21.467   5.892
 3759POPC   GL250030  11.722  21.103   5.955
 3759POPC   C1A50031  11.793  21.425   6.347
 3759POPC   D2A50032  12.165  21.479   6.568
 3759POPC   C3A50033  12.064  21.683   6.928
 3759POPC   C4A50034  11.781  21.519   7.214
 3759POPC   C1B50035  11.733  20.826   6.280
 3759POPC   C2B50036  11.973  20.932   6.646
 3759POPC   C3B50037  12.108  21.171   7.008
 3759POPC   C4B50038  12.056  21.077   7.437
 3760POPC   NC350039  22.611  30.868   5.487
 3760POPC   PO450040  23.265  30.691   5.614
 3760POPC   GL150041  22.911  30.654   5.835
 3760POPC   GL250042  22.722  30.407   5.692
 3760POPC   C1A50043  22.744  30.891   6.158
 3760POPC   D2A50044  23.009  30.975   6.507
 3760POPC   C3A50045  22.828  30.918   6.882
 3760POPC   C4A50046  23.003  30.697   7.214
 3760POPC   C1B50047  22.598  30.381   6.140
 3760POPC   C2B50048  22.807  30.479   6.519
 3760POPC   C3B50049  22.695  30.423   6.930
 3760POPC   C4B50050  22.713  30.197   7.343
 3761POPC   NC350051   8.646  13.293   5.633
 3761POPC   PO450052   9.211  12.910   5.476
 3761POPC   GL150053   9.033  12.973   5.850
 3761POPC   GL250054   8.717  12.798   5.795
 3761POPC   C1A50055   9.086  13.207   6.284
 3761POPC   D2A50056   8.922  13.183   6.749
 3761POPC   C3A50057   9.151  13.126   7.152
 3761POPC   C4A50058   9.233  12.996   7.583
 3761POPC   C1B50059   8.806  12.775   6.236
 3761POPC   C2B50060   8.957  12.692   6.600
 3761POPC   C3B50061   8.817  12.727   6.982
 3761POPC   C4B50062   8.695  12.869   7.349
 3762POPC   NC350063   6.337  37.849   5.462
 3762POPC   PO450064   5.694  37.575   5.327
 3762POPC   GL150065   5.979  37.507   5.654
 3762POPC   GL250066   5.681  37.484   5.869
 3762POPC   C1A50067   6.136  37.569   6.084
 3762POPC   D2A50068   5.920  37.704   6.470
 3762POPC   C3A50069   6.085  37.684   6.874
 3762POPC   C4A50070   6.138  37.520   7.264
 3762POPC   C1B50071   5.655  37.303   6.261
 3762POPC   C2B50072   5.543  37.399   6.668
 3762POPC   C3B50073   5.673  37.410   7.040
 3762POPC   C4B50074   5.696  37.757   7.251
 3763POPC   NC350075  27.191  16.807   5.274
 3763POPC   PO450076  26.699  16.400   5.418
 3763POPC   GL150077  26.853  16.664   5.757
 3763POPC   GL250078  26.923  17.002   5.646
 3763POPC   C1A50079  26.692  16.645   6.178
 3763POPC   D2A50080  26.832  16.394   6.517
 3763POPC   C3A50081  26.820  16.632   6.868
 3763POPC   C4A50082  26.798  16.840   7.246
 3763POPC   C1B50083  27.031  17.076   6.048
 3763POPC   C2B50084  26.962  16.980   6.484
 3763POPC   C3B50085  26.966  17.163   6.882
 3763POPC   C4B50086  27.265  17.321   7.153
 3764POPC   NC350087  16.408  44.508   5.390
 3764POPC   PO450088  17.025  44.601   5.419
 3764POPC   GL150089  16.785  44.458   5.754
 3764POPC   GL250090  16.568  44.733   5.852
 3764POPC   C1A50091  16.908  44.531   6.193
 3764POPC   D2A50092  16.666  44.711   6.486
 3764POPC   C3A50093  16.763  44.651   6.909
 3764POPC   C4A50094  16.513  44.728   7.292
 3764POPC   C1B50095  16.435  44.347   6.127
 3764POPC   C2B50096  16.576  44.188   6.546
 3764POPC   C3B50097  16.437  44.272   7.004
 3764POPC   C4B50098  16.181  44.303   7.402
 3765POPC   NC350099  18.164  37.452   5.407
 3765POPC   PO450100  18.581  37.984   5.525
 3765POPC   GL150101  18.443  37.778   5.890
 3765POPC   GL250102  18.407  37.413   5.880
 3765POPC   C1A50103  18.264  37.857   6.306
 3765POPC   D2A50104  18.179  38.046   6.731
 3765POPC   C3A50105  18.259  37.827   7.110
 3765POPC   C4A50106  18.600  37.563   7.220
 3765POPC   C1B50107  18.195  37.359   6.310
 3765POPC   C2B50108  18.040  37.521   6.740
 3765POPC   C3B50109  18.087  37.345   7.187
 3765POPC   C4B50110  18.426  37.162   7.486
 3766POPC   NC350111   6.317   2.262   5.412
 3766POPC   PO450112   6.448   2.881   5.222
 3766POPC   GL150113   6.623   2.751   5.675
 3766POPC   GL250114   6.768   2.406   5.772
 3766POPC   C1A50115   6.626   2.949   6.107
 3766POPC   D2A50116   6.844   3.056   6.493
 3766POPC   C3A50117   6.700   2.936   6.895
 3766POPC   C4A50118   6.893   2.700   7.219
 3766POPC   C1B50119   6.719   2.468   6.236
 3766POPC   C2B50120   6.420   2.681   6.534
 3766POPC   C3B50121   6.339   2.569   6.984
 3766POPC   C4B50122   6.597   2.292   7.258
 3767POPC   NC350123  30.898  29.766   5.439
 3767POPC   PO450124  30.262  29.960   5.484
 3767POPC   GL150125  30.566  30.023   5.799
 3767POPC   GL250126  30.578  29.690   5.855
 3767POPC   C1A50127  30.661  30.011   6.259
 3767POPC   D2A50128  30.419  30.094   6.633
 3767POPC   C3A50129  30.684  29.998   6.987
 3767POPC   C4A50130  31.121  30.097   6.974
 3767POPC   C1B50131  30.924  29.580   6.141
 3767POPC   C2B50132  31.060  29.670   6.554
 3767POPC   C3B50133  30.909  29.532   6.936
 3767POPC   C4B50134  30.659  29.577   7.285
 3768POPC   NC350135  22.654  44.655   5.380
 3768POPC   PO450136  22.072  44.348   5.477
 3768POPC   GL150137  22.402  44.449   5.791
 3768POPC   GL250138  22.400  44.828   5.852
 3768POPC   C1A50139  22.291  44.506   6.233
 3768POPC   D2A50140  22.178  44.318   6.599
 3768POPC   C3A50141  21.937  44.506   6.908
 3768POPC   C4A50142  22.070  44.493   7.302
 3768POPC   C1B50143  22.679  44.819   6.272
 3768POPC   C2B50144  22.666  44.555   6.649
 3768POPC   C3B50145  22.485  44.673   7.051
 3768POPC   C4B50146  22.167   0.004   7.138
 3769POPC   NC350147  25.009  18.107   5.461
 3769POPC   PO450148  25.606  18.381   5.325
 3769POPC   GL150149  25.391  18.220   5.774
 3769POPC   GL250150  25.017  18.287   5.940
 3769POPC   C1A50151  25.353  18.013   6.208
 3769POPC   D2A50152  25.016  18.049   6.522
 3769POPC   C3A50153  25.110  17.977   6.962
 3769POPC   C4A50154  25.519  17.919   7.160
 3769POPC   C1B50155  24.742  18.448   6.319
 3769POPC   C2B50156  24.760  18.415   6.789
 3769POPC   C3B50157  25.077  18.453   7.149
 3769POPC   C4B50158  25.145  18.184   7.513
 3770POPC   NC350159  26.206  33.201   5.393
 3770POPC   PO450160  25.735  32.712   5.431
 3770POPC   GL150161  25.923  32.961   5.775
 3770POPC   GL250162  26.203  32.768   5.697
 3770POPC   C1A50163  25.982  33.109   6.238
 3770POPC   D2A50164  25.866  33.020   6.692
 3770POPC   C3A50165  25.915  33.315   7.035
 3770POPC   C4A50166  26.017  33.226   7.473
 3770POPC   C1B50167  26.300  32.744   6.138
 3770POPC   C2B50168  26.347  32.876   6.580
 3770POPC   C3B50169  26.295  32.948   7.040
 3770POPC   C4B50170  26.499  33.001   7.467
 3771POPC   NC350171  19.303  39.303   5.484
 3771POPC   PO450172  18.694  38.976   5.463
 3771POPC   GL150173  18.934  39.136   5.830
 3771POPC   GL250174  19.292  39.003   5.928
 3771POPC   C1A50175  18.899  39.167   6.267
 3771POPC   D2A50176  19.149  38.916   6.465
 3771POPC   C3A50177  19.115  38.909   6.893
 3771POPC   C4A50178  19.249  39.059   7.283
 3771POPC   C1B50179  19.380  39.337   6.259
 3771POPC   C2B50180  19.167  39.414   6.664
 3771POPC   C3B50181  19.234  39.549   7.109
 3771POPC   C4B50182  19.194  39.496   7.599
 3772POPC   NC350183   2.395  41.554   5.345
 3772POPC   PO450184   3.008  41.736   5.464
 3772POPC   GL150185   2.978  41.410   5.811
 3772POPC   GL250186   3.268  41.333   6.064
 3772POPC   C1A50187   2.785  41.288   6.205
 3772POPC   D2A50188   2.935  41.302   6.651
 3772POPC   C3A50189   2.657  41.370   6.993
 3772POPC   C4A50190   2.581  41.498   7.439
 3772POPC   C1B50191   3.116  41.682   6.338
 3772POPC   C2B50192   3.019  41.947   6.707
 3772POPC   C3B50193   3.022  41.879   7.113
 3772POPC   C4B50194   3.068  41.517   7.331
 3773POPC   NC350195  39.012   9.278   5.059
 3773POPC   PO450196  39.379   8.800   5.382
 3773POPC   GL150197  39.344   8.759   5.814
 3773POPC   GL250198  39.002   8.833   5.931
 3773POPC   C1A50199  39.419   8.940   6.217
 3773POPC   D2A50200  39.380   8.807   6.630
 3773POPC   C3A50201  39.458   9.129   6.879
 3773POPC   C4A50202  39.653   9.132   7.267
 3773POPC   C1B50203  38.938   8.773   6.360
 3773POPC   C2B50204  38.713   8.987   6.647
 3773POPC   C3B50205  38.800   9.194   6.999
 3773POPC   C4B50206  39.149   9.140   7.257
 3774POPC   NC350207  43.608  25.366   5.148
 3774POPC   PO450208  43.807  24.784   5.416
 3774POPC   GL150209  43.895  25.072   5.758
 3774POPC   GL250210  43.730  25.393   5.659
 3774POPC   C1A50211  44.103  25.092   6.164
 3774POPC   D2A50212  44.277  24.968   6.552
 3774POPC   C3A50213  44.027  25.057   6.902
 3774POPC   C4A50214  43.872  24.791   7.236
 3774POPC   C1B50215  43.876  25.539   6.073
 3774POPC   C2B50216  43.805  25.395   6.491
 3774POPC   C3B50217  43.832  25.546   6.910
 3774POPC   C4B50218  43.702  25.395   7.313
 3775POPC   NC350219  35.564  23.552   5.409
 3775POPC   PO450220  34.925  23.532   5.578
 3775POPC   GL150221  35.122  23.676   5.939
 3775POPC   GL250222  35.461  23.621   5.912
 3775POPC   C1A50223  35.289  23.667   6.364
 3775POPC   D2A50224  35.593  23.829   6.605
 3775POPC   C3A50225  35.277  23.793   6.907
 3775POPC   C4A50226  35.254  23.564   7.253
 3775POPC   C1B50227  35.781  23.502   6.195
 3775POPC   C2B50228  35.755  23.300   6.575
 3775POPC   C3B50229  35.706  23.484   6.950
 3775POPC   C4B50230  35.634  23.238   7.245
 3776POPC   NC350231   9.853  39.004   5.396
 3776POPC   PO450232   9.835  38.427   5.066
 3776POPC   GL150233   9.682  38.532   5.521
 3776POPC   GL250234   9.965  38.475   5.773
 3776POPC   C1A50235   9.498  38.564   5.969
 3776POPC   D2A50236   9.539  38.523   6.452
 3776POPC   C3A50237   9.522  38.423   6.904
 3776POPC   C4A50238   9.749  38.259   7.275
 3776POPC   C1B50239  10.116  38.442   6.227
 3776POPC   C2B50240  10.122  38.606   6.672
 3776POPC   C3B50241   9.952  38.696   7.107
 3776POPC   C4B50242   9.907  38.630   7.607
 3777POPC   NC350243   2.138  31.444   5.554
 3777POPC   PO450244   1.516  31.268   5.384
 3777POPC   GL150245   1.634  31.571   5.744
 3777POPC   GL250246   1.880  31.831   5.771
 3777POPC   C1A50247   1.804  31.508   6.207
 3777POPC   D2A50248   2.020  31.226   6.554
 3777POPC   C3A50249   1.999  31.349   7.004
 3777POPC   C4A50250   1.671  31.215   7.275
 3777POPC   C1B50251   2.136  31.910   6.168
 3777POPC   C2B50252   2.197  31.711   6.576
 3777POPC   C3B50253   2.116  31.832   7.005
 3777POPC   C4B50254   2.285  31.645   7.381
 3778POPC   NC350255  16.835   2.184   5.515
 3778POPC   PO450256  16.594   1.554   5.335
 3778POPC   GL150257  16.673   1.752   5.741
 3778POPC   GL250258  16.938   1.536   5.775
 3778POPC   C1A50259  16.577   2.073   6.126
 3778POPC   D2A50260  16.588   2.314   6.536
 3778POPC   C3A50261  16.947   2.180   6.797
 3778POPC   C4A50262  16.916   2.167   7.244
 3778POPC   C1B50263  17.028   1.583   6.195
 3778POPC   C2B50264  16.821   1.461   6.576
 3778POPC   C3B50265  16.717   1.726   6.903
 3778POPC   C4B50266  16.613   1.770   7.311
 3779POPC   NC350267  23.397  13.095   5.454
 3779POPC   PO450268  23.662  12.487   5.312
 3779POPC   GL150269  23.458  12.628   5.683
 3779POPC   GL250270  23.716  12.814   5.796
 3779POPC   C1A50271  23.415  12.501   6.127
 3779POPC   D2A50272  23.621  12.388   6.531
 3779POPC   C3A50273  23.594  12.603   6.943
 3779POPC   C4A50274  23.889  12.610   7.305
 3779POPC   C1B50275  23.420  13.008   6.104
 3779POPC   C2B50276  23.412  12.877   6.527
 3779POPC   C3B50277  23.462  13.102   6.903
 3779POPC   C4B50278  23.721  13.081   7.234
 3780POPC   NC350279  42.159  31.680   5.467
 3780POPC   PO450280  42.657  31.332   5.642
 3780POPC   GL150281  42.277  31.339   5.891
 3780POPC   GL250282  42.072  31.025   5.963
 3780POPC   C1A50283  42.297  31.604   6.261
 3780POPC   D2A50284  42.266  31.628   6.709
 3780POPC   C3A50285  42.592  31.699   6.954
 3780POPC   C4A50286  42.536  31.496   7.331
 3780POPC   C1B50287  41.882  31.286   6.285
 3780POPC   C2B50288  41.790  31.449   6.713
 3780POPC   C3B50289  41.955  31.424   7.162
 3780POPC   C4B50290  42.089  31.478   7.610
 3781POPC   NC350291  16.462  16.748   5.454
 3781POPC   PO450292  16.968  16.213   5.426
 3781POPC   GL150293  16.677  16.386   5.808
 3781POPC   GL250294  16.673  16.755   5.910
 3781POPC   C1A50295  16.567  16.418   6.299
 3781POPC   D2A50296  16.569  16.304   6.783
 3781POPC   C3A50297  16.576  16.601   7.082
 3781POPC   C4A50298  16.812  16.910   7.316
 3781POPC   C1B50299  16.797  17.011   6.260
 3781POPC   C2B50300  16.790  16.880   6.673
 3781POPC   C3B50301  16.525  17.081   6.949
 3781POPC   C4B50302  16.338  17.272   7.306
 3782POPC   NC350303   2.295  44.352   5.539
 3782POPC   PO450304   1.863  44.821   5.431
 3782POPC   GL150305   1.950  44.647   5.865
 3782POPC   GL250306   2.303  44.610   5.968
 3782POPC   C1A50307   1.948  44.615   6.340
 3782POPC   D2A50308   1.701  44.901   6.644
 3782POPC   C3A50309   1.915  44.838   7.012
 3782POPC   C4A50310   2.142  44.440   7.033
 3782POPC   C1B50311   2.203   0.018   6.130
 3782POPC   C2B50312   2.217   0.030   6.568
 3782POPC   C3B50313   2.415  44.851   6.904
 3782POPC   C4B50314   2.428  44.823   7.310
 3783POPC   NC350315   1.587  13.258   5.426
 3783POPC   PO450316   1.394  13.923   5.385
 3783POPC   GL150317   1.107  13.815   5.762
 3783POPC   GL250318   1.020  13.460   5.833
 3783POPC   C1A50319   1.116  13.768   6.234
 3783POPC   D2A50320   1.297  13.912   6.602
 3783POPC   C3A50321   1.152  13.746   7.002
 3783POPC   C4A50322   1.134  13.982   7.403
 3783POPC   C1B50323   0.945  13.284   6.270
 3783POPC   C2B50324   0.850  13.475   6.678
 3783POPC   C3B50325   0.863  13.329   7.110
 3783POPC   C4B50326   1.279  13.165   7.253
 3784POPC   NC350327  28.650  21.201   5.405
 3784POPC   PO450328  29.222  21.651   5.394
 3784POPC   GL150329  29.229  21.499   5.794
 3784POPC   GL250330  29.422  21.236   5.917
 3784POPC   C1A50331  29.091  21.569   6.208
 3784POPC   D2A50332  29.331  21.295   6.466
 3784POPC   C3A50333  29.343  21.366   6.924
 3784POPC   C4A50334  29.020  21.623   7.134
 3784POPC   C1B50335  28.965  21.121   6.016
 3784POPC   C2B50336  28.782  21.135   6.465
 3784POPC   C3B50337  28.770  21.179   6.964
 3784POPC   C4B50338  28.728  21.028   7.418
 3785POPC   NC350339  13.004  12.317   5.494
 3785POPC   PO450340  12.563  11.865   5.371
 3785POPC   GL150341  12.619  12.080   5.762
 3785POPC   GL250342  12.959  11.987   5.882
 3785POPC   C1A50343  12.646  12.293   6.163
 3785POPC   D2A50344  12.755  12.419   6.586
 3785POPC   C3A50345  12.517  12.301   6.935
 3785POPC   C4A50346  12.822  12.232   7.205
 3785POPC   C1B50347  13.113  12.107   6.312
 3785POPC   C2B50348  13.337  11.837   6.616
 3785POPC   C3B50349  13.375  11.706   7.026
 3785POPC   C4B50350  13.056  11.802   7.289
 3786POPC   NC350351  29.634  31.000   5.532
 3786POPC   PO450352  30.095  31.494   5.332
 3786POPC   GL150353  30.037  31.327   5.735
 3786POPC   GL250354  30.276  31.147   5.898
 3786POPC   C1A50355  29.953  31.481   6.152
 3786POPC   D2A50356  29.784  31.388   6.576
 3786POPC   C3A50357  29.892  31.639   6.939
 3786POPC   C4A50358  30.039  31.571   7.372
 3786POPC   C1B50359  30.287  31.056   6.305
 3786POPC   C2B50360  30.114  31.001   6.680
 3786POPC   C3B50361  30.098  31.188   7.031
 3786POPC   C4B50362  30.422  31.226   7.325
 3787POPC   NC350363  27.939  34.722   5.453
 3787POPC   PO450364  27.498  34.235   5.222
 3787POPC   GL150365  27.490  34.476   5.631
 3787POPC   GL250366  27.815  34.351   5.806
 3787POPC   C1A50367  27.381  34.428   6.091
 3787POPC   D2A50368  27.633  34.201   6.423
 3787POPC   C3A50369  27.494  34.264   6.847
 3787POPC   C4A50370  27.445  34.539   7.198
 3787POPC   C1B50371  27.832  34.663   6.164
 3787POPC   C2B50372  27.796  34.678   6.633
 3787POPC   C3B50373  27.919  34.525   7.040
 3787POPC   C4B50374  27.888  34.717   7.429
 3788POPC   NC350375  42.448  12.125   5.302
 3788POPC   PO450376  41.894  11.954   5.525
 3788POPC   GL150377  42.183  12.226   5.792
 3788POPC   GL250378  42.545  12.339   5.759
 3788POPC   C1A50379  42.031  12.422   6.172
 3788POPC   D2A50380  41.799  12.366   6.576
 3788POPC   C3A50381  41.990  12.362   7.016
 3788POPC   C4A50382  42.150  12.141   7.395
 3788POPC   C1B50383  42.516  12.244   6.225
 3788POPC   C2B50384  42.330  12.210   6.650
 3788POPC   C3B50385  42.511  12.339   7.067
 3788POPC   C4B50386  42.703  12.730   7.261
 3789POPC   NC350387   9.416   5.790   5.481
 3789POPC   PO450388  10.004   6.168   5.382
 3789POPC   GL150389   9.721   6.166   5.747
 3789POPC   GL250390   9.536   6.472   5.838
 3789POPC   C1A50391   9.813   5.992   6.151
 3789POPC   D2A50392   9.788   5.635   6.412
 3789POPC   C3A50393   9.795   5.717   6.853
 3789POPC   C4A50394   9.969   5.833   7.231
 3789POPC   C1B50395   9.357   6.278   6.197
 3789POPC   C2B50396   9.491   6.024   6.563
 3789POPC   C3B50397   9.613   6.176   6.954
 3789POPC   C4B50398   9.521   6.099   7.344
 3790POPC   NC350399  31.187  43.415   5.398
 3790POPC   PO450400  31.609  42.907   5.380
 3790POPC   GL150401  31.406  42.955   5.759
 3790POPC   GL250402  31.577  43.246   5.796
 3790POPC   C1A50403  31.599  42.904   6.188
 3790POPC   D2A50404  31.448  42.976   6.577
 3790POPC   C3A50405  31.695  42.988   6.922
 3790POPC   C4A50406  31.634  43.075   7.327
 3790POPC   C1B50407  31.408  43.361   6.210
 3790POPC   C2B50408  31.219  43.425   6.625
 3790POPC   C3B50409  31.428  43.469   7.044
 3790POPC   C4B50410  31.722  43.562   7.397
 3791POPC   NC350411   6.922   1.511   5.679
 3791POPC   PO450412   6.724   2.002   5.377
 3791POPC   GL150413   6.585   1.917   5.780
 3791POPC   GL250414   6.229   1.904   5.776
 3791POPC   C1A50415   6.734   1.928   6.207
 3791POPC   D2A50416   6.872   1.739   6.591
 3791POPC   C3A50417   6.786   1.923   6.981
 3791POPC   C4A50418   6.856   1.908   7.455
 3791POPC   C1B50419   6.292   2.189   6.150
 3791POPC   C2B50420   6.453   2.161   6.591
 3791POPC   C3B50421   6.258   2.046   6.970
 3791POPC   C4B50422   6.374   1.802   7.296
 3792POPC   NC350423  44.223  22.005   5.439
 3792POPC   PO450424  43.742  22.438   5.522
 3792POPC   GL150425  43.941  22.165   5.863
 3792POPC   GL250426  44.291  22.294   5.851
 3792POPC   C1A50427  43.756  21.906   6.236
 3792POPC   D2A50428  43.540  21.738   6.659
 3792POPC   C3A50429  43.693  21.810   7.110
 3792POPC   C4A50430  43.747  22.121   7.442
 3792POPC   C1B50431  44.248  22.113   6.274
 3792POPC   C2B50432  43.992  22.079   6.661
 3792POPC   C3B50433  44.118  22.069   7.080
 3792POPC   C4B50434  44.273  22.210   7.461
 3793POPC   NC350435  26.479  16.125   5.106
 3793POPC   PO450436  26.138  15.577   5.369
 3793POPC   GL150437  26.059  15.782   5.754
 3793POPC   GL250438  25.805  16.040   5.770
 3793POPC   C1A50439  25.880  15.591   6.109
 3793POPC   D2A50440  25.798  15.747   6.517
 3793POPC   C3A50441  26.082  15.893   6.855
 3793POPC   C4A50442  26.345  15.834   7.245
 3793POPC   C1B50443  25.942  16.100   6.174
 3793POPC   C2B50444  25.800  16.278   6.544
 3793POPC   C3B50445  25.925  16.378   6.942
 3793POPC   C4B50446  26.137  16.288   7.311
 3794POPC   NC350447  35.822   6.058   5.201
 3794POPC   PO450448  35.176   5.986   5.393
 3794POPC   GL150449  35.305   6.077   5.815
 3794POPC   GL250450  35.614   6.134   5.722
 3794POPC   C1A50451  35.211   6.187   6.252
 3794POPC   D2A50452  35.248   6.041   6.680
 3794POPC   C3A50453  35.075   6.118   7.087
 3794POPC   C4A50454  35.235   5.990   7.482
 3794POPC   C1B50455  35.669   5.952   6.180
 3794POPC   C2B50456  35.755   5.978   6.630
 3794POPC   C3B50457  35.594   5.980   7.062
 3794POPC   C4B50458  35.661   6.238   7.386
 3795POPC   NC350459   6.347  30.579   5.395
 3795POPC   PO450460   6.944  31.006   5.466
 3795POPC   GL150461   6.660  30.741   5.764
 3795POPC   GL250462   6.681  30.346   5.790
 3795POPC   C1A50463   6.466  30.666   6.171
 3795POPC   D2A50464   6.262  30.497   6.542
 3795POPC   C3A50465   6.395  30.712   6.894
 3795POPC   C4A50466   6.373  30.885   7.319
 3795POPC   C1B50467   6.630  30.177   6.237
 3795POPC   C2B50468   6.735  30.324   6.679
 3795POPC   C3B50469   6.817  30.523   7.089
 3795POPC   C4B50470   6.891  30.946   7.231
 3796POPC   NC350471  13.172  42.484   5.431
 3796POPC   PO450472  12.664  42.130   5.425
 3796POPC   GL150473  12.669  42.239   5.852
 3796POPC   GL250474  12.998  42.346   5.898
 3796POPC   C1A50475  12.645  42.280   6.299
 3796POPC   D2A50476  12.794  42.044   6.659
 3796POPC   C3A50477  12.833  42.273   7.058
 3796POPC   C4A50478  12.451  42.420   7.180
 3796POPC   C1B50479  13.009  42.612   6.257
 3796POPC   C2B50480  13.059  42.477   6.652
 3796POPC   C3B50481  13.219  42.632   7.012
 3796POPC   C4B50482  13.068  42.554   7.447
 3797POPC   NC350483  18.266   2.836   5.396
 3797POPC   PO450484  18.168   2.188   5.534
 3797POPC   GL150485  18.403   2.447   5.815
 3797POPC   GL250486  18.385   2.826   5.897
 3797POPC   C1A50487  18.216   2.491   6.226
 3797POPC   D2A50488  18.280   2.753   6.555
 3797POPC   C3A50489  18.240   2.541   6.913
 3797POPC   C4A50490  18.250   2.535   7.358
 3797POPC   C1B50491  18.295   3.170   6.215
 3797POPC   C2B50492  18.334   3.248   6.666
 3797POPC   C3B50493  18.263   3.041   7.032
 3797POPC   C4B50494  18.424   3.018   7.454
 3798POPC   NC350495  13.757   6.896   5.563
 3798POPC   PO450496  13.310   6.299   5.440
 3798POPC   GL150497  13.368   6.538   5.812
 3798POPC   GL250498  13.228   6.859   5.764
 3798POPC   C1A50499  13.644   6.646   6.176
 3798POPC   D2A50500  13.747   6.865   6.573
 3798POPC   C3A50501  13.912   6.658   6.931
 3798POPC   C4A50502  13.924   6.810   7.332
 3798POPC   C1B50503  13.215   6.943   6.190
 3798POPC   C2B50504  13.281   6.657   6.534
 3798POPC   C3B50505  13.394   6.719   6.947
 3798POPC   C4B50506  13.173   6.564   7.281
 3799POPC   NC350507  14.573  30.816   5.229
 3799POPC   PO450508  13.998  30.425   5.265
 3799POPC   GL150509  14.361  30.444   5.623
 3799POPC   GL250510  14.616  30.743   5.727
 3799POPC   C1A50511  14.451  30.399   6.095
 3799POPC   D2A50512  14.257  30.337   6.518
 3799POPC   C3A50513  14.441  30.493   6.918
 3799POPC   C4A50514  14.202  30.794   7.197
 3799POPC   C1B50515  14.431  30.956   6.096
 3799POPC   C2B50516  14.487  30.907   6.543
 3799POPC   C3B50517  14.652  31.003   6.934
 3799POPC   C4B50518  14.724  30.759   7.285
 3800POPC   NC350519  10.630  11.434   5.365
 3800POPC   PO450520  10.086  11.111   5.244
 3800POPC   GL150521  10.376  11.221   5.736
 3800POPC   GL250522  10.721  11.321   5.839
 3800POPC   C1A50523  10.409  11.392   6.228
 3800POPC   D2A50524  10.573  11.582   6.651
 3800POPC   C3A50525  10.392  11.508   7.065
 3800POPC   C4A50526  10.500  11.272   7.418
 3800POPC   C1B50527  10.946  11.565   6.144
 3800POPC   C2B50528  11.086  11.540   6.571
 3800POPC   C3B50529  10.938  11.454   7.001
 3800POPC   C4B50530  10.811  11.671   7.343
 3801POPC   NC350531  17.015   6.638   5.337
 3801POPC   PO450532  17.386   6.193   5.615
 3801POPC   GL150533  17.089   6.512   5.836
 3801POPC   GL250534  16.707   6.465   5.741
 3801POPC   C1A50535  16.865   6.616   6.237
 3801POPC   D2A50536  16.570   6.451   6.548
 3801POPC   C3A50537  16.792   6.369   6.937
 3801POPC   C4A50538  17.070   6.491   7.320
 3801POPC   C1B50539  16.414   6.702   6.034
 3801POPC   C2B50540  16.424   6.933   6.431
 3801POPC   C3B50541  16.284   6.777   6.857
 3801POPC   C4B50542  16.578   6.733   7.228
 3802POPC   NC350543  31.720   5.599   5.054
 3802POPC   PO450544  31.493   6.049   5.287
 3802POPC   GL150545  31.589   6.175   5.751
 3802POPC   GL250546  31.907   5.988   5.790
 3802POPC   C1A50547  31.386   6.388   6.152
 3802POPC   D2A50548  31.376   6.437   6.634
 3802POPC   C3A50549  31.268   6.089   6.936
 3802POPC   C4A50550  31.475   5.749   7.212
 3802POPC   C1B50551  31.826   6.119   6.246
 3802POPC   C2B50552  31.691   5.996   6.668
 3802POPC   C3B50553  31.766   6.160   7.091
 3802POPC   C4B50554  31.674   6.118   7.542
 3803POPC   NC350555  18.618  20.185   5.480
 3803POPC   PO450556  19.185  19.790   5.390
 3803POPC   GL150557  19.252  19.888   5.832
 3803POPC   GL250558  18.904  19.846   5.931
 3803POPC   C1A50559  19.304  19.794   6.296
 3803POPC   D2A50560  19.333  19.716   6.771
 3803POPC   C3A50561  19.169  19.971   7.112
 3803POPC   C4A50562  19.097  19.874   7.544
 3803POPC   C1B50563  18.788  19.726   6.367
 3803POPC   C2B50564  18.789  19.840   6.802
 3803POPC   C3B50565  18.674  19.906   7.250
 3803POPC   C4B50566  18.630  19.737   7.696
 3804POPC   NC350567  28.020  21.940   5.165
 3804POPC   PO450568  27.468  22.103   5.258
 3804POPC   GL150569  27.466  22.154   5.732
 3804POPC   GL250570  27.781  22.009   5.852
 3804POPC   C1A50571  27.408  22.179   6.206
 3804POPC   D2A50572  27.385  22.034   6.670
 3804POPC   C3A50573  27.464  22.295   7.057
 3804POPC   C4A50574  27.202  22.376   7.446
 3804POPC   C1B50575  27.897  22.036   6.315
 3804POPC   C2B50576  27.914  21.941   6.771
 3804POPC   C3B50577  27.764  21.887   7.187
 3804POPC   C4B50578  27.783  21.532   7.481
 3805POPC   NC350579   9.259   0.941   5.430
 3805POPC   PO450580   9.914   0.989   5.491
 3805POPC   GL150581   9.624   1.162   5.820
 3805POPC   GL250582   9.536   0.876   6.000
 3805POPC   C1A50583   9.629   1.341   6.275
 3805POPC   D2A50584   9.640   1.088   6.665
 3805POPC   C3A50585   9.605   1.165   7.102
 3805POPC   C4A50586   9.314   1.074   7.404
 3805POPC   C1B50587   9.934   0.927   6.277
 3805POPC   C2B50588  10.149   1.026   6.719
 3805POPC   C3B50589  10.125   1.136   7.180
 3805POPC   C4B50590  10.223   1.533   7.399
 3806POPC   NC350591   4.627  40.517   5.483
 3806POPC   PO450592   4.022  40.751   5.149
 3806POPC   GL150593   4.320  40.922   5.603
 3806POPC   GL250594   4.423  40.712   5.885
 3806POPC   C1A50595   4.149  41.050   6.098
 3806POPC   D2A50596   4.256  40.776   6.454
 3806POPC   C3A50597   4.159  40.958   6.850
 3806POPC   C4A50598   3.950  41.153   7.199
 3806POPC   C1B50599   4.604  40.412   6.149
 3806POPC   C2B50600   4.728  40.453   6.557
 3806POPC   C3B50601   4.471  40.503   6.901
 3806POPC   C4B50602   4.558  40.799   7.170
 3807POPC   NC350603  25.395  31.314   5.324
 3807POPC   PO450604  25.325  31.952   5.611
 3807POPC   GL150605  25.199  31.561   5.850
 3807POPC   GL250606  25.112  31.206   5.767
 3807POPC   C1A50607  25.406  31.340   6.218
 3807POPC   D2A50608  25.593  31.337   6.661
 3807POPC   C3A50609  25.375  31.505   7.017
 3807POPC   C4A50610  25.172  31.900   7.064
 3807POPC   C1B50611  24.895  31.231   6.147
 3807POPC   C2B50612  24.950  31.482   6.518
 3807POPC   C3B50613  24.913  31.320   6.934
 3807POPC   C4B50614  24.965  31.532   7.360
 3808POPC   NC350615  19.665  17.835   5.383
 3808POPC   PO450616  19.813  18.491   5.392
 3808POPC   GL150617  19.861  18.195   5.735
 3808POPC   GL250618  20.231  18.116   5.756
 3808POPC   C1A50619  19.667  18.257   6.141
 3808POPC   D2A50620  19.465  18.331   6.536
 3808POPC   C3A50621  19.647  18.233   6.918
 3808POPC   C4A50622  19.852  18.477   7.233
 3808POPC   C1B50623  20.175  18.397   6.117
 3808POPC   C2B50624  19.994  18.331   6.539
 3808POPC   C3B50625  20.154  18.113   6.921
 3808POPC   C4B50626  20.374  18.159   7.277
 3809POPC   NC350627  43.505  22.039   5.620
 3809POPC   PO450628  42.956  22.360   5.401
 3809POPC   GL150629  42.994  22.005   5.776
 3809POPC   GL250630  42.830  21.655   5.748
 3809POPC   C1A50631  43.204  21.991   6.234
 3809POPC   D2A50632  43.470  22.232   6.545
 3809POPC   C3A50633  43.410  22.229   7.003
 3809POPC   C4A50634  43.172  22.451   7.308
 3809POPC   C1B50635  42.762  21.732   6.190
 3809POPC   C2B50636  42.726  22.030   6.542
 3809POPC   C3B50637  42.838  22.312   6.882
 3809POPC   C4B50638  42.853  22.073   7.229
 3810POPC   NC350639  24.844   0.588   5.301
 3810POPC   PO450640  24.467   0.188   5.650
 3810POPC   GL150641  24.516   0.534   5.851
 3810POPC   GL250642  24.146   0.635   5.848
 3810POPC   C1A50643  24.727   0.515   6.239
 3810POPC   D2A50644  24.616   0.176   6.514
 3810POPC   C3A50645  24.636   0.242   6.941
 3810POPC   C4A50646  24.665   0.674   7.097
 3810POPC   C1B50647  24.194   0.332   6.223
 3810POPC   C2B50648  24.112   0.152   6.644
 3810POPC   C3B50649  24.159   0.427   7.003
 3810POPC   C4B50650  24.171   0.729   7.313
 3811POPC   NC350651  16.514  42.631   5.269
 3811POPC   PO450652  17.091  42.267   5.379
 3811POPC   GL150653  16.826  42.240   5.800
 3811POPC   GL250654  16.549  41.975   5.871
 3811POPC   C1A50655  16.913  42.406   6.234
 3811POPC   D2A50656  17.061  42.532   6.656
 3811POPC   C3A50657  16.720  42.565   6.943
 3811POPC   C4A50658  16.704  42.353   7.313
 3811POPC   C1B50659  16.470  42.155   6.242
 3811POPC   C2B50660  16.622  42.192   6.630
 3811POPC   C3B50661  16.396  42.097   7.008
 3811POPC   C4B50662  16.262  41.745   7.256
 3812POPC   NC350663  18.580   5.120   5.264
 3812POPC   PO450664  18.003   4.919   5.514
 3812POPC   GL150665  18.341   5.029   5.815
 3812POPC   GL250666  18.691   5.011   5.750
 3812POPC   C1A50667  18.330   5.337   6.161
 3812POPC   D2A50668  18.139   5.474   6.540
 3812POPC   C3A50669  18.187   5.214   6.842
 3812POPC   C4A50670  18.437   5.113   7.158
 3812POPC   C1B50671  18.738   5.019   6.212
 3812POPC   C2B50672  18.481   4.900   6.558
 3812POPC   C3B50673  18.552   4.639   6.929
 3812POPC   C4B50674  18.489   4.641   7.388
 3813POPC   NC350675  19.269  43.351   5.603
 3813POPC   PO450676  19.106  43.958   5.312
 3813POPC   GL150677  19.272  43.868   5.727
 3813POPC   GL250678  18.966  43.743   5.857
 3813POPC   C1A50679  19.305  44.001   6.183
 3813POPC   D2A50680  19.160  44.201   6.590
 3813POPC   C3A50681  19.146  43.933   6.959
 3813POPC   C4A50682  19.106  43.953   7.391
 3813POPC   C1B50683  18.820  43.939   6.256
 3813POPC   C2B50684  18.700  43.938   6.680
 3813POPC   C3B50685  18.639  43.712   7.076
 3813POPC   C4B50686  18.811  43.533   7.454
 3814POPC   NC350687  20.856  32.618   5.388
 3814POPC   PO450688  20.674  33.267   5.149
 3814POPC   GL150689  20.741  33.092   5.599
 3814POPC   GL250690  20.490  32.837   5.719
 3814POPC   C1A50691  20.844  33.065   6.076
 3814POPC   D2A50692  20.679  33.212   6.496
 3814POPC   C3A50693  20.799  33.102   6.961
 3814POPC   C4A50694  20.668  33.080   7.434
 3814POPC   C1B50695  20.266  32.935   6.136
 3814POPC   C2B50696  20.194  33.124   6.558
 3814POPC   C3B50697  20.285  32.957   6.996
 3814POPC   C4B50698  20.300  32.750   7.411
 3815POPC   NC350699  36.624  36.410   5.575
 3815POPC   PO450700  35.871  36.301   5.575
 3815POPC   GL150701  36.208  36.245   5.819
 3815POPC   GL250702  36.230  36.610   5.844
 3815POPC   C1A50703  36.222  36.016   6.212
 3815POPC   D2A50704  35.889  35.942   6.529
 3815POPC   C3A50705  36.081  36.055   6.916
 3815POPC   C4A50706  36.348  35.927   7.269
 3815POPC   C1B50707  36.090  36.524   6.274
 3815POPC   C2B50708  36.345  36.421   6.647
 3815POPC   C3B50709  36.388  36.441   7.093
 3815POPC   C4B50710  36.088  36.389   7.409
 3816POPC   NC350711  23.872   4.132   5.518
 3816POPC   PO450712  23.239   3.936   5.327
 3816POPC   GL150713  23.423   4.032   5.772
 3816POPC   GL250714  23.593   4.379   5.854
 3816POPC   C1A50715  23.649   3.995   6.191
 3816POPC   D2A50716  23.591   4.201   6.596
 3816POPC   C3A50717  23.861   4.234   6.950
 3816POPC   C4A50718  23.689   4.077   7.348
 3816POPC   C1B50719  23.900   4.450   6.219
 3816POPC   C2B50720  23.900   4.677   6.630
 3816POPC   C3B50721  23.603   4.682   6.976
 3816POPC   C4B50722  23.804   4.557   7.361
 3817POPC   NC350723   6.179  36.243   5.421
 3817POPC   PO450724   6.604  35.685   5.418
 3817POPC   GL150725   6.523  36.000   5.731
 3817POPC   GL250726   6.712  36.333   5.807
 3817POPC   C1A50727   6.366  36.095   6.123
 3817POPC   D2A50728   6.500  36.324   6.457
 3817POPC   C3A50729   6.475  36.120   6.832
 3817POPC   C4A50730   6.629  35.984   7.230
 3817POPC   C1B50731   6.937  36.537   6.177
 3817POPC   C2B50732   6.991  36.427   6.611
 3817POPC   C3B50733   6.939  36.371   7.062
 3817POPC   C4B50734   6.800  36.369   7.511
 3818POPC   NC350735  34.086  17.576   5.332
 3818POPC   PO450736  33.506  17.284   5.435
 3818POPC   GL150737  33.653  17.507   5.801
 3818POPC   GL250738  33.977  17.607   5.831
 3818POPC   C1A50739  33.675  17.707   6.227
 3818POPC   D2A50740  33.871  17.604   6.632
 3818POPC   C3A50741  33.741  17.890   6.949
 3818POPC   C4A50742  33.696  17.920   7.393
 3818POPC   C1B50743  33.943  17.244   6.153
 3818POPC   C2B50744  34.084  17.115   6.584
 3818POPC   C3B50745  33.988  17.247   6.996
 3818POPC   C4B50746  34.090  17.605   7.222
 3819POPC   NC350747  21.005  40.124   5.157
 3819POPC   PO450748  21.604  39.811   5.290
 3819POPC   GL150749  21.497  40.000   5.713
 3819POPC   GL250750  21.179  39.848   5.804
 3819POPC   C1A50751  21.323  40.270   6.105
 3819POPC   D2A50752  21.361  40.365   6.570
 3819POPC   C3A50753  21.335  40.021   6.866
 3819POPC   C4A50754  21.133  40.106   7.255
 3819POPC   C1B50755  21.436  39.801   6.207
 3819POPC   C2B50756  21.560  39.575   6.567
 3819POPC   C3B50757  21.732  39.672   6.955
 3819POPC   C4B50758  21.574  39.917   7.369
 3820POPC   NC350759  40.178  26.732   5.438
 3820POPC   PO450760  39.854  27.304   5.254
 3820POPC   GL150761  39.882  27.022   5.725
 3820POPC   GL250762  39.801  26.653   5.864
 3820POPC   C1A50763  40.134  26.929   6.152
 3820POPC   D2A50764  39.886  26.647   6.461
 3820POPC   C3A50765  39.973  26.655   6.911
 3820POPC   C4A50766  40.181  26.987   7.168
 3820POPC   C1B50767  40.174  26.437   6.083
 3820POPC   C2B50768  40.349  26.420   6.552
 3820POPC   C3B50769  40.381  26.359   7.015
 3820POPC   C4B50770  40.170  26.535   7.394
 3821POPC   NC350771  26.791  18.525   5.432
 3821POPC   PO450772  26.489  17.912   5.343
 3821POPC   GL150773  26.677  18.111   5.741
 3821POPC   GL250774  26.610  18.477   5.887
 3821POPC   C1A50775  26.810  18.090   6.178
 3821POPC   D2A50776  26.999  18.046   6.570
 3821POPC   C3A50777  26.759  18.224   6.898
 3821POPC   C4A50778  26.781  18.072   7.301
 3821POPC   C1B50779  26.961  18.592   6.150
 3821POPC   C2B50780  27.123  18.548   6.576
 3821POPC   C3B50781  27.014  18.675   6.962
 3821POPC   C4B50782  26.741  18.567   7.303
 3822POPC   NC350783  10.313  26.457   5.558
 3822POPC   PO450784  10.638  27.000   5.288
 3822POPC   GL150785  10.582  26.952   5.756
 3822POPC   GL250786  10.649  26.611   5.931
 3822POPC   C1A50787  10.537  27.054   6.213
 3822POPC   D2A50788  10.773  27.067   6.588
 3822POPC   C3A50789  10.621  27.185   6.991
 3822POPC   C4A50790  10.309  26.954   7.217
 3822POPC   C1B50791  10.687  26.588   6.400
 3822POPC   C2B50792  10.631  26.666   6.845
 3822POPC   C3B50793  10.525  26.476   7.188
 3822POPC   C4B50794  10.460  26.616   7.584
 3823POPC   NC350795  36.470   7.468   5.172
 3823POPC   PO450796  35.834   7.560   5.450
 3823POPC   GL150797  35.890   7.417   5.907
 3823POPC   GL250798  36.223   7.401   6.049
 3823POPC   C1A50799  35.859   7.388   6.388
 3823POPC   D2A50800  36.238   7.432   6.616
 3823POPC   C3A50801  36.125   7.419   7.022
 3823POPC   C4A50802  35.742   7.296   7.212
 3823POPC   C1B50803  36.524   7.648   6.235
 3823POPC   C2B50804  36.690   7.797   6.580
 3823POPC   C3B50805  36.614   7.617   6.973
 3823POPC   C4B50806  36.410   7.800   7.321
 3824POPC   NC350807  36.287  11.297   5.336
 3824POPC   PO450808  35.627  11.315   5.555
 3824POPC   GL150809  35.997  11.238   5.764
 3824POPC   GL250810  36.160  11.538   5.773
 3824POPC   C1A50811  36.095  11.129   6.191
 3824POPC   D2A50812  36.105  10.886   6.587
 3824POPC   C3A50813  36.149  11.084   6.983
 3824POPC   C4A50814  36.122  11.190   7.409
 3824POPC   C1B50815  36.003  11.635   6.183
 3824POPC   C2B50816  36.061  11.487   6.649
 3824POPC   C3B50817  36.267  11.584   7.074
 3824POPC   C4B50818  36.232  11.657   7.548
 3825POPC   NC350819  12.537   7.472   5.124
 3825POPC   PO450820  11.908   7.310   5.396
 3825POPC   GL150821  12.047   7.510   5.748
 3825POPC   GL250822  12.369   7.380   5.797
 3825POPC   C1A50823  11.923   7.472   6.165
 3825POPC   D2A50824  11.706   7.312   6.500
 3825POPC   C3A50825  11.883   7.113   6.812
 3825POPC   C4A50826  11.992   7.349   7.149
 3825POPC   C1B50827  12.411   7.388   6.251
 3825POPC   C2B50828  12.329   7.344   6.722
 3825POPC   C3B50829  12.373   7.671   7.095
 3825POPC   C4B50830  12.370   7.651   7.591
 3826POPC   NC350831   7.294   5.500   5.167
 3826POPC   PO450832   7.596   6.061   5.447
 3826POPC   GL150833   7.372   6.039   5.822
 3826POPC   GL250834   7.642   5.879   5.952
 3826POPC   C1A50835   7.247   5.917   6.263
 3826POPC   D2A50836   7.237   6.127   6.652
 3826POPC   C3A50837   7.492   5.983   6.989
 3826POPC   C4A50838   7.374   5.966   7.412
 3826POPC   C1B50839   7.620   5.577   6.316
 3826POPC   C2B50840   7.633   5.563   6.723
 3826POPC   C3B50841   7.550   5.407   7.082
 3826POPC   C4B50842   7.749   5.620   7.317
 3827POPC   NC350843  32.009  24.336   5.438
 3827POPC   PO450844  32.658  24.687   5.481
 3827POPC   GL150845  32.307  24.601   5.762
 3827POPC   GL250846  32.263  24.251   5.874
 3827POPC   C1A50847  31.951  24.653   6.046
 3827POPC   D2A50848  31.851  24.518   6.454
 3827POPC   C3A50849  32.148  24.606   6.798
 3827POPC   C4A50850  32.144  24.566   7.267
 3827POPC   C1B50851  32.335  24.403   6.273
 3827POPC   C2B50852  32.514  24.277   6.614
 3827POPC   C3B50853  32.562  24.381   7.011
 3827POPC   C4B50854  32.472  24.187   7.367
 3828POPC   NC350855   6.073   1.436   5.585
 3828POPC   PO450856   5.714   1.845   5.239
 3828POPC   GL150857   5.720   1.786   5.714
 3828POPC   GL250858   5.672   1.460   5.878
 3828POPC   C1A50859   5.893   1.815   6.162
 3828POPC   D2A50860   6.069   1.728   6.580
 3828POPC   C3A50861   5.783   1.858   6.917
 3828POPC   C4A50862   5.894   1.931   7.356
 3828POPC   C1B50863   5.568   1.314   6.280
 3828POPC   C2B50864   5.512   1.469   6.695
 3828POPC   C3B50865   5.381   1.544   7.096
 3828POPC   C4B50866   5.387   1.953   7.248
 3829POPC   NC350867  11.332  22.814   5.295
 3829POPC   PO450868  10.872  23.005   5.627
 3829POPC   GL150869  11.123  22.695   5.877
 3829POPC   GL250870  11.506  22.728   5.874
 3829POPC   C1A50871  11.227  22.547   6.305
 3829POPC   D2A50872  11.201  22.636   6.751
 3829POPC   C3A50873  11.394  22.932   7.042
 3829POPC   C4A50874  11.361  23.343   7.277
 3829POPC   C1B50875  11.654  22.835   6.336
 3829POPC   C2B50876  11.756  23.112   6.705
 3829POPC   C3B50877  11.857  23.098   7.144
 3829POPC   C4B50878  11.710  22.797   7.472
 3830POPC   NC350879  34.176  40.564   5.373
 3830POPC   PO450880  34.004  41.204   5.499
 3830POPC   GL150881  33.891  40.912   5.814
 3830POPC   GL250882  34.004  40.553   5.852
 3830POPC   C1A50883  33.674  40.821   6.197
 3830POPC   D2A50884  33.877  40.856   6.593
 3830POPC   C3A50885  33.612  41.008   6.917
 3830POPC   C4A50886  33.754  41.308   7.223
 3830POPC   C1B50887  33.895  40.374   6.259
 3830POPC   C2B50888  34.028  40.385   6.675
 3830POPC   C3B50889  33.818  40.543   6.997
 3830POPC   C4B50890  33.899  40.811   7.315
 3831POPC   NC350891  41.736  23.876   5.366
 3831POPC   PO450892  41.191  23.465   5.346
 3831POPC   GL150893  41.345  23.483   5.769
 3831POPC   GL250894  41.682  23.647   5.859
 3831POPC   C1A50895  41.217  23.737   6.147
 3831POPC   D2A50896  41.420  23.947   6.504
 3831POPC   C3A50897  41.170  24.098   6.845
 3831POPC   C4A50898  41.264  23.878   7.223
 3831POPC   C1B50899  41.545  23.342   6.214
 3831POPC   C2B50900  41.227  23.282   6.506
 3831POPC   C3B50901  41.387  23.515   6.854
 3831POPC   C4B50902  41.588  23.475   7.259
 3832POPC   NC350903  43.282   5.074   5.167
 3832POPC   PO450904  42.675   5.352   5.214
 3832POPC   GL150905  43.069   5.086   5.633
 3832POPC   GL250906  43.148   5.305   5.925
 3832POPC   C1A50907  43.372   4.873   5.950
 3832POPC   D2A50908  43.482   4.906   6.412
 3832POPC   C3A50909  43.225   4.880   6.800
 3832POPC   C4A50910  43.175   4.744   7.253
 3832POPC   C1B50911  43.542   5.355   6.166
 3832POPC   C2B50912  43.637   5.494   6.604
 3832POPC   C3B50913  43.501   5.569   7.036
 3832POPC   C4B50914  43.233   5.242   7.186
 3833POPC   NC350915   6.082  44.127   5.681
 3833POPC   PO450916   5.681  43.623   5.528
 3833POPC   GL150917   5.649  43.858   5.881
 3833POPC   GL250918   5.576  44.216   5.908
 3833POPC   C1A50919   5.546  43.730   6.263
 3833POPC   D2A50920   5.792  43.546   6.534
 3833POPC   C3A50921   5.669  43.691   6.918
 3833POPC   C4A50922   5.930  43.683   7.206
 3833POPC   C1B50923   5.855  44.152   6.286
 3833POPC   C2B50924   6.085  44.318   6.646
 3833POPC   C3B50925   6.122  44.142   7.037
 3833POPC   C4B50926   5.716  44.163   7.221
 3834POPC   NC350927  23.596   7.463   5.308
 3834POPC   PO450928  23.337   6.844   5.495
 3834POPC   GL150929  23.410   7.217   5.768
 3834POPC   GL250930  23.726   7.378   5.807
 3834POPC   C1A50931  23.420   7.315   6.231
 3834POPC   D2A50932  23.530   7.291   6.685
 3834POPC   C3A50933  23.673   7.583   6.973
 3834POPC   C4A50934  23.493   7.729   7.338
 3834POPC   C1B50935  23.904   7.172   6.197
 3834POPC   C2B50936  24.001   7.055   6.633
 3834POPC   C3B50937  24.065   7.199   7.077
 3834POPC   C4B50938  23.802   7.332   7.417
 3835POPC   NC350939  28.763  19.740   5.396
 3835POPC   PO450940  29.393  19.995   5.343
 3835POPC   GL150941  29.214  19.772   5.687
 3835POPC   GL250942  28.960  19.981   5.811
 3835POPC   C1A50943  29.346  19.837   6.137
 3835POPC   D2A50944  29.153  19.924   6.509
 3835POPC   C3A50945  29.276  19.975   6.936
 3835POPC   C4A50946  29.303  19.750   7.314
 3835POPC   C1B50947  28.917  19.582   6.079
 3835POPC   C2B50948  28.915  19.486   6.554
 3835POPC   C3B50949  28.918  19.521   7.009
 3835POPC   C4B50950  28.788  19.492   7.437
 3836POPC   NC350951   1.005  43.618   5.482
 3836POPC   PO450952   1.369  44.042   5.066
 3836POPC   GL150953   1.443  43.932   5.544
 3836POPC   GL250954   1.448  43.573   5.703
 3836POPC   C1A50955   1.347  43.997   5.995
 3836POPC   D2A50956   1.245  44.024   6.443
 3836POPC   C3A50957   1.352  44.019   6.873
 3836POPC   C4A50958   1.224  44.200   7.288
 3836POPC   C1B50959   1.464  43.497   6.145
 3836POPC   C2B50960   1.280  43.510   6.536
 3836POPC   C3B50961   1.432  43.492   6.914
 3836POPC   C4B50962   1.213  43.668   7.226
 3837POPC   NC350963   8.095  12.397   5.334
 3837POPC   PO450964   8.324  13.088   5.389
 3837POPC   GL150965   8.233  12.932   5.766
 3837POPC   GL250966   7.937  12.769   5.672
 3837POPC   C1A50967   8.359  13.049   6.200
 3837POPC   D2A50968   8.495  12.926   6.608
 3837POPC   C3A50969   8.414  13.126   6.955
 3837POPC   C4A50970   8.198  12.927   7.242
 3837POPC   C1B50971   7.870  12.900   6.110
 3837POPC   C2B50972   8.013  12.762   6.498
 3837POPC   C3B50973   7.863  12.858   6.893
 3837POPC   C4B50974   7.849  12.515   7.171
 3838POPC   NC350975   3.309   0.201   5.679
 3838POPC   PO450976   3.534  44.692   5.269
 3838POPC   GL150977   3.484  44.692   5.730
 3838POPC   GL250978   3.264  44.448   5.852
 3838POPC   C1A50979   3.679  44.775   6.157
 3838POPC   D2A50980   3.578  44.837   6.598
 3838POPC   C3A50981   3.820  44.905   6.942
 3838POPC   C4A50982   3.883  44.617   7.276
 3838POPC   C1B50983   3.168  44.653   6.281
 3838POPC   C2B50984   3.117  44.662   6.757
 3838POPC   C3B50985   3.363  44.656   7.144
 3838POPC   C4B50986   3.485  44.861   7.527
 3839POPC   NC350987   1.427  22.426   5.333
 3839POPC   PO450988   1.242  21.776   5.332
 3839POPC   GL150989   1.178  21.985   5.724
 3839POPC   GL250990   1.464  21.842   5.869
 3839POPC   C1A50991   1.098  22.201   6.155
 3839POPC   D2A50992   0.815  22.268   6.519
 3839POPC   C3A50993   0.984  22.313   6.933
 3839POPC   C4A50994   1.103  22.091   7.302
 3839POPC   C1B50995   1.596  22.105   6.210
 3839POPC   C2B50996   1.395  22.158   6.617
 3839POPC   C3B50997   1.506  22.263   7.025
 3839POPC   C4B50998   1.538  22.370   7.484
 3840POPC   NC350999   3.962  16.872   5.361
 3840POPC   PO451000   3.360  16.705   5.185
 3840POPC   GL151001   3.509  16.742   5.602
 3840POPC   GL251002   3.253  16.853   5.802
 3840POPC   C1A51003   3.643  16.572   6.024
 3840POPC   D2A51004   3.794  16.438   6.445
 3840POPC   C3A51005   3.619  16.699   6.775
 3840POPC   C4A51006   3.657  16.914   7.172
 3840POPC   C1B51007   3.174  16.734   6.201
 3840POPC   C2B51008   3.197  16.969   6.560
 3840POPC   C3B51009   3.198  16.917   6.965
 3840POPC   C4B51010   3.231  16.503   7.100
 3841POPC   NC351011  38.169   8.861   5.399
 3841POPC   PO451012  38.826   8.905   5.273
 3841POPC   GL151013  38.629   9.089   5.673
 3841POPC   GL251014  38.336   9.276   5.738
 3841POPC   C1A51015  38.598   9.121   6.140
 3841POPC   D2A51016  38.258   8.991   6.420
 3841POPC   C3A51017  38.268   9.070   6.893
 3841POPC   C4A51018  38.466   9.010   7.327
 3841POPC   C1B51019  38.067   9.400   6.102
 3841POPC   C2B51020  38.132   9.473   6.547
 3841POPC   C3B51021  37.975   9.528   6.948
 3841POPC   C4B51022  38.045   9.293   7.298
 3842POPC   NC351023   6.973  37.772   5.079
 3842POPC   PO451024   6.525  37.370   5.355
 3842POPC   GL151025   6.610  37.587   5.815
 3842POPC   GL251026   6.926  37.778   5.755
 3842POPC   C1A51027   6.590  37.685   6.315
 3842POPC   D2A51028   6.579  37.606   6.780
 3842POPC   C3A51029   6.519  37.844   7.184
 3842POPC   C4A51030   6.424  38.066   7.613
 3842POPC   C1B51031   7.057  37.534   6.148
 3842POPC   C2B51032   7.040  37.475   6.613
 3842POPC   C3B51033   6.992  37.580   7.103
 3842POPC   C4B51034   6.933  37.357   7.522
 3843POPC   NC351035  22.142  29.468   5.236
 3843POPC   PO451036  22.400  28.944   5.443
 3843POPC   GL151037  22.083  29.161   5.713
 3843POPC   GL251038  22.163  29.497   5.761
 3843POPC   C1A51039  21.849  29.227   6.128
 3843POPC   D2A51040  21.782  29.015   6.528
 3843POPC   C3A51041  21.838  29.248   6.923
 3843POPC   C4A51042  21.789  28.954   7.266
 3843POPC   C1B51043  22.329  29.363   6.137
 3843POPC   C2B51044  22.219  29.307   6.539
 3843POPC   C3B51045  22.425  29.322   6.908
 3843POPC   C4B51046  22.222  29.281   7.312
 3844POPC   NC351047  20.631  24.816   5.161
 3844POPC   PO451048  20.374  24.371   5.631
 3844POPC   GL151049  20.497  24.605   5.971
 3844POPC   GL251050  20.770  24.796   5.838
 3844POPC   C1A51051  20.467  24.706   6.390
 3844POPC   D2A51052  20.365  24.804   6.790
 3844POPC   C3A51053  20.601  24.533   7.028
 3844POPC   C4A51054  20.820  24.134   7.037
 3844POPC   C1B51055  20.949  24.619   6.221
 3844POPC   C2B51056  20.905  24.420   6.613
 3844POPC   C3B51057  21.095  24.567   7.022
 3844POPC   C4B51058  21.014  24.420   7.465
 3845POPC   NC351059   0.624  15.845   5.203
 3845POPC   PO451060  44.918  15.907   5.216
 3845POPC   GL151061   0.234  15.890   5.592
 3845POPC   GL251062   0.539  16.095   5.674
 3845POPC   C1A51063   0.269  15.809   6.052
 3845POPC   D2A51064   0.133  15.772   6.496
 3845POPC   C3A51065   0.290  15.651   6.911
 3845POPC   C4A51066   0.675  15.706   7.128
 3845POPC   C1B51067   0.204  16.317   5.953
 3845POPC   C2B51068   0.167  16.294   6.412
 3845POPC   C3B51069   0.426  16.135   6.760
 3845POPC   C4B51070   0.342  16.086   7.200
 3846POPC   NC351071  44.302  30.056   5.368
 3846POPC   PO451072  44.790  29.587   5.540
 3846POPC   GL151073  44.663  29.918   5.716
 3846POPC   GL251074  44.981  30.003   5.838
 3846POPC   C1A51075  44.473  30.021   6.094
 3846POPC   D2A51076  44.422  30.076   6.525
 3846POPC   C3A51077  44.654  29.790   6.798
 3846POPC   C4A51078  44.436  29.625   7.131
 3846POPC   C1B51079  44.957  30.162   6.290
 3846POPC   C2B51080  44.842  30.275   6.752
 3846POPC   C3B51081  44.873  30.095   7.190
 3846POPC   C4B51082  44.907  30.288   7.626
 3847POPC   NC351083  14.484   9.559   5.423
 3847POPC   PO451084  14.761  10.207   5.387
 3847POPC   GL151085  14.658   9.961   5.775
 3847POPC   GL251086  14.823   9.633   5.811
 3847POPC   C1A51087  14.519   9.782   6.210
 3847POPC   D2A51088  14.280   9.559   6.569
 3847POPC   C3A51089  14.173   9.740   6.964
 3847POPC   C4A51090  14.179  10.138   7.145
 3847POPC   C1B51091  14.951   9.394   6.175
 3847POPC   C2B51092  14.766   9.372   6.592
 3847POPC   C3B51093  14.661   9.551   6.986
 3847POPC   C4B51094  14.546   9.312   7.306
 3848POPC   NC351095  25.467  35.526   5.266
 3848POPC   PO451096  25.119  34.918   5.389
 3848POPC   GL151097  25.129  35.174   5.792
 3848POPC   GL251098  25.307  35.495   5.744
 3848POPC   C1A51099  25.234  35.359   6.234
 3848POPC   D2A51100  25.435  35.394   6.653
 3848POPC   C3A51101  25.113  35.322   6.973
 3848POPC   C4A51102  25.104  35.250   7.399
 3848POPC   C1B51103  25.387  35.821   6.039
 3848POPC   C2B51104  25.320  35.924   6.467
 3848POPC   C3B51105  25.185  35.810   6.874
 3848POPC   C4B51106  25.105  35.736   7.330
 3849POPC   NC351107  12.654  16.762   5.334
 3849POPC   PO451108  13.153  16.325   5.410
 3849POPC   GL151109  12.887  16.556   5.737
 3849POPC   GL251110  13.021  16.871   5.844
 3849POPC   C1A51111  12.669  16.696   6.179
 3849POPC   D2A51112  12.925  16.786   6.607
 3849POPC   C3A51113  12.794  16.960   7.057
 3849POPC   C4A51114  12.859  16.974   7.562
 3849POPC   C1B51115  13.134  16.526   6.172
 3849POPC   C2B51116  13.217  16.358   6.564
 3849POPC   C3B51117  13.297  16.549   6.930
 3849POPC   C4B51118  13.055  16.604   7.289
 3850POPC   NC351119  20.707  44.585   5.268
 3850POPC   PO451120  19.993  44.631   5.313
 3850POPC   GL151121  20.389  44.629   5.652
 3850POPC   GL251122  20.717  44.796   5.735
 3850POPC   C1A51123  20.400  44.607   6.116
 3850POPC   D2A51124  20.147  44.489   6.489
 3850POPC   C3A51125  20.333  44.601   6.909
 3850POPC   C4A51126  20.180  44.903   7.222
 3850POPC   C1B51127  20.927  44.555   6.021
 3850POPC   C2B51128  20.851  44.533   6.420
 3850POPC   C3B51129  20.860  44.641   6.842
 3850POPC   C4B51130  20.736  44.796   7.226
 3851POPC   NC351131  38.621  26.677   5.336
 3851POPC   PO451132  38.134  27.114   5.510
 3851POPC   GL151133  38.278  26.773   5.796
 3851POPC   GL251134  38.627  26.708   5.875
 3851POPC   C1A51135  38.270  26.627   6.239
 3851POPC   D2A51136  38.381  26.703   6.687
 3851POPC   C3A51137  38.204  27.001   6.986
 3851POPC   C4A51138  38.223  26.860   7.398
 3851POPC   C1B51139  38.707  26.928   6.294
 3851POPC   C2B51140  38.647  27.135   6.736
 3851POPC   C3B51141  38.726  26.823   7.080
 3851POPC   C4B51142  38.735  26.770   7.545
 3852POPC   NC351143  23.441  17.763   5.315
 3852POPC   PO451144  23.598  18.388   5.408
 3852POPC   GL151145  23.650  18.384   5.824
 3852POPC   GL251146  23.729  18.041   5.803
 3852POPC   C1A51147  23.560  18.510   6.245
 3852POPC   D2A51148  23.638  18.268   6.599
 3852POPC   C3A51149  23.534  18.382   7.007
 3852POPC   C4A51150  23.946  18.317   7.151
 3852POPC   C1B51151  23.408  17.909   6.070
 3852POPC   C2B51152  23.417  17.817   6.506
 3852POPC   C3B51153  23.398  17.891   6.944
 3852POPC   C4B51154  23.602  18.007   7.342
 3853POPC   NC351155  40.099  12.463   5.411
 3853POPC   PO451156  39.571  11.962   5.473
 3853POPC   GL151157  39.785  12.133   5.825
 3853POPC   GL251158  40.121  12.177   5.822
 3853POPC   C1A51159  39.818  12.318   6.255
 3853POPC   D2A51160  39.869  12.105   6.670
 3853POPC   C3A51161  39.841  12.314   7.083
 3853POPC   C4A51162  39.714  12.147   7.488
 3853POPC   C1B51163  40.327  12.377   6.163
 3853POPC   C2B51164  40.358  12.240   6.591
 3853POPC   C3B51165  40.280  12.067   7.014
 3853POPC   C4B51166  40.231  12.205   7.441
 3854POPC   NC351167  31.891  43.347   5.374
 3854POPC   PO451168  32.412  42.908   5.471
 3854POPC   GL151169  32.076  43.030   5.723
 3854POPC   GL251170  31.884  42.756   5.822
 3854POPC   C1A51171  32.010  43.267   6.099
 3854POPC   D2A51172  31.968  43.151   6.524
 3854POPC   C3A51173  32.034  43.389   6.924
 3854POPC   C4A51174  32.150  43.219   7.308
 3854POPC   C1B51175  32.192  42.763   6.146
 3854POPC   C2B51176  32.438  42.950   6.460
 3854POPC   C3B51177  32.350  42.971   6.888
 3854POPC   C4B51178  32.509  42.802   7.260
 3855POPC   NC351179  33.692  29.822   5.412
 3855POPC   PO451180  34.111  30.244   5.566
 3855POPC   GL151181  33.810  30.030   5.861
 3855POPC   GL251182  33.418  30.034   5.793
 3855POPC   C1A51183  33.639  29.889   6.233
 3855POPC   D2A51184  33.625  29.667   6.590
 3855POPC   C3A51185  33.658  29.861   6.942
 3855POPC   C4A51186  33.944  29.795   7.241
 3855POPC   C1B51187  33.171  30.137   6.161
 3855POPC   C2B51188  33.217  29.996   6.588
 3855POPC   C3B51189  33.288  30.210   6.993
 3855POPC   C4B51190  33.531  30.125   7.405
 3856POPC   NC351191   2.369   4.855   5.574
 3856POPC   PO451192   2.891   5.234   5.368
 3856POPC   GL151193   2.870   5.177   5.793
 3856POPC   GL251194   3.000   4.832   5.786
 3856POPC   C1A51195   2.726   5.113   6.225
 3856POPC   D2A51196   2.876   5.010   6.645
 3856POPC   C3A51197   2.572   5.135   6.953
 3856POPC   C4A51198   2.619   5.398   7.323
 3856POPC   C1B51199   3.189   4.895   6.196
 3856POPC   C2B51200   3.364   4.746   6.591
 3856POPC   C3B51201   3.198   4.758   7.000
 3856POPC   C4B51202   2.961   5.022   7.252
 3857POPC   NC351203  20.050  32.162   5.427
 3857POPC   PO451204  19.434  32.187   5.220
 3857POPC   GL151205  19.616  32.270   5.693
 3857POPC   GL251206  19.951  32.160   5.926
 3857POPC   C1A51207  19.504  32.191   6.141
 3857POPC   D2A51208  19.781  32.196   6.504
 3857POPC   C3A51209  19.722  32.111   6.929
 3857POPC   C4A51210  19.580  32.233   7.333
 3857POPC   C1B51211  20.238  32.291   6.307
 3857POPC   C2B51212  20.277  32.304   6.779
 3857POPC   C3B51213  20.115  32.306   7.203
 3857POPC   C4B51214  20.101  32.340   7.642
 3858POPC   NC351215  33.330  30.754   5.416
 3858POPC   PO451216  33.979  30.940   5.282
 3858POPC   GL151217  33.700  30.814   5.751
 3858POPC   GL251218  33.646  30.483   5.697
 3858POPC   C1A51219  33.818  30.870   6.175
 3858POPC   D2A51220  33.983  30.723   6.562
 3858POPC   C3A51221  33.813  30.902   6.938
 3858POPC   C4A51222  34.057  30.730   7.260
 3858POPC   C1B51223  33.586  30.419   6.142
 3858POPC   C2B51224  33.658  30.272   6.577
 3858POPC   C3B51225  33.801  30.357   6.989
 3858POPC   C4B51226  33.551  30.602   7.250
 3859POPC   NC351227  37.641  35.889   5.422
 3859POPC   PO451228  37.435  36.494   5.371
 3859POPC   GL151229  37.486  36.267   5.779
 3859POPC   GL251230  37.593  35.882   5.911
 3859POPC   C1A51231  37.652  36.395   6.159
 3859POPC   D2A51232  37.513  36.309   6.535
 3859POPC   C3A51233  37.675  36.446   6.906
 3859POPC   C4A51234  37.709  36.364   7.325
 3859POPC   C1B51235  37.842  35.940   6.278
 3859POPC   C2B51236  37.970  36.092   6.657
 3859POPC   C3B51237  37.855  35.949   7.047
 3859POPC   C4B51238  38.029  35.981   7.461
 3860POPC   NC351239   4.003  13.746   5.416
 3860POPC   PO451240   4.292  13.277   5.427
 3860POPC   GL151241   4.438  13.337   5.855
 3860POPC   GL251242   4.355  13.681   5.816
 3860POPC   C1A51243   4.421  13.489   6.304
 3860POPC   D2A51244   4.231  13.411   6.687
 3860POPC   C3A51245   4.461  13.579   7.006
 3860POPC   C4A51246   4.205  13.360   7.269
 3860POPC   C1B51247   3.989  13.532   6.070
 3860POPC   C2B51248   3.944  13.772   6.469
 3860POPC   C3B51249   3.998  13.832   6.945
 3860POPC   C4B51250   4.230  13.870   7.385
 3861POPC   NC351251   5.183  39.700   5.329
 3861POPC   PO451252   4.749  40.094   5.350
 3861POPC   GL151253   4.879  39.845   5.723
 3861POPC   GL251254   4.937  40.149   5.879
 3861POPC   C1A51255   5.236  39.722   6.049
 3861POPC   D2A51256   5.162  39.599   6.512
 3861POPC   C3A51257   5.293  39.752   6.933
 3861POPC   C4A51258   5.082  39.836   7.296
 3861POPC   C1B51259   4.999  40.075   6.322
 3861POPC   C2B51260   5.366  40.125   6.597
 3861POPC   C3B51261   5.325  40.266   7.048
 3861POPC   C4B51262   4.894  40.329   7.201
 3862POPC   NC351263   1.539  24.942   5.621
 3862POPC   PO451264   1.082  25.422   5.402
 3862POPC   GL151265   1.107  25.139   5.775
 3862POPC   GL251266   1.110  25.447   5.920
 3862POPC   C1A51267   1.286  25.086   6.232
 3862POPC   D2A51268   1.320  25.181   6.676
 3862POPC   C3A51269   1.073  24.942   6.974
 3862POPC   C4A51270   0.851  25.104   7.328
 3862POPC   C1B51271   1.230  25.769   6.152
 3862POPC   C2B51272   1.258  25.918   6.535
 3862POPC   C3B51273   1.246  25.670   6.893
 3862POPC   C4B51274   1.207  25.476   7.292
 3863POPC   NC351275   5.107  31.770   5.404
 3863POPC   PO451276   5.422  31.223   5.641
 3863POPC   GL151277   5.234  31.563   5.890
 3863POPC   GL251278   4.881  31.718   5.855
 3863POPC   C1A51279   5.037  31.430   6.262
 3863POPC   D2A51280   5.227  31.536   6.625
 3863POPC   C3A51281   5.132  31.352   7.004
 3863POPC   C4A51282   4.752  31.314   7.160
 3863POPC   C1B51283   4.956  31.929   6.240
 3863POPC   C2B51284   5.159  32.070   6.587
 3863POPC   C3B51285   5.162  31.881   6.967
 3863POPC   C4B51286   4.812  31.823   7.188
 3864POPC   NC351287  35.764   9.700   5.408
 3864POPC   PO451288  36.358   9.548   5.049
 3864POPC   GL151289  36.327   9.714   5.502
 3864POPC   GL251290  36.454   9.458   5.740
 3864POPC   C1A51291  36.244   9.889   5.956
 3864POPC   D2A51292  36.285   9.815   6.439
 3864POPC   C3A51293  36.075   9.993   6.827
 3864POPC   C4A51294  36.134   9.883   7.265
 3864POPC   C1B51295  36.269   9.382   6.130
 3864POPC   C2B51296  36.227   9.301   6.549
 3864POPC   C3B51297  36.204   9.506   6.916
 3864POPC   C4B51298  36.167   9.371   7.322
 3865POPC   NC351299   7.763  10.448   5.418
 3865POPC   PO451300   7.443  10.881   5.141
 3865POPC   GL151301   7.307  10.661   5.585
 3865POPC   GL251302   7.322  10.290   5.700
 3865POPC   C1A51303   7.489  10.589   6.057
 3865POPC   D2A51304   7.536  10.254   6.398
 3865POPC   C3A51305   7.560  10.422   6.823
 3865POPC   C4A51306   7.717  10.266   7.208
 3865POPC   C1B51307   7.065  10.318   6.108
 3865POPC   C2B51308   7.087  10.498   6.533
 3865POPC   C3B51309   7.045  10.469   7.003
 3865POPC   C4B51310   7.007  10.347   7.459
 3866POPC   NC351311   3.326   3.436   5.207
 3866POPC   PO451312   3.932   3.750   5.376
 3866POPC   GL151313   3.758   3.574   5.772
 3866POPC   GL251314   3.407   3.447   5.716
 3866POPC   C1A51315   3.750   3.692   6.224
 3866POPC   D2A51316   3.835   3.796   6.653
 3866POPC   C3A51317   3.628   3.615   7.035
 3866POPC   C4A51318   3.612   3.570   7.522
 3866POPC   C1B51319   3.292   3.468   6.151
 3866POPC   C2B51320   3.331   3.667   6.553
 3866POPC   C3B51321   3.106   3.603   6.933
 3866POPC   C4B51322   3.253   3.336   7.236
 3867POPC   NC351323  33.367  15.128   5.169
 3867POPC   PO451324  32.913  14.740   5.313
 3867POPC   GL151325  32.918  14.971   5.729
 3867POPC   GL251326  33.216  15.126   5.684
 3867POPC   C1A51327  32.793  15.035   6.187
 3867POPC   D2A51328  32.787  14.948   6.647
 3867POPC   C3A51329  32.799  15.299   6.941
 3867POPC   C4A51330  32.835  15.230   7.409
 3867POPC   C1B51331  33.272  15.325   6.103
 3867POPC   C2B51332  33.163  15.265   6.521
 3867POPC   C3B51333  33.239  15.073   6.921
 3867POPC   C4B51334  33.230  15.465   7.198
 3868POPC   NC351335  29.110   0.023   5.335
 3868POPC   PO451336  29.227   0.669   5.319
 3868POPC   GL151337  29.162   0.599   5.800
 3868POPC   GL251338  28.981   0.319   5.785
 3868POPC   C1A51339  29.001   0.593   6.279
 3868POPC   D2A51340  28.873   0.498   6.730
 3868POPC   C3A51341  29.127   0.645   7.096
 3868POPC   C4A51342  29.088   0.745   7.551
 3868POPC   C1B51343  29.043   0.112   6.162
 3868POPC   C2B51344  29.102   0.030   6.585
 3868POPC   C3B51345  29.195   0.147   6.999
 3868POPC   C4B51346  29.059  44.957   7.372
 3869POPC   NC351347  39.700   0.971   5.425
 3869POPC   PO451348  40.190   1.378   5.174
 3869POPC   GL151349  40.212   1.184   5.682
 3869POPC   GL251350  39.918   0.981   5.871
 3869POPC   C1A51351  40.096   1.361   6.148
 3869POPC   D2A51352  40.260   1.401   6.576
 3869POPC   C3A51353  40.023   1.301   6.956
 3869POPC   C4A51354  39.750   1.407   7.291
 3869POPC   C1B51355  39.644   1.146   6.222
 3869POPC   C2B51356  39.627   1.367   6.611
 3869POPC   C3B51357  39.524   1.104   6.949
 3869POPC   C4B51358  39.752   0.918   7.271
 3870POPC   NC351359  24.601  38.112   5.335
 3870POPC   PO451360  24.223  38.638   5.567
 3870POPC   GL151361  24.637  38.500   5.714
 3870POPC   GL251362  24.793  38.802   5.747
 3870POPC   C1A51363  24.685  38.324   6.151
 3870POPC   D2A51364  24.444  38.315   6.562
 3870POPC   C3A51365  24.581  38.159   6.974
 3870POPC   C4A51366  24.247  38.307   7.210
 3870POPC   C1B51367  24.568  38.826   6.126
 3870POPC   C2B51368  24.605  38.812   6.549
 3870POPC   C3B51369  24.483  38.695   6.944
 3870POPC   C4B51370  24.772  38.779   7.240
 3871POPC   NC351371  20.815  29.283   5.073
 3871POPC   PO451372  20.524  28.772   5.383
 3871POPC   GL151373  20.548  29.122   5.735
 3871POPC   GL251374  20.254  29.369   5.781
 3871POPC   C1A51375  20.759  29.092   6.167
 3871POPC   D2A51376  20.963  29.311   6.504
 3871POPC   C3A51377  20.896  29.074   6.867
 3871POPC   C4A51378  20.880  29.285   7.227
 3871POPC   C1B51379  20.259  29.198   6.221
 3871POPC   C2B51380  20.406  29.126   6.664
 3871POPC   C3B51381  20.436  29.028   7.123
 3871POPC   C4B51382  20.283  28.793   7.491
 3872POPC   NC351383   2.024  10.854   5.454
 3872POPC   PO451384   1.775  10.182   5.399
 3872POPC   GL151385   1.954  10.308   5.804
 3872POPC   GL251386   1.906  10.672   5.915
 3872POPC   C1A51387   2.074  10.302   6.236
 3872POPC   D2A51388   2.029  10.561   6.585
 3872POPC   C3A51389   1.943  10.389   6.986
 3872POPC   C4A51390   1.605  10.432   7.245
 3872POPC   C1B51391   2.256  10.806   6.173
 3872POPC   C2B51392   2.437  10.895   6.609
 3872POPC   C3B51393   2.201  10.835   7.005
 3872POPC   C4B51394   2.015  10.738   7.425
 3873POPC   NC351395   1.370  17.528   5.432
 3873POPC   PO451396   2.018  17.272   5.414
 3873POPC   GL151397   1.954  17.426   5.832
 3873POPC   GL251398   2.225  17.681   5.899
 3873POPC   C1A51399   1.892  17.351   6.276
 3873POPC   D2A51400   2.044  17.554   6.628
 3873POPC   C3A51401   1.987  17.343   7.030
 3873POPC   C4A51402   1.629  17.443   7.275
 3873POPC   C1B51403   2.391  17.330   6.124
 3873POPC   C2B51404   2.340  17.150   6.540
 3873POPC   C3B51405   2.492  17.432   6.879
 3873POPC   C4B51406   2.403  17.511   7.315
 3874POPC   NC351407  23.155  18.403   5.609
 3874POPC   PO451408  22.710  17.961   5.464
 3874POPC   GL151409  22.803  18.148   5.871
 3874POPC   GL251410  22.729  18.549   5.848
 3874POPC   C1A51411  22.946  18.039   6.292
 3874POPC   D2A51412  22.923  17.852   6.701
 3874POPC   C3A51413  22.935  18.082   7.109
 3874POPC   C4A51414  23.206  18.288   7.433
 3874POPC   C1B51415  22.998  18.552   6.232
 3874POPC   C2B51416  23.130  18.384   6.660
 3874POPC   C3B51417  23.003  18.590   7.055
 3874POPC   C4B51418  22.591  18.637   7.228
 3875POPC   NC351419  11.714  14.377   5.395
 3875POPC   PO451420  11.057  14.387   5.436
 3875POPC   GL151421  11.093  14.359   5.862
 3875POPC   GL251422  11.443  14.321   5.820
 3875POPC   C1A51423  10.959  14.283   6.292
 3875POPC   D2A51424  10.923  14.119   6.698
 3875POPC   C3A51425  11.043  14.367   7.081
 3875POPC   C4A51426  11.146  14.651   7.450
 3875POPC   C1B51427  11.475  14.320   6.234
 3875POPC   C2B51428  11.343  14.411   6.621
 3875POPC   C3B51429  11.568  14.275   6.954
 3875POPC   C4B51430  11.614  14.409   7.324
 3876POPC   NC351431   4.132   0.346   5.560
 3876POPC   PO451432   4.642   0.705   5.445
 3876POPC   GL151433   4.537   0.506   5.849
 3876POPC   GL251434   4.576   0.161   5.924
 3876POPC   C1A51435   4.379   0.485   6.294
 3876POPC   D2A51436   4.613   0.538   6.687
 3876POPC   C3A51437   4.424   0.737   7.026
 3876POPC   C4A51438   4.051   0.573   7.188
 3876POPC   C1B51439   4.137   0.038   6.108
 3876POPC   C2B51440   3.959   0.161   6.471
 3876POPC   C3B51441   4.188   0.254   6.833
 3876POPC   C4B51442   4.209   0.044   7.245
 3877POPC   NC351443  14.183   4.375   5.390
 3877POPC   PO451444  14.825   4.254   5.362
 3877POPC   GL151445  14.574   4.427   5.739
 3877POPC   GL251446  14.331   4.714   5.777
 3877POPC   C1A51447  14.383   4.294   6.150
 3877POPC   D2A51448  14.349   4.463   6.600
 3877POPC   C3A51449  14.414   4.184   7.002
 3877POPC   C4A51450  14.169   3.972   7.354
 3877POPC   C1B51451  14.557   4.765   6.183
 3877POPC   C2B51452  14.820   4.816   6.556
 3877POPC   C3B51453  14.643   4.758   6.954
 3877POPC   C4B51454  14.520   4.560   7.324
 3878POPC   NC351455  27.416  44.981   5.463
 3878POPC   PO451456  27.379  44.215   5.456
 3878POPC   GL151457  27.450  44.556   5.773
 3878POPC   GL251458  27.680  44.375   5.903
 3878POPC   C1A51459  27.712  44.803   6.144
 3878POPC   D2A51460  27.710  44.648   6.585
 3878POPC   C3A51461  27.708  44.856   6.999
 3878POPC   C4A51462  27.653  44.710   7.403
 3878POPC   C1B51463  27.469  44.292   6.272
 3878POPC   C2B51464  27.298  44.379   6.676
 3878POPC   C3B51465  27.478  44.309   7.087
 3878POPC   C4B51466  27.247  44.130   7.447
 3879POPC   NC351467  39.526  36.342   5.169
 3879POPC   PO451468  40.185  36.272   5.535
 3879POPC   GL151469  39.951  36.013   5.781
 3879POPC   GL251470  39.613  35.860   5.703
 3879POPC   C1A51471  40.093  36.075   6.185
 3879POPC   D2A51472  40.246  36.178   6.582
 3879POPC   C3A51473  40.013  36.287   6.933
 3879POPC   C4A51474  40.193  36.076   7.306
 3879POPC   C1B51475  39.573  35.995   6.143
 3879POPC   C2B51476  39.550  36.221   6.546
 3879POPC   C3B51477  39.539  36.102   6.985
 3879POPC   C4B51478  39.717  36.262   7.381
 3880POPC   NC351479  19.008   8.452   5.173
 3880POPC   PO451480  19.449   8.090   5.627
 3880POPC   GL151481  19.121   8.245   5.875
 3880POPC   GL251482  18.851   8.392   5.668
 3880POPC   C1A51483  19.165   8.268   6.277
 3880POPC   D2A51484  19.083   8.126   6.667
 3880POPC   C3A51485  19.295   8.192   7.048
 3880POPC   C4A51486  19.302   8.372   7.479
 3880POPC   C1B51487  18.688   8.405   6.093
 3880POPC   C2B51488  18.613   8.531   6.525
 3880POPC   C3B51489  18.781   8.419   6.933
 3880POPC   C4B51490  18.593   8.414   7.328
 3881POPC   NC351491  21.602  30.077   5.283
 3881POPC   PO451492  21.009  29.660   5.291
 3881POPC   GL151493  21.164  29.801   5.700
 3881POPC   GL251494  21.433  30.019   5.746
 3881POPC   C1A51495  21.054  29.990   6.092
 3881POPC   D2A51496  21.194  29.893   6.500
 3881POPC   C3A51497  21.197  30.200   6.826
 3881POPC   C4A51498  21.049  30.054   7.227
 3881POPC   C1B51499  21.573  30.149   6.137
 3881POPC   C2B51500  21.693  30.067   6.522
 3881POPC   C3B51501  21.749  30.028   6.923
 3881POPC   C4B51502  21.708  29.860   7.304
 3882POPC   NC351503  39.856   1.749   5.313
 3882POPC   PO451504  39.629   2.362   5.430
 3882POPC   GL151505  39.892   2.052   5.749
 3882POPC   GL251506  40.152   1.731   5.743
 3882POPC   C1A51507  40.017   1.941   6.199
 3882POPC   D2A51508  39.960   1.818   6.637
 3882POPC   C3A51509  40.157   2.138   6.871
 3882POPC   C4A51510  40.179   2.343   7.258
 3882POPC   C1B51511  40.465   1.708   6.124
 3882POPC   C2B51512  40.489   1.859   6.569
 3882POPC   C3B51513  40.420   1.697   6.999
 3882POPC   C4B51514  40.294   1.886   7.397
 3883POPC   NC351515   3.009  15.128   5.302
 3883POPC   PO451516   2.438  15.451   5.448
 3883POPC   GL151517   2.681  15.497   5.872
 3883POPC   GL251518   3.063  15.462   5.842
 3883POPC   C1A51519   2.663  15.369   6.338
 3883POPC   D2A51520   2.366  15.233   6.696
 3883POPC   C3A51521   2.501  15.019   7.085
 3883POPC   C4A51522   2.704  15.300   7.391
 3883POPC   C1B51523   3.028  15.078   6.106
 3883POPC   C2B51524   2.986  15.000   6.535
 3883POPC   C3B51525   2.932  15.212   6.913
 3883POPC   C4B51526   2.996  14.904   7.243
 3884POPC   NC351527   6.099  11.446   5.343
 3884POPC   PO451528   5.943  10.858   5.702
 3884POPC   GL151529   6.017  11.288   5.839
 3884POPC   GL251530   5.930  11.645   5.784
 3884POPC   C1A51531   5.936  11.368   6.246
 3884POPC   D2A51532   5.740  11.199   6.593
 3884POPC   C3A51533   5.970  11.332   6.891
 3884POPC   C4A51534   5.859  11.434   7.269
 3884POPC   C1B51535   5.677  11.785   6.129
 3884POPC   C2B51536   5.812  11.754   6.572
 3884POPC   C3B51537   5.575  11.682   6.936
 3884POPC   C4B51538   5.387  11.599   7.363
 3885POPC   NC351539  30.958  33.667   5.402
 3885POPC   PO451540  30.522  34.105   5.342
 3885POPC   GL151541  30.521  33.933   5.749
 3885POPC   GL251542  30.623  33.570   5.786
 3885POPC   C1A51543  30.419  33.836   6.180
 3885POPC   D2A51544  30.515  33.603   6.533
 3885POPC   C3A51545  30.377  33.853   6.835
 3885POPC   C4A51546  30.550  33.987   7.184
 3885POPC   C1B51547  30.916  33.689   6.183
 3885POPC   C2B51548  30.985  33.846   6.664
 3885POPC   C3B51549  31.028  33.690   7.114
 3885POPC   C4B51550  30.789  33.506   7.452
 3886POPC   NC351551  23.619  28.760   5.444
 3886POPC   PO451552  23.957  28.097   5.442
 3886POPC   GL151553  23.711  28.179   5.824
 3886POPC   GL251554  23.481  28.477   5.888
 3886POPC   C1A51555  23.774  28.097   6.253
 3886POPC   D2A51556  24.028  28.286   6.549
 3886POPC   C3A51557  23.930  28.226   6.955
 3886POPC   C4A51558  23.955  28.459   7.294
 3886POPC   C1B51559  23.749  28.633   6.249
 3886POPC   C2B51560  23.727  28.705   6.718
 3886POPC   C3B51561  23.508  28.616   7.110
 3886POPC   C4B51562  23.423  28.834   7.521
 3887POPC   NC351563  13.754  24.982   5.418
 3887POPC   PO451564  13.831  25.684   5.309
 3887POPC   GL151565  13.656  25.382   5.696
 3887POPC   GL251566  13.849  25.120   5.884
 3887POPC   C1A51567  13.436  25.340   6.133
 3887POPC   D2A51568  13.277  25.220   6.597
 3887POPC   C3A51569  13.440  25.373   7.011
 3887POPC   C4A51570  13.657  25.243   7.360
 3887POPC   C1B51571  13.939  25.322   6.246
 3887POPC   C2B51572  13.772  25.363   6.623
 3887POPC   C3B51573  13.874  25.079   6.949
 3887POPC   C4B51574  14.192  25.059   7.276
 3888POPC   NC351575  32.885  32.491   5.295
 3888POPC   PO451576  33.291  31.935   5.404
 3888POPC   GL151577  33.222  32.142   5.813
 3888POPC   GL251578  33.158  32.493   5.807
 3888POPC   C1A51579  33.027  32.068   6.232
 3888POPC   D2A51580  32.874  31.772   6.575
 3888POPC   C3A51581  32.821  31.972   6.984
 3888POPC   C4A51582  33.160  32.207   7.208
 3888POPC   C1B51583  33.323  32.476   6.261
 3888POPC   C2B51584  33.170  32.480   6.728
 3888POPC   C3B51585  33.143  32.711   7.134
 3888POPC   C4B51586  33.066  32.557   7.579
 3889POPC   NC351587  10.001   5.024   5.480
 3889POPC   PO451588   9.410   5.304   5.654
 3889POPC   GL151589   9.816   5.304   5.908
 3889POPC   GL251590   9.792   4.955   5.927
 3889POPC   C1A51591   9.964   5.156   6.349
 3889POPC   D2A51592   9.752   5.227   6.726
 3889POPC   C3A51593  10.059   5.306   7.007
 3889POPC   C4A51594  10.131   5.029   7.291
 3889POPC   C1B51595   9.491   4.975   6.265
 3889POPC   C2B51596   9.557   4.774   6.645
 3889POPC   C3B51597   9.697   4.755   7.086
 3889POPC   C4B51598   9.599   5.142   7.220
 3890POPC   NC351599  40.818  12.477   5.445
 3890POPC   PO451600  40.258  12.913   5.499
 3890POPC   GL151601  40.592  13.066   5.759
 3890POPC   GL251602  40.968  13.079   5.667
 3890POPC   C1A51603  40.727  12.975   6.152
 3890POPC   D2A51604  40.913  12.852   6.498
 3890POPC   C3A51605  40.737  12.910   6.908
 3890POPC   C4A51606  40.850  12.767   7.288
 3890POPC   C1B51607  41.224  13.030   6.049
 3890POPC   C2B51608  41.318  13.149   6.454
 3890POPC   C3B51609  41.049  13.284   6.742
 3890POPC   C4B51610  41.076  13.230   7.137
 3891POPC   NC351611   8.590  20.825   5.375
 3891POPC   PO451612   7.981  20.656   5.218
 3891POPC   GL151613   8.104  20.764   5.633
 3891POPC   GL251614   8.407  20.597   5.792
 3891POPC   C1A51615   8.018  20.800   6.095
 3891POPC   D2A51616   8.199  20.591   6.467
 3891POPC   C3A51617   8.004  20.771   6.851
 3891POPC   C4A51618   7.928  20.781   7.270
 3891POPC   C1B51619   8.130  20.303   6.032
 3891POPC   C2B51620   7.841  20.208   6.363
 3891POPC   C3B51621   7.938  20.270   6.775
 3891POPC   C4B51622   8.150  20.339   7.174
 3892POPC   NC351623  21.980  28.663   5.523
 3892POPC   PO451624  22.382  28.076   5.458
 3892POPC   GL151625  22.276  28.316   5.799
 3892POPC   GL251626  22.455  28.619   5.810
 3892POPC   C1A51627  22.335  28.358   6.237
 3892POPC   D2A51628  22.109  28.277   6.593
 3892POPC   C3A51629  22.287  28.368   6.955
 3892POPC   C4A51630  21.968  28.500   7.212
 3892POPC   C1B51631  22.216  28.848   6.132
 3892POPC   C2B51632  22.278  28.788   6.558
 3892POPC   C3B51633  22.186  28.876   6.954
 3892POPC   C4B51634  22.406  28.725   7.320
 3893POPC   NC351635  42.426  30.168   5.276
 3893POPC   PO451636  42.417  29.559   5.527
 3893POPC   GL151637  42.346  29.754   5.910
 3893POPC   GL251638  42.285  30.090   5.806
 3893POPC   C1A51639  42.521  29.691   6.329
 3893POPC   D2A51640  42.200  29.774   6.633
 3893POPC   C3A51641  42.288  29.633   7.039
 3893POPC   C4A51642  42.550  29.702   7.383
 3893POPC   C1B51643  42.293  30.161   6.271
 3893POPC   C2B51644  42.270  30.263   6.745
 3893POPC   C3B51645  42.303  30.123   7.205
 3893POPC   C4B51646  42.179  30.174   7.704
 3894POPC   NC351647  35.612  31.578   5.227
 3894POPC   PO451648  35.157  31.238   5.532
 3894POPC   GL151649  35.402  31.498   5.804
 3894POPC   GL251650  35.699  31.336   5.914
 3894POPC   C1A51651  35.343  31.615   6.252
 3894POPC   D2A51652  35.502  31.585   6.685
 3894POPC   C3A51653  35.165  31.489   6.995
 3894POPC   C4A51654  35.020  31.112   7.193
 3894POPC   C1B51655  35.617  31.163   6.348
 3894POPC   C2B51656  35.376  31.083   6.751
 3894POPC   C3B51657  35.596  31.278   7.110
 3894POPC   C4B51658  35.660  31.146   7.549
 3895POPC   NC351659  24.149   2.164   5.450
 3895POPC   PO451660  24.455   2.822   5.272
 3895POPC   GL151661  24.444   2.822   5.718
 3895POPC   GL251662  24.324   2.487   5.832
 3895POPC   C1A51663  24.548   2.919   6.149
 3895POPC   D2A51664  24.326   2.900   6.549
 3895POPC   C3A51665  24.501   2.901   6.931
 3895POPC   C4A51666  24.696   3.133   7.273
 3895POPC   C1B51667  24.063   2.637   6.189
 3895POPC   C2B51668  23.872   2.666   6.598
 3895POPC   C3B51669  24.004   2.845   6.981
 3895POPC   C4B51670  24.255   2.826   7.372
 3896POPC   NC351671  20.752  40.366   5.572
 3896POPC   PO451672  20.795  39.738   5.313
 3896POPC   GL151673  20.657  39.767   5.777
 3896POPC   GL251674  20.440  40.046   5.872
 3896POPC   C1A51675  20.554  39.744   6.258
 3896POPC   D2A51676  20.335  40.059   6.557
 3896POPC   C3A51677  20.350  39.953   6.998
 3896POPC   C4A51678  20.724  39.814   7.189
 3896POPC   C1B51679  20.638  40.268   6.189
 3896POPC   C2B51680  20.936  40.100   6.444
 3896POPC   C3B51681  20.853  40.208   6.839
 3896POPC   C4B51682  20.653  40.329   7.195
 3897POPC   NC351683   4.255   3.426   5.511
 3897POPC   PO451684   4.746   3.886   5.435
 3897POPC   GL151685   4.519   3.732   5.825
 3897POPC   GL251686   4.734   3.484   5.983
 3897POPC   C1A51687   4.241   3.500   6.167
 3897POPC   D2A51688   4.384   3.366   6.583
 3897POPC   C3A51689   4.107   3.439   6.906
 3897POPC   C4A51690   3.952   3.293   7.272
 3897POPC   C1B51691   4.611   3.809   6.320
 3897POPC   C2B51692   4.366   3.876   6.685
 3897POPC   C3B51693   4.383   3.797   7.108
 3897POPC   C4B51694   4.403   3.466   7.408
 3898POPC   NC351695  27.847  25.165   5.468
 3898POPC   PO451696  27.338  25.636   5.437
 3898POPC   GL151697  27.597  25.490   5.799
 3898POPC   GL251698  27.567  25.126   5.893
 3898POPC   C1A51699  27.618  25.496   6.255
 3898POPC   D2A51700  27.595  25.173   6.590
 3898POPC   C3A51701  27.579  25.351   7.006
 3898POPC   C4A51702  28.010  25.441   7.144
 3898POPC   C1B51703  27.946  25.058   6.158
 3898POPC   C2B51704  28.091  25.029   6.622
 3898POPC   C3B51705  27.849  24.922   7.027
 3898POPC   C4B51706  27.446  24.897   7.312
 3899POPC   NC351707  43.537  20.410   5.113
 3899POPC   PO451708  43.325  20.874   5.567
 3899POPC   GL151709  43.032  20.638   5.818
 3899POPC   GL251710  42.801  20.878   5.847
 3899POPC   C1A51711  43.077  20.479   6.243
 3899POPC   D2A51712  43.439  20.557   6.525
 3899POPC   C3A51713  43.350  20.406   6.939
 3899POPC   C4A51714  42.938  20.399   7.134
 3899POPC   C1B51715  42.951  20.987   6.235
 3899POPC   C2B51716  42.761  20.874   6.608
 3899POPC   C3B51717  42.864  20.890   7.029
 3899POPC   C4B51718  42.978  21.033   7.412
 3900POPC   NC351719  20.306  17.222   5.335
 3900POPC   PO451720  19.657  17.357   5.360
 3900POPC   GL151721  19.908  17.319   5.747
 3900POPC   GL251722  19.940  17.678   5.819
 3900POPC   C1A51723  19.768  17.273   6.197
 3900POPC   D2A51724  19.639  17.403   6.638
 3900POPC   C3A51725  19.867  17.253   7.013
 3900POPC   C4A51726  19.855  17.431   7.439
 3900POPC   C1B51727  20.048  17.904   6.209
 3900POPC   C2B51728  19.869  17.847   6.601
 3900POPC   C3B51729  19.789  17.755   7.026
 3900POPC   C4B51730  19.902  17.991   7.377
 3901POPC   NC351731  22.392  15.625   5.251
 3901POPC   PO451732  21.833  16.056   5.398
 3901POPC   GL151733  22.082  15.903   5.766
 3901POPC   GL251734  22.437  15.913   5.866
 3901POPC   C1A51735  22.033  15.736   6.171
 3901POPC   D2A51736  22.143  15.703   6.587
 3901POPC   C3A51737  21.990  16.015   6.833
 3901POPC   C4A51738  21.969  15.897   7.244
 3901POPC   C1B51739  22.530  15.887   6.292
 3901POPC   C2B51740  22.517  16.083   6.690
 3901POPC   C3B51741  22.433  15.932   7.072
 3901POPC   C4B51742  22.472  15.921   7.527
 3902POPC   NC351743  39.679   7.764   5.325
 3902POPC   PO451744  39.063   7.522   5.385
 3902POPC   GL151745  39.144   7.275   5.718
 3902POPC   GL251746  39.466   7.352   5.761
 3902POPC   C1A51747  38.983   7.191   6.130
 3902POPC   D2A51748  39.077   7.006   6.518
 3902POPC   C3A51749  38.994   7.169   6.900
 3902POPC   C4A51750  39.293   7.147   7.208
 3902POPC   C1B51751  39.370   7.522   6.187
 3902POPC   C2B51752  39.134   7.572   6.581
 3902POPC   C3B51753  39.276   7.650   7.024
 3902POPC   C4B51754  39.523   7.665   7.424
 3903POPC   NC351755  29.618  35.346   5.506
 3903POPC   PO451756  30.129  35.690   5.263
 3903POPC   GL151757  30.112  35.459   5.725
 3903POPC   GL251758  30.010  35.124   5.770
 3903POPC   C1A51759  30.319  35.440   6.140
 3903POPC   D2A51760  30.283  35.679   6.533
 3903POPC   C3A51761  30.008  35.541   6.851
 3903POPC   C4A51762  29.920  35.624   7.265
 3903POPC   C1B51763  30.154  34.947   6.190
 3903POPC   C2B51764  29.965  34.927   6.633
 3903POPC   C3B51765  29.706  35.105   6.986
 3903POPC   C4B51766  29.659  35.221   7.424
 3904POPC   NC351767  23.202  43.836   5.546
 3904POPC   PO451768  23.862  43.906   5.343
 3904POPC   GL151769  23.796  43.908   5.787
 3904POPC   GL251770  23.543  43.671   5.907
 3904POPC   C1A51771  23.925  44.045   6.200
 3904POPC   D2A51772  23.948  43.881   6.609
 3904POPC   C3A51773  23.872  44.139   6.939
 3904POPC   C4A51774  23.838  43.890   7.331
 3904POPC   C1B51775  23.400  44.060   6.152
 3904POPC   C2B51776  23.471  44.127   6.600
 3904POPC   C3B51777  23.510  43.783   6.924
 3904POPC   C4B51778  23.350  43.736   7.347
 3905POPC   NC351779  27.905  27.023   5.400
 3905POPC   PO451780  27.894  26.353   5.467
 3905POPC   GL151781  27.929  26.671   5.792
 3905POPC   GL251782  27.614  26.816   5.751
 3905POPC   C1A51783  27.810  26.924   6.211
 3905POPC   D2A51784  27.636  27.125   6.611
 3905POPC   C3A51785  27.841  27.047   6.990
 3905POPC   C4A51786  27.874  26.628   7.161
 3905POPC   C1B51787  27.368  26.699   6.098
 3905POPC   C2B51788  27.307  26.735   6.530
 3905POPC   C3B51789  27.401  26.657   6.956
 3905POPC   C4B51790  27.257  26.957   7.208
 3906POPC   NC351791  11.979  23.576   5.300
 3906POPC   PO451792  11.909  24.198   5.562
 3906POPC   GL151793  12.122  24.046   5.935
 3906POPC   GL251794  12.074  23.690   5.957
 3906POPC   C1A51795  12.232  23.916   6.401
 3906POPC   D2A51796  11.996  23.794   6.793
 3906POPC   C3A51797  12.108  23.949   7.212
 3906POPC   C4A51798  11.946  23.976   7.647
 3906POPC   C1B51799  12.032  23.446   6.380
 3906POPC   C2B51800  12.228  23.332   6.796
 3906POPC   C3B51801  12.292  23.350   7.246
 3906POPC   C4B51802  12.083  23.135   7.611
 3907POPC   NC351803  12.713  32.918   5.447
 3907POPC   PO451804  13.237  33.107   5.421
 3907POPC   GL151805  13.204  32.956   5.862
 3907POPC   GL251806  12.959  32.686   5.841
 3907POPC   C1A51807  13.265  32.946   6.355
 3907POPC   D2A51808  13.129  32.848   6.820
 3907POPC   C3A51809  12.846  33.114   7.100
 3907POPC   C4A51810  12.915  33.232   7.528
 3907POPC   C1B51811  12.757  32.855   6.226
 3907POPC   C2B51812  12.624  32.812   6.688
 3907POPC   C3B51813  12.727  32.627   7.116
 3907POPC   C4B51814  12.759  32.665   7.573
 3908POPC   NC351815  43.711  39.423   5.504
 3908POPC   PO451816  43.063  39.127   5.442
 3908POPC   GL151817  43.038  39.352   5.849
 3908POPC   GL251818  42.731  39.315   6.001
 3908POPC   C1A51819  43.213  39.465   6.298
 3908POPC   D2A51820  43.189  39.604   6.751
 3908POPC   C3A51821  43.202  39.290   7.100
 3908POPC   C4A51822  43.329  39.330   7.546
 3908POPC   C1B51823  42.965  39.028   6.266
 3908POPC   C2B51824  43.033  39.076   6.668
 3908POPC   C3B51825  42.848  38.917   7.015
 3908POPC   C4B51826  43.008  38.896   7.399
 3909POPC   NC351827  15.920   8.626   5.488
 3909POPC   PO451828  15.809   9.243   5.287
 3909POPC   GL151829  15.882   9.177   5.794
 3909POPC   GL251830  16.044   8.842   5.923
 3909POPC   C1A51831  15.811   9.087   6.291
 3909POPC   D2A51832  15.942   8.865   6.677
 3909POPC   C3A51833  15.918   9.150   7.033
 3909POPC   C4A51834  15.527   9.229   7.260
 3909POPC   C1B51835  16.326   8.883   6.287
 3909POPC   C2B51836  16.444   9.010   6.698
 3909POPC   C3B51837  16.302   8.771   7.068
 3909POPC   C4B51838  16.254   8.905   7.495
 3910POPC   NC351839  26.939  44.345   5.571
 3910POPC   PO451840  26.912  44.999   5.464
 3910POPC   GL151841  26.964  44.770   5.887
 3910POPC   GL251842  27.019  44.405   6.059
 3910POPC   C1A51843  26.719  44.756   6.283
 3910POPC   D2A51844  26.832  44.727   6.724
 3910POPC   C3A51845  26.593  44.861   7.089
 3910POPC   C4A51846  26.672  44.640   7.488
 3910POPC   C1B51847  27.234  44.749   6.314
 3910POPC   C2B51848  27.296  44.923   6.717
 3910POPC   C3B51849  27.183  44.737   7.132
 3910POPC   C4B51850  27.172  44.609   7.590
 3911POPC   NC351851  21.089  37.730   5.543
 3911POPC   PO451852  21.758  37.659   5.641
 3911POPC   GL151853  21.415  37.576   5.905
 3911POPC   GL251854  21.085  37.411   5.956
 3911POPC   C1A51855  21.321  37.656   6.318
 3911POPC   D2A51856  21.427  37.970   6.574
 3911POPC   C3A51857  21.390  37.782   6.980
 3911POPC   C4A51858  21.558  38.006   7.277
 3911POPC   C1B51859  21.051  37.202   6.348
 3911POPC   C2B51860  21.108  37.415   6.736
 3911POPC   C3B51861  21.021  37.479   7.157
 3911POPC   C4B51862  21.170  37.241   7.479
 3912POPC   NC351863  23.025   4.379   5.363
 3912POPC   PO451864  22.598   3.984   5.617
 3912POPC   GL151865  22.898   4.245   5.837
 3912POPC   GL251866  22.845   4.608   5.805
 3912POPC   C1A51867  23.207   4.310   6.177
 3912POPC   D2A51868  23.239   4.579   6.558
 3912POPC   C3A51869  23.043   4.409   6.918
 3912POPC   C4A51870  23.273   4.362   7.286
 3912POPC   C1B51871  22.820   4.642   6.264
 3912POPC   C2B51872  22.630   4.374   6.575
 3912POPC   C3B51873  22.503   4.246   6.986
 3912POPC   C4B51874  22.774   4.192   7.312
 3913POPC   NC351875  35.159  35.577   5.079
 3913POPC   PO451876  35.185  34.963   5.459
 3913POPC   GL151877  35.365  35.149   5.803
 3913POPC   GL251878  35.193  35.466   5.759
 3913POPC   C1A51879  35.546  35.154   6.225
 3913POPC   D2A51880  35.479  35.385   6.613
 3913POPC   C3A51881  35.403  35.178   7.004
 3913POPC   C4A51882  35.552  35.149   7.421
 3913POPC   C1B51883  35.032  35.337   6.175
 3913POPC   C2B51884  34.914  35.398   6.599
 3913POPC   C3B51885  35.110  35.613   6.926
 3913POPC   C4B51886  35.390  35.641   7.246
 3914POPC   NC351887  38.187  40.923   5.407
 3914POPC   PO451888  38.843  40.767   5.328
 3914POPC   GL151889  38.663  40.581   5.722
 3914POPC   GL251890  38.296  40.591   5.762
 3914POPC   C1A51891  38.614  40.691   6.163
 3914POPC   D2A51892  38.502  40.911   6.532
 3914POPC   C3A51893  38.542  40.688   6.915
 3914POPC   C4A51894  38.533  40.901   7.266
 3914POPC   C1B51895  38.098  40.600   6.161
 3914POPC   C2B51896  38.284  40.428   6.529
 3914POPC   C3B51897  38.136  40.341   6.917
 3914POPC   C4B51898  38.119  40.614   7.254
 3915POPC   NC351899  16.875  26.206   5.363
 3915POPC   PO451900  16.314  26.508   5.706
 3915POPC   GL151901  16.651  26.196   5.838
 3915POPC   GL251902  16.963  25.946   5.791
 3915POPC   C1A51903  16.754  26.174   6.264
 3915POPC   D2A51904  16.660  25.923   6.611
 3915POPC   C3A51905  16.530  26.051   7.056
 3915POPC   C4A51906  16.539  26.053   7.522
 3915POPC   C1B51907  17.136  25.845   6.202
 3915POPC   C2B51908  17.218  25.793   6.621
 3915POPC   C3B51909  16.997  25.859   6.999
 3915POPC   C4B51910  16.813  25.652   7.351
 3916POPC   NC351911  37.109  21.753   5.323
 3916POPC   PO451912  36.950  21.038   5.409
 3916POPC   GL151913  36.779  21.432   5.589
 3916POPC   GL251914  37.081  21.417   5.757
 3916POPC   C1A51915  36.746  21.702   5.991
 3916POPC   D2A51916  36.787  21.645   6.448
 3916POPC   C3A51917  36.592  21.602   6.854
 3916POPC   C4A51918  36.812  21.474   7.219
 3916POPC   C1B51919  36.975  21.258   6.193
 3916POPC   C2B51920  37.064  21.259   6.678
 3916POPC   C3B51921  37.039  21.031   7.084
 3916POPC   C4B51922  37.113  21.133   7.532
 3917POPC   NC351923  44.220  13.866   5.341
 3917POPC   PO451924  43.572  13.764   5.383
 3917POPC   GL151925  43.839  13.774   5.753
 3917POPC   GL251926  44.079  14.033   5.804
 3917POPC   C1A51927  43.789  13.847   6.214
 3917POPC   D2A51928  43.638  13.671   6.610
 3917POPC   C3A51929  43.800  13.761   7.033
 3917POPC   C4A51930  43.531  13.444   7.222
 3917POPC   C1B51931  44.300  13.802   6.151
 3917POPC   C2B51932  44.197  13.879   6.613
 3917POPC   C3B51933  44.325  13.686   7.019
 3917POPC   C4B51934  44.179  13.872   7.388
 3918POPC   NC351935  18.293  14.787   5.060
 3918POPC   PO451936  18.058  14.375   5.532
 3918POPC   GL151937  18.285  14.362   5.889
 3918POPC   GL251938  18.358  14.713   5.834
 3918POPC   C1A51939  18.420  14.137   6.271
 3918POPC   D2A51940  18.288  13.975   6.663
 3918POPC   C3A51941  18.356  14.127   7.052
 3918POPC   C4A51942  18.277  14.481   7.228
 3918POPC   C1B51943  18.577  14.622   6.220
 3918POPC   C2B51944  18.414  14.493   6.649
 3918POPC   C3B51945  18.674  14.630   6.957
 3918POPC   C4B51946  18.742  14.945   7.247
 3919POPC   NC351947  12.890  29.568   5.424
 3919POPC   PO451948  12.542  30.166   5.335
 3919POPC   GL151949  12.727  30.022   5.753
 3919POPC   GL251950  13.073  29.921   5.785
 3919POPC   C1A51951  12.770  29.924   6.228
 3919POPC   D2A51952  12.855  30.052   6.673
 3919POPC   C3A51953  12.688  29.916   7.094
 3919POPC   C4A51954  12.682  29.835   7.534
 3919POPC   C1B51955  13.173  29.620   6.111
 3919POPC   C2B51956  13.034  29.577   6.539
 3919POPC   C3B51957  13.130  29.668   6.939
 3919POPC   C4B51958  13.125  29.675   7.377
 3920POPC   NC351959  30.599  21.157   5.365
 3920POPC   PO451960  30.865  21.736   5.558
 3920POPC   GL151961  30.673  21.418   5.810
 3920POPC   GL251962  30.933  21.188   5.755
 3920POPC   C1A51963  30.605  21.243   6.252
 3920POPC   D2A51964  30.449  21.425   6.656
 3920POPC   C3A51965  30.510  21.393   7.103
 3920POPC   C4A51966  30.759  21.417   7.462
 3920POPC   C1B51967  31.020  20.932   6.091
 3920POPC   C2B51968  31.044  21.088   6.490
 3920POPC   C3B51969  30.918  21.193   6.867
 3920POPC   C4B51970  31.021  21.044   7.264
 3921POPC   NC351971  40.630  39.908   5.399
 3921POPC   PO451972  41.096  40.343   5.315
 3921POPC   GL151973  40.810  40.347   5.725
 3921POPC   GL251974  40.750  40.028   5.872
 3921POPC   C1A51975  40.544  40.427   6.142
 3921POPC   D2A51976  40.555  40.116   6.489
 3921POPC   C3A51977  40.701  40.019   6.952
 3921POPC   C4A51978  40.942  40.080   7.381
 3921POPC   C1B51979  40.933  39.767   6.166
 3921POPC   C2B51980  40.779  39.644   6.548
 3921POPC   C3B51981  40.967  39.541   6.907
 3921POPC   C4B51982  41.100  39.602   7.301
 3922POPC   NC351983  33.190  29.556   5.274
 3922POPC   PO451984  33.123  30.240   5.410
 3922POPC   GL151985  32.878  30.003   5.747
 3922POPC   GL251986  33.033  29.687   5.757
 3922POPC   C1A51987  32.764  29.848   6.194
 3922POPC   D2A51988  32.739  30.159   6.542
 3922POPC   C3A51989  32.785  29.965   6.939
 3922POPC   C4A51990  32.971  30.023   7.340
 3922POPC   C1B51991  33.218  29.612   6.160
 3922POPC   C2B51992  33.187  29.439   6.539
 3922POPC   C3B51993  33.161  29.619   6.933
 3922POPC   C4B51994  33.345  29.663   7.305
 3923POPC   NC351995  27.760  37.712   5.164
 3923POPC   PO451996  28.048  37.502   5.692
 3923POPC   GL151997  27.799  37.773   5.893
 3923POPC   GL251998  27.492  37.734   5.768
 3923POPC   C1A51999  27.700  37.761   6.299
 3923POPC   D2A52000  27.786  37.508   6.623
 3923POPC   C3A52001  27.731  37.771   6.926
 3923POPC   C4A52002  27.744  37.677   7.331
 3923POPC   C1B52003  27.299  37.468   6.099
 3923POPC   C2B52004  27.280  37.363   6.557
 3923POPC   C3B52005  27.440  37.339   6.993
 3923POPC   C4B52006  27.280  37.462   7.400
 3924POPC   NC352007   4.854   2.613   5.419
 3924POPC   PO452008   4.279   2.964   5.491
 3924POPC   GL152009   4.616   2.992   5.775
 3924POPC   GL252010   4.641   2.654   5.883
 3924POPC   C1A52011   4.506   3.031   6.206
 3924POPC   D2A52012   4.100   2.943   6.405
 3924POPC   C3A52013   4.078   2.938   6.849
 3924POPC   C4A52014   4.375   2.997   7.180
 3924POPC   C1B52015   4.237   2.570   6.044
 3924POPC   C2B52016   4.090   2.403   6.422
 3924POPC   C3B52017   3.941   2.452   6.837
 3924POPC   C4B52018   4.126   2.544   7.226
 3925POPC   NC352019  40.978  39.095   5.471
 3925POPC   PO452020  40.488  39.505   5.226
 3925POPC   GL152021  40.638  39.461   5.659
 3925POPC   GL252022  40.885  39.335   5.896
 3925POPC   C1A52023  40.467  39.560   6.060
 3925POPC   D2A52024  40.291  39.352   6.414
 3925POPC   C3A52025  40.523  39.266   6.809
 3925POPC   C4A52026  40.689  39.285   7.261
 3925POPC   C1B52027  40.763  39.203   6.307
 3925POPC   C2B52028  41.012  39.085   6.677
 3925POPC   C3B52029  41.146  38.882   7.061
 3925POPC   C4B52030  40.966  38.905   7.473
 3926POPC   NC352031  30.422  16.118   5.327
 3926POPC   PO452032  30.957  15.807   5.317
 3926POPC   GL152033  30.656  15.780   5.650
 3926POPC   GL252034  30.736  16.115   5.761
 3926POPC   C1A52035  30.516  15.823   6.099
 3926POPC   D2A52036  30.638  15.932   6.516
 3926POPC   C3A52037  30.532  15.689   6.870
 3926POPC   C4A52038  30.413  15.805   7.297
 3926POPC   C1B52039  30.727  16.346   6.169
 3926POPC   C2B52040  30.783  16.401   6.631
 3926POPC   C3B52041  30.636  16.181   7.004
 3926POPC   C4B52042  30.523  16.281   7.440
 3927POPC   NC352043  20.477  35.215   5.374
 3927POPC   PO452044  20.954  35.724   5.255
 3927POPC   GL152045  20.694  35.592   5.679
 3927POPC   GL252046  20.618  35.213   5.858
 3927POPC   C1A52047  20.806  35.586   6.142
 3927POPC   D2A52048  20.743  35.290   6.504
 3927POPC   C3A52049  20.594  35.454   6.923
 3927POPC   C4A52050  20.756  35.516   7.367
 3927POPC   C1B52051  20.433  34.910   6.174
 3927POPC   C2B52052  20.212  35.003   6.567
 3927POPC   C3B52053  20.177  35.153   7.008
 3927POPC   C4B52054  20.208  35.130   7.494
 3928POPC   NC352055   0.246  41.358   5.192
 3928POPC   PO452056   0.979  41.305   5.269
 3928POPC   GL152057   0.803  41.481   5.681
 3928POPC   GL252058   0.436  41.381   5.678
 3928POPC   C1A52059   0.571  41.695   6.061
 3928POPC   D2A52060   0.340  41.693   6.466
 3928POPC   C3A52061   0.579  41.806   6.856
 3928POPC   C4A52062   0.609  41.526   7.255
 3928POPC   C1B52063   0.291  41.247   6.102
 3928POPC   C2B52064   0.132  41.203   6.539
 3928POPC   C3B52065   0.094  41.416   6.954
 3928POPC   C4B52066   0.147  41.328   7.423
 3929POPC   NC352067  19.625   6.473   5.050
 3929POPC   PO452068  20.147   6.691   5.519
 3929POPC   GL152069  19.862   6.508   5.826
 3929POPC   GL252070  19.496   6.594   5.854
 3929POPC   C1A52071  19.857   6.578   6.247
 3929POPC   D2A52072  20.153   6.730   6.524
 3929POPC   C3A52073  19.990   6.504   6.851
 3929POPC   C4A52074  19.634   6.574   7.052
 3929POPC   C1B52075  19.453   6.902   6.203
 3929POPC   C2B52076  19.676   6.927   6.609
 3929POPC   C3B52077  19.872   7.038   6.955
 3929POPC   C4B52078  19.673   7.095   7.347
 3930POPC   NC352079  17.793   2.188   5.270
 3930POPC   PO452080  17.248   1.804   5.456
 3930POPC   GL152081  17.378   2.028   5.810
 3930POPC   GL252082  17.723   2.121   5.783
 3930POPC   C1A52083  17.513   1.857   6.216
 3930POPC   D2A52084  17.704   1.800   6.618
 3930POPC   C3A52085  17.417   1.958   6.956
 3930POPC   C4A52086  17.400   1.791   7.350
 3930POPC   C1B52087  17.663   2.368   6.169
 3930POPC   C2B52088  17.627   2.307   6.619
 3930POPC   C3B52089  17.876   2.188   6.983
 3930POPC   C4B52090  17.834   2.067   7.410
 3931POPC   NC352091  26.396  16.728   5.551
 3931POPC   PO452092  25.991  16.242   5.242
 3931POPC   GL152093  25.946  16.500   5.635
 3931POPC   GL252094  26.236  16.326   5.817
 3931POPC   C1A52095  25.832  16.815   5.988
 3931POPC   D2A52096  25.702  16.788   6.451
 3931POPC   C3A52097  25.887  16.920   6.864
 3931POPC   C4A52098  25.888  16.742   7.289
 3931POPC   C1B52099  26.188  16.539   6.227
 3931POPC   C2B52100  26.313  16.591   6.640
 3931POPC   C3B52101  26.340  16.711   7.052
 3931POPC   C4B52102  26.370  16.702   7.480
 3932POPC   NC352103   0.240  20.949   5.604
 3932POPC   PO452104   0.288  20.462   5.083
 3932POPC   GL152105   0.321  20.435   5.579
 3932POPC   GL252106   0.593  20.624   5.769
 3932POPC   C1A52107   0.211  20.473   6.068
 3932POPC   D2A52108   0.273  20.659   6.500
 3932POPC   C3A52109   0.466  20.444   6.821
 3932POPC   C4A52110   0.440  20.258   7.190
 3932POPC   C1B52111   0.699  20.739   6.198
 3932POPC   C2B52112   0.753  20.877   6.634
 3932POPC   C3B52113   0.713  20.790   7.093
 3932POPC   C4B52114   1.005  20.637   7.380
 3933POPC   NC352115  11.819  32.503   5.279
 3933POPC   PO452116  12.303  32.753   5.368
 3933POPC   GL152117  12.331  32.854   5.829
 3933POPC   GL252118  12.097  33.149   5.864
 3933POPC   C1A52119  12.253  32.956   6.307
 3933POPC   D2A52120  12.049  33.047   6.725
 3933POPC   C3A52121  12.310  32.954   7.080
 3933POPC   C4A52122  12.280  32.627   7.377
 3933POPC   C1B52123  11.903  33.354   6.257
 3933POPC   C2B52124  11.619  33.344   6.638
 3933POPC   C3B52125  11.521  33.002   6.946
 3933POPC   C4B52126  11.819  32.818   7.232
 3934POPC   NC352127  34.466  30.356   5.293
 3934POPC   PO452128  34.883  29.787   5.125
 3934POPC   GL152129  34.812  29.995   5.564
 3934POPC   GL252130  34.580  29.765   5.751
 3934POPC   C1A52131  34.824  30.085   6.056
 3934POPC   D2A52132  34.584  30.033   6.444
 3934POPC   C3A52133  34.757  29.847   6.785
 3934POPC   C4A52134  34.929  29.785   7.161
 3934POPC   C1B52135  34.253  29.791   6.109
 3934POPC   C2B52136  34.074  29.946   6.523
 3934POPC   C3B52137  34.251  30.086   6.913
 3934POPC   C4B52138  34.436  29.907   7.271
 3935POPC   NC352139  39.447   7.029   5.326
 3935POPC   PO452140  38.954   6.528   5.413
 3935POPC   GL152141  39.075   6.760   5.750
 3935POPC   GL252142  39.433   6.699   5.720
 3935POPC   C1A52143  38.996   6.643   6.183
 3935POPC   D2A52144  39.023   6.491   6.612
 3935POPC   C3A52145  39.246   6.693   6.923
 3935POPC   C4A52146  39.386   6.341   7.194
 3935POPC   C1B52147  39.431   6.921   6.104
 3935POPC   C2B52148  39.531   6.702   6.483
 3935POPC   C3B52149  39.727   6.540   6.859
 3935POPC   C4B52150  39.667   6.779   7.207
 3936POPC   NC352151  44.402  29.331   5.522
 3936POPC   PO452152  44.715  28.725   5.378
 3936POPC   GL152153  44.679  28.900   5.743
 3936POPC   GL252154  44.338  28.867   5.742
 3936POPC   C1A52155  44.764  28.959   6.168
 3936POPC   D2A52156  44.547  29.152   6.518
 3936POPC   C3A52157  44.852  29.242   6.822
 3936POPC   C4A52158  44.930  29.496   7.181
 3936POPC   C1B52159  44.276  28.826   6.147
 3936POPC   C2B52160  44.412  28.645   6.525
 3936POPC   C3B52161  44.334  28.853   6.919
 3936POPC   C4B52162  44.547  29.113   7.208
 3937POPC   NC352163  44.842  23.347   5.364
 3937POPC   PO452164  44.389  23.716   5.028
 3937POPC   GL152165  44.482  23.669   5.569
 3937POPC   GL252166  44.447  23.970   5.777
 3937POPC   C1A52167  44.687  23.563   6.006
 3937POPC   D2A52168  44.556  23.566   6.458
 3937POPC   C3A52169  44.797  23.523   6.827
 3937POPC   C4A52170   0.022  23.799   7.143
 3937POPC   C1B52171  44.272  23.895   6.180
 3937POPC   C2B52172  44.336  24.046   6.608
 3937POPC   C3B52173  44.507  24.010   7.027
 3937POPC   C4B52174  44.547  23.629   7.245
 3938POPC   NC352175  18.293   5.751   5.415
 3938POPC   PO452176  18.272   6.433   5.521
 3938POPC   GL152177  18.191   6.111   5.878
 3938POPC   GL252178  18.412   5.822   5.909
 3938POPC   C1A52179  18.270   5.962   6.358
 3938POPC   D2A52180  18.177   5.914   6.811
 3938POPC   C3A52181  18.290   5.643   7.137
 3938POPC   C4A52182  18.016   5.924   7.358
 3938POPC   C1B52183  18.637   6.232   6.051
 3938POPC   C2B52184  18.684   6.387   6.465
 3938POPC   C3B52185  18.651   6.171   6.852
 3938POPC   C4B52186  18.449   6.153   7.241
 3939POPC   NC352187  41.642   2.576   5.391
 3939POPC   PO452188  41.486   3.253   5.274
 3939POPC   GL152189  41.370   3.051   5.697
 3939POPC   GL252190  41.611   2.839   5.833
 3939POPC   C1A52191  41.180   2.953   6.119
 3939POPC   D2A52192  41.015   3.128   6.516
 3939POPC   C3A52193  41.236   3.112   6.929
 3939POPC   C4A52194  41.553   2.884   7.199
 3939POPC   C1B52195  41.593   2.656   6.254
 3939POPC   C2B52196  41.468   2.694   6.678
 3939POPC   C3B52197  41.553   2.430   6.994
 3939POPC   C4B52198  41.770   2.441   7.369
 3940POPC   NC352199  15.393  11.104   5.139
 3940POPC   PO452200  14.984  11.550   5.486
 3940POPC   GL152201  15.148  11.308   5.839
 3940POPC   GL252202  14.937  11.044   5.965
 3940POPC   C1A52203  15.382  11.122   6.198
 3940POPC   D2A52204  15.215  11.000   6.608
 3940POPC   C3A52205  15.223  11.234   6.959
 3940POPC   C4A52206  15.409  11.208   7.368
 3940POPC   C1B52207  14.817  11.209   6.314
 3940POPC   C2B52208  14.705  11.098   6.712
 3940POPC   C3B52209  14.750  11.296   7.103
 3940POPC   C4B52210  14.895  11.146   7.510
 3941POPC   NC352211  41.191  15.022   5.564
 3941POPC   PO452212  41.820  15.035   5.488
 3941POPC   GL152213  41.613  15.220   5.820
 3941POPC   GL252214  41.792  15.524   5.830
 3941POPC   C1A52215  41.506  15.326   6.240
 3941POPC   D2A52216  41.338  15.110   6.595
 3941POPC   C3A52217  41.596  15.056   6.947
 3941POPC   C4A52218  41.639  15.292   7.355
 3941POPC   C1B52219  42.010  15.546   6.228
 3941POPC   C2B52220  41.847  15.581   6.667
 3941POPC   C3B52221  41.993  15.629   7.122
 3941POPC   C4B52222  41.854  15.770   7.545
 3942POPC   NC352223  28.115  37.101   5.472
 3942POPC   PO452224  27.509  37.281   5.196
 3942POPC   GL152225  27.576  37.234   5.700
 3942POPC   GL252226  27.458  36.909   5.852
 3942POPC   C1A52227  27.743  37.227   6.190
 3942POPC   D2A52228  27.798  36.989   6.615
 3942POPC   C3A52229  27.929  37.188   7.028
 3942POPC   C4A52230  27.704  37.181   7.432
 3942POPC   C1B52231  27.347  36.928   6.306
 3942POPC   C2B52232  27.314  36.890   6.765
 3942POPC   C3B52233  27.558  36.806   7.127
 3942POPC   C4B52234  27.581  36.693   7.559
 3943POPC   NC352235  35.769  38.228   5.310
 3943POPC   PO452236  35.179  38.509   5.363
 3943POPC   GL152237  35.111  38.568   5.817
 3943POPC   GL252238  35.257  38.890   5.903
 3943POPC   C1A52239  35.215  38.489   6.273
 3943POPC   D2A52240  35.494  38.578   6.606
 3943POPC   C3A52241  35.568  38.412   6.994
 3943POPC   C4A52242  35.436  38.381   7.406
 3943POPC   C1B52243  35.038  38.971   6.259
 3943POPC   C2B52244  35.105  38.871   6.703
 3943POPC   C3B52245  35.216  38.805   7.120
 3943POPC   C4B52246  34.993  38.616   7.452
 3944POPC   NC352247  30.186  31.125   5.076
 3944POPC   PO452248  30.684  31.495   5.245
 3944POPC   GL152249  30.508  31.577   5.667
 3944POPC   GL252250  30.823  31.441   5.785
 3944POPC   C1A52251  30.496  31.516   6.155
 3944POPC   D2A52252  30.274  31.536   6.552
 3944POPC   C3A52253  30.512  31.497   6.903
 3944POPC   C4A52254  30.652  31.673   7.313
 3944POPC   C1B52255  31.006  31.619   6.157
 3944POPC   C2B52256  30.871  31.780   6.558
 3944POPC   C3B52257  31.012  31.597   6.943
 3944POPC   C4B52258  31.088  31.281   7.207
 3945POPC   NC352259  22.482  26.785   5.455
 3945POPC   PO452260  21.806  26.511   5.426
 3945POPC   GL152261  22.034  26.713   5.809
 3945POPC   GL252262  22.056  27.094   5.873
 3945POPC   C1A52263  22.311  26.507   6.158
 3945POPC   D2A52264  22.496  26.550   6.591
 3945POPC   C3A52265  22.267  26.707   6.959
 3945POPC   C4A52266  22.270  26.683   7.389
 3945POPC   C1B52267  22.389  27.011   6.176
 3945POPC   C2B52268  22.453  27.060   6.620
 3945POPC   C3B52269  22.440  27.216   7.042
 3945POPC   C4B52270  22.511  27.109   7.477
 3946POPC   NC352271  41.216  36.633   5.364
 3946POPC   PO452272  41.795  37.083   5.368
 3946POPC   GL152273  41.736  36.941   5.789
 3946POPC   GL252274  41.382  36.916   5.816
 3946POPC   C1A52275  41.632  37.090   6.235
 3946POPC   D2A52276  41.583  37.286   6.670
 3946POPC   C3A52277  41.725  37.184   7.125
 3946POPC   C4A52278  41.773  37.317   7.579
 3946POPC   C1B52279  41.319  36.675   6.238
 3946POPC   C2B52280  41.257  36.864   6.614
 3946POPC   C3B52281  41.200  37.120   6.970
 3946POPC   C4B52282  41.288  36.919   7.322
 3947POPC   NC352283  32.412  40.377   5.152
 3947POPC   PO452284  32.180  40.927   5.425
 3947POPC   GL152285  32.374  40.692   5.779
 3947POPC   GL252286  32.456  40.335   5.758
 3947POPC   C1A52287  32.314  40.866   6.191
 3947POPC   D2A52288  32.466  41.178   6.479
 3947POPC   C3A52289  32.517  41.063   6.909
 3947POPC   C4A52290  32.236  41.063   7.245
 3947POPC   C1B52291  32.499  40.383   6.223
 3947POPC   C2B52292  32.109  40.487   6.489
 3947POPC   C3B52293  32.016  40.629   6.917
 3947POPC   C4B52294  32.280  40.550   7.249
 3948POPC   NC352295  24.876   6.333   5.552
 3948POPC   PO452296  24.163   6.329   5.434
 3948POPC   GL152297  24.408   6.054   5.719
 3948POPC   GL252298  24.173   5.803   5.860
 3948POPC   C1A52299  24.626   5.763   6.057
 3948POPC   D2A52300  24.606   5.580   6.491
 3948POPC   C3A52301  24.815   5.725   6.885
 3948POPC   C4A52302  24.798   5.805   7.327
 3948POPC   C1B52303  24.082   5.702   6.309
 3948POPC   C2B52304  24.119   5.681   6.769
 3948POPC   C3B52305  24.340   5.862   7.105
 3948POPC   C4B52306  24.388   6.259   7.344
 3949POPC   NC352307  29.678  42.908   5.561
 3949POPC   PO452308  30.098  43.381   5.364
 3949POPC   GL152309  30.072  43.187   5.817
 3949POPC   GL252310  29.771  43.080   6.021
 3949POPC   C1A52311  30.128  43.303   6.284
 3949POPC   D2A52312  29.965  43.181   6.705
 3949POPC   C3A52313  30.112  43.295   7.077
 3949POPC   C4A52314  29.969  43.276   7.483
 3949POPC   C1B52315  29.934  42.821   6.364
 3949POPC   C2B52316  29.712  42.699   6.751
 3949POPC   C3B52317  29.691  42.968   7.132
 3949POPC   C4B52318  29.598  42.943   7.575
 3950POPC   NC352319  37.206  13.676   5.456
 3950POPC   PO452320  36.505  13.385   5.538
 3950POPC   GL152321  36.808  13.515   5.834
 3950POPC   GL252322  36.809  13.844   5.733
 3950POPC   C1A52323  36.912  13.577   6.267
 3950POPC   D2A52324  36.959  13.351   6.626
 3950POPC   C3A52325  36.967  13.446   7.048
 3950POPC   C4A52326  37.288  13.548   7.293
 3950POPC   C1B52327  36.689  14.013   6.130
 3950POPC   C2B52328  36.854  14.071   6.563
 3950POPC   C3B52329  36.886  13.949   7.014
 3950POPC   C4B52330  36.670  14.013   7.409
 3951POPC   NC352331  30.276  44.787   5.237
 3951POPC   PO452332  30.837  44.396   5.449
 3951POPC   GL152333  30.617  44.725   5.603
 3951POPC   GL252334  30.921  44.918   5.560
 3951POPC   C1A52335  30.392  44.765   5.983
 3951POPC   D2A52336  30.475  44.543   6.373
 3951POPC   C3A52337  30.500  44.668   6.807
 3951POPC   C4A52338  30.385  44.530   7.227
 3951POPC   C1B52339  30.898  44.814   6.025
 3951POPC   C2B52340  30.902  44.807   6.480
 3951POPC   C3B52341  31.095  44.779   6.852
 3951POPC   C4B52342  30.851  44.773   7.178
 3952POPC   NC352343  22.569  14.168   5.406
 3952POPC   PO452344  22.087  14.648   5.300
 3952POPC   GL152345  22.172  14.393   5.678
 3952POPC   GL252346  22.230  14.599   5.976
 3952POPC   C1A52347  22.180  14.053   6.015
 3952POPC   D2A52348  22.334  13.921   6.445
 3952POPC   C3A52349  22.193  14.179   6.800
 3952POPC   C4A52350  22.233  14.406   7.179
 3952POPC   C1B52351  21.823  14.743   6.156
 3952POPC   C2B52352  21.696  14.771   6.599
 3952POPC   C3B52353  21.960  14.835   7.011
 3952POPC   C4B52354  22.017  14.752   7.482
 3953POPC   NC352355  17.932  30.741   4.979
 3953POPC   PO452356  17.337  30.799   5.316
 3953POPC   GL152357  17.370  30.798   5.742
 3953POPC   GL252358  17.721  30.842   5.726
 3953POPC   C1A52359  17.208  30.879   6.153
 3953POPC   D2A52360  17.364  30.958   6.555
 3953POPC   C3A52361  17.220  30.806   6.975
 3953POPC   C4A52362  17.310  30.833   7.433
 3953POPC   C1B52363  17.752  30.841   6.161
 3953POPC   C2B52364  17.750  30.608   6.520
 3953POPC   C3B52365  17.736  30.840   6.881
 3953POPC   C4B52366  17.799  30.708   7.251
 3954POPC   NC352367  19.365  11.152   5.128
 3954POPC   PO452368  18.800  11.122   5.542
 3954POPC   GL152369  18.969  11.340   5.839
 3954POPC   GL252370  19.361  11.357   5.889
 3954POPC   C1A52371  19.022  11.177   6.220
 3954POPC   D2A52372  19.228  11.368   6.573
 3954POPC   C3A52373  19.103  11.209   6.964
 3954POPC   C4A52374  18.997  11.377   7.312
 3954POPC   C1B52375  19.530  11.054   6.268
 3954POPC   C2B52376  19.563  11.030   6.762
 3954POPC   C3B52377  19.538  11.119   7.243
 3954POPC   C4B52378  19.296  11.220   7.698
 3955POPC   NC352379  40.170  27.638   5.015
 3955POPC   PO452380  39.852  27.904   5.619
 3955POPC   GL152381  40.018  27.753   6.009
 3955POPC   GL252382  40.103  27.412   5.971
 3955POPC   C1A52383  39.990  27.545   6.450
 3955POPC   D2A52384  40.200  27.420   6.833
 3955POPC   C3A52385  40.047  27.691   7.136
 3955POPC   C4A52386  40.154  27.877   7.507
 3955POPC   C1B52387  39.722  27.213   6.185
 3955POPC   C2B52388  39.632  27.122   6.553
 3955POPC   C3B52389  39.780  27.122   6.898
 3955POPC   C4B52390  39.739  27.300   7.265
 3956POPC   NC352391  36.453  32.943   5.571
 3956POPC   PO452392  35.843  32.683   5.556
 3956POPC   GL152393  36.049  32.860   5.863
 3956POPC   GL252394  36.297  32.624   5.922
 3956POPC   C1A52395  36.019  33.071   6.229
 3956POPC   D2A52396  35.744  32.905   6.524
 3956POPC   C3A52397  35.862  32.854   6.973
 3956POPC   C4A52398  36.204  33.145   7.151
 3956POPC   C1B52399  36.314  32.672   6.342
 3956POPC   C2B52400  36.270  32.899   6.667
 3956POPC   C3B52401  36.588  32.872   6.916
 3956POPC   C4B52402  36.639  32.618   7.259
 3957POPC   NC352403  11.809  18.041   5.232
 3957POPC   PO452404  12.430  18.175   5.544
 3957POPC   GL152405  12.106  18.052   5.823
 3957POPC   GL252406  11.814  18.217   5.731
 3957POPC   C1A52407  11.932  18.109   6.232
 3957POPC   D2A52408  12.022  18.281   6.607
 3957POPC   C3A52409  12.181  18.028   6.867
 3957POPC   C4A52410  11.950  18.101   7.220
 3957POPC   C1B52411  11.915  18.567   6.023
 3957POPC   C2B52412  11.790  18.691   6.431
 3957POPC   C3B52413  11.724  18.651   6.889
 3957POPC   C4B52414  11.978  18.613   7.290
 3958POPC   NC352415  43.581  14.188   5.568
 3958POPC   PO452416  44.138  14.381   5.398
 3958POPC   GL152417  43.905  14.527   5.805
 3958POPC   GL252418  43.564  14.686   5.743
 3958POPC   C1A52419  43.720  14.349   6.220
 3958POPC   D2A52420  43.747  14.157   6.655
 3958POPC   C3A52421  43.978  14.276   7.077
 3958POPC   C4A52422  44.000  14.295   7.565
 3958POPC   C1B52423  43.703  14.846   6.169
 3958POPC   C2B52424  43.716  14.704   6.599
 3958POPC   C3B52425  43.837  14.797   6.997
 3958POPC   C4B52426  43.701  14.650   7.401
 3959POPC   NC352427  12.227  13.522   5.471
 3959POPC   PO452428  11.831  14.005   5.640
 3959POPC   GL152429  11.925  13.626   5.856
 3959POPC   GL252430  11.598  13.517   5.952
 3959POPC   C1A52431  12.037  13.393   6.217
 3959POPC   D2A52432  12.147  13.194   6.573
 3959POPC   C3A52433  12.204  13.440   6.914
 3959POPC   C4A52434  12.297  13.394   7.326
 3959POPC   C1B52435  11.735  13.803   6.279
 3959POPC   C2B52436  11.774  13.569   6.635
 3959POPC   C3B52437  11.751  13.722   7.019
 3959POPC   C4B52438  12.147  13.884   7.172
 3960POPC   NC352439  32.833  19.423   5.454
 3960POPC   PO452440  33.092  20.071   5.441
 3960POPC   GL152441  32.942  19.857   5.812
 3960POPC   GL252442  33.138  19.564   5.877
 3960POPC   C1A52443  32.666  19.828   6.217
 3960POPC   D2A52444  32.547  19.644   6.607
 3960POPC   C3A52445  32.453  19.937   6.891
 3960POPC   C4A52446  32.724  19.811   7.153
 3960POPC   C1B52447  33.185  19.811   6.270
 3960POPC   C2B52448  33.034  19.891   6.706
 3960POPC   C3B52449  33.213  19.705   7.091
 3960POPC   C4B52450  33.400  19.776   7.523
 3961POPC   NC352451  24.204  33.645   5.454
 3961POPC   PO452452  23.523  33.640   5.359
 3961POPC   GL152453  23.522  33.781   5.781
 3961POPC   GL252454  23.879  33.824   5.833
 3961POPC   C1A52455  23.423  33.551   6.179
 3961POPC   D2A52456  23.660  33.588   6.555
 3961POPC   C3A52457  23.566  33.460   6.962
 3961POPC   C4A52458  23.641  33.771   7.261
 3961POPC   C1B52459  23.751  33.993   6.236
 3961POPC   C2B52460  23.912  34.080   6.685
 3961POPC   C3B52461  24.098  34.049   7.133
 3961POPC   C4B52462  23.884  34.092   7.574
 3962POPC   NC352463  19.239   2.663   5.509
 3962POPC   PO452464  18.655   3.067   5.541
 3962POPC   GL152465  18.940   2.954   5.845
 3962POPC   GL252466  18.892   2.593   5.902
 3962POPC   C1A52467  19.189   2.882   6.204
 3962POPC   D2A52468  19.134   2.551   6.514
 3962POPC   C3A52469  19.162   2.728   6.917
 3962POPC   C4A52470  19.047   3.114   7.106
 3962POPC   C1B52471  18.703   2.784   6.281
 3962POPC   C2B52472  18.737   2.944   6.703
 3962POPC   C3B52473  18.685   2.759   7.106
 3962POPC   C4B52474  18.970   2.540   7.365
 3963POPC   NC352475  40.442  29.098   5.395
 3963POPC   PO452476  39.794  28.843   5.281
 3963POPC   GL152477  40.006  28.950   5.656
 3963POPC   GL252478  40.007  29.285   5.593
 3963POPC   C1A52479  40.184  28.786   6.066
 3963POPC   D2A52480  40.211  28.993   6.476
 3963POPC   C3A52481  39.895  29.077   6.777
 3963POPC   C4A52482  39.979  28.952   7.172
 3963POPC   C1B52483  40.176  29.301   6.027
 3963POPC   C2B52484  40.169  29.511   6.428
 3963POPC   C3B52485  40.134  29.535   6.871
 3963POPC   C4B52486  39.843  29.445   7.188
 3964POPC   NC352487   5.204  18.962   5.384
 3964POPC   PO452488   4.549  18.874   5.430
 3964POPC   GL152489   4.830  19.043   5.750
 3964POPC   GL252490   5.061  18.753   5.814
 3964POPC   C1A52491   5.071  19.160   6.140
 3964POPC   D2A52492   5.158  18.945   6.548
 3964POPC   C3A52493   5.113  19.168   6.936
 3964POPC   C4A52494   4.770  19.379   7.154
 3964POPC   C1B52495   4.883  18.647   6.194
 3964POPC   C2B52496   4.692  18.667   6.595
 3964POPC   C3B52497   4.936  18.694   6.971
 3964POPC   C4B52498   4.892  18.906   7.352
 3965POPC   NC352499  18.104   9.855   5.344
 3965POPC   PO452500  18.809   9.861   5.296
 3965POPC   GL152501  18.474   9.922   5.721
 3965POPC   GL252502  18.096   9.873   5.840
 3965POPC   C1A52503  18.401   9.952   6.226
 3965POPC   D2A52504  18.576   9.956   6.670
 3965POPC   C3A52505  18.447   9.923   7.114
 3965POPC   C4A52506  18.355   9.580   7.389
 3965POPC   C1B52507  18.266   9.490   6.047
 3965POPC   C2B52508  18.458   9.476   6.455
 3965POPC   C3B52509  18.286   9.513   6.871
 3965POPC   C4B52510  17.932   9.763   7.081
 3966POPC   NC352511  41.364  24.737   5.535
 3966POPC   PO452512  41.730  24.289   5.173
 3966POPC   GL152513  41.710  24.322   5.643
 3966POPC   GL252514  41.740  24.632   5.861
 3966POPC   C1A52515  41.627  24.166   6.077
 3966POPC   D2A52516  41.806  24.319   6.503
 3966POPC   C3A52517  41.668  24.166   6.923
 3966POPC   C4A52518  41.455  24.336   7.329
 3966POPC   C1B52519  41.444  24.623   6.237
 3966POPC   C2B52520  41.395  24.558   6.699
 3966POPC   C3B52521  41.665  24.711   7.048
 3966POPC   C4B52522  41.389  24.841   7.379
 3967POPC   NC352523   2.426  15.936   5.395
 3967POPC   PO452524   3.065  16.230   5.477
 3967POPC   GL152525   2.884  15.976   5.835
 3967POPC   GL252526   2.525  16.111   5.875
 3967POPC   C1A52527   3.036  15.781   6.268
 3967POPC   D2A52528   3.195  15.875   6.701
 3967POPC   C3A52529   3.079  15.682   7.076
 3967POPC   C4A52530   2.966  15.831   7.488
 3967POPC   C1B52531   2.535  15.868   6.281
 3967POPC   C2B52532   2.649  15.701   6.731
 3967POPC   C3B52533   2.569  15.749   7.183
 3967POPC   C4B52534   2.489  15.670   7.652
 3968POPC   NC352535   6.815  35.235   5.448
 3968POPC   PO452536   6.189  35.019   5.561
 3968POPC   GL152537   6.469  35.347   5.825
 3968POPC   GL252538   6.781  35.561   5.865
 3968POPC   C1A52539   6.387  35.587   6.194
 3968POPC   D2A52540   6.179  35.467   6.562
 3968POPC   C3A52541   6.349  35.604   6.962
 3968POPC   C4A52542   6.486  35.247   7.234
 3968POPC   C1B52543   6.904  35.525   6.288
 3968POPC   C2B52544   6.726  35.448   6.673
 3968POPC   C3B52545   6.852  35.564   7.093
 3968POPC   C4B52546   6.852  35.461   7.540
 3969POPC   NC352547  23.147   0.770   5.594
 3969POPC   PO452548  22.722   1.388   5.519
 3969POPC   GL152549  22.847   1.147   5.838
 3969POPC   GL252550  22.528   1.009   5.879
 3969POPC   C1A52551  22.981   1.006   6.250
 3969POPC   D2A52552  23.131   1.170   6.638
 3969POPC   C3A52553  23.034   1.104   7.073
 3969POPC   C4A52554  23.105   1.283   7.483
 3969POPC   C1B52555  22.572   1.330   6.224
 3969POPC   C2B52556  22.659   1.377   6.634
 3969POPC   C3B52557  22.578   1.392   7.039
 3969POPC   C4B52558  22.616   1.130   7.387
 3970POPC   NC352559   6.750  43.036   5.411
 3970POPC   PO452560   6.553  43.671   5.289
 3970POPC   GL152561   6.562  43.343   5.744
 3970POPC   GL252562   6.877  43.126   5.884
 3970POPC   C1A52563   6.527  43.255   6.220
 3970POPC   D2A52564   6.847  43.258   6.575
 3970POPC   C3A52565   6.622  43.181   6.957
 3970POPC   C4A52566   6.306  42.836   7.073
 3970POPC   C1B52567   6.839  42.848   6.282
 3970POPC   C2B52568   6.676  42.720   6.725
 3970POPC   C3B52569   6.812  42.744   7.195
 3970POPC   C4B52570   6.961  42.824   7.644
 3971POPC   NC352571  28.483  14.037   5.495
 3971POPC   PO452572  28.184  13.419   5.329
 3971POPC   GL152573  28.265  13.606   5.697
 3971POPC   GL252574  28.605  13.506   5.717
 3971POPC   C1A52575  28.155  13.668   6.139
 3971POPC   D2A52576  28.391  13.516   6.501
 3971POPC   C3A52577  28.281  13.777   6.824
 3971POPC   C4A52578  28.273  13.789   7.243
 3971POPC   C1B52579  28.637  13.792   6.105
 3971POPC   C2B52580  28.764  13.883   6.552
 3971POPC   C3B52581  28.718  13.996   6.994
 3971POPC   C4B52582  28.525  14.197   7.351
 3972POPC   NC352583  44.997  15.486   5.385
 3972POPC   PO452584  44.528  16.018   5.550
 3972POPC   GL152585  44.756  15.793   5.765
 3972POPC   GL252586  44.650  15.430   5.771
 3972POPC   C1A52587  44.812  16.013   6.160
 3972POPC   D2A52588  44.676  16.165   6.546
 3972POPC   C3A52589  44.878  15.988   6.884
 3972POPC   C4A52590  44.680  16.096   7.210
 3972POPC   C1B52591  44.838  15.514   6.162
 3972POPC   C2B52592  44.636  15.635   6.550
 3972POPC   C3B52593  44.441  15.662   6.945
 3972POPC   C4B52594  44.533  15.614   7.365
 3973POPC   NC352595  33.467  32.393   5.389
 3973POPC   PO452596  34.001  32.051   5.283
 3973POPC   GL152597  33.750  32.100   5.721
 3973POPC   GL252598  33.668  32.449   5.851
 3973POPC   C1A52599  33.668  32.085   6.194
 3973POPC   D2A52600  33.494  32.083   6.604
 3973POPC   C3A52601  33.817  32.014   6.904
 3973POPC   C4A52602  33.716  31.933   7.326
 3973POPC   C1B52603  33.988  32.532   6.152
 3973POPC   C2B52604  34.129  32.721   6.558
 3973POPC   C3B52605  34.029  32.531   6.966
 3973POPC   C4B52606  33.606  32.408   7.111
 3974POPC   NC352607  41.487  26.521   5.322
 3974POPC   PO452608  41.640  25.925   5.255
 3974POPC   GL152609  41.611  26.134   5.672
 3974POPC   GL252610  41.916  26.183   5.843
 3974POPC   C1A52611  41.500  26.223   6.137
 3974POPC   D2A52612  41.645  26.303   6.551
 3974POPC   C3A52613  41.451  26.157   6.897
 3974POPC   C4A52614  41.214  26.331   7.195
 3974POPC   C1B52615  41.977  26.008   6.276
 3974POPC   C2B52616  42.080  26.098   6.735
 3974POPC   C3B52617  41.905  26.052   7.180
 3974POPC   C4B52618  41.960  25.995   7.649
 3975POPC   NC352619  18.659  29.355   5.386
 3975POPC   PO452620  18.113  28.903   5.481
 3975POPC   GL152621  18.194  29.085   5.842
 3975POPC   GL252622  18.550  29.140   5.845
 3975POPC   C1A52623  18.203  28.885   6.245
 3975POPC   D2A52624  18.283  28.708   6.648
 3975POPC   C3A52625  18.204  29.000   6.990
 3975POPC   C4A52626  18.034  28.907   7.367
 3975POPC   C1B52627  18.720  29.486   6.111
 3975POPC   C2B52628  18.849  29.432   6.560
 3975POPC   C3B52629  18.630  29.310   6.965
 3975POPC   C4B52630  18.599  29.535   7.368
 3976POPC   NC352631   8.395   9.908   5.477
 3976POPC   PO452632   7.735  10.019   5.555
 3976POPC   GL152633   7.794   9.748   5.872
 3976POPC   GL252634   8.071   9.559   5.749
 3976POPC   C1A52635   7.872   9.839   6.323
 3976POPC   D2A52636   8.320   9.916   6.418
 3976POPC   C3A52637   8.439   9.915   6.877
 3976POPC   C4A52638   8.254  10.057   7.275
 3976POPC   C1B52639   8.097   9.412   6.159
 3976POPC   C2B52640   8.266   9.441   6.574
 3976POPC   C3B52641   8.082   9.544   6.976
 3976POPC   C4B52642   8.387   9.537   7.266
 3977POPC   NC352643   0.295  40.127   5.642
 3977POPC   PO452644   0.819  39.927   5.361
 3977POPC   GL152645   0.657  39.789   5.793
 3977POPC   GL252646   0.313  39.624   5.804
 3977POPC   C1A52647   0.513  39.971   6.219
 3977POPC   D2A52648   0.703  40.029   6.606
 3977POPC   C3A52649   0.394  40.048   6.904
 3977POPC   C4A52650   0.121  39.890   7.185
 3977POPC   C1B52651   0.530  39.479   6.199
 3977POPC   C2B52652   0.439  39.563   6.634
 3977POPC   C3B52653   0.529  39.574   7.086
 3977POPC   C4B52654   0.389  39.597   7.536
 3978POPC   NC352655  17.748   9.091   5.471
 3978POPC   PO452656  17.126   9.284   5.369
 3978POPC   GL152657  17.320   9.155   5.795
 3978POPC   GL252658  17.448   8.785   5.777
 3978POPC   C1A52659  17.362   9.134   6.274
 3978POPC   D2A52660  17.308   9.177   6.751
 3978POPC   C3A52661  17.347   8.826   7.031
 3978POPC   C4A52662  17.276   8.976   7.418
 3978POPC   C1B52663  17.644   8.712   6.186
 3978POPC   C2B52664  17.689   8.862   6.619
 3978POPC   C3B52665  17.810   8.645   7.002
 3978POPC   C4B52666  17.781   8.808   7.442
 3979POPC   NC352667  40.641   4.842   5.377
 3979POPC   PO452668  41.208   5.116   5.517
 3979POPC   GL152669  40.900   4.942   5.816
 3979POPC   GL252670  40.531   5.111   5.804
 3979POPC   C1A52671  40.673   4.800   6.184
 3979POPC   D2A52672  40.512   5.104   6.504
 3979POPC   C3A52673  40.757   5.051   6.880
 3979POPC   C4A52674  40.733   4.855   7.269
 3979POPC   C1B52675  40.782   5.349   6.116
 3979POPC   C2B52676  40.904   5.478   6.532
 3979POPC   C3B52677  40.711   5.553   6.921
 3979POPC   C4B52678  40.689   5.342   7.305
 3980POPC   NC352679  28.797  33.053   5.630
 3980POPC   PO452680  29.388  32.791   5.568
 3980POPC   GL152681  29.121  32.759   5.929
 3980POPC   GL252682  28.771  32.616   5.890
 3980POPC   C1A52683  29.236  32.992   6.308
 3980POPC   D2A52684  29.065  33.163   6.691
 3980POPC   C3A52685  29.251  33.087   7.091
 3980POPC   C4A52686  29.199  33.449   7.354
 3980POPC   C1B52687  28.739  32.866   6.262
 3980POPC   C2B52688  28.901  32.679   6.571
 3980POPC   C3B52689  28.919  32.734   6.948
 3980POPC   C4B52690  28.754  33.067   7.177
 3981POPC   NC352691  18.360  31.793   5.299
 3981POPC   PO452692  18.025  31.168   5.338
 3981POPC   GL152693  18.250  31.435   5.678
 3981POPC   GL252694  18.517  31.726   5.780
 3981POPC   C1A52695  18.395  31.355   6.102
 3981POPC   D2A52696  18.404  31.573   6.451
 3981POPC   C3A52697  18.338  31.407   6.841
 3981POPC   C4A52698  18.380  31.552   7.227
 3981POPC   C1B52699  18.127  31.813   6.061
 3981POPC   C2B52700  17.933  31.797   6.488
 3981POPC   C3B52701  18.032  31.858   6.943
 3981POPC   C4B52702  17.888  31.628   7.335
 3982POPC   NC352703  15.733   0.105   5.459
 3982POPC   PO452704  15.826   0.734   5.430
 3982POPC   GL152705  15.975   0.440   5.790
 3982POPC   GL252706  16.273   0.204   5.833
 3982POPC   C1A52707  15.930   0.297   6.235
 3982POPC   D2A52708  16.082   0.470   6.651
 3982POPC   C3A52709  15.805   0.415   7.010
 3982POPC   C4A52710  15.366   0.391   7.171
 3982POPC   C1B52711  16.430   0.226   6.299
 3982POPC   C2B52712  16.340   0.022   6.722
 3982POPC   C3B52713  16.249   0.174   7.136
 3982POPC   C4B52714  16.151   0.543   7.405
 3983POPC   NC352715  24.344  31.770   5.118
 3983POPC   PO452716  24.911  31.410   5.311
 3983POPC   GL152717  24.681  31.486   5.719
 3983POPC   GL252718  24.550  31.170   5.745
 3983POPC   C1A52719  24.542  31.605   6.176
 3983POPC   D2A52720  24.551  31.791   6.610
 3983POPC   C3A52721  24.509  31.614   7.015
 3983POPC   C4A52722  24.175  31.438   7.188
 3983POPC   C1B52723  24.381  31.109   6.144
 3983POPC   C2B52724  24.533  31.168   6.542
 3983POPC   C3B52725  24.414  31.081   6.932
 3983POPC   C4B52726  24.611  31.169   7.320
 3984POPC   NC352727  23.804  39.799   5.607
 3984POPC   PO452728  23.828  39.266   5.218
 3984POPC   GL152729  23.774  39.262   5.720
 3984POPC   GL252730  23.431  39.183   5.887
 3984POPC   C1A52731  23.773  39.437   6.177
 3984POPC   D2A52732  23.849  39.272   6.596
 3984POPC   C3A52733  23.659  39.369   6.983
 3984POPC   C4A52734  23.915  39.468   7.337
 3984POPC   C1B52735  23.545  38.972   6.287
 3984POPC   C2B52736  23.547  38.894   6.748
 3984POPC   C3B52737  23.441  38.912   7.189
 3984POPC   C4B52738  23.367  38.843   7.632
 3985POPC   NC352739  43.142  34.998   5.470
 3985POPC   PO452740  43.425  34.390   5.466
 3985POPC   GL152741  43.193  34.567   5.776
 3985POPC   GL252742  42.965  34.288   5.826
 3985POPC   C1A52743  43.263  34.818   6.146
 3985POPC   D2A52744  43.220  34.727   6.579
 3985POPC   C3A52745  42.904  34.559   6.824
 3985POPC   C4A52746  42.822  34.574   7.278
 3985POPC   C1B52747  43.282  34.289   6.201
 3985POPC   C2B52748  43.273  34.225   6.653
 3985POPC   C3B52749  43.253  34.340   7.119
 3985POPC   C4B52750  43.135  34.087   7.465
 3986POPC   NC352751   0.984  24.669   5.316
 3986POPC   PO452752   1.347  24.546   5.807
 3986POPC   GL152753   1.068  24.662   6.071
 3986POPC   GL252754   0.758  24.718   5.873
 3986POPC   C1A52755   1.199  24.655   6.504
 3986POPC   D2A52756   1.535  24.733   6.795
 3986POPC   C3A52757   1.429  24.536   7.189
 3986POPC   C4A52758   1.386  24.600   7.622
 3986POPC   C1B52759   0.691  24.350   6.175
 3986POPC   C2B52760   0.932  24.189   6.532
 3986POPC   C3B52761   1.007  24.414   6.920
 3986POPC   C4B52762   0.941  24.408   7.353
 3987POPC   NC352763  20.466  27.683   5.483
 3987POPC   PO452764  20.906  27.296   5.200
 3987POPC   GL152765  20.943  27.483   5.688
 3987POPC   GL252766  20.784  27.775   5.861
 3987POPC   C1A52767  20.784  27.378   6.167
 3987POPC   D2A52768  20.590  27.380   6.600
 3987POPC   C3A52769  20.782  27.423   6.993
 3987POPC   C4A52770  20.900  27.780   7.191
 3987POPC   C1B52771  20.635  27.893   6.282
 3987POPC   C2B52772  20.658  27.898   6.728
 3987POPC   C3B52773  20.432  27.967   7.075
 3987POPC   C4B52774  20.469  27.869   7.480
 3988POPC   NC352775  32.934  13.020   5.388
 3988POPC   PO452776  33.175  12.313   5.511
 3988POPC   GL152777  33.188  12.567   5.908
 3988POPC   GL252778  33.161  12.943   5.871
 3988POPC   C1A52779  33.269  12.543   6.372
 3988POPC   D2A52780  33.006  12.590   6.735
 3988POPC   C3A52781  33.062  12.894   7.096
 3988POPC   C4A52782  33.160  12.795   7.551
 3988POPC   C1B52783  32.897  12.925   6.269
 3988POPC   C2B52784  32.769  13.096   6.685
 3988POPC   C3B52785  32.583  13.188   7.103
 3988POPC   C4B52786  32.844  13.189   7.467
 3989POPC   NC352787  41.915  42.131   5.110
 3989POPC   PO452788  42.393  42.072   5.659
 3989POPC   GL152789  42.175  42.340   5.933
 3989POPC   GL252790  42.238  42.653   5.758
 3989POPC   C1A52791  42.184  42.322   6.388
 3989POPC   D2A52792  42.541  42.233   6.673
 3989POPC   C3A52793  42.429  42.173   7.104
 3989POPC   C4A52794  42.095  42.225   7.386
 3989POPC   C1B52795  42.494  42.680   6.159
 3989POPC   C2B52796  42.647  42.759   6.582
 3989POPC   C3B52797  42.613  42.663   7.043
 3989POPC   C4B52798  42.837  42.606   7.456
 3990POPC   NC352799  28.433  30.378   5.164
 3990POPC   PO452800  28.163  30.907   5.452
 3990POPC   GL152801  28.374  30.587   5.722
 3990POPC   GL252802  28.713  30.661   5.838
 3990POPC   C1A52803  28.304  30.397   6.132
 3990POPC   D2A52804  28.185  30.633   6.487
 3990POPC   C3A52805  28.479  30.664   6.811
 3990POPC   C4A52806  28.502  30.407   7.187
 3990POPC   C1B52807  28.655  30.756   6.256
 3990POPC   C2B52808  28.612  31.117   6.503
 3990POPC   C3B52809  28.536  31.177   6.929
 3990POPC   C4B52810  28.569  30.912   7.263
 3991POPC   NC352811  33.076   0.005   5.408
 3991POPC   PO452812  32.598  44.532   5.374
 3991POPC   GL152813  32.890  44.528   5.787
 3991POPC   GL252814  33.012  44.859   5.909
 3991POPC   C1A52815  33.158  44.425   6.158
 3991POPC   D2A52816  33.247  44.549   6.556
 3991POPC   C3A52817  33.187  44.365   6.957
 3991POPC   C4A52818  33.020  44.581   7.296
 3991POPC   C1B52819  33.375  44.901   6.200
 3991POPC   C2B52820  33.453   0.025   6.662
 3991POPC   C3B52821  33.303  44.979   7.116
 3991POPC   C4B52822  33.361  44.861   7.600
 3992POPC   NC352823  30.877  38.384   5.178
 3992POPC   PO452824  30.265  38.603   5.319
 3992POPC   GL152825  30.557  38.667   5.729
 3992POPC   GL252826  30.912  38.480   5.723
 3992POPC   C1A52827  30.724  38.729   6.160
 3992POPC   D2A52828  30.625  38.353   6.386
 3992POPC   C3A52829  30.556  38.344   6.812
 3992POPC   C4A52830  30.576  38.246   7.232
 3992POPC   C1B52831  31.134  38.416   6.142
 3992POPC   C2B52832  31.072  38.474   6.605
 3992POPC   C3B52833  31.220  38.471   7.038
 3992POPC   C4B52834  31.073  38.575   7.440
 3993POPC   NC352835  28.634  35.022   5.487
 3993POPC   PO452836  28.290  34.416   5.503
 3993POPC   GL152837  28.306  34.652   5.858
 3993POPC   GL252838  28.664  34.702   5.891
 3993POPC   C1A52839  28.308  34.460   6.264
 3993POPC   D2A52840  28.309  34.455   6.707
 3993POPC   C3A52841  28.302  34.839   6.964
 3993POPC   C4A52842  28.401  34.688   7.401
 3993POPC   C1B52843  28.801  34.338   6.127
 3993POPC   C2B52844  28.672  34.116   6.529
 3993POPC   C3B52845  28.755  34.177   7.002
 3993POPC   C4B52846  28.612  34.244   7.475
 3994POPC   NC352847  33.445   9.430   5.536
 3994POPC   PO452848  33.952   9.908   5.494
 3994POPC   GL152849  33.727   9.797   5.823
 3994POPC   GL252850  33.918   9.511   5.833
 3994POPC   C1A52851  33.710   9.906   6.248
 3994POPC   D2A52852  33.765   9.673   6.614
 3994POPC   C3A52853  33.711   9.897   6.961
 3994POPC   C4A52854  33.981   9.986   7.280
 3994POPC   C1B52855  33.624   9.414   6.169
 3994POPC   C2B52856  33.490   9.247   6.545
 3994POPC   C3B52857  33.760   9.218   6.888
 3994POPC   C4B52858  33.721   9.469   7.230
 3995POPC   NC352859  28.425   5.178   5.377
 3995POPC   PO452860  28.950   4.690   5.443
 3995POPC   GL152861  28.580   4.860   5.729
 3995POPC   GL252862  28.280   4.644   5.725
 3995POPC   C1A52863  28.494   5.104   6.106
 3995POPC   D2A52864  28.535   5.276   6.522
 3995POPC   C3A52865  28.272   5.180   6.858
 3995POPC   C4A52866  28.471   5.229   7.206
 3995POPC   C1B52867  28.359   4.602   6.154
 3995POPC   C2B52868  28.389   4.780   6.542
 3995POPC   C3B52869  28.458   4.733   6.974
 3995POPC   C4B52870  28.473   4.752   7.383
 3996POPC   NC352871  24.807  12.443   5.287
 3996POPC   PO452872  24.251  12.067   5.188
 3996POPC   GL152873  24.224  12.127   5.668
 3996POPC   GL252874  24.111  12.436   5.775
 3996POPC   C1A52875  24.409  12.170   6.127
 3996POPC   D2A52876  24.556  12.244   6.585
 3996POPC   C3A52877  24.465  11.962   6.953
 3996POPC   C4A52878  24.690  12.011   7.366
 3996POPC   C1B52879  23.959  12.503   6.155
 3996POPC   C2B52880  24.220  12.619   6.479
 3996POPC   C3B52881  24.247  12.636   6.920
 3996POPC   C4B52882  24.320  12.349   7.254
 3997POPC   NC352883  18.483  14.063   5.512
 3997POPC   PO452884  17.912  13.643   5.573
 3997POPC   GL152885  18.138  13.854   5.858
 3997POPC   GL252886  18.469  13.656   5.830
 3997POPC   C1A52887  18.186  13.688   6.260
 3997POPC   D2A52888  18.333  13.469   6.626
 3997POPC   C3A52889  18.127  13.627   6.996
 3997POPC   C4A52890  17.937  13.457   7.328
 3997POPC   C1B52891  18.691  13.554   6.219
 3997POPC   C2B52892  18.766  13.774   6.576
 3997POPC   C3B52893  18.629  13.693   6.984
 3997POPC   C4B52894  18.851  13.765   7.335
 3998POPC   NC352895  44.155   2.449   5.389
 3998POPC   PO452896  43.788   3.021   5.148
 3998POPC   GL152897  43.951   2.990   5.645
 3998POPC   GL252898  43.970   2.661   5.805
 3998POPC   C1A52899  43.811   2.991   6.149
 3998POPC   D2A52900  43.737   2.787   6.599
 3998POPC   C3A52901  43.853   2.992   7.012
 3998POPC   C4A52902  44.005   3.213   7.379
 3998POPC   C1B52903  44.177   2.629   6.214
 3998POPC   C2B52904  44.112   2.459   6.639
 3998POPC   C3B52905  43.912   2.495   7.055
 3998POPC   C4B52906  44.064   2.709   7.428
 3999POPC   NC352907  16.082  25.745   5.223
 3999POPC   PO452908  16.440  26.299   5.231
 3999POPC   GL152909  16.217  26.014   5.637
 3999POPC   GL252910  15.905  26.184   5.861
 3999POPC   C1A52911  16.276  25.970   6.129
 3999POPC   D2A52912  16.197  26.219   6.527
 3999POPC   C3A52913  16.048  25.992   6.899
 3999POPC   C4A52914  16.049  26.069   7.331
 3999POPC   C1B52915  15.647  26.068   6.289
 3999POPC   C2B52916  15.553  25.985   6.764
 3999POPC   C3B52917  15.501  25.955   7.239
 3999POPC   C4B52918  15.660  26.127   7.648
 4000POPC   NC352919  27.415   3.266   5.313
 4000POPC   PO452920  27.370   3.870   5.630
 4000POPC   GL152921  27.520   3.510   5.850
 4000POPC   GL252922  27.263   3.248   5.815
 4000POPC   C1A52923  27.642   3.646   6.278
 4000POPC   D2A52924  27.922   3.861   6.610
 4000POPC   C3A52925  27.846   3.669   7.007
 4000POPC   C4A52926  27.434   3.709   7.219
 4000POPC   C1B52927  27.378   3.198   6.259
 4000POPC   C2B52928  27.592   3.291   6.656
 4000POPC   C3B52929  27.573   3.233   7.084
 4000POPC   C4B52930  27.409   3.222   7.487
 4001POPC   NC352931  29.693  37.087   5.195
 4001POPC   PO452932  30.147  36.617   5.278
 4001POPC   GL152933  29.914  36.616   5.665
 4001POPC   GL252934  29.817  36.965   5.724
 4001POPC   C1A52935  30.031  36.623   6.105
 4001POPC   D2A52936  29.861  36.668   6.499
 4001POPC   C3A52937  30.042  36.658   6.908
 4001POPC   C4A52938  30.134  36.610   7.347
 4001POPC   C1B52939  29.847  37.120   6.166
 4001POPC   C2B52940  29.782  37.300   6.572
 4001POPC   C3B52941  29.909  37.209   6.969
 4001POPC   C4B52942  30.110  37.242   7.352
 4002POPC   NC352943  20.521  16.345   5.497
 4002POPC   PO452944  20.872  15.851   5.211
 4002POPC   GL152945  20.667  15.922   5.728
 4002POPC   GL252946  20.419  16.153   5.943
 4002POPC   C1A52947  20.777  15.879   6.199
 4002POPC   D2A52948  20.572  16.115   6.565
 4002POPC   C3A52949  20.697  15.951   6.979
 4002POPC   C4A52950  20.592  16.091   7.389
 4002POPC   C1B52951  20.269  15.842   6.235
 4002POPC   C2B52952  20.084  15.929   6.643
 4002POPC   C3B52953  20.170  16.216   6.986
 4002POPC   C4B52954  20.090  16.039   7.378
 4003POPC   NC352955  23.211   5.267   5.443
 4003POPC   PO452956  23.850   5.442   5.440
 4003POPC   GL152957  23.728   5.400   5.854
 4003POPC   GL252958  23.371   5.525   5.868
 4003POPC   C1A52959  23.938   5.190   6.212
 4003POPC   D2A52960  24.228   5.239   6.549
 4003POPC   C3A52961  24.072   5.101   6.958
 4003POPC   C4A52962  23.796   5.051   7.276
 4003POPC   C1B52963  23.465   5.407   6.297
 4003POPC   C2B52964  23.711   5.329   6.683
 4003POPC   C3B52965  23.724   5.533   7.093
 4003POPC   C4B52966  23.536   5.376   7.541
 4004POPC   NC352967  35.731  39.752   5.564
 4004POPC   PO452968  36.152  40.248   5.412
 4004POPC   GL152969  36.067  40.237   5.835
 4004POPC   GL252970  35.714  40.269   5.779
 4004POPC   C1A52971  36.238  40.275   6.274
 4004POPC   D2A52972  36.043  40.228   6.687
 4004POPC   C3A52973  36.053  39.925   7.014
 4004POPC   C4A52974  36.279  39.834   7.405
 4004POPC   C1B52975  35.724  40.199   6.245
 4004POPC   C2B52976  35.513  40.288   6.652
 4004POPC   C3B52977  35.639  40.303   7.079
 4004POPC   C4B52978  35.960  40.223   7.430
 4005POPC   NC352979  23.559  33.145   5.356
 4005POPC   PO452980  24.236  33.170   5.396
 4005POPC   GL152981  23.898  33.051   5.772
 4005POPC   GL252982  23.502  32.953   5.813
 4005POPC   C1A52983  23.915  33.039   6.249
 4005POPC   D2A52984  23.920  33.161   6.711
 4005POPC   C3A52985  24.024  32.981   7.107
 4005POPC   C4A52986  23.721  33.180   7.384
 4005POPC   C1B52987  23.437  32.846   6.222
 4005POPC   C2B52988  23.419  33.114   6.569
 4005POPC   C3B52989  23.505  32.937   6.970
 4005POPC   C4B52990  23.673  32.665   7.275
 4006POPC   NC352991  18.980  16.835   5.593
 4006POPC   PO452992  19.427  16.390   5.380
 4006POPC   GL152993  19.367  16.570   5.801
 4006POPC   GL252994  19.423  16.972   5.858
 4006POPC   C1A52995  19.137  16.406   6.188
 4006POPC   D2A52996  19.196  16.502   6.642
 4006POPC   C3A52997  18.954  16.610   7.011
 4006POPC   C4A52998  19.275  16.636   7.302
 4006POPC   C1B52999  19.096  16.902   6.204
 4006POPC   C2B53000  18.917  16.925   6.588
 4006POPC   C3B53001  18.843  17.115   6.958
 4006POPC   C4B53002  18.930  17.021   7.333
 4007POPC   NC353003  38.427   4.876   5.429
 4007POPC   PO453004  38.723   5.511   5.268
 4007POPC   GL153005  38.543   5.306   5.679
 4007POPC   GL253006  38.194   5.199   5.757
 4007POPC   C1A53007  38.536   5.282   6.149
 4007POPC   D2A53008  38.439   5.465   6.546
 4007POPC   C3A53009  38.582   5.336   6.920
 4007POPC   C4A53010  38.357   5.317   7.291
 4007POPC   C1B53011  38.028   5.095   6.178
 4007POPC   C2B53012  37.882   4.978   6.585
 4007POPC   C3B53013  38.024   5.105   6.964
 4007POPC   C4B53014  37.900   5.095   7.393
 4008POPC   NC353015  14.757   6.901   5.583
 4008POPC   PO453016  14.279   6.486   5.274
 4008POPC   GL153017  14.253   6.801   5.659
 4008POPC   GL253018  14.452   6.595   5.866
 4008POPC   C1A53019  14.127   6.876   6.138
 4008POPC   D2A53020  14.277   6.716   6.564
 4008POPC   C3A53021  14.460   6.992   6.895
 4008POPC   C4A53022  14.325   7.137   7.312
 4008POPC   C1B53023  14.684   6.623   6.246
 4008POPC   C2B53024  14.786   6.605   6.697
 4008POPC   C3B53025  14.544   6.530   7.109
 4008POPC   C4B53026  14.484   6.409   7.556
 4009POPC   NC353027   4.239  37.901   5.426
 4009POPC   PO453028   4.282  38.567   5.430
 4009POPC   GL153029   4.352  38.403   5.819
 4009POPC   GL253030   4.538  38.697   5.864
 4009POPC   C1A53031   4.194  38.253   6.195
 4009POPC   D2A53032   4.030  38.457   6.571
 4009POPC   C3A53033   4.158  38.303   6.972
 4009POPC   C4A53034   4.445  38.169   7.285
 4009POPC   C1B53035   4.389  38.720   6.301
 4009POPC   C2B53036   4.389  38.863   6.739
 4009POPC   C3B53037   4.533  38.630   7.094
 4009POPC   C4B53038   4.513  38.564   7.583
 4010POPC   NC353039  20.785  21.471   5.398
 4010POPC   PO453040  20.214  21.688   5.439
 4010POPC   GL153041  20.388  21.413   5.752
 4010POPC   GL253042  20.539  21.644   5.966
 4010POPC   C1A53043  20.425  21.205   6.166
 4010POPC   D2A53044  20.595  21.468   6.481
 4010POPC   C3A53045  20.470  21.440   6.898
 4010POPC   C4A53046  20.697  21.181   7.191
 4010POPC   C1B53047  20.967  21.545   6.124
 4010POPC   C2B53048  21.094  21.355   6.512
 4010POPC   C3B53049  21.089  21.425   6.938
 4010POPC   C4B53050  21.171  21.438   7.381
 4011POPC   NC353051   1.628   0.119   5.155
 4011POPC   PO453052   1.167   0.539   5.438
 4011POPC   GL153053   1.308   0.468   5.821
 4011POPC   GL253054   0.971   0.411   5.896
 4011POPC   C1A53055   1.346   0.648   6.230
 4011POPC   D2A53056   1.481   0.451   6.614
 4011POPC   C3A53057   1.413   0.679   6.957
 4011POPC   C4A53058   1.329   0.559   7.369
 4011POPC   C1B53059   1.167   0.159   6.216
 4011POPC   C2B53060   1.185   0.033   6.631
 4011POPC   C3B53061   1.108   0.271   6.985
 4011POPC   C4B53062   0.988   0.169   7.380
 4012POPC   NC353063  33.089  23.030   5.298
 4012POPC   PO453064  32.724  22.542   5.422
 4012POPC   GL153065  32.987  22.768   5.750
 4012POPC   GL253066  33.038  23.124   5.817
 4012POPC   C1A53067  32.846  22.825   6.191
 4012POPC   D2A53068  33.058  23.084   6.480
 4012POPC   C3A53069  33.051  22.919   6.893
 4012POPC   C4A53070  33.307  22.935   7.240
 4012POPC   C1B53071  32.626  23.258   6.040
 4012POPC   C2B53072  32.614  23.367   6.480
 4012POPC   C3B53073  32.861  23.412   6.873
 4012POPC   C4B53074  32.820  23.197   7.281
 4013POPC   NC353075   5.455  32.431   5.509
 4013POPC   PO453076   4.822  32.105   5.489
 4013POPC   GL153077   4.927  32.263   5.850
 4013POPC   GL253078   5.231  32.082   5.819
 4013POPC   C1A53079   4.790  32.421   6.278
 4013POPC   D2A53080   4.897  32.527   6.688
 4013POPC   C3A53081   4.970  32.329   7.040
 4013POPC   C4A53082   4.813  32.434   7.384
 4013POPC   C1B53083   5.305  32.357   6.174
 4013POPC   C2B53084   5.390  32.549   6.539
 4013POPC   C3B53085   5.334  32.667   6.936
 4013POPC   C4B53086   5.666  32.646   7.175
 4014POPC   NC353087  39.162  29.997   5.258
 4014POPC   PO453088  39.618  29.606   5.626
 4014POPC   GL153089  39.301  29.787   5.853
 4014POPC   GL253090  39.106  30.086   5.777
 4014POPC   C1A53091  39.348  29.913   6.269
 4014POPC   D2A53092  39.200  29.768   6.628
 4014POPC   C3A53093  39.355  29.989   6.949
 4014POPC   C4A53094  39.508  29.832   7.281
 4014POPC   C1B53095  39.000  30.278   6.174
 4014POPC   C2B53096  39.102  30.291   6.612
 4014POPC   C3B53097  39.093  30.423   7.054
 4014POPC   C4B53098  39.127  30.162   7.419
 4015POPC   NC353099   8.764  40.293   5.605
 4015POPC   PO453100   8.913  39.775   5.208
 4015POPC   GL153101   9.060  39.830   5.675
 4015POPC   GL253102   8.769  39.706   5.842
 4015POPC   C1A53103   9.130  39.816   6.179
 4015POPC   D2A53104   9.105  40.150   6.513
 4015POPC   C3A53105   9.281  40.155   6.941
 4015POPC   C4A53106   9.283  40.390   7.345
 4015POPC   C1B53107   8.650  40.016   6.153
 4015POPC   C2B53108   8.600  40.036   6.532
 4015POPC   C3B53109   8.770  40.079   6.920
 4015POPC   C4B53110   8.890  39.697   7.114
 4016POPC   NC353111  33.445  33.312   5.679
 4016POPC   PO453112  33.048  33.778   5.454
 4016POPC   GL153113  32.958  33.770   5.880
 4016POPC   GL253114  32.927  33.404   5.827
 4016POPC   C1A53115  32.901  33.894   6.351
 4016POPC   D2A53116  32.721  33.828   6.769
 4016POPC   C3A53117  33.029  33.800   7.123
 4016POPC   C4A53118  33.448  33.992   7.207
 4016POPC   C1B53119  33.042  33.407   6.252
 4016POPC   C2B53120  33.060  33.451   6.681
 4016POPC   C3B53121  32.794  33.356   7.013
 4016POPC   C4B53122  32.801  33.434   7.457
 4017POPC   NC353123  14.130  24.073   5.594
 4017POPC   PO453124  13.707  24.513   5.460
 4017POPC   GL153125  13.591  24.651   5.851
 4017POPC   GL253126  13.383  24.886   5.922
 4017POPC   C1A53127  13.380  24.446   6.178
 4017POPC   D2A53128  13.520  24.442   6.583
 4017POPC   C3A53129  13.395  24.742   6.888
 4017POPC   C4A53130  13.377  24.437   7.250
 4017POPC   C1B53131  13.598  24.901   6.308
 4017POPC   C2B53132  13.894  24.787   6.552
 4017POPC   C3B53133  13.859  24.567   6.969
 4017POPC   C4B53134  13.780  24.757   7.331
 4018POPC   NC353135  13.682  43.012   5.294
 4018POPC   PO453136  13.458  43.602   5.455
 4018POPC   GL153137  13.701  43.288   5.764
 4018POPC   GL253138  13.746  42.905   5.781
 4018POPC   C1A53139  13.694  43.169   6.230
 4018POPC   D2A53140  13.461  43.254   6.615
 4018POPC   C3A53141  13.681  43.238   7.029
 4018POPC   C4A53142  13.517  43.344   7.455
 4018POPC   C1B53143  13.485  42.735   6.090
 4018POPC   C2B53144  13.486  42.752   6.550
 4018POPC   C3B53145  13.739  42.720   6.968
 4018POPC   C4B53146  14.161  42.640   7.179
 4019POPC   NC353147  18.805   0.967   5.440
 4019POPC   PO453148  18.929   1.637   5.336
 4019POPC   GL153149  19.169   1.411   5.676
 4019POPC   GL253150  19.210   1.066   5.768
 4019POPC   C1A53151  19.145   1.394   6.145
 4019POPC   D2A53152  19.333   1.330   6.554
 4019POPC   C3A53153  19.004   1.368   6.868
 4019POPC   C4A53154  19.032   1.511   7.273
 4019POPC   C1B53155  19.362   0.940   6.171
 4019POPC   C2B53156  19.173   0.803   6.548
 4019POPC   C3B53157  19.286   0.935   6.909
 4019POPC   C4B53158  19.489   0.839   7.230
 4020POPC   NC353159   7.718  17.051   5.200
 4020POPC   PO453160   7.126  16.695   5.250
 4020POPC   GL153161   7.561  16.709   5.625
 4020POPC   GL253162   7.570  16.440   5.857
 4020POPC   C1A53163   7.576  16.863   6.143
 4020POPC   D2A53164   7.309  16.738   6.547
 4020POPC   C3A53165   7.315  17.004   6.952
 4020POPC   C4A53166   7.660  17.141   7.227
 4020POPC   C1B53167   7.670  16.392   6.292
 4020POPC   C2B53168   7.804  16.624   6.682
 4020POPC   C3B53169   7.622  16.619   7.121
 4020POPC   C4B53170   7.755  16.555   7.572
 4021POPC   NC353171  42.691  44.794   5.417
 4021POPC   PO453172  43.392  44.463   5.311
 4021POPC   GL153173  43.253  44.557   5.781
 4021POPC   GL253174  43.062  44.890   5.819
 4021POPC   C1A53175  43.191  44.586   6.272
 4021POPC   D2A53176  43.362  44.665   6.710
 4021POPC   C3A53177  43.129  44.566   7.100
 4021POPC   C4A53178  42.808  44.342   7.320
 4021POPC   C1B53179  42.832  44.970   6.223
 4021POPC   C2B53180  42.822  44.830   6.632
 4021POPC   C3B53181  42.915   0.024   6.990
 4021POPC   C4B53182  42.894  44.982   7.406
 4022POPC   NC353183   1.516  29.184   5.408
 4022POPC   PO453184   2.155  29.458   5.371
 4022POPC   GL153185   2.104  29.319   5.787
 4022POPC   GL253186   1.830  29.067   5.786
 4022POPC   C1A53187   2.123  29.153   6.206
 4022POPC   D2A53188   2.203  28.827   6.482
 4022POPC   C3A53189   2.294  29.077   6.804
 4022POPC   C4A53190   2.203  29.044   7.206
 4022POPC   C1B53191   1.613  28.934   6.164
 4022POPC   C2B53192   1.734  29.053   6.550
 4022POPC   C3B53193   1.685  28.998   6.946
 4022POPC   C4B53194   1.699  29.214   7.305
 4023POPC   NC353195  35.958  30.081   5.551
 4023POPC   PO453196  35.901  29.505   5.200
 4023POPC   GL153197  35.956  29.670   5.799
 4023POPC   GL253198  36.294  29.825   5.825
 4023POPC   C1A53199  35.978  29.889   6.241
 4023POPC   D2A53200  36.170  29.790   6.656
 4023POPC   C3A53201  36.102  30.001   7.033
 4023POPC   C4A53202  36.083  29.773   7.411
 4023POPC   C1B53203  36.443  30.112   6.119
 4023POPC   C2B53204  36.358  30.241   6.537
 4023POPC   C3B53205  36.551  30.270   6.965
 4023POPC   C4B53206  36.503  30.043   7.348
 4024POPC   NC353207  21.811  26.065   5.279
 4024POPC   PO453208  22.360  25.690   5.293
 4024POPC   GL153209  22.060  25.808   5.708
 4024POPC   GL253210  21.901  26.160   5.772
 4024POPC   C1A53211  22.109  25.993   6.183
 4024POPC   D2A53212  22.393  26.060   6.533
 4024POPC   C3A53213  22.362  25.834   6.917
 4024POPC   C4A53214  22.010  25.733   7.145
 4024POPC   C1B53215  21.795  26.414   6.142
 4024POPC   C2B53216  21.964  26.518   6.552
 4024POPC   C3B53217  22.039  26.248   6.886
 4024POPC   C4B53218  22.076  26.215   7.315
 4025POPC   NC353219  38.250   1.710   5.552
 4025POPC   PO453220  38.059   2.395   5.424
 4025POPC   GL153221  38.366   2.249   5.738
 4025POPC   GL253222  38.139   2.058   5.903
 4025POPC   C1A53223  38.495   2.122   6.222
 4025POPC   D2A53224  38.300   2.130   6.646
 4025POPC   C3A53225  38.631   2.140   6.958
 4025POPC   C4A53226  38.877   1.848   7.226
 4025POPC   C1B53227  38.099   1.772   6.255
 4025POPC   C2B53228  38.215   1.619   6.657
 4025POPC   C3B53229  38.266   1.791   7.099
 4025POPC   C4B53230  38.250   1.741   7.601
 4026POPC   NC353231  33.422  16.831   5.387
 4026POPC   PO453232  33.805  16.338   5.561
 4026POPC   GL153233  33.772  16.623   5.916
 4026POPC   GL253234  33.585  16.969   5.856
 4026POPC   C1A53235  33.914  16.664   6.366
 4026POPC   D2A53236  34.269  16.638   6.678
 4026POPC   C3A53237  34.087  16.753   7.056
 4026POPC   C4A53238  33.975  16.769   7.519
 4026POPC   C1B53239  33.405  16.792   6.210
 4026POPC   C2B53240  33.403  16.595   6.588
 4026POPC   C3B53241  33.652  16.813   6.816
 4026POPC   C4B53242  33.615  16.928   7.202
 4027POPC   NC353243   7.478   8.404   5.074
 4027POPC   PO453244   7.482   9.095   5.270
 4027POPC   GL153245   7.524   8.901   5.690
 4027POPC   GL253246   7.819   9.097   5.772
 4027POPC   C1A53247   7.291   8.959   6.098
 4027POPC   D2A53248   7.286   9.153   6.520
 4027POPC   C3A53249   7.356   8.953   6.921
 4027POPC   C4A53250   7.386   9.059   7.374
 4027POPC   C1B53251   7.776   8.965   6.195
 4027POPC   C2B53252   7.681   8.654   6.486
 4027POPC   C3B53253   7.777   8.660   6.906
 4027POPC   C4B53254   7.838   9.023   7.113
 4028POPC   NC353255  38.420   5.726   4.906
 4028POPC   PO453256  38.318   6.207   5.367
 4028POPC   GL153257  38.420   6.066   5.783
 4028POPC   GL253258  38.685   5.772   5.799
 4028POPC   C1A53259  38.179   6.127   6.174
 4028POPC   D2A53260  38.224   5.932   6.579
 4028POPC   C3A53261  38.159   6.150   6.960
 4028POPC   C4A53262  38.331   5.994   7.346
 4028POPC   C1B53263  38.606   5.812   6.206
 4028POPC   C2B53264  38.814   5.822   6.576
 4028POPC   C3B53265  38.606   5.862   6.927
 4028POPC   C4B53266  38.714   5.675   7.287
 4029POPC   NC353267  17.021  11.913   5.363
 4029POPC   PO453268  16.378  12.069   5.506
 4029POPC   GL153269  16.724  12.061   5.784
 4029POPC   GL253270  16.549  11.919   6.051
 4029POPC   C1A53271  16.985  12.202   6.145
 4029POPC   D2A53272  16.950  12.407   6.567
 4029POPC   C3A53273  16.863  12.142   6.912
 4029POPC   C4A53274  17.022  11.984   7.282
 4029POPC   C1B53275  16.462  12.306   6.311
 4029POPC   C2B53276  16.354  12.315   6.774
 4029POPC   C3B53277  16.400  12.110   7.190
 4029POPC   C4B53278  16.557  11.807   7.464
 4030POPC   NC353279   5.537   0.711   5.500
 4030POPC   PO453280   6.082   0.294   5.391
 4030POPC   GL153281   6.023   0.102   5.758
 4030POPC   GL253282   5.769   0.344   5.846
 4030POPC   C1A53283   6.067   0.067   6.196
 4030POPC   D2A53284   5.873   0.313   6.521
 4030POPC   C3A53285   5.996   0.262   6.964
 4030POPC   C4A53286   5.924   0.640   7.229
 4030POPC   C1B53287   5.489   0.549   6.124
 4030POPC   C2B53288   5.380   0.476   6.517
 4030POPC   C3B53289   5.549   0.515   6.909
 4030POPC   C4B53290   5.400   0.684   7.285
 4031POPC   NC353291   5.930  16.462   5.230
 4031POPC   PO453292   6.200  17.062   5.314
 4031POPC   GL153293   5.938  16.761   5.668
 4031POPC   GL253294   6.025  16.358   5.736
 4031POPC   C1A53295   5.722  16.644   6.099
 4031POPC   D2A53296   5.472  16.686   6.500
 4031POPC   C3A53297   5.679  16.759   6.904
 4031POPC   C4A53298   5.519  16.752   7.327
 4031POPC   C1B53299   5.900  16.175   6.178
 4031POPC   C2B53300   5.725  16.229   6.560
 4031POPC   C3B53301   5.895  16.258   6.907
 4031POPC   C4B53302   5.815  16.354   7.266
 4032POPC   NC353303  33.429  19.746   5.490
 4032POPC   PO453304  34.060  19.697   5.585
 4032POPC   GL153305  33.797  19.948   5.880
 4032POPC   GL253306  33.435  20.125   5.850
 4032POPC   C1A53307  33.973  19.953   6.296
 4032POPC   D2A53308  34.131  19.975   6.692
 4032POPC   C3A53309  34.109  19.595   6.950
 4032POPC   C4A53310  33.711  19.552   7.182
 4032POPC   C1B53311  33.511  20.207   6.299
 4032POPC   C2B53312  33.581  19.986   6.695
 4032POPC   C3B53313  33.539  20.086   7.117
 4032POPC   C4B53314  33.650  20.442   7.316
 4033POPC   NC353315  31.866   8.774   5.163
 4033POPC   PO453316  31.621   9.259   5.609
 4033POPC   GL153317  31.468   8.976   5.892
 4033POPC   GL253318  31.142   8.893   5.860
 4033POPC   C1A53319  31.674   9.068   6.291
 4033POPC   D2A53320  31.958   9.015   6.628
 4033POPC   C3A53321  31.853   9.173   7.010
 4033POPC   C4A53322  31.553   8.982   7.238
 4033POPC   C1B53323  31.152   9.101   6.261
 4033POPC   C2B53324  31.339   9.321   6.599
 4033POPC   C3B53325  31.198   9.184   6.968
 4033POPC   C4B53326  31.052   8.931   7.296
 4034POPC   NC353327  39.115   9.149   5.551
 4034POPC   PO453328  39.357   9.740   5.137
 4034POPC   GL153329  39.327   9.667   5.642
 4034POPC   GL253330  39.197   9.913   5.876
 4034POPC   C1A53331  39.341   9.458   6.086
 4034POPC   D2A53332  39.148   9.294   6.496
 4034POPC   C3A53333  39.173   9.551   6.894
 4034POPC   C4A53334  38.909   9.608   7.267
 4034POPC   C1B53335  39.312   9.908   6.342
 4034POPC   C2B53336  39.463   9.972   6.773
 4034POPC   C3B53337  39.198  10.020   7.136
 4034POPC   C4B53338  39.016  10.292   7.453
 4035POPC   NC353339  15.655   6.729   5.341
 4035POPC   PO453340  16.412   6.679   5.323
 4035POPC   GL153341  16.039   6.774   5.705
 4035POPC   GL253342  15.673   6.904   5.820
 4035POPC   C1A53343  15.916   6.608   6.167
 4035POPC   D2A53344  15.776   6.238   6.439
 4035POPC   C3A53345  15.848   6.285   6.916
 4035POPC   C4A53346  16.134   6.442   7.277
 4035POPC   C1B53347  15.574   7.033   6.277
 4035POPC   C2B53348  15.677   6.774   6.678
 4035POPC   C3B53349  15.712   6.740   7.140
 4035POPC   C4B53350  15.684   7.074   7.456
 4036POPC   NC353351  20.102  13.391   5.576
 4036POPC   PO453352  20.653  13.696   5.376
 4036POPC   GL153353  20.760  13.641   5.821
 4036POPC   GL253354  20.493  13.433   5.895
 4036POPC   C1A53355  20.721  13.748   6.293
 4036POPC   D2A53356  20.868  13.644   6.723
 4036POPC   C3A53357  20.644  13.769   7.090
 4036POPC   C4A53358  20.657  13.598   7.505
 4036POPC   C1B53359  20.238  13.568   6.240
 4036POPC   C2B53360  20.367  13.545   6.654
 4036POPC   C3B53361  20.155  13.559   7.007
 4036POPC   C4B53362  20.179  13.744   7.350
 4037POPC   NC353363  12.018  28.235   5.472
 4037POPC   PO453364  12.629  28.502   5.272
 4037POPC   GL153365  12.303  28.606   5.740
 4037POPC   GL253366  11.935  28.572   5.824
 4037POPC   C1A53367  12.304  28.428   6.211
 4037POPC   D2A53368  12.019  28.425   6.588
 4037POPC   C3A53369  12.222  28.381   6.991
 4037POPC   C4A53370  12.126  28.133   7.359
 4037POPC   C1B53371  11.937  28.760   6.179
 4037POPC   C2B53372  11.841  28.907   6.552
 4037POPC   C3B53373  11.819  28.732   6.941
 4037POPC   C4B53374  11.909  28.635   7.335
 4038POPC   NC353375  11.392  18.649   4.690
 4038POPC   PO453376  11.458  18.320   5.359
 4038POPC   GL153377  11.305  18.203   5.789
 4038POPC   GL253378  11.070  17.899   5.804
 4038POPC   C1A53379  11.467  18.320   6.193
 4038POPC   D2A53380  11.510  18.128   6.593
 4038POPC   C3A53381  11.312  18.360   6.911
 4038POPC   C4A53382  11.538  18.383   7.297
 4038POPC   C1B53383  11.070  17.980   6.251
 4038POPC   C2B53384  10.828  17.947   6.620
 4038POPC   C3B53385  10.849  18.081   7.035
 4038POPC   C4B53386  11.073  18.234   7.344
 4039POPC   NC353387  22.301  12.607   5.485
 4039POPC   PO453388  22.988  12.883   5.403
 4039POPC   GL153389  22.949  12.657   5.805
 4039POPC   GL253390  22.595  12.576   5.910
 4039POPC   C1A53391  22.981  12.746   6.250
 4039POPC   D2A53392  23.098  12.469   6.583
 4039POPC   C3A53393  23.069  12.721   6.932
 4039POPC   C4A53394  23.244  12.892   7.303
 4039POPC   C1B53395  22.538  12.975   6.106
 4039POPC   C2B53396  22.584  13.100   6.534
 4039POPC   C3B53397  22.486  13.043   6.983
 4039POPC   C4B53398  22.736  12.818   7.324
 4040POPC   NC353399  43.954  35.248   5.387
 4040POPC   PO453400  44.015  35.826   5.605
 4040POPC   GL153401  43.839  35.484   5.880
 4040POPC   GL253402  44.115  35.218   5.896
 4040POPC   C1A53403  43.868  35.306   6.343
 4040POPC   D2A53404  44.283  35.232   6.579
 4040POPC   C3A53405  44.213  35.280   7.012
 4040POPC   C4A53406  43.792  35.310   7.139
 4040POPC   C1B53407  43.776  34.928   6.012
 4040POPC   C2B53408  43.708  34.803   6.456
 4040POPC   C3B53409  43.556  34.958   6.877
 4040POPC   C4B53410  43.462  34.957   7.346
 4041POPC   NC353411  16.606  16.073   5.151
 4041POPC   PO453412  16.290  15.490   5.299
 4041POPC   GL153413  16.514  15.691   5.658
 4041POPC   GL253414  16.860  15.791   5.680
 4041POPC   C1A53415  16.610  15.658   6.118
 4041POPC   D2A53416  16.565  15.911   6.482
 4041POPC   C3A53417  16.581  15.742   6.905
 4041POPC   C4A53418  16.733  15.748   7.327
 4041POPC   C1B53419  16.962  16.051   6.087
 4041POPC   C2B53420  17.093  15.903   6.502
 4041POPC   C3B53421  17.022  16.021   6.940
 4041POPC   C4B53422  16.872  16.241   7.298
 4042POPC   NC353423  33.939   0.225   5.333
 4042POPC   PO453424  33.339   0.364   5.325
 4042POPC   GL153425  33.513   0.226   5.757
 4042POPC   GL253426  33.843   0.405   5.808
 4042POPC   C1A53427  33.571   0.364   6.232
 4042POPC   D2A53428  33.751   0.534   6.621
 4042POPC   C3A53429  33.642   0.362   7.033
 4042POPC   C4A53430  33.768   0.059   7.349
 4042POPC   C1B53431  34.085   0.450   6.212
 4042POPC   C2B53432  34.253   0.438   6.651
 4042POPC   C3B53433  34.150   0.414   7.093
 4042POPC   C4B53434  34.284   0.285   7.485
 4043POPC   NC353435  31.562  31.344   5.366
 4043POPC   PO453436  30.969  31.033   5.512
 4043POPC   GL153437  31.262  31.120   5.820
 4043POPC   GL253438  31.361  31.462   5.824
 4043POPC   C1A53439  31.281  31.152   6.262
 4043POPC   D2A53440  31.335  31.499   6.545
 4043POPC   C3A53441  31.508  31.466   6.966
 4043POPC   C4A53442  31.511  31.827   7.258
 4043POPC   C1B53443  31.658  31.613   6.137
 4043POPC   C2B53444  31.861  31.524   6.540
 4043POPC   C3B53445  31.961  31.699   6.930
 4043POPC   C4B53446  31.921  31.509   7.288
 4044POPC   NC353447  25.785  19.752   5.420
 4044POPC   PO453448  25.723  20.283   5.551
 4044POPC   GL153449  25.945  19.942   5.874
 4044POPC   GL253450  26.183  19.633   5.760
 4044POPC   C1A53451  25.918  19.861   6.342
 4044POPC   D2A53452  26.229  19.888   6.699
 4044POPC   C3A53453  26.089  20.127   7.087
 4044POPC   C4A53454  25.900  19.970   7.492
 4044POPC   C1B53455  26.177  19.443   6.186
 4044POPC   C2B53456  25.977  19.419   6.609
 4044POPC   C3B53457  25.867  19.666   6.981
 4044POPC   C4B53458  26.242  19.670   7.230
 4045POPC   NC353459   9.485  27.688   5.567
 4045POPC   PO453460   9.954  27.210   5.383
 4045POPC   GL153461  10.006  27.439   5.785
 4045POPC   GL253462   9.702  27.505   5.987
 4045POPC   C1A53463  10.114  27.373   6.236
 4045POPC   D2A53464   9.985  27.640   6.591
 4045POPC   C3A53465   9.755  27.461   6.929
 4045POPC   C4A53466   9.914  27.293   7.302
 4045POPC   C1B53467   9.819  27.893   6.190
 4045POPC   C2B53468   9.628  28.054   6.554
 4045POPC   C3B53469   9.784  27.994   6.944
 4045POPC   C4B53470   9.670  27.787   7.335
 4046POPC   NC353471  12.962  27.054   5.318
 4046POPC   PO453472  13.012  26.381   5.391
 4046POPC   GL153473  12.834  26.636   5.703
 4046POPC   GL253474  12.660  26.434   5.950
 4046POPC   C1A53475  12.988  26.817   6.096
 4046POPC   D2A53476  13.017  27.079   6.460
 4046POPC   C3A53477  12.788  26.939   6.810
 4046POPC   C4A53478  13.015  26.797   7.137
 4046POPC   C1B53479  12.605  26.623   6.386
 4046POPC   C2B53480  12.339  26.612   6.755
 4046POPC   C3B53481  12.445  26.636   7.183
 4046POPC   C4B53482  12.615  27.054   7.306
 4047POPC   NC353483  17.188   3.996   5.515
 4047POPC   PO453484  17.887   4.232   5.369
 4047POPC   GL153485  17.649   4.197   5.720
 4047POPC   GL253486  17.419   4.466   5.748
 4047POPC   C1A53487  17.783   4.244   6.121
 4047POPC   D2A53488  17.677   4.379   6.502
 4047POPC   C3A53489  17.758   4.199   6.897
 4047POPC   C4A53490  17.572   4.203   7.296
 4047POPC   C1B53491  17.266   4.341   6.160
 4047POPC   C2B53492  17.166   4.244   6.591
 4047POPC   C3B53493  17.170   4.345   7.036
 4047POPC   C4B53494  16.970   4.071   7.366
 4048POPC   NC353495  21.529  42.138   5.583
 4048POPC   PO453496  21.355  41.455   5.470
 4048POPC   GL153497  21.148  41.497   5.855
 4048POPC   GL253498  21.282  41.819   5.879
 4048POPC   C1A53499  21.286  41.543   6.297
 4048POPC   D2A53500  21.494  41.641   6.674
 4048POPC   C3A53501  21.208  41.594   6.994
 4048POPC   C4A53502  21.328  41.401   7.365
 4048POPC   C1B53503  21.370  42.054   6.249
 4048POPC   C2B53504  21.157  42.018   6.630
 4048POPC   C3B53505  21.384  42.098   6.980
 4048POPC   C4B53506  21.460  41.887   7.339
 4049POPC   NC353507  15.398   6.032   4.968
 4049POPC   PO453508  15.064   5.791   5.441
 4049POPC   GL153509  15.295   5.682   5.823
 4049POPC   GL253510  15.048   5.872   5.953
 4049POPC   C1A53511  15.394   5.694   6.281
 4049POPC   D2A53512  15.429   5.570   6.721
 4049POPC   C3A53513  15.420   5.925   6.975
 4049POPC   C4A53514  15.186   5.930   7.324
 4049POPC   C1B53515  14.775   5.675   6.223
 4049POPC   C2B53516  14.609   5.653   6.648
 4049POPC   C3B53517  14.862   5.665   6.998
 4049POPC   C4B53518  14.875   5.472   7.378
 4050POPC   NC353519   9.680  10.888   5.230
 4050POPC   PO453520   9.912  11.058   5.816
 4050POPC   GL153521   9.641  11.275   6.086
 4050POPC   GL253522   9.578  11.545   5.856
 4050POPC   C1A53523   9.759  11.349   6.518
 4050POPC   D2A53524  10.174  11.236   6.698
 4050POPC   C3A53525  10.052  11.061   7.091
 4050POPC   C4A53526   9.597  10.957   7.110
 4050POPC   C1B53527   9.846  11.763   6.202
 4050POPC   C2B53528  10.072  11.755   6.640
 4050POPC   C3B53529   9.871  11.549   7.010
 4050POPC   C4B53530   9.429  11.451   7.116
 4051POPC   NC353531  26.262  19.026   5.294
 4051POPC   PO453532  26.925  19.214   5.338
 4051POPC   GL153533  26.840  19.003   5.715
 4051POPC   GL253534  26.537  19.188   5.710
 4051POPC   C1A53535  27.016  19.096   6.152
 4051POPC   D2A53536  26.870  18.995   6.567
 4051POPC   C3A53537  26.967  19.196   6.968
 4051POPC   C4A53538  26.811  19.058   7.341
 4051POPC   C1B53539  26.521  19.040   6.155
 4051POPC   C2B53540  26.349  19.076   6.562
 4051POPC   C3B53541  26.448  19.252   6.994
 4051POPC   C4B53542  26.340  19.229   7.454
 4052POPC   NC353543  28.427  25.804   5.109
 4052POPC   PO453544  28.809  26.212   5.494
 4052POPC   GL153545  28.531  26.070   5.816
 4052POPC   GL253546  28.176  26.015   5.751
 4052POPC   C1A53547  28.476  25.943   6.244
 4052POPC   D2A53548  28.642  26.149   6.595
 4052POPC   C3A53549  28.581  25.941   6.956
 4052POPC   C4A53550  28.603  26.034   7.379
 4052POPC   C1B53551  27.984  25.885   6.146
 4052POPC   C2B53552  28.066  25.995   6.586
 4052POPC   C3B53553  28.133  26.153   7.005
 4052POPC   C4B53554  28.137  25.875   7.370
 4053POPC   NC353555  17.246  24.522   5.394
 4053POPC   PO453556  17.819  24.282   5.466
 4053POPC   GL153557  17.577  24.473   5.802
 4053POPC   GL253558  17.660  24.801   5.897
 4053POPC   C1A53559  17.691  24.414   6.245
 4053POPC   D2A53560  17.868  24.476   6.648
 4053POPC   C3A53561  17.607  24.315   6.960
 4053POPC   C4A53562  17.483  24.483   7.338
 4053POPC   C1B53563  17.693  24.936   6.317
 4053POPC   C2B53564  17.789  24.974   6.747
 4053POPC   C3B53565  17.425  24.948   7.010
 4053POPC   C4B53566  17.171  24.894   7.355
 4054POPC   NC353567  29.647  21.443   5.466
 4054POPC   PO453568  30.281  21.492   5.294
 4054POPC   GL153569  30.137  21.526   5.743
 4054POPC   GL253570  29.941  21.202   5.836
 4054POPC   C1A53571  30.128  21.482   6.218
 4054POPC   D2A53572  29.818  21.458   6.542
 4054POPC   C3A53573  29.856  21.553   6.976
 4054POPC   C4A53574  30.089  21.635   7.359
 4054POPC   C1B53575  30.158  20.961   6.205
 4054POPC   C2B53576  30.324  20.943   6.644
 4054POPC   C3B53577  30.122  21.075   7.036
 4054POPC   C4B53578  30.004  20.852   7.413
 4055POPC   NC353579  41.294  33.885   5.516
 4055POPC   PO453580  41.891  34.108   5.301
 4055POPC   GL153581  41.765  34.029   5.761
 4055POPC   GL253582  41.859  33.707   5.965
 4055POPC   C1A53583  41.815  34.146   6.222
 4055POPC   D2A53584  41.712  33.889   6.605
 4055POPC   C3A53585  41.512  34.072   6.978
 4055POPC   C4A53586  41.140  34.126   7.270
 4055POPC   C1B53587  41.648  33.464   6.283
 4055POPC   C2B53588  41.757  33.365   6.697
 4055POPC   C3B53589  41.697  33.574   7.058
 4055POPC   C4B53590  41.269  33.652   7.126
 4056POPC   NC353591  19.088  40.353   5.370
 4056POPC   PO453592  19.264  39.760   5.468
 4056POPC   GL153593  19.249  40.098   5.790
 4056POPC   GL253594  18.880  40.258   5.829
 4056POPC   C1A53595  19.191  40.118   6.249
 4056POPC   D2A53596  19.059  39.943   6.616
 4056POPC   C3A53597  19.266  40.091   6.947
 4056POPC   C4A53598  19.241  40.000   7.368
 4056POPC   C1B53599  18.750  40.349   6.254
 4056POPC   C2B53600  18.915  40.463   6.682
 4056POPC   C3B53601  18.835  40.396   7.146
 4056POPC   C4B53602  18.958  40.357   7.608
 4057POPC   NC353603  29.313  40.459   5.308
 4057POPC   PO453604  29.150  39.835   5.581
 4057POPC   GL153605  29.468  39.969   5.863
 4057POPC   GL253606  29.414  40.339   5.834
 4057POPC   C1A53607  29.544  39.760   6.293
 4057POPC   D2A53608  29.183  39.567   6.552
 4057POPC   C3A53609  28.981  39.807   6.908
 4057POPC   C4A53610  29.220  39.962   7.249
 4057POPC   C1B53611  29.306  40.214   6.295
 4057POPC   C2B53612  29.380  40.161   6.759
 4057POPC   C3B53613  29.169  40.413   7.083
 4057POPC   C4B53614  28.906  40.296   7.455
 4058POPC   NC353615  15.438  41.197   5.312
 4058POPC   PO453616  15.268  41.769   5.068
 4058POPC   GL153617  15.267  41.802   5.613
 4058POPC   GL253618  15.292  41.491   5.825
 4058POPC   C1A53619  15.170  41.911   6.139
 4058POPC   D2A53620  15.186  41.829   6.665
 4058POPC   C3A53621  14.932  41.612   7.068
 4058POPC   C4A53622  14.905  41.635   7.550
 4058POPC   C1B53623  15.215  41.414   6.303
 4058POPC   C2B53624  15.139  41.283   6.740
 4058POPC   C3B53625  15.337  41.301   7.157
 4058POPC   C4B53626  15.403  41.332   7.615
 4059POPC   NC353627  27.918  43.132   5.248
 4059POPC   PO453628  27.309  42.944   5.542
 4059POPC   GL153629  27.632  43.157   5.803
 4059POPC   GL253630  27.884  42.920   5.779
 4059POPC   C1A53631  27.750  43.148   6.260
 4059POPC   D2A53632  27.961  43.095   6.665
 4059POPC   C3A53633  27.783  43.417   6.917
 4059POPC   C4A53634  27.376  43.319   7.082
 4059POPC   C1B53635  27.590  42.701   6.102
 4059POPC   C2B53636  27.696  42.656   6.535
 4059POPC   C3B53637  27.558  42.787   6.953
 4059POPC   C4B53638  27.728  42.640   7.330
 4060POPC   NC353639   3.384  14.052   5.393
 4060POPC   PO453640   3.666  13.424   5.364
 4060POPC   GL153641   3.578  13.665   5.756
 4060POPC   GL253642   3.801  13.935   5.845
 4060POPC   C1A53643   3.499  13.572   6.218
 4060POPC   D2A53644   3.670  13.374   6.615
 4060POPC   C3A53645   3.548  13.502   7.024
 4060POPC   C4A53646   3.772  13.649   7.371
 4060POPC   C1B53647   3.609  14.083   6.228
 4060POPC   C2B53648   3.467  13.882   6.642
 4060POPC   C3B53649   3.502  14.021   7.065
 4060POPC   C4B53650   3.823  14.178   7.327
 4061POPC   NC353651  20.954  30.811   5.487
 4061POPC   PO453652  20.432  30.347   5.427
 4061POPC   GL153653  20.523  30.603   5.731
 4061POPC   GL253654  20.415  30.906   5.547
 4061POPC   C1A53655  20.696  30.577   6.157
 4061POPC   D2A53656  20.506  30.548   6.583
 4061POPC   C3A53657  20.715  30.468   6.976
 4061POPC   C4A53658  20.488  30.461   7.300
 4061POPC   C1B53659  20.445  31.042   5.972
 4061POPC   C2B53660  20.606  31.019   6.403
 4061POPC   C3B53661  20.593  31.027   6.857
 4061POPC   C4B53662  20.694  30.923   7.280
 4062POPC   NC353663  21.433  35.498   5.300
 4062POPC   PO453664  20.943  35.038   5.469
 4062POPC   GL153665  21.124  35.349   5.770
 4062POPC   GL253666  21.314  35.653   5.795
 4062POPC   C1A53667  21.239  35.331   6.202
 4062POPC   D2A53668  21.370  35.308   6.616
 4062POPC   C3A53669  21.096  35.319   6.960
 4062POPC   C4A53670  21.101  35.154   7.361
 4062POPC   C1B53671  21.598  35.730   6.157
 4062POPC   C2B53672  21.568  35.905   6.571
 4062POPC   C3B53673  21.454  35.727   6.944
 4062POPC   C4B53674  21.496  35.483   7.305
 4063POPC   NC353675  18.690  27.863   5.399
 4063POPC   PO453676  19.356  27.557   5.426
 4063POPC   GL153677  19.037  27.644   5.725
 4063POPC   GL253678  19.263  27.655   5.999
 4063POPC   C1A53679  18.760  27.680   6.098
 4063POPC   D2A53680  18.904  27.575   6.502
 4063POPC   C3A53681  18.795  27.668   6.949
 4063POPC   C4A53682  19.031  27.667   7.362
 4063POPC   C1B53683  19.417  27.717   6.414
 4063POPC   C2B53684  19.299  27.701   6.826
 4063POPC   C3B53685  19.467  27.878   7.187
 4063POPC   C4B53686  19.535  27.730   7.609
 4064POPC   NC353687  44.656  25.818   4.988
 4064POPC   PO453688  44.470  26.032   5.570
 4064POPC   GL153689  44.608  26.076   5.927
 4064POPC   GL253690  44.750  25.793   5.947
 4064POPC   C1A53691  44.569  26.112   6.331
 4064POPC   D2A53692  44.459  25.969   6.698
 4064POPC   C3A53693  44.753  26.127   6.972
 4064POPC   C4A53694  44.783  26.042   7.379
 4064POPC   C1B53695  44.400  25.639   6.196
 4064POPC   C2B53696  44.289  25.481   6.599
 4064POPC   C3B53697  44.330  25.587   7.033
 4064POPC   C4B53698  44.444  25.661   7.455
 4065POPC   NC353699  31.616  14.943   5.129
 4065POPC   PO453700  31.383  14.366   5.441
 4065POPC   GL153701  31.471  14.374   5.833
 4065POPC   GL253702  31.248  14.652   5.849
 4065POPC   C1A53703  31.532  14.205   6.246
 4065POPC   D2A53704  31.310  14.265   6.625
 4065POPC   C3A53705  31.357  14.326   7.031
 4065POPC   C4A53706  31.349  14.089   7.408
 4065POPC   C1B53707  31.404  14.713   6.212
 4065POPC   C2B53708  31.604  14.685   6.581
 4065POPC   C3B53709  31.828  14.670   6.942
 4065POPC   C4B53710  31.583  14.788   7.273
 4066POPC   NC353711  43.198  23.455   5.368
 4066POPC   PO453712  42.600  23.805   5.269
 4066POPC   GL153713  42.794  23.545   5.675
 4066POPC   GL253714  43.114  23.719   5.816
 4066POPC   C1A53715  42.876  23.429   6.148
 4066POPC   D2A53716  42.867  23.651   6.572
 4066POPC   C3A53717  43.005  23.531   6.993
 4066POPC   C4A53718  43.244  23.892   7.145
 4066POPC   C1B53719  43.329  23.685   6.253
 4066POPC   C2B53720  43.478  23.488   6.671
 4066POPC   C3B53721  43.529  23.474   7.148
 4066POPC   C4B53722  43.214  23.539   7.514
 4067POPC   NC353723  26.517   2.346   5.638
 4067POPC   PO453724  27.080   1.975   5.362
 4067POPC   GL153725  26.915   2.068   5.767
 4067POPC   GL253726  27.018   2.434   5.698
 4067POPC   C1A53727  26.827   1.966   6.231
 4067POPC   D2A53728  26.622   1.734   6.579
 4067POPC   C3A53729  26.789   1.820   6.968
 4067POPC   C4A53730  26.604   2.053   7.280
 4067POPC   C1B53731  27.231   2.299   6.070
 4067POPC   C2B53732  27.271   2.175   6.479
 4067POPC   C3B53733  27.378   2.309   6.863
 4067POPC   C4B53734  27.186   2.280   7.245
 4068POPC   NC353735  35.089  23.981   5.530
 4068POPC   PO453736  35.312  24.570   5.273
 4068POPC   GL153737  35.310  24.419   5.718
 4068POPC   GL253738  34.943  24.371   5.816
 4068POPC   C1A53739  35.485  24.565   6.155
 4068POPC   D2A53740  35.759  24.570   6.538
 4068POPC   C3A53741  35.551  24.655   6.932
 4068POPC   C4A53742  35.386  24.540   7.360
 4068POPC   C1B53743  35.183  24.144   6.161
 4068POPC   C2B53744  35.347  24.264   6.564
 4068POPC   C3B53745  35.187  24.289   6.963
 4068POPC   C4B53746  34.999  24.226   7.359
 4069POPC   NC353747  15.406  27.846   5.191
 4069POPC   PO453748  14.982  27.402   5.431
 4069POPC   GL153749  15.255  27.621   5.693
 4069POPC   GL253750  15.614  27.596   5.666
 4069POPC   C1A53751  15.254  27.747   6.110
 4069POPC   D2A53752  15.002  27.691   6.474
 4069POPC   C3A53753  15.188  27.770   6.838
 4069POPC   C4A53754  15.076  27.752   7.234
 4069POPC   C1B53755  15.596  27.371   6.068
 4069POPC   C2B53756  15.750  27.460   6.478
 4069POPC   C3B53757  15.650  27.350   6.889
 4069POPC   C4B53758  15.552  27.602   7.182
 4070POPC   NC353759  13.977  13.488   5.331
 4070POPC   PO453760  13.379  13.373   5.468
 4070POPC   GL153761  13.664  13.640   5.715
 4070POPC   GL253762  13.615  13.985   5.741
 4070POPC   C1A53763  13.762  13.502   6.131
 4070POPC   D2A53764  13.449  13.444   6.467
 4070POPC   C3A53765  13.632  13.354   6.874
 4070POPC   C4A53766  13.653  13.532   7.282
 4070POPC   C1B53767  13.617  13.970   6.188
 4070POPC   C2B53768  13.830  13.765   6.558
 4070POPC   C3B53769  13.626  13.884   6.911
 4070POPC   C4B53770  13.718  14.055   7.284
 4071POPC   NC353771  34.405  35.863   5.488
 4071POPC   PO453772  34.883  36.424   5.488
 4071POPC   GL153773  34.732  36.165   5.776
 4071POPC   GL253774  34.990  35.941   5.691
 4071POPC   C1A53775  34.542  36.161   6.189
 4071POPC   D2A53776  34.333  35.991   6.551
 4071POPC   C3A53777  34.361  36.234   6.917
 4071POPC   C4A53778  34.433  35.998   7.277
 4071POPC   C1B53779  34.993  35.891   6.142
 4071POPC   C2B53780  34.825  35.905   6.567
 4071POPC   C3B53781  34.861  36.061   6.986
 4071POPC   C4B53782  34.919  35.825   7.361
 4072POPC   NC353783  36.260  13.810   5.618
 4072POPC   PO453784  35.623  14.020   5.516
 4072POPC   GL153785  35.796  13.626   5.758
 4072POPC   GL253786  36.080  13.380   5.824
 4072POPC   C1A53787  35.836  13.566   6.228
 4072POPC   D2A53788  35.837  13.847   6.597
 4072POPC   C3A53789  35.929  13.686   7.043
 4072POPC   C4A53790  36.033  13.391   7.388
 4072POPC   C1B53791  36.381  13.496   6.180
 4072POPC   C2B53792  36.394  13.813   6.506
 4072POPC   C3B53793  36.383  13.906   6.945
 4072POPC   C4B53794  36.490  13.567   7.228
 4073POPC   NC353795  13.008  43.471   5.447
 4073POPC   PO453796  12.905  42.859   5.380
 4073POPC   GL153797  13.066  42.863   5.791
 4073POPC   GL253798  12.726  42.776   5.876
 4073POPC   C1A53799  13.134  43.095   6.210
 4073POPC   D2A53800  12.997  42.977   6.643
 4073POPC   C3A53801  13.180  43.132   7.039
 4073POPC   C4A53802  13.054  43.076   7.461
 4073POPC   C1B53803  12.602  42.914   6.274
 4073POPC   C2B53804  12.550  43.250   6.557
 4073POPC   C3B53805  12.677  43.229   6.966
 4073POPC   C4B53806  12.762  42.827   7.114
 4074POPC   NC353807  41.630  20.001   5.347
 4074POPC   PO453808  41.818  19.453   5.572
 4074POPC   GL153809  41.646  19.842   5.824
 4074POPC   GL253810  41.892  20.095   5.824
 4074POPC   C1A53811  41.412  20.057   6.178
 4074POPC   D2A53812  41.337  19.848   6.576
 4074POPC   C3A53813  41.322  20.057   6.991
 4074POPC   C4A53814  41.250  19.876   7.419
 4074POPC   C1B53815  41.873  19.876   6.280
 4074POPC   C2B53816  41.816  19.783   6.747
 4074POPC   C3B53817  41.726  19.795   7.187
 4074POPC   C4B53818  41.759  19.746   7.647
 4075POPC   NC353819  43.803  40.257   5.400
 4075POPC   PO453820  43.997  39.652   5.193
 4075POPC   GL153821  43.958  39.884   5.674
 4075POPC   GL253822  44.189  40.121   5.745
 4075POPC   C1A53823  43.800  39.913   6.092
 4075POPC   D2A53824  43.644  40.155   6.444
 4075POPC   C3A53825  43.675  39.911   6.816
 4075POPC   C4A53826  43.763  40.103   7.179
 4075POPC   C1B53827  44.315  39.928   6.128
 4075POPC   C2B53828  44.115  39.930   6.531
 4075POPC   C3B53829  44.230  40.133   6.926
 4075POPC   C4B53830  44.244  39.984   7.339
 4076POPC   NC353831  23.880  25.912   5.270
 4076POPC   PO453832  23.227  25.962   5.491
 4076POPC   GL153833  23.619  26.095   5.687
 4076POPC   GL253834  23.720  25.797   5.808
 4076POPC   C1A53835  23.660  26.227   6.126
 4076POPC   D2A53836  23.348  26.328   6.441
 4076POPC   C3A53837  23.424  26.134   6.825
 4076POPC   C4A53838  23.622  26.101   7.192
 4076POPC   C1B53839  23.903  25.788   6.230
 4076POPC   C2B53840  23.875  25.951   6.653
 4076POPC   C3B53841  23.963  25.751   7.059
 4076POPC   C4B53842  23.759  25.673   7.471
 4077POPC   NC353843   6.060  34.579   5.469
 4077POPC   PO453844   5.317  34.486   5.475
 4077POPC   GL153845   5.655  34.510   5.757
 4077POPC   GL253846   5.706  34.867   5.855
 4077POPC   C1A53847   5.868  34.393   6.148
 4077POPC   D2A53848   5.863  34.522   6.601
 4077POPC   C3A53849   5.748  34.271   6.972
 4077POPC   C4A53850   5.920  34.377   7.389
 4077POPC   C1B53851   5.535  34.772   6.293
 4077POPC   C2B53852   5.411  34.753   6.759
 4077POPC   C3B53853   5.592  34.728   7.189
 4077POPC   C4B53854   5.850  34.873   7.575
 4078POPC   NC353855  41.434  30.392   5.513
 4078POPC   PO453856  41.713  31.005   5.591
 4078POPC   GL153857  41.617  30.731   5.900
 4078POPC   GL253858  41.852  30.435   5.957
 4078POPC   C1A53859  41.675  30.757   6.323
 4078POPC   D2A53860  41.797  30.440   6.600
 4078POPC   C3A53861  41.710  30.685   6.937
 4078POPC   C4A53862  41.776  30.693   7.346
 4078POPC   C1B53863  41.465  30.306   6.178
 4078POPC   C2B53864  41.281  30.380   6.586
 4078POPC   C3B53865  41.414  30.272   6.977
 4078POPC   C4B53866  41.334  30.329   7.402
 4079POPC   NC353867  23.909  14.790   5.369
 4079POPC   PO453868  23.454  15.218   5.513
 4079POPC   GL153869  23.470  15.186   5.920
 4079POPC   GL253870  23.782  15.389   5.937
 4079POPC   C1A53871  23.646  15.040   6.313
 4079POPC   D2A53872  24.005  15.054   6.579
 4079POPC   C3A53873  23.901  15.256   6.981
 4079POPC   C4A53874  23.535  15.169   7.214
 4079POPC   C1B53875  23.453  15.656   6.119
 4079POPC   C2B53876  23.201  15.560   6.457
 4079POPC   C3B53877  23.453  15.510   6.822
 4079POPC   C4B53878  23.414  15.681   7.213
 4080POPC   NC353879  42.851  14.673   5.309
 4080POPC   PO453880  43.136  14.153   5.514
 4080POPC   GL153881  42.960  14.258   5.871
 4080POPC   GL253882  42.912  14.611   5.813
 4080POPC   C1A53883  42.786  14.423   6.272
 4080POPC   D2A53884  42.815  14.587   6.693
 4080POPC   C3A53885  42.998  14.329   6.938
 4080POPC   C4A53886  43.084  14.254   7.336
 4080POPC   C1B53887  43.246  14.600   6.135
 4080POPC   C2B53888  43.303  14.429   6.554
 4080POPC   C3B53889  43.485  14.396   7.006
 4080POPC   C4B53890  43.566  14.139   7.382
 4081POPC   NC353891  27.048  34.296   5.294
 4081POPC   PO453892  26.809  34.947   5.359
 4081POPC   GL153893  26.815  34.639   5.690
 4081POPC   GL253894  26.984  34.304   5.779
 4081POPC   C1A53895  26.912  34.680   6.130
 4081POPC   D2A53896  26.661  34.557   6.489
 4081POPC   C3A53897  26.759  34.827   6.806
 4081POPC   C4A53898  26.841  34.804   7.221
 4081POPC   C1B53899  26.844  34.184   6.167
 4081POPC   C2B53900  27.060  34.232   6.559
 4081POPC   C3B53901  26.972  34.355   6.993
 4081POPC   C4B53902  26.702  34.255   7.365
 4082POPC   NC353903  34.138  30.691   5.625
 4082POPC   PO453904  34.673  30.764   5.153
 4082POPC   GL153905  34.681  30.715   5.638
 4082POPC   GL253906  34.555  30.424   5.804
 4082POPC   C1A53907  34.573  30.959   6.039
 4082POPC   D2A53908  34.529  31.111   6.468
 4082POPC   C3A53909  34.633  30.985   6.878
 4082POPC   C4A53910  34.569  30.742   7.234
 4082POPC   C1B53911  34.509  30.509   6.268
 4082POPC   C2B53912  34.573  30.488   6.724
 4082POPC   C3B53913  34.723  30.276   7.089
 4082POPC   C4B53914  34.645  30.291   7.557
 4083POPC   NC353915  18.763  25.163   5.319
 4083POPC   PO453916  19.441  25.207   5.467
 4083POPC   GL153917  19.159  25.256   5.806
 4083POPC   GL253918  18.947  25.562   5.906
 4083POPC   C1A53919  19.300  25.350   6.215
 4083POPC   D2A53920  19.195  25.183   6.592
 4083POPC   C3A53921  19.301  25.333   6.976
 4083POPC   C4A53922  19.103  25.099   7.302
 4083POPC   C1B53923  18.779  25.335   6.315
 4083POPC   C2B53924  18.777  25.368   6.806
 4083POPC   C3B53925  18.625  25.208   7.201
 4083POPC   C4B53926  18.624  25.199   7.667
 4084POPC   NC353927  38.025  40.060   5.345
 4084POPC   PO453928  38.620  40.231   5.093
 4084POPC   GL153929  38.487  40.137   5.580
 4084POPC   GL253930  38.395  39.840   5.750
 4084POPC   C1A53931  38.459  40.198   6.087
 4084POPC   D2A53932  38.408  39.922   6.479
 4084POPC   C3A53933  38.601  40.083   6.866
 4084POPC   C4A53934  38.527  40.289   7.266
 4084POPC   C1B53935  38.735  39.750   6.081
 4084POPC   C2B53936  38.751  39.519   6.492
 4084POPC   C3B53937  38.616  39.525   6.900
 4084POPC   C4B53938  38.668  39.734   7.261
 4085POPC   NC353939  43.487  42.452   5.379
 4085POPC   PO453940  44.100  42.064   5.329
 4085POPC   GL153941  43.937  42.354   5.675
 4085POPC   GL253942  43.680  42.158   5.810
 4085POPC   C1A53943  43.989  42.329   6.174
 4085POPC   D2A53944  43.684  42.420   6.550
 4085POPC   C3A53945  43.819  42.434   7.006
 4085POPC   C4A53946  43.773  42.443   7.473
 4085POPC   C1B53947  43.562  42.021   6.223
 4085POPC   C2B53948  43.711  41.899   6.661
 4085POPC   C3B53949  43.519  42.007   7.104
 4085POPC   C4B53950  43.481  42.021   7.599
 4086POPC   NC353951  32.783   8.386   5.069
 4086POPC   PO453952  33.235   8.044   5.435
 4086POPC   GL153953  33.290   8.276   5.850
 4086POPC   GL253954  33.391   8.622   5.881
 4086POPC   C1A53955  33.053   8.408   6.229
 4086POPC   D2A53956  32.814   8.145   6.508
 4086POPC   C3A53957  32.939   8.122   6.919
 4086POPC   C4A53958  33.247   7.999   7.218
 4086POPC   C1B53959  33.566   8.407   6.273
 4086POPC   C2B53960  33.346   8.280   6.650
 4086POPC   C3B53961  33.289   8.474   7.051
 4086POPC   C4B53962  33.525   8.474   7.410
 4087POPC   NC353963  17.155  13.812   5.441
 4087POPC   PO453964  16.454  13.796   5.359
 4087POPC   GL153965  16.637  13.658   5.774
 4087POPC   GL253966  16.934  13.428   5.747
 4087POPC   C1A53967  16.948  13.814   6.111
 4087POPC   D2A53968  17.157  13.710   6.516
 4087POPC   C3A53969  16.924  13.787   6.896
 4087POPC   C4A53970  16.757  13.564   7.214
 4087POPC   C1B53971  16.925  13.312   6.205
 4087POPC   C2B53972  16.834  13.337   6.666
 4087POPC   C3B53973  17.056  13.188   7.055
 4087POPC   C4B53974  17.061  13.254   7.543
 4088POPC   NC353975  35.106   1.205   5.542
 4088POPC   PO453976  35.724   1.388   5.414
 4088POPC   GL153977  35.541   1.356   5.817
 4088POPC   GL253978  35.474   1.029   5.900
 4088POPC   C1A53979  35.524   1.343   6.293
 4088POPC   D2A53980  35.506   1.060   6.649
 4088POPC   C3A53981  35.493   1.088   7.116
 4088POPC   C4A53982  35.488   1.382   7.468
 4088POPC   C1B53983  35.206   0.886   6.244
 4088POPC   C2B53984  35.077   0.802   6.693
 4088POPC   C3B53985  35.015   0.820   7.151
 4088POPC   C4B53986  35.250   0.902   7.538
 4089POPC   NC353987  18.566  26.118   5.324
 4089POPC   PO453988  18.100  25.597   5.148
 4089POPC   GL153989  18.221  25.779   5.598
 4089POPC   GL253990  18.552  25.884   5.766
 4089POPC   C1A53991  18.043  25.786   6.048
 4089POPC   D2A53992  18.081  26.060   6.441
 4089POPC   C3A53993  17.972  25.933   6.834
 4089POPC   C4A53994  17.959  25.790   7.229
 4089POPC   C1B53995  18.384  26.200   6.047
 4089POPC   C2B53996  18.491  26.337   6.530
 4089POPC   C3B53997  18.370  26.222   6.992
 4089POPC   C4B53998  18.291  26.122   7.440
 4090POPC   NC353999   5.234   1.946   5.215
 4090POPC   PO454000   4.988   2.307   5.748
 4090POPC   GL154001   4.988   1.980   5.977
 4090POPC   GL254002   5.210   1.783   5.811
 4090POPC   C1A54003   4.849   1.771   6.329
 4090POPC   D2A54004   4.569   1.655   6.587
 4090POPC   C3A54005   4.673   1.965   6.884
 4090POPC   C4A54006   4.883   1.917   7.264
 4090POPC   C1B54007   5.369   1.794   6.278
 4090POPC   C2B54008   5.182   1.874   6.724
 4090POPC   C3B54009   5.096   2.266   6.970
 4090POPC   C4B54010   5.358   2.466   7.277
 4091POPC   NC354011   9.298  10.238   5.370
 4091POPC   PO454012   9.923  10.490   5.298
 4091POPC   GL154013   9.659  10.545   5.664
 4091POPC   GL254014   9.601  10.195   5.781
 4091POPC   C1A54015   9.533  10.623   6.123
 4091POPC   D2A54016   9.529  10.826   6.567
 4091POPC   C3A54017   9.761  10.548   6.873
 4091POPC   C4A54018   9.905  10.322   7.242
 4091POPC   C1B54019   9.267  10.163   6.098
 4091POPC   C2B54020   9.266  10.054   6.544
 4091POPC   C3B54021   9.428  10.151   6.979
 4091POPC   C4B54022   9.380  10.493   7.278
 4092POPC   NC354023  27.505   1.833   5.182
 4092POPC   PO454024  27.931   2.350   5.425
 4092POPC   GL154025  27.676   2.305   5.787
 4092POPC   GL254026  27.445   2.001   5.736
 4092POPC   C1A54027  27.701   2.095   6.187
 4092POPC   D2A54028  27.657   1.826   6.548
 4092POPC   C3A54029  27.800   2.013   6.921
 4092POPC   C4A54030  27.695   2.273   7.270
 4092POPC   C1B54031  27.301   1.764   6.138
 4092POPC   C2B54032  27.156   1.671   6.588
 4092POPC   C3B54033  27.307   1.801   7.007
 4092POPC   C4B54034  27.509   1.831   7.409
 4093POPC   NC354035   5.876  31.307   5.518
 4093POPC   PO454036   5.555  31.951   5.420
 4093POPC   GL154037   5.800  31.739   5.776
 4093POPC   GL254038   5.742  31.424   5.984
 4093POPC   C1A54039   6.011  31.769   6.200
 4093POPC   D2A54040   5.998  31.438   6.508
 4093POPC   C3A54041   5.924  31.587   6.916
 4093POPC   C4A54042   5.559  31.627   7.143
 4093POPC   C1B54043   5.541  31.270   6.336
 4093POPC   C2B54044   5.580  31.191   6.791
 4093POPC   C3B54045   5.772  31.164   7.192
 4093POPC   C4B54046   5.758  30.987   7.586
 4094POPC   NC354047  23.684   6.507   5.529
 4094POPC   PO454048  23.905   7.119   5.287
 4094POPC   GL154049  23.885   6.892   5.774
 4094POPC   GL254050  23.556   6.781   5.936
 4094POPC   C1A54051  23.879   6.668   6.272
 4094POPC   D2A54052  23.530   6.808   6.542
 4094POPC   C3A54053  23.666   6.889   6.994
 4094POPC   C4A54054  23.916   6.563   7.214
 4094POPC   C1B54055  23.436   6.433   6.141
 4094POPC   C2B54056  23.498   6.296   6.530
 4094POPC   C3B54057  23.480   6.430   6.920
 4094POPC   C4B54058  23.503   6.331   7.338
 4095POPC   NC354059   1.199  31.683   5.351
 4095POPC   PO454060   0.769  31.150   5.376
 4095POPC   GL154061   1.012  31.394   5.728
 4095POPC   GL254062   1.287  31.198   5.834
 4095POPC   C1A54063   1.286  31.616   6.103
 4095POPC   D2A54064   1.245  31.804   6.514
 4095POPC   C3A54065   1.290  31.482   6.840
 4095POPC   C4A54066   1.197  31.448   7.268
 4095POPC   C1B54067   1.018  31.146   6.187
 4095POPC   C2B54068   1.069  31.002   6.592
 4095POPC   C3B54069   0.928  31.107   7.010
 4095POPC   C4B54070   0.853  31.143   7.478
 4096POPC   NC354071  27.641  41.670   5.319
 4096POPC   PO454072  27.505  41.198   5.779
 4096POPC   GL154073  27.447  41.546   6.054
 4096POPC   GL254074  27.710  41.748   5.972
 4096POPC   C1A54075  27.213  41.681   6.422
 4096POPC   D2A54076  27.199  41.883   6.823
 4096POPC   C3A54077  27.507  41.695   7.085
 4096POPC   C4A54078  27.457  41.272   7.267
 4096POPC   C1B54079  27.877  41.510   6.353
 4096POPC   C2B54080  27.874  41.416   6.816
 4096POPC   C3B54081  27.958  41.352   7.262
 4096POPC   C4B54082  27.765  41.152   7.656
 4097POPC   NC354083   0.914  29.130   5.297
 4097POPC   PO454084   1.483  28.745   5.559
 4097POPC   GL154085   1.227  29.024   5.775
 4097POPC   GL254086   0.965  28.791   5.708
 4097POPC   C1A54087   1.213  29.288   6.157
 4097POPC   D2A54088   1.362  29.422   6.598
 4097POPC   C3A54089   1.214  29.285   7.011
 4097POPC   C4A54090   1.218  29.338   7.453
 4097POPC   C1B54091   1.054  28.755   6.149
 4097POPC   C2B54092   1.208  28.929   6.515
 4097POPC   C3B54093   1.194  28.794   6.893
 4097POPC   C4B54094   1.357  28.777   7.273
 4098POPC   NC354095   0.517  27.972   5.434
 4098POPC   PO454096   0.656  28.637   5.333
 4098POPC   GL154097   0.478  28.585   5.761
 4098POPC   GL254098   0.396  28.247   5.858
 4098POPC   C1A54099   0.552  28.640   6.192
 4098POPC   D2A54100   0.440  28.406   6.540
 4098POPC   C3A54101   0.337  28.567   6.925
 4098POPC   C4A54102   0.537  28.464   7.309
 4098POPC   C1B54103   0.361  28.006   6.240
 4098POPC   C2B54104   0.185  27.980   6.692
 4098POPC   C3B54105   0.274  28.050   7.189
 4098POPC   C4B54106   0.191  27.879   7.680
 4099POPC   NC354107  22.480  24.969   5.445
 4099POPC   PO454108  22.581  24.349   5.410
 4099POPC   GL154109  22.626  24.606   5.805
 4099POPC   GL254110  23.000  24.585   5.867
 4099POPC   C1A54111  22.699  24.625   6.267
 4099POPC   D2A54112  22.910  24.650   6.692
 4099POPC   C3A54113  22.724  24.616   7.122
 4099POPC   C4A54114  22.814  24.631   7.576
 4099POPC   C1B54115  23.126  24.345   6.262
 4099POPC   C2B54116  23.059  24.160   6.685
 4099POPC   C3B54117  23.125  24.304   7.112
 4099POPC   C4B54118  23.308  24.502   7.481
 4100POPC   NC354119  14.211  17.078   5.386
 4100POPC   PO454120  14.466  16.455   5.275
 4100POPC   GL154121  14.299  16.628   5.720
 4100POPC   GL254122  13.997  16.844   5.802
 4100POPC   C1A54123  14.469  16.744   6.157
 4100POPC   D2A54124  14.772  16.735   6.499
 4100POPC   C3A54125  14.601  16.499   6.845
 4100POPC   C4A54126  14.540  16.565   7.262
 4100POPC   C1B54127  13.981  16.829   6.270
 4100POPC   C2B54128  14.227  16.848   6.662
 4100POPC   C3B54129  14.146  16.851   7.107
 4100POPC   C4B54130  13.976  16.998   7.489
 4101POPC   NC354131  25.597  43.210   5.494
 4101POPC   PO454132  24.913  42.893   5.372
 4101POPC   GL154133  24.949  43.051   5.760
 4101POPC   GL254134  25.108  42.750   5.850
 4101POPC   C1A54135  25.145  43.171   6.169
 4101POPC   D2A54136  25.153  43.279   6.595
 4101POPC   C3A54137  25.472  43.191   6.883
 4101POPC   C4A54138  25.289  43.431   7.223
 4101POPC   C1B54139  24.803  42.778   6.180
 4101POPC   C2B54140  25.045  42.763   6.557
 4101POPC   C3B54141  25.014  42.941   6.964
 4101POPC   C4B54142  25.318  42.900   7.274
 4102POPC   NC354143  33.456  16.047   5.466
 4102POPC   PO454144  32.831  16.160   5.522
 4102POPC   GL154145  33.092  15.965   5.827
 4102POPC   GL254146  33.243  15.647   5.711
 4102POPC   C1A54147  33.184  15.817   6.244
 4102POPC   D2A54148  33.018  15.945   6.646
 4102POPC   C3A54149  33.320  15.928   6.983
 4102POPC   C4A54150  33.311  16.024   7.442
 4102POPC   C1B54151  32.835  15.542   5.973
 4102POPC   C2B54152  32.732  15.532   6.433
 4102POPC   C3B54153  32.579  15.743   6.828
 4102POPC   C4B54154  32.848  15.836   7.206
 4103POPC   NC354155   8.439  15.081   5.563
 4103POPC   PO454156   8.921  15.331   5.193
 4103POPC   GL154157   8.989  15.096   5.626
 4103POPC   GL254158   8.847  14.759   5.684
 4103POPC   C1A54159   8.911  15.216   6.112
 4103POPC   D2A54160   9.114  15.289   6.556
 4103POPC   C3A54161   8.989  15.156   6.982
 4103POPC   C4A54162   9.116  14.855   7.347
 4103POPC   C1B54163   8.656  14.762   6.105
 4103POPC   C2B54164   8.735  14.932   6.513
 4103POPC   C3B54165   8.571  14.895   6.914
 4103POPC   C4B54166   8.606  14.751   7.306
 4104POPC   NC354167  12.363  35.834   5.261
 4104POPC   PO454168  11.786  35.712   5.476
 4104POPC   GL154169  11.919  35.995   5.824
 4104POPC   GL254170  11.927  36.359   5.809
 4104POPC   C1A54171  12.183  36.058   6.202
 4104POPC   D2A54172  12.077  36.082   6.650
 4104POPC   C3A54173  12.257  36.251   7.054
 4104POPC   C4A54174  12.213  36.039   7.472
 4104POPC   C1B54175  11.736  36.281   6.228
 4104POPC   C2B54176  11.603  36.254   6.638
 4104POPC   C3B54177  11.755  36.258   7.056
 4104POPC   C4B54178  11.685  36.004   7.411
 4105POPC   NC354179   8.048  38.288   5.551
 4105POPC   PO454180   8.566  38.737   5.397
 4105POPC   GL154181   8.465  38.570   5.820
 4105POPC   GL254182   8.559  38.213   5.869
 4105POPC   C1A54183   8.159  38.573   6.187
 4105POPC   D2A54184   7.887  38.558   6.566
 4105POPC   C3A54185   8.072  38.482   6.946
 4105POPC   C4A54186   8.096  38.636   7.333
 4105POPC   C1B54187   8.636  38.383   6.301
 4105POPC   C2B54188   8.587  38.515   6.763
 4105POPC   C3B54189   8.510  38.292   7.161
 4105POPC   C4B54190   8.422  38.253   7.607
 4106POPC   NC354191  22.530  42.464   5.425
 4106POPC   PO454192  21.908  42.096   5.261
 4106POPC   GL154193  22.034  42.259   5.708
 4106POPC   GL254194  22.339  42.407   5.877
 4106POPC   C1A54195  21.958  42.325   6.176
 4106POPC   D2A54196  21.942  42.600   6.548
 4106POPC   C3A54197  21.868  42.380   6.980
 4106POPC   C4A54198  22.045  42.282   7.400
 4106POPC   C1B54199  22.415  42.488   6.327
 4106POPC   C2B54200  22.338  42.349   6.759
 4106POPC   C3B54201  22.315  42.617   7.142
 4106POPC   C4B54202  22.558  42.931   7.361
 4107POPC   NC354203  16.247  43.521   5.377
 4107POPC   PO454204  15.527  43.431   5.417
 4107POPC   GL154205  15.793  43.394   5.797
 4107POPC   GL254206  16.126  43.220   5.792
 4107POPC   C1A54207  15.992  43.459   6.228
 4107POPC   D2A54208  16.025  43.245   6.628
 4107POPC   C3A54209  16.025  43.503   6.974
 4107POPC   C4A54210  15.871  43.454   7.375
 4107POPC   C1B54211  16.042  42.953   6.167
 4107POPC   C2B54212  15.804  42.794   6.530
 4107POPC   C3B54213  15.846  42.764   6.961
 4107POPC   C4B54214  16.074  43.031   7.210
 4108POPC   NC354215   3.085  44.884   5.235
 4108POPC   PO454216   2.716  44.303   5.373
 4108POPC   GL154217   2.764  44.514   5.741
 4108POPC   GL254218   2.941  44.832   5.738
 4108POPC   C1A54219   2.732  44.387   6.155
 4108POPC   D2A54220   2.470  44.520   6.505
 4108POPC   C3A54221   2.637  44.376   6.895
 4108POPC   C4A54222   2.870  44.601   7.217
 4108POPC   C1B54223   2.718  44.911   6.126
 4108POPC   C2B54224   2.757  44.973   6.563
 4108POPC   C3B54225   2.857   0.077   7.044
 4108POPC   C4B54226   2.936  44.997   7.534
 4109POPC   NC354227  22.796  27.286   5.402
 4109POPC   PO454228  23.153  27.822   5.501
 4109POPC   GL154229  22.943  27.742   5.888
 4109POPC   GL254230  23.046  27.424   5.825
 4109POPC   C1A54231  22.973  27.637   6.355
 4109POPC   D2A54232  23.056  27.885   6.735
 4109POPC   C3A54233  23.066  27.733   7.164
 4109POPC   C4A54234  22.688  27.660   7.383
 4109POPC   C1B54235  22.860  27.208   6.099
 4109POPC   C2B54236  22.928  27.128   6.483
 4109POPC   C3B54237  22.947  27.344   6.834
 4109POPC   C4B54238  22.932  27.245   7.244
 4110POPC   NC354239  36.545  43.056   5.481
 4110POPC   PO454240  37.015  42.591   5.352
 4110POPC   GL154241  36.943  42.866   5.702
 4110POPC   GL254242  37.081  43.160   5.752
 4110POPC   C1A54243  36.756  42.815   6.097
 4110POPC   D2A54244  36.738  42.980   6.484
 4110POPC   C3A54245  36.949  42.845   6.823
 4110POPC   C4A54246  36.834  43.097   7.170
 4110POPC   C1B54247  37.154  43.092   6.219
 4110POPC   C2B54248  37.150  43.314   6.621
 4110POPC   C3B54249  37.255  43.375   7.068
 4110POPC   C4B54250  37.110  43.314   7.537
 4111POPC   NC354251  30.405  44.231   5.486
 4111POPC   PO454252  30.949  43.840   5.402
 4111POPC   GL154253  30.822  44.007   5.771
 4111POPC   GL254254  30.718  43.726   5.881
 4111POPC   C1A54255  30.777  44.127   6.208
 4111POPC   D2A54256  30.773  43.898   6.610
 4111POPC   C3A54257  30.667  44.172   6.956
 4111POPC   C4A54258  30.533  44.064   7.371
 4111POPC   C1B54259  30.460  43.693   6.240
 4111POPC   C2B54260  30.241  43.649   6.657
 4111POPC   C3B54261  30.484  43.669   7.026
 4111POPC   C4B54262  30.536  43.413   7.363
 4112POPC   NC354263  12.891  11.532   5.467
 4112POPC   PO454264  12.514  10.992   5.507
 4112POPC   GL154265  12.693  11.234   5.849
 4112POPC   GL254266  12.607  11.584   5.889
 4112POPC   C1A54267  12.863  11.223   6.261
 4112POPC   D2A54268  12.662  11.086   6.659
 4112POPC   C3A54269  12.845  11.366   6.985
 4112POPC   C4A54270  13.101  11.303   7.339
 4112POPC   C1B54271  12.709  11.773   6.301
 4112POPC   C2B54272  12.807  11.911   6.742
 4112POPC   C3B54273  12.566  11.799   7.122
 4112POPC   C4B54274  12.645  11.515   7.449
 4113POPC   NC354275  18.789  37.568   5.540
 4113POPC   PO454276  19.446  37.575   5.391
 4113POPC   GL154277  19.327  37.792   5.757
 4113POPC   GL254278  19.005  37.768   5.946
 4113POPC   C1A54279  19.449  37.964   6.143
 4113POPC   D2A54280  19.123  37.943   6.471
 4113POPC   C3A54281  19.232  37.839   6.890
 4113POPC   C4A54282  19.113  37.523   7.163
 4113POPC   C1B54283  18.735  37.560   6.263
 4113POPC   C2B54284  18.566  37.668   6.683
 4113POPC   C3B54285  18.713  38.014   6.937
 4113POPC   C4B54286  18.965  38.021   7.291
 4114POPC   NC354287  39.079  24.424   5.084
 4114POPC   PO454288  39.456  24.826   5.440
 4114POPC   GL154289  39.222  24.663   5.788
 4114POPC   GL254290  39.062  24.349   5.677
 4114POPC   C1A54291  39.325  24.742   6.222
 4114POPC   D2A54292  39.320  24.472   6.573
 4114POPC   C3A54293  39.229  24.661   6.944
 4114POPC   C4A54294  39.212  24.532   7.374
 4114POPC   C1B54295  39.210  24.243   6.115
 4114POPC   C2B54296  39.081  24.018   6.508
 4114POPC   C3B54297  39.133  24.152   6.959
 4114POPC   C4B54298  39.386  24.076   7.344
 4115POPC   NC354299  44.547   6.154   5.346
 4115POPC   PO454300   0.017   6.559   5.241
 4115POPC   GL154301  44.855   6.566   5.685
 4115POPC   GL254302  44.571   6.373   5.809
 4115POPC   C1A54303  44.769   6.747   6.107
 4115POPC   D2A54304  44.886   6.646   6.551
 4115POPC   C3A54305  44.597   6.618   6.919
 4115POPC   C4A54306  44.657   6.819   7.326
 4115POPC   C1B54307  44.535   6.303   6.244
 4115POPC   C2B54308  44.230   6.190   6.560
 4115POPC   C3B54309  44.242   6.162   6.993
 4115POPC   C4B54310  44.391   6.381   7.346
 4116POPC   NC354311   7.730  39.865   5.449
 4116POPC   PO454312   7.357  40.427   5.462
 4116POPC   GL154313   7.506  40.152   5.797
 4116POPC   GL254314   7.306  39.862   5.876
 4116POPC   C1A54315   7.591  40.117   6.232
 4116POPC   D2A54316   7.449  40.001   6.633
 4116POPC   C3A54317   7.679  39.838   6.952
 4116POPC   C4A54318   7.517  40.098   7.314
 4116POPC   C1B54319   7.101  39.822   6.282
 4116POPC   C2B54320   6.955  39.854   6.710
 4116POPC   C3B54321   7.189  39.782   7.093
 4116POPC   C4B54322   7.187  39.767   7.588
 4117POPC   NC354323  18.491  21.076   5.465
 4117POPC   PO454324  18.028  21.413   5.632
 4117POPC   GL154325  18.450  21.428   5.826
 4117POPC   GL254326  18.475  21.083   5.974
 4117POPC   C1A54327  18.680  21.502   6.204
 4117POPC   D2A54328  18.639  21.286   6.600
 4117POPC   C3A54329  18.543  21.509   6.983
 4117POPC   C4A54330  18.479  21.439   7.404
 4117POPC   C1B54331  18.215  21.294   6.292
 4117POPC   C2B54332  18.114  21.376   6.737
 4117POPC   C3B54333  18.020  21.395   7.196
 4117POPC   C4B54334  18.024  21.441   7.665
 4118POPC   NC354335  25.395   3.771   5.473
 4118POPC   PO454336  24.819   3.346   5.482
 4118POPC   GL154337  24.985   3.266   5.897
 4118POPC   GL254338  25.337   3.390   5.858
 4118POPC   C1A54339  25.029   3.216   6.366
 4118POPC   D2A54340  25.355   3.139   6.716
 4118POPC   C3A54341  25.227   3.217   7.172
 4118POPC   C4A54342  25.018   3.609   7.350
 4118POPC   C1B54343  25.234   3.689   6.184
 4118POPC   C2B54344  25.048   3.678   6.586
 4118POPC   C3B54345  25.291   3.655   6.940
 4118POPC   C4B54346  25.442   3.910   7.277
 4119POPC   NC354347  41.503  40.624   5.345
 4119POPC   PO454348  41.941  41.090   5.642
 4119POPC   GL154349  41.744  40.708   5.815
 4119POPC   GL254350  41.409  40.629   5.846
 4119POPC   C1A54351  41.701  40.723   6.265
 4119POPC   D2A54352  41.939  40.960   6.560
 4119POPC   C3A54353  41.829  40.674   6.865
 4119POPC   C4A54354  41.598  40.651   7.230
 4119POPC   C1B54355  41.329  41.030   6.110
 4119POPC   C2B54356  41.419  41.102   6.595
 4119POPC   C3B54357  41.212  40.862   6.964
 4119POPC   C4B54358  41.093  40.724   7.408
 4120POPC   NC354359  18.713  23.463   5.385
 4120POPC   PO454360  19.258  23.990   5.275
 4120POPC   GL154361  19.054  23.839   5.684
 4120POPC   GL254362  19.078  23.493   5.777
 4120POPC   C1A54363  18.909  23.838   6.118
 4120POPC   D2A54364  18.957  23.541   6.451
 4120POPC   C3A54365  18.973  23.567   6.910
 4120POPC   C4A54366  18.902  23.942   7.190
 4120POPC   C1B54367  19.364  23.557   6.147
 4120POPC   C2B54368  19.456  23.368   6.564
 4120POPC   C3B54369  19.463  23.356   7.014
 4120POPC   C4B54370  19.262  23.613   7.340
 4121POPC   NC354371  18.121  15.660   5.303
 4121POPC   PO454372  18.517  16.162   5.493
 4121POPC   GL154373  18.299  15.839   5.766
 4121POPC   GL254374  17.927  15.745   5.798
 4121POPC   C1A54375  18.275  15.590   6.157
 4121POPC   D2A54376  18.169  15.580   6.604
 4121POPC   C3A54377  18.373  15.790   6.947
 4121POPC   C4A54378  18.284  15.832   7.398
 4121POPC   C1B54379  17.980  16.053   6.162
 4121POPC   C2B54380  18.005  16.067   6.639
 4121POPC   C3B54381  17.881  15.937   7.093
 4121POPC   C4B54382  17.837  15.935   7.578
 4122POPC   NC354383  25.799   5.282   5.415
 4122POPC   PO454384  26.060   4.704   5.297
 4122POPC   GL154385  26.130   4.896   5.670
 4122POPC   GL254386  25.775   4.887   5.744
 4122POPC   C1A54387  26.165   4.898   6.137
 4122POPC   D2A54388  26.377   5.052   6.526
 4122POPC   C3A54389  26.152   5.170   6.898
 4122POPC   C4A54390  26.031   5.009   7.325
 4122POPC   C1B54391  25.646   5.041   6.155
 4122POPC   C2B54392  25.805   4.922   6.565
 4122POPC   C3B54393  25.662   5.001   6.964
 4122POPC   C4B54394  25.539   5.113   7.374
 4123POPC   NC354395  12.283  15.438   5.331
 4123POPC   PO454396  11.756  14.974   5.404
 4123POPC   GL154397  11.918  15.241   5.712
 4123POPC   GL254398  12.047  14.981   5.927
 4123POPC   C1A54399  11.705  15.316   6.112
 4123POPC   D2A54400  11.766  15.450   6.531
 4123POPC   C3A54401  11.796  15.204   6.884
 4123POPC   C4A54402  12.016  15.184   7.241
 4123POPC   C1B54403  12.017  14.999   6.396
 4123POPC   C2B54404  12.302  15.157   6.737
 4123POPC   C3B54405  12.443  14.918   7.096
 4123POPC   C4B54406  12.374  14.987   7.541
 4124POPC   NC354407  25.652  41.324   5.510
 4124POPC   PO454408  26.256  41.409   5.249
 4124POPC   GL154409  26.125  41.616   5.670
 4124POPC   GL254410  25.933  41.416   5.911
 4124POPC   C1A54411  26.284  41.718   6.118
 4124POPC   D2A54412  26.307  41.562   6.545
 4124POPC   C3A54413  26.082  41.719   6.912
 4124POPC   C4A54414  26.336  41.754   7.266
 4124POPC   C1B54415  25.981  41.247   6.280
 4124POPC   C2B54416  25.854  41.329   6.652
 4124POPC   C3B54417  25.687  41.105   6.975
 4124POPC   C4B54418  25.795  41.294   7.341
 4125POPC   NC354419   3.236  33.279   5.570
 4125POPC   PO454420   3.821  33.075   5.209
 4125POPC   GL154421   3.765  33.099   5.689
 4125POPC   GL254422   3.531  32.877   5.758
 4125POPC   C1A54423   3.662  33.227   6.146
 4125POPC   D2A54424   3.623  32.962   6.523
 4125POPC   C3A54425   3.438  33.049   6.917
 4125POPC   C4A54426   3.734  33.272   7.095
 4125POPC   C1B54427   3.258  32.896   6.134
 4125POPC   C2B54428   3.130  32.776   6.539
 4125POPC   C3B54429   3.198  32.596   6.914
 4125POPC   C4B54430   3.141  32.776   7.281
 4126POPC   NC354431   2.114  12.824   5.086
 4126POPC   PO454432   2.553  13.095   5.609
 4126POPC   GL154433   2.242  13.078   5.968
 4126POPC   GL254434   1.885  13.016   5.865
 4126POPC   C1A54435   2.034  12.805   6.284
 4126POPC   D2A54436   1.797  12.961   6.594
 4126POPC   C3A54437   2.061  13.022   6.933
 4126POPC   C4A54438   2.065  12.779   7.279
 4126POPC   C1B54439   1.749  13.331   6.123
 4126POPC   C2B54440   1.535  13.446   6.499
 4126POPC   C3B54441   1.651  13.348   6.937
 4126POPC   C4B54442   1.819  13.229   7.378
 4127POPC   NC354443   2.082   4.145   5.196
 4127POPC   PO454444   1.765   4.671   5.434
 4127POPC   GL154445   2.018   4.431   5.755
 4127POPC   GL254446   2.088   4.070   5.721
 4127POPC   C1A54447   1.902   4.350   6.182
 4127POPC   D2A54448   2.028   4.413   6.616
 4127POPC   C3A54449   1.749   4.485   6.974
 4127POPC   C4A54450   1.865   4.303   7.382
 4127POPC   C1B54451   2.363   4.135   6.091
 4127POPC   C2B54452   2.490   4.235   6.518
 4127POPC   C3B54453   2.389   4.219   6.956
 4127POPC   C4B54454   2.229   3.975   7.302
 4128POPC   NC354455  44.113  19.645   5.404
 4128POPC   PO454456  43.506  19.891   5.534
 4128POPC   GL154457  43.744  19.618   5.825
 4128POPC   GL254458  44.075  19.779   5.892
 4128POPC   C1A54459  43.781  19.608   6.288
 4128POPC   D2A54460  43.994  19.896   6.554
 4128POPC   C3A54461  43.780  20.079   6.872
 4128POPC   C4A54462  43.678  19.806   7.153
 4128POPC   C1B54463  44.179  20.157   6.129
 4128POPC   C2B54464  44.401  20.191   6.536
 4128POPC   C3B54465  44.270  20.226   6.945
 4128POPC   C4B54466  44.176  19.916   7.239
 4129POPC   NC354467  18.369  22.897   5.235
 4129POPC   PO454468  18.230  23.433   5.431
 4129POPC   GL154469  18.456  23.220   5.768
 4129POPC   GL254470  18.187  23.110   5.966
 4129POPC   C1A54471  18.618  23.178   6.220
 4129POPC   D2A54472  18.514  22.916   6.584
 4129POPC   C3A54473  18.564  23.035   7.014
 4129POPC   C4A54474  18.349  22.896   7.374
 4129POPC   C1B54475  18.128  23.277   6.406
 4129POPC   C2B54476  18.092  23.189   6.888
 4129POPC   C3B54477  17.874  22.862   7.175
 4129POPC   C4B54478  17.517  22.857   7.480
 4130POPC   NC354479  11.107  28.637   5.380
 4130POPC   PO454480  11.520  28.185   5.534
 4130POPC   GL154481  11.400  28.475   5.868
 4130POPC   GL254482  11.107  28.752   5.864
 4130POPC   C1A54483  11.641  28.328   6.249
 4130POPC   D2A54484  11.691  28.017   6.589
 4130POPC   C3A54485  11.719  28.218   6.998
 4130POPC   C4A54486  11.439  28.439   7.218
 4130POPC   C1B54487  10.948  28.633   6.242
 4130POPC   C2B54488  11.150  28.289   6.423
 4130POPC   C3B54489  11.233  28.139   6.826
 4130POPC   C4B54490  11.012  28.143   7.198
 4131POPC   NC354491  12.117  11.944   5.321
 4131POPC   PO454492  11.711  12.415   5.506
 4131POPC   GL154493  11.842  12.050   5.783
 4131POPC   GL254494  12.145  11.800   5.785
 4131POPC   C1A54495  12.125  12.197   6.108
 4131POPC   D2A54496  12.261  12.304   6.501
 4131POPC   C3A54497  11.994  12.243   6.880
 4131POPC   C4A54498  12.140  12.051   7.250
 4131POPC   C1B54499  11.993  11.704   6.163
 4131POPC   C2B54500  12.071  11.835   6.541
 4131POPC   C3B54501  11.968  11.696   6.927
 4131POPC   C4B54502  11.656  11.918   7.147
 4132POPC   NC354503  41.543  29.709   5.369
 4132POPC   PO454504  41.897  30.260   5.443
 4132POPC   GL154505  41.789  29.963   5.770
 4132POPC   GL254506  41.810  29.595   5.808
 4132POPC   C1A54507  41.839  29.920   6.218
 4132POPC   D2A54508  41.598  29.926   6.597
 4132POPC   C3A54509  41.832  29.921   6.975
 4132POPC   C4A54510  41.819  30.185   7.308
 4132POPC   C1B54511  41.367  29.795   5.997
 4132POPC   C2B54512  41.138  29.946   6.361
 4132POPC   C3B54513  41.130  29.869   6.832
 4132POPC   C4B54514  41.371  29.836   7.233
 4133POPC   NC354515  38.224  32.660   4.999
 4133POPC   PO454516  38.591  32.255   5.400
 4133POPC   GL154517  38.440  32.167   5.816
 4133POPC   GL254518  38.367  32.512   5.894
 4133POPC   C1A54519  38.535  31.932   6.190
 4133POPC   D2A54520  38.735  32.126   6.519
 4133POPC   C3A54521  38.669  32.061   6.929
 4133POPC   C4A54522  38.861  32.367   7.212
 4133POPC   C1B54523  38.170  32.295   6.244
 4133POPC   C2B54524  38.239  32.157   6.659
 4133POPC   C3B54525  38.282  32.338   7.080
 4133POPC   C4B54526  38.037  32.318   7.479
 4134POPC   NC354527  41.344  27.771   5.447
 4134POPC   PO454528  41.960  27.453   5.639
 4134POPC   GL154529  41.699  27.739   5.854
 4134POPC   GL254530  41.318  27.857   5.933
 4134POPC   C1A54531  41.725  27.684   6.267
 4134POPC   D2A54532  41.477  27.832   6.546
 4134POPC   C3A54533  41.695  27.776   6.894
 4134POPC   C4A54534  41.620  27.494   7.253
 4134POPC   C1B54535  41.237  27.522   6.165
 4134POPC   C2B54536  41.012  27.569   6.519
 4134POPC   C3B54537  41.208  27.561   6.909
 4134POPC   C4B54538  41.113  27.306   7.219
 4135POPC   NC354539   8.359  39.784   5.273
 4135POPC   PO454540   7.952  40.270   5.508
 4135POPC   GL154541   8.026  40.152   5.916
 4135POPC   GL254542   8.260  39.899   5.822
 4135POPC   C1A54543   8.100  40.084   6.362
 4135POPC   D2A54544   8.233  40.269   6.749
 4135POPC   C3A54545   8.005  40.208   7.106
 4135POPC   C4A54546   7.979  39.871   7.378
 4135POPC   C1B54547   8.316  39.635   6.208
 4135POPC   C2B54548   8.250  39.652   6.638
 4135POPC   C3B54549   8.344  39.815   7.004
 4135POPC   C4B54550   8.410  39.598   7.356
 4136POPC   NC354551   0.643  34.046   5.500
 4136POPC   PO454552   0.104  33.527   5.421
 4136POPC   GL154553   0.150  33.745   5.787
 4136POPC   GL254554  44.964  33.436   5.929
 4136POPC   C1A54555   0.351  34.043   6.117
 4136POPC   D2A54556   0.581  34.000   6.525
 4136POPC   C3A54557   0.353  33.997   6.936
 4136POPC   C4A54558   0.495  33.801   7.333
 4136POPC   C1B54559   0.330  33.521   6.195
 4136POPC   C2B54560   0.411  33.504   6.620
 4136POPC   C3B54561   0.224  33.486   6.994
 4136POPC   C4B54562   0.011  33.600   7.322
 4137POPC   NC354563  17.396  44.866   5.519
 4137POPC   PO454564  17.917  44.446   5.517
 4137POPC   GL154565  17.616  44.569   5.864
 4137POPC   GL254566  17.282  44.456   5.839
 4137POPC   C1A54567  17.403  44.814   6.201
 4137POPC   D2A54568  17.619  44.660   6.555
 4137POPC   C3A54569  17.471  44.798   6.925
 4137POPC   C4A54570  17.585  44.657   7.298
 4137POPC   C1B54571  17.349  44.283   6.255
 4137POPC   C2B54572  17.254  44.330   6.704
 4137POPC   C3B54573  17.204  44.358   7.153
 4137POPC   C4B54574  17.095  44.769   7.285
 4138POPC   NC354575  34.326  28.737   5.468
 4138POPC   PO454576  34.803  28.211   5.410
 4138POPC   GL154577  34.782  28.463   5.802
 4138POPC   GL254578  34.892  28.808   5.738
 4138POPC   C1A54579  34.498  28.684   6.124
 4138POPC   D2A54580  34.358  28.647   6.564
 4138POPC   C3A54581  34.236  28.258   6.746
 4138POPC   C4A54582  34.463  28.081   7.099
 4138POPC   C1B54583  35.005  28.760   6.198
 4138POPC   C2B54584  34.977  28.672   6.654
 4138POPC   C3B54585  34.680  28.568   7.010
 4138POPC   C4B54586  34.627  28.635   7.476
 4139POPC   NC354587   5.564  12.030   5.292
 4139POPC   PO454588   6.229  11.890   5.453
 4139POPC   GL154589   6.064  12.162   5.738
 4139POPC   GL254590   6.367  12.193   5.917
 4139POPC   C1A54591   5.844  12.259   6.103
 4139POPC   D2A54592   5.959  12.295   6.532
 4139POPC   C3A54593   5.733  12.161   6.899
 4139POPC   C4A54594   5.735  11.987   7.321
 4139POPC   C1B54595   6.191  11.896   6.228
 4139POPC   C2B54596   6.301  11.953   6.674
 4139POPC   C3B54597   6.157  11.780   7.029
 4139POPC   C4B54598   6.176  11.742   7.469
 4140POPC   NC354599  11.815  26.664   5.423
 4140POPC   PO454600  12.461  26.872   5.371
 4140POPC   GL154601  12.257  26.701   5.749
 4140POPC   GL254602  11.909  26.660   5.914
 4140POPC   C1A54603  12.279  26.940   6.139
 4140POPC   D2A54604  12.111  27.014   6.545
 4140POPC   C3A54605  12.302  27.108   6.910
 4140POPC   C4A54606  12.042  26.943   7.209
 4140POPC   C1B54607  12.110  26.476   6.272
 4140POPC   C2B54608  11.934  26.280   6.636
 4140POPC   C3B54609  11.921  26.460   7.052
 4140POPC   C4B54610  11.929  26.526   7.519
 4141POPC   NC354611  25.746   6.076   5.502
 4141POPC   PO454612  26.166   5.563   5.413
 4141POPC   GL154613  25.966   5.666   5.819
 4141POPC   GL254614  25.992   5.341   5.929
 4141POPC   C1A54615  26.071   5.830   6.272
 4141POPC   D2A54616  26.121   5.714   6.747
 4141POPC   C3A54617  26.236   6.053   7.027
 4141POPC   C4A54618  26.006   6.355   7.314
 4141POPC   C1B54619  25.985   5.351   6.388
 4141POPC   C2B54620  25.699   5.443   6.730
 4141POPC   C3B54621  25.845   5.486   7.147
 4141POPC   C4B54622  26.278   5.454   7.341
 4142POPC   NC354623  40.231  35.047   5.405
 4142POPC   PO454624  39.573  35.124   5.350
 4142POPC   GL154625  39.848  35.189   5.736
 4142POPC   GL254626  40.049  35.496   5.690
 4142POPC   C1A54627  40.220  35.188   6.063
 4142POPC   D2A54628  40.125  35.252   6.495
 4142POPC   C3A54629  40.298  35.185   6.886
 4142POPC   C4A54630  40.007  35.326   7.174
 4142POPC   C1B54631  39.912  35.598   6.123
 4142POPC   C2B54632  39.860  35.808   6.549
 4142POPC   C3B54633  39.966  35.782   6.966
 4142POPC   C4B54634  39.714  35.748   7.361
 4143POPC   NC354635  32.382  17.937   5.582
 4143POPC   PO454636  31.991  18.388   5.461
 4143POPC   GL154637  32.183  18.327   5.846
 4143POPC   GL254638  32.128  18.011   6.025
 4143POPC   C1A54639  32.340  18.521   6.179
 4143POPC   D2A54640  32.279  18.542   6.596
 4143POPC   C3A54641  32.314  18.180   6.833
 4143POPC   C4A54642  32.247  18.424   7.173
 4143POPC   C1B54643  32.511  18.027   6.253
 4143POPC   C2B54644  32.731  17.921   6.599
 4143POPC   C3B54645  32.733  17.888   7.007
 4143POPC   C4B54646  32.454  17.946   7.307
 4144POPC   NC354647  20.304  41.250   5.439
 4144POPC   PO454648  20.632  40.732   5.333
 4144POPC   GL154649  20.499  40.821   5.711
 4144POPC   GL254650  20.335  40.550   5.792
 4144POPC   C1A54651  20.669  40.782   6.111
 4144POPC   D2A54652  20.939  40.640   6.444
 4144POPC   C3A54653  20.772  40.723   6.850
 4144POPC   C4A54654  20.625  40.848   7.232
 4144POPC   C1B54655  20.187  40.602   6.161
 4144POPC   C2B54656  20.393  40.595   6.530
 4144POPC   C3B54657  20.252  40.460   6.917
 4144POPC   C4B54658  20.195  40.589   7.326
 4145POPC   NC354659  25.292  26.314   5.428
 4145POPC   PO454660  25.466  25.722   5.229
 4145POPC   GL154661  25.471  25.920   5.703
 4145POPC   GL254662  25.576  26.269   5.845
 4145POPC   C1A54663  25.329  25.962   6.199
 4145POPC   D2A54664  25.049  25.958   6.611
 4145POPC   C3A54665  25.216  25.939   7.068
 4145POPC   C4A54666  25.039  25.905   7.519
 4145POPC   C1B54667  25.684  26.329   6.301
 4145POPC   C2B54668  25.494  26.235   6.729
 4145POPC   C3B54669  25.562  26.353   7.185
 4145POPC   C4B54670  25.439  26.410   7.626
 4146POPC   NC354671  33.334  14.487   5.373
 4146POPC   PO454672  32.647  14.287   5.471
 4146POPC   GL154673  32.978  14.362   5.742
 4146POPC   GL254674  32.734  14.534   5.931
 4146POPC   C1A54675  33.284  14.451   6.103
 4146POPC   D2A54676  33.242  14.726   6.493
 4146POPC   C3A54677  33.209  14.540   6.916
 4146POPC   C4A54678  33.036  14.756   7.283
 4146POPC   C1B54679  32.818  14.504   6.320
 4146POPC   C2B54680  32.735  14.452   6.708
 4146POPC   C3B54681  32.707  14.415   7.095
 4146POPC   C4B54682  32.525  14.082   7.302
 4147POPC   NC354683   7.824  37.430   5.554
 4147POPC   PO454684   7.434  37.827   5.123
 4147POPC   GL154685   7.463  37.813   5.618
 4147POPC   GL254686   7.776  37.835   5.864
 4147POPC   C1A54687   7.320  37.970   6.033
 4147POPC   D2A54688   7.240  37.918   6.468
 4147POPC   C3A54689   7.400  37.762   6.854
 4147POPC   C4A54690   7.282  38.001   7.238
 4147POPC   C1B54691   7.599  37.606   6.222
 4147POPC   C2B54692   7.793  37.517   6.583
 4147POPC   C3B54693   7.881  37.524   6.968
 4147POPC   C4B54694   7.722  37.720   7.285
 4148POPC   NC354695  42.586  22.670   5.461
 4148POPC   PO454696  41.962  23.041   5.369
 4148POPC   GL154697  42.259  22.985   5.723
 4148POPC   GL254698  42.206  22.639   5.868
 4148POPC   C1A54699  42.447  23.119   6.148
 4148POPC   D2A54700  42.592  22.927   6.564
 4148POPC   C3A54701  42.570  23.163   6.968
 4148POPC   C4A54702  42.355  23.108   7.377
 4148POPC   C1B54703  41.917  22.425   6.187
 4148POPC   C2B54704  41.814  22.499   6.644
 4148POPC   C3B54705  42.040  22.674   7.012
 4148POPC   C4B54706  42.072  22.684   7.490
 4149POPC   NC354707  12.305  27.304   5.248
 4149POPC   PO454708  11.897  27.819   5.284
 4149POPC   GL154709  11.848  27.589   5.726
 4149POPC   GL254710  11.883  27.178   5.753
 4149POPC   C1A54711  11.901  27.844   6.137
 4149POPC   D2A54712  12.214  27.983   6.465
 4149POPC   C3A54713  12.098  27.903   6.892
 4149POPC   C4A54714  12.327  27.682   7.155
 4149POPC   C1B54715  11.941  27.333   6.184
 4149POPC   C2B54716  12.056  27.510   6.589
 4149POPC   C3B54717  11.907  27.407   7.007
 4149POPC   C4B54718  11.553  27.264   7.241
 4150POPC   NC354719  43.422   1.980   5.494
 4150POPC   PO454720  42.771   1.942   5.328
 4150POPC   GL154721  42.920   2.180   5.745
 4150POPC   GL254722  43.275   2.338   5.821
 4150POPC   C1A54723  42.924   2.346   6.193
 4150POPC   D2A54724  42.798   2.259   6.615
 4150POPC   C3A54725  43.035   2.351   7.006
 4150POPC   C4A54726  43.459   2.224   7.107
 4150POPC   C1B54727  43.242   1.961   6.124
 4150POPC   C2B54728  43.205   1.937   6.572
 4150POPC   C3B54729  42.947   1.869   6.922
 4150POPC   C4B54730  43.078   1.966   7.347
 4151POPC   NC354731   1.666   5.286   5.609
 4151POPC   PO454732   2.317   5.308   5.718
 4151POPC   GL154733   2.015   5.209   5.973
 4151POPC   GL254734   1.870   4.889   5.922
 4151POPC   C1A54735   2.027   5.208   6.389
 4151POPC   D2A54736   1.892   4.890   6.625
 4151POPC   C3A54737   1.840   5.069   6.990
 4151POPC   C4A54738   2.139   5.269   7.230
 4151POPC   C1B54739   2.226   4.750   6.208
 4151POPC   C2B54740   2.416   4.756   6.617
 4151POPC   C3B54741   2.209   4.717   7.027
 4151POPC   C4B54742   1.980   4.797   7.424
 4152POPC   NC354743  44.831  16.343   5.385
 4152POPC   PO454744  44.486  16.924   5.485
 4152POPC   GL154745  44.680  16.696   5.766
 4152POPC   GL254746  44.900  16.923   5.839
 4152POPC   C1A54747  44.750  16.528   6.166
 4152POPC   D2A54748  44.800  16.724   6.570
 4152POPC   C3A54749  44.689  16.538   6.946
 4152POPC   C4A54750  44.822  16.579   7.378
 4152POPC   C1B54751   0.100  16.909   6.199
 4152POPC   C2B54752   0.094  17.146   6.585
 4152POPC   C3B54753  44.994  16.998   7.034
 4152POPC   C4B54754   0.120  17.013   7.497
 4153POPC   NC354755  16.255   0.945   5.493
 4153POPC   PO454756  15.831   1.443   5.424
 4153POPC   GL154757  15.821   1.218   5.833
 4153POPC   GL254758  16.046   0.967   5.937
 4153POPC   C1A54759  15.972   1.365   6.247
 4153POPC   D2A54760  15.799   1.603   6.578
 4153POPC   C3A54761  15.782   1.431   6.971
 4153POPC   C4A54762  15.833   1.650   7.351
 4153POPC   C1B54763  15.774   0.873   6.241
 4153POPC   C2B54764  15.652   1.050   6.631
 4153POPC   C3B54765  15.698   0.914   7.012
 4153POPC   C4B54766  16.069   1.022   7.218
 4154POPC   NC354767  43.955  33.275   5.572
 4154POPC   PO454768  43.587  33.812   5.278
 4154POPC   GL154769  43.630  33.948   5.727
 4154POPC   GL254770  43.892  33.730   5.808
 4154POPC   C1A54771  43.514  33.806   6.186
 4154POPC   D2A54772  43.451  33.720   6.660
 4154POPC   C3A54773  43.611  34.012   6.977
 4154POPC   C4A54774  44.005  34.188   7.205
 4154POPC   C1B54775  44.054  33.724   6.219
 4154POPC   C2B54776  43.974  33.830   6.656
 4154POPC   C3B54777  43.981  33.702   7.093
 4154POPC   C4B54778  43.756  33.495   7.422
 4155POPC   NC354779  31.446  33.382   5.646
 4155POPC   PO454780  31.777  32.823   5.493
 4155POPC   GL154781  31.578  32.943   5.889
 4155POPC   GL254782  31.239  32.840   5.833
 4155POPC   C1A54783  31.302  33.157   6.236
 4155POPC   D2A54784  31.041  33.342   6.558
 4155POPC   C3A54785  31.202  33.209   6.961
 4155POPC   C4A54786  31.544  32.964   7.182
 4155POPC   C1B54787  31.401  32.612   6.238
 4155POPC   C2B54788  31.538  32.506   6.684
 4155POPC   C3B54789  31.331  32.507   7.102
 4155POPC   C4B54790  31.240  32.632   7.563
 4156POPC   NC354791  34.787  11.472   5.364
 4156POPC   PO454792  34.156  11.393   5.129
 4156POPC   GL154793  34.296  11.404   5.606
 4156POPC   GL254794  34.564  11.186   5.708
 4156POPC   C1A54795  34.314  11.396   6.105
 4156POPC   D2A54796  34.440  11.597   6.508
 4156POPC   C3A54797  34.467  11.353   6.893
 4156POPC   C4A54798  34.409  11.423   7.318
 4156POPC   C1B54799  34.814  11.162   6.077
 4156POPC   C2B54800  34.695  11.109   6.488
 4156POPC   C3B54801  34.892  10.964   6.854
 4156POPC   C4B54802  34.800  11.092   7.246
 4157POPC   NC354803  26.892  14.880   5.467
 4157POPC   PO454804  27.513  15.057   5.242
 4157POPC   GL154805  27.588  15.094   5.724
 4157POPC   GL254806  27.769  14.775   5.729
 4157POPC   C1A54807  27.618  15.200   6.221
 4157POPC   D2A54808  27.413  15.219   6.657
 4157POPC   C3A54809  27.627  15.208   7.089
 4157POPC   C4A54810  27.501  15.227   7.560
 4157POPC   C1B54811  27.899  14.739   6.136
 4157POPC   C2B54812  27.747  14.744   6.553
 4157POPC   C3B54813  27.896  14.759   6.970
 4157POPC   C4B54814  27.762  14.783   7.404
 4158POPC   NC354815  37.229  23.270   5.475
 4158POPC   PO454816  37.913  23.002   5.421
 4158POPC   GL154817  37.855  22.851   5.818
 4158POPC   GL254818  37.489  22.851   5.823
 4158POPC   C1A54819  37.827  22.893   6.247
 4158POPC   D2A54820  37.571  22.735   6.512
 4158POPC   C3A54821  37.601  22.810   6.926
 4158POPC   C4A54822  37.830  22.711   7.272
 4158POPC   C1B54823  37.325  23.092   6.181
 4158POPC   C2B54824  37.164  23.291   6.565
 4158POPC   C3B54825  37.333  23.261   6.973
 4158POPC   C4B54826  37.468  23.095   7.333
 4159POPC   NC354827  41.376   0.051   5.194
 4159POPC   PO454828  41.682   0.662   5.360
 4159POPC   GL154829  41.717   0.496   5.783
 4159POPC   GL254830  41.371   0.553   5.809
 4159POPC   C1A54831  41.652   0.341   6.243
 4159POPC   D2A54832  41.431   0.089   6.552
 4159POPC   C3A54833  41.663   0.265   6.879
 4159POPC   C4A54834  41.813   0.278   7.272
 4159POPC   C1B54835  41.172   0.480   6.193
 4159POPC   C2B54836  41.340   0.595   6.575
 4159POPC   C3B54837  41.240   0.565   6.978
 4159POPC   C4B54838  41.421   0.605   7.392
 4160POPC   NC354839  13.651  11.554   5.470
 4160POPC   PO454840  13.446  11.058   5.650
 4160POPC   GL154841  13.650  11.318   5.954
 4160POPC   GL254842  13.851  11.630   5.928
 4160POPC   C1A54843  13.749  11.145   6.322
 4160POPC   D2A54844  13.608  10.853   6.655
 4160POPC   C3A54845  13.427  11.083   7.010
 4160POPC   C4A54846  13.554  11.092   7.463
 4160POPC   C1B54847  13.967  11.623   6.367
 4160POPC   C2B54848  13.763  11.479   6.761
 4160POPC   C3B54849  13.897  11.323   7.171
 4160POPC   C4B54850  13.948  11.389   7.637
 4161POPC   NC354851  36.298   5.967   5.564
 4161POPC   PO454852  35.804   5.567   5.339
 4161POPC   GL154853  35.928   5.730   5.801
 4161POPC   GL254854  36.061   6.128   5.963
 4161POPC   C1A54855  36.197   5.699   6.170
 4161POPC   D2A54856  36.264   5.880   6.546
 4161POPC   C3A54857  36.352   5.593   6.859
 4161POPC   C4A54858  36.011   5.686   7.138
 4161POPC   C1B54859  36.423   6.243   6.205
 4161POPC   C2B54860  36.511   6.325   6.663
 4161POPC   C3B54861  36.379   6.068   7.053
 4161POPC   C4B54862  36.511   5.704   7.336
 4162POPC   NC354863  36.204  17.945   5.270
 4162POPC   PO454864  36.630  18.239   5.457
 4162POPC   GL154865  36.240  18.174   5.761
 4162POPC   GL254866  35.977  17.913   5.784
 4162POPC   C1A54867  36.110  18.223   6.229
 4162POPC   D2A54868  36.144  17.987   6.647
 4162POPC   C3A54869  36.049  18.163   7.057
 4162POPC   C4A54870  36.183  18.574   7.201
 4162POPC   C1B54871  35.880  17.766   6.234
 4162POPC   C2B54872  35.773  17.643   6.684
 4162POPC   C3B54873  35.906  17.649   7.122
 4162POPC   C4B54874  35.919  17.909   7.489
 4163POPC   NC354875  27.026  38.371   5.328
 4163POPC   PO454876  26.524  38.803   5.366
 4163POPC   GL154877  26.746  38.624   5.714
 4163POPC   GL254878  26.526  38.365   5.845
 4163POPC   C1A54879  26.871  38.747   6.155
 4163POPC   D2A54880  26.656  38.705   6.568
 4163POPC   C3A54881  26.805  38.698   7.002
 4163POPC   C4A54882  26.614  38.402   7.310
 4163POPC   C1B54883  26.815  38.236   6.136
 4163POPC   C2B54884  27.010  38.316   6.508
 4163POPC   C3B54885  26.922  38.206   6.922
 4163POPC   C4B54886  27.152  38.305   7.272
 4164POPC   NC354887  11.572  21.141   5.493
 4164POPC   PO454888  11.125  21.628   5.367
 4164POPC   GL154889  11.222  21.510   5.786
 4164POPC   GL254890  11.191  21.168   5.857
 4164POPC   C1A54891  11.006  21.591   6.189
 4164POPC   D2A54892  11.008  21.374   6.628
 4164POPC   C3A54893  11.337  21.431   6.962
 4164POPC   C4A54894  11.319  21.537   7.414
 4164POPC   C1B54895  11.338  21.231   6.258
 4164POPC   C2B54896  11.469  21.063   6.637
 4164POPC   C3B54897  11.639  20.948   7.036
 4164POPC   C4B54898  11.559  21.098   7.400
 4165POPC   NC354899  37.395   8.953   5.401
 4165POPC   PO454900  37.952   9.365   5.429
 4165POPC   GL154901  37.864   9.023   5.790
 4165POPC   GL254902  37.545   8.831   5.853
 4165POPC   C1A54903  37.751   9.015   6.270
 4165POPC   D2A54904  37.860   8.803   6.668
 4165POPC   C3A54905  37.730   9.082   6.953
 4165POPC   C4A54906  37.561   9.170   7.375
 4165POPC   C1B54907  37.463   8.572   6.221
 4165POPC   C2B54908  37.375   8.657   6.668
 4165POPC   C3B54909  37.461   8.698   7.117
 4165POPC   C4B54910  37.174   8.828   7.477
 4166POPC   NC354911   2.367   2.338   5.488
 4166POPC   PO454912   2.940   2.051   5.204
 4166POPC   GL154913   2.811   2.071   5.691
 4166POPC   GL254914   2.594   2.194   5.918
 4166POPC   C1A54915   2.977   1.921   6.151
 4166POPC   D2A54916   2.965   1.685   6.607
 4166POPC   C3A54917   2.799   1.827   7.060
 4166POPC   C4A54918   2.778   2.235   7.307
 4166POPC   C1B54919   2.475   1.869   6.247
 4166POPC   C2B54920   2.452   1.750   6.666
 4166POPC   C3B54921   2.284   1.724   7.038
 4166POPC   C4B54922   2.351   1.931   7.402
 4167POPC   NC354923  13.046  28.583   5.443
 4167POPC   PO454924  12.512  28.169   5.659
 4167POPC   GL154925  12.829  28.385   5.865
 4167POPC   GL254926  12.777  28.750   5.837
 4167POPC   C1A54927  12.830  28.432   6.304
 4167POPC   D2A54928  12.629  28.284   6.650
 4167POPC   C3A54929  12.734  28.521   7.008
 4167POPC   C4A54930  12.556  28.446   7.400
 4167POPC   C1B54931  13.118  28.793   6.108
 4167POPC   C2B54932  13.077  28.818   6.573
 4167POPC   C3B54933  13.194  28.769   7.026
 4167POPC   C4B54934  13.085  28.588   7.421
 4168POPC   NC354935   6.036   9.866   5.458
 4168POPC   PO454936   5.563   9.476   5.492
 4168POPC   GL154937   5.752   9.659   5.864
 4168POPC   GL254938   6.126   9.605   5.881
 4168POPC   C1A54939   5.778   9.828   6.283
 4168POPC   D2A54940   5.563   9.934   6.683
 4168POPC   C3A54941   5.820   9.781   7.020
 4168POPC   C4A54942   6.154   9.910   7.227
 4168POPC   C1B54943   6.028   9.351   6.228
 4168POPC   C2B54944   5.945   9.448   6.651
 4168POPC   C3B54945   6.121   9.366   7.047
 4168POPC   C4B54946   6.093   9.462   7.486
 4169POPC   NC354947  34.850  27.058   5.498
 4169POPC   PO454948  34.607  26.525   5.176
 4169POPC   GL154949  34.479  26.679   5.617
 4169POPC   GL254950  34.308  27.015   5.713
 4169POPC   C1A54951  34.540  26.645   6.090
 4169POPC   D2A54952  34.400  26.548   6.497
 4169POPC   C3A54953  34.505  26.769   6.873
 4169POPC   C4A54954  34.803  26.630   7.177
 4169POPC   C1B54955  34.484  27.166   6.109
 4169POPC   C2B54956  34.735  26.983   6.450
 4169POPC   C3B54957  34.978  26.980   6.814
 4169POPC   C4B54958  34.886  27.156   7.191
 4170POPC   NC354959  16.776   4.904   5.442
 4170POPC   PO454960  16.289   5.522   5.400
 4170POPC   GL154961  16.472   5.233   5.667
 4170POPC   GL254962  16.792   5.325   5.729
 4170POPC   C1A54963  16.550   5.192   6.142
 4170POPC   D2A54964  16.519   5.078   6.567
 4170POPC   C3A54965  16.721   5.290   6.881
 4170POPC   C4A54966  16.734   5.108   7.229
 4170POPC   C1B54967  17.021   5.368   6.103
 4170POPC   C2B54968  17.061   5.164   6.514
 4170POPC   C3B54969  17.185   5.048   6.958
 4170POPC   C4B54970  17.379   5.321   7.274
 4171POPC   NC354971  37.699  44.150   5.406
 4171POPC   PO454972  37.591  43.437   5.498
 4171POPC   GL154973  37.564  43.812   5.780
 4171POPC   GL254974  37.435  44.158   5.840
 4171POPC   C1A54975  37.724  43.922   6.188
 4171POPC   D2A54976  37.740  44.005   6.616
 4171POPC   C3A54977  37.681  43.646   6.892
 4171POPC   C4A54978  37.885  43.646   7.268
 4171POPC   C1B54979  37.222  44.073   6.170
 4171POPC   C2B54980  37.249  43.819   6.511
 4171POPC   C3B54981  37.299  43.999   6.897
 4171POPC   C4B54982  37.548  44.034   7.251
 4172POPC   NC354983  42.850  27.746   5.622
 4172POPC   PO454984  43.498  27.363   5.466
 4172POPC   GL154985  43.250  27.506   5.821
 4172POPC   GL254986  43.312  27.835   5.896
 4172POPC   C1A54987  42.945  27.529   6.211
 4172POPC   D2A54988  42.778  27.377   6.618
 4172POPC   C3A54989  43.042  27.378   7.004
 4172POPC   C4A54990  43.375  27.306   7.293
 4172POPC   C1B54991  43.173  27.977   6.287
 4172POPC   C2B54992  42.887  27.894   6.650
 4172POPC   C3B54993  42.915  27.885   7.101
 4172POPC   C4B54994  43.288  27.956   7.434
 4173POPC   NC354995  29.432  20.479   5.312
 4173POPC   PO454996  28.784  20.763   5.301
 4173POPC   GL154997  29.058  20.543   5.671
 4173POPC   GL254998  29.363  20.735   5.797
 4173POPC   C1A54999  29.219  20.344   6.091
 4173POPC   D2A55000  29.100  20.418   6.528
 4173POPC   C3A55001  29.316  20.477   6.880
 4173POPC   C4A55002  29.118  20.397   7.234
 4173POPC   C1B55003  29.274  20.828   6.275
 4173POPC   C2B55004  29.147  20.905   6.717
 4173POPC   C3B55005  29.167  20.915   7.161
 4173POPC   C4B55006  29.199  21.245   7.448
 4174POPC   NC355007   2.116  20.954   5.482
 4174POPC   PO455008   2.224  21.669   5.485
 4174POPC   GL155009   2.214  21.394   5.827
 4174POPC   GL255010   1.894  21.246   5.857
 4174POPC   C1A55011   2.212  21.269   6.269
 4174POPC   D2A55012   2.068  21.495   6.625
 4174POPC   C3A55013   2.187  21.394   7.036
 4174POPC   C4A55014   1.994  21.636   7.387
 4174POPC   C1B55015   1.708  21.128   6.280
 4174POPC   C2B55016   1.674  21.171   6.726
 4174POPC   C3B55017   1.705  21.306   7.137
 4174POPC   C4B55018   1.820  21.186   7.555
 4175POPC   NC355019  28.911  43.232   5.193
 4175POPC   PO455020  29.248  42.727   5.467
 4175POPC   GL155021  29.210  43.125   5.645
 4175POPC   GL255022  28.874  43.178   5.717
 4175POPC   C1A55023  29.232  43.178   6.097
 4175POPC   D2A55024  29.512  43.130   6.464
 4175POPC   C3A55025  29.284  43.011   6.814
 4175POPC   C4A55026  29.184  42.910   7.233
 4175POPC   C1B55027  28.723  43.037   6.115
 4175POPC   C2B55028  28.855  43.087   6.519
 4175POPC   C3B55029  28.809  43.156   6.946
 4175POPC   C4B55030  28.882  43.336   7.348
 4176POPC   NC355031   2.618  37.443   5.494
 4176POPC   PO455032   3.145  37.657   5.826
 4176POPC   GL155033   2.712  37.723   5.919
 4176POPC   GL255034   2.476  37.418   5.972
 4176POPC   C1A55035   2.533  37.947   6.251
 4176POPC   D2A55036   2.775  37.924   6.607
 4176POPC   C3A55037   2.635  37.980   6.998
 4176POPC   C4A55038   2.916  37.674   7.172
 4176POPC   C1B55039   2.605  37.453   6.383
 4176POPC   C2B55040   2.592  37.475   6.825
 4176POPC   C3B55041   2.360  37.581   7.194
 4176POPC   C4B55042   2.219  37.554   7.609
 4177POPC   NC355043  19.362  18.649   5.390
 4177POPC   PO455044  19.170  17.907   5.354
 4177POPC   GL155045  19.320  18.043   5.763
 4177POPC   GL255046  19.122  18.348   5.754
 4177POPC   C1A55047  19.160  18.076   6.204
 4177POPC   D2A55048  18.952  18.301   6.571
 4177POPC   C3A55049  18.962  18.096   6.980
 4177POPC   C4A55050  19.293  18.196   7.276
 4177POPC   C1B55051  19.254  18.584   6.124
 4177POPC   C2B55052  19.237  18.807   6.532
 4177POPC   C3B55053  19.237  18.588   6.925
 4177POPC   C4B55054  18.922  18.559   7.209
 4178POPC   NC355055  27.799   2.783   5.478
 4178POPC   PO455056  27.114   2.927   5.418
 4178POPC   GL155057  27.411   2.765   5.799
 4178POPC   GL255058  27.702   3.001   5.907
 4178POPC   C1A55059  27.449   2.699   6.268
 4178POPC   D2A55060  27.350   2.818   6.682
 4178POPC   C3A55061  27.624   2.732   7.036
 4178POPC   C4A55062  27.553   2.716   7.497
 4178POPC   C1B55063  27.892   3.141   6.252
 4178POPC   C2B55064  27.948   2.912   6.631
 4178POPC   C3B55065  28.065   3.033   7.040
 4178POPC   C4B55066  27.899   3.082   7.454
 4179POPC   NC355067   1.755   7.981   5.518
 4179POPC   PO455068   2.413   8.004   5.448
 4179POPC   GL155069   2.332   8.216   5.837
 4179POPC   GL255070   1.977   8.211   5.910
 4179POPC   C1A55071   2.324   8.074   6.282
 4179POPC   D2A55072   2.122   7.867   6.641
 4179POPC   C3A55073   2.152   7.966   7.086
 4179POPC   C4A55074   2.176   8.287   7.391
 4179POPC   C1B55075   1.833   8.196   6.356
 4179POPC   C2B55076   1.879   8.315   6.804
 4179POPC   C3B55077   1.682   8.211   7.211
 4179POPC   C4B55078   1.382   8.251   7.569
 4180POPC   NC355079  21.082   7.174   5.050
 4180POPC   PO455080  21.447   7.534   5.494
 4180POPC   GL155081  21.550   7.418   5.901
 4180POPC   GL255082  21.650   7.078   5.926
 4180POPC   C1A55083  21.459   7.602   6.304
 4180POPC   D2A55084  21.179   7.588   6.644
 4180POPC   C3A55085  21.366   7.602   7.068
 4180POPC   C4A55086  21.690   7.716   7.402
 4180POPC   C1B55087  21.370   7.093   6.301
 4180POPC   C2B55088  21.432   7.156   6.756
 4180POPC   C3B55089  21.434   7.128   7.192
 4180POPC   C4B55090  21.111   7.115   7.492
 4181POPC   NC355091  20.109  28.970   5.471
 4181POPC   PO455092  19.532  29.207   5.365
 4181POPC   GL155093  19.723  29.311   5.727
 4181POPC   GL255094  19.685  28.959   5.812
 4181POPC   C1A55095  19.746  29.290   6.193
 4181POPC   D2A55096  19.881  29.047   6.564
 4181POPC   C3A55097  19.932  29.142   7.001
 4181POPC   C4A55098  19.886  29.463   7.291
 4181POPC   C1B55099  19.773  28.709   6.180
 4181POPC   C2B55100  19.756  28.558   6.617
 4181POPC   C3B55101  19.523  28.846   6.872
 4181POPC   C4B55102  19.403  28.946   7.264
 4182POPC   NC355103  44.899   4.661   5.579
 4182POPC   PO455104  44.467   4.168   5.367
 4182POPC   GL155105  44.542   4.349   5.765
 4182POPC   GL255106  44.680   4.055   5.879
 4182POPC   C1A55107  44.672   4.508   6.195
 4182POPC   D2A55108  44.417   4.530   6.574
 4182POPC   C3A55109  44.528   4.287   6.927
 4182POPC   C4A55110  44.823   4.438   7.225
 4182POPC   C1B55111  44.982   4.091   6.210
 4182POPC   C2B55112  44.967   4.242   6.622
 4182POPC   C3B55113  44.972   4.018   6.982
 4182POPC   C4B55114   0.147   4.051   7.366
 4183POPC   NC355115  27.023  11.029   5.433
 4183POPC   PO455116  26.487  11.132   5.461
 4183POPC   GL155117  26.656  11.295   5.889
 4183POPC   GL255118  26.996  11.393   5.833
 4183POPC   C1A55119  26.619  11.545   6.322
 4183POPC   D2A55120  26.515  11.687   6.787
 4183POPC   C3A55121  26.646  11.383   7.148
 4183POPC   C4A55122  26.884  11.091   7.432
 4183POPC   C1B55123  27.080  11.308   6.285
 4183POPC   C2B55124  26.917  11.373   6.720
 4183POPC   C3B55125  27.167  11.406   7.130
 4183POPC   C4B55126  27.249  11.408   7.621
 4184POPC   NC355127  19.102  35.827   5.562
 4184POPC   PO455128  19.219  35.305   5.223
 4184POPC   GL155129  19.132  35.194   5.700
 4184POPC   GL255130  18.924  35.453   5.870
 4184POPC   C1A55131  18.999  35.048   6.151
 4184POPC   D2A55132  18.840  35.232   6.544
 4184POPC   C3A55133  19.002  35.236   6.976
 4184POPC   C4A55134  19.121  34.936   7.291
 4184POPC   C1B55135  18.938  35.670   6.251
 4184POPC   C2B55136  19.071  35.750   6.690
 4184POPC   C3B55137  18.909  35.735   7.111
 4184POPC   C4B55138  18.932  35.494   7.509
 4185POPC   NC355139  24.648  32.579   5.086
 4185POPC   PO455140  24.400  32.026   5.517
 4185POPC   GL155141  24.544  32.295   5.801
 4185POPC   GL255142  24.232  32.436   5.847
 4185POPC   C1A55143  24.483  32.147   6.219
 4185POPC   D2A55144  24.441  32.315   6.600
 4185POPC   C3A55145  24.419  32.126   6.994
 4185POPC   C4A55146  24.721  32.000   7.324
 4185POPC   C1B55147  24.282  32.650   6.233
 4185POPC   C2B55148  24.035  32.668   6.591
 4185POPC   C3B55149  24.004  32.443   6.930
 4185POPC   C4B55150  24.162  32.470   7.315
 4186POPC   NC355151  42.101  15.412   5.423
 4186POPC   PO455152  42.597  15.011   5.506
 4186POPC   GL155153  42.431  15.271   5.828
 4186POPC   GL255154  42.107  15.113   5.899
 4186POPC   C1A55155  42.416  15.174   6.274
 4186POPC   D2A55156  42.399  14.805   6.528
 4186POPC   C3A55157  42.547  14.993   6.922
 4186POPC   C4A55158  42.468  15.408   7.167
 4186POPC   C1B55159  41.928  15.063   6.323
 4186POPC   C2B55160  42.104  15.165   6.714
 4186POPC   C3B55161  42.059  15.122   7.106
 4186POPC   C4B55162  41.871  14.833   7.373
 4187POPC   NC355163  24.813  33.484   5.367
 4187POPC   PO455164  24.407  34.020   5.632
 4187POPC   GL155165  24.637  33.829   5.978
 4187POPC   GL255166  24.879  33.582   5.891
 4187POPC   C1A55167  24.490  33.751   6.401
 4187POPC   D2A55168  24.162  33.611   6.710
 4187POPC   C3A55169  24.108  33.544   7.175
 4187POPC   C4A55170  24.302  33.788   7.549
 4187POPC   C1B55171  25.000  33.546   6.339
 4187POPC   C2B55172  24.779  33.494   6.722
 4187POPC   C3B55173  24.552  33.791   7.024
 4187POPC   C4B55174  24.771  33.962   7.434
 4188POPC   NC355175   5.312  37.410   5.523
 4188POPC   PO455176   5.143  38.061   5.371
 4188POPC   GL155177   5.127  37.836   5.761
 4188POPC   GL255178   4.994  37.537   5.887
 4188POPC   C1A55179   5.050  37.977   6.170
 4188POPC   D2A55180   4.781  37.870   6.530
 4188POPC   C3A55181   4.814  37.854   6.999
 4188POPC   C4A55182   5.037  37.831   7.424
 4188POPC   C1B55183   5.197  37.523   6.297
 4188POPC   C2B55184   5.027  37.418   6.693
 4188POPC   C3B55185   5.137  37.426   7.110
 4188POPC   C4B55186   4.870  37.325   7.447
 4189POPC   NC355187  35.760   0.763   4.995
 4189POPC   PO455188  36.101   0.278   5.304
 4189POPC   GL155189  36.162   0.329   5.734
 4189POPC   GL255190  36.427   0.099   5.796
 4189POPC   C1A55191  36.039   0.419   6.169
 4189POPC   D2A55192  36.109   0.295   6.618
 4189POPC   C3A55193  36.252   0.613   6.827
 4189POPC   C4A55194  36.244   0.721   7.227
 4189POPC   C1B55195  36.381   0.048   6.218
 4189POPC   C2B55196  36.441  44.919   6.628
 4189POPC   C3B55197  36.448   0.125   7.033
 4189POPC   C4B55198  36.284   0.122   7.453
 4190POPC   NC355199   9.434  28.561   5.649
 4190POPC   PO455200   8.861  28.388   5.274
 4190POPC   GL155201   8.912  28.515   5.701
 4190POPC   GL255202   8.581  28.506   5.801
 4190POPC   C1A55203   8.952  28.552   6.177
 4190POPC   D2A55204   9.138  28.250   6.466
 4190POPC   C3A55205   9.351  28.370   6.824
 4190POPC   C4A55206   9.335  28.237   7.218
 4190POPC   C1B55207   8.719  28.139   6.045
 4190POPC   C2B55208   8.652  28.135   6.522
 4190POPC   C3B55209   8.897  28.144   6.919
 4190POPC   C4B55210   8.887  28.513   7.180
 4191POPC   NC355211   0.674  25.607   5.468
 4191POPC   PO455212  44.975  25.550   5.358
 4191POPC   GL155213   0.277  25.186   5.603
 4191POPC   GL255214   0.605  25.203   5.747
 4191POPC   C1A55215   0.265  25.095   6.099
 4191POPC   D2A55216   0.405  25.298   6.517
 4191POPC   C3A55217   0.145  25.245   6.871
 4191POPC   C4A55218   0.310  25.259   7.266
 4191POPC   C1B55219   0.777  25.165   6.169
 4191POPC   C2B55220   0.933  25.454   6.477
 4191POPC   C3B55221   0.793  25.403   6.901
 4191POPC   C4B55222   0.697  25.596   7.287
 4192POPC   NC355223   7.401  12.231   5.369
 4192POPC   PO455224   7.186  11.601   5.448
 4192POPC   GL155225   7.355  11.849   5.809
 4192POPC   GL255226   7.581  12.118   5.846
 4192POPC   C1A55227   7.210  12.089   6.193
 4192POPC   D2A55228   7.307  12.326   6.558
 4192POPC   C3A55229   7.129  12.204   6.945
 4192POPC   C4A55230   7.179  11.856   7.234
 4192POPC   C1B55231   7.713  12.086   6.278
 4192POPC   C2B55232   7.839  12.279   6.659
 4192POPC   C3B55233   7.644  12.084   6.993
 4192POPC   C4B55234   7.681  11.866   7.381
 4193POPC   NC355235   0.960  42.730   5.368
 4193POPC   PO455236   1.391  42.211   5.362
 4193POPC   GL155237   1.339  42.214   5.811
 4193POPC   GL255238   1.386  42.569   5.883
 4193POPC   C1A55239   1.231  42.174   6.256
 4193POPC   D2A55240   1.194  42.494   6.571
 4193POPC   C3A55241   1.139  42.346   6.984
 4193POPC   C4A55242   1.363  42.579   7.272
 4193POPC   C1B55243   0.998  42.670   6.119
 4193POPC   C2B55244   0.789  42.800   6.518
 4193POPC   C3B55245   0.901  42.837   6.934
 4193POPC   C4B55246   0.874  42.685   7.309
 4194POPC   NC355247  16.102  33.299   5.543
 4194POPC   PO455248  15.691  32.831   5.476
 4194POPC   GL155249  15.678  33.146   5.790
 4194POPC   GL255250  15.992  32.946   5.897
 4194POPC   C1A55251  15.732  33.214   6.259
 4194POPC   D2A55252  15.960  32.924   6.567
 4194POPC   C3A55253  15.790  32.806   6.984
 4194POPC   C4A55254  15.797  33.080   7.316
 4194POPC   C1B55255  16.241  33.170   6.200
 4194POPC   C2B55256  16.388  33.207   6.606
 4194POPC   C3B55257  16.160  33.240   6.970
 4194POPC   C4B55258  16.284  33.248   7.389
 4195POPC   NC355259  31.876   7.974   5.346
 4195POPC   PO455260  32.337   8.414   5.198
 4195POPC   GL155261  32.282   8.255   5.672
 4195POPC   GL255262  32.046   7.992   5.818
 4195POPC   C1A55263  32.434   8.143   6.115
 4195POPC   D2A55264  32.310   8.210   6.546
 4195POPC   C3A55265  32.439   7.989   6.908
 4195POPC   C4A55266  32.419   8.342   7.202
 4195POPC   C1B55267  31.912   8.126   6.224
 4195POPC   C2B55268  31.882   7.948   6.652
 4195POPC   C3B55269  31.974   8.136   7.027
 4195POPC   C4B55270  31.832   8.235   7.419
 4196POPC   NC355271  34.417  12.140   5.413
 4196POPC   PO455272  34.728  11.707   5.749
 4196POPC   GL155273  34.390  11.904   5.906
 4196POPC   GL255274  34.470  12.267   5.903
 4196POPC   C1A55275  34.248  12.053   6.307
 4196POPC   D2A55276  34.429  12.179   6.703
 4196POPC   C3A55277  34.477  11.877   7.015
 4196POPC   C4A55278  34.835  11.661   7.148
 4196POPC   C1B55279  34.699  12.367   6.278
 4196POPC   C2B55280  34.865  12.551   6.655
 4196POPC   C3B55281  34.803  12.323   7.038
 4196POPC   C4B55282  34.387  12.363   7.240
 4197POPC   NC355283  31.040  11.138   5.433
 4197POPC   PO455284  30.433  11.438   5.298
 4197POPC   GL155285  30.645  11.391   5.726
 4197POPC   GL255286  30.934  11.599   5.801
 4197POPC   C1A55287  30.500  11.249   6.159
 4197POPC   D2A55288  30.356  11.166   6.596
 4197POPC   C3A55289  30.634  11.207   6.960
 4197POPC   C4A55290  30.713  11.027   7.346
 4197POPC   C1B55291  30.728  11.694   6.184
 4197POPC   C2B55292  30.709  11.531   6.582
 4197POPC   C3B55293  30.811  11.672   6.979
 4197POPC   C4B55294  31.029  11.409   7.234
 4198POPC   NC355295  22.465  35.201   5.055
 4198POPC   PO455296  21.814  35.217   5.203
 4198POPC   GL155297  21.875  35.438   5.606
 4198POPC   GL255298  21.647  35.265   5.784
 4198POPC   C1A55299  22.166  35.390   5.989
 4198POPC   D2A55300  22.227  35.145   6.411
 4198POPC   C3A55301  22.312  35.359   6.837
 4198POPC   C4A55302  22.422  35.411   7.299
 4198POPC   C1B55303  21.746  35.244   6.209
 4198POPC   C2B55304  21.847  35.453   6.550
 4198POPC   C3B55305  21.789  35.285   6.937
 4198POPC   C4B55306  21.944  35.220   7.336
 4199POPC   NC355307  23.368  39.160   5.319
 4199POPC   PO455308  22.688  39.342   5.132
 4199POPC   GL155309  22.869  39.287   5.596
 4199POPC   GL255310  23.022  38.977   5.661
 4199POPC   C1A55311  22.980  39.474   6.046
 4199POPC   D2A55312  23.254  39.359   6.433
 4199POPC   C3A55313  23.131  39.488   6.864
 4199POPC   C4A55314  22.710  39.556   7.093
 4199POPC   C1B55315  22.975  38.966   6.101
 4199POPC   C2B55316  23.107  38.791   6.493
 4199POPC   C3B55317  23.029  38.972   6.895
 4199POPC   C4B55318  22.942  39.098   7.309
 4200POPC   NC355319  31.709  17.206   5.470
 4200POPC   PO455320  31.290  17.802   5.363
 4200POPC   GL155321  31.534  17.688   5.759
 4200POPC   GL255322  31.477  17.344   5.902
 4200POPC   C1A55323  31.678  17.731   6.200
 4200POPC   D2A55324  31.526  17.542   6.597
 4200POPC   C3A55325  31.749  17.597   6.991
 4200POPC   C4A55326  31.630  17.713   7.441
 4200POPC   C1B55327  31.367  17.045   6.248
 4200POPC   C2B55328  31.536  17.030   6.675
 4200POPC   C3B55329  31.443  17.198   7.067
 4200POPC   C4B55330  31.527  17.212   7.497
 4201POPC   NC355331   9.179  42.761   5.465
 4201POPC   PO455332   8.771  42.335   5.503
 4201POPC   GL155333   8.887  42.380   5.896
 4201POPC   GL255334   8.977  42.742   5.943
 4201POPC   C1A55335   8.923  42.161   6.274
 4201POPC   D2A55336   8.997  42.328   6.670
 4201POPC   C3A55337   8.934  42.018   6.940
 4201POPC   C4A55338   9.070  42.223   7.275
 4201POPC   C1B55339   9.240  42.567   6.291
 4201POPC   C2B55340   9.440  42.638   6.707
 4201POPC   C3B55341   9.350  42.650   7.166
 4201POPC   C4B55342   9.348  42.487   7.597
 4202POPC   NC355343   2.996  13.132   5.443
 4202POPC   PO455344   2.908  13.792   5.377
 4202POPC   GL155345   2.844  13.743   5.840
 4202POPC   GL255346   2.618  13.439   5.970
 4202POPC   C1A55347   2.602  13.864   6.211
 4202POPC   D2A55348   2.579  13.574   6.566
 4202POPC   C3A55349   2.642  13.794   6.957
 4202POPC   C4A55350   2.496  13.849   7.344
 4202POPC   C1B55351   2.989  13.440   6.215
 4202POPC   C2B55352   3.157  13.443   6.600
 4202POPC   C3B55353   2.974  13.395   6.954
 4202POPC   C4B55354   3.104  13.701   7.206
 4203POPC   NC355355  31.839   9.650   5.492
 4203POPC   PO455356  31.159   9.726   5.440
 4203POPC   GL155357  31.389   9.744   5.776
 4203POPC   GL255358  31.347   9.465   5.974
 4203POPC   C1A55359  31.332   9.976   6.142
 4203POPC   D2A55360  31.464   9.925   6.551
 4203POPC   C3A55361  31.222   9.920   6.925
 4203POPC   C4A55362  31.446   9.993   7.288
 4203POPC   C1B55363  31.697   9.595   6.186
 4203POPC   C2B55364  31.821   9.514   6.583
 4203POPC   C3B55365  31.684   9.665   6.939
 4203POPC   C4B55366  31.491   9.494   7.239
 4204POPC   NC355367  44.887   0.672   5.556
 4204POPC   PO455368  44.726   0.154   5.154
 4204POPC   GL155369  44.718   0.155   5.632
 4204POPC   GL255370  44.520   0.389   5.792
 4204POPC   C1A55371  44.781   0.107   6.115
 4204POPC   D2A55372  44.604   0.281   6.520
 4204POPC   C3A55373  44.806   0.181   6.920
 4204POPC   C4A55374  44.790   0.398   7.326
 4204POPC   C1B55375  44.488   0.650   6.168
 4204POPC   C2B55376  44.626   0.819   6.563
 4204POPC   C3B55377  44.534   0.631   6.943
 4204POPC   C4B55378  44.404   0.745   7.351
 4205POPC   NC355379  42.580  35.796   5.685
 4205POPC   PO455380  43.102  36.183   5.405
 4205POPC   GL155381  43.226  36.124   5.843
 4205POPC   GL255382  42.984  35.894   6.013
 4205POPC   C1A55383  43.147  36.333   6.242
 4205POPC   D2A55384  43.173  36.164   6.650
 4205POPC   C3A55385  43.210  36.472   6.947
 4205POPC   C4A55386  43.314  36.391   7.365
 4205POPC   C1B55387  42.904  35.575   6.338
 4205POPC   C2B55388  42.886  35.513   6.782
 4205POPC   C3B55389  43.073  35.826   7.049
 4205POPC   C4B55390  42.862  36.189   7.176
 4206POPC   NC355391  28.363  40.770   5.333
 4206POPC   PO455392  28.416  41.337   5.603
 4206POPC   GL155393  28.343  40.933   5.849
 4206POPC   GL255394  28.444  40.567   5.796
 4206POPC   C1A55395  28.268  40.930   6.291
 4206POPC   D2A55396  28.520  40.892   6.678
 4206POPC   C3A55397  28.245  40.991   7.023
 4206POPC   C4A55398  28.208  40.968   7.484
 4206POPC   C1B55399  28.643  40.615   6.211
 4206POPC   C2B55400  28.679  40.392   6.626
 4206POPC   C3B55401  28.683  40.565   7.048
 4206POPC   C4B55402  28.676  40.932   7.288
 4207POPC   NC355403  40.275   0.936   5.067
 4207POPC   PO455404  40.001   0.432   5.377
 4207POPC   GL155405  40.101   0.424   5.800
 4207POPC   GL255406  40.341   0.682   5.820
 4207POPC   C1A55407  39.912   0.334   6.183
 4207POPC   D2A55408  40.001   0.438   6.585
 4207POPC   C3A55409  39.726   0.598   6.855
 4207POPC   C4A55410  39.875   0.441   7.234
 4207POPC   C1B55411  40.202   0.782   6.225
 4207POPC   C2B55412  39.999   0.951   6.576
 4207POPC   C3B55413  40.186   0.773   6.948
 4207POPC   C4B55414  40.252   0.856   7.347
 4208POPC   NC355415  41.995  43.727   5.338
 4208POPC   PO455416  42.449  44.256   5.337
 4208POPC   GL155417  42.350  44.030   5.760
 4208POPC   GL255418  42.182  43.670   5.795
 4208POPC   C1A55419  42.157  44.007   6.196
 4208POPC   D2A55420  42.114  44.055   6.647
 4208POPC   C3A55421  42.511  44.114   6.883
 4208POPC   C4A55422  42.287  44.227   7.188
 4208POPC   C1B55423  42.512  43.636   6.088
 4208POPC   C2B55424  42.519  43.745   6.527
 4208POPC   C3B55425  42.301  43.654   6.945
 4208POPC   C4B55426  42.650  43.501   7.149
 4209POPC   NC355427   5.976  15.112   5.408
 4209POPC   PO455428   6.357  15.542   5.632
 4209POPC   GL155429   5.999  15.291   5.888
 4209POPC   GL255430   5.652  15.350   5.781
 4209POPC   C1A55431   5.999  15.160   6.350
 4209POPC   D2A55432   5.986  15.253   6.820
 4209POPC   C3A55433   5.983  14.953   7.205
 4209POPC   C4A55434   6.092  15.152   7.671
 4209POPC   C1B55435   5.619  14.961   6.048
 4209POPC   C2B55436   5.539  14.984   6.495
 4209POPC   C3B55437   5.480  15.104   6.927
 4209POPC   C4B55438   5.647  15.332   7.283
 4210POPC   NC355439  19.943  41.807   5.256
 4210POPC   PO455440  19.882  41.109   5.333
 4210POPC   GL155441  19.909  41.443   5.710
 4210POPC   GL255442  20.100  41.761   5.751
 4210POPC   C1A55443  19.916  41.530   6.181
 4210POPC   D2A55444  19.678  41.463   6.567
 4210POPC   C3A55445  19.811  41.308   6.957
 4210POPC   C4A55446  19.762  41.291   7.415
 4210POPC   C1B55447  20.364  41.800   6.105
 4210POPC   C2B55448  20.257  41.790   6.510
 4210POPC   C3B55449  20.271  41.554   6.868
 4210POPC   C4B55450  20.079  41.638   7.235
 4211POPC   NC355451  34.399  43.551   5.372
 4211POPC   PO455452  34.833  44.119   5.356
 4211POPC   GL155453  34.831  43.977   5.786
 4211POPC   GL255454  34.577  43.709   5.840
 4211POPC   C1A55455  34.832  43.966   6.240
 4211POPC   D2A55456  34.692  43.799   6.633
 4211POPC   C3A55457  34.727  44.012   7.011
 4211POPC   C4A55458  34.974  43.791   7.317
 4211POPC   C1B55459  34.354  43.714   6.260
 4211POPC   C2B55460  34.243  43.551   6.690
 4211POPC   C3B55461  34.256  43.809   7.084
 4211POPC   C4B55462  34.347  44.234   7.308
 4212POPC   NC355463  23.967  42.040   5.438
 4212POPC   PO455464  23.622  42.485   5.117
 4212POPC   GL155465  23.588  42.362   5.566
 4212POPC   GL255466  23.299  42.457   5.679
 4212POPC   C1A55467  23.702  42.264   6.009
 4212POPC   D2A55468  23.710  42.017   6.387
 4212POPC   C3A55469  23.797  42.173   6.787
 4212POPC   C4A55470  23.727  42.317   7.183
 4212POPC   C1B55471  23.288  42.543   6.111
 4212POPC   C2B55472  23.451  42.460   6.533
 4212POPC   C3B55473  23.289  42.480   6.951
 4212POPC   C4B55474  23.266  42.378   7.395
 4213POPC   NC355475  18.175  42.036   5.372
 4213POPC   PO455476  18.005  42.732   5.397
 4213POPC   GL155477  18.215  42.511   5.747
 4213POPC   GL255478  18.518  42.262   5.684
 4213POPC   C1A55479  18.359  42.652   6.171
 4213POPC   D2A55480  18.477  42.707   6.619
 4213POPC   C3A55481  18.214  42.479   6.875
 4213POPC   C4A55482  18.292  42.456   7.284
 4213POPC   C1B55483  18.358  42.139   6.087
 4213POPC   C2B55484  18.499  42.139   6.528
 4213POPC   C3B55485  18.472  42.017   6.964
 4213POPC   C4B55486  18.081  42.002   7.159
 4214POPC   NC355487   7.659  11.494   5.483
 4214POPC   PO455488   8.350  11.297   5.288
 4214POPC   GL155489   8.178  11.288   5.725
 4214POPC   GL255490   8.032  11.617   5.801
 4214POPC   C1A55491   8.119  11.086   6.150
 4214POPC   D2A55492   7.954  11.237   6.575
 4214POPC   C3A55493   8.163  11.063   6.932
 4214POPC   C4A55494   8.072  10.974   7.363
 4214POPC   C1B55495   8.129  11.582   6.232
 4214POPC   C2B55496   7.963  11.754   6.642
 4214POPC   C3B55497   8.033  11.600   7.065
 4214POPC   C4B55498   8.361  11.660   7.378
 4215POPC   NC355499  18.727   3.515   5.399
 4215POPC   PO455500  19.376   3.828   5.374
 4215POPC   GL155501  19.266   3.664   5.815
 4215POPC   GL255502  18.913   3.486   5.870
 4215POPC   C1A55503  19.282   3.382   6.200
 4215POPC   D2A55504  19.177   3.198   6.616
 4215POPC   C3A55505  19.256   3.538   6.940
 4215POPC   C4A55506  19.474   3.546   7.342
 4215POPC   C1B55507  18.783   3.311   6.290
 4215POPC   C2B55508  18.775   3.510   6.705
 4215POPC   C3B55509  18.760   3.508   7.166
 4215POPC   C4B55510  18.657   3.766   7.479
 4216POPC   NC355511  40.459  25.137   5.390
 4216POPC   PO455512  41.001  25.415   5.404
 4216POPC   GL155513  40.692  25.390   5.767
 4216POPC   GL255514  40.574  25.698   5.880
 4216POPC   C1A55515  40.561  25.254   6.198
 4216POPC   D2A55516  40.446  25.283   6.659
 4216POPC   C3A55517  40.848  25.285   6.901
 4216POPC   C4A55518  40.935  25.113   7.297
 4216POPC   C1B55519  40.969  25.685   6.120
 4216POPC   C2B55520  41.131  25.526   6.526
 4216POPC   C3B55521  41.120  25.737   6.929
 4216POPC   C4B55522  40.980  25.647   7.335
 4217POPC   NC355523   2.987  24.183   5.176
 4217POPC   PO455524   2.873  23.654   5.475
 4217POPC   GL155525   2.712  23.501   5.879
 4217POPC   GL255526   2.382  23.588   6.010
 4217POPC   C1A55527   2.885  23.404   6.298
 4217POPC   D2A55528   2.846  23.556   6.734
 4217POPC   C3A55529   2.486  23.523   7.002
 4217POPC   C4A55530   2.638  23.560   7.423
 4217POPC   C1B55531   2.498  23.752   6.395
 4217POPC   C2B55532   2.501  23.993   6.775
 4217POPC   C3B55533   2.770  24.126   7.117
 4217POPC   C4B55534   3.181  24.214   7.349
 4218POPC   NC355535  28.382  17.900   5.488
 4218POPC   PO455536  28.190  17.307   5.322
 4218POPC   GL155537  28.340  17.415   5.783
 4218POPC   GL255538  28.319  17.755   5.978
 4218POPC   C1A55539  28.471  17.314   6.245
 4218POPC   D2A55540  28.717  17.441   6.639
 4218POPC   C3A55541  28.606  17.334   7.044
 4218POPC   C4A55542  28.165  17.334   7.168
 4218POPC   C1B55543  28.203  17.740   6.433
 4218POPC   C2B55544  28.319  17.759   6.891
 4218POPC   C3B55545  28.070  17.901   7.269
 4218POPC   C4B55546  28.018  17.929   7.752
 4219POPC   NC355547   7.921  18.372   5.349
 4219POPC   PO455548   8.463  18.050   5.477
 4219POPC   GL155549   8.324  18.318   5.858
 4219POPC   GL255550   7.968  18.465   5.872
 4219POPC   C1A55551   8.233  18.364   6.334
 4219POPC   D2A55552   8.078  18.411   6.765
 4219POPC   C3A55553   8.417  18.339   7.049
 4219POPC   C4A55554   8.512  18.027   7.339
 4219POPC   C1B55555   7.958  18.043   6.066
 4219POPC   C2B55556   7.920  17.953   6.522
 4219POPC   C3B55557   7.864  18.012   6.996
 4219POPC   C4B55558   8.032  18.247   7.363
 4220POPC   NC355559   4.004  18.550   5.388
 4220POPC   PO455560   3.409  18.199   5.245
 4220POPC   GL155561   3.746  18.117   5.651
 4220POPC   GL255562   3.641  17.865   5.919
 4220POPC   C1A55563   3.892  18.262   6.093
 4220POPC   D2A55564   3.826  18.392   6.518
 4220POPC   C3A55565   3.645  18.186   6.870
 4220POPC   C4A55566   3.637  18.265   7.320
 4220POPC   C1B55567   3.458  18.056   6.348
 4220POPC   C2B55568   3.192  18.315   6.615
 4220POPC   C3B55569   3.094  18.348   7.047
 4220POPC   C4B55570   3.106  18.091   7.412
 4221POPC   NC355571  20.157  18.820   5.379
 4221POPC   PO455572  19.549  19.219   5.322
 4221POPC   GL155573  19.700  19.243   5.721
 4221POPC   GL255574  20.071  19.185   5.774
 4221POPC   C1A55575  19.768  19.447   6.100
 4221POPC   D2A55576  20.026  19.182   6.347
 4221POPC   C3A55577  20.060  19.110   6.799
 4221POPC   C4A55578  20.205  19.129   7.233
 4221POPC   C1B55579  19.882  18.824   5.993
 4221POPC   C2B55580  19.727  18.745   6.379
 4221POPC   C3B55581  19.709  18.735   6.805
 4221POPC   C4B55582  19.721  18.979   7.180
 4222POPC   NC355583  24.865  27.452   5.287
 4222POPC   PO455584  24.890  28.141   5.435
 4222POPC   GL155585  24.679  28.028   5.820
 4222POPC   GL255586  24.416  27.795   5.773
 4222POPC   C1A55587  24.827  27.791   6.186
 4222POPC   D2A55588  25.004  27.875   6.614
 4222POPC   C3A55589  24.809  27.844   7.037
 4222POPC   C4A55590  24.449  27.606   7.194
 4222POPC   C1B55591  24.120  27.709   6.133
 4222POPC   C2B55592  23.965  27.735   6.573
 4222POPC   C3B55593  23.958  27.575   7.008
 4222POPC   C4B55594  23.991  27.477   7.459
 4223POPC   NC355595  24.053  16.521   5.371
 4223POPC   PO455596  23.996  17.122   5.604
 4223POPC   GL155597  23.717  16.947   5.890
 4223POPC   GL255598  23.629  16.610   5.773
 4223POPC   C1A55599  23.465  16.832   6.248
 4223POPC   D2A55600  23.548  16.970   6.656
 4223POPC   C3A55601  23.658  16.864   7.090
 4223POPC   C4A55602  23.463  16.915   7.513
 4223POPC   C1B55603  23.886  16.546   6.183
 4223POPC   C2B55604  23.764  16.479   6.611
 4223POPC   C3B55605  23.970  16.458   7.004
 4223POPC   C4B55606  24.275  16.444   7.354
 4224POPC   NC355607  36.702  33.425   5.423
 4224POPC   PO455608  36.840  34.079   5.341
 4224POPC   GL155609  36.991  33.906   5.776
 4224POPC   GL255610  37.049  33.568   5.792
 4224POPC   C1A55611  37.094  33.851   6.227
 4224POPC   D2A55612  36.851  33.699   6.596
 4224POPC   C3A55613  36.795  33.906   6.991
 4224POPC   C4A55614  36.981  33.794   7.381
 4224POPC   C1B55615  36.832  33.416   6.161
 4224POPC   C2B55616  36.532  33.304   6.481
 4224POPC   C3B55617  36.398  33.534   6.836
 4224POPC   C4B55618  36.509  33.583   7.261
 4225POPC   NC355619   3.004  12.413   5.280
 4225POPC   PO455620   2.552  11.919   5.550
 4225POPC   GL155621   2.776  12.032   5.927
 4225POPC   GL255622   3.021  12.172   5.725
 4225POPC   C1A55623   2.704  12.125   6.353
 4225POPC   D2A55624   2.470  11.868   6.616
 4225POPC   C3A55625   2.356  12.043   6.947
 4225POPC   C4A55626   2.586  12.026   7.321
 4225POPC   C1B55627   3.021  12.452   6.082
 4225POPC   C2B55628   2.907  12.571   6.509
 4225POPC   C3B55629   2.881  12.299   6.902
 4225POPC   C4B55630   3.057  11.965   7.174
 4226POPC   NC355631   2.969   1.593   5.199
 4226POPC   PO455632   2.593   1.027   5.342
 4226POPC   GL155633   2.823   1.197   5.730
 4226POPC   GL255634   2.801   1.565   5.733
 4226POPC   C1A55635   3.089   1.048   6.133
 4226POPC   D2A55636   3.156   1.216   6.521
 4226POPC   C3A55637   3.114   1.053   6.911
 4226POPC   C4A55638   2.990   1.284   7.230
 4226POPC   C1B55639   2.787   1.448   6.176
 4226POPC   C2B55640   2.570   1.296   6.520
 4226POPC   C3B55641   2.546   1.292   6.970
 4226POPC   C4B55642   2.553   1.465   7.404
 4227POPC   NC355643  26.596  42.604   5.457
 4227POPC   PO455644  26.989  42.096   5.474
 4227POPC   GL155645  26.846  42.330   5.853
 4227POPC   GL255646  26.541  42.187   5.788
 4227POPC   C1A55647  26.787  42.517   6.311
 4227POPC   D2A55648  26.799  42.458   6.790
 4227POPC   C3A55649  26.566  42.752   7.077
 4227POPC   C4A55650  26.566  42.737   7.556
 4227POPC   C1B55651  26.378  42.226   6.175
 4227POPC   C2B55652  26.230  42.076   6.545
 4227POPC   C3B55653  26.385  42.150   6.923
 4227POPC   C4B55654  26.458  42.311   7.296
 4228POPC   NC355655   4.580  30.327   5.580
 4228POPC   PO455656   4.674  29.637   5.410
 4228POPC   GL155657   4.404  29.894   5.784
 4228POPC   GL255658   4.008  29.866   5.795
 4228POPC   C1A55659   4.483  30.058   6.200
 4228POPC   D2A55660   4.540  30.138   6.626
 4228POPC   C3A55661   4.391  30.015   7.012
 4228POPC   C4A55662   4.515  30.115   7.442
 4228POPC   C1B55663   3.987  30.132   6.163
 4228POPC   C2B55664   3.997  30.035   6.611
 4228POPC   C3B55665   3.953  29.752   6.949
 4228POPC   C4B55666   4.106  29.786   7.374
 4229POPC   NC355667  32.353  20.964   4.999
 4229POPC   PO455668  32.283  20.379   5.254
 4229POPC   GL155669  32.349  20.391   5.742
 4229POPC   GL255670  32.389  20.751   5.881
 4229POPC   C1A55671  32.141  20.446   6.174
 4229POPC   D2A55672  32.182  20.463   6.616
 4229POPC   C3A55673  31.942  20.786   6.900
 4229POPC   C4A55674  32.017  20.813   7.360
 4229POPC   C1B55675  32.615  20.682   6.246
 4229POPC   C2B55676  32.602  20.816   6.656
 4229POPC   C3B55677  32.484  20.764   7.070
 4229POPC   C4B55678  32.736  20.867   7.437
 4230POPC   NC355679  10.912  41.885   5.418
 4230POPC   PO455680  11.234  42.537   5.277
 4230POPC   GL155681  11.259  42.302   5.708
 4230POPC   GL255682  11.339  41.929   5.727
 4230POPC   C1A55683  11.213  42.294   6.207
 4230POPC   D2A55684  11.030  42.432   6.645
 4230POPC   C3A55685  11.290  42.539   7.048
 4230POPC   C4A55686  11.141  42.618   7.496
 4230POPC   C1B55687  11.109  41.793   6.111
 4230POPC   C2B55688  11.159  41.800   6.537
 4230POPC   C3B55689  11.181  42.017   6.910
 4230POPC   C4B55690  11.364  42.064   7.284
 4231POPC   NC355691  18.827   9.404   5.418
 4231POPC   PO455692  19.383   9.701   5.514
 4231POPC   GL155693  19.090   9.865   5.802
 4231POPC   GL255694  18.921  10.168   5.691
 4231POPC   C1A55695  19.182   9.785   6.232
 4231POPC   D2A55696  18.958   9.601   6.563
 4231POPC   C3A55697  19.114   9.713   6.942
 4231POPC   C4A55698  18.866   9.612   7.281
 4231POPC   C1B55699  18.859  10.171   6.176
 4231POPC   C2B55700  19.021  10.183   6.646
 4231POPC   C3B55701  18.931  10.153   7.134
 4231POPC   C4B55702  19.181   9.968   7.501
 4232POPC   NC355703  21.567   1.010   5.567
 4232POPC   PO455704  21.147   1.503   5.316
 4232POPC   GL155705  21.126   1.271   5.721
 4232POPC   GL255706  21.326   1.431   5.981
 4232POPC   C1A55707  20.973   1.107   6.153
 4232POPC   D2A55708  21.221   1.075   6.546
 4232POPC   C3A55709  21.202   1.116   6.995
 4232POPC   C4A55710  21.307   1.285   7.392
 4232POPC   C1B55711  21.617   1.365   6.330
 4232POPC   C2B55712  21.738   0.994   6.507
 4232POPC   C3B55713  21.607   0.820   6.850
 4232POPC   C4B55714  21.704   1.146   7.085
 4233POPC   NC355715  41.216   0.769   5.360
 4233POPC   PO455716  41.347   1.424   5.458
 4233POPC   GL155717  41.522   1.049   5.718
 4233POPC   GL255718  41.860   0.992   5.760
 4233POPC   C1A55719  41.586   0.854   6.165
 4233POPC   D2A55720  41.546   1.060   6.568
 4233POPC   C3A55721  41.683   1.150   6.992
 4233POPC   C4A55722  41.440   1.502   7.167
 4233POPC   C1B55723  41.780   1.333   6.111
 4233POPC   C2B55724  41.786   1.514   6.568
 4233POPC   C3B55725  41.947   1.613   6.984
 4233POPC   C4B55726  41.920   1.533   7.401
 4234POPC   NC355727  42.844  31.708   5.425
 4234POPC   PO455728  43.350  32.225   5.347
 4234POPC   GL155729  43.295  32.209   5.786
 4234POPC   GL255730  43.488  32.477   5.890
 4234POPC   C1A55731  42.964  32.262   6.123
 4234POPC   D2A55732  42.883  32.428   6.551
 4234POPC   C3A55733  42.960  32.258   6.974
 4234POPC   C4A55734  43.051  32.388   7.416
 4234POPC   C1B55735  43.440  32.247   6.300
 4234POPC   C2B55736  43.424  32.157   6.747
 4234POPC   C3B55737  43.444  32.402   7.113
 4234POPC   C4B55738  43.590  32.371   7.539
 4235POPC   NC355739  11.838  40.261   5.394
 4235POPC   PO455740  12.204  39.692   5.398
 4235POPC   GL155741  12.054  39.968   5.778
 4235POPC   GL255742  11.789  40.222   5.900
 4235POPC   C1A55743  11.855  39.820   6.198
 4235POPC   D2A55744  12.077  39.896   6.594
 4235POPC   C3A55745  11.959  39.852   7.022
 4235POPC   C4A55746  12.249  39.966   7.381
 4235POPC   C1B55747  11.838  40.306   6.362
 4235POPC   C2B55748  11.860  40.310   6.811
 4235POPC   C3B55749  11.879  40.301   7.262
 4235POPC   C4B55750  11.910  40.152   7.735
 4236POPC   NC355751  35.184  28.495   5.393
 4236POPC   PO455752  35.553  27.949   5.390
 4236POPC   GL155753  35.262  28.160   5.767
 4236POPC   GL255754  35.306  28.513   5.873
 4236POPC   C1A55755  35.067  28.230   6.213
 4236POPC   D2A55756  35.338  28.266   6.600
 4236POPC   C3A55757  35.200  28.352   7.005
 4236POPC   C4A55758  34.929  28.233   7.336
 4236POPC   C1B55759  35.599  28.389   6.173
 4236POPC   C2B55760  35.786  28.577   6.571
 4236POPC   C3B55761  35.660  28.600   7.004
 4236POPC   C4B55762  35.532  28.607   7.475
 4237POPC   NC355763  40.650  17.910   5.366
 4237POPC   PO455764  41.076  17.554   5.340
 4237POPC   GL155765  40.978  17.628   5.788
 4237POPC   GL255766  40.633  17.709   5.885
 4237POPC   C1A55767  41.017  17.721   6.247
 4237POPC   D2A55768  40.787  17.668   6.648
 4237POPC   C3A55769  40.945  17.404   6.976
 4237POPC   C4A55770  41.193  17.631   7.242
 4237POPC   C1B55771  40.621  17.380   6.245
 4237POPC   C2B55772  40.518  17.238   6.706
 4237POPC   C3B55773  40.454  17.439   7.131
 4237POPC   C4B55774  40.455  17.351   7.574
 4238POPC   NC355775  35.149  36.575   5.138
 4238POPC   PO455776  35.734  36.902   5.276
 4238POPC   GL155777  35.450  36.924   5.705
 4238POPC   GL255778  35.128  36.734   5.802
 4238POPC   C1A55779  35.406  36.786   6.191
 4238POPC   D2A55780  35.221  36.829   6.588
 4238POPC   C3A55781  35.459  36.888   6.925
 4238POPC   C4A55782  35.327  36.866   7.377
 4238POPC   C1B55783  35.020  36.438   6.168
 4238POPC   C2B55784  35.146  36.323   6.597
 4238POPC   C3B55785  35.116  36.514   7.009
 4238POPC   C4B55786  34.771  36.656   7.263
 4239POPC   NC355787  41.671  37.524   5.359
 4239POPC   PO455788  41.057  37.740   5.561
 4239POPC   GL155789  41.317  37.732   5.901
 4239POPC   GL255790  41.527  37.428   5.850
 4239POPC   C1A55791  41.331  37.930   6.306
 4239POPC   D2A55792  41.513  37.850   6.697
 4239POPC   C3A55793  41.266  37.775   7.058
 4239POPC   C4A55794  41.307  37.446   7.363
 4239POPC   C1B55795  41.723  37.597   6.228
 4239POPC   C2B55796  41.969  37.613   6.602
 4239POPC   C3B55797  41.891  37.715   7.008
 4239POPC   C4B55798  41.694  37.800   7.410
 4240POPC   NC355799  27.921  13.818   5.242
 4240POPC   PO455800  27.278  13.469   5.436
 4240POPC   GL155801  27.410  13.663   5.807
 4240POPC   GL255802  27.750  13.609   5.826
 4240POPC   C1A55803  27.377  13.820   6.222
 4240POPC   D2A55804  27.094  13.866   6.576
 4240POPC   C3A55805  27.340  13.811   6.951
 4240POPC   C4A55806  27.789  13.875   7.072
 4240POPC   C1B55807  27.734  13.390   6.252
 4240POPC   C2B55808  27.859  13.464   6.717
 4240POPC   C3B55809  27.975  13.396   7.163
 4240POPC   C4B55810  27.927  13.248   7.603
 4241POPC   NC355811  37.517   2.255   5.401
 4241POPC   PO455812  37.802   1.791   5.639
 4241POPC   GL155813  37.579   1.759   5.988
 4241POPC   GL255814  37.346   1.970   5.847
 4241POPC   C1A55815  37.621   1.702   6.431
 4241POPC   D2A55816  37.797   1.965   6.758
 4241POPC   C3A55817  37.742   1.777   7.146
 4241POPC   C4A55818  37.759   1.701   7.566
 4241POPC   C1B55819  37.370   2.147   6.265
 4241POPC   C2B55820  37.379   2.314   6.685
 4241POPC   C3B55821  37.329   2.082   7.052
 4241POPC   C4B55822  37.237   1.689   7.271
 4242POPC   NC355823  14.893  44.353   5.559
 4242POPC   PO455824  15.374  44.855   5.610
 4242POPC   GL155825  15.311  44.590   6.003
 4242POPC   GL255826  15.430  44.235   6.036
 4242POPC   C1A55827  15.279  44.615   6.483
 4242POPC   D2A55828  15.280  44.524   6.937
 4242POPC   C3A55829  15.127  44.842   7.205
 4242POPC   C4A55830  14.878   0.206   7.292
 4242POPC   C1B55831  15.001  44.236   6.261
 4242POPC   C2B55832  14.838  44.398   6.677
 4242POPC   C3B55833  14.815  44.369   7.141
 4242POPC   C4B55834  15.164  44.419   7.471
 4243POPC   NC355835   5.432   2.213   5.667
 4243POPC   PO455836   5.279   2.795   5.327
 4243POPC   GL155837   5.141   2.815   5.801
 4243POPC   GL255838   5.358   2.587   5.991
 4243POPC   C1A55839   4.961   2.765   6.261
 4243POPC   D2A55840   5.166   2.670   6.671
 4243POPC   C3A55841   4.979   2.783   7.098
 4243POPC   C4A55842   4.837   3.190   7.247
 4243POPC   C1B55843   5.448   2.940   6.226
 4243POPC   C2B55844   5.492   3.092   6.626
 4243POPC   C3B55845   5.469   2.912   7.020
 4243POPC   C4B55846   5.391   2.945   7.435
 4244POPC   NC355847  27.074  24.543   5.588
 4244POPC   PO455848  27.700  24.711   5.554
 4244POPC   GL155849  27.681  24.605   5.965
 4244POPC   GL255850  27.474  24.322   5.889
 4244POPC   C1A55851  27.710  24.685   6.411
 4244POPC   D2A55852  27.988  24.530   6.687
 4244POPC   C3A55853  27.875  24.345   7.051
 4244POPC   C4A55854  27.498  24.399   7.281
 4244POPC   C1B55855  27.555  24.208   6.324
 4244POPC   C2B55856  27.461  24.214   6.776
 4244POPC   C3B55857  27.552  23.926   7.156
 4244POPC   C4B55858  27.451  24.017   7.630
 4245POPC   NC355859   2.767  31.412   5.492
 4245POPC   PO455860   2.302  31.877   5.487
 4245POPC   GL155861   2.468  31.684   5.868
 4245POPC   GL255862   2.541  31.331   5.960
 4245POPC   C1A55863   2.628  31.764   6.271
 4245POPC   D2A55864   2.640  31.462   6.560
 4245POPC   C3A55865   2.540  31.528   6.946
 4245POPC   C4A55866   2.828  31.574   7.256
 4245POPC   C1B55867   2.917  31.184   6.234
 4245POPC   C2B55868   3.061  31.210   6.670
 4245POPC   C3B55869   2.857  31.108   7.040
 4245POPC   C4B55870   2.853  31.066   7.493
 4246POPC   NC355871   6.952   1.431   5.107
 4246POPC   PO455872   6.475   1.207   5.507
 4246POPC   GL155873   6.744   1.053   5.787
 4246POPC   GL255874   6.788   0.744   5.674
 4246POPC   C1A55875   6.616   1.203   6.188
 4246POPC   D2A55876   6.438   1.219   6.578
 4246POPC   C3A55877   6.481   1.511   6.881
 4246POPC   C4A55878   6.783   1.479   7.214
 4246POPC   C1B55879   6.666   0.693   6.125
 4246POPC   C2B55880   6.748   0.829   6.558
 4246POPC   C3B55881   6.691   1.010   6.973
 4246POPC   C4B55882   6.841   0.699   7.214
 4247POPC   NC355883  25.473  37.948   5.417
 4247POPC   PO455884  25.126  37.353   5.476
 4247POPC   GL155885  25.172  37.695   5.740
 4247POPC   GL255886  25.496  37.553   5.806
 4247POPC   C1A55887  25.293  37.860   6.150
 4247POPC   D2A55888  25.236  37.677   6.548
 4247POPC   C3A55889  25.136  37.979   6.869
 4247POPC   C4A55890  24.929  37.826   7.237
 4247POPC   C1B55891  25.526  37.373   6.221
 4247POPC   C2B55892  25.692  37.412   6.651
 4247POPC   C3B55893  25.537  37.688   6.979
 4247POPC   C4B55894  25.424  37.842   7.374
 4248POPC   NC355895  22.830  28.147   5.415
 4248POPC   PO455896  23.160  28.683   5.294
 4248POPC   GL155897  22.986  28.623   5.748
 4248POPC   GL255898  22.838  28.285   5.890
 4248POPC   C1A55899  23.014  28.614   6.224
 4248POPC   D2A55900  22.727  28.497   6.575
 4248POPC   C3A55901  22.962  28.475   6.958
 4248POPC   C4A55902  23.168  28.232   7.217
 4248POPC   C1B55903  22.744  28.069   6.255
 4248POPC   C2B55904  22.516  27.940   6.610
 4248POPC   C3B55905  22.653  28.019   7.015
 4248POPC   C4B55906  22.649  28.259   7.357
 4249POPC   NC355907  32.171  37.780   5.409
 4249POPC   PO455908  32.863  37.904   5.514
 4249POPC   GL155909  32.686  37.622   5.846
 4249POPC   GL255910  32.322  37.646   5.861
 4249POPC   C1A55911  32.608  37.688   6.296
 4249POPC   D2A55912  32.561  37.444   6.660
 4249POPC   C3A55913  32.506  37.657   7.041
 4249POPC   C4A55914  32.715  38.015   7.171
 4249POPC   C1B55915  32.037  37.631   6.186
 4249POPC   C2B55916  32.152  37.738   6.584
 4249POPC   C3B55917  32.018  37.627   6.969
 4249POPC   C4B55918  31.830  37.839   7.258
 4250POPC   NC355919  16.794  32.699   5.698
 4250POPC   PO455920  16.409  32.154   5.637
 4250POPC   GL155921  16.800  32.194   5.860
 4250POPC   GL255922  16.811  32.487   6.144
 4250POPC   C1A55923  17.030  32.039   6.192
 4250POPC   D2A55924  17.107  32.303   6.517
 4250POPC   C3A55925  16.853  32.343   6.799
 4250POPC   C4A55926  16.751  32.577   7.139
 4250POPC   C1B55927  16.535  32.166   6.306
 4250POPC   C2B55928  16.453  32.023   6.686
 4250POPC   C3B55929  16.442  32.186   7.051
 4250POPC   C4B55930  16.820  31.962   7.136
 4251POPC   NC355931  32.421  34.730   5.334
 4251POPC   PO455932  31.881  34.754   5.689
 4251POPC   GL155933  32.269  34.640   5.881
 4251POPC   GL255934  32.547  34.870   5.819
 4251POPC   C1A55935  32.211  34.559   6.329
 4251POPC   D2A55936  31.889  34.397   6.616
 4251POPC   C3A55937  32.060  34.498   7.002
 4251POPC   C4A55938  32.085  34.569   7.466
 4251POPC   C1B55939  32.683  34.760   6.239
 4251POPC   C2B55940  32.605  34.854   6.678
 4251POPC   C3B55941  32.576  34.688   7.094
 4251POPC   C4B55942  32.510  34.879   7.499
 4252POPC   NC355943  36.031  39.074   5.210
 4252POPC   PO455944  36.553  39.327   5.526
 4252POPC   GL155945  36.375  39.329   5.923
 4252POPC   GL255946  36.252  39.016   5.811
 4252POPC   C1A55947  36.121  39.158   6.288
 4252POPC   D2A55948  36.044  39.137   6.733
 4252POPC   C3A55949  36.241  39.438   6.970
 4252POPC   C4A55950  35.950  39.459   7.272
 4252POPC   C1B55951  36.569  38.925   6.152
 4252POPC   C2B55952  36.458  38.803   6.536
 4252POPC   C3B55953  36.489  38.990   6.925
 4252POPC   C4B55954  36.247  39.003   7.274
 4253POPC   NC355955  17.682   7.327   5.427
 4253POPC   PO455956  17.501   7.877   5.176
 4253POPC   GL155957  17.506   7.738   5.692
 4253POPC   GL255958  17.757   7.836   5.934
 4253POPC   C1A55959  17.500   7.430   6.119
 4253POPC   D2A55960  17.278   7.294   6.549
 4253POPC   C3A55961  17.413   7.216   6.988
 4253POPC   C4A55962  17.551   7.389   7.385
 4253POPC   C1B55963  17.349   7.913   6.193
 4253POPC   C2B55964  17.120   7.766   6.562
 4253POPC   C3B55965  17.335   7.726   6.947
 4253POPC   C4B55966  17.297   7.938   7.300
 4254POPC   NC355967  17.810  25.950   5.117
 4254POPC   PO455968  17.360  25.658   5.458
 4254POPC   GL155969  17.529  25.833   5.840
 4254POPC   GL255970  17.773  26.017   5.674
 4254POPC   C1A55971  17.607  25.970   6.302
 4254POPC   D2A55972  17.545  26.176   6.708
 4254POPC   C3A55973  17.491  25.900   7.064
 4254POPC   C4A55974  17.552  26.004   7.487
 4254POPC   C1B55975  17.875  26.298   6.029
 4254POPC   C2B55976  17.769  26.514   6.396
 4254POPC   C3B55977  17.939  26.498   6.811
 4254POPC   C4B55978  17.854  26.283   7.187
 4255POPC   NC355979   1.996  41.205   5.417
 4255POPC   PO455980   2.047  41.871   5.332
 4255POPC   GL155981   2.075  41.600   5.761
 4255POPC   GL255982   1.843  41.309   5.875
 4255POPC   C1A55983   2.274  41.466   6.173
 4255POPC   D2A55984   2.175  41.483   6.639
 4255POPC   C3A55985   1.961  41.795   6.860
 4255POPC   C4A55986   2.120  41.762   7.293
 4255POPC   C1B55987   1.783  41.381   6.285
 4255POPC   C2B55988   1.878  41.083   6.593
 4255POPC   C3B55989   1.801  41.266   6.989
 4255POPC   C4B55990   1.757  41.314   7.432
 4256POPC   NC355991   5.544   6.472   5.487
 4256POPC   PO455992   4.926   6.337   5.509
 4256POPC   GL155993   4.994   6.648   5.826
 4256POPC   GL255994   5.329   6.831   5.832
 4256POPC   C1A55995   5.109   6.603   6.250
 4256POPC   D2A55996   5.211   6.338   6.598
 4256POPC   C3A55997   5.032   6.452   6.966
 4256POPC   C4A55998   5.205   6.498   7.357
 4256POPC   C1B55999   5.316   7.081   6.232
 4256POPC   C2B56000   5.175   6.968   6.651
 4256POPC   C3B56001   5.149   6.936   7.078
 4256POPC   C4B56002   5.324   6.988   7.473
 4257POPC   NC356003  37.666  11.948   4.955
 4257POPC   PO456004  38.080  12.391   5.321
 4257POPC   GL156005  37.984  12.212   5.731
 4257POPC   GL256006  37.919  11.823   5.783
 4257POPC   C1A56007  37.846  12.220   6.156
 4257POPC   D2A56008  37.771  12.070   6.561
 4257POPC   C3A56009  37.713  12.294   6.912
 4257POPC   C4A56010  37.782  12.074   7.246
 4257POPC   C1B56011  37.719  11.674   6.218
 4257POPC   C2B56012  37.409  11.709   6.600
 4257POPC   C3B56013  37.304  11.915   7.022
 4257POPC   C4B56014  37.391  11.845   7.502
 4258POPC   NC356015  20.754  43.726   5.485
 4258POPC   PO456016  20.261  44.115   5.445
 4258POPC   GL156017  20.428  43.990   5.780
 4258POPC   GL256018  20.332  43.616   5.749
 4258POPC   C1A56019  20.628  44.143   6.151
 4258POPC   D2A56020  20.536  44.171   6.584
 4258POPC   C3A56021  20.836  43.939   6.788
 4258POPC   C4A56022  20.821  43.779   7.202
 4258POPC   C1B56023  20.563  43.637   6.110
 4258POPC   C2B56024  20.469  43.670   6.488
 4258POPC   C3B56025  20.404  43.684   6.895
 4258POPC   C4B56026  20.327  43.467   7.238
 4259POPC   NC356027  27.580  29.318   5.021
 4259POPC   PO456028  27.270  29.016   5.550
 4259POPC   GL156029  27.506  29.121   5.924
 4259POPC   GL256030  27.839  29.248   5.911
 4259POPC   C1A56031  27.645  28.984   6.342
 4259POPC   D2A56032  27.406  28.812   6.676
 4259POPC   C3A56033  27.473  28.950   7.034
 4259POPC   C4A56034  27.723  29.130   7.284
 4259POPC   C1B56035  28.001  29.365   6.325
 4259POPC   C2B56036  27.858  29.292   6.782
 4259POPC   C3B56037  28.025  29.507   7.182
 4259POPC   C4B56038  27.933  29.462   7.627
 4260POPC   NC356039  37.012  42.153   5.477
 4260POPC   PO456040  36.399  42.574   5.454
 4260POPC   GL156041  36.669  42.401   5.794
 4260POPC   GL256042  37.046  42.431   5.902
 4260POPC   C1A56043  36.770  42.129   6.173
 4260POPC   D2A56044  36.647  42.196   6.608
 4260POPC   C3A56045  36.889  42.197   6.989
 4260POPC   C4A56046  36.812  42.564   7.228
 4260POPC   C1B56047  37.206  42.579   6.308
 4260POPC   C2B56048  37.257  42.415   6.717
 4260POPC   C3B56049  37.319  42.472   7.141
 4260POPC   C4B56050  37.288  42.883   7.224
 4261POPC   NC356051   7.215  44.957   5.517
 4261POPC   PO456052   7.811  44.627   5.660
 4261POPC   GL156053   7.371  44.678   5.925
 4261POPC   GL256054   7.222  44.976   6.047
 4261POPC   C1A56055   7.220  44.477   6.324
 4261POPC   D2A56056   7.014  44.410   6.745
 4261POPC   C3A56057   7.263  44.420   7.150
 4261POPC   C4A56058   7.382  44.379   7.632
 4261POPC   C1B56059   7.583  44.843   6.340
 4261POPC   C2B56060   7.496  44.665   6.736
 4261POPC   C3B56061   7.447  44.898   7.089
 4261POPC   C4B56062   7.771  44.983   7.402
 4262POPC   NC356063   6.313   0.748   5.462
 4262POPC   PO456064   6.864   0.288   5.443
 4262POPC   GL156065   6.707   0.226   5.835
 4262POPC   GL256066   6.426   0.383   5.794
 4262POPC   C1A56067   6.566   0.215   6.254
 4262POPC   D2A56068   6.390   0.164   6.631
 4262POPC   C3A56069   6.685   0.217   6.951
 4262POPC   C4A56070   6.560   0.312   7.365
 4262POPC   C1B56071   6.172   0.550   6.132
 4262POPC   C2B56072   6.246   0.707   6.555
 4262POPC   C3B56073   6.374   0.611   6.969
 4262POPC   C4B56074   6.372   0.792   7.391
 4263POPC   NC356075  24.116  15.759   5.507
 4263POPC   PO456076  23.524  15.953   5.346
 4263POPC   GL156077  23.709  15.924   5.757
 4263POPC   GL256078  23.951  16.199   5.812
 4263POPC   C1A56079  23.963  15.822   6.161
 4263POPC   D2A56080  23.856  15.561   6.508
 4263POPC   C3A56081  23.914  15.769   6.917
 4263POPC   C4A56082  23.953  16.037   7.284
 4263POPC   C1B56083  23.582  16.158   6.168
 4263POPC   C2B56084  23.512  15.981   6.569
 4263POPC   C3B56085  23.553  16.124   6.987
 4263POPC   C4B56086  23.583  16.424   7.349
 4264POPC   NC356087  40.135  38.119   5.413
 4264POPC   PO456088  40.156  37.378   5.405
 4264POPC   GL156089  39.908  37.532   5.748
 4264POPC   GL256090  40.082  37.857   5.877
 4264POPC   C1A56091  39.770  37.548   6.172
 4264POPC   D2A56092  40.021  37.752   6.495
 4264POPC   C3A56093  39.898  37.874   6.924
 4264POPC   C4A56094  39.766  37.499   7.163
 4264POPC   C1B56095  40.272  37.494   6.100
 4264POPC   C2B56096  40.403  37.405   6.529
 4264POPC   C3B56097  40.216  37.457   6.909
 4264POPC   C4B56098  40.272  37.719   7.245
 4265POPC   NC356099  14.238  10.303   5.537
 4265POPC   PO456100  14.338  10.990   5.403
 4265POPC   GL156101  14.448  10.871   5.849
 4265POPC   GL256102  14.279  10.558   5.977
 4265POPC   C1A56103  14.645  10.733   6.261
 4265POPC   D2A56104  14.369  10.716   6.575
 4265POPC   C3A56105  14.436  10.491   6.899
 4265POPC   C4A56106  14.275  10.615   7.291
 4265POPC   C1B56107  14.344  10.259   6.359
 4265POPC   C2B56108  14.555  10.015   6.719
 4265POPC   C3B56109  14.682  10.082   7.175
 4265POPC   C4B56110  14.465  10.243   7.573
 4266POPC   NC356111  40.590  33.329   5.076
 4266POPC   PO456112  40.472  33.904   5.271
 4266POPC   GL156113  40.567  33.907   5.722
 4266POPC   GL256114  40.279  34.135   5.737
 4266POPC   C1A56115  40.784  33.713   6.132
 4266POPC   D2A56116  40.949  33.516   6.561
 4266POPC   C3A56117  40.788  33.686   6.965
 4266POPC   C4A56118  40.645  33.754   7.392
 4266POPC   C1B56119  40.310  33.923   6.156
 4266POPC   C2B56120  40.456  33.752   6.548
 4266POPC   C3B56121  40.394  34.002   6.892
 4266POPC   C4B56122  40.448  34.210   7.266
 4267POPC   NC356123   7.698  27.599   5.434
 4267POPC   PO456124   8.279  27.814   5.319
 4267POPC   GL156125   8.451  27.796   5.736
 4267POPC   GL256126   8.102  27.681   5.795
 4267POPC   C1A56127   8.356  27.837   6.213
 4267POPC   D2A56128   8.487  27.660   6.613
 4267POPC   C3A56129   8.330  27.684   7.034
 4267POPC   C4A56130   8.002  27.479   7.292
 4267POPC   C1B56131   7.861  27.869   6.132
 4267POPC   C2B56132   7.983  27.880   6.571
 4267POPC   C3B56133   7.880  27.915   6.999
 4267POPC   C4B56134   8.096  27.983   7.370
 4268POPC   NC356135  24.707  35.144   5.418
 4268POPC   PO456136  24.361  35.613   5.416
 4268POPC   GL156137  24.472  35.410   5.782
 4268POPC   GL256138  24.803  35.576   5.713
 4268POPC   C1A56139  24.712  35.286   6.151
 4268POPC   D2A56140  24.744  35.180   6.613
 4268POPC   C3A56141  24.340  35.030   6.797
 4268POPC   C4A56142  24.035  35.022   7.145
 4268POPC   C1B56143  24.890  35.783   6.105
 4268POPC   C2B56144  24.786  35.858   6.556
 4268POPC   C3B56145  24.694  35.677   6.973
 4268POPC   C4B56146  24.632  35.260   7.146
 4269POPC   NC356147  39.932  40.470   5.652
 4269POPC   PO456148  40.248  40.916   5.285
 4269POPC   GL156149  40.087  40.960   5.709
 4269POPC   GL256150  39.725  40.912   5.787
 4269POPC   C1A56151  40.134  40.824   6.148
 4269POPC   D2A56152  40.022  40.728   6.588
 4269POPC   C3A56153  40.299  40.808   6.917
 4269POPC   C4A56154  40.259  40.719   7.326
 4269POPC   C1B56155  39.608  40.739   6.206
 4269POPC   C2B56156  39.539  40.885   6.640
 4269POPC   C3B56157  39.799  40.961   7.033
 4269POPC   C4B56158  39.754  41.206   7.438
 4270POPC   NC356159   9.026  39.355   5.436
 4270POPC   PO456160   8.412  39.457   5.591
 4270POPC   GL156161   8.696  39.171   5.824
 4270POPC   GL256162   9.024  38.964   5.789
 4270POPC   C1A56163   8.845  39.303   6.224
 4270POPC   D2A56164   8.774  39.563   6.601
 4270POPC   C3A56165   8.577  39.326   6.941
 4270POPC   C4A56166   8.777  39.015   7.232
 4270POPC   C1B56167   9.330  39.077   6.163
 4270POPC   C2B56168   9.272  39.360   6.514
 4270POPC   C3B56169   9.110  39.247   6.916
 4270POPC   C4B56170   9.341  39.063   7.255
 4271POPC   NC356171   2.375  43.542   5.494
 4271POPC   PO456172   2.043  42.979   5.210
 4271POPC   GL156173   2.119  43.176   5.749
 4271POPC   GL256174   2.304  43.468   5.969
 4271POPC   C1A56175   1.908  43.240   6.173
 4271POPC   D2A56176   1.764  43.242   6.586
 4271POPC   C3A56177   1.976  42.871   6.800
 4271POPC   C4A56178   1.903  42.642   7.195
 4271POPC   C1B56179   2.178  43.666   6.335
 4271POPC   C2B56180   2.208  43.543   6.747
 4271POPC   C3B56181   1.974  43.330   7.043
 4271POPC   C4B56182   1.691  43.431   7.343
 4272POPC   NC356183  32.646  26.980   5.544
 4272POPC   PO456184  32.159  26.443   5.412
 4272POPC   GL156185  32.226  26.741   5.743
 4272POPC   GL256186  32.497  26.563   5.821
 4272POPC   C1A56187  32.401  26.974   6.132
 4272POPC   D2A56188  32.226  26.956   6.543
 4272POPC   C3A56189  32.536  26.940   6.864
 4272POPC   C4A56190  32.454  27.023   7.283
 4272POPC   C1B56191  32.263  26.499   6.206
 4272POPC   C2B56192  32.159  26.450   6.643
 4272POPC   C3B56193  32.252  26.555   7.070
 4272POPC   C4B56194  32.239  26.627   7.501
 4273POPC   NC356195  14.231  39.782   5.471
 4273POPC   PO456196  14.692  40.082   5.388
 4273POPC   GL156197  14.472  40.157   5.790
 4273POPC   GL256198  14.117  40.228   5.723
 4273POPC   C1A56199  14.614  40.132   6.228
 4273POPC   D2A56200  14.426  40.232   6.622
 4273POPC   C3A56201  14.623  40.111   7.036
 4273POPC   C4A56202  14.385  40.247   7.403
 4273POPC   C1B56203  14.097  40.204   6.166
 4273POPC   C2B56204  13.957  40.023   6.550
 4273POPC   C3B56205  14.127  40.001   6.992
 4273POPC   C4B56206  14.341  39.747   7.345
 4274POPC   NC356207  37.329  40.488   5.466
 4274POPC   PO456208  37.588  39.939   5.273
 4274POPC   GL156209  37.698  39.983   5.738
 4274POPC   GL256210  38.004  40.178   5.835
 4274POPC   C1A56211  37.619  40.174   6.165
 4274POPC   D2A56212  37.763  40.367   6.553
 4274POPC   C3A56213  37.538  40.227   6.924
 4274POPC   C4A56214  37.535  39.826   7.144
 4274POPC   C1B56215  38.005  39.807   6.111
 4274POPC   C2B56216  37.723  39.700   6.411
 4274POPC   C3B56217  37.888  39.873   6.779
 4274POPC   C4B56218  38.205  39.836   7.079
 4275POPC   NC356219  29.294  33.859   5.307
 4275POPC   PO456220  28.721  33.514   5.487
 4275POPC   GL156221  28.991  33.820   5.782
 4275POPC   GL256222  29.379  33.849   5.802
 4275POPC   C1A56223  29.125  33.952   6.220
 4275POPC   D2A56224  29.413  33.902   6.555
 4275POPC   C3A56225  29.215  33.935   6.953
 4275POPC   C4A56226  29.030  33.938   7.360
 4275POPC   C1B56227  29.610  33.550   6.079
 4275POPC   C2B56228  29.619  33.351   6.493
 4275POPC   C3B56229  29.469  33.495   6.881
 4275POPC   C4B56230  29.595  33.751   7.236
 4276POPC   NC356231  18.506  32.415   5.283
 4276POPC   PO456232  17.943  31.988   5.429
 4276POPC   GL156233  18.250  32.178   5.682
 4276POPC   GL256234  18.088  32.481   5.805
 4276POPC   C1A56235  18.476  32.218   6.074
 4276POPC   D2A56236  18.381  32.072   6.495
 4276POPC   C3A56237  18.498  32.260   6.890
 4276POPC   C4A56238  18.492  32.044   7.268
 4276POPC   C1B56239  17.990  32.317   6.241
 4276POPC   C2B56240  18.028  32.377   6.708
 4276POPC   C3B56241  18.058  32.369   7.154
 4276POPC   C4B56242  18.372  32.523   7.402
 4277POPC   NC356243   4.161   7.769   5.381
 4277POPC   PO456244   4.481   7.175   5.414
 4277POPC   GL156245   4.222   7.351   5.711
 4277POPC   GL256246   4.496   7.388   5.931
 4277POPC   C1A56247   4.047   7.589   6.071
 4277POPC   D2A56248   4.318   7.481   6.421
 4277POPC   C3A56249   4.492   7.663   6.762
 4277POPC   C4A56250   4.464   7.574   7.201
 4277POPC   C1B56251   4.271   7.056   6.162
 4277POPC   C2B56252   4.250   6.937   6.571
 4277POPC   C3B56253   4.315   7.183   6.880
 4277POPC   C4B56254   4.360   7.089   7.250
 4278POPC   NC356255  43.856  34.256   5.314
 4278POPC   PO456256  44.097  34.907   5.007
 4278POPC   GL156257  44.077  34.724   5.552
 4278POPC   GL256258  43.826  34.487   5.755
 4278POPC   C1A56259  44.190  34.606   6.075
 4278POPC   D2A56260  44.296  34.504   6.548
 4278POPC   C3A56261  44.090  34.811   6.820
 4278POPC   C4A56262  43.986  34.860   7.256
 4278POPC   C1B56263  43.851  34.208   6.122
 4278POPC   C2B56264  43.781  34.292   6.558
 4278POPC   C3B56265  43.708  34.501   6.950
 4278POPC   C4B56266  43.659  34.498   7.411
 4279POPC   NC356267  23.919  38.358   5.336
 4279POPC   PO456268  23.300  38.627   5.347
 4279POPC   GL156269  23.545  38.476   5.709
 4279POPC   GL256270  23.417  38.137   5.809
 4279POPC   C1A56271  23.711  38.518   6.149
 4279POPC   D2A56272  23.479  38.409   6.533
 4279POPC   C3A56273  23.565  38.427   6.979
 4279POPC   C4A56274  23.893  38.664   7.104
 4279POPC   C1B56275  23.716  38.015   6.139
 4279POPC   C2B56276  23.932  38.135   6.510
 4279POPC   C3B56277  23.842  37.998   6.904
 4279POPC   C4B56278  23.808  38.077   7.315
 4280POPC   NC356279  25.812   2.300   5.272
 4280POPC   PO456280  26.359   1.908   5.535
 4280POPC   GL156281  26.164   1.983   5.869
 4280POPC   GL256282  25.870   2.119   5.950
 4280POPC   C1A56283  26.294   1.973   6.256
 4280POPC   D2A56284  26.428   2.235   6.549
 4280POPC   C3A56285  26.297   2.045   6.882
 4280POPC   C4A56286  26.031   1.956   7.202
 4280POPC   C1B56287  25.811   2.161   6.384
 4280POPC   C2B56288  25.755   2.180   6.820
 4280POPC   C3B56289  25.725   2.386   7.243
 4280POPC   C4B56290  25.567   2.462   7.670
 4281POPC   NC356291  11.369  19.646   5.285
 4281POPC   PO456292  10.893  19.563   5.667
 4281POPC   GL156293  11.271  19.740   5.820
 4281POPC   GL256294  11.243  20.043   6.015
 4281POPC   C1A56295  11.444  19.655   6.235
 4281POPC   D2A56296  11.342  19.929   6.571
 4281POPC   C3A56297  11.349  19.778   6.986
 4281POPC   C4A56298  11.417  19.969   7.377
 4281POPC   C1B56299  10.976  20.201   6.290
 4281POPC   C2B56300  11.082  20.384   6.628
 4281POPC   C3B56301  11.195  20.269   7.016
 4281POPC   C4B56302  11.007  20.292   7.414
 4282POPC   NC356303  40.600   3.977   5.562
 4282POPC   PO456304  40.833   4.456   5.198
 4282POPC   GL156305  40.803   4.440   5.680
 4282POPC   GL256306  41.085   4.220   5.678
 4282POPC   C1A56307  40.795   4.238   6.137
 4282POPC   D2A56308  40.865   4.038   6.558
 4282POPC   C3A56309  40.610   4.211   6.900
 4282POPC   C4A56310  40.620   4.377   7.306
 4282POPC   C1B56311  41.196   4.527   6.023
 4282POPC   C2B56312  41.150   4.478   6.492
 4282POPC   C3B56313  40.988   4.558   6.947
 4282POPC   C4B56314  41.127   4.571   7.427
 4283POPC   NC356315  18.428  18.747   5.429
 4283POPC   PO456316  17.902  19.111   5.401
 4283POPC   GL156317  18.147  19.008   5.773
 4283POPC   GL256318  18.113  18.658   5.841
 4283POPC   C1A56319  18.476  19.016   6.102
 4283POPC   D2A56320  18.539  19.204   6.525
 4283POPC   C3A56321  18.496  19.014   6.942
 4283POPC   C4A56322  18.153  19.128   7.232
 4283POPC   C1B56323  18.331  18.528   6.227
 4283POPC   C2B56324  18.263  18.578   6.680
 4283POPC   C3B56325  18.059  18.653   7.100
 4283POPC   C4B56326  17.999  18.751   7.578
 4284POPC   NC356327  26.491  13.277   4.990
 4284POPC   PO456328  25.931  13.057   5.385
 4284POPC   GL156329  26.208  13.007   5.764
 4284POPC   GL256330  26.298  12.670   5.859
 4284POPC   C1A56331  26.106  13.022   6.236
 4284POPC   D2A56332  25.983  12.778   6.615
 4284POPC   C3A56333  25.757  12.955   6.984
 4284POPC   C4A56334  25.882  13.074   7.413
 4284POPC   C1B56335  26.402  12.583   6.298
 4284POPC   C2B56336  26.426  12.548   6.749
 4284POPC   C3B56337  26.165  12.638   7.094
 4284POPC   C4B56338  26.319  12.839   7.441
 4285POPC   NC356339  33.841   6.135   5.273
 4285POPC   PO456340  33.334   6.351   5.482
 4285POPC   GL156341  33.640   6.299   5.829
 4285POPC   GL256342  33.979   6.143   5.813
 4285POPC   C1A56343  33.617   6.089   6.239
 4285POPC   D2A56344  33.716   5.864   6.635
 4285POPC   C3A56345  33.724   6.065   7.066
 4285POPC   C4A56346  33.954   6.298   7.420
 4285POPC   C1B56347  34.135   5.995   6.265
 4285POPC   C2B56348  34.195   5.981   6.759
 4285POPC   C3B56349  34.184   5.884   7.217
 4285POPC   C4B56350  34.241   5.754   7.669
 4286POPC   NC356351   7.598  29.803   5.404
 4286POPC   PO456352   7.099  29.393   5.552
 4286POPC   GL156353   7.420  29.567   5.835
 4286POPC   GL256354   7.428  29.941   5.861
 4286POPC   C1A56355   7.558  29.589   6.260
 4286POPC   D2A56356   7.364  29.732   6.620
 4286POPC   C3A56357   7.487  29.776   7.033
 4286POPC   C4A56358   7.205  29.896   7.332
 4286POPC   C1B56359   7.614  30.103   6.240
 4286POPC   C2B56360   7.753  30.054   6.674
 4286POPC   C3B56361   7.718  30.229   7.099
 4286POPC   C4B56362   7.630  30.106   7.513
 4287POPC   NC356363  16.041   9.615   5.410
 4287POPC   PO456364  15.750  10.210   5.534
 4287POPC   GL156365  15.843   9.865   5.854
 4287POPC   GL256366  16.174   9.658   5.895
 4287POPC   C1A56367  15.730   9.820   6.298
 4287POPC   D2A56368  15.456  10.051   6.590
 4287POPC   C3A56369  15.655  10.025   6.997
 4287POPC   C4A56370  15.848   9.646   7.234
 4287POPC   C1B56371  16.306  10.029   6.117
 4287POPC   C2B56372  16.376  10.065   6.548
 4287POPC   C3B56373  16.174   9.881   6.899
 4287POPC   C4B56374  16.350   9.739   7.309
 4288POPC   NC356375   7.262  17.078   5.536
 4288POPC   PO456376   7.679  17.522   5.149
 4288POPC   GL156377   7.542  17.500   5.638
 4288POPC   GL256378   7.623  17.273   5.860
 4288POPC   C1A56379   7.217  17.414   6.094
 4288POPC   D2A56380   7.142  17.290   6.550
 4288POPC   C3A56381   7.238  17.546   6.929
 4288POPC   C4A56382   7.184  17.373   7.336
 4288POPC   C1B56383   7.624  17.684   6.096
 4288POPC   C2B56384   7.522  17.649   6.509
 4288POPC   C3B56385   7.759  17.519   6.873
 4288POPC   C4B56386   7.741  17.625   7.316
 4289POPC   NC356387  40.688  37.418   5.512
 4289POPC   PO456388  40.583  38.100   5.547
 4289POPC   GL156389  40.623  37.797   5.856
 4289POPC   GL256390  40.865  37.944   6.089
 4289POPC   C1A56391  40.767  37.484   6.174
 4289POPC   D2A56392  40.953  37.654   6.546
 4289POPC   C3A56393  40.744  37.565   6.919
 4289POPC   C4A56394  40.816  37.681   7.330
 4289POPC   C1B56395  40.485  37.888   6.342
 4289POPC   C2B56396  40.409  37.938   6.775
 4289POPC   C3B56397  40.607  38.101   7.133
 4289POPC   C4B56398  40.625  38.091   7.591
 4290POPC   NC356399  21.071   9.701   5.453
 4290POPC   PO456400  21.748   9.706   5.336
 4290POPC   GL156401  21.563   9.636   5.761
 4290POPC   GL256402  21.401   9.330   5.675
 4290POPC   C1A56403  21.705   9.610   6.219
 4290POPC   D2A56404  21.684   9.404   6.648
 4290POPC   C3A56405  21.531   9.746   6.918
 4290POPC   C4A56406  21.543   9.899   7.355
 4290POPC   C1B56407  21.351   9.277   6.126
 4290POPC   C2B56408  21.179   9.466   6.501
 4290POPC   C3B56409  21.125   9.423   6.918
 4290POPC   C4B56410  21.171   9.544   7.338
 4291POPC   NC356411  11.453   8.662   5.409
 4291POPC   PO456412  10.999   9.076   5.232
 4291POPC   GL156413  11.051   8.864   5.674
 4291POPC   GL256414  11.357   8.982   5.806
 4291POPC   C1A56415  11.063   8.757   6.160
 4291POPC   D2A56416  10.947   8.837   6.606
 4291POPC   C3A56417  11.180   8.772   6.982
 4291POPC   C4A56418  11.122   9.119   7.293
 4291POPC   C1B56419  11.556   8.875   6.196
 4291POPC   C2B56420  11.421   9.016   6.580
 4291POPC   C3B56421  11.482   9.200   6.929
 4291POPC   C4B56422  11.801   9.230   7.222
 4292POPC   NC356423  12.048  25.505   5.264
 4292POPC   PO456424  12.030  26.193   5.397
 4292POPC   GL156425  11.941  26.061   5.832
 4292POPC   GL256426  11.772  25.730   5.828
 4292POPC   C1A56427  12.182  25.982   6.216
 4292POPC   D2A56428  12.453  26.160   6.535
 4292POPC   C3A56429  12.321  26.150   6.953
 4292POPC   C4A56430  12.136  26.094   7.334
 4292POPC   C1B56431  11.792  25.657   6.256
 4292POPC   C2B56432  11.620  25.845   6.611
 4292POPC   C3B56433  11.886  25.847   6.960
 4292POPC   C4B56434  11.906  25.622   7.349
 4293POPC   NC356435   9.288   3.587   5.536
 4293POPC   PO456436   8.667   3.561   5.147
 4293POPC   GL156437   8.753   3.489   5.634
 4293POPC   GL256438   8.893   3.775   5.788
 4293POPC   C1A56439   8.677   3.483   6.125
 4293POPC   D2A56440   8.797   3.715   6.484
 4293POPC   C3A56441   8.971   3.516   6.828
 4293POPC   C4A56442   8.894   3.368   7.249
 4293POPC   C1B56443   9.176   3.689   6.161
 4293POPC   C2B56444   9.265   3.900   6.576
 4293POPC   C3B56445   9.307   3.849   7.042
 4293POPC   C4B56446   8.976   3.859   7.340
 4294POPC   NC356447  17.924  12.197   5.457
 4294POPC   PO456448  17.476  11.806   5.440
 4294POPC   GL156449  17.456  11.930   5.906
 4294POPC   GL256450  17.782  12.113   5.960
 4294POPC   C1A56451  17.515  11.850   6.393
 4294POPC   D2A56452  17.809  11.939   6.758
 4294POPC   C3A56453  17.508  12.012   7.136
 4294POPC   C4A56454  17.446  11.753   7.488
 4294POPC   C1B56455  17.709  12.309   6.355
 4294POPC   C2B56456  17.460  12.303   6.728
 4294POPC   C3B56457  17.671  12.504   7.107
 4294POPC   C4B56458  17.707  12.473   7.556
 4295POPC   NC356459  39.059  33.915   5.225
 4295POPC   PO456460  39.316  33.361   5.187
 4295POPC   GL156461  39.294  33.659   5.602
 4295POPC   GL256462  38.984  33.897   5.749
 4295POPC   C1A56463  39.335  33.670   6.054
 4295POPC   D2A56464  39.012  33.738   6.367
 4295POPC   C3A56465  39.069  33.895   6.772
 4295POPC   C4A56466  39.032  33.684   7.151
 4295POPC   C1B56467  38.963  34.193   6.167
 4295POPC   C2B56468  39.102  34.404   6.556
 4295POPC   C3B56469  38.958  34.371   6.993
 4295POPC   C4B56470  39.168  34.148   7.287
 4296POPC   NC356471  23.960   9.044   5.343
 4296POPC   PO456472  23.443   8.960   5.412
 4296POPC   GL156473  23.618   8.898   5.838
 4296POPC   GL256474  23.988   8.932   5.848
 4296POPC   C1A56475  23.599   9.009   6.293
 4296POPC   D2A56476  23.525   9.227   6.702
 4296POPC   C3A56477  23.547   9.013   7.112
 4296POPC   C4A56478  23.792   9.220   7.488
 4296POPC   C1B56479  24.069   8.814   6.292
 4296POPC   C2B56480  23.877   8.828   6.724
 4296POPC   C3B56481  24.048   8.905   7.148
 4296POPC   C4B56482  24.226   8.862   7.574
 4297POPC   NC356483  34.848  33.371   5.406
 4297POPC   PO456484  34.757  34.060   5.502
 4297POPC   GL156485  34.462  33.929   5.754
 4297POPC   GL256486  34.266  33.629   5.551
 4297POPC   C1A56487  34.379  34.057   6.180
 4297POPC   D2A56488  34.677  34.074   6.528
 4297POPC   C3A56489  34.553  34.033   6.951
 4297POPC   C4A56490  34.720  33.708   7.203
 4297POPC   C1B56491  34.260  33.552   5.987
 4297POPC   C2B56492  34.331  33.547   6.396
 4297POPC   C3B56493  34.363  33.579   6.801
 4297POPC   C4B56494  34.247  33.538   7.186
 4298POPC   NC356495   1.675  18.365   5.470
 4298POPC   PO456496   2.333  18.070   5.427
 4298POPC   GL156497   2.032  18.141   5.781
 4298POPC   GL256498   1.769  17.893   5.693
 4298POPC   C1A56499   1.909  18.343   6.208
 4298POPC   D2A56500   2.151  18.491   6.595
 4298POPC   C3A56501   2.002  18.413   7.031
 4298POPC   C4A56502   2.132  18.372   7.492
 4298POPC   C1B56503   1.805  17.852   6.139
 4298POPC   C2B56504   1.679  17.956   6.561
 4298POPC   C3B56505   1.806  17.848   6.978
 4298POPC   C4B56506   1.913  17.935   7.380
 4299POPC   NC356507  23.335  11.523   5.651
 4299POPC   PO456508  23.951  11.632   5.529
 4299POPC   GL156509  23.806  11.326   5.827
 4299POPC   GL256510  23.556  11.063   5.725
 4299POPC   C1A56511  23.851  11.253   6.267
 4299POPC   D2A56512  23.632  11.375   6.635
 4299POPC   C3A56513  23.818  11.597   6.980
 4299POPC   C4A56514  23.510  11.728   7.268
 4299POPC   C1B56515  23.391  11.081   6.156
 4299POPC   C2B56516  23.536  10.877   6.537
 4299POPC   C3B56517  23.528  10.985   6.969
 4299POPC   C4B56518  23.655  11.219   7.318
 4300POPC   NC356519  28.859   6.256   5.497
 4300POPC   PO456520  28.681   5.612   5.400
 4300POPC   GL156521  28.511   5.505   5.798
 4300POPC   GL256522  28.168   5.394   5.770
 4300POPC   C1A56523  28.578   5.676   6.226
 4300POPC   D2A56524  28.688   5.834   6.646
 4300POPC   C3A56525  28.533   5.714   7.063
 4300POPC   C4A56526  28.728   5.568   7.476
 4300POPC   C1B56527  28.115   5.423   6.244
 4300POPC   C2B56528  28.179   5.636   6.662
 4300POPC   C3B56529  28.031   5.576   7.111
 4300POPC   C4B56530  27.891   5.866   7.454
 4301POPC   NC356531   7.780  13.777   5.513
 4301POPC   PO456532   8.463  13.699   5.490
 4301POPC   GL156533   8.200  13.638   5.795
 4301POPC   GL256534   7.968  13.360   5.756
 4301POPC   C1A56535   8.264  13.833   6.155
 4301POPC   D2A56536   8.355  13.646   6.509
 4301POPC   C3A56537   8.219  13.889   6.842
 4301POPC   C4A56538   8.346  13.829   7.238
 4301POPC   C1B56539   7.974  13.390   6.202
 4301POPC   C2B56540   8.057  13.257   6.611
 4301POPC   C3B56541   7.962  13.394   7.022
 4301POPC   C4B56542   7.780  13.209   7.390
 4302POPC   NC356543   3.024  39.954   5.413
 4302POPC   PO456544   2.362  40.106   5.374
 4302POPC   GL156545   2.600  40.014   5.778
 4302POPC   GL256546   2.973  39.995   5.911
 4302POPC   C1A56547   2.600  39.732   6.139
 4302POPC   D2A56548   2.761  39.756   6.543
 4302POPC   C3A56549   2.492  39.831   6.894
 4302POPC   C4A56550   2.681  40.067   7.201
 4302POPC   C1B56551   2.917  40.209   6.293
 4302POPC   C2B56552   2.897  40.284   6.746
 4302POPC   C3B56553   2.895  40.517   7.115
 4302POPC   C4B56554   3.068  40.290   7.498
 4303POPC   NC356555   6.385   5.733   5.515
 4303POPC   PO456556   7.031   5.795   5.445
 4303POPC   GL156557   6.854   6.001   5.818
 4303POPC   GL256558   6.842   5.708   6.027
 4303POPC   C1A56559   6.800   6.152   6.271
 4303POPC   D2A56560   6.724   5.935   6.676
 4303POPC   C3A56561   6.956   5.923   7.062
 4303POPC   C4A56562   6.856   5.862   7.504
 4303POPC   C1B56563   6.417   5.783   6.279
 4303POPC   C2B56564   6.227   5.849   6.741
 4303POPC   C3B56565   6.383   5.943   7.194
 4303POPC   C4B56566   6.328   5.747   7.624
 4304POPC   NC356567   1.220  16.551   5.585
 4304POPC   PO456568   1.026  17.147   5.420
 4304POPC   GL156569   1.172  16.974   5.858
 4304POPC   GL256570   1.509  17.135   5.929
 4304POPC   C1A56571   1.156  16.614   6.216
 4304POPC   D2A56572   0.938  16.482   6.586
 4304POPC   C3A56573   1.165  16.584   6.971
 4304POPC   C4A56574   1.365  16.611   7.387
 4304POPC   C1B56575   1.297  17.080   6.338
 4304POPC   C2B56576   1.238  17.038   6.742
 4304POPC   C3B56577   1.311  17.051   7.143
 4304POPC   C4B56578   0.960  16.916   7.377
 4305POPC   NC356579  10.564  20.213   5.382
 4305POPC   PO456580  10.436  20.904   5.348
 4305POPC   GL156581  10.567  20.840   5.765
 4305POPC   GL256582  10.299  21.000   5.881
 4305POPC   C1A56583  10.720  20.629   6.146
 4305POPC   D2A56584  10.572  20.452   6.563
 4305POPC   C3A56585  10.734  20.471   6.989
 4305POPC   C4A56586  10.787  20.756   7.314
 4305POPC   C1B56587  10.187  20.574   5.986
 4305POPC   C2B56588  10.097  20.383   6.385
 4305POPC   C3B56589  10.097  20.478   6.836
 4305POPC   C4B56590  10.291  20.593   7.218
 4306POPC   NC356591  37.851   6.297   5.587
 4306POPC   PO456592  37.624   5.786   5.204
 4306POPC   GL156593  37.650   5.835   5.680
 4306POPC   GL256594  37.983   5.797   5.777
 4306POPC   C1A56595  37.590   5.967   6.124
 4306POPC   D2A56596  37.767   6.135   6.497
 4306POPC   C3A56597  37.695   5.913   6.859
 4306POPC   C4A56598  37.762   6.044   7.287
 4306POPC   C1B56599  38.093   5.611   6.172
 4306POPC   C2B56600  37.932   5.507   6.592
 4306POPC   C3B56601  38.100   5.629   6.992
 4306POPC   C4B56602  37.949   5.596   7.412
 4307POPC   NC356603   1.575  26.708   5.378
 4307POPC   PO456604   0.865  26.739   5.405
 4307POPC   GL156605   1.160  26.725   5.779
 4307POPC   GL256606   1.485  26.824   5.854
 4307POPC   C1A56607   1.157  26.772   6.242
 4307POPC   D2A56608   1.033  26.831   6.683
 4307POPC   C3A56609   1.211  26.610   7.015
 4307POPC   C4A56610   1.222  26.774   7.429
 4307POPC   C1B56611   1.658  27.002   6.205
 4307POPC   C2B56612   1.528  26.972   6.611
 4307POPC   C3B56613   1.421  27.074   7.010
 4307POPC   C4B56614   1.680  27.015   7.348
 4308POPC   NC356615  25.382   0.984   5.542
 4308POPC   PO456616  24.923   1.459   5.491
 4308POPC   GL156617  25.262   1.448   5.774
 4308POPC   GL256618  25.612   1.431   5.657
 4308POPC   C1A56619  25.216   1.327   6.208
 4308POPC   D2A56620  25.115   1.416   6.609
 4308POPC   C3A56621  25.313   1.278   6.961
 4308POPC   C4A56622  25.107   0.965   7.227
 4308POPC   C1B56623  25.676   1.225   6.062
 4308POPC   C2B56624  25.676   1.275   6.499
 4308POPC   C3B56625  25.743   1.010   6.822
 4308POPC   C4B56626  25.717   1.049   7.269
 4309POPC   NC356627   1.509   0.868   5.520
 4309POPC   PO456628   0.936   1.228   5.434
 4309POPC   GL156629   1.245   1.223   5.773
 4309POPC   GL256630   1.109   0.932   5.863
 4309POPC   C1A56631   1.569   1.134   6.140
 4309POPC   D2A56632   1.596   1.350   6.550
 4309POPC   C3A56633   1.370   1.209   6.939
 4309POPC   C4A56634   1.357   1.303   7.360
 4309POPC   C1B56635   1.082   1.181   6.258
 4309POPC   C2B56636   1.103   0.930   6.606
 4309POPC   C3B56637   0.925   0.781   6.967
 4309POPC   C4B56638   0.994   0.936   7.350
 4310POPC   NC356639  31.867  26.810   5.341
 4310POPC   PO456640  31.359  26.395   5.218
 4310POPC   GL156641  31.415  26.598   5.651
 4310POPC   GL256642  31.754  26.522   5.781
 4310POPC   C1A56643  31.353  26.936   6.009
 4310POPC   D2A56644  31.236  27.015   6.505
 4310POPC   C3A56645  31.501  27.149   6.909
 4310POPC   C4A56646  31.922  27.299   7.136
 4310POPC   C1B56647  31.818  26.747   6.189
 4310POPC   C2B56648  31.708  26.731   6.643
 4310POPC   C3B56649  31.792  26.769   7.121
 4310POPC   C4B56650  31.722  26.627   7.560
 4311POPC   NC356651   4.574  29.112   5.350
 4311POPC   PO456652   4.013  29.330   5.267
 4311POPC   GL156653   4.196  29.125   5.671
 4311POPC   GL256654   4.254  29.408   5.839
 4311POPC   C1A56655   4.316  28.973   6.113
 4311POPC   D2A56656   4.225  29.150   6.540
 4311POPC   C3A56657   4.314  28.981   6.919
 4311POPC   C4A56658   4.220  29.071   7.359
 4311POPC   C1B56659   4.177  29.629   6.228
 4311POPC   C2B56660   4.359  29.644   6.629
 4311POPC   C3B56661   4.373  29.483   7.042
 4311POPC   C4B56662   4.504  29.496   7.471
 4312POPC   NC356663  41.435   0.050   5.730
 4312POPC   PO456664  41.353  44.460   5.346
 4312POPC   GL156665  41.603  44.535   5.759
 4312POPC   GL256666  41.355  44.628   6.025
 4312POPC   C1A56667  41.797  44.402   6.179
 4312POPC   D2A56668  41.600  44.429   6.579
 4312POPC   C3A56669  41.844  44.400   6.949
 4312POPC   C4A56670  41.911  44.470   7.394
 4312POPC   C1B56671  41.102  44.481   6.391
 4312POPC   C2B56672  41.151  44.535   6.849
 4312POPC   C3B56673  41.474  44.785   7.019
 4312POPC   C4B56674  41.316   0.133   7.232
 4313POPC   NC356675  10.624   8.830   5.390
 4313POPC   PO456676  10.975   9.359   5.733
 4313POPC   GL156677  10.589   9.107   5.842
 4313POPC   GL256678  10.366   8.786   5.812
 4313POPC   C1A56679  10.599   8.954   6.263
 4313POPC   D2A56680  10.563   9.172   6.660
 4313POPC   C3A56681  10.675   9.038   7.072
 4313POPC   C4A56682  10.650   9.123   7.532
 4313POPC   C1B56683  10.244   8.595   6.186
 4313POPC   C2B56684  10.321   8.680   6.621
 4313POPC   C3B56685  10.184   8.560   7.032
 4313POPC   C4B56686  10.302   8.733   7.461
 4314POPC   NC356687  25.804  15.071   5.553
 4314POPC   PO456688  26.435  14.839   5.555
 4314POPC   GL156689  26.177  14.919   5.857
 4314POPC   GL256690  26.198  15.277   5.796
 4314POPC   C1A56691  25.901  15.072   6.188
 4314POPC   D2A56692  25.956  15.271   6.549
 4314POPC   C3A56693  25.850  15.074   6.925
 4314POPC   C4A56694  25.951  15.142   7.334
 4314POPC   C1B56695  26.392  15.495   6.137
 4314POPC   C2B56696  26.373  15.587   6.557
 4314POPC   C3B56697  26.272  15.401   6.951
 4314POPC   C4B56698  26.574  15.356   7.251
 4315POPC   NC356699  35.095  27.831   5.404
 4315POPC   PO456700  35.330  27.184   5.386
 4315POPC   GL156701  35.360  27.510   5.739
 4315POPC   GL256702  35.071  27.703   5.905
 4315POPC   C1A56703  35.376  27.390   6.171
 4315POPC   D2A56704  35.119  27.369   6.520
 4315POPC   C3A56705  35.210  27.455   6.943
 4315POPC   C4A56706  35.359  27.325   7.366
 4315POPC   C1B56707  35.437  27.887   6.171
 4315POPC   C2B56708  35.483  27.765   6.612
 4315POPC   C3B56709  35.411  27.897   7.070
 4315POPC   C4B56710  35.129  27.766   7.359
 4316POPC   NC356711  25.165  44.090   5.309
 4316POPC   PO456712  25.223  43.472   5.576
 4316POPC   GL156713  25.327  43.869   5.782
 4316POPC   GL256714  25.047  44.081   5.816
 4316POPC   C1A56715  25.375  43.989   6.227
 4316POPC   D2A56716  25.305  43.775   6.625
 4316POPC   C3A56717  25.436  43.989   6.985
 4316POPC   C4A56718  25.667  43.974   7.369
 4316POPC   C1B56719  24.955  43.718   6.142
 4316POPC   C2B56720  24.793  43.637   6.553
 4316POPC   C3B56721  24.937  43.711   6.995
 4316POPC   C4B56722  25.140  43.920   7.395
 4317POPC   NC356723  32.420  17.271   5.305
 4317POPC   PO456724  31.984  17.679   5.522
 4317POPC   GL156725  32.022  17.518   5.889
 4317POPC   GL256726  32.025  17.190   5.861
 4317POPC   C1A56727  32.251  17.563   6.270
 4317POPC   D2A56728  32.514  17.438   6.611
 4317POPC   C3A56729  32.300  17.553   6.977
 4317POPC   C4A56730  32.478  17.414   7.333
 4317POPC   C1B56731  31.865  17.185   6.256
 4317POPC   C2B56732  32.072  17.159   6.617
 4317POPC   C3B56733  31.946  17.128   7.003
 4317POPC   C4B56734  31.979  17.344   7.372
 4318POPC   NC356735  15.012   5.334   5.571
 4318POPC   PO456736  15.557   4.923   5.494
 4318POPC   GL156737  15.274   4.936   5.875
 4318POPC   GL256738  15.112   5.236   6.046
 4318POPC   C1A56739  15.277   4.821   6.312
 4318POPC   D2A56740  15.479   4.964   6.703
 4318POPC   C3A56741  15.325   4.796   7.079
 4318POPC   C4A56742  14.984   4.943   7.359
 4318POPC   C1B56743  15.080   5.302   6.469
 4318POPC   C2B56744  15.019   5.187   6.885
 4318POPC   C3B56745  15.320   5.318   7.197
 4318POPC   C4B56746  15.304   5.279   7.655
 4319POPC   NC356747  22.217  38.891   5.415
 4319POPC   PO456748  22.402  39.551   5.621
 4319POPC   GL156749  22.179  39.221   5.824
 4319POPC   GL256750  22.493  38.975   5.838
 4319POPC   C1A56751  21.919  39.256   6.212
 4319POPC   D2A56752  21.784  39.114   6.626
 4319POPC   C3A56753  21.918  39.141   7.060
 4319POPC   C4A56754  22.105  38.778   7.278
 4319POPC   C1B56755  22.378  38.984   6.287
 4319POPC   C2B56756  22.291  38.919   6.756
 4319POPC   C3B56757  22.415  39.158   7.156
 4319POPC   C4B56758  22.476  39.011   7.574
 4320POPC   NC356759  36.697  14.462   5.106
 4320POPC   PO456760  37.131  14.136   5.432
 4320POPC   GL156761  36.886  14.352   5.747
 4320POPC   GL256762  36.668  14.617   5.654
 4320POPC   C1A56763  36.977  14.436   6.176
 4320POPC   D2A56764  37.118  14.671   6.515
 4320POPC   C3A56765  37.098  14.424   6.877
 4320POPC   C4A56766  37.000  14.386   7.284
 4320POPC   C1B56767  36.696  14.878   6.056
 4320POPC   C2B56768  36.659  15.028   6.493
 4320POPC   C3B56769  36.822  14.871   6.901
 4320POPC   C4B56770  36.706  14.801   7.324
 4321POPC   NC356771  39.397  22.218   5.184
 4321POPC   PO456772  39.112  21.683   5.550
 4321POPC   GL156773  39.399  22.067   5.734
 4321POPC   GL256774  39.156  22.358   5.855
 4321POPC   C1A56775  39.552  22.257   6.153
 4321POPC   D2A56776  39.415  22.495   6.513
 4321POPC   C3A56777  39.288  22.355   6.956
 4321POPC   C4A56778  39.012  22.576   7.197
 4321POPC   C1B56779  39.060  22.155   6.252
 4321POPC   C2B56780  39.301  21.977   6.613
 4321POPC   C3B56781  39.373  21.858   7.076
 4321POPC   C4B56782  39.230  21.597   7.441
 4322POPC   NC356783  26.547  15.739   5.547
 4322POPC   PO456784  27.046  15.937   5.155
 4322POPC   GL156785  27.064  15.815   5.633
 4322POPC   GL256786  27.050  16.103   5.849
 4322POPC   C1A56787  26.907  15.657   6.082
 4322POPC   D2A56788  26.850  15.865   6.500
 4322POPC   C3A56789  26.733  15.715   6.909
 4322POPC   C4A56790  26.928  15.852   7.266
 4322POPC   C1B56791  26.641  16.129   6.089
 4322POPC   C2B56792  26.383  16.105   6.472
 4322POPC   C3B56793  26.509  16.192   6.905
 4322POPC   C4B56794  26.693  16.329   7.287
 4323POPC   NC356795  22.910  29.054   5.447
 4323POPC   PO456796  22.536  29.648   5.434
 4323POPC   GL156797  22.658  29.340   5.761
 4323POPC   GL256798  23.025  29.364   5.863
 4323POPC   C1A56799  22.700  29.006   6.085
 4323POPC   D2A56800  22.710  29.097   6.522
 4323POPC   C3A56801  22.693  28.896   6.907
 4323POPC   C4A56802  22.712  29.121   7.292
 4323POPC   C1B56803  23.162  29.144   6.263
 4323POPC   C2B56804  23.187  28.879   6.650
 4323POPC   C3B56805  23.165  28.987   7.083
 4323POPC   C4B56806  23.271  29.303   7.375
 4324POPC   NC356807  30.722  15.393   5.126
 4324POPC   PO456808  31.214  14.997   5.397
 4324POPC   GL156809  31.028  15.102   5.719
 4324POPC   GL256810  30.726  15.252   5.632
 4324POPC   C1A56811  30.909  14.930   6.110
 4324POPC   D2A56812  30.730  15.096   6.479
 4324POPC   C3A56813  30.662  14.885   6.868
 4324POPC   C4A56814  30.829  14.989   7.263
 4324POPC   C1B56815  30.854  15.453   6.042
 4324POPC   C2B56816  30.997  15.539   6.478
 4324POPC   C3B56817  30.905  15.351   6.893
 4324POPC   C4B56818  30.809  15.486   7.304
 4325POPC   NC356819  39.122   1.326   5.370
 4325POPC   PO456820  39.776   1.385   5.583
 4325POPC   GL156821  39.378   1.245   5.803
 4325POPC   GL256822  39.041   1.053   5.806
 4325POPC   C1A56823  39.146   1.359   6.198
 4325POPC   D2A56824  39.139   1.172   6.599
 4325POPC   C3A56825  39.027   1.387   6.981
 4325POPC   C4A56826  39.366   1.648   7.082
 4325POPC   C1B56827  39.216   0.832   6.190
 4325POPC   C2B56828  39.276   0.682   6.631
 4325POPC   C3B56829  39.073   0.865   7.012
 4325POPC   C4B56830  39.231   1.058   7.394
 4326POPC   NC356831   5.776  41.785   5.357
 4326POPC   PO456832   5.797  41.136   5.191
 4326POPC   GL156833   5.704  41.344   5.642
 4326POPC   GL256834   5.897  41.652   5.839
 4326POPC   C1A56835   5.675  41.306   6.125
 4326POPC   D2A56836   5.914  41.532   6.437
 4326POPC   C3A56837   5.848  41.409   6.889
 4326POPC   C4A56838   5.973  41.482   7.346
 4326POPC   C1B56839   6.211  41.913   6.089
 4326POPC   C2B56840   6.349  41.816   6.496
 4326POPC   C3B56841   6.149  41.798   6.842
 4326POPC   C4B56842   6.236  41.914   7.199
 4327POPC   NC356843  11.975   7.967   5.470
 4327POPC   PO456844  12.277   8.492   5.681
 4327POPC   GL156845  12.433   8.229   5.949
 4327POPC   GL256846  12.352   7.924   5.840
 4327POPC   C1A56847  12.447   8.214   6.384
 4327POPC   D2A56848  12.058   8.280   6.597
 4327POPC   C3A56849  12.123   8.455   6.984
 4327POPC   C4A56850  11.867   8.313   7.300
 4327POPC   C1B56851  12.041   7.963   6.165
 4327POPC   C2B56852  12.072   7.763   6.569
 4327POPC   C3B56853  11.911   7.896   6.959
 4327POPC   C4B56854  11.956   7.827   7.378
 4328POPC   NC356855  30.044  11.189   5.359
 4328POPC   PO456856  29.610  10.881   5.413
 4328POPC   GL156857  29.731  11.138   5.781
 4328POPC   GL256858  29.779  11.481   5.708
 4328POPC   C1A56859  29.984  11.276   6.138
 4328POPC   D2A56860  29.909  11.464   6.523
 4328POPC   C3A56861  29.920  11.196   6.872
 4328POPC   C4A56862  30.211  11.113   7.214
 4328POPC   C1B56863  29.666  11.701   6.118
 4328POPC   C2B56864  29.439  11.664   6.522
 4328POPC   C3B56865  29.662  11.666   6.939
 4328POPC   C4B56866  29.828  11.446   7.306
 4329POPC   NC356867  18.223  44.835   5.572
 4329POPC   PO456868  18.639  44.383   5.484
 4329POPC   GL156869  18.464  44.537   5.912
 4329POPC   GL256870  18.116  44.496   5.965
 4329POPC   C1A56871  18.342  44.635   6.387
 4329POPC   D2A56872  18.455  44.857   6.751
 4329POPC   C3A56873  18.533  44.715   7.156
 4329POPC   C4A56874  18.744  44.906   7.476
 4329POPC   C1B56875  17.921  44.861   6.177
 4329POPC   C2B56876  17.998   0.005   6.615
 4329POPC   C3B56877  18.020  44.741   7.020
 4329POPC   C4B56878  18.026  44.734   7.520
 4330POPC   NC356879   2.010  15.275   5.320
 4330POPC   PO456880   1.680  14.704   5.535
 4330POPC   GL156881   1.883  15.047   5.825
 4330POPC   GL256882   1.911  15.430   5.792
 4330POPC   C1A56883   2.060  15.183   6.255
 4330POPC   D2A56884   1.858  15.309   6.659
 4330POPC   C3A56885   1.830  15.041   7.033
 4330POPC   C4A56886   1.737  15.126   7.451
 4330POPC   C1B56887   1.833  15.648   6.172
 4330POPC   C2B56888   2.072  15.756   6.511
 4330POPC   C3B56889   2.139  15.695   6.902
 4330POPC   C4B56890   2.190  15.401   7.191
 4331POPC   NC356891  21.657  31.722   5.320
 4331POPC   PO456892  21.207  31.245   5.577
 4331POPC   GL156893  21.442  31.575   5.796
 4331POPC   GL256894  21.191  31.719   6.026
 4331POPC   C1A56895  21.669  31.658   6.206
 4331POPC   D2A56896  21.636  31.427   6.606
 4331POPC   C3A56897  21.394  31.574   6.951
 4331POPC   C4A56898  21.353  31.900   7.275
 4331POPC   C1B56899  21.248  31.345   6.248
 4331POPC   C2B56900  21.041  31.233   6.616
 4331POPC   C3B56901  21.071  31.161   7.043
 4331POPC   C4B56902  21.086  31.478   7.358
 4332POPC   NC356903  37.901  26.348   5.499
 4332POPC   PO456904  37.398  26.030   5.207
 4332POPC   GL156905  37.535  25.923   5.685
 4332POPC   GL256906  37.489  26.192   5.917
 4332POPC   C1A56907  37.684  25.778   6.133
 4332POPC   D2A56908  37.597  25.983   6.524
 4332POPC   C3A56909  37.868  25.984   6.879
 4332POPC   C4A56910  37.861  25.815   7.257
 4332POPC   C1B56911  37.823  26.355   6.176
 4332POPC   C2B56912  38.003  26.369   6.584
 4332POPC   C3B56913  37.969  26.520   7.003
 4332POPC   C4B56914  37.627  26.357   7.203
 4333POPC   NC356915   9.422  41.792   5.424
 4333POPC   PO456916  10.034  41.571   5.646
 4333POPC   GL156917   9.686  41.675   5.897
 4333POPC   GL256918   9.441  41.437   5.815
 4333POPC   C1A56919   9.596  41.568   6.328
 4333POPC   D2A56920   9.771  41.732   6.694
 4333POPC   C3A56921   9.828  41.630   7.109
 4333POPC   C4A56922   9.959  41.840   7.481
 4333POPC   C1B56923   9.256  41.208   6.168
 4333POPC   C2B56924   9.411  41.095   6.560
 4333POPC   C3B56925   9.228  41.175   6.952
 4333POPC   C4B56926   9.446  41.365   7.306
 4334POPC   NC356927  36.921  22.445   5.307
 4334POPC   PO456928  36.585  21.876   5.339
 4334POPC   GL156929  36.604  22.112   5.711
 4334POPC   GL256930  36.960  22.111   5.720
 4334POPC   C1A56931  36.684  22.174   6.164
 4334POPC   D2A56932  36.876  22.123   6.556
 4334POPC   C3A56933  36.621  22.113   6.918
 4334POPC   C4A56934  36.771  21.980   7.295
 4334POPC   C1B56935  37.199  22.183   6.091
 4334POPC   C2B56936  37.342  22.282   6.489
 4334POPC   C3B56937  37.198  22.287   6.930
 4334POPC   C4B56938  37.255  21.958   7.217
 4335POPC   NC356939  31.474  32.487   5.520
 4335POPC   PO456940  31.484  31.840   5.481
 4335POPC   GL156941  31.274  31.987   5.858
 4335POPC   GL256942  31.044  32.244   5.727
 4335POPC   C1A56943  31.444  32.061   6.309
 4335POPC   D2A56944  31.509  31.952   6.752
 4335POPC   C3A56945  31.792  32.195   7.039
 4335POPC   C4A56946  31.630  32.309   7.462
 4335POPC   C1B56947  31.005  32.295   6.178
 4335POPC   C2B56948  31.079  32.284   6.624
 4335POPC   C3B56949  31.035  32.092   7.015
 4335POPC   C4B56950  31.139  32.149   7.424
 4336POPC   NC356951   7.219  12.880   5.322
 4336POPC   PO456952   6.571  13.140   5.479
 4336POPC   GL156953   6.675  12.914   5.870
 4336POPC   GL256954   6.969  12.795   5.802
 4336POPC   C1A56955   6.607  12.861   6.317
 4336POPC   D2A56956   6.581  13.097   6.674
 4336POPC   C3A56957   6.477  12.867   7.032
 4336POPC   C4A56958   6.191  13.009   7.347
 4336POPC   C1B56959   7.092  12.768   6.245
 4336POPC   C2B56960   6.932  12.666   6.697
 4336POPC   C3B56961   6.955  12.641   7.192
 4336POPC   C4B56962   7.045  12.797   7.637
 4337POPC   NC356963  31.191  26.843   5.239
 4337POPC   PO456964  30.680  26.628   5.425
 4337POPC   GL156965  30.583  26.670   5.846
 4337POPC   GL256966  30.917  26.539   5.960
 4337POPC   C1A56967  30.683  26.935   6.216
 4337POPC   D2A56968  30.755  26.847   6.643
 4337POPC   C3A56969  30.862  27.085   6.989
 4337POPC   C4A56970  30.538  26.909   7.203
 4337POPC   C1B56971  30.609  26.431   6.317
 4337POPC   C2B56972  30.637  26.362   6.768
 4337POPC   C3B56973  30.906  26.567   7.091
 4337POPC   C4B56974  30.959  26.493   7.533
 4338POPC   NC356975   8.717   8.962   5.439
 4338POPC   PO456976   9.391   9.061   5.359
 4338POPC   GL156977   9.160   9.072   5.734
 4338POPC   GL256978   9.066   8.769   5.892
 4338POPC   C1A56979   9.167   9.222   6.154
 4338POPC   D2A56980   9.294   9.029   6.538
 4338POPC   C3A56981   9.219   9.131   6.983
 4338POPC   C4A56982   9.166   8.721   7.182
 4338POPC   C1B56983   8.794   8.861   6.210
 4338POPC   C2B56984   8.591   8.801   6.582
 4338POPC   C3B56985   8.776   8.896   6.903
 4338POPC   C4B56986   8.728   9.026   7.272
 4339POPC   NC356987  36.492   1.707   5.429
 4339POPC   PO456988  37.152   1.979   5.356
 4339POPC   GL156989  36.860   1.954   5.787
 4339POPC   GL256990  36.572   2.121   5.850
 4339POPC   C1A56991  37.034   1.745   6.190
 4339POPC   D2A56992  37.163   1.819   6.631
 4339POPC   C3A56993  36.863   1.846   6.961
 4339POPC   C4A56994  36.677   1.747   7.368
 4339POPC   C1B56995  36.743   2.158   6.267
 4339POPC   C2B56996  36.848   2.293   6.697
 4339POPC   C3B56997  36.665   2.267   7.131
 4339POPC   C4B56998  36.803   2.504   7.451
 4340POPC   NC356999  29.070  18.070   5.354
 4340POPC   PO457000  28.846  18.641   5.494
 4340POPC   GL157001  29.082  18.409   5.768
 4340POPC   GL257002  29.416  18.449   5.683
 4340POPC   C1A57003  29.199  18.234   6.162
 4340POPC   D2A57004  29.333  18.099   6.547
 4340POPC   C3A57005  29.116  18.207   6.867
 4340POPC   C4A57006  29.107  18.214   7.282
 4340POPC   C1B57007  29.473  18.672   6.104
 4340POPC   C2B57008  29.325  18.602   6.543
 4340POPC   C3B57009  29.510  18.617   6.956
 4340POPC   C4B57010  29.303  18.707   7.329
 4341POPC   NC357011  39.613  43.585   5.647
 4341POPC   PO457012  39.731  44.167   5.431
 4341POPC   GL157013  39.837  44.014   5.859
 4341POPC   GL257014  40.095  43.746   5.884
 4341POPC   C1A57015  39.867  43.958   6.305
 4341POPC   D2A57016  39.733  43.904   6.704
 4341POPC   C3A57017  40.049  44.056   6.992
 4341POPC   C4A57018  40.267  44.068   7.367
 4341POPC   C1B57019  39.977  43.459   6.232
 4341POPC   C2B57020  39.847  43.394   6.643
 4341POPC   C3B57021  39.913  43.571   7.038
 4341POPC   C4B57022  39.925  43.710   7.458
 4342POPC   NC357023  13.133  14.562   5.267
 4342POPC   PO457024  13.776  14.802   5.367
 4342POPC   GL157025  13.719  14.687   5.813
 4342POPC   GL257026  13.496  14.477   5.747
 4342POPC   C1A57027  13.884  14.415   6.176
 4342POPC   D2A57028  13.745  14.281   6.583
 4342POPC   C3A57029  13.888  14.438   6.960
 4342POPC   C4A57030  13.783  14.534   7.391
 4342POPC   C1B57031  13.371  14.433   6.182
 4342POPC   C2B57032  13.328  14.571   6.613
 4342POPC   C3B57033  13.381  14.419   7.048
 4342POPC   C4B57034  13.226  14.041   7.249
 4343POPC   NC357035  34.325   6.909   5.402
 4343POPC   PO457036  35.043   6.953   5.532
 4343POPC   GL157037  34.704   6.748   5.784
 4343POPC   GL257038  34.463   6.477   5.758
 4343POPC   C1A57039  34.441   6.862   6.138
 4343POPC   D2A57040  34.639   6.888   6.546
 4343POPC   C3A57041  34.437   6.854   6.946
 4343POPC   C4A57042  34.519   6.666   7.341
 4343POPC   C1B57043  34.553   6.373   6.217
 4343POPC   C2B57044  34.429   6.425   6.647
 4343POPC   C3B57045  34.534   6.250   7.069
 4343POPC   C4B57046  34.440   6.207   7.540
 4344POPC   NC357047   6.841  33.492   5.428
 4344POPC   PO457048   6.743  34.188   5.613
 4344POPC   GL157049   6.569  33.786   5.810
 4344POPC   GL257050   6.777  33.509   5.927
 4344POPC   C1A57051   6.381  33.602   6.225
 4344POPC   D2A57052   6.517  33.411   6.624
 4344POPC   C3A57053   6.598  33.665   7.003
 4344POPC   C4A57054   6.469  34.028   7.259
 4344POPC   C1B57055   6.841  33.836   6.254
 4344POPC   C2B57056   6.937  33.867   6.679
 4344POPC   C3B57057   6.936  34.094   7.083
 4344POPC   C4B57058   6.983  34.226   7.549
 4345POPC   NC357059  37.986  34.183   5.443
 4345POPC   PO457060  38.625  33.864   5.372
 4345POPC   GL157061  38.522  33.673   5.785
 4345POPC   GL257062  38.786  33.417   5.784
 4345POPC   C1A57063  38.534  33.899   6.215
 4345POPC   D2A57064  38.641  34.150   6.620
 4345POPC   C3A57065  38.575  33.904   7.032
 4345POPC   C4A57066  38.203  33.614   7.169
 4345POPC   C1B57067  38.629  33.387   6.214
 4345POPC   C2B57068  38.594  33.554   6.624
 4345POPC   C3B57069  38.629  33.368   7.015
 4345POPC   C4B57070  38.628  33.519   7.443
 4346POPC   NC357071  20.819  36.896   5.613
 4346POPC   PO457072  20.396  36.445   5.288
 4346POPC   GL157073  20.387  36.723   5.745
 4346POPC   GL257074  20.403  37.039   5.922
 4346POPC   C1A57075  20.664  36.695   6.193
 4346POPC   D2A57076  20.508  36.584   6.550
 4346POPC   C3A57077  20.584  36.603   6.948
 4346POPC   C4A57078  20.652  36.584   7.362
 4346POPC   C1B57079  20.409  37.088   6.379
 4346POPC   C2B57080  20.667  37.160   6.733
 4346POPC   C3B57081  20.857  37.000   7.109
 4346POPC   C4B57082  20.720  37.041   7.529
 4347POPC   NC357083   0.632   4.489   5.299
 4347POPC   PO457084   0.045   4.236   5.567
 4347POPC   GL157085   0.279   4.378   5.863
 4347POPC   GL257086   0.584   4.204   5.734
 4347POPC   C1A57087   0.236   4.542   6.289
 4347POPC   D2A57088   0.449   4.690   6.674
 4347POPC   C3A57089   0.283   4.441   7.025
 4347POPC   C4A57090   0.250   4.512   7.508
 4347POPC   C1B57091   0.645   4.225   6.179
 4347POPC   C2B57092   0.489   4.174   6.585
 4347POPC   C3B57093   0.718   4.183   6.937
 4347POPC   C4B57094   0.729   4.409   7.302
 4348POPC   NC357095  21.991  36.286   5.559
 4348POPC   PO457096  22.654  36.143   5.562
 4348POPC   GL157097  22.398  35.902   5.916
 4348POPC   GL257098  22.018  35.875   5.902
 4348POPC   C1A57099  22.305  35.730   6.362
 4348POPC   D2A57100  22.055  35.870   6.719
 4348POPC   C3A57101  22.058  35.708   7.114
 4348POPC   C4A57102  22.202  36.026   7.418
 4348POPC   C1B57103  22.062  36.176   6.241
 4348POPC   C2B57104  21.923  36.348   6.632
 4348POPC   C3B57105  22.064  36.329   7.033
 4348POPC   C4B57106  21.868  36.508   7.403
 4349POPC   NC357107   0.047  19.520   5.474
 4349POPC   PO457108  44.466  19.919   5.255
 4349POPC   GL157109  44.580  19.808   5.710
 4349POPC   GL257110  44.505  19.462   5.830
 4349POPC   C1A57111  44.572  19.839   6.183
 4349POPC   D2A57112  44.833  19.719   6.547
 4349POPC   C3A57113  44.666  19.866   6.938
 4349POPC   C4A57114  44.633  19.701   7.357
 4349POPC   C1B57115  44.269  19.456   6.232
 4349POPC   C2B57116  44.355  19.561   6.671
 4349POPC   C3B57117  44.287  19.414   7.109
 4349POPC   C4B57118  44.245  19.465   7.573
 4350POPC   NC357119  17.043  43.388   5.300
 4350POPC   PO457120  16.448  43.096   5.395
 4350POPC   GL157121  16.772  43.182   5.711
 4350POPC   GL257122  16.596  43.468   5.761
 4350POPC   C1A57123  16.919  43.020   6.146
 4350POPC   D2A57124  16.788  42.963   6.594
 4350POPC   C3A57125  16.938  43.023   7.017
 4350POPC   C4A57126  16.643  42.870   7.387
 4350POPC   C1B57127  16.477  43.277   6.159
 4350POPC   C2B57128  16.509  43.391   6.582
 4350POPC   C3B57129  16.485  43.263   7.013
 4350POPC   C4B57130  16.738  43.358   7.361
 4351POPC   NC357131  20.593   3.315   5.122
 4351POPC   PO457132  20.514   2.692   5.456
 4351POPC   GL157133  20.440   2.919   5.798
 4351POPC   GL257134  20.762   2.823   5.899
 4351POPC   C1A57135  20.400   3.050   6.221
 4351POPC   D2A57136  20.384   2.869   6.647
 4351POPC   C3A57137  20.721   2.777   6.917
 4351POPC   C4A57138  20.649   2.972   7.305
 4351POPC   C1B57139  20.907   2.847   6.303
 4351POPC   C2B57140  21.133   2.583   6.559
 4351POPC   C3B57141  21.089   2.410   6.990
 4351POPC   C4B57142  20.814   2.466   7.339
 4352POPC   NC357143  36.566   0.289   5.349
 4352POPC   PO457144  37.006   0.778   5.243
 4352POPC   GL157145  37.010   0.444   5.628
 4352POPC   GL257146  37.318   0.237   5.691
 4352POPC   C1A57147  36.884   0.272   6.089
 4352POPC   D2A57148  36.626   0.412   6.479
 4352POPC   C3A57149  36.754   0.502   6.885
 4352POPC   C4A57150  36.903   0.317   7.210
 4352POPC   C1B57151  37.406   0.368   6.134
 4352POPC   C2B57152  37.200   0.381   6.562
 4352POPC   C3B57153  37.244   0.598   6.963
 4352POPC   C4B57154  37.172   0.971   7.210
 4353POPC   NC357155  42.590  24.238   5.498
 4353POPC   PO457156  43.173  24.608   5.433
 4353POPC   GL157157  43.203  24.613   5.860
 4353POPC   GL257158  42.830  24.612   5.943
 4353POPC   C1A57159  43.212  24.784   6.277
 4353POPC   D2A57160  42.938  24.623   6.591
 4353POPC   C3A57161  43.155  24.362   6.897
 4353POPC   C4A57162  43.095  24.350   7.323
 4353POPC   C1B57163  42.600  24.290   6.209
 4353POPC   C2B57164  42.659  24.151   6.651
 4353POPC   C3B57165  42.655  24.462   6.991
 4353POPC   C4B57166  42.807  24.773   7.256
 4354POPC   NC357167  33.093  17.234   5.617
 4354POPC   PO457168  32.732  17.700   5.374
 4354POPC   GL157169  32.826  17.729   5.806
 4354POPC   GL257170  33.184  17.680   5.856
 4354POPC   C1A57171  32.827  17.534   6.216
 4354POPC   D2A57172  33.100  17.562   6.588
 4354POPC   C3A57173  32.912  17.406   6.973
 4354POPC   C4A57174  32.949  17.598   7.397
 4354POPC   C1B57175  33.324  17.331   6.177
 4354POPC   C2B57176  33.565  17.201   6.490
 4354POPC   C3B57177  33.451  17.292   6.875
 4354POPC   C4B57178  33.552  17.485   7.198
 4355POPC   NC357179  44.576  43.728   5.496
 4355POPC   PO457180  44.918  44.364   5.490
 4355POPC   GL157181  44.621  44.138   5.815
 4355POPC   GL257182  44.272  44.000   5.813
 4355POPC   C1A57183  44.562  43.870   6.213
 4355POPC   D2A57184  44.548  43.630   6.624
 4355POPC   C3A57185  44.849  43.837   6.858
 4355POPC   C4A57186  44.927  43.962   7.244
 4355POPC   C1B57187  44.308  44.323   6.185
 4355POPC   C2B57188  44.539  44.285   6.590
 4355POPC   C3B57189  44.449  44.143   7.011
 4355POPC   C4B57190  44.296  44.212   7.419
 4356POPC   NC357191  38.422  44.226   5.486
 4356POPC   PO457192  38.053  43.751   5.514
 4356POPC   GL157193  38.267  43.801   5.909
 4356POPC   GL257194  38.651  43.820   5.876
 4356POPC   C1A57195  38.209  43.810   6.375
 4356POPC   D2A57196  38.477  43.649   6.708
 4356POPC   C3A57197  38.389  43.766   7.140
 4356POPC   C4A57198  38.231  44.041   7.433
 4356POPC   C1B57199  38.498  44.191   6.142
 4356POPC   C2B57200  38.383  44.355   6.534
 4356POPC   C3B57201  38.596  44.155   6.874
 4356POPC   C4B57202  38.837  44.031   7.230
 4357POPC   NC357203  31.628  41.090   5.484
 4357POPC   PO457204  31.373  40.403   5.445
 4357POPC   GL157205  31.503  40.679   5.804
 4357POPC   GL257206  31.856  40.737   5.800
 4357POPC   C1A57207  31.420  40.782   6.245
 4357POPC   D2A57208  31.562  40.683   6.659
 4357POPC   C3A57209  31.305  40.747   7.035
 4357POPC   C4A57210  31.270  40.722   7.487
 4357POPC   C1B57211  31.841  41.071   6.133
 4357POPC   C2B57212  31.955  41.018   6.559
 4357POPC   C3B57213  31.760  41.072   6.949
 4357POPC   C4B57214  31.736  40.893   7.304
 4358POPC   NC357215  18.572  12.580   5.557
 4358POPC   PO457216  18.460  11.973   5.382
 4358POPC   GL157217  18.258  11.919   5.774
 4358POPC   GL257218  18.272  12.261   5.844
 4358POPC   C1A57219  18.102  11.743   6.175
 4358POPC   D2A57220  18.328  11.684   6.572
 4358POPC   C3A57221  18.232  11.778   7.016
 4358POPC   C4A57222  17.972  12.058   7.287
 4358POPC   C1B57223  18.218  12.242   6.287
 4358POPC   C2B57224  18.328  12.182   6.722
 4358POPC   C3B57225  18.427  12.223   7.166
 4358POPC   C4B57226  18.184  12.513   7.385
 4359POPC   NC357227  17.772  43.372   5.283
 4359POPC   PO457228  17.267  42.994   5.216
 4359POPC   GL157229  17.384  43.240   5.648
 4359POPC   GL257230  17.745  43.207   5.765
 4359POPC   C1A57231  17.392  43.268   6.137
 4359POPC   D2A57232  17.444  43.098   6.587
 4359POPC   C3A57233  17.433  43.339   7.006
 4359POPC   C4A57234  17.479  43.381   7.485
 4359POPC   C1B57235  17.887  42.856   6.043
 4359POPC   C2B57236  17.970  42.794   6.490
 4359POPC   C3B57237  17.731  42.777   6.863
 4359POPC   C4B57238  17.614  42.914   7.272
 4360POPC   NC357239  43.059  38.682   5.341
 4360POPC   PO457240  43.128  38.103   5.501
 4360POPC   GL157241  42.929  38.412   5.788
 4360POPC   GL257242  42.935  38.791   5.824
 4360POPC   C1A57243  42.837  38.443   6.204
 4360POPC   D2A57244  42.803  38.622   6.590
 4360POPC   C3A57245  42.985  38.428   6.945
 4360POPC   C4A57246  42.796  38.421   7.349
 4360POPC   C1B57247  43.308  38.680   6.114
 4360POPC   C2B57248  43.388  38.708   6.571
 4360POPC   C3B57249  43.374  38.782   7.021
 4360POPC   C4B57250  43.446  38.404   7.258
 4361POPC   NC357251   4.528  16.739   5.305
 4361POPC   PO457252   3.985  16.426   5.511
 4361POPC   GL157253   4.251  16.659   5.763
 4361POPC   GL257254   4.610  16.537   5.748
 4361POPC   C1A57255   4.127  16.744   6.183
 4361POPC   D2A57256   4.061  16.887   6.595
 4361POPC   C3A57257   4.104  16.696   6.998
 4361POPC   C4A57258   4.133  17.076   7.256
 4361POPC   C1B57259   4.624  16.863   6.059
 4361POPC   C2B57260   4.568  16.891   6.480
 4361POPC   C3B57261   4.545  16.959   6.911
 4361POPC   C4B57262   4.545  16.739   7.288
 4362POPC   NC357263   7.819  36.180   5.529
 4362POPC   PO457264   8.424  36.279   5.330
 4362POPC   GL157265   8.279  36.166   5.757
 4362POPC   GL257266   8.098  36.465   5.848
 4362POPC   C1A57267   8.070  35.895   6.103
 4362POPC   D2A57268   8.024  35.650   6.508
 4362POPC   C3A57269   8.143  35.776   6.968
 4362POPC   C4A57270   8.496  35.884   7.242
 4362POPC   C1B57271   8.264  36.346   6.240
 4362POPC   C2B57272   8.217  36.129   6.611
 4362POPC   C3B57273   8.211  36.294   7.026
 4362POPC   C4B57274   8.277  36.545   7.380
 4363POPC   NC357275   0.113  36.399   5.447
 4363POPC   PO457276   0.746  36.323   5.377
 4363POPC   GL157277   0.469  36.188   5.754
 4363POPC   GL257278   0.380  35.861   5.958
 4363POPC   C1A57279   0.245  36.291   6.151
 4363POPC   D2A57280   0.446  36.203   6.555
 4363POPC   C3A57281   0.261  36.308   6.941
 4363POPC   C4A57282   0.447  36.401   7.332
 4363POPC   C1B57283   0.737  35.991   6.186
 4363POPC   C2B57284   0.844  35.891   6.620
 4363POPC   C3B57285   0.576  35.903   6.981
 4363POPC   C4B57286   0.695  35.962   7.400
 4364POPC   NC357287  36.923  28.551   5.330
 4364POPC   PO457288  36.793  27.871   5.384
 4364POPC   GL157289  36.851  28.219   5.712
 4364POPC   GL257290  36.612  28.506   5.772
 4364POPC   C1A57291  37.003  28.377   6.115
 4364POPC   D2A57292  36.810  28.361   6.540
 4364POPC   C3A57293  37.081  28.242   6.875
 4364POPC   C4A57294  37.030  28.225   7.307
 4364POPC   C1B57295  36.601  28.701   6.179
 4364POPC   C2B57296  36.693  28.856   6.628
 4364POPC   C3B57297  36.654  28.575   6.994
 4364POPC   C4B57298  36.736  28.633   7.434
 4365POPC   NC357299   1.420  41.018   5.034
 4365POPC   PO457300   1.020  40.561   5.431
 4365POPC   GL157301   1.105  40.689   5.892
 4365POPC   GL257302   1.233  41.051   5.884
 4365POPC   C1A57303   0.988  40.858   6.309
 4365POPC   D2A57304   1.222  40.779   6.700
 4365POPC   C3A57305   1.061  40.696   7.107
 4365POPC   C4A57306   1.205  40.720   7.517
 4365POPC   C1B57307   1.475  40.986   6.268
 4365POPC   C2B57308   1.398  41.257   6.653
 4365POPC   C3B57309   1.306  41.152   7.107
 4365POPC   C4B57310   1.301  41.198   7.585
 4366POPC   NC357311  32.610  20.074   5.374
 4366POPC   PO457312  32.328  19.439   5.515
 4366POPC   GL157313  32.448  19.717   5.755
 4366POPC   GL257314  32.632  19.436   5.923
 4366POPC   C1A57315  32.192  19.950   6.042
 4366POPC   D2A57316  32.127  19.920   6.481
 4366POPC   C3A57317  31.950  20.047   6.877
 4366POPC   C4A57318  32.157  20.380   7.108
 4366POPC   C1B57319  32.267  19.462   6.207
 4366POPC   C2B57320  32.072  19.434   6.622
 4366POPC   C3B57321  32.261  19.475   7.047
 4366POPC   C4B57322  32.435  19.532   7.474
 4367POPC   NC357323  34.119  20.906   5.303
 4367POPC   PO457324  33.449  20.959   5.481
 4367POPC   GL157325  33.598  20.610   5.722
 4367POPC   GL257326  33.893  20.407   5.628
 4367POPC   C1A57327  33.736  20.636   6.134
 4367POPC   D2A57328  33.599  20.668   6.552
 4367POPC   C3A57329  33.860  20.910   6.812
 4367POPC   C4A57330  34.013  20.801   7.190
 4367POPC   C1B57331  34.124  20.346   6.011
 4367POPC   C2B57332  34.115  20.471   6.472
 4367POPC   C3B57333  33.920  20.390   6.881
 4367POPC   C4B57334  34.026  20.046   7.185
 4368POPC   NC357335  30.488  24.705   5.362
 4368POPC   PO457336  31.100  24.733   5.113
 4368POPC   GL157337  30.950  24.617   5.614
 4368POPC   GL257338  31.091  24.818   5.877
 4368POPC   C1A57339  30.634  24.645   6.034
 4368POPC   D2A57340  30.722  24.718   6.518
 4368POPC   C3A57341  30.464  24.656   6.913
 4368POPC   C4A57342  30.603  24.614   7.372
 4368POPC   C1B57343  31.054  24.429   6.201
 4368POPC   C2B57344  30.934  24.255   6.630
 4368POPC   C3B57345  30.953  24.553   6.998
 4368POPC   C4B57346  31.263  24.716   7.282
 4369POPC   NC357347   6.303  38.634   5.377
 4369POPC   PO457348   6.803  38.120   5.334
 4369POPC   GL157349   6.610  38.195   5.745
 4369POPC   GL257350   6.984  38.296   5.792
 4369POPC   C1A57351   6.339  38.117   6.181
 4369POPC   D2A57352   6.347  38.100   6.682
 4369POPC   C3A57353   6.534  38.484   6.917
 4369POPC   C4A57354   6.622  38.881   7.197
 4369POPC   C1B57355   6.858  38.105   6.169
 4369POPC   C2B57356   6.861  38.251   6.555
 4369POPC   C3B57357   6.895  38.047   6.903
 4369POPC   C4B57358   6.804  38.263   7.278
 4370POPC   NC357359  19.689   5.002   5.449
 4370POPC   PO457360  20.222   5.286   5.391
 4370POPC   GL157361  20.087   5.209   5.814
 4370POPC   GL257362  19.939   4.892   5.924
 4370POPC   C1A57363  19.842   5.310   6.204
 4370POPC   D2A57364  19.665   5.219   6.624
 4370POPC   C3A57365  19.862   5.302   7.042
 4370POPC   C4A57366  20.090   5.381   7.454
 4370POPC   C1B57367  19.760   4.772   6.324
 4370POPC   C2B57368  19.387   4.787   6.610
 4370POPC   C3B57369  19.390   4.990   7.021
 4370POPC   C4B57370  19.392   4.827   7.435
 4371POPC   NC357371  27.418  16.112   5.370
 4371POPC   PO457372  27.636  16.730   5.307
 4371POPC   GL157373  27.475  16.829   5.713
 4371POPC   GL257374  27.341  16.507   5.731
 4371POPC   C1A57375  27.685  16.678   6.104
 4371POPC   D2A57376  27.816  16.811   6.524
 4371POPC   C3A57377  27.736  16.552   6.920
 4371POPC   C4A57378  27.647  16.615   7.366
 4371POPC   C1B57379  27.193  16.590   6.163
 4371POPC   C2B57380  27.323  16.642   6.604
 4371POPC   C3B57381  27.281  16.779   7.041
 4371POPC   C4B57382  27.156  16.541   7.407
 4372POPC   NC357383  28.985  22.052   5.402
 4372POPC   PO457384  28.414  21.783   5.311
 4372POPC   GL157385  28.445  22.025   5.769
 4372POPC   GL257386  28.791  22.158   5.871
 4372POPC   C1A57387  28.437  22.115   6.275
 4372POPC   D2A57388  28.481  22.050   6.772
 4372POPC   C3A57389  28.202  22.171   7.136
 4372POPC   C4A57390  28.223  22.414   7.512
 4372POPC   C1B57391  28.847  22.462   6.242
 4372POPC   C2B57392  28.791  22.534   6.699
 4372POPC   C3B57393  28.639  22.457   7.138
 4372POPC   C4B57394  28.742  22.515   7.559
 4373POPC   NC357395   2.994  10.683   5.457
 4373POPC   PO457396   2.319  10.510   5.505
 4373POPC   GL157397   2.705  10.358   5.764
 4373POPC   GL257398   2.703  10.693   5.924
 4373POPC   C1A57399   3.038  10.385   6.139
 4373POPC   D2A57400   3.023  10.669   6.486
 4373POPC   C3A57401   2.965  10.459   6.856
 4373POPC   C4A57402   2.944  10.432   7.268
 4373POPC   C1B57403   2.571  10.431   6.308
 4373POPC   C2B57404   2.478  10.397   6.748
 4373POPC   C3B57405   2.422  10.414   7.186
 4373POPC   C4B57406   2.537  10.707   7.487
 4374POPC   NC357407  41.140  41.511   5.538
 4374POPC   PO457408  40.491  41.730   5.486
 4374POPC   GL157409  40.714  41.587   5.875
 4374POPC   GL257410  40.900  41.278   5.934
 4374POPC   C1A57411  40.543  41.561   6.292
 4374POPC   D2A57412  40.235  41.720   6.571
 4374POPC   C3A57413  40.457  41.664   6.954
 4374POPC   C4A57414  40.705  41.510   7.301
 4374POPC   C1B57415  41.007  41.358   6.383
 4374POPC   C2B57416  41.030  41.481   6.837
 4374POPC   C3B57417  41.170  41.287   7.221
 4374POPC   C4B57418  41.003  41.193   7.601
 4375POPC   NC357419  23.216   2.515   5.536
 4375POPC   PO457420  22.499   2.363   5.550
 4375POPC   GL157421  22.791   2.630   5.769
 4375POPC   GL257422  23.070   2.456   6.010
 4375POPC   C1A57423  22.914   2.912   6.120
 4375POPC   D2A57424  22.805   2.995   6.546
 4375POPC   C3A57425  22.975   2.944   6.954
 4375POPC   C4A57426  22.735   2.933   7.354
 4375POPC   C1B57427  22.651   2.471   6.213
 4375POPC   C2B57428  22.562   2.378   6.606
 4375POPC   C3B57429  22.678   2.551   6.983
 4375POPC   C4B57430  22.625   2.423   7.387
 4376POPC   NC357431  11.310  41.106   5.446
 4376POPC   PO457432  11.427  40.487   5.324
 4376POPC   GL157433  11.507  40.646   5.718
 4376POPC   GL257434  11.158  40.700   5.804
 4376POPC   C1A57435  11.511  40.891   6.108
 4376POPC   D2A57436  11.614  40.947   6.525
 4376POPC   C3A57437  11.562  40.709   6.886
 4376POPC   C4A57438  11.450  40.838   7.276
 4376POPC   C1B57439  10.980  40.767   6.230
 4376POPC   C2B57440  11.111  40.838   6.650
 4376POPC   C3B57441  11.068  40.635   7.037
 4376POPC   C4B57442  11.081  40.529   7.477
 4377POPC   NC357443  39.215   5.362   5.273
 4377POPC   PO457444  39.357   4.761   5.459
 4377POPC   GL157445  39.378   5.099   5.703
 4377POPC   GL257446  39.022   5.130   5.697
 4377POPC   C1A57447  39.468   5.120   6.139
 4377POPC   D2A57448  39.344   4.905   6.521
 4377POPC   C3A57449  39.424   5.053   6.924
 4377POPC   C4A57450  39.522   5.233   7.349
 4377POPC   C1B57451  38.972   5.012   6.110
 4377POPC   C2B57452  38.870   5.110   6.531
 4377POPC   C3B57453  38.923   4.931   6.920
 4377POPC   C4B57454  39.079   4.939   7.323
 4378POPC   NC357455   1.947  25.823   5.383
 4378POPC   PO457456   1.987  25.116   5.633
 4378POPC   GL157457   1.974  25.546   5.822
 4378POPC   GL257458   1.606  25.655   5.760
 4378POPC   C1A57459   2.088  25.682   6.270
 4378POPC   D2A57460   2.153  25.379   6.622
 4378POPC   C3A57461   2.163  25.448   7.067
 4378POPC   C4A57462   1.967  25.231   7.392
 4378POPC   C1B57463   1.626  25.455   6.171
 4378POPC   C2B57464   1.659  25.577   6.588
 4378POPC   C3B57465   1.666  25.380   6.997
 4378POPC   C4B57466   1.507  25.043   7.238
 4379POPC   NC357467  38.474  31.305   5.396
 4379POPC   PO457468  38.206  31.923   5.448
 4379POPC   GL157469  38.414  31.623   5.798
 4379POPC   GL257470  38.267  31.255   5.851
 4379POPC   C1A57471  38.679  31.409   6.150
 4379POPC   D2A57472  38.568  31.121   6.515
 4379POPC   C3A57473  38.623  31.260   6.939
 4379POPC   C4A57474  38.430  31.417   7.312
 4379POPC   C1B57475  38.188  31.353   6.284
 4379POPC   C2B57476  38.407  31.645   6.625
 4379POPC   C3B57477  38.214  31.816   7.051
 4379POPC   C4B57478  38.218  31.825   7.526
 4380POPC   NC357479  16.191  11.665   5.359
 4380POPC   PO457480  15.696  12.083   5.508
 4380POPC   GL157481  15.988  12.075   5.828
 4380POPC   GL257482  16.160  12.380   5.854
 4380POPC   C1A57483  16.067  11.963   6.240
 4380POPC   D2A57484  15.837  11.795   6.556
 4380POPC   C3A57485  16.019  11.876   6.938
 4380POPC   C4A57486  16.203  11.575   7.188
 4380POPC   C1B57487  15.872  12.437   6.197
 4380POPC   C2B57488  15.826  12.303   6.617
 4380POPC   C3B57489  15.866  12.421   7.021
 4380POPC   C4B57490  15.705  12.360   7.423
 4381POPC   NC357491  19.467   7.639   5.532
 4381POPC   PO457492  18.970   7.196   5.457
 4381POPC   GL157493  19.039   7.445   5.783
 4381POPC   GL257494  18.985   7.789   5.706
 4381POPC   C1A57495  19.159   7.430   6.170
 4381POPC   D2A57496  19.276   7.264   6.540
 4381POPC   C3A57497  18.929   7.243   6.810
 4381POPC   C4A57498  18.777   6.991   7.129
 4381POPC   C1B57499  18.853   7.865   6.153
 4381POPC   C2B57500  18.936   7.669   6.561
 4381POPC   C3B57501  19.033   7.722   7.015
 4381POPC   C4B57502  19.375   7.769   7.329
 4382POPC   NC357503  15.867  10.812   4.959
 4382POPC   PO457504  16.122  11.102   5.533
 4382POPC   GL157505  15.900  11.238   5.892
 4382POPC   GL257506  16.062  11.566   5.913
 4382POPC   C1A57507  15.866  11.280   6.362
 4382POPC   D2A57508  16.143  11.367   6.696
 4382POPC   C3A57509  16.138  11.064   7.032
 4382POPC   C4A57510  15.952  11.181   7.402
 4382POPC   C1B57511  15.604  11.630   6.098
 4382POPC   C2B57512  15.414  11.512   6.528
 4382POPC   C3B57513  15.673  11.454   6.894
 4382POPC   C4B57514  15.694  11.599   7.263
 4383POPC   NC357515  44.586  24.047   5.261
 4383POPC   PO457516  44.637  24.684   5.062
 4383POPC   GL157517  44.664  24.424   5.583
 4383POPC   GL257518  44.896  24.195   5.739
 4383POPC   C1A57519  44.693  24.535   6.079
 4383POPC   D2A57520  44.626  24.448   6.529
 4383POPC   C3A57521  44.618  24.681   6.906
 4383POPC   C4A57522   0.026  24.805   7.127
 4383POPC   C1B57523  44.769  24.039   6.190
 4383POPC   C2B57524  44.874  23.997   6.632
 4383POPC   C3B57525  44.978  24.286   6.961
 4383POPC   C4B57526  44.736  24.403   7.305
 4384POPC   NC357527  33.974  19.260   5.703
 4384POPC   PO457528  33.303  19.286   5.450
 4384POPC   GL157529  33.472  19.079   5.838
 4384POPC   GL257530  33.723  18.807   5.927
 4384POPC   C1A57531  33.552  19.082   6.308
 4384POPC   D2A57532  33.829  19.062   6.692
 4384POPC   C3A57533  33.580  19.057   7.048
 4384POPC   C4A57534  33.238  19.237   7.258
 4384POPC   C1B57535  34.041  18.845   6.279
 4384POPC   C2B57536  34.229  18.719   6.686
 4384POPC   C3B57537  34.042  18.802   7.092
 4384POPC   C4B57538  33.988  19.154   7.356
 4385POPC   NC357539  39.354  31.067   5.565
 4385POPC   PO457540  39.164  30.443   5.413
 4385POPC   GL157541  39.206  30.648   5.824
 4385POPC   GL257542  39.595  30.698   5.828
 4385POPC   C1A57543  39.332  30.907   6.211
 4385POPC   D2A57544  39.293  30.755   6.610
 4385POPC   C3A57545  39.297  30.925   7.014
 4385POPC   C4A57546  39.319  30.717   7.426
 4385POPC   C1B57547  39.520  30.397   6.156
 4385POPC   C2B57548  39.623  30.274   6.550
 4385POPC   C3B57549  39.589  30.481   6.918
 4385POPC   C4B57550  39.592  30.326   7.290
 4386POPC   NC357551  25.140  29.604   5.601
 4386POPC   PO457552  25.286  29.004   5.340
 4386POPC   GL157553  25.263  29.133   5.785
 4386POPC   GL257554  25.539  29.379   5.837
 4386POPC   C1A57555  25.090  29.325   6.196
 4386POPC   D2A57556  25.066  29.544   6.571
 4386POPC   C3A57557  24.919  29.363   6.909
 4386POPC   C4A57558  25.131  29.115   7.181
 4386POPC   C1B57559  25.553  29.110   6.210
 4386POPC   C2B57560  25.351  29.106   6.611
 4386POPC   C3B57561  25.571  28.970   6.962
 4386POPC   C4B57562  25.441  28.742   7.316
 4387POPC   NC357563  37.592  39.486   5.345
 4387POPC   PO457564  37.942  38.849   5.301
 4387POPC   GL157565  37.784  39.108   5.712
 4387POPC   GL257566  37.653  39.454   5.841
 4387POPC   C1A57567  37.914  39.170   6.181
 4387POPC   D2A57568  37.699  39.234   6.598
 4387POPC   C3A57569  37.816  39.385   6.991
 4387POPC   C4A57570  37.885  39.010   7.240
 4387POPC   C1B57571  37.411  39.275   6.177
 4387POPC   C2B57572  37.212  39.429   6.546
 4387POPC   C3B57573  37.282  39.404   6.981
 4387POPC   C4B57574  37.484  39.375   7.390
 4388POPC   NC357575  21.105   4.428   5.086
 4388POPC   PO457576  21.619   4.566   5.542
 4388POPC   GL157577  21.212   4.425   5.723
 4388POPC   GL257578  21.021   4.124   5.549
 4388POPC   C1A57579  21.282   4.435   6.189
 4388POPC   D2A57580  21.605   4.373   6.524
 4388POPC   C3A57581  21.456   4.266   6.936
 4388POPC   C4A57582  21.637   4.317   7.337
 4388POPC   C1B57583  21.018   4.007   6.010
 4388POPC   C2B57584  21.005   4.076   6.478
 4388POPC   C3B57585  20.982   3.993   6.942
 4388POPC   C4B57586  21.260   3.967   7.310
 4389POPC   NC357587   3.770  41.634   4.951
 4389POPC   PO457588   4.339  41.350   5.257
 4389POPC   GL157589   4.265  41.411   5.756
 4389POPC   GL257590   4.586  41.255   5.896
 4389POPC   C1A57591   4.174  41.657   6.187
 4389POPC   D2A57592   4.456  41.871   6.449
 4389POPC   C3A57593   4.441  41.853   6.910
 4389POPC   C4A57594   4.035  41.657   7.093
 4389POPC   C1B57595   4.511  41.336   6.333
 4389POPC   C2B57596   4.342  41.410   6.701
 4389POPC   C3B57597   4.431  41.319   7.126
 4389POPC   C4B57598   4.289  41.331   7.559
 4390POPC   NC357599   9.721  18.080   5.352
 4390POPC   PO457600   9.264  18.547   5.428
 4390POPC   GL157601   9.459  18.412   5.823
 4390POPC   GL257602   9.789  18.265   5.830
 4390POPC   C1A57603   9.639  18.499   6.249
 4390POPC   D2A57604   9.639  18.665   6.653
 4390POPC   C3A57605   9.906  18.471   6.939
 4390POPC   C4A57606   9.905  18.477   7.374
 4390POPC   C1B57607   9.617  17.992   6.161
 4390POPC   C2B57608   9.511  18.130   6.593
 4390POPC   C3B57609   9.508  18.144   7.015
 4390POPC   C4B57610   9.506  17.813   7.279
 4391POPC   NC357611  36.200  31.740   5.445
 4391POPC   PO457612  35.848  31.230   5.406
 4391POPC   GL157613  36.180  31.285   5.719
 4391POPC   GL257614  36.519  31.448   5.734
 4391POPC   C1A57615  36.145  31.363   6.173
 4391POPC   D2A57616  36.054  31.621   6.547
 4391POPC   C3A57617  36.121  31.383   6.935
 4391POPC   C4A57618  35.996  31.441   7.357
 4391POPC   C1B57619  36.554  31.684   6.148
 4391POPC   C2B57620  36.719  31.955   6.486
 4391POPC   C3B57621  36.487  31.830   6.854
 4391POPC   C4B57622  36.418  31.671   7.278
 4392POPC   NC357623  33.156  18.853   5.295
 4392POPC   PO457624  32.621  19.117   5.192
 4392POPC   GL157625  32.773  18.976   5.655
 4392POPC   GL257626  32.977  18.696   5.740
 4392POPC   C1A57627  33.012  19.103   6.048
 4392POPC   D2A57628  32.905  19.382   6.355
 4392POPC   C3A57629  32.994  19.346   6.777
 4392POPC   C4A57630  32.747  19.294   7.134
 4392POPC   C1B57631  33.250  18.664   6.088
 4392POPC   C2B57632  33.144  18.832   6.506
 4392POPC   C3B57633  33.029  18.858   6.939
 4392POPC   C4B57634  32.919  18.843   7.346
 4393POPC   NC357635   4.066  32.766   5.440
 4393POPC   PO457636   4.496  33.172   5.441
 4393POPC   GL157637   4.268  33.143   5.770
 4393POPC   GL257638   4.521  33.270   5.966
 4393POPC   C1A57639   4.086  32.945   6.111
 4393POPC   D2A57640   4.125  33.154   6.483
 4393POPC   C3A57641   4.071  32.954   6.864
 4393POPC   C4A57642   4.209  33.118   7.223
 4393POPC   C1B57643   4.600  32.922   6.232
 4393POPC   C2B57644   4.443  32.726   6.595
 4393POPC   C3B57645   4.569  32.781   7.022
 4393POPC   C4B57646   4.533  32.861   7.486
 4394POPC   NC357647  10.014  21.139   5.466
 4394POPC   PO457648   9.486  21.706   5.483
 4394POPC   GL157649   9.506  21.442   5.841
 4394POPC   GL257650   9.843  21.310   5.929
 4394POPC   C1A57651   9.494  21.537   6.280
 4394POPC   D2A57652   9.342  21.559   6.718
 4394POPC   C3A57653   9.681  21.424   7.052
 4394POPC   C4A57654   9.983  21.459   7.391
 4394POPC   C1B57655   9.999  21.055   6.296
 4394POPC   C2B57656  10.139  21.167   6.726
 4394POPC   C3B57657  10.262  21.122   7.142
 4394POPC   C4B57658  10.159  20.989   7.521
 4395POPC   NC357659   2.966  16.777   5.387
 4395POPC   PO457660   2.379  16.439   5.303
 4395POPC   GL157661   2.544  16.672   5.681
 4395POPC   GL257662   2.850  16.523   5.825
 4395POPC   C1A57663   2.646  16.886   6.100
 4395POPC   D2A57664   2.744  16.713   6.506
 4395POPC   C3A57665   2.706  16.951   6.860
 4395POPC   C4A57666   2.460  17.014   7.196
 4395POPC   C1B57667   2.877  16.305   6.213
 4395POPC   C2B57668   2.800  16.177   6.617
 4395POPC   C3B57669   2.846  16.164   7.054
 4395POPC   C4B57670   2.579  16.506   7.150
 4396POPC   NC357671  24.893  14.977   5.318
 4396POPC   PO457672  24.428  15.426   5.425
 4396POPC   GL157673  24.568  15.158   5.784
 4396POPC   GL257674  24.933  15.142   5.820
 4396POPC   C1A57675  24.404  14.957   6.178
 4396POPC   D2A57676  24.422  14.749   6.589
 4396POPC   C3A57677  24.337  15.000   6.958
 4396POPC   C4A57678  24.285  15.159   7.387
 4396POPC   C1B57679  24.825  15.254   6.252
 4396POPC   C2B57680  24.762  15.133   6.693
 4396POPC   C3B57681  24.740  15.238   7.149
 4396POPC   C4B57682  24.746  15.195   7.632
 4397POPC   NC357683  15.362   9.293   5.152
 4397POPC   PO457684  15.216   8.681   5.429
 4397POPC   GL157685  15.252   8.836   5.842
 4397POPC   GL257686  15.108   8.558   6.004
 4397POPC   C1A57687  15.304   8.984   6.278
 4397POPC   D2A57688  15.431   9.024   6.728
 4397POPC   C3A57689  15.103   9.240   6.961
 4397POPC   C4A57690  15.031   9.221   7.383
 4397POPC   C1B57691  15.533   8.521   6.138
 4397POPC   C2B57692  15.614   8.473   6.568
 4397POPC   C3B57693  15.553   8.568   7.006
 4397POPC   C4B57694  15.178   8.751   7.201
 4398POPC   NC357695  36.217  19.799   5.420
 4398POPC   PO457696  36.148  20.471   5.499
 4398POPC   GL157697  36.203  20.149   5.831
 4398POPC   GL257698  35.929  19.919   5.856
 4398POPC   C1A57699  36.203  20.054   6.284
 4398POPC   D2A57700  36.080  19.848   6.655
 4398POPC   C3A57701  36.079  20.100   6.991
 4398POPC   C4A57702  36.005  20.000   7.387
 4398POPC   C1B57703  35.861  19.645   6.232
 4398POPC   C2B57704  35.808  19.418   6.664
 4398POPC   C3B57705  35.900  19.593   7.096
 4398POPC   C4B57706  35.987  19.532   7.576
 4399POPC   NC357707   3.543  29.362   5.232
 4399POPC   PO457708   3.427  28.922   5.629
 4399POPC   GL157709   3.727  29.071   5.826
 4399POPC   GL257710   3.727  29.421   5.740
 4399POPC   C1A57711   3.869  29.209   6.195
 4399POPC   D2A57712   3.796  29.451   6.566
 4399POPC   C3A57713   3.883  29.248   6.979
 4399POPC   C4A57714   3.667  29.097   7.346
 4399POPC   C1B57715   3.395  29.353   6.097
 4399POPC   C2B57716   3.318  29.212   6.512
 4399POPC   C3B57717   3.384  29.352   6.929
 4399POPC   C4B57718   3.551  29.636   7.266
 4400POPC   NC357719   3.110   8.943   5.474
 4400POPC   PO457720   2.495   8.972   5.212
 4400POPC   GL157721   2.630   8.917   5.676
 4400POPC   GL257722   2.860   9.175   5.868
 4400POPC   C1A57723   2.609   8.828   6.143
 4400POPC   D2A57724   2.477   8.948   6.586
 4400POPC   C3A57725   2.719   8.816   6.956
 4400POPC   C4A57726   2.984   8.657   7.286
 4400POPC   C1B57727   3.065   9.329   6.274
 4400POPC   C2B57728   3.222   9.215   6.699
 4400POPC   C3B57729   3.090   9.132   7.133
 4400POPC   C4B57730   3.085   9.231   7.604
 4401POPC   NC357731  18.588   1.957   5.437
 4401POPC   PO457732  17.936   1.684   5.224
 4401POPC   GL157733  18.123   1.746   5.751
 4401POPC   GL257734  18.450   1.937   5.922
 4401POPC   C1A57735  18.027   1.994   6.184
 4401POPC   D2A57736  18.230   2.125   6.586
 4401POPC   C3A57737  18.189   1.769   6.853
 4401POPC   C4A57738  17.844   1.679   7.099
 4401POPC   C1B57739  18.660   2.259   6.231
 4401POPC   C2B57740  18.675   2.427   6.667
 4401POPC   C3B57741  18.624   2.263   7.074
 4401POPC   C4B57742  18.306   2.037   7.270
 4402POPC   NC357743  28.437  18.844   5.346
 4402POPC   PO457744  27.994  19.064   5.815
 4402POPC   GL157745  28.374  19.253   5.926
 4402POPC   GL257746  28.607  19.061   5.768
 4402POPC   C1A57747  28.661  19.153   6.266
 4402POPC   D2A57748  28.718  19.035   6.692
 4402POPC   C3A57749  28.469  19.231   7.019
 4402POPC   C4A57750  28.243  19.370   7.379
 4402POPC   C1B57751  28.459  18.729   6.041
 4402POPC   C2B57752  28.351  18.707   6.455
 4402POPC   C3B57753  28.394  18.683   6.883
 4402POPC   C4B57754  28.299  18.835   7.297
 4403POPC   NC357755  26.128  17.743   5.576
 4403POPC   PO457756  26.477  17.175   5.486
 4403POPC   GL157757  26.194  17.312   5.876
 4403POPC   GL257758  25.835  17.466   5.878
 4403POPC   C1A57759  26.162  17.448   6.342
 4403POPC   D2A57760  26.317  17.577   6.763
 4403POPC   C3A57761  26.043  17.394   7.064
 4403POPC   C4A57762  26.110  17.149   7.441
 4403POPC   C1B57763  25.840  17.815   6.198
 4403POPC   C2B57764  25.834  17.755   6.654
 4403POPC   C3B57765  26.013  17.912   7.028
 4403POPC   C4B57766  25.949  17.744   7.433
 4404POPC   NC357767   0.188   0.060   5.184
 4404POPC   PO457768   0.497  44.530   5.030
 4404POPC   GL157769   0.432  44.782   5.520
 4404POPC   GL257770   0.669   0.064   5.609
 4404POPC   C1A57771   0.362  44.643   5.994
 4404POPC   D2A57772   0.219  44.725   6.446
 4404POPC   C3A57773   0.414  44.525   6.837
 4404POPC   C4A57774   0.275  44.444   7.292
 4404POPC   C1B57775   0.674   0.044   6.085
 4404POPC   C2B57776   0.677  44.965   6.537
 4404POPC   C3B57777   0.806  44.855   6.958
 4404POPC   C4B57778   0.608  44.822   7.343
 4405POPC   NC357779  20.308   7.123   5.371
 4405POPC   PO457780  20.885   7.567   5.201
 4405POPC   GL157781  20.951   7.472   5.669
 4405POPC   GL257782  20.606   7.365   5.795
 4405POPC   C1A57783  20.990   7.423   6.146
 4405POPC   D2A57784  20.694   7.523   6.513
 4405POPC   C3A57785  20.778   7.517   6.984
 4405POPC   C4A57786  20.758   7.838   7.350
 4405POPC   C1B57787  20.323   7.432   6.175
 4405POPC   C2B57788  20.265   7.244   6.629
 4405POPC   C3B57789  20.320   7.270   7.106
 4405POPC   C4B57790  20.133   7.228   7.516
 4406POPC   NC357791  10.184  28.335   5.388
 4406POPC   PO457792  10.693  28.710   5.200
 4406POPC   GL157793  10.604  28.498   5.671
 4406POPC   GL257794  10.917  28.284   5.708
 4406POPC   C1A57795  10.279  28.298   6.071
 4406POPC   D2A57796  10.147  28.123   6.547
 4406POPC   C3A57797  10.429  27.981   6.818
 4406POPC   C4A57798  10.534  28.252   7.130
 4406POPC   C1B57799  10.757  28.174   6.100
 4406POPC   C2B57800  10.626  28.336   6.509
 4406POPC   C3B57801  10.885  28.533   6.839
 4406POPC   C4B57802  10.905  28.631   7.285
 4407POPC   NC357803  16.314   5.987   5.463
 4407POPC   PO457804  15.689   6.206   5.278
 4407POPC   GL157805  15.829   5.973   5.637
 4407POPC   GL257806  16.006   6.256   5.786
 4407POPC   C1A57807  15.894   5.815   6.064
 4407POPC   D2A57808  15.877   5.540   6.435
 4407POPC   C3A57809  15.898   5.776   6.808
 4407POPC   C4A57810  15.871   5.781   7.227
 4407POPC   C1B57811  16.294   6.181   6.137
 4407POPC   C2B57812  16.231   6.060   6.561
 4407POPC   C3B57813  16.341   6.081   6.986
 4407POPC   C4B57814  16.302   5.968   7.429
 4408POPC   NC357815  13.147   5.099   5.459
 4408POPC   PO457816  12.494   5.000   5.436
 4408POPC   GL157817  12.695   5.297   5.722
 4408POPC   GL257818  12.976   5.132   5.938
 4408POPC   C1A57819  12.647   5.456   6.143
 4408POPC   D2A57820  12.889   5.317   6.483
 4408POPC   C3A57821  12.670   5.299   6.855
 4408POPC   C4A57822  12.859   5.109   7.191
 4408POPC   C1B57823  13.024   4.833   6.292
 4408POPC   C2B57824  13.128   4.733   6.742
 4408POPC   C3B57825  13.012   4.632   7.183
 4408POPC   C4B57826  12.920   4.436   7.627
 4409POPC   NC357827  33.466  11.840   5.500
 4409POPC   PO457828  33.981  12.179   5.270
 4409POPC   GL157829  33.960  12.095   5.691
 4409POPC   GL257830  33.919  11.727   5.772
 4409POPC   C1A57831  33.762  12.144   6.093
 4409POPC   D2A57832  33.544  12.014   6.477
 4409POPC   C3A57833  33.684  12.209   6.836
 4409POPC   C4A57834  33.868  12.458   7.121
 4409POPC   C1B57835  33.903  11.664   6.249
 4409POPC   C2B57836  34.003  11.816   6.697
 4409POPC   C3B57837  34.004  11.717   7.150
 4409POPC   C4B57838  33.921  11.730   7.598
 4410POPC   NC357839  34.798  34.518   5.443
 4410POPC   PO457840  34.229  34.794   5.218
 4410POPC   GL157841  34.373  34.701   5.667
 4410POPC   GL257842  34.204  34.429   5.813
 4410POPC   C1A57843  34.610  34.533   6.084
 4410POPC   D2A57844  34.397  34.490   6.491
 4410POPC   C3A57845  34.644  34.542   6.841
 4410POPC   C4A57846  34.697  34.716   7.239
 4410POPC   C1B57847  34.180  34.807   6.128
 4410POPC   C2B57848  34.165  34.964   6.553
 4410POPC   C3B57849  34.174  34.777   6.943
 4410POPC   C4B57850  34.245  34.408   7.142
 4411POPC   NC357851  26.295  30.911   5.161
 4411POPC   PO457852  25.940  30.421   5.525
 4411POPC   GL157853  26.128  30.555   5.909
 4411POPC   GL257854  25.830  30.535   6.126
 4411POPC   C1A57855  26.121  30.890   6.297
 4411POPC   D2A57856  25.727  30.866   6.539
 4411POPC   C3A57857  25.768  30.629   6.917
 4411POPC   C4A57858  26.128  30.693   7.199
 4411POPC   C1B57859  26.163  30.348   6.353
 4411POPC   C2B57860  26.245  30.486   6.729
 4411POPC   C3B57861  26.356  30.258   7.084
 4411POPC   C4B57862  26.292  30.313   7.532
 4412POPC   NC357863  39.712  33.138   5.247
 4412POPC   PO457864  40.172  32.772   5.583
 4412POPC   GL157865  39.949  33.011   5.862
 4412POPC   GL257866  39.737  33.294   5.730
 4412POPC   C1A57867  40.080  33.017   6.295
 4412POPC   D2A57868  40.210  32.787   6.653
 4412POPC   C3A57869  40.156  33.056   7.017
 4412POPC   C4A57870  40.410  33.376   7.158
 4412POPC   C1B57871  39.602  33.228   6.172
 4412POPC   C2B57872  39.497  33.497   6.522
 4412POPC   C3B57873  39.532  33.420   6.957
 4412POPC   C4B57874  39.578  32.982   7.047
 4413POPC   NC357875  41.036   3.095   5.057
 4413POPC   PO457876  40.959   3.746   5.343
 4413POPC   GL157877  40.832   3.510   5.724
 4413POPC   GL257878  40.861   3.149   5.637
 4413POPC   C1A57879  40.950   3.546   6.183
 4413POPC   D2A57880  41.191   3.592   6.583
 4413POPC   C3A57881  40.979   3.712   6.950
 4413POPC   C4A57882  40.631   3.808   7.245
 4413POPC   C1B57883  40.681   3.099   6.082
 4413POPC   C2B57884  40.527   2.983   6.519
 4413POPC   C3B57885  40.714   3.015   6.941
 4413POPC   C4B57886  40.855   3.318   7.246
 4414POPC   NC357887  32.708  39.919   5.549
 4414POPC   PO457888  32.164  39.985   5.187
 4414POPC   GL157889  32.149  39.913   5.638
 4414POPC   GL257890  31.932  39.631   5.673
 4414POPC   C1A57891  32.114  40.082   6.084
 4414POPC   D2A57892  32.308  39.955   6.493
 4414POPC   C3A57893  32.131  40.131   6.872
 4414POPC   C4A57894  32.107  40.056   7.282
 4414POPC   C1B57895  32.131  39.588   6.102
 4414POPC   C2B57896  31.967  39.544   6.520
 4414POPC   C3B57897  32.083  39.628   6.946
 4414POPC   C4B57898  32.017  39.558   7.383
 4415POPC   NC357899  21.675  10.947   5.648
 4415POPC   PO457900  22.246  11.409   5.392
 4415POPC   GL157901  22.018  11.367   5.762
 4415POPC   GL257902  22.183  11.094   5.915
 4415POPC   C1A57903  21.859  11.310   6.216
 4415POPC   D2A57904  22.089  11.380   6.566
 4415POPC   C3A57905  21.922  11.231   6.917
 4415POPC   C4A57906  22.173  11.012   7.174
 4415POPC   C1B57907  22.432  11.066   6.263
 4415POPC   C2B57908  22.359  10.958   6.684
 4415POPC   C3B57909  22.623  10.857   7.001
 4415POPC   C4B57910  22.668  10.991   7.407
 4416POPC   NC357911  16.256  13.374   5.433
 4416POPC   PO457912  15.662  13.642   5.616
 4416POPC   GL157913  16.057  13.649   5.831
 4416POPC   GL257914  16.192  13.970   5.763
 4416POPC   C1A57915  16.086  13.701   6.264
 4416POPC   D2A57916  15.774  13.730   6.589
 4416POPC   C3A57917  15.851  13.498   6.954
 4416POPC   C4A57918  15.747  13.589   7.377
 4416POPC   C1B57919  16.473  14.019   6.113
 4416POPC   C2B57920  16.572  13.765   6.477
 4416POPC   C3B57921  16.321  13.732   6.840
 4416POPC   C4B57922  16.259  13.610   7.267
 4417POPC   NC357923   1.125  36.282   5.106
 4417POPC   PO457924   1.598  35.827   5.467
 4417POPC   GL157925   1.342  35.877   5.844
 4417POPC   GL257926   1.042  36.124   5.776
 4417POPC   C1A57927   1.267  36.148   6.237
 4417POPC   D2A57928   1.236  36.239   6.674
 4417POPC   C3A57929   1.523  35.978   6.983
 4417POPC   C4A57930   1.238  35.686   7.205
 4417POPC   C1B57931   0.893  36.475   6.071
 4417POPC   C2B57932   0.819  36.587   6.526
 4417POPC   C3B57933   0.792  36.397   6.936
 4417POPC   C4B57934   1.101  36.185   7.159
 4418POPC   NC357935  21.423  42.593   5.131
 4418POPC   PO457936  21.072  42.214   5.601
 4418POPC   GL157937  21.334  42.581   5.704
 4418POPC   GL257938  21.114  42.636   5.904
 4418POPC   C1A57939  21.528  42.559   6.156
 4418POPC   D2A57940  21.462  42.444   6.603
 4418POPC   C3A57941  21.422  42.634   7.025
 4418POPC   C4A57942  21.498  42.409   7.406
 4418POPC   C1B57943  21.028  42.449   6.328
 4418POPC   C2B57944  20.976  42.459   6.814
 4418POPC   C3B57945  21.018  42.310   7.258
 4418POPC   C4B57946  21.060  42.595   7.647
 4419POPC   NC357947   2.753  26.276   5.467
 4419POPC   PO457948   3.016  25.649   5.442
 4419POPC   GL157949   2.767  25.852   5.781
 4419POPC   GL257950   2.477  25.663   5.893
 4419POPC   C1A57951   2.682  26.051   6.175
 4419POPC   D2A57952   2.860  26.001   6.575
 4419POPC   C3A57953   2.737  26.274   6.893
 4419POPC   C4A57954   2.953  26.186   7.262
 4419POPC   C1B57955   2.578  25.559   6.349
 4419POPC   C2B57956   2.544  25.655   6.778
 4419POPC   C3B57957   2.443  25.888   7.110
 4419POPC   C4B57958   2.625  25.849   7.497
 4420POPC   NC357959   8.633  41.928   5.625
 4420POPC   PO457960   9.072  41.445   5.404
 4420POPC   GL157961   8.934  41.526   5.778
 4420POPC   GL257962   8.594  41.394   5.769
 4420POPC   C1A57963   9.124  41.704   6.146
 4420POPC   D2A57964   9.116  41.519   6.567
 4420POPC   C3A57965   9.308  41.680   6.939
 4420POPC   C4A57966   9.110  41.730   7.361
 4420POPC   C1B57967   8.690  41.443   6.221
 4420POPC   C2B57968   8.624  41.647   6.623
 4420POPC   C3B57969   8.766  41.549   7.030
 4420POPC   C4B57970   8.635  41.611   7.462
 4421POPC   NC357971  14.232  16.017   5.312
 4421POPC   PO457972  14.916  16.129   5.410
 4421POPC   GL157973  14.539  16.146   5.721
 4421POPC   GL257974  14.326  15.839   5.825
 4421POPC   C1A57975  14.402  16.204   6.177
 4421POPC   D2A57976  14.474  16.015   6.616
 4421POPC   C3A57977  14.185  16.172   6.933
 4421POPC   C4A57978  14.159  16.246   7.366
 4421POPC   C1B57979  14.187  15.569   6.186
 4421POPC   C2B57980  14.179  15.572   6.654
 4421POPC   C3B57981  14.453  15.641   7.021
 4421POPC   C4B57982  14.642  16.034   7.167
 4422POPC   NC357983   4.473   8.510   5.375
 4422POPC   PO457984   3.891   8.151   5.483
 4422POPC   GL157985   4.255   8.066   5.795
 4422POPC   GL257986   4.442   8.377   5.862
 4422POPC   C1A57987   4.362   7.971   6.244
 4422POPC   D2A57988   4.063   8.013   6.594
 4422POPC   C3A57989   4.212   7.994   7.029
 4422POPC   C4A57990   4.614   8.062   7.237
 4422POPC   C1B57991   4.117   8.408   6.171
 4422POPC   C2B57992   4.334   8.489   6.565
 4422POPC   C3B57993   4.436   8.466   6.984
 4422POPC   C4B57994   4.248   8.366   7.399
 4423POPC   NC357995  22.363  30.077   5.557
 4423POPC   PO457996  23.001  30.196   5.298
 4423POPC   GL157997  22.896  29.924   5.724
 4423POPC   GL257998  22.564  29.819   5.938
 4423POPC   C1A57999  22.965  30.016   6.186
 4423POPC   D2A58000  22.674  29.970   6.546
 4423POPC   C3A58001  22.926  29.977   6.906
 4423POPC   C4A58002  23.222  30.220   7.161
 4423POPC   C1B58003  22.780  29.545   6.249
 4423POPC   C2B58004  23.008  29.525   6.606
 4423POPC   C3B58005  22.944  29.469   7.018
 4423POPC   C4B58006  23.022  29.756   7.385
 4424POPC   NC358007  27.854  32.223   5.512
 4424POPC   PO458008  27.166  32.112   5.372
 4424POPC   GL158009  27.436  32.005   5.753
 4424POPC   GL258010  27.203  31.922   5.981
 4424POPC   C1A58011  27.623  31.953   6.233
 4424POPC   D2A58012  27.497  32.080   6.677
 4424POPC   C3A58013  27.777  32.068   7.040
 4424POPC   C4A58014  27.747  32.231   7.479
 4424POPC   C1B58015  27.401  32.389   6.107
 4424POPC   C2B58016  27.341  32.561   6.546
 4424POPC   C3B58017  27.442  32.495   7.009
 4424POPC   C4B58018  27.285  32.123   7.244
 4425POPC   NC358019  13.997   3.404   5.473
 4425POPC   PO458020  13.894   3.999   5.419
 4425POPC   GL158021  13.747   3.998   5.838
 4425POPC   GL258022  13.612   3.658   5.821
 4425POPC   C1A58023  13.775   3.840   6.284
 4425POPC   D2A58024  13.755   3.477   6.592
 4425POPC   C3A58025  13.707   3.631   7.005
 4425POPC   C4A58026  13.598   4.042   7.157
 4425POPC   C1B58027  13.386   3.522   6.216
 4425POPC   C2B58028  13.305   3.717   6.642
 4425POPC   C3B58029  13.207   3.653   7.096
 4425POPC   C4B58030  13.212   3.439   7.511
 4426POPC   NC358031   4.706  18.459   5.541
 4426POPC   PO458032   4.182  18.113   5.394
 4426POPC   GL158033   4.307  18.239   5.801
 4426POPC   GL258034   4.250  18.591   5.833
 4426POPC   C1A58035   4.431  18.341   6.238
 4426POPC   D2A58036   4.320  18.235   6.643
 4426POPC   C3A58037   4.578  18.334   7.000
 4426POPC   C4A58038   4.471  18.116   7.352
 4426POPC   C1B58039   4.123  18.755   6.255
 4426POPC   C2B58040   4.143  18.723   6.719
 4426POPC   C3B58041   4.081  18.414   7.079
 4426POPC   C4B58042   4.073  18.345   7.548
 4427POPC   NC358043   6.253  33.015   5.362
 4427POPC   PO458044   6.929  32.951   5.454
 4427POPC   GL158045   6.590  33.035   5.746
 4427POPC   GL258046   6.400  32.715   5.736
 4427POPC   C1A58047   6.581  33.129   6.185
 4427POPC   D2A58048   6.872  33.011   6.524
 4427POPC   C3A58049   6.843  33.163   6.934
 4427POPC   C4A58050   6.445  33.175   7.092
 4427POPC   C1B58051   6.249  32.746   6.160
 4427POPC   C2B58052   6.344  32.912   6.583
 4427POPC   C3B58053   6.601  32.717   6.922
 4427POPC   C4B58054   6.641  32.761   7.373
 4428POPC   NC358055   4.474  43.733   5.409
 4428POPC   PO458056   4.169  44.350   5.335
 4428POPC   GL158057   4.364  44.165   5.726
 4428POPC   GL258058   4.034  44.019   5.758
 4428POPC   C1A58059   4.442  43.878   6.121
 4428POPC   D2A58060   4.730  43.829   6.519
 4428POPC   C3A58061   4.544  43.848   6.967
 4428POPC   C4A58062   4.202  43.638   7.236
 4428POPC   C1B58063   3.944  43.864   6.162
 4428POPC   C2B58064   4.141  44.034   6.539
 4428POPC   C3B58065   4.023  43.985   6.950
 4428POPC   C4B58066   3.973  44.120   7.390
 4429POPC   NC358067  19.710   6.894   5.517
 4429POPC   PO458068  19.932   7.572   5.503
 4429POPC   GL158069  19.924   7.267   5.805
 4429POPC   GL258070  19.638   7.447   5.982
 4429POPC   C1A58071  19.933   7.111   6.223
 4429POPC   D2A58072  19.771   7.423   6.499
 4429POPC   C3A58073  19.910   7.546   6.888
 4429POPC   C4A58074  19.882   7.647   7.315
 4429POPC   C1B58075  19.482   7.801   6.269
 4429POPC   C2B58076  19.452   7.761   6.723
 4429POPC   C3B58077  19.441   7.392   6.996
 4429POPC   C4B58078  19.142   7.289   7.301
 4430POPC   NC358079   5.891  42.778   5.328
 4430POPC   PO458080   5.988  42.182   5.260
 4430POPC   GL158081   5.968  42.171   5.700
 4430POPC   GL258082   5.628  42.104   5.777
 4430POPC   C1A58083   5.980  42.415   6.092
 4430POPC   D2A58084   6.087  42.242   6.501
 4430POPC   C3A58085   5.960  42.298   6.909
 4430POPC   C4A58086   6.017  42.359   7.324
 4430POPC   C1B58087   5.727  41.990   6.225
 4430POPC   C2B58088   5.680  41.897   6.702
 4430POPC   C3B58089   5.726  41.916   7.162
 4430POPC   C4B58090   5.567  42.176   7.507
 4431POPC   NC358091   2.199  24.701   5.511
 4431POPC   PO458092   1.510  24.569   5.324
 4431POPC   GL158093   1.822  24.567   5.796
 4431POPC   GL258094   2.089  24.420   5.959
 4431POPC   C1A58095   1.714  24.677   6.274
 4431POPC   D2A58096   1.899  24.401   6.517
 4431POPC   C3A58097   1.885  24.417   6.974
 4431POPC   C4A58098   1.894  24.722   7.326
 4431POPC   C1B58099   2.207  24.748   6.222
 4431POPC   C2B58100   2.030  24.886   6.629
 4431POPC   C3B58101   2.220  24.941   7.010
 4431POPC   C4B58102   2.378  24.920   7.422
 4432POPC   NC358103  32.140  44.652   5.402
 4432POPC   PO458104  31.750  44.270   5.818
 4432POPC   GL158105  32.050  44.558   5.932
 4432POPC   GL258106  32.393  44.556   5.866
 4432POPC   C1A58107  32.169  44.755   6.314
 4432POPC   D2A58108  31.974  44.898   6.705
 4432POPC   C3A58109  32.122  44.799   7.133
 4432POPC   C4A58110  32.072  44.913   7.594
 4432POPC   C1B58111  32.676  44.581   6.258
 4432POPC   C2B58112  32.716  44.379   6.676
 4432POPC   C3B58113  32.537  44.499   7.068
 4432POPC   C4B58114  32.520  44.689   7.466
 4433POPC   NC358115  24.341  17.336   5.397
 4433POPC   PO458116  24.886  17.653   5.466
 4433POPC   GL158117  24.558  17.541   5.839
 4433POPC   GL258118  24.438  17.207   5.867
 4433POPC   C1A58119  24.403  17.534   6.297
 4433POPC   D2A58120  24.646  17.728   6.680
 4433POPC   C3A58121  24.521  17.662   7.118
 4433POPC   C4A58122  24.730  17.714   7.522
 4433POPC   C1B58123  24.722  17.135   6.164
 4433POPC   C2B58124  24.753  17.242   6.577
 4433POPC   C3B58125  24.704  17.066   6.948
 4433POPC   C4B58126  24.647  17.227   7.347
 4434POPC   NC358127  44.706  30.923   5.659
 4434POPC   PO458128  44.277  30.486   5.507
 4434POPC   GL158129  44.575  30.415   5.796
 4434POPC   GL258130  44.927  30.492   5.777
 4434POPC   C1A58131  44.589  30.509   6.217
 4434POPC   D2A58132  44.378  30.752   6.498
 4434POPC   C3A58133  44.554  30.696   6.869
 4434POPC   C4A58134  44.525  30.950   7.181
 4434POPC   C1B58135   0.079  30.660   6.155
 4434POPC   C2B58136  44.937  30.749   6.537
 4434POPC   C3B58137   0.077  30.873   6.925
 4434POPC   C4B58138  44.961  30.612   7.201
 4435POPC   NC358139  43.739  18.720   5.458
 4435POPC   PO458140  44.240  19.210   5.491
 4435POPC   GL158141  43.935  19.122   5.787
 4435POPC   GL258142  44.092  18.812   5.846
 4435POPC   C1A58143  43.650  19.104   6.163
 4435POPC   D2A58144  43.712  19.009   6.615
 4435POPC   C3A58145  43.833  19.366   6.873
 4435POPC   C4A58146  43.816  19.357   7.328
 4435POPC   C1B58147  44.147  18.982   6.265
 4435POPC   C2B58148  44.228  19.079   6.695
 4435POPC   C3B58149  44.065  18.918   7.051
 4435POPC   C4B58150  43.617  18.918   7.140
 4436POPC   NC358151  31.005  28.112   5.438
 4436POPC   PO458152  31.359  28.685   5.358
 4436POPC   GL158153  31.053  28.571   5.786
 4436POPC   GL258154  30.921  28.232   5.912
 4436POPC   C1A58155  30.700  28.628   6.134
 4436POPC   D2A58156  30.489  28.885   6.477
 4436POPC   C3A58157  30.563  28.742   6.907
 4436POPC   C4A58158  30.698  28.792   7.328
 4436POPC   C1B58159  30.720  28.128   6.318
 4436POPC   C2B58160  30.393  27.897   6.606
 4436POPC   C3B58161  30.362  27.943   7.082
 4436POPC   C4B58162  30.608  28.304   7.232
 4437POPC   NC358163  22.968   8.949   5.422
 4437POPC   PO458164  22.309   8.973   5.676
 4437POPC   GL158165  22.697   9.021   5.892
 4437POPC   GL258166  22.927   8.732   5.884
 4437POPC   C1A58167  22.857   8.969   6.345
 4437POPC   D2A58168  22.847   8.562   6.568
 4437POPC   C3A58169  22.964   8.566   6.994
 4437POPC   C4A58170  22.590   8.670   7.273
 4437POPC   C1B58171  23.246   8.637   6.208
 4437POPC   C2B58172  23.330   8.747   6.644
 4437POPC   C3B58173  23.074   9.042   6.842
 4437POPC   C4B58174  22.980   9.010   7.239
 4438POPC   NC358175  35.397  12.503   5.444
 4438POPC   PO458176  34.964  11.915   5.252
 4438POPC   GL158177  35.130  12.020   5.719
 4438POPC   GL258178  35.410  12.207   5.862
 4438POPC   C1A58179  35.064  12.012   6.206
 4438POPC   D2A58180  35.195  12.141   6.643
 4438POPC   C3A58181  35.329  11.847   6.972
 4438POPC   C4A58182  35.136  12.038   7.343
 4438POPC   C1B58183  35.559  12.069   6.264
 4438POPC   C2B58184  35.684  12.297   6.636
 4438POPC   C3B58185  35.536  12.305   7.066
 4438POPC   C4B58186  35.654  11.994   7.377
 4439POPC   NC358187  15.114   3.916   5.298
 4439POPC   PO458188  15.376   3.358   5.495
 4439POPC   GL158189  15.211   3.647   5.780
 4439POPC   GL258190  14.872   3.735   5.711
 4439POPC   C1A58191  15.382   3.749   6.180
 4439POPC   D2A58192  15.500   3.688   6.607
 4439POPC   C3A58193  15.284   3.576   6.988
 4439POPC   C4A58194  14.949   3.288   7.105
 4439POPC   C1B58195  14.887   3.871   6.161
 4439POPC   C2B58196  15.073   3.935   6.576
 4439POPC   C3B58197  14.911   3.922   7.015
 4439POPC   C4B58198  14.690   3.685   7.333
 4440POPC   NC358199   0.634  16.924   5.256
 4440POPC   PO458200   0.026  16.772   5.354
 4440POPC   GL158201   0.384  16.809   5.732
 4440POPC   GL258202   0.658  17.066   5.754
 4440POPC   C1A58203   0.545  16.645   6.183
 4440POPC   D2A58204   0.348  16.723   6.615
 4440POPC   C3A58205   0.300  16.560   7.024
 4440POPC   C4A58206   0.703  16.482   7.224
 4440POPC   C1B58207   0.532  17.161   6.155
 4440POPC   C2B58208   0.773  17.021   6.495
 4440POPC   C3B58209   0.761  16.876   6.884
 4440POPC   C4B58210   0.507  16.994   7.173
 4441POPC   NC358211   7.940  37.694   4.839
 4441POPC   PO458212   8.074  37.835   5.455
 4441POPC   GL158213   8.299  37.776   5.787
 4441POPC   GL258214   8.339  37.422   5.766
 4441POPC   C1A58215   8.203  38.007   6.178
 4441POPC   D2A58216   8.254  38.178   6.567
 4441POPC   C3A58217   8.148  37.964   6.936
 4441POPC   C4A58218   8.009  38.130   7.334
 4441POPC   C1B58219   8.099  37.511   6.163
 4441POPC   C2B58220   8.284  37.637   6.558
 4441POPC   C3B58221   8.386  37.485   6.974
 4441POPC   C4B58222   8.188  37.363   7.365
 4442POPC   NC358223  11.528  16.519   5.628
 4442POPC   PO458224  12.198  16.617   5.375
 4442POPC   GL158225  12.225  16.761   5.805
 4442POPC   GL258226  11.876  16.716   5.948
 4442POPC   C1A58227  12.214  16.926   6.260
 4442POPC   D2A58228  12.013  16.973   6.664
 4442POPC   C3A58229  12.277  17.042   7.042
 4442POPC   C4A58230  12.401  16.794   7.404
 4442POPC   C1B58231  11.734  16.348   6.246
 4442POPC   C2B58232  11.842  16.306   6.687
 4442POPC   C3B58233  12.045  16.574   6.985
 4442POPC   C4B58234  11.897  16.808   7.305
 4443POPC   NC358235   0.501  18.970   5.292
 4443POPC   PO458236   0.367  19.616   5.122
 4443POPC   GL158237   0.512  19.328   5.639
 4443POPC   GL258238   0.466  18.977   5.785
 4443POPC   C1A58239   0.632  19.285   6.143
 4443POPC   D2A58240   0.733  19.232   6.607
 4443POPC   C3A58241   0.384  19.334   6.930
 4443POPC   C4A58242   0.142  19.135   7.274
 4443POPC   C1B58243   0.238  18.911   6.146
 4443POPC   C2B58244   0.394  18.822   6.541
 4443POPC   C3B58245   0.195  18.783   6.908
 4443POPC   C4B58246   0.332  18.664   7.291
 4444POPC   NC358247  10.520  40.494   5.403
 4444POPC   PO458248  10.855  41.012   5.535
 4444POPC   GL158249  10.640  40.856   5.857
 4444POPC   GL258250  10.388  40.642   5.871
 4444POPC   C1A58251  10.469  40.994   6.239
 4444POPC   D2A58252  10.334  40.855   6.636
 4444POPC   C3A58253  10.647  40.920   6.946
 4444POPC   C4A58254  10.647  40.734   7.352
 4444POPC   C1B58255  10.407  40.472   6.261
 4444POPC   C2B58256  10.228  40.343   6.657
 4444POPC   C3B58257  10.256  40.523   7.093
 4444POPC   C4B58258  10.212  40.580   7.583
 4445POPC   NC358259  24.844   4.771   5.572
 4445POPC   PO458260  25.394   5.064   5.341
 4445POPC   GL158261  25.265   4.977   5.781
 4445POPC   GL258262  25.023   5.213   5.843
 4445POPC   C1A58263  25.209   4.770   6.219
 4445POPC   D2A58264  25.390   4.632   6.650
 4445POPC   C3A58265  25.147   4.849   6.997
 4445POPC   C4A58266  24.710   4.939   7.187
 4445POPC   C1B58267  25.193   5.287   6.222
 4445POPC   C2B58268  25.314   5.139   6.597
 4445POPC   C3B58269  25.251   5.335   7.004
 4445POPC   C4B58270  25.336   5.676   7.220
 4446POPC   NC358271  29.251  17.427   5.632
 4446POPC   PO458272  29.853  17.439   5.283
 4446POPC   GL158273  29.753  17.677   5.689
 4446POPC   GL258274  29.450  17.920   5.755
 4446POPC   C1A58275  29.945  17.496   6.079
 4446POPC   D2A58276  29.757  17.311   6.456
 4446POPC   C3A58277  29.981  17.350   6.855
 4446POPC   C4A58278  30.062  17.232   7.272
 4446POPC   C1B58279  29.524  17.772   6.206
 4446POPC   C2B58280  29.700  17.771   6.671
 4446POPC   C3B58281  29.775  17.730   7.148
 4446POPC   C4B58282  29.969  17.924   7.550
 4447POPC   NC358283  32.762  12.098   5.405
 4447POPC   PO458284  33.180  11.546   5.279
 4447POPC   GL158285  33.021  11.754   5.729
 4447POPC   GL258286  32.888  12.110   5.899
 4447POPC   C1A58287  33.184  11.819   6.172
 4447POPC   D2A58288  33.016  12.076   6.515
 4447POPC   C3A58289  33.203  12.073   6.914
 4447POPC   C4A58290  33.297  12.436   7.146
 4447POPC   C1B58291  32.761  12.425   6.241
 4447POPC   C2B58292  32.575  12.312   6.669
 4447POPC   C3B58293  32.779  12.257   7.097
 4447POPC   C4B58294  32.853  11.847   7.272
 4448POPC   NC358295   4.015  36.613   5.433
 4448POPC   PO458296   4.559  36.839   5.568
 4448POPC   GL158297   4.254  36.823   5.859
 4448POPC   GL258298   4.090  37.123   5.906
 4448POPC   C1A58299   4.384  36.953   6.279
 4448POPC   D2A58300   4.684  36.967   6.603
 4448POPC   C3A58301   4.390  36.918   6.932
 4448POPC   C4A58302   4.642  36.907   7.266
 4448POPC   C1B58303   3.863  36.934   6.231
 4448POPC   C2B58304   3.925  36.752   6.619
 4448POPC   C3B58305   3.875  36.775   7.053
 4448POPC   C4B58306   4.141  36.852   7.391
 4449POPC   NC358307  30.522  31.118   5.480
 4449POPC   PO458308  30.548  30.506   5.175
 4449POPC   GL158309  30.429  30.515   5.641
 4449POPC   GL258310  30.649  30.757   5.829
 4449POPC   C1A58311  30.385  30.436   6.131
 4449POPC   D2A58312  30.459  30.630   6.581
 4449POPC   C3A58313  30.744  30.502   6.937
 4449POPC   C4A58314  30.629  30.412   7.382
 4449POPC   C1B58315  30.780  31.082   6.143
 4449POPC   C2B58316  30.845  31.245   6.553
 4449POPC   C3B58317  30.709  31.032   6.914
 4449POPC   C4B58318  30.819  30.872   7.306
 4450POPC   NC358319  17.922   8.109   5.403
 4450POPC   PO458320  18.560   8.316   5.236
 4450POPC   GL158321  18.329   8.334   5.692
 4450POPC   GL258322  18.226   8.025   5.831
 4450POPC   C1A58323  18.199   8.561   6.089
 4450POPC   D2A58324  18.082   8.569   6.521
 4450POPC   C3A58325  18.257   8.357   6.874
 4450POPC   C4A58326  18.095   8.216   7.265
 4450POPC   C1B58327  18.314   8.088   6.277
 4450POPC   C2B58328  18.564   8.006   6.646
 4450POPC   C3B58329  18.581   7.966   7.103
 4450POPC   C4B58330  18.930   8.045   7.413
 4451POPC   NC358331  23.305   3.453   5.348
 4451POPC   PO458332  23.875   3.164   5.334
 4451POPC   GL158333  23.706   3.360   5.738
 4451POPC   GL258334  23.854   3.686   5.808
 4451POPC   C1A58335  23.542   3.484   6.171
 4451POPC   D2A58336  23.673   3.645   6.587
 4451POPC   C3A58337  23.520   3.757   6.998
 4451POPC   C4A58338  23.452   3.469   7.395
 4451POPC   C1B58339  24.101   3.726   6.189
 4451POPC   C2B58340  24.069   3.939   6.578
 4451POPC   C3B58341  24.053   3.762   6.965
 4451POPC   C4B58342  23.927   3.640   7.328
 4452POPC   NC358343   3.750  38.632   5.504
 4452POPC   PO458344   3.489  37.978   5.490
 4452POPC   GL158345   3.425  38.176   5.873
 4452POPC   GL258346   3.188  38.456   5.802
 4452POPC   C1A58347   3.646  38.427   6.180
 4452POPC   D2A58348   3.533  38.616   6.578
 4452POPC   C3A58349   3.643  38.310   6.907
 4452POPC   C4A58350   3.784  38.459   7.318
 4452POPC   C1B58351   3.210  38.706   6.186
 4452POPC   C2B58352   2.987  38.913   6.539
 4452POPC   C3B58353   3.144  38.984   6.970
 4452POPC   C4B58354   3.315  38.592   7.157
 4453POPC   NC358355  11.494  11.197   5.419
 4453POPC   PO458356  10.864  10.960   5.457
 4453POPC   GL158357  11.177  11.128   5.800
 4453POPC   GL258358  11.274  11.491   5.761
 4453POPC   C1A58359  11.321  11.222   6.220
 4453POPC   D2A58360  11.486  11.090   6.616
 4453POPC   C3A58361  11.241  11.020   6.976
 4453POPC   C4A58362  11.466  11.094   7.340
 4453POPC   C1B58363  11.476  11.713   6.112
 4453POPC   C2B58364  11.618  11.592   6.535
 4453POPC   C3B58365  11.444  11.512   6.935
 4453POPC   C4B58366  11.325  11.569   7.346
 4454POPC   NC358367  36.773  39.715   5.404
 4454POPC   PO458368  36.865  40.381   5.465
 4454POPC   GL158369  36.963  40.042   5.794
 4454POPC   GL258370  37.229  39.806   5.649
 4454POPC   C1A58371  36.785  39.898   6.240
 4454POPC   D2A58372  36.420  39.829   6.561
 4454POPC   C3A58373  36.565  39.845   6.983
 4454POPC   C4A58374  36.752  40.082   7.294
 4454POPC   C1B58375  37.290  39.762   6.099
 4454POPC   C2B58376  37.278  39.955   6.524
 4454POPC   C3B58377  37.076  39.900   6.922
 4454POPC   C4B58378  37.075  39.706   7.338
 4455POPC   NC358379  44.932  25.990   5.514
 4455POPC   PO458380   0.647  26.066   5.398
 4455POPC   GL158381   0.425  25.990   5.763
 4455POPC   GL258382   0.253  25.664   5.787
 4455POPC   C1A58383   0.175  26.047   6.137
 4455POPC   D2A58384   0.061  25.985   6.560
 4455POPC   C3A58385   0.275  26.222   6.886
 4455POPC   C4A58386   0.105  26.424   7.253
 4455POPC   C1B58387   0.541  25.634   6.135
 4455POPC   C2B58388   0.578  25.835   6.543
 4455POPC   C3B58389   0.359  25.711   6.910
 4455POPC   C4B58390   0.281  25.903   7.302
 4456POPC   NC358391   2.392   0.402   5.565
 4456POPC   PO458392   1.728   0.397   5.513
 4456POPC   GL158393   1.893   0.496   5.932
 4456POPC   GL258394   2.212   0.698   5.951
 4456POPC   C1A58395   1.888   0.656   6.369
 4456POPC   D2A58396   2.028   0.464   6.760
 4456POPC   C3A58397   1.813   0.414   7.123
 4456POPC   C4A58398   1.509   0.085   7.229
 4456POPC   C1B58399   2.394   0.467   6.319
 4456POPC   C2B58400   2.555   0.404   6.741
 4456POPC   C3B58401   2.361   0.314   7.129
 4456POPC   C4B58402   2.275   0.512   7.504
 4457POPC   NC358403   3.235  19.456   5.625
 4457POPC   PO458404   3.581  20.108   5.537
 4457POPC   GL158405   3.444  19.884   5.836
 4457POPC   GL258406   3.063  19.895   5.814
 4457POPC   C1A58407   3.689  19.677   6.148
 4457POPC   D2A58408   3.561  19.633   6.555
 4457POPC   C3A58409   3.791  19.625   6.909
 4457POPC   C4A58410   3.692  19.522   7.299
 4457POPC   C1B58411   3.166  20.071   6.220
 4457POPC   C2B58412   3.174  20.286   6.621
 4457POPC   C3B58413   3.202  20.144   7.051
 4457POPC   C4B58414   3.449  19.983   7.408
 4458POPC   NC358415  38.216  11.465   5.454
 4458POPC   PO458416  38.456  10.847   5.406
 4458POPC   GL158417  38.627  11.086   5.760
 4458POPC   GL258418  38.563  11.454   5.829
 4458POPC   C1A58419  38.441  11.101   6.175
 4458POPC   D2A58420  38.474  11.362   6.534
 4458POPC   C3A58421  38.556  11.153   6.922
 4458POPC   C4A58422  38.385  11.069   7.318
 4458POPC   C1B58423  38.218  11.580   6.130
 4458POPC   C2B58424  38.225  11.820   6.536
 4458POPC   C3B58425  38.355  11.651   6.954
 4458POPC   C4B58426  38.596  11.529   7.328
 4459POPC   NC358427  11.334   9.338   5.435
 4459POPC   PO458428  11.241  10.019   5.460
 4459POPC   GL158429  11.295   9.768   5.831
 4459POPC   GL258430  11.595   9.535   5.837
 4459POPC   C1A58431  11.387   9.873   6.259
 4459POPC   D2A58432  11.498   9.639   6.632
 4459POPC   C3A58433  11.492   9.901   6.933
 4459POPC   C4A58434  11.186   9.994   7.234
 4459POPC   C1B58435  11.416   9.362   6.205
 4459POPC   C2B58436  11.053   9.378   6.503
 4459POPC   C3B58437  11.076   9.529   6.934
 4459POPC   C4B58438  11.408   9.551   7.276
 4460POPC   NC358439  36.252  21.347   5.281
 4460POPC   PO458440  35.706  21.845   5.334
 4460POPC   GL158441  35.881  21.637   5.719
 4460POPC   GL258442  36.265  21.605   5.761
 4460POPC   C1A58443  35.936  21.574   6.186
 4460POPC   D2A58444  36.068  21.315   6.539
 4460POPC   C3A58445  36.040  21.373   6.986
 4460POPC   C4A58446  36.305  21.526   7.291
 4460POPC   C1B58447  36.413  21.357   6.150
 4460POPC   C2B58448  36.566  21.177   6.563
 4460POPC   C3B58449  36.494  21.089   7.022
 4460POPC   C4B58450  36.161  20.953   7.319
 4461POPC   NC358451  17.857  29.289   5.434
 4461POPC   PO458452  17.257  29.417   5.431
 4461POPC   GL158453  17.475  29.186   5.762
 4461POPC   GL258454  17.271  28.880   5.770
 4461POPC   C1A58455  17.748  29.137   6.149
 4461POPC   D2A58456  17.886  29.104   6.601
 4461POPC   C3A58457  17.571  29.230   6.934
 4461POPC   C4A58458  17.398  29.421   7.318
 4461POPC   C1B58459  17.238  29.082   6.202
 4461POPC   C2B58460  17.375  28.919   6.570
 4461POPC   C3B58461  17.181  28.817   6.942
 4461POPC   C4B58462  17.065  29.070   7.228
 4462POPC   NC358463  19.825  34.462   5.282
 4462POPC   PO458464  20.015  35.122   5.306
 4462POPC   GL158465  20.135  34.943   5.731
 4462POPC   GL258466  19.978  34.613   5.749
 4462POPC   C1A58467  19.891  34.919   6.146
 4462POPC   D2A58468  19.754  34.629   6.452
 4462POPC   C3A58469  19.867  34.684   6.859
 4462POPC   C4A58470  19.750  34.477   7.253
 4462POPC   C1B58471  20.144  34.467   6.144
 4462POPC   C2B58472  20.310  34.502   6.538
 4462POPC   C3B58473  20.420  34.678   6.893
 4462POPC   C4B58474  20.211  34.698   7.227
 4463POPC   NC358475  37.025  32.123   5.546
 4463POPC   PO458476  36.607  32.615   5.243
 4463POPC   GL158477  36.737  32.515   5.692
 4463POPC   GL258478  37.081  32.570   5.818
 4463POPC   C1A58479  36.697  32.396   6.153
 4463POPC   D2A58480  36.835  32.551   6.576
 4463POPC   C3A58481  36.829  32.243   6.910
 4463POPC   C4A58482  36.628  32.111   7.269
 4463POPC   C1B58483  37.174  32.248   6.158
 4463POPC   C2B58484  37.261  32.272   6.561
 4463POPC   C3B58485  37.304  32.338   6.995
 4463POPC   C4B58486  37.057  32.333   7.377
 4464POPC   NC358487   8.716  14.125   5.464
 4464POPC   PO458488   9.147  14.601   5.281
 4464POPC   GL158489   9.333  14.598   5.675
 4464POPC   GL258490   9.140  14.313   5.774
 4464POPC   C1A58491   9.188  14.721   6.100
 4464POPC   D2A58492   8.970  14.480   6.447
 4464POPC   C3A58493   8.983  14.594   6.885
 4464POPC   C4A58494   8.946  14.376   7.271
 4464POPC   C1B58495   8.870  14.116   6.102
 4464POPC   C2B58496   8.662  14.063   6.506
 4464POPC   C3B58497   8.906  14.062   6.878
 4464POPC   C4B58498   8.843  13.884   7.283
 4465POPC   NC358499   2.073  22.773   5.552
 4465POPC   PO458500   2.447  23.264   5.479
 4465POPC   GL158501   2.113  23.197   5.824
 4465POPC   GL258502   1.728  23.102   5.823
 4465POPC   C1A58503   2.031  22.954   6.214
 4465POPC   D2A58504   1.808  23.052   6.575
 4465POPC   C3A58505   2.112  23.065   6.902
 4465POPC   C4A58506   1.971  23.115   7.287
 4465POPC   C1B58507   1.621  22.683   6.094
 4465POPC   C2B58508   1.738  22.534   6.543
 4465POPC   C3B58509   1.782  22.684   7.005
 4465POPC   C4B58510   2.178  22.668   7.253
 4466POPC   NC358511   0.495  33.239   5.457
 4466POPC   PO458512   0.082  32.727   5.427
 4466POPC   GL158513   0.109  32.941   5.810
 4466POPC   GL258514   0.453  32.942   5.856
 4466POPC   C1A58515   0.129  33.056   6.273
 4466POPC   D2A58516   0.066  33.071   6.728
 4466POPC   C3A58517   0.353  32.999   7.063
 4466POPC   C4A58518   0.432  33.295   7.435
 4466POPC   C1B58519   0.680  33.111   6.187
 4466POPC   C2B58520   0.671  33.076   6.641
 4466POPC   C3B58521   0.735  33.362   6.992
 4466POPC   C4B58522   0.950  33.245   7.322
 4467POPC   NC358523  41.660  41.183   5.302
 4467POPC   PO458524  41.485  41.838   5.470
 4467POPC   GL158525  41.603  41.519   5.781
 4467POPC   GL258526  41.308  41.598   6.017
 4467POPC   C1A58527  41.712  41.340   6.206
 4467POPC   D2A58528  41.743  41.558   6.581
 4467POPC   C3A58529  41.559  41.519   6.967
 4467POPC   C4A58530  41.686  41.147   7.163
 4467POPC   C1B58531  41.632  41.875   6.201
 4467POPC   C2B58532  41.744  42.098   6.591
 4467POPC   C3B58533  41.898  41.965   6.981
 4467POPC   C4B58534  41.590  41.948   7.275
 4468POPC   NC358535  41.264  21.443   5.261
 4468POPC   PO458536  41.859  21.111   5.304
 4468POPC   GL158537  41.561  21.151   5.638
 4468POPC   GL258538  41.530  21.471   5.759
 4468POPC   C1A58539  41.425  21.104   6.097
 4468POPC   D2A58540  41.242  21.267   6.486
 4468POPC   C3A58541  41.382  21.120   6.878
 4468POPC   C4A58542  41.507  21.259   7.268
 4468POPC   C1B58543  41.482  21.603   6.180
 4468POPC   C2B58544  41.588  21.668   6.607
 4468POPC   C3B58545  41.448  21.679   7.015
 4468POPC   C4B58546  41.491  21.851   7.392
 4469POPC   NC358547   1.556  15.734   5.548
 4469POPC   PO458548   1.056  16.205   5.312
 4469POPC   GL158549   1.166  16.042   5.744
 4469POPC   GL258550   1.035  15.702   5.797
 4469POPC   C1A58551   0.937  16.028   6.176
 4469POPC   D2A58552   0.872  15.840   6.598
 4469POPC   C3A58553   0.926  16.112   6.945
 4469POPC   C4A58554   1.284  16.159   7.201
 4469POPC   C1B58555   1.315  15.657   6.157
 4469POPC   C2B58556   1.494  15.685   6.580
 4469POPC   C3B58557   1.228  15.699   6.976
 4469POPC   C4B58558   1.244  15.723   7.437
 4470POPC   NC358559   5.726   2.941   5.345
 4470POPC   PO458560   5.888   2.288   5.620
 4470POPC   GL158561   5.842   2.695   5.798
 4470POPC   GL258562   6.188   2.684   5.965
 4470POPC   C1A58563   5.885   3.102   6.017
 4470POPC   D2A58564   6.171   3.095   6.336
 4470POPC   C3A58565   6.014   2.959   6.757
 4470POPC   C4A58566   5.940   2.847   7.193
 4470POPC   C1B58567   5.887   2.660   6.321
 4470POPC   C2B58568   5.686   2.551   6.721
 4470POPC   C3B58569   5.827   2.361   7.102
 4470POPC   C4B58570   6.132   2.375   7.439
 4471POPC   NC358571  15.254  11.956   5.525
 4471POPC   PO458572  14.736  12.190   5.250
 4471POPC   GL158573  14.785  12.203   5.702
 4471POPC   GL258574  14.866  11.895   5.859
 4471POPC   C1A58575  14.967  12.394   6.090
 4471POPC   D2A58576  15.081  12.469   6.536
 4471POPC   C3A58577  15.231  12.051   6.732
 4471POPC   C4A58578  15.545  12.017   7.040
 4471POPC   C1B58579  15.024  11.672   6.213
 4471POPC   C2B58580  14.901  11.582   6.645
 4471POPC   C3B58581  14.818  11.787   7.003
 4471POPC   C4B58582  15.151  11.666   7.244
 4472POPC   NC358583  34.718  31.173   5.411
 4472POPC   PO458584  34.349  31.704   5.564
 4472POPC   GL158585  34.421  31.398   5.816
 4472POPC   GL258586  34.101  31.200   5.763
 4472POPC   C1A58587  34.751  31.445   6.137
 4472POPC   D2A58588  34.980  31.349   6.523
 4472POPC   C3A58589  34.696  31.489   6.825
 4472POPC   C4A58590  34.618  31.476   7.240
 4472POPC   C1B58591  34.128  31.293   6.216
 4472POPC   C2B58592  34.097  31.239   6.678
 4472POPC   C3B58593  34.215  31.184   7.109
 4472POPC   C4B58594  34.361  31.141   7.537
 4473POPC   NC358595   0.877  27.152   5.620
 4473POPC   PO458596   0.412  27.563   5.259
 4473POPC   GL158597   0.409  27.636   5.788
 4473POPC   GL258598   0.725  27.814   5.872
 4473POPC   C1A58599   0.133  27.554   6.201
 4473POPC   D2A58600  44.942  27.500   6.651
 4473POPC   C3A58601   0.271  27.393   6.965
 4473POPC   C4A58602   0.450  27.569   7.342
 4473POPC   C1B58603   0.747  27.489   6.175
 4473POPC   C2B58604   0.697  27.422   6.607
 4473POPC   C3B58605   0.603  27.763   6.872
 4473POPC   C4B58606   0.795  27.963   7.188
 4474POPC   NC358607   8.247  39.020   5.586
 4474POPC   PO458608   7.954  39.513   5.233
 4474POPC   GL158609   7.928  39.465   5.716
 4474POPC   GL258610   7.787  39.699   5.943
 4474POPC   C1A58611   7.977  39.249   6.149
 4474POPC   D2A58612   8.306  39.155   6.474
 4474POPC   C3A58613   8.181  38.985   6.889
 4474POPC   C4A58614   8.283  39.093   7.317
 4474POPC   C1B58615   7.792  39.669   6.395
 4474POPC   C2B58616   7.839  39.338   6.693
 4474POPC   C3B58617   7.988  39.433   7.103
 4474POPC   C4B58618   8.012  39.416   7.608
 4475POPC   NC358619  38.993  27.902   5.354
 4475POPC   PO458620  39.137  28.560   5.379
 4475POPC   GL158621  38.978  28.372   5.744
 4475POPC   GL258622  39.332  28.324   5.787
 4475POPC   C1A58623  39.054  28.367   6.199
 4475POPC   D2A58624  39.333  28.540   6.500
 4475POPC   C3A58625  39.174  28.503   6.883
 4475POPC   C4A58626  39.275  28.393   7.284
 4475POPC   C1B58627  39.568  28.255   6.144
 4475POPC   C2B58628  39.630  28.114   6.548
 4475POPC   C3B58629  39.489  28.089   6.933
 4475POPC   C4B58630  39.703  28.047   7.279
 4476POPC   NC358631  22.318   8.571   5.457
 4476POPC   PO458632  22.210   7.897   5.312
 4476POPC   GL158633  22.082   8.168   5.695
 4476POPC   GL258634  21.860   8.514   5.710
 4476POPC   C1A58635  22.181   8.090   6.121
 4476POPC   D2A58636  22.377   8.245   6.527
 4476POPC   C3A58637  22.291   7.883   6.796
 4476POPC   C4A58638  22.114   7.901   7.199
 4476POPC   C1B58639  21.898   8.497   6.178
 4476POPC   C2B58640  21.880   8.193   6.541
 4476POPC   C3B58641  22.006   8.327   6.944
 4476POPC   C4B58642  22.060   8.644   7.244
 4477POPC   NC358643  37.069  32.528   5.176
 4477POPC   PO458644  37.074  33.159   5.456
 4477POPC   GL158645  36.897  33.045   5.808
 4477POPC   GL258646  37.201  33.101   5.993
 4477POPC   C1A58647  36.759  32.913   6.216
 4477POPC   D2A58648  36.984  33.060   6.597
 4477POPC   C3A58649  36.860  33.307   6.950
 4477POPC   C4A58650  36.740  33.133   7.339
 4477POPC   C1B58651  37.254  32.749   6.273
 4477POPC   C2B58652  37.378  32.748   6.701
 4477POPC   C3B58653  37.079  32.789   7.080
 4477POPC   C4B58654  37.005  32.787   7.592
 4478POPC   NC358655   4.993   4.342   5.461
 4478POPC   PO458656   5.644   4.262   5.601
 4478POPC   GL158657   5.294   4.411   5.876
 4478POPC   GL258658   4.925   4.598   5.883
 4478POPC   C1A58659   5.203   4.384   6.294
 4478POPC   D2A58660   5.224   4.119   6.631
 4478POPC   C3A58661   5.222   4.438   6.933
 4478POPC   C4A58662   4.974   4.442   7.279
 4478POPC   C1B58663   4.740   4.260   6.103
 4478POPC   C2B58664   4.690   4.269   6.550
 4478POPC   C3B58665   4.764   4.101   6.968
 4478POPC   C4B58666   4.591   4.127   7.425
 4479POPC   NC358667  34.300  26.236   5.354
 4479POPC   PO458668  34.836  25.896   5.506
 4479POPC   GL158669  34.637  26.205   5.792
 4479POPC   GL258670  34.263  26.106   5.884
 4479POPC   C1A58671  34.612  26.146   6.252
 4479POPC   D2A58672  34.660  25.995   6.655
 4479POPC   C3A58673  34.463  26.276   6.971
 4479POPC   C4A58674  34.505  26.288   7.427
 4479POPC   C1B58675  34.230  25.752   6.237
 4479POPC   C2B58676  34.343  25.599   6.691
 4479POPC   C3B58677  34.502  25.793   7.104
 4479POPC   C4B58678  34.184  25.885   7.492
 4480POPC   NC358679  23.135  15.564   5.488
 4480POPC   PO458680  22.790  15.013   5.338
 4480POPC   GL158681  22.966  15.147   5.779
 4480POPC   GL258682  23.003  15.448   5.967
 4480POPC   C1A58683  23.119  15.073   6.267
 4480POPC   D2A58684  22.898  15.024   6.680
 4480POPC   C3A58685  23.006  15.339   6.977
 4480POPC   C4A58686  23.053  15.349   7.396
 4480POPC   C1B58687  22.702  15.390   6.321
 4480POPC   C2B58688  22.616  15.563   6.748
 4480POPC   C3B58689  22.571  15.468   7.222
 4480POPC   C4B58690  22.666  15.477   7.706
 4481POPC   NC358691   2.423   3.687   5.557
 4481POPC   PO458692   3.018   3.728   5.397
 4481POPC   GL158693   2.854   3.474   5.811
 4481POPC   GL258694   2.536   3.224   5.788
 4481POPC   C1A58695   2.795   3.512   6.306
 4481POPC   D2A58696   2.508   3.730   6.612
 4481POPC   C3A58697   2.593   3.734   7.054
 4481POPC   C4A58698   2.814   3.503   7.367
 4481POPC   C1B58699   2.297   3.450   6.154
 4481POPC   C2B58700   2.358   3.247   6.565
 4481POPC   C3B58701   2.650   3.263   6.901
 4481POPC   C4B58702   2.388   3.261   7.249
 4482POPC   NC358703   4.200   4.925   5.283
 4482POPC   PO458704   4.572   5.483   5.422
 4482POPC   GL158705   4.663   5.251   5.797
 4482POPC   GL258706   4.377   5.028   5.776
 4482POPC   C1A58707   4.655   5.096   6.235
 4482POPC   D2A58708   4.808   5.102   6.680
 4482POPC   C3A58709   4.429   5.201   6.958
 4482POPC   C4A58710   4.114   4.900   7.119
 4482POPC   C1B58711   4.149   5.251   6.111
 4482POPC   C2B58712   4.066   5.237   6.565
 4482POPC   C3B58713   3.964   5.412   6.964
 4482POPC   C4B58714   4.066   5.327   7.402
 4483POPC   NC358715  22.506  32.577   5.359
 4483POPC   PO458716  21.971  32.090   5.400
 4483POPC   GL158717  21.888  32.233   5.815
 4483POPC   GL258718  22.143  32.471   5.740
 4483POPC   C1A58719  21.913  32.174   6.253
 4483POPC   D2A58720  22.147  32.027   6.555
 4483POPC   C3A58721  22.134  32.155   6.942
 4483POPC   C4A58722  22.228  31.970   7.311
 4483POPC   C1B58723  22.176  32.626   6.162
 4483POPC   C2B58724  22.087  32.564   6.591
 4483POPC   C3B58725  22.249  32.642   6.995
 4483POPC   C4B58726  22.186  32.469   7.372
 4484POPC   NC358727  30.541  37.487   5.465
 4484POPC   PO458728  31.012  37.954   5.272
 4484POPC   GL158729  30.826  37.826   5.735
 4484POPC   GL258730  30.712  37.469   5.936
 4484POPC   C1A58731  30.821  37.885   6.204
 4484POPC   D2A58732  30.661  37.865   6.627
 4484POPC   C3A58733  30.955  38.058   6.902
 4484POPC   C4A58734  31.032  38.065   7.332
 4484POPC   C1B58735  30.714  37.393   6.381
 4484POPC   C2B58736  30.707  37.382   6.821
 4484POPC   C3B58737  30.721  37.681   7.137
 4484POPC   C4B58738  30.915  37.584   7.494
 4485POPC   NC358739  28.652  28.235   5.467
 4485POPC   PO458740  28.027  28.536   5.311
 4485POPC   GL158741  28.235  28.452   5.713
 4485POPC   GL258742  28.528  28.641   5.770
 4485POPC   C1A58743  28.388  28.280   6.132
 4485POPC   D2A58744  28.343  28.459   6.565
 4485POPC   C3A58745  28.218  28.293   6.996
 4485POPC   C4A58746  28.596  28.136   7.201
 4485POPC   C1B58747  28.701  28.755   6.167
 4485POPC   C2B58748  28.653  28.916   6.585
 4485POPC   C3B58749  28.496  28.714   6.982
 4485POPC   C4B58750  28.451  28.585   7.433
 4486POPC   NC358751  28.694  42.732   5.513
 4486POPC   PO458752  28.548  43.439   5.399
 4486POPC   GL158753  28.364  43.158   5.756
 4486POPC   GL258754  28.401  43.401   5.953
 4486POPC   C1A58755  28.225  42.958   6.173
 4486POPC   D2A58756  28.390  42.822   6.587
 4486POPC   C3A58757  28.344  42.979   7.037
 4486POPC   C4A58758  28.677  42.839   7.325
 4486POPC   C1B58759  28.173  43.445   6.316
 4486POPC   C2B58760  28.405  43.378   6.688
 4486POPC   C3B58761  28.471  43.521   7.108
 4486POPC   C4B58762  28.394  43.277   7.498
 4487POPC   NC358763   3.533  16.274   5.371
 4487POPC   PO458764   3.855  15.810   5.029
 4487POPC   GL158765   3.728  15.776   5.555
 4487POPC   GL258766   3.743  16.079   5.811
 4487POPC   C1A58767   3.551  15.669   6.045
 4487POPC   D2A58768   3.668  15.812   6.508
 4487POPC   C3A58769   3.616  15.725   6.993
 4487POPC   C4A58770   3.409  16.025   7.333
 4487POPC   C1B58771   3.371  16.158   6.119
 4487POPC   C2B58772   3.295  16.348   6.535
 4487POPC   C3B58773   3.566  16.209   6.872
 4487POPC   C4B58774   3.727  16.420   7.248
 4488POPC   NC358775  29.827  32.739   5.505
 4488POPC   PO458776  30.285  33.177   5.352
 4488POPC   GL158777  30.186  33.014   5.751
 4488POPC   GL258778  30.269  32.666   5.736
 4488POPC   C1A58779  29.868  32.941   6.128
 4488POPC   D2A58780  29.665  32.830   6.533
 4488POPC   C3A58781  29.790  33.025   6.901
 4488POPC   C4A58782  29.689  33.252   7.274
 4488POPC   C1B58783  30.367  32.823   6.168
 4488POPC   C2B58784  30.181  32.756   6.556
 4488POPC   C3B58785  30.312  32.835   6.977
 4488POPC   C4B58786  30.162  33.122   7.302
 4489POPC   NC358787   7.867   5.667   5.371
 4489POPC   PO458788   8.268   6.144   5.238
 4489POPC   GL158789   8.252   5.840   5.667
 4489POPC   GL258790   8.549   5.848   5.867
 4489POPC   C1A58791   8.098   5.861   6.140
 4489POPC   D2A58792   7.838   5.991   6.515
 4489POPC   C3A58793   8.011   5.917   6.943
 4489POPC   C4A58794   8.333   5.810   7.271
 4489POPC   C1B58795   8.559   5.969   6.309
 4489POPC   C2B58796   8.482   5.880   6.727
 4489POPC   C3B58797   8.589   6.188   7.055
 4489POPC   C4B58798   8.472   6.240   7.500
 4490POPC   NC358799  10.934   3.843   5.503
 4490POPC   PO458800  11.266   3.337   5.546
 4490POPC   GL158801  11.279   3.669   5.869
 4490POPC   GL258802  11.542   3.860   6.046
 4490POPC   C1A58803  11.109   3.724   6.284
 4490POPC   D2A58804  10.977   3.529   6.659
 4490POPC   C3A58805  11.172   3.590   7.052
 4490POPC   C4A58806  11.333   3.422   7.457
 4490POPC   C1B58807  11.538   3.451   6.277
 4490POPC   C2B58808  11.489   3.357   6.713
 4490POPC   C3B58809  11.682   3.576   7.077
 4490POPC   C4B58810  11.789   3.662   7.528
 4491POPC   NC358811  43.756  39.313   5.000
 4491POPC   PO458812  44.154  39.449   5.644
 4491POPC   GL158813  43.944  39.126   5.868
 4491POPC   GL258814  44.221  39.084   6.005
 4491POPC   C1A58815  43.803  38.988   6.325
 4491POPC   D2A58816  43.534  39.188   6.678
 4491POPC   C3A58817  43.702  39.191   7.098
 4491POPC   C4A58818  44.117  39.140   7.212
 4491POPC   C1B58819  44.095  39.416   6.290
 4491POPC   C2B58820  44.026  39.374   6.697
 4491POPC   C3B58821  44.121  39.635   6.972
 4491POPC   C4B58822  43.893  39.629   7.292
 4492POPC   NC358823   6.299  10.604   5.518
 4492POPC   PO458824   5.729  10.227   5.340
 4492POPC   GL158825   5.673  10.163   5.795
 4492POPC   GL258826   5.968  10.346   5.895
 4492POPC   C1A58827   5.559  10.335   6.232
 4492POPC   D2A58828   5.603  10.693   6.526
 4492POPC   C3A58829   5.850  10.536   6.870
 4492POPC   C4A58830   5.761  10.271   7.227
 4492POPC   C1B58831   6.117  10.569   6.288
 4492POPC   C2B58832   6.261  10.952   6.510
 4492POPC   C3B58833   6.241  10.910   6.938
 4492POPC   C4B58834   5.871  10.919   7.206
 4493POPC   NC358835  41.858  22.518   5.479
 4493POPC   PO458836  41.569  21.851   5.265
 4493POPC   GL158837  41.561  21.994   5.710
 4493POPC   GL258838  41.912  22.066   5.756
 4493POPC   C1A58839  41.477  22.137   6.153
 4493POPC   D2A58840  41.316  22.373   6.507
 4493POPC   C3A58841  41.370  22.187   6.911
 4493POPC   C4A58842  41.203  22.278   7.333
 4493POPC   C1B58843  41.905  21.871   6.158
 4493POPC   C2B58844  41.986  21.997   6.582
 4493POPC   C3B58845  41.852  22.033   7.021
 4493POPC   C4B58846  41.705  22.378   7.289
 4494POPC   NC358847  35.116  38.976   5.421
 4494POPC   PO458848  35.689  39.368   5.311
 4494POPC   GL158849  35.409  39.346   5.698
 4494POPC   GL258850  35.049  39.379   5.770
 4494POPC   C1A58851  35.368  39.378   6.160
 4494POPC   D2A58852  35.505  39.126   6.503
 4494POPC   C3A58853  35.558  39.299   6.908
 4494POPC   C4A58854  35.708  39.004   7.188
 4494POPC   C1B58855  34.850  39.460   6.166
 4494POPC   C2B58856  35.002  39.361   6.574
 4494POPC   C3B58857  34.893  39.276   6.983
 4494POPC   C4B58858  35.181  39.474   7.214
 4495POPC   NC358859  19.813  44.197   5.381
 4495POPC   PO458860  19.632  43.556   5.426
 4495POPC   GL158861  19.747  43.592   5.834
 4495POPC   GL258862  19.908  43.897   5.801
 4495POPC   C1A58863  19.711  43.708   6.266
 4495POPC   D2A58864  19.518  43.780   6.655
 4495POPC   C3A58865  19.659  44.037   7.022
 4495POPC   C4A58866  19.630  44.022   7.478
 4495POPC   C1B58867  20.148  43.956   6.190
 4495POPC   C2B58868  20.046  43.956   6.605
 4495POPC   C3B58869  20.162  44.131   6.957
 4495POPC   C4B58870  20.199  43.958   7.321
 4496POPC   NC358871  30.071  28.320   5.348
 4496POPC   PO458872  30.686  28.480   5.458
 4496POPC   GL158873  30.382  28.324   5.825
 4496POPC   GL258874  30.060  28.084   5.842
 4496POPC   C1A58875  30.064  28.506   6.154
 4496POPC   D2A58876  29.683  28.637   6.417
 4496POPC   C3A58877  29.761  28.513   6.854
 4496POPC   C4A58878  30.142  28.451   7.077
 4496POPC   C1B58879  29.867  27.988   6.295
 4496POPC   C2B58880  29.883  28.000   6.789
 4496POPC   C3B58881  29.605  28.097   7.167
 4496POPC   C4B58882  29.711  27.994   7.636
 4497POPC   NC358883  24.793  36.651   5.675
 4497POPC   PO458884  24.271  37.028   5.328
 4497POPC   GL158885  24.278  37.180   5.769
 4497POPC   GL258886  24.143  36.907   5.916
 4497POPC   C1A58887  24.526  37.164   6.206
 4497POPC   D2A58888  24.690  36.901   6.612
 4497POPC   C3A58889  24.770  36.918   7.104
 4497POPC   C4A58890  24.435  36.887   7.464
 4497POPC   C1B58891  24.353  36.672   6.226
 4497POPC   C2B58892  24.220  36.619   6.616
 4497POPC   C3B58893  24.349  36.633   7.024
 4497POPC   C4B58894  24.153  36.463   7.386
 4498POPC   NC358895  27.021   0.610   5.402
 4498POPC   PO458896  26.437   0.521   5.129
 4498POPC   GL158897  26.544   0.504   5.633
 4498POPC   GL258898  26.454   0.765   5.859
 4498POPC   C1A58899  26.665   0.279   6.042
 4498POPC   D2A58900  26.965   0.189   6.413
 4498POPC   C3A58901  26.880   0.237   6.871
 4498POPC   C4A58902  26.939   0.522   7.222
 4498POPC   C1B58903  26.604   0.885   6.246
 4498POPC   C2B58904  26.743   0.689   6.615
 4498POPC   C3B58905  26.655   0.867   6.994
 4498POPC   C4B58906  26.435   0.692   7.328
 4499POPC   NC358907   7.640  35.326   5.592
 4499POPC   PO458908   7.168  34.899   5.450
 4499POPC   GL158909   7.198  35.240   5.858
 4499POPC   GL258910   7.280  35.630   5.941
 4499POPC   C1A58911   7.369  35.310   6.324
 4499POPC   D2A58912   7.231  35.500   6.744
 4499POPC   C3A58913   7.324  35.438   7.210
 4499POPC   C4A58914   7.373  35.561   7.665
 4499POPC   C1B58915   7.376  35.837   6.383
 4499POPC   C2B58916   7.642  35.803   6.807
 4499POPC   C3B58917   7.750  35.689   7.281
 4499POPC   C4B58918   7.858  35.713   7.774
 4500POPC   NC358919  19.186  21.792   5.529
 4500POPC   PO458920  18.867  21.289   5.307
 4500POPC   GL158921  18.926  21.194   5.748
 4500POPC   GL258922  19.173  21.422   5.917
 4500POPC   C1A58923  18.937  21.069   6.196
 4500POPC   D2A58924  19.133  21.370   6.493
 4500POPC   C3A58925  19.028  21.303   6.935
 4500POPC   C4A58926  18.832  21.097   7.302
 4500POPC   C1B58927  19.459  21.663   6.196
 4500POPC   C2B58928  19.438  21.822   6.621
 4500POPC   C3B58929  19.308  21.706   7.017
 4500POPC   C4B58930  18.920  21.725   7.265
 4501POPC   NC358931   3.002  34.505   5.408
 4501POPC   PO458932   2.334  34.462   5.395
 4501POPC   GL158933   2.588  34.653   5.721
 4501POPC   GL258934   2.761  34.964   5.686
 4501POPC   C1A58935   2.793  34.610   6.128
 4501POPC   D2A58936   2.658  34.360   6.503
 4501POPC   C3A58937   2.748  34.549   6.910
 4501POPC   C4A58938   2.691  34.329   7.279
 4501POPC   C1B58939   2.561  35.067   6.092
 4501POPC   C2B58940   2.552  34.869   6.503
 4501POPC   C3B58941   2.530  35.021   6.935
 4501POPC   C4B58942   2.597  34.823   7.355
 4502POPC   NC358943  30.226  35.224   5.287
 4502POPC   PO458944  30.792  35.618   5.411
 4502POPC   GL158945  30.720  35.416   5.805
 4502POPC   GL258946  30.524  35.111   5.740
 4502POPC   C1A58947  30.884  35.483   6.248
 4502POPC   D2A58948  30.850  35.625   6.704
 4502POPC   C3A58949  30.546  35.434   7.027
 4502POPC   C4A58950  30.191  35.164   7.178
 4502POPC   C1B58951  30.673  35.018   6.154
 4502POPC   C2B58952  30.639  35.148   6.581
 4502POPC   C3B58953  30.637  34.919   6.977
 4502POPC   C4B58954  30.901  35.093   7.281
 4503POPC   NC358955  28.730  43.883   5.327
 4503POPC   PO458956  29.332  43.571   5.289
 4503POPC   GL158957  29.162  43.626   5.761
 4503POPC   GL258958  28.809  43.681   5.794
 4503POPC   C1A58959  29.139  43.916   6.162
 4503POPC   D2A58960  28.937  44.101   6.569
 4503POPC   C3A58961  29.204  44.150   6.951
 4503POPC   C4A58962  29.421  43.852   7.217
 4503POPC   C1B58963  28.841  43.514   6.208
 4503POPC   C2B58964  29.163  43.503   6.520
 4503POPC   C3B58965  29.109  43.564   6.941
 4503POPC   C4B58966  28.886  43.839   7.212
 4504POPC   NC358967  44.578  20.365   5.219
 4504POPC   PO458968  44.829  20.918   5.409
 4504POPC   GL158969  44.800  20.699   5.770
 4504POPC   GL258970  44.811  20.323   5.699
 4504POPC   C1A58971  44.866  20.838   6.194
 4504POPC   D2A58972  44.857  21.046   6.570
 4504POPC   C3A58973  44.954  20.825   6.920
 4504POPC   C4A58974  44.744  20.693   7.261
 4504POPC   C1B58975  44.671  20.362   6.135
 4504POPC   C2B58976  44.817  20.467   6.560
 4504POPC   C3B58977  44.937  20.309   6.973
 4504POPC   C4B58978  44.645  20.202   7.320
 4505POPC   NC358979  23.947  35.784   5.309
 4505POPC   PO458980  23.782  35.165   5.384
 4505POPC   GL158981  23.885  35.490   5.739
 4505POPC   GL258982  23.615  35.775   5.705
 4505POPC   C1A58983  23.919  35.433   6.219
 4505POPC   D2A58984  23.870  35.190   6.627
 4505POPC   C3A58985  23.719  35.391   7.012
 4505POPC   C4A58986  23.798  35.376   7.486
 4505POPC   C1B58987  23.488  35.758   6.130
 4505POPC   C2B58988  23.544  35.602   6.544
 4505POPC   C3B58989  23.316  35.687   6.908
 4505POPC   C4B58990  23.444  35.684   7.324
 4506POPC   NC358991  43.629  30.052   5.495
 4506POPC   PO458992  44.152  29.630   5.292
 4506POPC   GL158993  44.149  29.776   5.766
 4506POPC   GL258994  44.034  30.122   5.827
 4506POPC   C1A58995  44.019  29.827   6.238
 4506POPC   D2A58996  43.775  29.887   6.633
 4506POPC   C3A58997  44.014  29.930   7.016
 4506POPC   C4A58998  44.026  29.743   7.421
 4506POPC   C1B58999  43.654  30.190   6.163
 4506POPC   C2B59000  43.565  30.362   6.616
 4506POPC   C3B59001  43.557  30.179   7.076
 4506POPC   C4B59002  43.508  29.717   7.237
 4507POPC   NC359003  27.708  25.926   5.552
 4507POPC   PO459004  27.241  26.435   5.404
 4507POPC   GL159005  27.512  26.313   5.797
 4507POPC   GL259006  27.511  25.975   5.999
 4507POPC   C1A59007  27.776  26.386   6.179
 4507POPC   D2A59008  27.785  26.504   6.627
 4507POPC   C3A59009  27.639  26.199   6.947
 4507POPC   C4A59010  27.775  26.204   7.408
 4507POPC   C1B59011  27.557  26.008   6.430
 4507POPC   C2B59012  27.348  25.831   6.730
 4507POPC   C3B59013  27.204  25.696   7.092
 4507POPC   C4B59014  27.580  25.734   7.372
 4508POPC   NC359015  39.492  29.260   5.338
 4508POPC   PO459016  38.753  29.171   5.450
 4508POPC   GL159017  39.145  29.212   5.714
 4508POPC   GL259018  39.401  28.891   5.694
 4508POPC   C1A59019  39.260  29.324   6.158
 4508POPC   D2A59020  39.438  29.097   6.522
 4508POPC   C3A59021  39.439  29.368   6.893
 4508POPC   C4A59022  39.351  29.361   7.344
 4508POPC   C1B59023  39.094  28.834   6.035
 4508POPC   C2B59024  38.975  28.884   6.458
 4508POPC   C3B59025  39.057  29.002   6.883
 4508POPC   C4B59026  39.404  28.893   7.168
 4509POPC   NC359027   5.960   4.597   5.683
 4509POPC   PO459028   6.152   5.321   5.497
 4509POPC   GL159029   5.937   5.221   5.902
 4509POPC   GL259030   6.180   5.023   6.103
 4509POPC   C1A59031   5.662   4.952   6.215
 4509POPC   D2A59032   5.595   4.686   6.628
 4509POPC   C3A59033   5.673   4.928   7.030
 4509POPC   C4A59034   5.748   5.327   7.283
 4509POPC   C1B59035   6.507   4.827   6.398
 4509POPC   C2B59036   6.546   4.689   6.776
 4509POPC   C3B59037   6.172   4.770   6.962
 4509POPC   C4B59038   6.100   4.962   7.324
 4510POPC   NC359039  19.099  44.481   5.430
 4510POPC   PO459040  18.653   0.034   5.621
 4510POPC   GL159041  18.941  44.719   5.852
 4510POPC   GL259042  18.944  44.301   5.888
 4510POPC   C1A59043  19.160  44.841   6.230
 4510POPC   D2A59044  18.951  44.868   6.640
 4510POPC   C3A59045  19.076  44.720   7.058
 4510POPC   C4A59046  19.380  44.429   7.258
 4510POPC   C1B59047  18.814  44.457   6.292
 4510POPC   C2B59048  18.694  44.427   6.716
 4510POPC   C3B59049  18.809  44.278   7.095
 4510POPC   C4B59050  18.912  44.414   7.493
 4511POPC   NC359051   1.392  11.464   5.348
 4511POPC   PO459052   0.877  11.763   5.543
 4511POPC   GL159053   1.136  11.458   5.788
 4511POPC   GL259054   1.501  11.494   5.861
 4511POPC   C1A59055   1.165  11.256   6.183
 4511POPC   D2A59056   1.349  11.308   6.580
 4511POPC   C3A59057   1.210  11.126   6.966
 4511POPC   C4A59058   1.271  11.225   7.403
 4511POPC   C1B59059   1.663  11.110   6.178
 4511POPC   C2B59060   1.723  10.965   6.649
 4511POPC   C3B59061   1.663  10.933   7.119
 4511POPC   C4B59062   1.516  10.814   7.575
 4512POPC   NC359063  24.854  30.953   5.388
 4512POPC   PO459064  24.522  30.497   5.093
 4512POPC   GL159065  24.570  30.566   5.583
 4512POPC   GL259066  24.261  30.746   5.685
 4512POPC   C1A59067  24.721  30.754   6.008
 4512POPC   D2A59068  24.786  30.692   6.465
 4512POPC   C3A59069  24.834  30.796   6.905
 4512POPC   C4A59070  24.760  30.680   7.326
 4512POPC   C1B59071  24.225  30.603   6.115
 4512POPC   C2B59072  24.272  30.695   6.553
 4512POPC   C3B59073  24.338  30.569   6.980
 4512POPC   C4B59074  24.273  30.800   7.346
 4513POPC   NC359075  39.612  28.411   5.317
 4513POPC   PO459076  40.285  28.074   5.324
 4513POPC   GL159077  40.092  28.328   5.726
 4513POPC   GL259078  39.805  28.508   5.767
 4513POPC   C1A59079  40.085  28.285   6.183
 4513POPC   D2A59080  40.130  28.023   6.543
 4513POPC   C3A59081  40.072  28.186   6.943
 4513POPC   C4A59082  40.209  28.354   7.323
 4513POPC   C1B59083  39.666  28.755   6.121
 4513POPC   C2B59084  39.833  28.624   6.516
 4513POPC   C3B59085  39.707  28.552   6.937
 4513POPC   C4B59086  39.742  28.552   7.393
 4514POPC   NC359087  12.496  40.057   5.449
 4514POPC   PO459088  13.137  40.102   5.537
 4514POPC   GL159089  12.813  40.178   5.888
 4514POPC   GL259090  12.457  40.335   5.882
 4514POPC   C1A59091  12.799  40.220   6.355
 4514POPC   D2A59092  12.634  40.192   6.801
 4514POPC   C3A59093  12.915  40.308   7.171
 4514POPC   C4A59094  13.099  40.104   7.562
 4514POPC   C1B59095  12.376  39.988   6.163
 4514POPC   C2B59096  12.556  39.756   6.506
 4514POPC   C3B59097  12.464  39.729   6.951
 4514POPC   C4B59098  12.744  39.837   7.284
 4515POPC   NC359099  11.335  20.171   5.546
 4515POPC   PO459100  11.259  20.801   5.509
 4515POPC   GL159101  11.212  20.568   5.865
 4515POPC   GL259102  11.555  20.476   5.902
 4515POPC   C1A59103  11.216  20.741   6.241
 4515POPC   D2A59104  10.994  20.877   6.534
 4515POPC   C3A59105  11.146  20.806   6.947
 4515POPC   C4A59106  11.292  20.691   7.350
 4515POPC   C1B59107  11.508  20.349   6.320
 4515POPC   C2B59108  11.562  20.537   6.721
 4515POPC   C3B59109  11.661  20.410   7.140
 4515POPC   C4B59110  11.782  20.654   7.518
 4516POPC   NC359111  25.045   5.393   5.296
 4516POPC   PO459112  25.280   6.023   5.479
 4516POPC   GL159113  25.229   5.699   5.800
 4516POPC   GL259114  25.491   5.439   5.805
 4516POPC   C1A59115  25.102   5.782   6.228
 4516POPC   D2A59116  25.234   5.661   6.617
 4516POPC   C3A59117  25.227   6.034   6.885
 4516POPC   C4A59118  25.147   6.170   7.315
 4516POPC   C1B59119  25.592   5.623   6.223
 4516POPC   C2B59120  25.668   5.931   6.594
 4516POPC   C3B59121  25.722   5.977   7.062
 4516POPC   C4B59122  25.593   6.062   7.513
 4517POPC   NC359123  33.592  22.166   5.320
 4517POPC   PO459124  34.234  22.035   5.445
 4517POPC   GL159125  33.919  22.261   5.763
 4517POPC   GL259126  33.542  22.279   5.815
 4517POPC   C1A59127  33.886  22.400   6.219
 4517POPC   D2A59128  34.122  22.132   6.498
 4517POPC   C3A59129  34.096  22.091   6.944
 4517POPC   C4A59130  33.788  22.240   7.224
 4517POPC   C1B59131  33.510  22.052   6.223
 4517POPC   C2B59132  33.632  22.147   6.663
 4517POPC   C3B59133  33.537  21.867   6.995
 4517POPC   C4B59134  33.526  21.879   7.470
 4518POPC   NC359135  42.952  36.657   5.379
 4518POPC   PO459136  43.371  37.144   5.349
 4518POPC   GL159137  43.415  36.966   5.765
 4518POPC   GL259138  43.423  36.597   5.696
 4518POPC   C1A59139  43.187  37.025   6.171
 4518POPC   D2A59140  43.070  36.783   6.544
 4518POPC   C3A59141  43.044  37.007   6.932
 4518POPC   C4A59142  43.098  37.180   7.351
 4518POPC   C1B59143  43.549  36.641   6.141
 4518POPC   C2B59144  43.560  36.531   6.568
 4518POPC   C3B59145  43.721  36.558   6.992
 4518POPC   C4B59146  43.455  36.854   7.176
 4519POPC   NC359147  21.029  36.018   5.598
 4519POPC   PO459148  21.679  35.924   5.520
 4519POPC   GL159149  21.488  36.154   5.864
 4519POPC   GL259150  21.146  36.293   6.000
 4519POPC   C1A59151  21.568  36.329   6.260
 4519POPC   D2A59152  21.351  36.387   6.642
 4519POPC   C3A59153  21.536  36.290   7.030
 4519POPC   C4A59154  21.711  36.003   7.294
 4519POPC   C1B59155  21.156  35.955   6.265
 4519POPC   C2B59156  21.029  35.717   6.603
 4519POPC   C3B59157  20.940  35.827   7.013
 4519POPC   C4B59158  21.174  35.866   7.387
 4520POPC   NC359159  33.887  34.923   5.527
 4520POPC   PO459160  34.000  35.623   5.426
 4520POPC   GL159161  33.848  35.397   5.775
 4520POPC   GL259162  33.524  35.490   5.736
 4520POPC   C1A59163  33.952  35.291   6.210
 4520POPC   D2A59164  33.719  35.218   6.593
 4520POPC   C3A59165  33.931  35.249   6.984
 4520POPC   C4A59166  33.773  35.299   7.405
 4520POPC   C1B59167  33.539  35.612   6.171
 4520POPC   C2B59168  33.346  35.557   6.577
 4520POPC   C3B59169  33.562  35.658   6.960
 4520POPC   C4B59170  33.663  35.779   7.367
 4521POPC   NC359171  30.589  32.808   5.352
 4521POPC   PO459172  31.021  33.242   5.542
 4521POPC   GL159173  30.713  33.047   5.797
 4521POPC   GL259174  30.757  32.663   5.827
 4521POPC   C1A59175  30.628  33.250   6.187
 4521POPC   D2A59176  30.600  33.071   6.592
 4521POPC   C3A59177  30.682  33.298   6.955
 4521POPC   C4A59178  30.649  33.048   7.305
 4521POPC   C1B59179  30.907  32.815   6.217
 4521POPC   C2B59180  31.099  32.822   6.613
 4521POPC   C3B59181  30.900  32.762   6.989
 4521POPC   C4B59182  30.787  32.512   7.356
 4522POPC   NC359183   4.561  14.572   5.330
 4522POPC   PO459184   4.172  14.916   5.653
 4522POPC   GL159185   4.385  14.527   5.828
 4522POPC   GL259186   4.288  14.188   5.666
 4522POPC   C1A59187   4.488  14.502   6.274
 4522POPC   D2A59188   4.298  14.753   6.615
 4522POPC   C3A59189   4.482  14.735   7.022
 4522POPC   C4A59190   4.699  14.682   7.410
 4522POPC   C1B59191   4.195  14.092   6.128
 4522POPC   C2B59192   4.177  14.217   6.590
 4522POPC   C3B59193   4.388  14.195   6.980
 4522POPC   C4B59194   4.295  14.390   7.363
 4523POPC   NC359195   0.813  40.978   5.560
 4523POPC   PO459196   0.265  40.753   5.257
 4523POPC   GL159197   0.376  40.869   5.748
 4523POPC   GL259198   0.619  40.551   5.785
 4523POPC   C1A59199   0.453  40.797   6.273
 4523POPC   D2A59200   0.248  40.683   6.715
 4523POPC   C3A59201   0.367  40.958   7.076
 4523POPC   C4A59202   0.751  41.021   7.368
 4523POPC   C1B59203   0.794  40.399   6.202
 4523POPC   C2B59204   0.774  40.531   6.657
 4523POPC   C3B59205   0.601  40.482   7.068
 4523POPC   C4B59206   0.213  40.391   7.274
 4524POPC   NC359207  12.207   5.354   5.407
 4524POPC   PO459208  11.590   5.133   5.437
 4524POPC   GL159209  11.806   5.186   5.849
 4524POPC   GL259210  12.199   5.217   5.897
 4524POPC   C1A59211  11.880   5.316   6.290
 4524POPC   D2A59212  12.282   5.302   6.503
 4524POPC   C3A59213  12.172   5.151   6.901
 4524POPC   C4A59214  12.350   5.223   7.279
 4524POPC   C1B59215  12.511   4.972   6.165
 4524POPC   C2B59216  12.617   4.861   6.607
 4524POPC   C3B59217  12.515   4.775   7.039
 4524POPC   C4B59218  12.568   4.804   7.496
 4525POPC   NC359219  16.282  30.126   5.455
 4525POPC   PO459220  16.985  30.156   5.442
 4525POPC   GL159221  16.819  30.017   5.863
 4525POPC   GL259222  16.511  30.156   5.970
 4525POPC   C1A59223  16.995  30.085   6.292
 4525POPC   D2A59224  17.242  29.927   6.670
 4525POPC   C3A59225  17.080  30.032   7.092
 4525POPC   C4A59226  17.130  29.809   7.499
 4525POPC   C1B59227  16.559  29.825   6.300
 4525POPC   C2B59228  16.715  29.866   6.718
 4525POPC   C3B59229  16.567  29.979   7.132
 4525POPC   C4B59230  16.726  30.096   7.532
 4526POPC   NC359231  31.694  22.699   5.445
 4526POPC   PO459232  31.167  23.129   5.515
 4526POPC   GL159233  31.546  23.107   5.786
 4526POPC   GL259234  31.665  22.785   5.926
 4526POPC   C1A59235  31.641  23.204   6.214
 4526POPC   D2A59236  31.305  23.175   6.552
 4526POPC   C3A59237  31.383  22.973   6.928
 4526POPC   C4A59238  31.700  23.044   7.231
 4526POPC   C1B59239  31.356  22.771   6.233
 4526POPC   C2B59240  31.432  22.568   6.594
 4526POPC   C3B59241  31.379  22.395   6.972
 4526POPC   C4B59242  31.356  22.637   7.322
 4527POPC   NC359243   7.635  15.449   5.501
 4527POPC   PO459244   7.088  15.036   5.595
 4527POPC   GL159245   7.346  15.148   5.889
 4527POPC   GL259246   7.621  14.981   5.805
 4527POPC   C1A59247   7.282  15.099   6.313
 4527POPC   D2A59248   7.197  15.390   6.642
 4527POPC   C3A59249   7.322  15.172   7.003
 4527POPC   C4A59250   7.482  15.285   7.390
 4527POPC   C1B59251   7.775  15.148   6.229
 4527POPC   C2B59252   7.701  15.272   6.633
 4527POPC   C3B59253   7.831  15.193   7.033
 4527POPC   C4B59254   7.664  14.837   7.269
 4528POPC   NC359255   5.062  42.223   5.388
 4528POPC   PO459256   5.128  42.804   5.378
 4528POPC   GL159257   5.027  42.553   5.799
 4528POPC   GL259258   5.122  42.153   5.875
 4528POPC   C1A59259   5.050  42.470   6.257
 4528POPC   D2A59260   5.336  42.207   6.487
 4528POPC   C3A59261   5.436  42.288   6.933
 4528POPC   C4A59262   5.180  42.396   7.262
 4528POPC   C1B59263   4.922  41.940   6.210
 4528POPC   C2B59264   4.844  42.136   6.601
 4528POPC   C3B59265   4.963  42.056   6.946
 4528POPC   C4B59266   4.782  42.089   7.344
 4529POPC   NC359267  33.074  33.350   5.265
 4529POPC   PO459268  33.251  32.725   5.154
 4529POPC   GL159269  33.035  32.937   5.599
 4529POPC   GL259270  32.690  32.827   5.687
 4529POPC   C1A59271  33.146  32.930   6.125
 4529POPC   D2A59272  33.281  32.986   6.633
 4529POPC   C3A59273  33.274  33.209   7.105
 4529POPC   C4A59274  33.161  33.092   7.566
 4529POPC   C1B59275  32.660  33.058   6.102
 4529POPC   C2B59276  32.779  32.949   6.535
 4529POPC   C3B59277  32.620  32.885   6.956
 4529POPC   C4B59278  32.725  32.905   7.408
 4530POPC   NC359279   7.597  20.734   5.460
 4530POPC   PO459280   7.018  21.073   5.409
 4530POPC   GL159281   7.192  20.721   5.756
 4530POPC   GL259282   7.169  20.368   5.833
 4530POPC   C1A59283   7.439  20.725   6.182
 4530POPC   D2A59284   7.525  20.853   6.648
 4530POPC   C3A59285   7.270  20.786   7.041
 4530POPC   C4A59286   7.353  20.973   7.445
 4530POPC   C1B59287   7.322  20.226   6.247
 4530POPC   C2B59288   7.409  20.345   6.692
 4530POPC   C3B59289   7.604  20.428   7.103
 4530POPC   C4B59290   7.572  20.523   7.523
 4531POPC   NC359291  35.499  37.304   5.327
 4531POPC   PO459292  35.043  37.716   5.414
 4531POPC   GL159293  35.292  37.648   5.810
 4531POPC   GL259294  35.619  37.424   5.815
 4531POPC   C1A59295  35.378  37.837   6.239
 4531POPC   D2A59296  35.622  38.056   6.586
 4531POPC   C3A59297  35.465  37.911   6.983
 4531POPC   C4A59298  35.288  37.874   7.379
 4531POPC   C1B59299  35.411  37.309   6.193
 4531POPC   C2B59300  35.219  37.459   6.568
 4531POPC   C3B59301  35.394  37.406   6.957
 4531POPC   C4B59302  35.269  37.382   7.357
 4532POPC   NC359303  40.356  36.538   5.171
 4532POPC   PO459304  40.813  36.944   5.490
 4532POPC   GL159305  40.877  36.900   5.871
 4532POPC   GL259306  40.980  36.581   5.873
 4532POPC   C1A59307  41.055  37.091   6.206
 4532POPC   D2A59308  40.834  37.147   6.593
 4532POPC   C3A59309  40.818  36.799   6.864
 4532POPC   C4A59310  40.792  36.841   7.285
 4532POPC   C1B59311  40.826  36.600   6.329
 4532POPC   C2B59312  40.708  36.333   6.697
 4532POPC   C3B59313  40.471  36.475   7.085
 4532POPC   C4B59314  40.606  36.415   7.529
 4533POPC   NC359315  37.833   2.745   5.658
 4533POPC   PO459316  37.207   2.589   5.475
 4533POPC   GL159317  37.415   2.495   5.884
 4533POPC   GL259318  37.713   2.308   5.885
 4533POPC   C1A59319  37.557   2.640   6.326
 4533POPC   D2A59320  37.640   3.023   6.594
 4533POPC   C3A59321  37.832   2.946   7.003
 4533POPC   C4A59322  37.615   2.887   7.409
 4533POPC   C1B59323  37.891   2.251   6.311
 4533POPC   C2B59324  37.879   2.493   6.706
 4533POPC   C3B59325  37.764   2.424   7.129
 4533POPC   C4B59326  38.010   2.140   7.378
 4534POPC   NC359327  24.046   0.261   5.476
 4534POPC   PO459328  23.321   0.281   5.474
 4534POPC   GL159329  23.610   0.517   5.703
 4534POPC   GL259330  23.773   0.271   5.902
 4534POPC   C1A59331  23.656   0.730   6.107
 4534POPC   D2A59332  23.936   0.705   6.447
 4534POPC   C3A59333  23.840   0.793   6.850
 4534POPC   C4A59334  23.646   0.583   7.166
 4534POPC   C1B59335  23.629   0.239   6.309
 4534POPC   C2B59336  23.636   0.324   6.729
 4534POPC   C3B59337  23.768   0.107   7.076
 4534POPC   C4B59338  23.966   0.295   7.487
 4535POPC   NC359339  36.150  22.010   5.440
 4535POPC   PO459340  36.217  22.712   5.407
 4535POPC   GL159341  36.169  22.414   5.754
 4535POPC   GL259342  35.815  22.318   5.706
 4535POPC   C1A59343  36.183  22.065   6.090
 4535POPC   D2A59344  36.349  21.901   6.488
 4535POPC   C3A59345  36.130  21.890   6.897
 4535POPC   C4A59346  36.275  22.031   7.307
 4535POPC   C1B59347  35.853  22.463   6.155
 4535POPC   C2B59348  36.047  22.323   6.526
 4535POPC   C3B59349  36.154  22.425   6.923
 4535POPC   C4B59350  35.903  22.510   7.283
 4536POPC   NC359351  14.775  28.565   5.319
 4536POPC   PO459352  14.288  28.122   5.412
 4536POPC   GL159353  14.516  28.129   5.810
 4536POPC   GL259354  14.680  28.445   5.828
 4536POPC   C1A59355  14.427  28.237   6.245
 4536POPC   D2A59356  14.262  28.187   6.631
 4536POPC   C3A59357  14.452  28.259   7.010
 4536POPC   C4A59358  14.611  27.914   7.223
 4536POPC   C1B59359  14.809  28.606   6.232
 4536POPC   C2B59360  14.871  28.606   6.665
 4536POPC   C3B59361  14.876  28.772   7.065
 4536POPC   C4B59362  14.594  28.645   7.370
 4537POPC   NC359363  14.415  42.892   5.403
 4537POPC   PO459364  14.508  42.226   5.360
 4537POPC   GL159365  14.347  42.485   5.740
 4537POPC   GL259366  14.552  42.752   5.919
 4537POPC   C1A59367  14.324  42.374   6.188
 4537POPC   D2A59368  14.499  42.477   6.589
 4537POPC   C3A59369  14.404  42.225   6.970
 4537POPC   C4A59370  14.572  41.940   7.298
 4537POPC   C1B59371  14.831  42.389   6.089
 4537POPC   C2B59372  15.013  42.321   6.524
 4537POPC   C3B59373  14.892  42.564   6.899
 4537POPC   C4B59374  14.699  42.461   7.300
 4538POPC   NC359375   2.584   5.564   5.449
 4538POPC   PO459376   2.583   6.204   5.363
 4538POPC   GL159377   2.600   5.954   5.784
 4538POPC   GL259378   2.942   5.762   5.778
 4538POPC   C1A59379   2.644   5.677   6.181
 4538POPC   D2A59380   2.514   5.453   6.562
 4538POPC   C3A59381   2.653   5.714   6.921
 4538POPC   C4A59382   2.626   5.903   7.348
 4538POPC   C1B59383   3.108   5.946   6.178
 4538POPC   C2B59384   2.951   6.010   6.600
 4538POPC   C3B59385   3.099   5.997   7.025
 4538POPC   C4B59386   3.394   6.025   7.385
 4539POPC   NC359387   3.694  40.445   5.315
 4539POPC   PO459388   3.437  39.838   5.232
 4539POPC   GL159389   3.462  39.919   5.727
 4539POPC   GL259390   3.701  40.168   5.771
 4539POPC   C1A59391   3.355  39.740   6.191
 4539POPC   D2A59392   3.247  39.932   6.596
 4539POPC   C3A59393   3.397  39.879   7.014
 4539POPC   C4A59394   3.798  39.727   7.182
 4539POPC   C1B59395   3.420  40.244   6.142
 4539POPC   C2B59396   3.376  40.438   6.549
 4539POPC   C3B59397   3.371  40.410   6.976
 4539POPC   C4B59398   3.651  40.264   7.284
 4540POPC   NC359399   7.262  38.230   5.343
 4540POPC   PO459400   7.785  38.692   5.482
 4540POPC   GL159401   7.438  38.580   5.752
 4540POPC   GL259402   7.567  38.295   5.761
 4540POPC   C1A59403   7.267  38.469   6.183
 4540POPC   D2A59404   7.400  38.387   6.599
 4540POPC   C3A59405   7.176  38.483   6.984
 4540POPC   C4A59406   7.119  38.782   7.340
 4540POPC   C1B59407   7.740  38.255   6.169
 4540POPC   C2B59408   7.767  38.021   6.539
 4540POPC   C3B59409   7.681  38.158   6.951
 4540POPC   C4B59410   7.601  38.436   7.270
 4541POPC   NC359411   3.815  35.085   5.451
 4541POPC   PO459412   3.404  35.605   5.305
 4541POPC   GL159413   3.609  35.491   5.703
 4541POPC   GL259414   3.361  35.692   5.827
 4541POPC   C1A59415   3.660  35.177   6.066
 4541POPC   D2A59416   3.609  35.013   6.475
 4541POPC   C3A59417   3.526  35.123   6.887
 4541POPC   C4A59418   3.844  35.303   7.135
 4541POPC   C1B59419   3.345  35.512   6.249
 4541POPC   C2B59420   3.201  35.445   6.645
 4541POPC   C3B59421   3.281  35.562   7.056
 4541POPC   C4B59422   3.088  35.538   7.458
 4542POPC   NC359423  19.193  26.473   5.450
 4542POPC   PO459424  19.000  25.854   5.439
 4542POPC   GL159425  19.116  26.057   5.786
 4542POPC   GL259426  18.843  26.310   5.803
 4542POPC   C1A59427  19.281  25.881   6.184
 4542POPC   D2A59428  19.056  25.701   6.517
 4542POPC   C3A59429  19.093  25.826   6.929
 4542POPC   C4A59430  18.938  25.604   7.248
 4542POPC   C1B59431  18.843  26.122   6.208
 4542POPC   C2B59432  19.025  26.214   6.578
 4542POPC   C3B59433  18.888  26.316   6.962
 4542POPC   C4B59434  18.780  26.089   7.311
 4543POPC   NC359435  11.515  16.421   5.040
 4543POPC   PO459436  11.086  16.592   5.546
 4543POPC   GL159437  11.169  16.639   5.984
 4543POPC   GL259438  11.388  16.905   5.981
 4543POPC   C1A59439  11.000  16.790   6.376
 4543POPC   D2A59440  10.820  16.580   6.724
 4543POPC   C3A59441  11.117  16.515   7.045
 4543POPC   C4A59442  11.131  16.642   7.490
 4543POPC   C1B59443  11.573  16.816   6.375
 4543POPC   C2B59444  11.560  16.734   6.813
 4543POPC   C3B59445  11.413  16.910   7.183
 4543POPC   C4B59446  11.564  17.031   7.610
 4544POPC   NC359447  27.032  39.982   5.398
 4544POPC   PO459448  26.441  39.761   5.639
 4544POPC   GL159449  26.527  39.963   5.987
 4544POPC   GL259450  26.853  40.046   5.893
 4544POPC   C1A59451  26.513  40.029   6.408
 4544POPC   D2A59452  26.782  40.208   6.711
 4544POPC   C3A59453  26.850  39.888   6.953
 4544POPC   C4A59454  26.885  39.646   7.283
 4544POPC   C1B59455  26.871  40.369   6.222
 4544POPC   C2B59456  27.196  40.480   6.559
 4544POPC   C3B59457  27.085  40.505   7.014
 4544POPC   C4B59458  26.802  40.268   7.309
 4545POPC   NC359459  33.513  43.581   5.537
 4545POPC   PO459460  33.538  44.205   5.271
 4545POPC   GL159461  33.841  44.111   5.702
 4545POPC   GL259462  34.039  43.774   5.734
 4545POPC   C1A59463  33.987  44.074   6.185
 4545POPC   D2A59464  34.062  44.014   6.646
 4545POPC   C3A59465  33.908  44.183   7.015
 4545POPC   C4A59466  33.567  44.099   7.250
 4545POPC   C1B59467  33.884  43.552   6.107
 4545POPC   C2B59468  33.748  43.631   6.527
 4545POPC   C3B59469  33.764  43.682   6.971
 4545POPC   C4B59470  33.533  43.384   7.194
 4546POPC   NC359471  32.096  15.633   5.531
 4546POPC   PO459472  32.259  16.286   5.618
 4546POPC   GL159473  32.342  15.945   5.859
 4546POPC   GL259474  31.971  15.932   5.918
 4546POPC   C1A59475  32.456  15.937   6.285
 4546POPC   D2A59476  32.250  16.273   6.527
 4546POPC   C3A59477  32.438  16.238   6.899
 4546POPC   C4A59478  32.401  16.076   7.290
 4546POPC   C1B59479  31.964  15.889   6.341
 4546POPC   C2B59480  32.075  15.701   6.711
 4546POPC   C3B59481  32.012  15.724   7.157
 4546POPC   C4B59482  31.662  15.621   7.430
 4547POPC   NC359483   5.528  17.921   5.729
 4547POPC   PO459484   5.262  18.444   5.408
 4547POPC   GL159485   5.093  18.208   5.758
 4547POPC   GL259486   5.323  18.327   5.949
 4547POPC   C1A59487   4.890  18.131   6.163
 4547POPC   D2A59488   4.878  18.200   6.600
 4547POPC   C3A59489   4.831  17.868   6.897
 4547POPC   C4A59490   4.926  17.879   7.338
 4547POPC   C1B59491   5.314  18.385   6.343
 4547POPC   C2B59492   5.310  18.472   6.715
 4547POPC   C3B59493   5.201  18.207   7.034
 4547POPC   C4B59494   4.962  18.381   7.381
 4548POPC   NC359495  40.650  40.657   5.332
 4548POPC   PO459496  41.228  41.062   5.406
 4548POPC   GL159497  40.969  40.831   5.692
 4548POPC   GL259498  40.595  40.858   5.808
 4548POPC   C1A59499  40.975  40.671   6.100
 4548POPC   D2A59500  40.993  40.832   6.500
 4548POPC   C3A59501  40.742  40.597   6.774
 4548POPC   C4A59502  40.680  40.482   7.192
 4548POPC   C1B59503  40.592  41.030   6.256
 4548POPC   C2B59504  40.634  41.160   6.719
 4548POPC   C3B59505  40.723  41.007   7.166
 4548POPC   C4B59506  40.636  40.854   7.618
 4549POPC   NC359507  10.941  14.901   5.344
 4549POPC   PO459508  11.080  15.546   5.691
 4549POPC   GL159509  11.235  15.174   5.860
 4549POPC   GL259510  11.268  14.833   5.726
 4549POPC   C1A59511  11.207  15.169   6.292
 4549POPC   D2A59512  11.135  15.497   6.590
 4549POPC   C3A59513  11.296  15.286   6.917
 4549POPC   C4A59514  11.124  15.147   7.292
 4549POPC   C1B59515  11.536  14.817   6.096
 4549POPC   C2B59516  11.536  14.879   6.554
 4549POPC   C3B59517  11.369  14.782   6.970
 4549POPC   C4B59518  11.577  14.927   7.318
 4550POPC   NC359519  16.408   8.145   5.442
 4550POPC   PO459520  17.093   8.008   5.566
 4550POPC   GL159521  16.746   7.957   5.831
 4550POPC   GL259522  16.689   8.313   5.856
 4550POPC   C1A59523  16.686   7.872   6.270
 4550POPC   D2A59524  16.547   8.028   6.663
 4550POPC   C3A59525  16.833   7.912   6.994
 4550POPC   C4A59526  16.820   8.060   7.409
 4550POPC   C1B59527  16.527   8.369   6.255
 4550POPC   C2B59528  16.616   8.543   6.645
 4550POPC   C3B59529  16.639   8.384   7.043
 4550POPC   C4B59530  16.522   8.468   7.448
 4551POPC   NC359531  13.826  15.263   5.438
 4551POPC   PO459532  13.289  15.642   5.606
 4551POPC   GL159533  13.422  15.255   5.841
 4551POPC   GL259534  13.785  15.168   5.938
 4551POPC   C1A59535  13.265  15.175   6.286
 4551POPC   D2A59536  13.290  15.052   6.754
 4551POPC   C3A59537  13.327  15.274   7.155
 4551POPC   C4A59538  13.325  15.158   7.594
 4551POPC   C1B59539  13.673  14.882   6.287
 4551POPC   C2B59540  13.765  14.847   6.705
 4551POPC   C3B59541  13.745  14.974   7.137
 4551POPC   C4B59542  13.862  14.978   7.587
 4552POPC   NC359543  35.620  26.766   5.414
 4552POPC   PO459544  35.023  26.672   5.674
 4552POPC   GL159545  35.262  26.986   5.870
 4552POPC   GL259546  35.625  27.072   5.804
 4552POPC   C1A59547  35.267  26.914   6.313
 4552POPC   D2A59548  35.526  26.726   6.592
 4552POPC   C3A59549  35.305  26.630   6.965
 4552POPC   C4A59550  35.217  26.831   7.392
 4552POPC   C1B59551  35.775  27.063   6.211
 4552POPC   C2B59552  35.645  27.246   6.594
 4552POPC   C3B59553  35.550  27.073   6.972
 4552POPC   C4B59554  35.712  26.776   7.255
 4553POPC   NC359555   8.267  21.476   5.454
 4553POPC   PO459556   8.822  21.197   5.215
 4553POPC   GL159557   8.572  21.169   5.721
 4553POPC   GL259558   8.251  21.193   5.869
 4553POPC   C1A59559   8.548  20.941   6.180
 4553POPC   D2A59560   8.260  21.086   6.525
 4553POPC   C3A59561   8.403  21.071   6.990
 4553POPC   C4A59562   8.207  21.185   7.404
 4553POPC   C1B59563   8.029  21.443   6.152
 4553POPC   C2B59564   7.961  21.520   6.567
 4553POPC   C3B59565   8.001  21.391   6.958
 4553POPC   C4B59566   7.724  21.216   7.198
 4554POPC   NC359567   2.394  23.720   5.519
 4554POPC   PO459568   1.678  23.626   5.598
 4554POPC   GL159569   1.886  23.660   5.896
 4554POPC   GL259570   2.044  23.950   5.807
 4554POPC   C1A59571   1.929  23.453   6.259
 4554POPC   D2A59572   2.119  23.498   6.635
 4554POPC   C3A59573   1.838  23.509   6.983
 4554POPC   C4A59574   1.692  23.767   7.320
 4554POPC   C1B59575   2.031  23.962   6.272
 4554POPC   C2B59576   1.918  23.950   6.719
 4554POPC   C3B59577   2.114  23.973   7.109
 4554POPC   C4B59578   2.355  24.040   7.456
 4555POPC   NC359579  32.222  39.395   5.237
 4555POPC   PO459580  32.247  38.836   5.672
 4555POPC   GL159581  32.179  39.192   5.809
 4555POPC   GL259582  32.453  39.440   5.695
 4555POPC   C1A59583  32.182  39.109   6.266
 4555POPC   D2A59584  32.359  38.951   6.632
 4555POPC   C3A59585  32.122  39.110   6.949
 4555POPC   C4A59586  32.283  39.113   7.352
 4555POPC   C1B59587  32.624  39.308   6.098
 4555POPC   C2B59588  32.483  39.434   6.527
 4555POPC   C3B59589  32.558  39.399   6.976
 4555POPC   C4B59590  32.522  39.780   7.211
 4556POPC   NC359591  16.283   4.389   5.677
 4556POPC   PO459592  16.969   4.440   5.505
 4556POPC   GL159593  16.766   4.453   5.848
 4556POPC   GL259594  16.568   4.763   5.877
 4556POPC   C1A59595  16.778   4.210   6.194
 4556POPC   D2A59596  16.603   4.214   6.567
 4556POPC   C3A59597  16.762   4.108   6.904
 4556POPC   C4A59598  16.565   4.342   7.251
 4556POPC   C1B59599  16.935   4.834   6.128
 4556POPC   C2B59600  16.837   4.662   6.503
 4556POPC   C3B59601  16.784   4.689   6.924
 4556POPC   C4B59602  16.942   4.664   7.359
 4557POPC   NC359603  10.548  37.553   5.475
 4557POPC   PO459604  10.863  38.141   5.282
 4557POPC   GL159605  10.706  37.954   5.746
 4557POPC   GL259606  10.358  38.098   5.902
 4557POPC   C1A59607  10.631  37.759   6.193
 4557POPC   D2A59608  10.748  37.611   6.646
 4557POPC   C3A59609  10.631  37.867   7.023
 4557POPC   C4A59610  10.893  38.147   7.246
 4557POPC   C1B59611  10.139  37.898   6.257
 4557POPC   C2B59612  10.235  37.749   6.684
 4557POPC   C3B59613  10.380  37.425   6.983
 4557POPC   C4B59614  10.471  37.441   7.425
 4558POPC   NC359615  28.435   3.553   5.423
 4558POPC   PO459616  27.843   3.239   5.459
 4558POPC   GL159617  28.069   3.457   5.801
 4558POPC   GL259618  28.464   3.394   5.900
 4558POPC   C1A59619  28.137   3.608   6.211
 4558POPC   D2A59620  28.404   3.394   6.466
 4558POPC   C3A59621  28.359   3.446   6.899
 4558POPC   C4A59622  28.214   3.453   7.319
 4558POPC   C1B59623  28.618   3.752   6.130
 4558POPC   C2B59624  28.684   3.845   6.569
 4558POPC   C3B59625  28.762   3.762   6.998
 4558POPC   C4B59626  28.711   3.401   7.292
 4559POPC   NC359627  40.129   3.374   5.528
 4559POPC   PO459628  39.563   3.107   5.840
 4559POPC   GL159629  39.923   3.395   6.007
 4559POPC   GL259630  40.312   3.446   5.995
 4559POPC   C1A59631  39.987   3.724   6.335
 4559POPC   D2A59632  39.850   3.703   6.759
 4559POPC   C3A59633  40.120   3.448   7.047
 4559POPC   C4A59634  40.371   3.187   7.322
 4559POPC   C1B59635  40.494   3.778   6.282
 4559POPC   C2B59636  40.403   3.784   6.731
 4559POPC   C3B59637  40.173   3.960   7.084
 4559POPC   C4B59638  39.809   3.807   7.260
 4560POPC   NC359639  21.712  27.029   5.498
 4560POPC   PO459640  21.137  26.655   5.560
 4560POPC   GL159641  21.462  26.702   5.888
 4560POPC   GL259642  21.555  27.045   5.992
 4560POPC   C1A59643  21.448  26.712   6.372
 4560POPC   D2A59644  21.498  26.539   6.807
 4560POPC   C3A59645  21.262  26.673   7.169
 4560POPC   C4A59646  21.011  27.031   7.244
 4560POPC   C1B59647  21.888  26.969   6.318
 4560POPC   C2B59648  21.953  27.030   6.742
 4560POPC   C3B59649  21.639  26.981   7.024
 4560POPC   C4B59650  21.786  26.614   7.225
 4561POPC   NC359651   7.097   8.840   5.362
 4561POPC   PO459652   6.484   9.147   5.322
 4561POPC   GL159653   6.527   8.927   5.726
 4561POPC   GL259654   6.864   8.962   5.835
 4561POPC   C1A59655   6.357   8.932   6.154
 4561POPC   D2A59656   6.386   9.174   6.557
 4561POPC   C3A59657   6.364   8.921   6.925
 4561POPC   C4A59658   6.499   9.073   7.291
 4561POPC   C1B59659   6.829   9.039   6.321
 4561POPC   C2B59660   6.853   9.033   6.803
 4561POPC   C3B59661   6.949   8.826   7.218
 4561POPC   C4B59662   7.185   8.611   7.539
 4562POPC   NC359663   4.594  11.983   5.601
 4562POPC   PO459664   5.114  12.147   5.184
 4562POPC   GL159665   5.113  11.859   5.562
 4562POPC   GL259666   5.084  12.142   5.751
 4562POPC   C1A59667   5.148  11.776   6.071
 4562POPC   D2A59668   5.310  11.901   6.505
 4562POPC   C3A59669   5.089  11.833   6.915
 4562POPC   C4A59670   5.173  12.045   7.309
 4562POPC   C1B59671   5.322  12.312   6.091
 4562POPC   C2B59672   5.259  12.456   6.497
 4562POPC   C3B59673   5.235  12.337   6.908
 4562POPC   C4B59674   5.498  12.463   7.271
 4563POPC   NC359675  18.396  30.105   5.448
 4563POPC   PO459676  18.236  29.462   5.232
 4563POPC   GL159677  18.291  29.604   5.713
 4563POPC   GL259678  17.963  29.551   5.875
 4563POPC   C1A59679  18.367  29.890   6.145
 4563POPC   D2A59680  18.201  30.166   6.542
 4563POPC   C3A59681  18.319  30.094   7.005
 4563POPC   C4A59682  18.669  30.047   7.342
 4563POPC   C1B59683  18.193  29.414   6.240
 4563POPC   C2B59684  18.359  29.624   6.604
 4563POPC   C3B59685  18.215  29.592   7.013
 4563POPC   C4B59686  17.885  29.473   7.254
 4564POPC   NC359687  42.623   4.977   5.476
 4564POPC   PO459688  42.065   4.613   5.629
 4564POPC   GL159689  42.288   4.973   5.903
 4564POPC   GL259690  42.670   4.930   5.969
 4564POPC   C1A59691  42.280   5.248   6.325
 4564POPC   D2A59692  42.406   5.521   6.685
 4564POPC   C3A59693  42.387   5.273   7.038
 4564POPC   C4A59694  42.326   5.244   7.478
 4564POPC   C1B59695  42.539   4.807   6.329
 4564POPC   C2B59696  42.600   4.986   6.663
 4564POPC   C3B59697  42.754   4.862   7.004
 4564POPC   C4B59698  42.765   5.062   7.343
 4565POPC   NC359699   9.209  20.546   5.457
 4565POPC   PO459700   8.592  20.332   5.357
 4565POPC   GL159701   8.873  20.323   5.768
 4565POPC   GL259702   9.216  20.524   5.940
 4565POPC   C1A59703   8.933  20.242   6.206
 4565POPC   D2A59704   8.774  20.392   6.592
 4565POPC   C3A59705   8.999  20.401   6.974
 4565POPC   C4A59706   8.874  20.815   7.119
 4565POPC   C1B59707   9.081  20.728   6.319
 4565POPC   C2B59708   9.232  20.796   6.722
 4565POPC   C3B59709   9.320  21.057   7.057
 4565POPC   C4B59710   9.178  21.096   7.479
 4566POPC   NC359711  38.880  37.063   5.419
 4566POPC   PO459712  38.428  36.547   5.484
 4566POPC   GL159713  38.417  36.794   5.846
 4566POPC   GL259714  38.679  37.041   5.913
 4566POPC   C1A59715  38.239  36.879   6.247
 4566POPC   D2A59716  37.969  36.692   6.571
 4566POPC   C3A59717  38.201  36.616   6.984
 4566POPC   C4A59718  38.507  36.787   7.317
 4566POPC   C1B59719  38.757  36.669   6.214
 4566POPC   C2B59720  38.655  36.626   6.666
 4566POPC   C3B59721  38.664  37.022   6.892
 4566POPC   C4B59722  38.806  37.207   7.268
 4567POPC   NC359723   0.863  12.195   5.659
 4567POPC   PO459724   1.521  11.907   5.428
 4567POPC   GL159725   1.546  12.084   5.805
 4567POPC   GL259726   1.246  11.953   5.889
 4567POPC   C1A59727   1.381  12.417   6.078
 4567POPC   D2A59728   1.414  12.549   6.519
 4567POPC   C3A59729   1.484  12.268   6.853
 4567POPC   C4A59730   1.345  12.077   7.254
 4567POPC   C1B59731   1.265  11.769   6.294
 4567POPC   C2B59732   1.380  11.779   6.751
 4567POPC   C3B59733   1.134  11.636   7.116
 4567POPC   C4B59734   1.064  11.740   7.567
 4568POPC   NC359735  28.807  36.589   5.151
 4568POPC   PO459736  29.251  37.059   5.331
 4568POPC   GL159737  29.266  36.973   5.742
 4568POPC   GL259738  29.386  36.669   5.690
 4568POPC   C1A59739  29.023  36.876   6.121
 4568POPC   D2A59740  28.928  37.108   6.498
 4568POPC   C3A59741  28.959  36.964   6.916
 4568POPC   C4A59742  28.873  36.792   7.341
 4568POPC   C1B59743  29.518  36.714   6.109
 4568POPC   C2B59744  29.425  36.940   6.487
 4568POPC   C3B59745  29.555  36.814   6.874
 4568POPC   C4B59746  29.318  36.671   7.164
 4569POPC   NC359747  37.827  12.719   5.535
 4569POPC   PO459748  37.323  13.155   5.459
 4569POPC   GL159749  37.548  12.969   5.857
 4569POPC   GL259750  37.563  12.572   5.913
 4569POPC   C1A59751  37.893  12.859   6.176
 4569POPC   D2A59752  37.891  12.587   6.516
 4569POPC   C3A59753  37.645  12.807   6.807
 4569POPC   C4A59754  37.632  12.681   7.231
 4569POPC   C1B59755  37.427  12.675   6.283
 4569POPC   C2B59756  37.334  12.403   6.583
 4569POPC   C3B59757  37.236  12.526   6.976
 4569POPC   C4B59758  37.311  12.307   7.339
 4570POPC   NC359759  33.866  34.975   5.005
 4570POPC   PO459760  33.829  34.432   5.474
 4570POPC   GL159761  33.655  34.569   5.841
 4570POPC   GL259762  33.545  34.249   5.977
 4570POPC   C1A59763  33.675  34.819   6.227
 4570POPC   D2A59764  33.471  34.769   6.612
 4570POPC   C3A59765  33.642  34.820   7.025
 4570POPC   C4A59766  33.449  34.933   7.436
 4570POPC   C1B59767  33.926  34.361   6.221
 4570POPC   C2B59768  33.907  34.504   6.607
 4570POPC   C3B59769  33.680  34.331   6.910
 4570POPC   C4B59770  33.750  34.400   7.336
 4571POPC   NC359771  32.372  29.648   5.350
 4571POPC   PO459772  31.925  29.909   5.624
 4571POPC   GL159773  32.352  29.891   5.810
 4571POPC   GL259774  32.543  29.549   5.827
 4571POPC   C1A59775  32.405  30.192   6.142
 4571POPC   D2A59776  32.224  30.349   6.525
 4571POPC   C3A59777  32.253  30.187   6.929
 4571POPC   C4A59778  32.050  30.012   7.271
 4571POPC   C1B59779  32.313  29.581   6.212
 4571POPC   C2B59780  32.354  29.830   6.558
 4571POPC   C3B59781  32.359  29.698   6.973
 4571POPC   C4B59782  32.491  29.796   7.369
 4572POPC   NC359783  21.723  20.935   5.412
 4572POPC   PO459784  22.009  21.447   5.322
 4572POPC   GL159785  21.969  21.287   5.751
 4572POPC   GL259786  21.616  21.263   5.806
 4572POPC   C1A59787  22.154  21.155   6.192
 4572POPC   D2A59788  22.074  21.243   6.688
 4572POPC   C3A59789  22.191  21.217   7.169
 4572POPC   C4A59790  22.151  21.410   7.605
 4572POPC   C1B59791  21.533  21.391   6.242
 4572POPC   C2B59792  21.562  21.271   6.695
 4572POPC   C3B59793  21.653  21.247   7.127
 4572POPC   C4B59794  21.647  21.416   7.542
 4573POPC   NC359795  20.335  25.730   5.438
 4573POPC   PO459796  20.979  25.951   5.374
 4573POPC   GL159797  20.790  26.153   5.721
 4573POPC   GL259798  20.648  25.836   5.847
 4573POPC   C1A59799  20.704  26.274   6.169
 4573POPC   D2A59800  20.543  26.392   6.588
 4573POPC   C3A59801  20.470  26.082   6.865
 4573POPC   C4A59802  20.520  26.168   7.264
 4573POPC   C1B59803  20.323  25.642   6.113
 4573POPC   C2B59804  20.116  25.622   6.517
 4573POPC   C3B59805  20.126  25.692   6.933
 4573POPC   C4B59806  19.958  25.638   7.374
 4574POPC   NC359807   8.781   2.762   5.452
 4574POPC   PO459808   9.167   3.163   5.651
 4574POPC   GL159809   8.885   3.066   5.961
 4574POPC   GL259810   8.548   3.032   5.823
 4574POPC   C1A59811   8.895   3.129   6.444
 4574POPC   D2A59812   9.111   3.035   6.863
 4574POPC   C3A59813   9.025   2.758   7.203
 4574POPC   C4A59814   9.235   2.533   7.570
 4574POPC   C1B59815   8.596   2.743   6.218
 4574POPC   C2B59816   8.730   2.666   6.680
 4574POPC   C3B59817   8.578   2.529   7.100
 4574POPC   C4B59818   8.727   2.500   7.556
 4575POPC   NC359819  17.547  31.229   5.446
 4575POPC   PO459820  17.239  31.789   5.216
 4575POPC   GL159821  17.337  31.657   5.676
 4575POPC   GL259822  17.714  31.634   5.741
 4575POPC   C1A59823  17.366  31.378   6.068
 4575POPC   D2A59824  17.512  31.430   6.476
 4575POPC   C3A59825  17.235  31.354   6.852
 4575POPC   C4A59826  17.410  31.323   7.255
 4575POPC   C1B59827  17.882  31.338   6.043
 4575POPC   C2B59828  17.985  31.266   6.467
 4575POPC   C3B59829  17.828  31.350   6.890
 4575POPC   C4B59830  18.067  31.133   7.210
 4576POPC   NC359831  22.648   2.729   5.267
 4576POPC   PO459832  21.999   2.687   5.054
 4576POPC   GL159833  22.191   2.772   5.563
 4576POPC   GL259834  22.003   2.476   5.776
 4576POPC   C1A59835  22.059   2.894   6.043
 4576POPC   D2A59836  22.344   2.840   6.380
 4576POPC   C3A59837  22.252   2.787   6.766
 4576POPC   C4A59838  22.261   2.795   7.198
 4576POPC   C1B59839  22.133   2.417   6.200
 4576POPC   C2B59840  22.044   2.285   6.595
 4576POPC   C3B59841  22.229   2.326   6.989
 4576POPC   C4B59842  22.127   2.321   7.395
 4577POPC   NC359843  30.294  20.365   5.483
 4577POPC   PO459844  29.752  20.809   5.423
 4577POPC   GL159845  30.049  20.698   5.771
 4577POPC   GL259846  29.854  20.424   5.782
 4577POPC   C1A59847  30.187  20.439   6.171
 4577POPC   D2A59848  30.022  20.540   6.581
 4577POPC   C3A59849  30.247  20.525   6.974
 4577POPC   C4A59850  30.157  20.367   7.390
 4577POPC   C1B59851  29.725  20.651   6.169
 4577POPC   C2B59852  29.713  20.945   6.538
 4577POPC   C3B59853  29.641  20.918   6.982
 4577POPC   C4B59854  29.570  20.603   7.301
 4578POPC   NC359855  29.049  38.461   5.467
 4578POPC   PO459856  28.703  38.948   5.697
 4578POPC   GL159857  28.982  38.674   5.954
 4578POPC   GL259858  29.122  38.298   5.932
 4578POPC   C1A59859  28.842  38.511   6.347
 4578POPC   D2A59860  28.580  38.573   6.674
 4578POPC   C3A59861  28.795  38.785   7.007
 4578POPC   C4A59862  28.991  38.753   7.423
 4578POPC   C1B59863  29.343  38.493   6.281
 4578POPC   C2B59864  29.205  38.603   6.719
 4578POPC   C3B59865  29.377  38.586   7.147
 4578POPC   C4B59866  29.289  38.290   7.509
 4579POPC   NC359867   6.684   3.208   5.440
 4579POPC   PO459868   6.424   3.799   5.524
 4579POPC   GL159869   6.629   3.613   5.897
 4579POPC   GL259870   6.875   3.335   5.891
 4579POPC   C1A59871   6.551   3.442   6.323
 4579POPC   D2A59872   6.403   3.316   6.721
 4579POPC   C3A59873   6.610   3.533   7.006
 4579POPC   C4A59874   6.489   3.899   7.180
 4579POPC   C1B59875   7.038   3.493   6.270
 4579POPC   C2B59876   7.022   3.493   6.692
 4579POPC   C3B59877   7.098   3.232   7.019
 4579POPC   C4B59878   6.983   3.501   7.339
 4580POPC   NC359879  19.228  20.876   5.128
 4580POPC   PO459880  18.674  20.651   5.527
 4580POPC   GL159881  19.061  20.683   5.801
 4580POPC   GL259882  19.350  20.909   5.826
 4580POPC   C1A59883  19.145  20.600   6.243
 4580POPC   D2A59884  18.877  20.676   6.591
 4580POPC   C3A59885  18.879  20.366   6.923
 4580POPC   C4A59886  18.947  20.576   7.281
 4580POPC   C1B59887  19.433  21.027   6.241
 4580POPC   C2B59888  19.344  20.920   6.683
 4580POPC   C3B59889  19.284  20.922   7.142
 4580POPC   C4B59890  19.206  20.884   7.609
 4581POPC   NC359891  22.524  23.247   5.033
 4581POPC   PO459892  22.179  22.953   5.355
 4581POPC   GL159893  21.989  22.979   5.832
 4581POPC   GL259894  21.831  23.263   5.972
 4581POPC   C1A59895  21.817  22.829   6.261
 4581POPC   D2A59896  21.886  22.991   6.700
 4581POPC   C3A59897  21.971  22.721   7.058
 4581POPC   C4A59898  22.175  22.644   7.455
 4581POPC   C1B59899  22.179  23.187   6.316
 4581POPC   C2B59900  22.390  22.943   6.679
 4581POPC   C3B59901  22.402  22.992   7.138
 4581POPC   C4B59902  22.406  23.402   7.362
 4582POPC   NC359903  18.895   0.314   5.358
 4582POPC   PO459904  19.300   0.758   5.377
 4582POPC   GL159905  19.228   0.542   5.750
 4582POPC   GL259906  18.904   0.622   5.799
 4582POPC   C1A59907  19.247   0.436   6.190
 4582POPC   D2A59908  19.388   0.242   6.584
 4582POPC   C3A59909  19.236   0.421   6.979
 4582POPC   C4A59910  19.190   0.157   7.322
 4582POPC   C1B59911  18.736   0.457   6.172
 4582POPC   C2B59912  18.903   0.363   6.582
 4582POPC   C3B59913  18.777   0.189   7.000
 4582POPC   C4B59914  18.657   0.408   7.369
 4583POPC   NC359915   7.858  29.131   5.336
 4583POPC   PO459916   8.549  29.230   5.138
 4583POPC   GL159917   8.321  29.221   5.602
 4583POPC   GL259918   8.221  28.879   5.747
 4583POPC   C1A59919   8.143  29.270   6.072
 4583POPC   D2A59920   8.263  29.128   6.515
 4583POPC   C3A59921   8.123  29.168   6.929
 4583POPC   C4A59922   8.267  29.337   7.302
 4583POPC   C1B59923   8.045  28.790   6.192
 4583POPC   C2B59924   7.934  28.756   6.637
 4583POPC   C3B59925   7.737  28.857   7.031
 4583POPC   C4B59926   8.047  28.865   7.360
 4584POPC   NC359927  43.117  40.833   5.376
 4584POPC   PO459928  42.616  40.287   5.410
 4584POPC   GL159929  42.913  40.526   5.709
 4584POPC   GL259930  43.264  40.579   5.808
 4584POPC   C1A59931  42.910  40.885   6.026
 4584POPC   D2A59932  42.995  40.715   6.430
 4584POPC   C3A59933  42.935  40.787   6.870
 4584POPC   C4A59934  43.114  40.598   7.241
 4584POPC   C1B59935  43.512  40.609   6.197
 4584POPC   C2B59936  43.422  40.581   6.659
 4584POPC   C3B59937  43.494  40.851   7.010
 4584POPC   C4B59938  43.607  40.557   7.336
 4585POPC   NC359939  31.941  44.069   5.450
 4585POPC   PO459940  32.292  43.581   5.338
 4585POPC   GL159941  32.130  43.685   5.767
 4585POPC   GL259942  32.229  44.057   5.857
 4585POPC   C1A59943  32.269  43.720   6.212
 4585POPC   D2A59944  32.117  43.882   6.587
 4585POPC   C3A59945  32.343  43.896   6.941
 4585POPC   C4A59946  32.183  43.730   7.291
 4585POPC   C1B59947  32.303  44.241   6.278
 4585POPC   C2B59948  32.171  44.403   6.690
 4585POPC   C3B59949  32.051  44.278   7.091
 4585POPC   C4B59950  32.343  44.182   7.414
 4586POPC   NC359951  27.944  31.446   5.484
 4586POPC   PO459952  27.259  31.337   5.537
 4586POPC   GL159953  27.462  31.486   5.889
 4586POPC   GL259954  27.743  31.276   5.922
 4586POPC   C1A59955  27.417  31.441   6.327
 4586POPC   D2A59956  27.541  31.210   6.701
 4586POPC   C3A59957  27.252  31.318   6.982
 4586POPC   C4A59958  27.468  31.668   7.101
 4586POPC   C1B59959  27.910  31.534   6.220
 4586POPC   C2B59960  27.797  31.652   6.627
 4586POPC   C3B59961  27.981  31.557   6.986
 4586POPC   C4B59962  27.900  31.634   7.413
 4587POPC   NC359963   0.845  27.343   5.008
 4587POPC   PO459964   1.355  27.180   5.492
 4587POPC   GL159965   1.243  27.269   5.937
 4587POPC   GL259966   1.217  27.621   5.901
 4587POPC   C1A59967   1.158  27.261   6.378
 4587POPC   D2A59968   1.281  27.483   6.732
 4587POPC   C3A59969   0.977  27.466   7.046
 4587POPC   C4A59970   0.800  27.181   7.312
 4587POPC   C1B59971   1.167  27.853   6.297
 4587POPC   C2B59972   1.071  27.941   6.742
 4587POPC   C3B59973   1.286  27.859   7.150
 4587POPC   C4B59974   1.236  27.984   7.636
 4588POPC   NC359975  43.194  19.525   5.429
 4588POPC   PO459976  43.118  20.229   5.260
 4588POPC   GL159977  42.983  20.122   5.700
 4588POPC   GL259978  42.862  19.834   5.729
 4588POPC   C1A59979  43.214  19.947   6.106
 4588POPC   D2A59980  43.500  20.043   6.438
 4588POPC   C3A59981  43.297  19.882   6.800
 4588POPC   C4A59982  43.201  19.962   7.203
 4588POPC   C1B59983  42.730  20.065   6.154
 4588POPC   C2B59984  42.652  19.889   6.594
 4588POPC   C3B59985  42.712  19.941   7.049
 4588POPC   C4B59986  42.588  20.185   7.429
 4589POPC   NC359987  12.547  42.581   5.428
 4589POPC   PO459988  11.999  42.208   5.212
 4589POPC   GL159989  12.179  42.253   5.656
 4589POPC   GL259990  12.258  42.554   5.860
 4589POPC   C1A59991  12.177  42.126   6.129
 4589POPC   D2A59992  12.282  42.120   6.620
 4589POPC   C3A59993  12.034  42.118   7.029
 4589POPC   C4A59994  11.818  42.205   7.413
 4589POPC   C1B59995  12.205  42.591   6.325
 4589POPC   C2B59996  12.002  42.536   6.730
 4589POPC   C3B59997  11.987  42.622   7.163
 4589POPC   C4B59998  12.159  42.926   7.425
 4590POPC   NC359999  26.917  33.322   5.476
 4590POPC   PO460000  26.769  33.954   5.414
 4590POPC   GL160001  26.920  33.758   5.798
 4590POPC   GL260002  26.603  33.579   5.795
 4590POPC   C1A60003  26.851  33.699   6.273
 4590POPC   D2A60004  26.507  33.811   6.541
 4590POPC   C3A60005  26.606  33.951   6.946
 4590POPC   C4A60006  26.853  33.783   7.259
 4590POPC   C1B60007  26.387  33.429   6.154
 4590POPC   C2B60008  26.217  33.395   6.584
 4590POPC   C3B60009  26.446  33.418   6.938
 4590POPC   C4B60010  26.430  33.494   7.334
 4591POPC   NC360011   7.705   1.418   5.068
 4591POPC   PO460012   8.167   1.190   5.485
 4591POPC   GL160013   8.215   1.432   5.839
 4591POPC   GL260014   7.907   1.260   6.024
 4591POPC   C1A60015   8.259   1.501   6.274
 4591POPC   D2A60016   7.908   1.423   6.558
 4591POPC   C3A60017   8.057   1.409   6.971
 4591POPC   C4A60018   8.410   1.337   7.245
 4591POPC   C1B60019   7.648   0.874   6.153
 4591POPC   C2B60020   7.673   0.669   6.573
 4591POPC   C3B60021   7.730   0.867   6.969
 4591POPC   C4B60022   7.906   1.059   7.319
 4592POPC   NC360023  30.491  43.666   5.403
 4592POPC   PO460024  30.856  43.046   5.418
 4592POPC   GL160025  30.935  43.244   5.809
 4592POPC   GL260026  30.576  43.241   5.831
 4592POPC   C1A60027  30.901  43.412   6.229
 4592POPC   D2A60028  30.677  43.392   6.619
 4592POPC   C3A60029  30.912  43.354   7.009
 4592POPC   C4A60030  31.181  43.009   7.074
 4592POPC   C1B60031  30.568  43.022   6.213
 4592POPC   C2B60032  30.401  42.950   6.593
 4592POPC   C3B60033  30.534  43.039   6.974
 4592POPC   C4B60034  30.589  42.848   7.342
 4593POPC   NC360035  19.829  38.713   5.527
 4593POPC   PO460036  19.844  39.456   5.445
 4593POPC   GL160037  19.686  39.385   5.836
 4593POPC   GL260038  19.824  39.076   5.881
 4593POPC   C1A60039  19.893  39.448   6.232
 4593POPC   D2A60040  19.907  39.305   6.625
 4593POPC   C3A60041  19.571  39.189   6.875
 4593POPC   C4A60042  19.688  39.335   7.285
 4593POPC   C1B60043  19.706  38.934   6.283
 4593POPC   C2B60044  19.931  38.795   6.636
 4593POPC   C3B60045  20.009  38.974   7.019
 4593POPC   C4B60046  19.896  38.902   7.430
 4594POPC   NC360047  18.022  43.995   5.520
 4594POPC   PO460048  17.409  43.682   5.332
 4594POPC   GL160049  17.601  43.718   5.721
 4594POPC   GL260050  17.578  44.060   5.751
 4594POPC   C1A60051  17.421  43.778   6.145
 4594POPC   D2A60052  17.511  43.614   6.546
 4594POPC   C3A60053  17.383  43.854   6.887
 4594POPC   C4A60054  17.585  43.824   7.256
 4594POPC   C1B60055  17.827  44.109   6.150
 4594POPC   C2B60056  17.720  44.104   6.591
 4594POPC   C3B60057  17.768  44.254   7.024
 4594POPC   C4B60058  17.742  44.241   7.501
 4595POPC   NC360059  31.594  29.042   5.181
 4595POPC   PO460060  31.178  29.386   5.520
 4595POPC   GL160061  31.359  29.195   5.849
 4595POPC   GL260062  31.680  29.031   5.739
 4595POPC   C1A60063  31.376  29.348   6.287
 4595POPC   D2A60064  31.518  29.338   6.683
 4595POPC   C3A60065  31.387  29.377   7.067
 4595POPC   C4A60066  31.243  29.685   7.286
 4595POPC   C1B60067  31.522  28.863   6.172
 4595POPC   C2B60068  31.347  28.869   6.548
 4595POPC   C3B60069  31.479  28.746   6.920
 4595POPC   C4B60070  31.397  28.906   7.289
 4596POPC   NC360071  25.525  16.389   5.247
 4596POPC   PO460072  25.140  16.861   5.408
 4596POPC   GL160073  25.282  16.481   5.684
 4596POPC   GL260074  25.009  16.371   5.892
 4596POPC   C1A60075  25.491  16.424   6.106
 4596POPC   D2A60076  25.271  16.520   6.497
 4596POPC   C3A60077  25.415  16.404   6.889
 4596POPC   C4A60078  25.401  16.692   7.195
 4596POPC   C1B60079  25.108  16.790   6.069
 4596POPC   C2B60080  25.206  17.071   6.395
 4596POPC   C3B60081  25.225  17.039   6.835
 4596POPC   C4B60082  25.118  17.089   7.280
 4597POPC   NC360083  19.311  32.616   5.318
 4597POPC   PO460084  18.811  32.108   5.502
 4597POPC   GL160085  19.032  32.076   5.874
 4597POPC   GL260086  19.138  32.402   5.775
 4597POPC   C1A60087  19.090  31.929   6.304
 4597POPC   D2A60088  19.363  31.848   6.669
 4597POPC   C3A60089  19.163  32.000   7.078
 4597POPC   C4A60090  18.885  32.384   7.233
 4597POPC   C1B60091  19.194  32.608   6.160
 4597POPC   C2B60092  19.448  32.584   6.520
 4597POPC   C3B60093  19.328  32.460   6.921
 4597POPC   C4B60094  19.321  32.683   7.295
 4598POPC   NC360095   0.050   1.513   5.360
 4598POPC   PO460096   0.261   0.937   5.472
 4598POPC   GL160097   0.443   1.301   5.671
 4598POPC   GL260098   0.719   1.264   5.901
 4598POPC   C1A60099   0.276   1.469   6.049
 4598POPC   D2A60100   0.274   1.597   6.458
 4598POPC   C3A60101   0.411   1.359   6.822
 4598POPC   C4A60102   0.103   1.386   7.158
 4598POPC   C1B60103   0.577   1.177   6.349
 4598POPC   C2B60104   0.508   0.857   6.694
 4598POPC   C3B60105   0.449   0.959   7.177
 4598POPC   C4B60106   0.576   0.921   7.635
 4599POPC   NC360107  37.223   5.792   5.429
 4599POPC   PO460108  36.671   6.065   5.326
 4599POPC   GL160109  36.822   5.870   5.763
 4599POPC   GL260110  37.179   5.745   5.919
 4599POPC   C1A60111  36.826   5.950   6.216
 4599POPC   D2A60112  36.756   5.875   6.642
 4599POPC   C3A60113  36.867   5.903   7.038
 4599POPC   C4A60114  36.966   5.990   7.453
 4599POPC   C1B60115  37.150   5.590   6.350
 4599POPC   C2B60116  37.238   5.681   6.780
 4599POPC   C3B60117  37.339   5.782   7.207
 4599POPC   C4B60118  37.384   5.807   7.673
 4600POPC   NC360119  37.899  22.530   5.413
 4600POPC   PO460120  37.309  22.185   5.342
 4600POPC   GL160121  37.510  22.321   5.695
 4600POPC   GL260122  37.827  22.118   5.715
 4600POPC   C1A60123  37.650  22.443   6.088
 4600POPC   D2A60124  37.880  22.321   6.429
 4600POPC   C3A60125  37.707  22.328   6.832
 4600POPC   C4A60126  37.662  22.248   7.235
 4600POPC   C1B60127  37.737  21.938   6.121
 4600POPC   C2B60128  37.680  21.870   6.562
 4600POPC   C3B60129  37.703  21.800   7.007
 4600POPC   C4B60130  37.958  21.826   7.389
 4601POPC   NC360131  44.044  27.289   5.478
 4601POPC   PO460132  44.144  27.971   5.507
 4601POPC   GL160133  44.063  27.782   5.850
 4601POPC   GL260134  43.773  27.602   5.831
 4601POPC   C1A60135  44.061  27.674   6.261
 4601POPC   D2A60136  43.821  27.726   6.647
 4601POPC   C3A60137  44.109  27.716   7.001
 4601POPC   C4A60138  44.134  27.524   7.427
 4601POPC   C1B60139  43.551  27.565   6.233
 4601POPC   C2B60140  43.308  27.587   6.588
 4601POPC   C3B60141  43.396  27.770   6.961
 4601POPC   C4B60142  43.689  27.696   7.281
 4602POPC   NC360143  27.186  36.922   5.150
 4602POPC   PO460144  26.756  37.300   5.421
 4602POPC   GL160145  26.988  37.102   5.762
 4602POPC   GL260146  26.975  36.728   5.705
 4602POPC   C1A60147  26.859  37.025   6.208
 4602POPC   D2A60148  26.722  37.219   6.599
 4602POPC   C3A60149  26.712  36.933   6.962
 4602POPC   C4A60150  27.075  36.936   7.238
 4602POPC   C1B60151  27.063  36.543   6.116
 4602POPC   C2B60152  26.939  36.617   6.564
 4602POPC   C3B60153  27.086  36.480   6.998
 4602POPC   C4B60154  27.126  36.477   7.495
 4603POPC   NC360155  20.500  42.116   5.509
 4603POPC   PO460156  20.963  42.509   5.198
 4603POPC   GL160157  20.676  42.521   5.687
 4603POPC   GL260158  20.368  42.671   5.622
 4603POPC   C1A60159  20.583  42.290   6.123
 4603POPC   D2A60160  20.646  42.145   6.564
 4603POPC   C3A60161  20.343  42.130   6.897
 4603POPC   C4A60162  20.391  42.333   7.278
 4603POPC   C1B60163  20.198  42.620   6.056
 4603POPC   C2B60164  20.213  42.448   6.493
 4603POPC   C3B60165  20.481  42.640   6.843
 4603POPC   C4B60166  20.750  42.726   7.240
 4604POPC   NC360167  12.659   8.319   5.483
 4604POPC   PO460168  13.175   7.857   5.380
 4604POPC   GL160169  13.063   8.115   5.713
 4604POPC   GL260170  13.154   8.445   5.677
 4604POPC   C1A60171  12.900   8.204   6.097
 4604POPC   D2A60172  12.983   8.108   6.517
 4604POPC   C3A60173  12.672   8.144   6.861
 4604POPC   C4A60174  12.914   8.164   7.217
 4604POPC   C1B60175  13.202   8.590   6.081
 4604POPC   C2B60176  12.869   8.598   6.408
 4604POPC   C3B60177  12.984   8.544   6.821
 4604POPC   C4B60178  13.090   8.657   7.209
 4605POPC   NC360179   1.542   4.294   5.593
 4605POPC   PO460180   1.042   4.754   5.351
 4605POPC   GL160181   1.065   4.507   5.767
 4605POPC   GL260182   1.083   4.212   5.885
 4605POPC   C1A60183   1.380   4.500   6.178
 4605POPC   D2A60184   1.542   4.245   6.532
 4605POPC   C3A60185   1.240   4.256   6.842
 4605POPC   C4A60186   1.305   4.427   7.254
 4605POPC   C1B60187   1.119   4.057   6.290
 4605POPC   C2B60188   0.851   3.800   6.507
 4605POPC   C3B60189   0.903   3.711   6.903
 4605POPC   C4B60190   1.075   3.961   7.244
 4606POPC   NC360191  10.987   7.958   5.623
 4606POPC   PO460192  11.596   8.225   5.391
 4606POPC   GL160193  11.545   8.215   5.805
 4606POPC   GL260194  11.267   8.426   5.830
 4606POPC   C1A60195  11.645   8.319   6.222
 4606POPC   D2A60196  11.412   8.505   6.553
 4606POPC   C3A60197  11.499   8.295   6.931
 4606POPC   C4A60198  11.472   7.958   7.240
 4606POPC   C1B60199  11.149   8.213   6.198
 4606POPC   C2B60200  11.046   7.866   6.443
 4606POPC   C3B60201  11.128   7.912   6.863
 4606POPC   C4B60202  11.042   8.225   7.189
 4607POPC   NC360203  36.613   4.423   5.210
 4607POPC   PO460204  36.442   3.840   5.413
 4607POPC   GL160205  36.457   4.095   5.825
 4607POPC   GL260206  36.430   4.485   5.824
 4607POPC   C1A60207  36.209   4.215   6.242
 4607POPC   D2A60208  36.038   4.024   6.668
 4607POPC   C3A60209  35.939   4.072   7.131
 4607POPC   C4A60210  35.657   3.810   7.408
 4607POPC   C1B60211  36.151   4.698   6.133
 4607POPC   C2B60212  36.164   4.665   6.582
 4607POPC   C3B60213  36.307   4.598   7.007
 4607POPC   C4B60214  36.109   4.502   7.407
 4608POPC   NC360215  32.454   9.551   5.593
 4608POPC   PO460216  33.112   9.640   5.275
 4608POPC   GL160217  32.984   9.603   5.717
 4608POPC   GL260218  32.870   9.938   5.788
 4608POPC   C1A60219  33.114   9.443   6.141
 4608POPC   D2A60220  33.140   9.644   6.542
 4608POPC   C3A60221  33.300   9.531   6.948
 4608POPC   C4A60222  33.128   9.707   7.350
 4608POPC   C1B60223  33.211   9.952   6.135
 4608POPC   C2B60224  33.383  10.071   6.603
 4608POPC   C3B60225  33.195  10.114   7.036
 4608POPC   C4B60226  33.254  10.191   7.512
 4609POPC   NC360227  27.239  42.477   5.546
 4609POPC   PO460228  27.762  42.053   5.531
 4609POPC   GL160229  27.639  42.258   5.849
 4609POPC   GL260230  27.324  42.080   5.876
 4609POPC   C1A60231  27.645  42.200   6.274
 4609POPC   D2A60232  27.665  41.928   6.594
 4609POPC   C3A60233  27.719  42.195   6.922
 4609POPC   C4A60234  27.647  42.123   7.342
 4609POPC   C1B60235  27.142  42.156   6.265
 4609POPC   C2B60236  27.299  42.341   6.638
 4609POPC   C3B60237  27.261  42.366   7.078
 4609POPC   C4B60238  27.003  42.637   7.286
 4610POPC   NC360239  14.015  34.938   5.541
 4610POPC   PO460240  13.689  35.248   5.161
 4610POPC   GL160241  13.558  35.298   5.656
 4610POPC   GL260242  13.670  35.034   5.906
 4610POPC   C1A60243  13.524  35.433   6.163
 4610POPC   D2A60244  13.768  35.254   6.565
 4610POPC   C3A60245  13.717  35.202   7.052
 4610POPC   C4A60246  13.785  35.397   7.479
 4610POPC   C1B60247  13.439  34.940   6.305
 4610POPC   C2B60248  13.301  35.046   6.742
 4610POPC   C3B60249  13.395  34.810   7.131
 4610POPC   C4B60250  13.633  34.866   7.515
 4611POPC   NC360251   1.174  33.192   5.295
 4611POPC   PO460252   0.703  32.727   5.379
 4611POPC   GL160253   0.974  32.956   5.739
 4611POPC   GL260254   1.255  33.240   5.800
 4611POPC   C1A60255   1.251  32.874   6.141
 4611POPC   D2A60256   1.480  32.956   6.540
 4611POPC   C3A60257   1.173  33.041   6.860
 4611POPC   C4A60258   1.067  32.752   7.162
 4611POPC   C1B60259   1.552  33.325   6.183
 4611POPC   C2B60260   1.528  33.482   6.636
 4611POPC   C3B60261   1.478  33.380   7.083
 4611POPC   C4B60262   1.399  33.216   7.515
 4612POPC   NC360263   4.853   0.261   5.452
 4612POPC   PO460264   5.126   0.892   5.392
 4612POPC   GL160265   5.054   0.624   5.788
 4612POPC   GL260266   5.197   0.265   5.841
 4612POPC   C1A60267   4.909   0.464   6.212
 4612POPC   D2A60268   4.971   0.192   6.552
 4612POPC   C3A60269   5.069   0.364   6.936
 4612POPC   C4A60270   4.902   0.644   7.205
 4612POPC   C1B60271   5.000  44.931   6.116
 4612POPC   C2B60272   4.927  44.694   6.524
 4612POPC   C3B60273   4.984  44.865   6.945
 4612POPC   C4B60274   4.959   0.120   7.381
 4613POPC   NC360275  20.782   3.224   5.595
 4613POPC   PO460276  20.298   3.635   5.242
 4613POPC   GL160277  20.385   3.438   5.756
 4613POPC   GL260278  20.670   3.635   5.896
 4613POPC   C1A60279  20.329   3.556   6.254
 4613POPC   D2A60280  20.609   3.748   6.566
 4613POPC   C3A60281  20.632   3.590   6.976
 4613POPC   C4A60282  20.912   3.588   7.315
 4613POPC   C1B60283  20.820   3.374   6.224
 4613POPC   C2B60284  20.747   3.227   6.614
 4613POPC   C3B60285  20.972   3.208   6.970
 4613POPC   C4B60286  21.127   3.113   7.340
 4614POPC   NC360287  20.096  31.237   5.302
 4614POPC   PO460288  19.762  31.798   5.529
 4614POPC   GL160289  19.876  31.652   5.880
 4614POPC   GL260290  20.057  31.401   5.794
 4614POPC   C1A60291  19.743  31.725   6.286
 4614POPC   D2A60292  19.761  31.471   6.655
 4614POPC   C3A60293  19.734  31.625   7.057
 4614POPC   C4A60294  19.810  31.411   7.420
 4614POPC   C1B60295  20.085  31.314   6.232
 4614POPC   C2B60296  20.127  31.111   6.610
 4614POPC   C3B60297  20.135  31.263   7.026
 4614POPC   C4B60298  20.199  31.055   7.427
 4615POPC   NC360299   7.347  17.834   5.253
 4615POPC   PO460300   7.534  18.413   5.579
 4615POPC   GL160301   7.484  18.215   5.942
 4615POPC   GL260302   7.299  17.936   5.775
 4615POPC   C1A60303   7.700  18.393   6.318
 4615POPC   D2A60304   7.549  18.290   6.703
 4615POPC   C3A60305   7.651  18.471   7.096
 4615POPC   C4A60306   7.541  18.298   7.504
 4615POPC   C1B60307   7.097  17.916   6.182
 4615POPC   C2B60308   7.144  17.981   6.627
 4615POPC   C3B60309   7.210  18.110   7.043
 4615POPC   C4B60310   7.316  17.861   7.350
 4616POPC   NC360311  19.237  30.322   5.416
 4616POPC   PO460312  18.897  29.757   5.458
 4616POPC   GL160313  19.086  29.806   5.847
 4616POPC   GL260314  19.367  30.027   5.854
 4616POPC   C1A60315  19.032  29.937   6.273
 4616POPC   D2A60316  18.706  30.053   6.562
 4616POPC   C3A60317  18.744  29.806   6.914
 4616POPC   C4A60318  19.061  29.697   7.223
 4616POPC   C1B60319  19.379  30.344   6.216
 4616POPC   C2B60320  19.171  30.405   6.648
 4616POPC   C3B60321  19.138  30.168   7.038
 4616POPC   C4B60322  19.223  30.096   7.487
 4617POPC   NC360323  42.256  37.375   5.383
 4617POPC   PO460324  42.479  36.693   5.393
 4617POPC   GL160325  42.293  36.986   5.707
 4617POPC   GL260326  42.538  37.291   5.797
 4617POPC   C1A60327  42.146  36.964   6.129
 4617POPC   D2A60328  42.082  37.138   6.525
 4617POPC   C3A60329  42.104  36.911   6.893
 4617POPC   C4A60330  42.040  36.600   7.173
 4617POPC   C1B60331  42.650  37.157   6.222
 4617POPC   C2B60332  42.570  37.021   6.656
 4617POPC   C3B60333  42.573  36.898   7.095
 4617POPC   C4B60334  42.913  36.702   7.318
 4618POPC   NC360335  31.000   0.464   5.372
 4618POPC   PO460336  30.416   0.294   5.331
 4618POPC   GL160337  30.576   0.221   5.792
 4618POPC   GL260338  30.932   0.317   5.883
 4618POPC   C1A60339  30.583   0.147   6.265
 4618POPC   D2A60340  30.423   0.321   6.647
 4618POPC   C3A60341  30.499   0.134   7.045
 4618POPC   C4A60342  30.845   0.270   7.304
 4618POPC   C1B60343  31.108   0.234   6.312
 4618POPC   C2B60344  31.044   0.267   6.788
 4618POPC   C3B60345  31.306   0.128   7.180
 4618POPC   C4B60346  31.281   0.365   7.618
 4619POPC   NC360347  26.264  43.286   5.291
 4619POPC   PO460348  25.775  42.747   5.368
 4619POPC   GL160349  26.161  42.922   5.642
 4619POPC   GL260350  26.048  43.242   5.751
 4619POPC   C1A60351  26.260  42.995   6.140
 4619POPC   D2A60352  25.955  43.001   6.520
 4619POPC   C3A60353  26.022  43.132   6.950
 4619POPC   C4A60354  26.148  42.978   7.364
 4619POPC   C1B60355  25.822  43.350   6.142
 4619POPC   C2B60356  25.762  43.504   6.576
 4619POPC   C3B60357  25.767  43.589   7.025
 4619POPC   C4B60358  25.728  43.270   7.370
 4620POPC   NC360359  19.776  14.775   5.473
 4620POPC   PO460360  19.862  15.370   5.312
 4620POPC   GL160361  19.963  15.177   5.731
 4620POPC   GL260362  19.640  15.144   5.780
 4620POPC   C1A60363  19.979  15.195   6.181
 4620POPC   D2A60364  20.044  15.421   6.560
 4620POPC   C3A60365  19.950  15.165   6.885
 4620POPC   C4A60366  19.774  15.054   7.261
 4620POPC   C1B60367  19.589  14.857   6.128
 4620POPC   C2B60368  19.795  14.781   6.523
 4620POPC   C3B60369  19.618  14.758   6.909
 4620POPC   C4B60370  19.290  14.914   7.201
 4621POPC   NC360371  10.454  19.626   5.688
 4621POPC   PO460372  10.969  19.977   5.331
 4621POPC   GL160373  10.791  20.044   5.797
 4621POPC   GL260374  10.789  19.775   6.087
 4621POPC   C1A60375  10.487  20.169   6.121
 4621POPC   D2A60376  10.419  19.943   6.501
 4621POPC   C3A60377  10.424  20.076   6.934
 4621POPC   C4A60378  10.106  20.107   7.225
 4621POPC   C1B60379  10.836  19.596   6.469
 4621POPC   C2B60380  10.882  19.900   6.771
 4621POPC   C3B60381  10.870  19.874   7.182
 4621POPC   C4B60382  10.672  19.618   7.478
 4622POPC   NC360383  18.307  39.228   5.425
 4622POPC   PO460384  17.975  38.685   5.481
 4622POPC   GL160385  18.089  38.969   5.816
 4622POPC   GL260386  18.436  39.009   5.909
 4622POPC   C1A60387  18.071  39.254   6.179
 4622POPC   D2A60388  18.339  39.246   6.544
 4622POPC   C3A60389  18.224  39.223   7.000
 4622POPC   C4A60390  18.356  39.118   7.425
 4622POPC   C1B60391  18.534  39.450   6.068
 4622POPC   C2B60392  18.699  39.589   6.494
 4622POPC   C3B60393  18.729  39.301   6.885
 4622POPC   C4B60394  18.801  39.374   7.311
 4623POPC   NC360395  40.473   0.337   5.453
 4623POPC   PO460396  41.046   0.393   5.158
 4623POPC   GL160397  40.871   0.527   5.695
 4623POPC   GL260398  40.632   0.265   5.930
 4623POPC   C1A60399  40.725   0.698   6.147
 4623POPC   D2A60400  40.833   0.568   6.590
 4623POPC   C3A60401  40.730   0.681   7.033
 4623POPC   C4A60402  40.913   0.424   7.376
 4623POPC   C1B60403  40.434   0.316   6.337
 4623POPC   C2B60404  40.433   0.294   6.810
 4623POPC   C3B60405  40.385   0.360   7.265
 4623POPC   C4B60406  40.485   0.171   7.677
 4624POPC   NC360407  33.913  44.468   5.306
 4624POPC   PO460408  33.319  44.657   5.553
 4624POPC   GL160409  33.619  44.598   5.813
 4624POPC   GL260410  33.835  44.833   5.661
 4624POPC   C1A60411  33.700  44.499   6.244
 4624POPC   D2A60412  33.950  44.518   6.599
 4624POPC   C3A60413  33.643  44.588   6.863
 4624POPC   C4A60414  33.579  44.589   7.251
 4624POPC   C1B60415  33.880  44.966   6.075
 4624POPC   C2B60416  33.927   0.051   6.490
 4624POPC   C3B60417  33.959  44.981   6.892
 4624POPC   C4B60418  34.072  44.643   7.139
 4625POPC   NC360419   2.228  12.758   5.577
 4625POPC   PO460420   2.791  12.818   5.183
 4625POPC   GL160421   2.843  12.694   5.674
 4625POPC   GL260422   2.589  12.446   5.718
 4625POPC   C1A60423   2.878  12.929   6.125
 4625POPC   D2A60424   2.772  13.088   6.552
 4625POPC   C3A60425   2.927  12.857   6.924
 4625POPC   C4A60426   3.106  13.056   7.301
 4625POPC   C1B60427   2.496  12.564   6.164
 4625POPC   C2B60428   2.427  12.721   6.613
 4625POPC   C3B60429   2.473  12.590   7.028
 4625POPC   C4B60430   2.580  12.938   7.281
 4626POPC   NC360431  37.280  33.882   5.359
 4626POPC   PO460432  37.902  33.719   5.471
 4626POPC   GL160433  37.844  33.881   5.855
 4626POPC   GL260434  37.499  33.944   5.821
 4626POPC   C1A60435  37.732  34.097   6.244
 4626POPC   D2A60436  37.478  33.931   6.576
 4626POPC   C3A60437  37.728  33.705   6.896
 4626POPC   C4A60438  37.795  34.056   7.163
 4626POPC   C1B60439  37.513  33.573   6.127
 4626POPC   C2B60440  37.308  33.448   6.517
 4626POPC   C3B60441  37.230  33.654   6.933
 4626POPC   C4B60442  37.426  33.573   7.320
 4627POPC   NC360443  31.814  20.296   5.064
 4627POPC   PO460444  31.664  20.725   5.518
 4627POPC   GL160445  31.619  20.463   5.855
 4627POPC   GL260446  31.852  20.221   5.787
 4627POPC   C1A60447  31.391  20.570   6.226
 4627POPC   D2A60448  31.496  20.854   6.548
 4627POPC   C3A60449  31.299  20.751   6.920
 4627POPC   C4A60450  31.495  20.867   7.285
 4627POPC   C1B60451  31.725  20.174   6.271
 4627POPC   C2B60452  31.548  20.329   6.673
 4627POPC   C3B60453  31.646  20.401   7.118
 4627POPC   C4B60454  31.457  20.321   7.500
 4628POPC   NC360455  41.373  35.802   5.535
 4628POPC   PO460456  41.594  36.349   5.299
 4628POPC   GL160457  41.640  36.193   5.714
 4628POPC   GL260458  41.491  36.426   5.841
 4628POPC   C1A60459  41.731  36.077   6.157
 4628POPC   D2A60460  41.773  36.236   6.591
 4628POPC   C3A60461  41.551  35.995   6.910
 4628POPC   C4A60462  41.301  35.979   7.265
 4628POPC   C1B60463  41.793  36.586   6.156
 4628POPC   C2B60464  41.747  36.744   6.577
 4628POPC   C3B60465  41.578  36.686   6.977
 4628POPC   C4B60466  41.605  36.375   7.294
 4629POPC   NC360467  42.305  13.902   5.455
 4629POPC   PO460468  41.929  13.311   5.302
 4629POPC   GL160469  42.097  13.495   5.731
 4629POPC   GL260470  42.442  13.673   5.869
 4629POPC   C1A60471  42.033  13.711   6.143
 4629POPC   D2A60472  42.320  13.722   6.481
 4629POPC   C3A60473  42.246  13.739   6.917
 4629POPC   C4A60474  42.490  13.607   7.293
 4629POPC   C1B60475  42.723  13.898   6.165
 4629POPC   C2B60476  42.696  14.047   6.606
 4629POPC   C3B60477  42.800  13.888   7.033
 4629POPC   C4B60478  42.650  14.053   7.454
 4630POPC   NC360479   3.233   0.941   5.521
 4630POPC   PO460480   3.683   0.456   5.581
 4630POPC   GL160481   3.629   0.715   5.924
 4630POPC   GL260482   3.304   0.612   6.001
 4630POPC   C1A60483   3.720   0.617   6.362
 4630POPC   D2A60484   3.685   0.462   6.796
 4630POPC   C3A60485   3.554   0.723   7.160
 4630POPC   C4A60486   3.579   0.679   7.631
 4630POPC   C1B60487   3.394   0.238   6.299
 4630POPC   C2B60488   3.211   0.165   6.665
 4630POPC   C3B60489   3.379   0.139   7.044
 4630POPC   C4B60490   3.283   0.327   7.380
 4631POPC   NC360491  41.953  35.640   5.023
 4631POPC   PO460492  41.505  35.375   5.412
 4631POPC   GL160493  41.567  35.308   5.835
 4631POPC   GL260494  41.701  35.637   5.898
 4631POPC   C1A60495  41.406  35.058   6.194
 4631POPC   D2A60496  41.164  34.964   6.581
 4631POPC   C3A60497  41.477  35.043   6.910
 4631POPC   C4A60498  41.621  35.154   7.338
 4631POPC   C1B60499  41.354  35.632   6.211
 4631POPC   C2B60500  41.240  35.469   6.633
 4631POPC   C3B60501  41.347  35.515   7.076
 4631POPC   C4B60502  41.745  35.672   7.286
 4632POPC   NC360503  25.815  18.693   5.566
 4632POPC   PO460504  25.933  19.323   5.396
 4632POPC   GL160505  26.038  19.119   5.801
 4632POPC   GL260506  26.202  18.820   5.857
 4632POPC   C1A60507  25.934  18.998   6.251
 4632POPC   D2A60508  25.966  18.698   6.597
 4632POPC   C3A60509  25.866  18.846   6.968
 4632POPC   C4A60510  25.963  19.201   7.121
 4632POPC   C1B60511  26.267  18.592   6.218
 4632POPC   C2B60512  26.577  18.551   6.518
 4632POPC   C3B60513  26.526  18.759   6.903
 4632POPC   C4B60514  26.271  18.769   7.268
 4633POPC   NC360515   3.819  35.861   5.383
 4633POPC   PO460516   4.379  36.212   5.295
 4633POPC   GL160517   4.314  36.160   5.713
 4633POPC   GL260518   4.607  36.346   5.806
 4633POPC   C1A60519   4.321  35.901   6.105
 4633POPC   D2A60520   4.101  35.942   6.510
 4633POPC   C3A60521   4.307  36.114   6.865
 4633POPC   C4A60522   4.213  36.384   7.210
 4633POPC   C1B60523   4.321  36.418   6.171
 4633POPC   C2B60524   4.404  36.532   6.588
 4633POPC   C3B60525   4.658  36.483   6.955
 4633POPC   C4B60526   4.666  36.196   7.305
 4634POPC   NC360527  13.483  26.344   5.401
 4634POPC   PO460528  13.444  27.055   5.406
 4634POPC   GL160529  13.664  26.766   5.661
 4634POPC   GL260530  13.351  26.652   5.785
 4634POPC   C1A60531  13.775  26.631   6.101
 4634POPC   D2A60532  13.961  26.675   6.511
 4634POPC   C3A60533  13.893  26.917   6.884
 4634POPC   C4A60534  13.786  26.660   7.237
 4634POPC   C1B60535  13.464  27.036   6.062
 4634POPC   C2B60536  13.598  27.053   6.472
 4634POPC   C3B60537  13.381  26.980   6.839
 4634POPC   C4B60538  13.429  27.016   7.285
 4635POPC   NC360539   7.127  26.391   5.105
 4635POPC   PO460540   7.397  26.051   5.303
 4635POPC   GL160541   7.346  25.985   5.778
 4635POPC   GL260542   7.042  25.843   5.948
 4635POPC   C1A60543   7.402  26.052   6.258
 4635POPC   D2A60544   7.559  26.303   6.599
 4635POPC   C3A60545   7.620  26.144   7.028
 4635POPC   C4A60546   7.531  26.206   7.497
 4635POPC   C1B60547   6.982  25.764   6.420
 4635POPC   C2B60548   7.221  25.911   6.763
 4635POPC   C3B60549   7.181  25.979   7.207
 4635POPC   C4B60550   7.174  25.785   7.612
 4636POPC   NC360551  33.347  23.771   5.641
 4636POPC   PO460552  33.993  23.603   5.432
 4636POPC   GL160553  33.826  23.560   5.852
 4636POPC   GL260554  33.926  23.237   5.909
 4636POPC   C1A60555  33.820  23.579   6.331
 4636POPC   D2A60556  33.847  23.955   6.588
 4636POPC   C3A60557  33.832  24.030   7.031
 4636POPC   C4A60558  33.634  23.753   7.327
 4636POPC   C1B60559  34.277  23.422   6.145
 4636POPC   C2B60560  34.322  23.537   6.592
 4636POPC   C3B60561  33.948  23.535   6.879
 4636POPC   C4B60562  33.700  23.256   7.135
 4637POPC   NC360563  32.313  10.529   5.440
 4637POPC   PO460564  31.583  10.478   5.369
 4637POPC   GL160565  31.879  10.594   5.708
 4637POPC   GL260566  31.974  10.285   5.795
 4637POPC   C1A60567  32.191  10.625   6.105
 4637POPC   D2A60568  32.294  10.813   6.544
 4637POPC   C3A60569  32.097  10.637   6.951
 4637POPC   C4A60570  32.036  10.673   7.439
 4637POPC   C1B60571  31.830  10.163   6.213
 4637POPC   C2B60572  31.763  10.337   6.652
 4637POPC   C3B60573  31.949  10.097   7.002
 4637POPC   C4B60574  32.306  10.207   7.221
 4638POPC   NC360575  26.740  17.531   5.334
 4638POPC   PO460576  27.276  17.253   5.353
 4638POPC   GL160577  27.066  17.507   5.725
 4638POPC   GL260578  26.709  17.443   5.862
 4638POPC   C1A60579  27.077  17.606   6.185
 4638POPC   D2A60580  26.777  17.499   6.520
 4638POPC   C3A60581  26.840  17.682   6.933
 4638POPC   C4A60582  27.207  17.835   7.183
 4638POPC   C1B60583  26.549  17.141   6.213
 4638POPC   C2B60584  26.479  17.083   6.692
 4638POPC   C3B60585  26.518  17.233   7.144
 4638POPC   C4B60586  26.595  17.127   7.632
 4639POPC   NC360587  44.713   5.443   5.501
 4639POPC   PO460588  44.910   6.059   5.592
 4639POPC   GL160589  44.741   5.876   5.907
 4639POPC   GL260590  44.973   5.625   5.901
 4639POPC   C1A60591  44.826   5.896   6.357
 4639POPC   D2A60592  44.726   6.172   6.709
 4639POPC   C3A60593  44.727   6.012   7.109
 4639POPC   C4A60594  44.466   5.638   7.193
 4639POPC   C1B60595  44.653   5.427   6.166
 4639POPC   C2B60596  44.812   5.421   6.551
 4639POPC   C3B60597  44.826   5.365   6.956
 4639POPC   C4B60598  44.940   5.590   7.330
 4640POPC   NC360599  30.270  33.645   5.349
 4640POPC   PO460600  29.731  34.009   5.340
 4640POPC   GL160601  29.779  34.156   5.734
 4640POPC   GL260602  30.002  33.848   5.796
 4640POPC   C1A60603  29.712  34.054   6.171
 4640POPC   D2A60604  29.950  33.752   6.421
 4640POPC   C3A60605  29.861  33.865   6.817
 4640POPC   C4A60606  30.001  34.130   7.150
 4640POPC   C1B60607  30.132  33.447   6.020
 4640POPC   C2B60608  30.141  33.254   6.425
 4640POPC   C3B60609  30.173  33.361   6.846
 4640POPC   C4B60610  30.096  33.623   7.207
 4641POPC   NC360611  14.566  15.076   5.370
 4641POPC   PO460612  14.182  15.552   5.437
 4641POPC   GL160613  14.290  15.246   5.784
 4641POPC   GL260614  14.162  14.925   5.664
 4641POPC   C1A60615  14.582  15.040   6.142
 4641POPC   D2A60616  14.678  14.828   6.587
 4641POPC   C3A60617  14.654  14.959   7.063
 4641POPC   C4A60618  14.931  14.963   7.426
 4641POPC   C1B60619  14.141  14.830   6.081
 4641POPC   C2B60620  14.141  15.100   6.429
 4641POPC   C3B60621  14.193  15.101   6.866
 4641POPC   C4B60622  14.189  15.262   7.290
 4642POPC   NC360623  33.581  42.707   5.523
 4642POPC   PO460624  33.986  43.328   5.444
 4642POPC   GL160625  33.904  43.068   5.763
 4642POPC   GL260626  33.560  43.130   5.816
 4642POPC   C1A60627  33.968  43.045   6.202
 4642POPC   D2A60628  33.750  43.075   6.595
 4642POPC   C3A60629  33.976  43.195   6.962
 4642POPC   C4A60630  34.203  42.968   7.274
 4642POPC   C1B60631  33.465  42.878   6.180
 4642POPC   C2B60632  33.306  42.787   6.588
 4642POPC   C3B60633  33.403  42.943   6.959
 4642POPC   C4B60634  33.681  42.888   7.271
 4643POPC   NC360635   0.928  32.339   5.499
 4643POPC   PO460636   1.492  32.058   5.343
 4643POPC   GL160637   1.355  32.035   5.742
 4643POPC   GL260638   1.033  31.942   5.829
 4643POPC   C1A60639   1.307  32.365   6.051
 4643POPC   D2A60640   1.480  32.410   6.466
 4643POPC   C3A60641   1.174  32.312   6.781
 4643POPC   C4A60642   1.282  32.294   7.200
 4643POPC   C1B60643   0.898  32.110   6.243
 4643POPC   C2B60644   0.777  31.954   6.660
 4643POPC   C3B60645   1.013  31.897   7.054
 4643POPC   C4B60646   1.156  31.905   7.505
 4644POPC   NC360647   1.390  35.400   5.495
 4644POPC   PO460648   0.730  35.327   5.457
 4644POPC   GL160649   1.017  35.436   5.848
 4644POPC   GL260650   1.395  35.348   5.990
 4644POPC   C1A60651   1.118  35.660   6.240
 4644POPC   D2A60652   1.334  35.700   6.606
 4644POPC   C3A60653   1.294  35.322   6.860
 4644POPC   C4A60654   1.111  35.190   7.294
 4644POPC   C1B60655   1.671  35.380   6.355
 4644POPC   C2B60656   1.836  35.609   6.710
 4644POPC   C3B60657   1.725  35.507   7.124
 4644POPC   C4B60658   1.604  35.095   7.201
 4645POPC   NC360659  23.994   5.884   5.369
 4645POPC   PO460660  23.343   6.291   5.294
 4645POPC   GL160661  23.417   6.055   5.723
 4645POPC   GL260662  23.695   5.915   5.767
 4645POPC   C1A60663  23.417   5.921   6.190
 4645POPC   D2A60664  23.620   5.810   6.579
 4645POPC   C3A60665  23.375   5.897   6.943
 4645POPC   C4A60666  23.452   5.844   7.380
 4645POPC   C1B60667  23.864   6.149   6.112
 4645POPC   C2B60668  23.985   6.169   6.537
 4645POPC   C3B60669  23.866   6.098   6.949
 4645POPC   C4B60670  23.927   6.027   7.353
 4646POPC   NC360671  12.270   8.921   5.518
 4646POPC   PO460672  11.687   9.053   5.377
 4646POPC   GL160673  11.856   9.057   5.790
 4646POPC   GL260674  11.816   8.687   5.805
 4646POPC   C1A60675  12.013   9.185   6.198
 4646POPC   D2A60676  11.882   9.279   6.617
 4646POPC   C3A60677  12.153   9.076   6.905
 4646POPC   C4A60678  12.303   9.074   7.321
 4646POPC   C1B60679  12.012   8.663   6.236
 4646POPC   C2B60680  11.854   8.755   6.639
 4646POPC   C3B60681  11.717   8.759   7.063
 4646POPC   C4B60682  11.924   8.768   7.488
 4647POPC   NC360683  30.239  26.469   5.479
 4647POPC   PO460684  29.700  25.919   5.455
 4647POPC   GL160685  29.824  25.989   5.848
 4647POPC   GL260686  30.064  26.176   5.843
 4647POPC   C1A60687  29.898  25.892   6.267
 4647POPC   D2A60688  29.660  25.676   6.544
 4647POPC   C3A60689  29.560  25.846   6.957
 4647POPC   C4A60690  29.816  26.028   7.288
 4647POPC   C1B60691  30.091  26.363   6.227
 4647POPC   C2B60692  30.140  26.181   6.625
 4647POPC   C3B60693  30.116  26.353   7.027
 4647POPC   C4B60694  30.472  26.405   7.266
 4648POPC   NC360695   8.083   8.718   5.481
 4648POPC   PO460696   8.434   9.333   5.460
 4648POPC   GL160697   8.333   9.065   5.809
 4648POPC   GL260698   8.480   8.748   5.839
 4648POPC   C1A60699   8.273   8.953   6.240
 4648POPC   D2A60700   8.062   8.984   6.630
 4648POPC   C3A60701   8.315   9.088   6.975
 4648POPC   C4A60702   8.230   9.091   7.425
 4648POPC   C1B60703   8.437   8.461   6.165
 4648POPC   C2B60704   8.196   8.493   6.519
 4648POPC   C3B60705   8.275   8.574   6.929
 4648POPC   C4B60706   8.157   8.598   7.331
 4649POPC   NC360707  34.085  15.359   5.426
 4649POPC   PO460708  33.688  14.801   5.330
 4649POPC   GL160709  33.918  14.930   5.705
 4649POPC   GL260710  33.707  15.229   5.753
 4649POPC   C1A60711  33.998  15.120   6.161
 4649POPC   D2A60712  34.051  15.371   6.566
 4649POPC   C3A60713  34.067  15.144   6.992
 4649POPC   C4A60714  34.032  15.369   7.432
 4649POPC   C1B60715  33.546  14.914   6.081
 4649POPC   C2B60716  33.628  15.074   6.520
 4649POPC   C3B60717  33.628  15.388   6.862
 4649POPC   C4B60718  33.625  15.150   7.252
 4650POPC   NC360719  22.208   6.433   5.516
 4650POPC   PO460720  21.740   6.978   5.390
 4650POPC   GL160721  22.072   6.878   5.730
 4650POPC   GL260722  22.418   6.969   5.757
 4650POPC   C1A60723  22.078   6.621   6.124
 4650POPC   D2A60724  22.238   6.638   6.538
 4650POPC   C3A60725  22.113   6.458   6.908
 4650POPC   C4A60726  22.244   6.578   7.305
 4650POPC   C1B60727  22.572   6.768   6.137
 4650POPC   C2B60728  22.729   6.742   6.544
 4650POPC   C3B60729  22.627   6.788   6.972
 4650POPC   C4B60730  22.754   6.586   7.385
 4651POPC   NC360731   1.441  20.713   5.404
 4651POPC   PO460732   0.852  20.454   5.371
 4651POPC   GL160733   1.102  20.547   5.763
 4651POPC   GL260734   1.070  20.909   5.776
 4651POPC   C1A60735   1.110  20.412   6.199
 4651POPC   D2A60736   0.855  20.277   6.532
 4651POPC   C3A60737   1.035  20.396   6.929
 4651POPC   C4A60738   1.447  20.516   7.105
 4651POPC   C1B60739   1.206  20.918   6.216
 4651POPC   C2B60740   1.257  20.771   6.637
 4651POPC   C3B60741   1.281  20.993   7.032
 4651POPC   C4B60742   1.413  20.915   7.440
 4652POPC   NC360743  37.368   8.072   5.430
 4652POPC   PO460744  37.764   8.629   5.404
 4652POPC   GL160745  37.733   8.340   5.772
 4652POPC   GL260746  37.782   7.970   5.735
 4652POPC   C1A60747  37.934   8.279   6.181
 4652POPC   D2A60748  37.737   8.309   6.564
 4652POPC   C3A60749  37.946   8.338   6.937
 4652POPC   C4A60750  37.743   8.311   7.304
 4652POPC   C1B60751  37.522   7.963   6.107
 4652POPC   C2B60752  37.556   7.834   6.530
 4652POPC   C3B60753  37.496   8.033   6.929
 4652POPC   C4B60754  37.474   7.885   7.338
 4653POPC   NC360755  42.794  19.188   5.093
 4653POPC   PO460756  43.435  19.087   5.412
 4653POPC   GL160757  43.032  19.043   5.644
 4653POPC   GL260758  42.883  19.328   5.826
 4653POPC   C1A60759  42.977  18.888   6.089
 4653POPC   D2A60760  43.197  18.949   6.481
 4653POPC   C3A60761  43.026  18.993   6.889
 4653POPC   C4A60762  43.129  18.888   7.286
 4653POPC   C1B60763  43.135  19.405   6.203
 4653POPC   C2B60764  43.402  19.420   6.586
 4653POPC   C3B60765  43.347  19.389   7.039
 4653POPC   C4B60766  42.927  19.465   7.100
 4654POPC   NC360767  22.761  25.825   5.479
 4654POPC   PO460768  22.794  26.476   5.593
 4654POPC   GL160769  22.864  26.168   5.893
 4654POPC   GL260770  23.201  26.036   6.002
 4654POPC   C1A60771  22.843  26.214   6.328
 4654POPC   D2A60772  22.969  25.995   6.673
 4654POPC   C3A60773  22.944  26.265   7.002
 4654POPC   C4A60774  22.533  26.307   7.127
 4654POPC   C1B60775  23.401  25.826   6.376
 4654POPC   C2B60776  23.348  25.642   6.797
 4654POPC   C3B60777  23.185  25.812   7.216
 4654POPC   C4B60778  22.932  25.687   7.612
 4655POPC   NC360779  32.175  19.045   5.286
 4655POPC   PO460780  31.688  19.073   5.756
 4655POPC   GL160781  32.079  19.088   5.916
 4655POPC   GL260782  32.281  18.840   5.759
 4655POPC   C1A60783  32.088  18.978   6.380
 4655POPC   D2A60784  32.060  18.948   6.857
 4655POPC   C3A60785  31.927  19.139   7.258
 4655POPC   C4A60786  32.052  19.275   7.702
 4655POPC   C1B60787  32.536  18.984   6.132
 4655POPC   C2B60788  32.632  18.939   6.578
 4655POPC   C3B60789  32.523  18.828   7.016
 4655POPC   C4B60790  32.411  19.033   7.414
 4656POPC   NC360791   6.009  32.047   5.304
 4656POPC   PO460792   5.972  32.652   5.350
 4656POPC   GL160793   5.990  32.391   5.768
 4656POPC   GL260794   5.711  32.216   5.895
 4656POPC   C1A60795   6.052  32.271   6.265
 4656POPC   D2A60796   6.081  32.049   6.709
 4656POPC   C3A60797   5.997  32.219   7.170
 4656POPC   C4A60798   6.114  32.175   7.659
 4656POPC   C1B60799   5.512  31.877   6.181
 4656POPC   C2B60800   5.629  31.829   6.580
 4656POPC   C3B60801   5.594  32.170   6.855
 4656POPC   C4B60802   5.448  32.198   7.249
 4657POPC   NC360803  13.056   7.404   5.418
 4657POPC   PO460804  12.528   7.865   5.349
 4657POPC   GL160805  12.782   7.684   5.727
 4657POPC   GL260806  12.882   7.318   5.895
 4657POPC   C1A60807  12.802   7.732   6.167
 4657POPC   D2A60808  12.621   7.733   6.567
 4657POPC   C3A60809  12.799   7.467   6.893
 4657POPC   C4A60810  12.828   7.579   7.324
 4657POPC   C1B60811  12.889   7.284   6.382
 4657POPC   C2B60812  13.169   7.143   6.705
 4657POPC   C3B60813  13.065   7.071   7.129
 4657POPC   C4B60814  12.957   7.144   7.550
 4658POPC   NC360815  17.992   6.462   5.150
 4658POPC   PO460816  18.385   6.954   5.205
 4658POPC   GL160817  18.369   6.961   5.689
 4658POPC   GL260818  18.055   6.798   5.831
 4658POPC   C1A60819  18.529   6.755   6.086
 4658POPC   D2A60820  18.497   6.931   6.532
 4658POPC   C3A60821  18.495   6.656   6.891
 4658POPC   C4A60822  18.409   6.695   7.344
 4658POPC   C1B60823  18.069   6.683   6.279
 4658POPC   C2B60824  18.169   6.396   6.620
 4658POPC   C3B60825  18.040   6.418   7.063
 4658POPC   C4B60826  17.913   6.782   7.357
 4659POPC   NC360827  36.171  12.285   5.434
 4659POPC   PO460828  35.586  12.078   5.393
 4659POPC   GL160829  35.892  12.034   5.786
 4659POPC   GL260830  36.281  12.015   5.831
 4659POPC   C1A60831  36.013  12.235   6.190
 4659POPC   D2A60832  36.059  11.974   6.542
 4659POPC   C3A60833  35.917  11.958   6.942
 4659POPC   C4A60834  36.033  12.316   7.182
 4659POPC   C1B60835  36.481  11.968   6.220
 4659POPC   C2B60836  36.507  11.751   6.594
 4659POPC   C3B60837  36.427  12.033   6.914
 4659POPC   C4B60838  36.451  12.057   7.344
 4660POPC   NC360839  39.846   5.446   5.316
 4660POPC   PO460840  40.171   4.807   5.461
 4660POPC   GL160841  39.961   5.104   5.749
 4660POPC   GL260842  40.123   5.451   5.794
 4660POPC   C1A60843  39.986   5.063   6.206
 4660POPC   D2A60844  39.862   4.808   6.578
 4660POPC   C3A60845  39.913   4.963   6.981
 4660POPC   C4A60846  40.275   5.025   7.162
 4660POPC   C1B60847  40.099   5.566   6.250
 4660POPC   C2B60848  40.230   5.529   6.697
 4660POPC   C3B60849  40.234   5.533   7.150
 4660POPC   C4B60850  39.960   5.471   7.509
 4661POPC   NC360851  21.492   8.827   5.443
 4661POPC   PO460852  20.949   9.228   5.424
 4661POPC   GL160853  21.063   8.970   5.806
 4661POPC   GL260854  21.362   8.810   5.913
 4661POPC   C1A60855  20.983   8.941   6.234
 4661POPC   D2A60856  21.267   8.970   6.562
 4661POPC   C3A60857  21.074   8.935   6.943
 4661POPC   C4A60858  21.168   8.828   7.326
 4661POPC   C1B60859  21.395   8.553   6.233
 4661POPC   C2B60860  21.541   8.546   6.652
 4661POPC   C3B60861  21.594   8.861   6.962
 4661POPC   C4B60862  21.521   9.206   7.200
 4662POPC   NC360863  17.377   8.276   5.345
 4662POPC   PO460864  17.874   8.627   5.466
 4662POPC   GL160865  17.812   8.367   5.826
 4662POPC   GL260866  17.491   8.259   5.832
 4662POPC   C1A60867  17.793   8.226   6.255
 4662POPC   D2A60868  17.529   8.362   6.595
 4662POPC   C3A60869  17.638   8.166   6.996
 4662POPC   C4A60870  17.584   8.346   7.417
 4662POPC   C1B60871  17.210   8.413   6.146
 4662POPC   C2B60872  17.010   8.253   6.516
 4662POPC   C3B60873  17.141   8.328   6.952
 4662POPC   C4B60874  17.068   8.510   7.353
 4663POPC   NC360875  33.369  29.037   5.456
 4663POPC   PO460876  32.696  29.308   5.380
 4663POPC   GL160877  32.971  29.177   5.758
 4663POPC   GL260878  32.813  28.904   5.988
 4663POPC   C1A60879  33.240  29.089   6.151
 4663POPC   D2A60880  32.987  28.922   6.497
 4663POPC   C3A60881  33.074  29.082   6.887
 4663POPC   C4A60882  33.182  29.175   7.282
 4663POPC   C1B60883  32.774  29.320   6.238
 4663POPC   C2B60884  32.708  29.464   6.686
 4663POPC   C3B60885  32.754  29.411   7.159
 4663POPC   C4B60886  32.885  29.562   7.581
 4664POPC   NC360887  14.389  17.650   5.449
 4664POPC   PO460888  14.619  17.027   5.595
 4664POPC   GL160889  14.341  17.230   5.880
 4664POPC   GL260890  14.251  17.587   5.931
 4664POPC   C1A60891  14.341  17.221   6.319
 4664POPC   D2A60892  14.682  17.233   6.610
 4664POPC   C3A60893  14.562  17.176   7.020
 4664POPC   C4A60894  14.202  17.368   7.235
 4664POPC   C1B60895  14.282  17.723   6.354
 4664POPC   C2B60896  14.329  17.572   6.769
 4664POPC   C3B60897  14.544  17.723   7.151
 4664POPC   C4B60898  14.586  18.016   7.508
 4665POPC   NC360899  23.626  27.761   5.491
 4665POPC   PO460900  23.552  27.113   5.457
 4665POPC   GL160901  23.552  27.373   5.842
 4665POPC   GL260902  23.448  27.749   5.969
 4665POPC   C1A60903  23.365  27.335   6.235
 4665POPC   D2A60904  23.461  27.650   6.526
 4665POPC   C3A60905  23.464  27.455   6.901
 4665POPC   C4A60906  23.430  27.390   7.314
 4665POPC   C1B60907  23.269  28.077   6.276
 4665POPC   C2B60908  23.464  28.187   6.716
 4665POPC   C3B60909  23.553  27.917   7.113
 4665POPC   C4B60910  23.488  27.815   7.575
 4666POPC   NC360911  16.146  28.219   5.330
 4666POPC   PO460912  15.791  28.816   5.365
 4666POPC   GL160913  15.665  28.500   5.686
 4666POPC   GL260914  15.602  28.114   5.709
 4666POPC   C1A60915  15.926  28.439   6.054
 4666POPC   D2A60916  16.030  28.230   6.479
 4666POPC   C3A60917  15.948  28.354   6.926
 4666POPC   C4A60918  16.197  28.603   7.229
 4666POPC   C1B60919  15.619  28.071   6.199
 4666POPC   C2B60920  15.629  27.956   6.659
 4666POPC   C3B60921  15.514  28.122   7.085
 4666POPC   C4B60922  15.746  28.321   7.477
 4667POPC   NC360923  26.959   1.593   5.576
 4667POPC   PO460924  26.745   0.984   5.503
 4667POPC   GL160925  26.618   1.271   5.854
 4667POPC   GL260926  26.574   1.649   5.913
 4667POPC   C1A60927  26.859   1.396   6.244
 4667POPC   D2A60928  26.766   1.246   6.656
 4667POPC   C3A60929  26.992   1.330   7.039
 4667POPC   C4A60930  27.175   0.969   7.246
 4667POPC   C1B60931  26.345   1.440   6.254
 4667POPC   C2B60932  26.263   1.321   6.658
 4667POPC   C3B60933  26.351   1.536   7.066
 4667POPC   C4B60934  26.662   1.547   7.394
 4668POPC   NC360935  20.353  36.903   5.262
 4668POPC   PO460936  19.617  36.884   5.264
 4668POPC   GL160937  19.777  36.897   5.666
 4668POPC   GL260938  19.918  36.584   5.640
 4668POPC   C1A60939  19.571  36.968   6.075
 4668POPC   D2A60940  19.505  36.610   6.379
 4668POPC   C3A60941  19.576  36.645   6.822
 4668POPC   C4A60942  19.738  36.964   7.055
 4668POPC   C1B60943  20.014  36.690   6.104
 4668POPC   C2B60944  19.906  36.975   6.473
 4668POPC   C3B60945  20.186  37.021   6.837
 4668POPC   C4B60946  20.286  36.925   7.264
 4669POPC   NC360947  31.303  12.039   5.373
 4669POPC   PO460948  31.894  12.065   5.505
 4669POPC   GL160949  31.575  12.161   5.833
 4669POPC   GL260950  31.368  11.868   5.860
 4669POPC   C1A60951  31.483  12.118   6.308
 4669POPC   D2A60952  31.305  12.276   6.712
 4669POPC   C3A60953  31.573  12.274   7.102
 4669POPC   C4A60954  31.846  12.423   7.454
 4669POPC   C1B60955  31.250  11.623   6.210
 4669POPC   C2B60956  31.183  11.740   6.620
 4669POPC   C3B60957  31.323  11.798   7.031
 4669POPC   C4B60958  31.274  12.002   7.401
 4670POPC   NC360959   2.150  34.879   5.509
 4670POPC   PO460960   1.831  34.216   5.432
 4670POPC   GL160961   2.010  34.457   5.786
 4670POPC   GL260962   1.782  34.703   5.894
 4670POPC   C1A60963   2.247  34.616   6.134
 4670POPC   D2A60964   2.015  34.710   6.494
 4670POPC   C3A60965   2.234  34.636   6.830
 4670POPC   C4A60966   2.222  34.499   7.198
 4670POPC   C1B60967   1.542  34.892   6.210
 4670POPC   C2B60968   1.592  34.955   6.648
 4670POPC   C3B60969   1.737  34.660   6.972
 4670POPC   C4B60970   1.789  34.639   7.415
 4671POPC   NC360971   0.392  14.386   5.327
 4671POPC   PO460972   0.806  14.790   5.633
 4671POPC   GL160973   0.610  14.561   5.913
 4671POPC   GL260974   0.275  14.467   5.831
 4671POPC   C1A60975   0.672  14.599   6.350
 4671POPC   D2A60976   0.677  14.464   6.777
 4671POPC   C3A60977   0.401  14.614   7.090
 4671POPC   C4A60978   0.077  14.862   7.249
 4671POPC   C1B60979   0.158  14.614   6.210
 4671POPC   C2B60980   0.127  14.339   6.552
 4671POPC   C3B60981   0.250  14.142   6.923
 4671POPC   C4B60982   0.197  13.932   7.309
 4672POPC   NC360983  39.704  43.787   5.124
 4672POPC   PO460984  39.050  43.780   5.439
 4672POPC   GL160985  39.194  43.832   5.829
 4672POPC   GL260986  39.343  44.119   5.749
 4672POPC   C1A60987  39.189  43.785   6.262
 4672POPC   D2A60988  38.952  43.892   6.608
 4672POPC   C3A60989  39.237  43.930   6.917
 4672POPC   C4A60990  39.450  43.749   7.277
 4672POPC   C1B60991  39.455  44.227   6.142
 4672POPC   C2B60992  39.434  44.304   6.562
 4672POPC   C3B60993  39.578  44.291   6.999
 4672POPC   C4B60994  39.319  44.244   7.306
 4673POPC   NC360995  23.150   0.476   5.095
 4673POPC   PO460996  22.713   0.116   5.451
 4673POPC   GL160997  22.938   0.310   5.805
 4673POPC   GL260998  22.688   0.238   5.988
 4673POPC   C1A60999  23.177   0.499   6.194
 4673POPC   D2A61000  23.343   0.704   6.582
 4673POPC   C3A61001  23.176   0.469   6.971
 4673POPC   C4A61002  23.299   0.106   7.253
 4673POPC   C1B61003  22.737   0.325   6.411
 4673POPC   C2B61004  22.824   0.690   6.618
 4673POPC   C3B61005  22.622   0.878   6.924
 4673POPC   C4B61006  22.789   0.677   7.265
 4674POPC   NC361007   4.547  35.766   5.411
 4674POPC   PO461008   5.147  36.160   5.262
 4674POPC   GL161009   5.260  36.252   5.702
 4674POPC   GL261010   5.341  35.911   5.801
 4674POPC   C1A61011   5.066  36.192   6.150
 4674POPC   D2A61012   4.695  36.114   6.459
 4674POPC   C3A61013   4.807  35.945   6.885
 4674POPC   C4A61014   5.092  35.946   7.268
 4674POPC   C1B61015   5.395  35.739   6.202
 4674POPC   C2B61016   5.188  35.746   6.592
 4674POPC   C3B61017   5.290  35.594   6.982
 4674POPC   C4B61018   5.571  35.709   7.301
 4675POPC   NC361019  30.995  25.586   5.413
 4675POPC   PO461020  30.711  25.062   5.523
 4675POPC   GL161021  30.875  25.294   5.811
 4675POPC   GL261022  30.637  25.595   5.797
 4675POPC   C1A61023  30.808  25.124   6.206
 4675POPC   D2A61024  30.466  25.179   6.498
 4675POPC   C3A61025  30.647  25.123   6.875
 4675POPC   C4A61026  30.879  25.056   7.228
 4675POPC   C1B61027  30.877  25.632   6.195
 4675POPC   C2B61028  30.927  25.443   6.588
 4675POPC   C3B61029  30.833  25.603   6.975
 4675POPC   C4B61030  30.525  25.487   7.214
 4676POPC   NC361031   5.033  11.432   5.277
 4676POPC   PO461032   5.637  11.565   5.285
 4676POPC   GL161033   5.444  11.473   5.739
 4676POPC   GL261034   5.088  11.355   5.791
 4676POPC   C1A61035   5.405  11.346   6.219
 4676POPC   D2A61036   5.235  11.377   6.672
 4676POPC   C3A61037   5.464  11.204   7.063
 4676POPC   C4A61038   5.580  11.133   7.567
 4676POPC   C1B61039   4.865  11.358   6.210
 4676POPC   C2B61040   4.743  11.213   6.634
 4676POPC   C3B61041   4.852  11.174   7.064
 4676POPC   C4B61042   5.092  11.166   7.441
 4677POPC   NC361043  35.912  42.574   5.485
 4677POPC   PO461044  36.144  43.276   5.599
 4677POPC   GL161045  36.367  43.170   5.935
 4677POPC   GL261046  36.299  42.833   5.885
 4677POPC   C1A61047  36.281  43.162   6.328
 4677POPC   D2A61048  35.956  43.098   6.585
 4677POPC   C3A61049  36.182  43.295   6.889
 4677POPC   C4A61050  36.158  43.358   7.300
 4677POPC   C1B61051  36.308  42.664   6.302
 4677POPC   C2B61052  36.343  42.805   6.746
 4677POPC   C3B61053  36.382  42.875   7.181
 4677POPC   C4B61054  36.446  42.636   7.584
 4678POPC   NC361055  41.336  32.936   5.471
 4678POPC   PO461056  41.635  33.557   5.548
 4678POPC   GL161057  41.594  33.209   5.837
 4678POPC   GL261058  41.893  33.008   5.801
 4678POPC   C1A61059  41.316  33.022   6.174
 4678POPC   D2A61060  41.091  33.013   6.572
 4678POPC   C3A61061  41.297  33.175   6.921
 4678POPC   C4A61062  41.430  32.951   7.258
 4678POPC   C1B61063  41.815  32.979   6.246
 4678POPC   C2B61064  41.624  32.878   6.631
 4678POPC   C3B61065  41.864  32.879   7.008
 4678POPC   C4B61066  41.851  32.654   7.409
 4679POPC   NC361067  26.156  39.500   5.393
 4679POPC   PO461068  25.591  39.175   5.290
 4679POPC   GL161069  25.770  39.203   5.714
 4679POPC   GL261070  25.653  38.869   5.742
 4679POPC   C1A61071  26.130  39.239   6.036
 4679POPC   D2A61072  26.298  39.160   6.469
 4679POPC   C3A61073  26.065  39.349   6.823
 4679POPC   C4A61074  26.045  39.378   7.271
 4679POPC   C1B61075  25.829  38.850   6.135
 4679POPC   C2B61076  25.767  39.054   6.498
 4679POPC   C3B61077  25.770  38.882   6.897
 4679POPC   C4B61078  25.745  38.974   7.309
 4680POPC   NC361079  23.873  41.344   5.401
 4680POPC   PO461080  23.503  41.843   5.414
 4680POPC   GL161081  23.607  41.714   5.840
 4680POPC   GL261082  23.974  41.662   5.801
 4680POPC   C1A61083  23.437  41.605   6.277
 4680POPC   D2A61084  23.571  41.487   6.703
 4680POPC   C3A61085  23.656  41.783   7.074
 4680POPC   C4A61086  24.039  41.893   7.222
 4680POPC   C1B61087  23.971  41.594   6.250
 4680POPC   C2B61088  24.041  41.717   6.688
 4680POPC   C3B61089  24.009  41.411   7.014
 4680POPC   C4B61090  24.037  41.411   7.440
 4681POPC   NC361091  28.065  24.422   5.545
 4681POPC   PO461092  28.363  25.007   5.465
 4681POPC   GL161093  28.383  24.691   5.843
 4681POPC   GL261094  28.613  24.386   5.921
 4681POPC   C1A61095  28.309  24.648   6.297
 4681POPC   D2A61096  28.527  24.682   6.711
 4681POPC   C3A61097  28.281  24.654   7.091
 4681POPC   C4A61098  28.396  24.572   7.550
 4681POPC   C1B61099  28.589  24.204   6.377
 4681POPC   C2B61100  28.355  24.208   6.778
 4681POPC   C3B61101  28.354  24.184   7.211
 4681POPC   C4B61102  28.657  24.122   7.498
 4682POPC   NC361103  24.341  30.141   5.330
 4682POPC   PO461104  24.438  29.521   5.458
 4682POPC   GL161105  24.326  29.800   5.779
 4682POPC   GL261106  24.587  30.063   5.784
 4682POPC   C1A61107  24.351  29.894   6.220
 4682POPC   D2A61108  24.594  29.734   6.569
 4682POPC   C3A61109  24.455  29.772   6.993
 4682POPC   C4A61110  24.767  29.676   7.285
 4682POPC   C1B61111  24.712  30.270   6.183
 4682POPC   C2B61112  24.831  30.195   6.646
 4682POPC   C3B61113  24.724  30.211   7.120
 4682POPC   C4B61114  24.811  30.281   7.617
 4683POPC   NC361115   6.177  27.310   5.608
 4683POPC   PO461116   6.020  27.926   5.457
 4683POPC   GL161117   5.825  27.740   5.848
 4683POPC   GL261118   5.657  27.428   5.785
 4683POPC   C1A61119   5.864  27.598   6.296
 4683POPC   D2A61120   5.732  27.764   6.723
 4683POPC   C3A61121   5.905  27.629   7.102
 4683POPC   C4A61122   5.845  27.929   7.430
 4683POPC   C1B61123   5.408  27.366   6.168
 4683POPC   C2B61124   5.542  27.311   6.601
 4683POPC   C3B61125   5.441  27.409   7.044
 4683POPC   C4B61126   5.649  27.316   7.460
 4684POPC   NC361127   6.466  17.679   5.481
 4684POPC   PO461128   7.077  17.516   5.458
 4684POPC   GL161129   6.785  17.412   5.796
 4684POPC   GL261130   6.468  17.224   5.727
 4684POPC   C1A61131   6.734  17.385   6.252
 4684POPC   D2A61132   6.743  17.637   6.614
 4684POPC   C3A61133   6.741  17.475   7.036
 4684POPC   C4A61134   6.806  17.848   7.253
 4684POPC   C1B61135   6.278  17.466   6.074
 4684POPC   C2B61136   6.250  17.458   6.531
 4684POPC   C3B61137   6.239  17.592   6.969
 4684POPC   C4B61138   6.222  17.327   7.347
 4685POPC   NC361139   2.440  36.610   5.439
 4685POPC   PO461140   2.961  37.106   5.451
 4685POPC   GL161141   2.869  36.784   5.781
 4685POPC   GL261142   2.551  36.871   5.892
 4685POPC   C1A61143   2.995  36.691   6.205
 4685POPC   D2A61144   2.918  37.045   6.472
 4685POPC   C3A61145   2.945  37.029   6.914
 4685POPC   C4A61146   2.687  37.200   7.249
 4685POPC   C1B61147   2.492  36.636   6.285
 4685POPC   C2B61148   2.680  36.620   6.689
 4685POPC   C3B61149   2.563  36.702   7.094
 4685POPC   C4B61150   2.682  36.766   7.506
 4686POPC   NC361151  27.145  32.554   5.457
 4686POPC   PO461152  26.616  32.948   5.377
 4686POPC   GL161153  26.635  33.040   5.794
 4686POPC   GL261154  26.977  32.902   5.780
 4686POPC   C1A61155  26.867  33.222   6.139
 4686POPC   D2A61156  26.717  33.256   6.531
 4686POPC   C3A61157  26.934  33.491   6.833
 4686POPC   C4A61158  26.890  33.269   7.235
 4686POPC   C1B61159  26.819  32.720   6.149
 4686POPC   C2B61160  26.827  32.678   6.547
 4686POPC   C3B61161  26.801  32.901   6.904
 4686POPC   C4B61162  26.872  32.687   7.258
 4687POPC   NC361163  22.297   9.428   5.586
 4687POPC   PO461164  21.899   8.927   5.269
 4687POPC   GL161165  21.813   9.045   5.783
 4687POPC   GL261166  22.038   9.249   6.004
 4687POPC   C1A61167  21.731   8.968   6.283
 4687POPC   D2A61168  22.001   8.807   6.646
 4687POPC   C3A61169  22.049   9.097   7.022
 4687POPC   C4A61170  22.034   9.132   7.506
 4687POPC   C1B61171  22.354   9.118   6.373
 4687POPC   C2B61172  22.549   9.098   6.841
 4687POPC   C3B61173  22.494   9.152   7.311
 4687POPC   C4B61174  22.509   8.960   7.690
 4688POPC   NC361175   4.845  20.107   5.389
 4688POPC   PO461176   5.092  19.429   5.418
 4688POPC   GL161177   5.102  19.749   5.745
 4688POPC   GL261178   5.210  20.091   5.755
 4688POPC   C1A61179   4.993  19.818   6.184
 4688POPC   D2A61180   4.995  19.514   6.522
 4688POPC   C3A61181   5.129  19.667   6.905
 4688POPC   C4A61182   4.900  19.909   7.147
 4688POPC   C1B61183   5.425  20.115   6.160
 4688POPC   C2B61184   5.313  19.982   6.563
 4688POPC   C3B61185   5.329  20.140   7.010
 4688POPC   C4B61186   5.233  20.092   7.476
 4689POPC   NC361187  12.751  31.181   5.125
 4689POPC   PO461188  12.966  31.733   5.341
 4689POPC   GL161189  12.925  31.566   5.839
 4689POPC   GL261190  12.569  31.512   5.884
 4689POPC   C1A61191  13.158  31.403   6.272
 4689POPC   D2A61192  13.271  31.402   6.753
 4689POPC   C3A61193  13.145  31.709   7.108
 4689POPC   C4A61194  13.231  32.022   7.447
 4689POPC   C1B61195  12.662  31.327   6.297
 4689POPC   C2B61196  12.758  31.470   6.745
 4689POPC   C3B61197  12.598  31.704   7.093
 4689POPC   C4B61198  12.747  31.844   7.493
 4690POPC   NC361199  20.061  22.982   5.547
 4690POPC   PO461200  19.325  23.109   5.460
 4690POPC   GL161201  19.510  23.178   5.813
 4690POPC   GL261202  19.600  22.860   5.930
 4690POPC   C1A61203  19.788  23.265   6.166
 4690POPC   D2A61204  19.994  23.394   6.530
 4690POPC   C3A61205  19.914  23.103   6.874
 4690POPC   C4A61206  20.204  22.905   7.122
 4690POPC   C1B61207  19.787  22.592   6.264
 4690POPC   C2B61208  19.979  22.608   6.672
 4690POPC   C3B61209  19.829  22.576   7.061
 4690POPC   C4B61210  19.662  22.895   7.286
 4691POPC   NC361211   6.605  20.806   5.360
 4691POPC   PO461212   6.799  20.209   5.533
 4691POPC   GL161213   6.584  20.475   5.782
 4691POPC   GL261214   6.710  20.817   5.865
 4691POPC   C1A61215   6.586  20.445   6.214
 4691POPC   D2A61216   6.478  20.324   6.619
 4691POPC   C3A61217   6.786  20.446   6.931
 4691POPC   C4A61218   6.621  20.375   7.319
 4691POPC   C1B61219   6.583  20.959   6.287
 4691POPC   C2B61220   6.488  20.838   6.712
 4691POPC   C3B61221   6.550  20.865   7.147
 4691POPC   C4B61222   6.863  20.838   7.440
 4692POPC   NC361223   1.506  36.283   5.585
 4692POPC   PO461224   2.148  36.166   5.448
 4692POPC   GL161225   1.911  36.035   5.824
 4692POPC   GL261226   1.758  36.306   6.018
 4692POPC   C1A61227   1.698  35.866   6.216
 4692POPC   D2A61228   1.714  36.151   6.523
 4692POPC   C3A61229   2.007  36.094   6.795
 4692POPC   C4A61230   2.055  35.967   7.197
 4692POPC   C1B61231   1.966  36.611   6.285
 4692POPC   C2B61232   2.147  36.587   6.691
 4692POPC   C3B61233   2.081  36.489   7.127
 4692POPC   C4B61234   1.750  36.357   7.433
 4693POPC   NC361235  30.584  41.226   5.421
 4693POPC   PO461236  31.251  41.392   5.360
 4693POPC   GL161237  30.881  41.570   5.627
 4693POPC   GL261238  30.874  41.255   5.824
 4693POPC   C1A61239  30.881  41.679   6.110
 4693POPC   D2A61240  31.105  41.607   6.526
 4693POPC   C3A61241  30.811  41.415   6.814
 4693POPC   C4A61242  30.700  41.579   7.188
 4693POPC   C1B61243  30.504  41.264   6.108
 4693POPC   C2B61244  30.386  41.476   6.493
 4693POPC   C3B61245  30.271  41.416   6.921
 4693POPC   C4B61246  30.401  41.181   7.274
 4694POPC   NC361247  25.628  44.959   5.481
 4694POPC   PO461248  25.131  44.514   5.493
 4694POPC   GL161249  25.376  44.615   5.814
 4694POPC   GL261250  25.161  44.826   5.993
 4694POPC   C1A61251  25.551  44.467   6.206
 4694POPC   D2A61252  25.381  44.373   6.615
 4694POPC   C3A61253  25.433  44.750   6.860
 4694POPC   C4A61254  25.320  44.802   7.273
 4694POPC   C1B61255  25.027  44.414   6.188
 4694POPC   C2B61256  24.939  44.123   6.509
 4694POPC   C3B61257  24.973  44.224   6.948
 4694POPC   C4B61258  24.970  44.418   7.346
 4695POPC   NC361259  17.734  28.139   5.298
 4695POPC   PO461260  17.225  28.372   5.534
 4695POPC   GL161261  17.403  28.144   5.857
 4695POPC   GL261262  17.755  28.220   5.814
 4695POPC   C1A61263  17.501  28.217   6.299
 4695POPC   D2A61264  17.261  28.404   6.643
 4695POPC   C3A61265  17.283  28.334   7.105
 4695POPC   C4A61266  17.332  28.458   7.561
 4695POPC   C1B61267  17.720  28.618   6.060
 4695POPC   C2B61268  17.787  28.610   6.513
 4695POPC   C3B61269  17.717  28.736   6.947
 4695POPC   C4B61270  17.519  28.879   7.338
 4696POPC   NC361271  41.621   4.699   5.516
 4696POPC   PO461272  41.802   5.260   5.272
 4696POPC   GL161273  41.778   5.128   5.749
 4696POPC   GL261274  41.449   5.016   5.930
 4696POPC   C1A61275  41.859   4.983   6.192
 4696POPC   D2A61276  41.688   4.798   6.558
 4696POPC   C3A61277  41.762   5.111   6.867
 4696POPC   C4A61278  41.890   5.106   7.273
 4696POPC   C1B61279  41.161   4.988   6.280
 4696POPC   C2B61280  41.223   4.934   6.707
 4696POPC   C3B61281  41.360   4.905   7.108
 4696POPC   C4B61282  41.147   5.091   7.428
 4697POPC   NC361283  42.828  29.474   5.341
 4697POPC   PO461284  43.152  28.912   5.323
 4697POPC   GL161285  43.042  29.142   5.690
 4697POPC   GL261286  42.691  29.077   5.665
 4697POPC   C1A61287  43.200  29.062   6.118
 4697POPC   D2A61288  43.231  28.889   6.537
 4697POPC   C3A61289  43.211  29.193   6.877
 4697POPC   C4A61290  43.404  29.207   7.273
 4697POPC   C1B61291  42.702  29.228   6.106
 4697POPC   C2B61292  42.843  29.322   6.519
 4697POPC   C3B61293  42.690  29.229   6.921
 4697POPC   C4B61294  42.689  29.088   7.307
 4698POPC   NC361295   4.734   9.185   5.481
 4698POPC   PO461296   4.130   8.898   5.370
 4698POPC   GL161297   4.371   8.890   5.724
 4698POPC   GL261298   4.345   9.227   5.811
 4698POPC   C1A61299   4.369   8.838   6.154
 4698POPC   D2A61300   4.198   9.010   6.518
 4698POPC   C3A61301   4.122   8.861   6.905
 4698POPC   C4A61302   4.316   8.863   7.289
 4698POPC   C1B61303   4.079   9.377   6.132
 4698POPC   C2B61304   4.119   9.518   6.546
 4698POPC   C3B61305   4.386   9.334   6.877
 4698POPC   C4B61306   4.278   9.385   7.294
 4699POPC   NC361307  39.712  32.465   5.565
 4699POPC   PO461308  40.216  32.028   5.430
 4699POPC   GL161309  40.100  32.226   5.819
 4699POPC   GL261310  40.402  32.221   5.943
 4699POPC   C1A61311  39.991  32.503   6.208
 4699POPC   D2A61312  39.733  32.603   6.599
 4699POPC   C3A61313  39.912  32.604   7.035
 4699POPC   C4A61314  39.701  32.634   7.407
 4699POPC   C1B61315  40.374  32.207   6.377
 4699POPC   C2B61316  40.170  32.281   6.742
 4699POPC   C3B61317  40.196  32.210   7.176
 4699POPC   C4B61318  39.841  32.121   7.400
 4700POPC   NC361319  29.442  31.875   5.486
 4700POPC   PO461320  29.144  31.211   5.458
 4700POPC   GL161321  29.164  31.518   5.769
 4700POPC   GL261322  29.544  31.475   5.795
 4700POPC   C1A61323  28.995  31.765   6.138
 4700POPC   D2A61324  29.212  31.933   6.532
 4700POPC   C3A61325  29.153  31.752   6.956
 4700POPC   C4A61326  28.897  31.465   7.197
 4700POPC   C1B61327  29.440  31.528   6.220
 4700POPC   C2B61328  29.208  31.378   6.566
 4700POPC   C3B61329  29.279  31.221   6.969
 4700POPC   C4B61330  29.619  31.193   7.255
 4701POPC   NC361331  13.296  28.695   4.935
 4701POPC   PO461332  12.945  29.057   5.427
 4701POPC   GL161333  12.882  29.251   5.823
 4701POPC   GL261334  12.699  29.533   5.891
 4701POPC   C1A61335  12.876  29.196   6.253
 4701POPC   D2A61336  12.723  29.164   6.675
 4701POPC   C3A61337  12.935  29.214   7.068
 4701POPC   C4A61338  12.764  28.951   7.336
 4701POPC   C1B61339  12.485  29.499   6.268
 4701POPC   C2B61340  12.535  29.628   6.701
 4701POPC   C3B61341  12.467  29.391   7.104
 4701POPC   C4B61342  12.459  29.384   7.588
 4702POPC   NC361343  33.806  11.284   5.393
 4702POPC   PO461344  34.276  10.814   5.515
 4702POPC   GL161345  34.072  10.837   5.903
 4702POPC   GL261346  33.915  11.155   5.895
 4702POPC   C1A61347  34.144  10.987   6.338
 4702POPC   D2A61348  34.003  11.309   6.626
 4702POPC   C3A61349  33.986  11.171   7.040
 4702POPC   C4A61350  33.936  11.258   7.449
 4702POPC   C1B61351  33.643  11.168   6.272
 4702POPC   C2B61352  33.473  11.498   6.493
 4702POPC   C3B61353  33.539  11.688   6.891
 4702POPC   C4B61354  33.534  11.545   7.301
 4703POPC   NC361355  44.934  32.328   5.606
 4703POPC   PO461356  44.314  32.108   5.589
 4703POPC   GL161357  44.514  32.289   5.933
 4703POPC   GL261358  44.882  32.222   6.083
 4703POPC   C1A61359  44.454  32.151   6.331
 4703POPC   D2A61360  44.725  32.196   6.634
 4703POPC   C3A61361  44.514  32.045   6.976
 4703POPC   C4A61362  44.552  32.081   7.414
 4703POPC   C1B61363  44.932  31.846   6.284
 4703POPC   C2B61364  44.847  31.705   6.689
 4703POPC   C3B61365  44.962  31.830   7.101
 4703POPC   C4B61366   0.234  31.632   7.395
 4704POPC   NC361367   1.494   5.875   5.355
 4704POPC   PO461368   0.855   5.994   5.330
 4704POPC   GL161369   1.100   5.970   5.727
 4704POPC   GL261370   1.370   6.152   5.807
 4704POPC   C1A61371   1.048   6.114   6.184
 4704POPC   D2A61372   1.038   5.893   6.580
 4704POPC   C3A61373   1.149   6.070   6.984
 4704POPC   C4A61374   1.318   5.795   7.318
 4704POPC   C1B61375   1.566   6.052   6.259
 4704POPC   C2B61376   1.719   6.096   6.717
 4704POPC   C3B61377   1.600   6.303   7.117
 4704POPC   C4B61378   1.300   6.279   7.461
 4705POPC   NC361379  20.050  43.345   5.425
 4705POPC   PO461380  19.485  42.975   5.389
 4705POPC   GL161381  19.753  43.081   5.765
 4705POPC   GL261382  20.139  43.084   5.847
 4705POPC   C1A61383  19.771  43.067   6.223
 4705POPC   D2A61384  19.529  43.280   6.513
 4705POPC   C3A61385  19.465  43.089   6.881
 4705POPC   C4A61386  19.493  43.361   7.224
 4705POPC   C1B61387  20.119  43.415   6.162
 4705POPC   C2B61388  20.017  43.446   6.595
 4705POPC   C3B61389  19.895  43.587   6.985
 4705POPC   C4B61390  19.882  43.575   7.432
 4706POPC   NC361391  19.362  28.787   5.438
 4706POPC   PO461392  18.898  28.293   5.376
 4706POPC   GL161393  19.084  28.443   5.710
 4706POPC   GL261394  19.198  28.137   5.836
 4706POPC   C1A61395  19.042  28.555   6.115
 4706POPC   D2A61396  19.277  28.664   6.454
 4706POPC   C3A61397  19.080  28.536   6.817
 4706POPC   C4A61398  19.022  28.607   7.257
 4706POPC   C1B61399  19.075  28.064   6.265
 4706POPC   C2B61400  18.964  28.054   6.664
 4706POPC   C3B61401  19.035  28.113   7.089
 4706POPC   C4B61402  19.155  28.145   7.525
 4707POPC   NC361403  17.293   5.790   5.395
 4707POPC   PO461404  17.909   6.034   5.306
 4707POPC   GL161405  17.742   5.898   5.778
 4707POPC   GL261406  17.501   5.668   5.837
 4707POPC   C1A61407  17.415   5.965   6.222
 4707POPC   D2A61408  17.200   6.029   6.635
 4707POPC   C3A61409  17.260   5.734   6.977
 4707POPC   C4A61410  17.368   5.860   7.390
 4707POPC   C1B61411  17.832   5.690   6.209
 4707POPC   C2B61412  17.650   5.616   6.630
 4707POPC   C3B61413  17.761   5.618   7.060
 4707POPC   C4B61414  17.734   5.564   7.537
 4708POPC   NC361415  16.690   9.150   5.368
 4708POPC   PO461416  16.380   8.609   5.535
 4708POPC   GL161417  16.565   8.839   5.843
 4708POPC   GL261418  16.424   9.196   5.809
 4708POPC   C1A61419  16.842   8.769   6.224
 4708POPC   D2A61420  17.092   8.748   6.596
 4708POPC   C3A61421  16.844   8.848   7.004
 4708POPC   C4A61422  16.757   8.921   7.457
 4708POPC   C1B61423  16.837   9.229   6.022
 4708POPC   C2B61424  16.899   9.252   6.467
 4708POPC   C3B61425  16.825   9.351   6.911
 4708POPC   C4B61426  16.458   9.256   7.159
 4709POPC   NC361427  27.533  29.478   5.549
 4709POPC   PO461428  28.044  30.001   5.440
 4709POPC   GL161429  27.711  30.037   5.819
 4709POPC   GL261430  27.648  29.721   5.956
 4709POPC   C1A61431  27.481  30.047   6.284
 4709POPC   D2A61432  27.384  29.865   6.710
 4709POPC   C3A61433  27.343  30.118   7.077
 4709POPC   C4A61434  27.629  30.319   7.352
 4709POPC   C1B61435  27.514  29.518   6.310
 4709POPC   C2B61436  27.345  29.327   6.658
 4709POPC   C3B61437  27.466  29.491   7.042
 4709POPC   C4B61438  27.585  29.746   7.347
 4710POPC   NC361439  32.591  13.931   5.159
 4710POPC   PO461440  32.071  13.661   5.616
 4710POPC   GL161441  32.053  13.450   5.961
 4710POPC   GL261442  32.105  13.820   6.094
 4710POPC   C1A61443  31.967  13.405   6.402
 4710POPC   D2A61444  32.029  13.795   6.606
 4710POPC   C3A61445  32.115  13.788   7.062
 4710POPC   C4A61446  32.125  13.419   7.273
 4710POPC   C1B61447  32.443  13.594   6.281
 4710POPC   C2B61448  32.416  13.470   6.690
 4710POPC   C3B61449  32.597  13.695   6.996
 4710POPC   C4B61450  32.571  13.600   7.410
 4711POPC   NC361451  40.640  11.412   5.390
 4711POPC   PO461452  40.432  12.121   5.409
 4711POPC   GL161453  40.526  11.864   5.793
 4711POPC   GL261454  40.844  11.676   5.804
 4711POPC   C1A61455  40.634  11.967   6.234
 4711POPC   D2A61456  40.821  12.361   6.386
 4711POPC   C3A61457  40.866  12.419   6.830
 4711POPC   C4A61458  40.694  12.284   7.217
 4711POPC   C1B61459  41.116  11.814   6.164
 4711POPC   C2B61460  41.160  12.010   6.593
 4711POPC   C3B61461  41.041  11.925   7.058
 4711POPC   C4B61462  41.126  11.641   7.430
 4712POPC   NC361463  34.452  42.194   5.539
 4712POPC   PO461464  34.590  42.711   5.195
 4712POPC   GL161465  34.601  42.656   5.707
 4712POPC   GL261466  34.344  42.791   5.909
 4712POPC   C1A61467  34.656  42.388   6.151
 4712POPC   D2A61468  34.715  42.223   6.620
 4712POPC   C3A61469  34.478  42.163   7.057
 4712POPC   C4A61470  34.500  42.032   7.526
 4712POPC   C1B61471  34.267  42.659   6.342
 4712POPC   C2B61472  34.138  42.738   6.772
 4712POPC   C3B61473  34.070  42.504   7.153
 4712POPC   C4B61474  34.361  42.511   7.484
 4713POPC   NC361475   3.195   9.837   5.406
 4713POPC   PO461476   3.915   9.874   5.397
 4713POPC   GL161477   3.723   9.632   5.745
 4713POPC   GL261478   3.558   9.940   5.796
 4713POPC   C1A61479   3.570   9.504   6.169
 4713POPC   D2A61480   3.353   9.691   6.513
 4713POPC   C3A61481   3.504   9.636   6.924
 4713POPC   C4A61482   3.502   9.391   7.305
 4713POPC   C1B61483   3.462  10.076   6.200
 4713POPC   C2B61484   3.342  10.206   6.622
 4713POPC   C3B61485   3.258  10.063   7.044
 4713POPC   C4B61486   3.580   9.925   7.365
 4714POPC   NC361487  33.790  18.560   5.491
 4714POPC   PO461488  34.073  18.027   5.321
 4714POPC   GL161489  33.892  18.116   5.718
 4714POPC   GL261490  33.564  18.016   5.684
 4714POPC   C1A61491  33.963  18.374   6.110
 4714POPC   D2A61492  33.880  18.129   6.480
 4714POPC   C3A61493  33.904  18.364   6.832
 4714POPC   C4A61494  33.750  18.399   7.231
 4714POPC   C1B61495  33.497  18.212   6.109
 4714POPC   C2B61496  33.597  18.556   6.443
 4714POPC   C3B61497  33.447  18.589   6.868
 4714POPC   C4B61498  33.236  18.419   7.247
 4715POPC   NC361499  26.886  25.466   5.435
 4715POPC   PO461500  26.746  24.832   5.492
 4715POPC   GL161501  27.055  25.093   5.795
 4715POPC   GL261502  27.099  25.483   5.890
 4715POPC   C1A61503  27.200  25.153   6.254
 4715POPC   D2A61504  27.134  25.382   6.662
 4715POPC   C3A61505  27.033  25.147   7.046
 4715POPC   C4A61506  26.606  25.003   7.206
 4715POPC   C1B61507  27.109  25.769   6.256
 4715POPC   C2B61508  26.850  25.849   6.639
 4715POPC   C3B61509  26.719  25.554   6.953
 4715POPC   C4B61510  26.766  25.454   7.383
 4716POPC   NC361511  30.502  19.554   5.460
 4716POPC   PO461512  31.085  19.850   5.577
 4716POPC   GL161513  30.824  19.754   5.918
 4716POPC   GL261514  30.477  19.793   5.899
 4716POPC   C1A61515  30.708  19.735   6.360
 4716POPC   D2A61516  30.503  19.706   6.729
 4716POPC   C3A61517  30.841  19.776   7.023
 4716POPC   C4A61518  30.941  19.590   7.401
 4716POPC   C1B61519  30.227  19.900   6.249
 4716POPC   C2B61520  30.094  20.045   6.631
 4716POPC   C3B61521  30.189  19.965   7.055
 4716POPC   C4B61522  30.427  19.620   7.247
 4717POPC   NC361523  31.256  20.271   5.531
 4717POPC   PO461524  30.666  20.699   5.452
 4717POPC   GL161525  30.581  20.585   5.855
 4717POPC   GL261526  30.756  20.254   5.777
 4717POPC   C1A61527  30.624  20.693   6.293
 4717POPC   D2A61528  30.961  20.577   6.559
 4717POPC   C3A61529  30.763  20.722   6.920
 4717POPC   C4A61530  30.531  20.863   7.277
 4717POPC   C1B61531  30.641  20.198   6.187
 4717POPC   C2B61532  30.558  20.249   6.616
 4717POPC   C3B61533  30.681  20.247   7.039
 4717POPC   C4B61534  30.564  20.076   7.397
 4718POPC   NC361535  16.105  32.574   5.453
 4718POPC   PO461536  15.650  32.187   5.162
 4718POPC   GL161537  15.691  32.283   5.667
 4718POPC   GL261538  15.996  32.417   5.902
 4718POPC   C1A61539  15.699  32.102   6.137
 4718POPC   D2A61540  15.985  32.009   6.508
 4718POPC   C3A61541  15.904  32.115   6.976
 4718POPC   C4A61542  15.676  31.951   7.365
 4718POPC   C1B61543  16.285  32.625   6.199
 4718POPC   C2B61544  16.263  32.498   6.627
 4718POPC   C3B61545  16.291  32.736   6.978
 4718POPC   C4B61546  16.283  32.594   7.361
 4719POPC   NC361547   4.579  19.330   5.327
 4719POPC   PO461548   3.955  18.965   5.583
 4719POPC   GL161549   4.303  19.096   5.854
 4719POPC   GL261550   4.408  19.419   5.796
 4719POPC   C1A61551   4.560  19.062   6.244
 4719POPC   D2A61552   4.655  19.167   6.692
 4719POPC   C3A61553   4.480  18.914   7.033
 4719POPC   C4A61554   4.050  18.897   7.223
 4719POPC   C1B61555   4.264  19.513   6.222
 4719POPC   C2B61556   4.149  19.341   6.640
 4719POPC   C3B61557   4.209  19.367   7.093
 4719POPC   C4B61558   4.149  19.496   7.532
 4720POPC   NC361559  29.720  24.153   5.282
 4720POPC   PO461560  30.016  23.611   5.443
 4720POPC   GL161561  30.111  23.456   5.842
 4720POPC   GL261562  29.830  23.659   5.940
 4720POPC   C1A61563  30.219  23.497   6.263
 4720POPC   D2A61564  29.953  23.546   6.623
 4720POPC   C3A61565  30.113  23.406   6.978
 4720POPC   C4A61566  29.927  23.305   7.342
 4720POPC   C1B61567  29.870  23.930   6.286
 4720POPC   C2B61568  30.243  23.960   6.520
 4720POPC   C3B61569  30.280  23.896   6.932
 4720POPC   C4B61570  29.940  23.844   7.195
 4721POPC   NC361571   8.931   0.007   5.288
 4721POPC   PO461572   9.075   0.526   5.518
 4721POPC   GL161573   9.098   0.059   5.784
 4721POPC   GL261574   8.929  44.705   5.736
 4721POPC   C1A61575   9.202  44.743   6.167
 4721POPC   D2A61576   8.962  44.518   6.512
 4721POPC   C3A61577   8.957  44.672   6.962
 4721POPC   C4A61578   9.201   0.020   7.190
 4721POPC   C1B61579   8.703  44.837   6.116
 4721POPC   C2B61580   8.547  44.854   6.571
 4721POPC   C3B61581   8.470  44.834   7.044
 4721POPC   C4B61582   8.728  44.967   7.398
 4722POPC   NC361583   4.784   1.058   5.119
 4722POPC   PO461584   4.220   1.407   5.250
 4722POPC   GL161585   4.315   1.311   5.710
 4722POPC   GL261586   4.281   0.954   5.762
 4722POPC   C1A61587   4.454   1.288   6.190
 4722POPC   D2A61588   4.563   1.084   6.595
 4722POPC   C3A61589   4.388   1.322   6.922
 4722POPC   C4A61590   4.415   1.666   7.196
 4722POPC   C1B61591   4.091   0.915   6.178
 4722POPC   C2B61592   4.104   0.823   6.636
 4722POPC   C3B61593   4.001   1.036   7.035
 4722POPC   C4B61594   3.983   0.973   7.504
 4723POPC   NC361595  32.079  35.644   5.115
 4723POPC   PO461596  32.478  35.196   5.416
 4723POPC   GL161597  32.252  35.307   5.833
 4723POPC   GL261598  31.892  35.213   5.946
 4723POPC   C1A61599  32.128  35.598   6.195
 4723POPC   D2A61600  32.066  35.751   6.617
 4723POPC   C3A61601  32.134  35.427   6.929
 4723POPC   C4A61602  32.453  35.346   7.262
 4723POPC   C1B61603  32.169  35.069   6.281
 4723POPC   C2B61604  32.062  34.917   6.691
 4723POPC   C3B61605  32.164  34.968   7.121
 4723POPC   C4B61606  32.032  35.098   7.524
 4724POPC   NC361607  42.240  19.281   5.603
 4724POPC   PO461608  42.616  18.850   5.366
 4724POPC   GL161609  42.553  18.925   5.796
 4724POPC   GL261610  42.245  18.812   5.891
 4724POPC   C1A61611  42.563  19.180   6.208
 4724POPC   D2A61612  42.755  19.337   6.603
 4724POPC   C3A61613  42.490  19.203   6.970
 4724POPC   C4A61614  42.245  18.985   7.329
 4724POPC   C1B61615  42.539  18.627   6.217
 4724POPC   C2B61616  42.625  18.812   6.630
 4724POPC   C3B61617  42.624  18.710   7.096
 4724POPC   C4B61618  42.410  18.463   7.453
 4725POPC   NC361619  31.169  42.654   5.381
 4725POPC   PO461620  31.736  42.191   5.299
 4725POPC   GL161621  31.552  42.400   5.626
 4725POPC   GL261622  31.545  42.064   5.794
 4725POPC   C1A61623  31.350  42.495   6.019
 4725POPC   D2A61624  31.430  42.418   6.460
 4725POPC   C3A61625  31.329  42.562   6.845
 4725POPC   C4A61626  31.504  42.596   7.224
 4725POPC   C1B61627  31.345  41.987   6.200
 4725POPC   C2B61628  31.588  41.935   6.582
 4725POPC   C3B61629  31.574  42.097   6.974
 4725POPC   C4B61630  31.249  42.170   7.215
 4726POPC   NC361631  39.187  11.704   5.429
 4726POPC   PO461632  39.316  10.998   5.394
 4726POPC   GL161633  39.400  11.307   5.721
 4726POPC   GL261634  39.066  11.388   5.811
 4726POPC   C1A61635  39.409  11.296   6.190
 4726POPC   D2A61636  39.296  10.988   6.524
 4726POPC   C3A61637  39.325  11.144   6.948
 4726POPC   C4A61638  38.982  11.187   7.199
 4726POPC   C1B61639  38.897  11.319   6.226
 4726POPC   C2B61640  38.962  11.374   6.669
 4726POPC   C3B61641  39.059  11.644   7.019
 4726POPC   C4B61642  39.063  11.619   7.465
 4727POPC   NC361643  41.018  38.197   5.699
 4727POPC   PO461644  41.402  38.583   5.235
 4727POPC   GL161645  41.566  38.443   5.666
 4727POPC   GL261646  41.829  38.649   5.813
 4727POPC   C1A61647  41.527  38.380   6.111
 4727POPC   D2A61648  41.679  38.288   6.487
 4727POPC   C3A61649  41.451  38.365   6.859
 4727POPC   C4A61650  41.483  38.235   7.261
 4727POPC   C1B61651  41.939  38.734   6.251
 4727POPC   C2B61652  41.823  38.719   6.714
 4727POPC   C3B61653  41.796  38.665   7.178
 4727POPC   C4B61654  41.859  38.397   7.546
 4728POPC   NC361655  35.005  43.735   5.145
 4728POPC   PO461656  35.596  43.842   5.523
 4728POPC   GL161657  35.307  43.748   5.833
 4728POPC   GL261658  35.060  43.531   5.648
 4728POPC   C1A61659  35.336  43.967   6.237
 4728POPC   D2A61660  35.169  44.045   6.657
 4728POPC   C3A61661  35.558  44.000   6.938
 4728POPC   C4A61662  35.645  43.731   7.290
 4728POPC   C1B61663  34.958  43.470   6.087
 4728POPC   C2B61664  35.153  43.542   6.477
 4728POPC   C3B61665  35.225  43.585   6.908
 4728POPC   C4B61666  35.232  43.337   7.261
 4729POPC   NC361667  14.530  43.518   5.758
 4729POPC   PO461668  14.078  43.234   5.384
 4729POPC   GL161669  14.208  43.119   5.807
 4729POPC   GL261670  14.145  43.343   6.051
 4729POPC   C1A61671  14.096  42.837   6.148
 4729POPC   D2A61672  14.069  42.760   6.591
 4729POPC   C3A61673  14.271  43.046   6.881
 4729POPC   C4A61674  14.612  42.944   7.157
 4729POPC   C1B61675  14.507  43.155   6.294
 4729POPC   C2B61676  14.648  43.418   6.628
 4729POPC   C3B61677  14.549  43.455   7.041
 4729POPC   C4B61678  14.123  43.559   7.222
 4730POPC   NC361679  14.967  14.551   5.381
 4730POPC   PO461680  15.580  14.555   5.641
 4730POPC   GL161681  15.198  14.539   5.876
 4730POPC   GL261682  14.895  14.277   5.804
 4730POPC   C1A61683  15.430  14.483   6.275
 4730POPC   D2A61684  15.601  14.218   6.589
 4730POPC   C3A61685  15.480  14.369   6.964
 4730POPC   C4A61686  15.342  14.277   7.377
 4730POPC   C1B61687  15.005  14.202   6.237
 4730POPC   C2B61688  15.069  14.413   6.654
 4730POPC   C3B61689  14.921  14.439   7.095
 4730POPC   C4B61690  14.612  14.508   7.419
 4731POPC   NC361691  17.707  38.317   5.519
 4731POPC   PO461692  17.722  37.613   5.350
 4731POPC   GL161693  17.607  37.720   5.794
 4731POPC   GL261694  17.927  37.608   5.909
 4731POPC   C1A61695  17.430  37.767   6.248
 4731POPC   D2A61696  17.144  37.705   6.627
 4731POPC   C3A61697  17.340  37.753   7.039
 4731POPC   C4A61698  17.759  37.784   7.257
 4731POPC   C1B61699  17.678  37.330   6.188
 4731POPC   C2B61700  17.517  37.338   6.633
 4731POPC   C3B61701  17.571  37.305   7.087
 4731POPC   C4B61702  17.415  37.000   7.399
 4732POPC   NC361703  26.286  38.402   5.402
 4732POPC   PO461704  25.645  38.388   5.454
 4732POPC   GL161705  25.967  38.473   5.786
 4732POPC   GL261706  26.173  38.787   5.740
 4732POPC   C1A61707  26.030  38.323   6.177
 4732POPC   D2A61708  25.888  38.121   6.545
 4732POPC   C3A61709  25.948  38.347   6.893
 4732POPC   C4A61710  25.878  38.189   7.288
 4732POPC   C1B61711  26.338  38.737   6.145
 4732POPC   C2B61712  26.139  38.682   6.539
 4732POPC   C3B61713  26.286  38.846   6.918
 4732POPC   C4B61714  26.133  38.655   7.255
 4733POPC   NC361715   1.817  44.139   5.216
 4733POPC   PO461716   1.936  43.657   5.647
 4733POPC   GL161717   2.110  43.964   5.841
 4733POPC   GL261718   1.849  44.161   5.792
 4733POPC   C1A61719   2.279  44.149   6.210
 4733POPC   D2A61720   2.123  44.112   6.643
 4733POPC   C3A61721   2.300  43.953   7.060
 4733POPC   C4A61722   2.084  44.031   7.457
 4733POPC   C1B61723   1.783  44.045   6.241
 4733POPC   C2B61724   1.724  43.770   6.564
 4733POPC   C3B61725   1.826  43.816   6.968
 4733POPC   C4B61726   1.635  43.923   7.290
 4734POPC   NC361727  18.521  31.001   5.461
 4734POPC   PO461728  18.245  30.460   5.175
 4734POPC   GL161729  18.200  30.588   5.654
 4734POPC   GL261730  18.207  30.935   5.850
 4734POPC   C1A61731  18.221  30.522   6.134
 4734POPC   D2A61732  18.206  30.814   6.488
 4734POPC   C3A61733  18.188  30.595   6.873
 4734POPC   C4A61734  18.349  30.555   7.270
 4734POPC   C1B61735  18.591  30.897   6.148
 4734POPC   C2B61736  18.636  31.098   6.575
 4734POPC   C3B61737  18.565  30.950   7.012
 4734POPC   C4B61738  18.526  31.125   7.445
 4735POPC   NC361739   9.098  16.529   5.464
 4735POPC   PO461740   8.933  17.189   5.282
 4735POPC   GL161741   8.993  16.954   5.721
 4735POPC   GL261742   9.271  16.782   5.892
 4735POPC   C1A61743   8.839  16.730   6.125
 4735POPC   D2A61744   8.809  16.582   6.544
 4735POPC   C3A61745   8.790  16.868   6.873
 4735POPC   C4A61746   9.036  16.893   7.235
 4735POPC   C1B61747   9.241  16.362   6.117
 4735POPC   C2B61748   9.136  16.177   6.532
 4735POPC   C3B61749   9.031  16.372   6.947
 4735POPC   C4B61750   9.118  16.412   7.374
 4736POPC   NC361751  40.811  38.357   5.218
 4736POPC   PO461752  41.148  38.728   5.685
 4736POPC   GL161753  40.728  38.600   5.753
 4736POPC   GL261754  40.626  38.883   5.894
 4736POPC   C1A61755  40.584  38.357   6.152
 4736POPC   D2A61756  40.835  38.196   6.535
 4736POPC   C3A61757  40.935  38.430   6.895
 4736POPC   C4A61758  40.995  38.410   7.333
 4736POPC   C1B61759  40.889  38.726   6.274
 4736POPC   C2B61760  40.621  38.747   6.621
 4736POPC   C3B61761  40.630  38.812   7.055
 4736POPC   C4B61762  40.499  38.551   7.353
 4737POPC   NC361763  10.177  10.783   5.563
 4737POPC   PO461764  10.586  10.228   5.539
 4737POPC   GL161765  10.572  10.561   5.834
 4737POPC   GL261766  10.822  10.783   5.928
 4737POPC   C1A61767  10.569  10.540   6.298
 4737POPC   D2A61768  10.553  10.202   6.613
 4737POPC   C3A61769  10.410  10.381   7.003
 4737POPC   C4A61770  10.391  10.222   7.412
 4737POPC   C1B61771  10.831  11.060   6.284
 4737POPC   C2B61772  10.728  11.084   6.726
 4737POPC   C3B61773  10.769  10.847   7.116
 4737POPC   C4B61774  10.858  10.404   7.248
 4738POPC   NC361775  15.859   5.300   5.472
 4738POPC   PO461776  16.278   4.780   5.439
 4738POPC   GL161777  15.976   4.927   5.798
 4738POPC   GL261778  16.078   5.259   5.966
 4738POPC   C1A61779  15.736   5.071   6.253
 4738POPC   D2A61780  15.991   5.066   6.660
 4738POPC   C3A61781  15.801   5.298   6.985
 4738POPC   C4A61782  15.782   5.304   7.432
 4738POPC   C1B61783  16.193   4.837   6.230
 4738POPC   C2B61784  16.305   4.621   6.611
 4738POPC   C3B61785  16.274   4.712   7.030
 4738POPC   C4B61786  16.226   5.102   7.197
 4739POPC   NC361787  34.886  24.722   5.439
 4739POPC   PO461788  34.220  24.620   5.290
 4739POPC   GL161789  34.402  24.630   5.701
 4739POPC   GL261790  34.355  24.322   5.865
 4739POPC   C1A61791  34.387  24.743   6.164
 4739POPC   D2A61792  34.525  24.555   6.558
 4739POPC   C3A61793  34.377  24.693   6.955
 4739POPC   C4A61794  34.512  24.660   7.368
 4739POPC   C1B61795  34.659  24.205   6.200
 4739POPC   C2B61796  34.868  24.055   6.599
 4739POPC   C3B61797  34.670  24.252   6.969
 4739POPC   C4B61798  34.491  24.169   7.370
 4740POPC   NC361799  21.899  43.232   5.565
 4740POPC   PO461800  22.433  42.889   5.567
 4740POPC   GL161801  22.184  42.900   5.895
 4740POPC   GL261802  21.864  42.744   5.805
 4740POPC   C1A61803  22.309  43.002   6.301
 4740POPC   D2A61804  22.381  42.860   6.697
 4740POPC   C3A61805  22.291  43.145   7.010
 4740POPC   C4A61806  22.010  43.445   7.079
 4740POPC   C1B61807  21.785  43.000   6.200
 4740POPC   C2B61808  21.866  43.129   6.620
 4740POPC   C3B61809  21.875  42.886   6.972
 4740POPC   C4B61810  21.865  42.747   7.360
 4741POPC   NC361811  30.906  17.097   5.461
 4741POPC   PO461812  30.711  16.473   5.370
 4741POPC   GL161813  30.831  16.659   5.746
 4741POPC   GL261814  30.540  16.915   5.773
 4741POPC   C1A61815  30.887  16.839   6.153
 4741POPC   D2A61816  30.686  16.896   6.544
 4741POPC   C3A61817  30.958  17.044   6.868
 4741POPC   C4A61818  31.179  16.767   7.154
 4741POPC   C1B61819  30.398  17.134   6.153
 4741POPC   C2B61820  30.186  17.006   6.543
 4741POPC   C3B61821  30.366  16.955   6.953
 4741POPC   C4B61822  30.678  16.681   7.118
 4742POPC   NC361823  40.512  21.437   5.464
 4742POPC   PO461824  41.110  21.698   5.611
 4742POPC   GL161825  40.869  21.507   5.903
 4742POPC   GL261826  40.591  21.716   5.906
 4742POPC   C1A61827  40.767  21.471   6.338
 4742POPC   D2A61828  40.779  21.277   6.733
 4742POPC   C3A61829  40.991  21.388   7.120
 4742POPC   C4A61830  40.773  21.374   7.537
 4742POPC   C1B61831  40.549  21.958   6.275
 4742POPC   C2B61832  40.565  21.785   6.729
 4742POPC   C3B61833  40.536  21.707   7.201
 4742POPC   C4B61834  40.574  21.843   7.675
 4743POPC   NC361835  42.161   0.641   5.378
 4743POPC   PO461836  41.853   0.032   5.544
 4743POPC   GL161837  42.209   0.282   5.742
 4743POPC   GL261838  42.345   0.637   5.843
 4743POPC   C1A61839  42.354   0.195   6.135
 4743POPC   D2A61840  42.166   0.244   6.527
 4743POPC   C3A61841  42.419   0.106   6.847
 4743POPC   C4A61842  42.422   0.199   7.286
 4743POPC   C1B61843  42.055   0.618   6.162
 4743POPC   C2B61844  41.881   0.657   6.606
 4743POPC   C3B61845  42.150   0.531   6.995
 4743POPC   C4B61846  42.429   0.723   7.372
 4744POPC   NC361847  39.557   0.312   5.434
 4744POPC   PO461848  39.251   0.869   5.382
 4744POPC   GL161849  39.201   0.525   5.761
 4744POPC   GL261850  39.189   0.114   5.720
 4744POPC   C1A61851  39.378   0.333   6.179
 4744POPC   D2A61852  39.582   0.136   6.555
 4744POPC   C3A61853  39.434   0.219   7.000
 4744POPC   C4A61854  39.388   0.571   7.257
 4744POPC   C1B61855  38.928   0.108   6.078
 4744POPC   C2B61856  38.910   0.373   6.423
 4744POPC   C3B61857  38.934   0.373   6.862
 4744POPC   C4B61858  38.977  44.981   7.023
 4745POPC   NC361859  27.300   4.953   5.331
 4745POPC   PO461860  28.009   4.980   5.404
 4745POPC   GL161861  27.752   5.051   5.784
 4745POPC   GL261862  28.013   4.974   6.005
 4745POPC   C1A61863  27.620   5.221   6.222
 4745POPC   D2A61864  27.817   5.252   6.653
 4745POPC   C3A61865  27.619   5.216   7.071
 4745POPC   C4A61866  27.321   5.446   7.343
 4745POPC   C1B61867  27.895   4.803   6.375
 4745POPC   C2B61868  27.938   4.756   6.805
 4745POPC   C3B61869  27.994   4.759   7.197
 4745POPC   C4B61870  28.013   5.129   7.381
 4746POPC   NC361871  36.179   2.633   5.412
 4746POPC   PO461872  35.968   3.221   5.277
 4746POPC   GL161873  35.870   2.934   5.695
 4746POPC   GL261874  36.119   2.679   5.912
 4746POPC   C1A61875  35.852   3.016   6.165
 4746POPC   D2A61876  36.078   2.861   6.506
 4746POPC   C3A61877  35.855   2.614   6.729
 4746POPC   C4A61878  35.800   2.741   7.125
 4746POPC   C1B61879  36.405   2.549   6.282
 4746POPC   C2B61880  36.344   2.406   6.723
 4746POPC   C3B61881  36.310   2.629   7.140
 4746POPC   C4B61882  36.331   2.493   7.599
 4747POPC   NC361883   0.187  28.732   5.365
 4747POPC   PO461884   0.479  29.361   5.268
 4747POPC   GL161885   0.524  29.093   5.631
 4747POPC   GL261886   0.768  29.233   5.862
 4747POPC   C1A61887   0.274  29.020   6.009
 4747POPC   D2A61888   0.218  28.921   6.468
 4747POPC   C3A61889   0.396  29.205   6.773
 4747POPC   C4A61890   0.234  29.071   7.135
 4747POPC   C1B61891   0.723  29.128   6.312
 4747POPC   C2B61892   0.721  28.824   6.649
 4747POPC   C3B61893   0.725  28.877   7.081
 4747POPC   C4B61894   0.736  29.244   7.259
 4748POPC   NC361895   4.863  36.549   5.350
 4748POPC   PO461896   5.163  37.155   5.165
 4748POPC   GL161897   5.019  37.032   5.659
 4748POPC   GL261898   4.996  36.694   5.811
 4748POPC   C1A61899   5.085  37.054   6.144
 4748POPC   D2A61900   5.279  36.975   6.560
 4748POPC   C3A61901   5.080  36.915   6.963
 4748POPC   C4A61902   5.270  37.003   7.374
 4748POPC   C1B61903   4.791  36.633   6.206
 4748POPC   C2B61904   5.009  36.522   6.571
 4748POPC   C3B61905   5.142  36.346   6.948
 4748POPC   C4B61906   5.019  36.547   7.339
 4749POPC   NC361907  15.934   2.693   5.474
 4749POPC   PO461908  16.357   3.213   5.630
 4749POPC   GL161909  16.293   3.020   5.991
 4749POPC   GL261910  16.048   2.774   5.956
 4749POPC   C1A61911  16.190   2.927   6.420
 4749POPC   D2A61912  16.312   2.734   6.791
 4749POPC   C3A61913  15.998   2.768   7.119
 4749POPC   C4A61914  15.993   2.493   7.484
 4749POPC   C1B61915  16.149   2.444   6.266
 4749POPC   C2B61916  15.896   2.480   6.641
 4749POPC   C3B61917  15.577   2.471   6.933
 4749POPC   C4B61918  15.527   2.622   7.315
 4750POPC   NC361919  15.401   2.967   5.251
 4750POPC   PO461920  15.439   2.363   5.423
 4750POPC   GL161921  15.558   2.595   5.824
 4750POPC   GL261922  15.568   2.949   5.770
 4750POPC   C1A61923  15.552   2.711   6.299
 4750POPC   D2A61924  15.196   2.697   6.639
 4750POPC   C3A61925  15.081   2.578   7.090
 4750POPC   C4A61926  15.136   2.334   7.494
 4750POPC   C1B61927  15.458   3.218   6.155
 4750POPC   C2B61928  15.307   3.205   6.607
 4750POPC   C3B61929  15.375   3.012   7.020
 4750POPC   C4B61930  15.213   2.994   7.465
 4751POPC   NC361931  32.129  20.754   5.464
 4751POPC   PO461932  32.245  21.380   5.199
 4751POPC   GL161933  32.252  21.238   5.643
 4751POPC   GL261934  32.569  21.229   5.850
 4751POPC   C1A61935  32.096  21.147   6.056
 4751POPC   D2A61936  32.152  20.956   6.456
 4751POPC   C3A61937  32.328  21.232   6.803
 4751POPC   C4A61938  32.341  21.215   7.245
 4751POPC   C1B61939  32.555  21.260   6.322
 4751POPC   C2B61940  32.724  21.567   6.657
 4751POPC   C3B61941  32.649  21.618   7.099
 4751POPC   C4B61942  32.598  21.847   7.511
 4752POPC   NC361943   4.938  33.338   5.469
 4752POPC   PO461944   5.441  32.889   5.537
 4752POPC   GL161945   5.431  33.137   5.863
 4752POPC   GL261946   5.064  33.132   5.937
 4752POPC   C1A61947   5.420  33.020   6.297
 4752POPC   D2A61948   5.067  32.961   6.516
 4752POPC   C3A61949   5.083  33.134   6.890
 4752POPC   C4A61950   4.994  32.904   7.260
 4752POPC   C1B61951   4.903  33.372   6.283
 4752POPC   C2B61952   4.625  33.252   6.671
 4752POPC   C3B61953   4.682  33.317   7.148
 4752POPC   C4B61954   4.840  33.259   7.590
 4753POPC   NC361955  27.211  43.818   5.250
 4753POPC   PO461956  26.631  44.041   5.413
 4753POPC   GL161957  26.622  44.039   5.835
 4753POPC   GL261958  26.906  43.826   5.846
 4753POPC   C1A61959  26.562  43.958   6.246
 4753POPC   D2A61960  26.799  44.262   6.514
 4753POPC   C3A61961  26.933  44.191   6.963
 4753POPC   C4A61962  26.696  44.147   7.321
 4753POPC   C1B61963  27.052  43.859   6.292
 4753POPC   C2B61964  26.778  43.753   6.667
 4753POPC   C3B61965  26.769  43.688   7.101
 4753POPC   C4B61966  27.079  43.643   7.383
 4754POPC   NC361967   8.975   6.931   5.486
 4754POPC   PO461968   9.232   6.271   5.472
 4754POPC   GL161969   8.986   6.494   5.817
 4754POPC   GL261970   9.128   6.804   5.981
 4754POPC   C1A61971   8.827   6.403   6.251
 4754POPC   D2A61972   8.676   6.561   6.687
 4754POPC   C3A61973   8.919   6.607   7.062
 4754POPC   C4A61974   9.031   6.840   7.419
 4754POPC   C1B61975   9.117   6.756   6.454
 4754POPC   C2B61976   9.133   6.350   6.669
 4754POPC   C3B61977   9.110   6.119   7.034
 4754POPC   C4B61978   9.078   6.309   7.454
 4755POPC   NC361979  34.922  32.848   5.071
 4755POPC   PO461980  34.456  33.259   5.173
 4755POPC   GL161981  34.443  33.133   5.622
 4755POPC   GL261982  34.663  32.838   5.665
 4755POPC   C1A61983  34.600  33.163   6.069
 4755POPC   D2A61984  34.514  33.057   6.504
 4755POPC   C3A61985  34.761  33.255   6.833
 4755POPC   C4A61986  34.712  33.106   7.224
 4755POPC   C1B61987  34.482  32.657   6.079
 4755POPC   C2B61988  34.569  32.487   6.518
 4755POPC   C3B61989  34.547  32.618   6.977
 4755POPC   C4B61990  34.293  32.827   7.295
 4756POPC   NC361991   3.848  10.356   5.498
 4756POPC   PO461992   3.248  10.278   5.537
 4756POPC   GL161993   3.461  10.463   5.856
 4756POPC   GL261994   3.597  10.763   5.785
 4756POPC   C1A61995   3.511  10.561   6.301
 4756POPC   D2A61996   3.796  10.496   6.646
 4756POPC   C3A61997   3.565  10.466   7.027
 4756POPC   C4A61998   3.270  10.785   7.151
 4756POPC   C1B61999   3.481  11.038   6.186
 4756POPC   C2B62000   3.439  10.934   6.653
 4756POPC   C3B62001   3.751  10.934   6.979
 4756POPC   C4B62002   3.704  10.804   7.435
 4757POPC   NC362003  13.384  25.847   5.188
 4757POPC   PO462004  13.842  26.163   5.619
 4757POPC   GL162005  13.561  25.870   5.819
 4757POPC   GL262006  13.245  25.684   5.697
 4757POPC   C1A62007  13.684  25.772   6.244
 4757POPC   D2A62008  13.736  26.088   6.532
 4757POPC   C3A62009  13.719  25.964   6.948
 4757POPC   C4A62010  13.550  26.209   7.299
 4757POPC   C1B62011  13.178  25.762   6.175
 4757POPC   C2B62012  13.331  25.731   6.635
 4757POPC   C3B62013  13.236  25.853   7.079
 4757POPC   C4B62014  13.142  25.873   7.527
 4758POPC   NC362015  41.095  42.490   5.339
 4758POPC   PO462016  41.409  42.788   5.776
 4758POPC   GL162017  41.001  42.567   5.846
 4758POPC   GL262018  40.894  42.214   5.735
 4758POPC   C1A62019  40.657  42.555   6.140
 4758POPC   D2A62020  40.597  42.731   6.563
 4758POPC   C3A62021  40.787  42.502   6.916
 4758POPC   C4A62022  40.471  42.321   7.188
 4758POPC   C1B62023  40.743  42.036   6.143
 4758POPC   C2B62024  40.819  41.905   6.577
 4758POPC   C3B62025  40.833  41.986   7.021
 4758POPC   C4B62026  41.115  41.792   7.282
 4759POPC   NC362027  35.055   9.063   5.645
 4759POPC   PO462028  34.511   9.250   5.244
 4759POPC   GL162029  34.548   9.243   5.710
 4759POPC   GL262030  34.570   8.876   5.718
 4759POPC   C1A62031  34.640   9.301   6.190
 4759POPC   D2A62032  34.828   9.106   6.602
 4759POPC   C3A62033  34.618   9.176   7.029
 4759POPC   C4A62034  34.783   9.219   7.482
 4759POPC   C1B62035  34.496   8.811   6.159
 4759POPC   C2B62036  34.510   8.604   6.557
 4759POPC   C3B62037  34.684   8.683   6.969
 4759POPC   C4B62038  34.515   8.790   7.403
 4760POPC   NC362039  38.507  12.641   5.340
 4760POPC   PO462040  38.056  13.095   5.395
 4760POPC   GL162041  38.310  13.001   5.722
 4760POPC   GL262042  38.243  12.669   5.825
 4760POPC   C1A62043  38.351  13.072   6.153
 4760POPC   D2A62044  38.297  12.883   6.548
 4760POPC   C3A62045  38.159  12.733   6.950
 4760POPC   C4A62046  38.372  13.010   7.238
 4760POPC   C1B62047  38.671  12.686   6.016
 4760POPC   C2B62048  38.785  12.753   6.445
 4760POPC   C3B62049  38.687  12.789   6.898
 4760POPC   C4B62050  38.529  12.515   7.271
 4761POPC   NC362051  34.600  16.551   4.696
 4761POPC   PO462052  34.769  16.554   5.404
 4761POPC   GL162053  34.640  16.803   5.842
 4761POPC   GL262054  34.774  17.173   5.906
 4761POPC   C1A62055  34.533  16.923   6.304
 4761POPC   D2A62056  34.815  16.722   6.608
 4761POPC   C3A62057  34.715  16.585   7.021
 4761POPC   C4A62058  34.401  16.488   7.329
 4761POPC   C1B62059  35.014  17.154   6.318
 4761POPC   C2B62060  34.900  17.200   6.773
 4761POPC   C3B62061  34.512  17.035   6.938
 4761POPC   C4B62062  34.366  17.049   7.355
 4762POPC   NC362063  36.294  34.043   5.398
 4762POPC   PO462064  36.253  33.381   5.550
 4762POPC   GL162065  36.159  33.759   5.814
 4762POPC   GL262066  36.493  33.913   5.842
 4762POPC   C1A62067  36.085  34.115   6.118
 4762POPC   D2A62068  35.989  34.298   6.515
 4762POPC   C3A62069  35.839  34.015   6.807
 4762POPC   C4A62070  35.791  34.134   7.231
 4762POPC   C1B62071  36.476  33.802   6.266
 4762POPC   C2B62072  36.457  34.066   6.635
 4762POPC   C3B62073  36.270  33.993   7.052
 4762POPC   C4B62074  35.968  33.630   7.169
 4763POPC   NC362075  21.891  22.626   5.494
 4763POPC   PO462076  21.212  22.697   5.352
 4763POPC   GL162077  21.394  22.779   5.787
 4763POPC   GL262078  21.331  23.146   5.848
 4763POPC   C1A62079  21.308  22.865   6.267
 4763POPC   D2A62080  21.410  23.149   6.622
 4763POPC   C3A62081  21.507  22.951   7.036
 4763POPC   C4A62082  21.229  22.717   7.250
 4763POPC   C1B62083  21.021  23.309   6.172
 4763POPC   C2B62084  20.898  23.303   6.634
 4763POPC   C3B62085  21.142  23.307   7.051
 4763POPC   C4B62086  21.358  23.640   7.310
 4764POPC   NC362087   5.978   3.935   5.499
 4764POPC   PO462088   5.602   3.368   5.439
 4764POPC   GL162089   5.776   3.576   5.814
 4764POPC   GL262090   5.596   3.870   5.937
 4764POPC   C1A62091   6.125   3.602   6.118
 4764POPC   D2A62092   6.245   3.807   6.555
 4764POPC   C3A62093   6.091   3.689   6.969
 4764POPC   C4A62094   6.210   3.290   7.214
 4764POPC   C1B62095   5.750   3.820   6.352
 4764POPC   C2B62096   5.876   3.435   6.576
 4764POPC   C3B62097   5.744   3.335   7.011
 4764POPC   C4B62098   5.613   3.670   7.305
 4765POPC   NC362099   8.359  28.266   5.386
 4765POPC   PO462100   7.804  28.674   5.506
 4765POPC   GL162101   7.912  28.429   5.868
 4765POPC   GL262102   8.163  28.196   5.850
 4765POPC   C1A62103   7.802  28.345   6.321
 4765POPC   D2A62104   7.673  28.319   6.761
 4765POPC   C3A62105   7.950  28.414   7.130
 4765POPC   C4A62106   7.932  28.396   7.601
 4765POPC   C1B62107   8.297  28.355   6.228
 4765POPC   C2B62108   8.194  28.320   6.671
 4765POPC   C3B62109   8.404  28.204   7.024
 4765POPC   C4B62110   8.633  28.005   7.339
 4766POPC   NC362111  28.923  30.686   5.365
 4766POPC   PO462112  29.585  30.544   5.442
 4766POPC   GL162113  29.225  30.478   5.724
 4766POPC   GL262114  29.200  30.839   5.784
 4766POPC   C1A62115  29.228  30.552   6.183
 4766POPC   D2A62116  29.461  30.485   6.516
 4766POPC   C3A62117  29.211  30.314   6.841
 4766POPC   C4A62118  29.241  30.397   7.262
 4766POPC   C1B62119  29.072  31.056   6.166
 4766POPC   C2B62120  29.072  30.852   6.589
 4766POPC   C3B62121  28.976  30.772   7.016
 4766POPC   C4B62122  29.154  30.967   7.414
 4767POPC   NC362123  29.679  41.364   5.248
 4767POPC   PO462124  30.274  41.591   5.432
 4767POPC   GL162125  29.824  41.553   5.697
 4767POPC   GL262126  29.626  41.229   5.744
 4767POPC   C1A62127  29.609  41.588   6.126
 4767POPC   D2A62128  29.857  41.521   6.494
 4767POPC   C3A62129  29.768  41.616   6.890
 4767POPC   C4A62130  29.809  41.770   7.280
 4767POPC   C1B62131  29.972  41.213   6.066
 4767POPC   C2B62132  30.070  41.062   6.474
 4767POPC   C3B62133  29.858  41.114   6.847
 4767POPC   C4B62134  29.892  41.260   7.258
 4768POPC   NC362135   9.180  12.162   5.332
 4768POPC   PO462136   8.524  12.192   5.366
 4768POPC   GL162137   8.815  12.099   5.712
 4768POPC   GL262138   9.034  12.402   5.778
 4768POPC   C1A62139   8.787  11.863   6.111
 4768POPC   D2A62140   8.919  11.613   6.470
 4768POPC   C3A62141   8.903  11.792   6.883
 4768POPC   C4A62142   9.051  11.904   7.276
 4768POPC   C1B62143   9.088  12.298   6.205
 4768POPC   C2B62144   8.879  12.192   6.571
 4768POPC   C3B62145   9.102  12.293   6.955
 4768POPC   C4B62146   9.105  12.550   7.365
 4769POPC   NC362147  20.933  42.880   5.493
 4769POPC   PO462148  21.555  43.031   5.286
 4769POPC   GL162149  21.468  43.086   5.773
 4769POPC   GL262150  21.170  43.177   5.825
 4769POPC   C1A62151  21.475  43.412   6.164
 4769POPC   D2A62152  21.354  43.293   6.602
 4769POPC   C3A62153  21.523  43.243   7.013
 4769POPC   C4A62154  21.662  43.209   7.435
 4769POPC   C1B62155  21.245  42.958   6.236
 4769POPC   C2B62156  20.944  42.913   6.547
 4769POPC   C3B62157  21.066  42.997   6.935
 4769POPC   C4B62158  21.203  42.990   7.360
 4770POPC   NC362159  31.160  39.336   5.293
 4770POPC   PO462160  31.816  39.184   5.283
 4770POPC   GL162161  31.622  39.201   5.697
 4770POPC   GL262162  31.326  39.434   5.773
 4770POPC   C1A62163  31.705  39.246   6.140
 4770POPC   D2A62164  31.769  39.051   6.556
 4770POPC   C3A62165  31.653  39.329   6.901
 4770POPC   C4A62166  31.294  39.437   7.107
 4770POPC   C1B62167  31.226  39.051   6.035
 4770POPC   C2B62168  31.245  38.959   6.504
 4770POPC   C3B62169  31.131  38.970   6.955
 4770POPC   C4B62170  31.220  39.057   7.412
 4771POPC   NC362171   2.367  17.600   5.406
 4771POPC   PO462172   2.949  17.261   5.288
 4771POPC   GL162173   2.887  17.274   5.710
 4771POPC   GL262174   2.952  17.644   5.784
 4771POPC   C1A62175   3.058  17.240   6.109
 4771POPC   D2A62176   2.813  17.278   6.453
 4771POPC   C3A62177   3.007  17.391   6.796
 4771POPC   C4A62178   2.929  17.311   7.185
 4771POPC   C1B62179   2.768  17.722   6.203
 4771POPC   C2B62180   2.791  17.851   6.650
 4771POPC   C3B62181   2.811  17.807   7.109
 4771POPC   C4B62182   2.882  17.665   7.561
 4772POPC   NC362183   1.659  37.198   5.464
 4772POPC   PO462184   1.260  36.625   5.409
 4772POPC   GL162185   1.118  36.834   5.775
 4772POPC   GL262186   1.359  37.030   5.829
 4772POPC   C1A62187   1.040  36.979   6.207
 4772POPC   D2A62188   1.290  37.064   6.575
 4772POPC   C3A62189   1.132  36.819   6.908
 4772POPC   C4A62190   0.830  36.829   7.260
 4772POPC   C1B62191   1.408  36.648   6.150
 4772POPC   C2B62192   1.553  36.632   6.572
 4772POPC   C3B62193   1.565  36.494   6.979
 4772POPC   C4B62194   1.315  36.620   7.338
 4773POPC   NC362195  36.486  37.291   5.433
 4773POPC   PO462196  36.034  37.849   5.394
 4773POPC   GL162197  36.171  37.601   5.788
 4773POPC   GL262198  36.542  37.589   5.845
 4773POPC   C1A62199  35.989  37.432   6.194
 4773POPC   D2A62200  35.724  37.540   6.563
 4773POPC   C3A62201  35.906  37.638   6.965
 4773POPC   C4A62202  36.179  37.405   7.211
 4773POPC   C1B62203  36.509  37.463   6.239
 4773POPC   C2B62204  36.335  37.543   6.638
 4773POPC   C3B62205  36.610  37.540   6.986
 4773POPC   C4B62206  36.492  37.810   7.278
 4774POPC   NC362207  37.459  29.800   5.370
 4774POPC   PO462208  38.109  29.920   5.603
 4774POPC   GL162209  37.688  29.895   5.863
 4774POPC   GL262210  37.320  30.016   5.801
 4774POPC   C1A62211  37.658  29.911   6.332
 4774POPC   D2A62212  37.824  30.205   6.669
 4774POPC   C3A62213  37.831  29.977   7.052
 4774POPC   C4A62214  37.479  30.088   7.263
 4774POPC   C1B62215  37.228  29.711   6.118
 4774POPC   C2B62216  37.160  29.811   6.546
 4774POPC   C3B62217  37.237  29.647   6.967
 4774POPC   C4B62218  37.574  29.487   7.232
 4775POPC   NC362219   5.328  27.792   5.390
 4775POPC   PO462220   4.702  27.545   5.472
 4775POPC   GL162221   4.929  27.692   5.859
 4775POPC   GL262222   5.276  27.780   5.893
 4775POPC   C1A62223   4.898  27.841   6.304
 4775POPC   D2A62224   4.756  27.813   6.775
 4775POPC   C3A62225   4.924  27.444   7.037
 4775POPC   C4A62226   4.967  27.387   7.506
 4775POPC   C1B62227   5.427  27.860   6.300
 4775POPC   C2B62228   5.237  27.716   6.671
 4775POPC   C3B62229   5.195  27.876   7.078
 4775POPC   C4B62230   5.364  27.730   7.439
 4776POPC   NC362231  34.658  13.135   5.391
 4776POPC   PO462232  34.266  12.570   5.543
 4776POPC   GL162233  34.560  12.811   5.834
 4776POPC   GL262234  34.502  13.166   5.892
 4776POPC   C1A62235  34.599  12.863   6.296
 4776POPC   D2A62236  34.348  12.672   6.597
 4776POPC   C3A62237  34.494  12.794   6.979
 4776POPC   C4A62238  34.763  12.749   7.308
 4776POPC   C1B62239  34.950  13.157   6.079
 4776POPC   C2B62240  35.053  13.056   6.521
 4776POPC   C3B62241  34.900  13.103   6.949
 4776POPC   C4B62242  34.852  13.234   7.380
 4777POPC   NC362243  13.084   5.875   5.437
 4777POPC   PO462244  12.428   5.757   5.498
 4777POPC   GL162245  12.663   5.841   5.826
 4777POPC   GL262246  12.905   6.082   5.859
 4777POPC   C1A62247  12.590   5.976   6.237
 4777POPC   D2A62248  12.577   5.735   6.568
 4777POPC   C3A62249  12.721   5.863   6.927
 4777POPC   C4A62250  12.699   5.591   7.263
 4777POPC   C1B62251  13.067   5.765   6.156
 4777POPC   C2B62252  13.105   5.783   6.590
 4777POPC   C3B62253  13.115   5.535   6.962
 4777POPC   C4B62254  13.154   5.857   7.273
 4778POPC   NC362255  28.499  32.156   5.304
 4778POPC   PO462256  28.074  31.868   5.712
 4778POPC   GL162257  28.453  32.023   5.841
 4778POPC   GL262258  28.322  32.356   5.843
 4778POPC   C1A62259  28.471  32.061   6.292
 4778POPC   D2A62260  28.136  32.044   6.622
 4778POPC   C3A62261  28.290  32.037   7.033
 4778POPC   C4A62262  28.718  31.983   7.182
 4778POPC   C1B62263  27.985  32.333   6.201
 4778POPC   C2B62264  27.855  32.488   6.631
 4778POPC   C3B62265  28.071  32.499   7.035
 4778POPC   C4B62266  28.539  32.464   7.176
 4779POPC   NC362267  33.176  20.572   5.410
 4779POPC   PO462268  32.577  20.928   5.409
 4779POPC   GL162269  32.868  20.737   5.753
 4779POPC   GL262270  32.861  20.374   5.801
 4779POPC   C1A62271  33.221  20.614   6.078
 4779POPC   D2A62272  33.093  20.660   6.515
 4779POPC   C3A62273  33.229  20.432   6.876
 4779POPC   C4A62274  33.160  20.622   7.277
 4779POPC   C1B62275  32.917  20.255   6.252
 4779POPC   C2B62276  32.711  20.318   6.667
 4779POPC   C3B62277  32.747  20.325   7.131
 4779POPC   C4B62278  33.089  20.126   7.349
 4780POPC   NC362279  27.790  28.013   5.404
 4780POPC   PO462280  27.512  27.277   5.458
 4780POPC   GL162281  27.556  27.516   5.836
 4780POPC   GL262282  27.368  27.835   5.836
 4780POPC   C1A62283  27.666  27.499   6.268
 4780POPC   D2A62284  28.020  27.495   6.584
 4780POPC   C3A62285  27.859  27.581   7.000
 4780POPC   C4A62286  27.531  27.428   7.241
 4780POPC   C1B62287  27.131  27.685   6.226
 4780POPC   C2B62288  27.105  27.746   6.693
 4780POPC   C3B62289  27.331  27.887   7.087
 4780POPC   C4B62290  27.384  27.820   7.554
 4781POPC   NC362291  11.099  40.174   5.393
 4781POPC   PO462292  11.630  39.869   5.524
 4781POPC   GL162293  11.374  39.881   5.857
 4781POPC   GL262294  11.279  40.200   5.861
 4781POPC   C1A62295  11.326  39.900   6.300
 4781POPC   D2A62296  11.564  39.901   6.675
 4781POPC   C3A62297  11.374  39.710   7.054
 4781POPC   C4A62298  11.301  39.713   7.512
 4781POPC   C1B62299  11.369  40.417   6.214
 4781POPC   C2B62300  11.279  40.342   6.640
 4781POPC   C3B62301  11.408  40.236   7.061
 4781POPC   C4B62302  11.458  40.196   7.505
 4782POPC   NC362303  30.970  13.609   5.370
 4782POPC   PO462304  30.463  13.285   5.686
 4782POPC   GL162305  30.716  13.640   5.793
 4782POPC   GL262306  31.053  13.443   5.833
 4782POPC   C1A62307  30.661  13.860   6.146
 4782POPC   D2A62308  30.529  13.633   6.531
 4782POPC   C3A62309  30.573  13.822   6.932
 4782POPC   C4A62310  30.502  13.642   7.351
 4782POPC   C1B62311  31.073  13.435   6.277
 4782POPC   C2B62312  30.989  13.413   6.695
 4782POPC   C3B62313  30.760  13.345   7.026
 4782POPC   C4B62314  30.992  13.486   7.370
 4783POPC   NC362315  16.316  34.890   5.499
 4783POPC   PO462316  16.143  34.192   5.411
 4783POPC   GL162317  16.146  34.449   5.781
 4783POPC   GL262318  15.951  34.741   5.841
 4783POPC   C1A62319  16.081  34.359   6.217
 4783POPC   D2A62320  15.949  34.580   6.584
 4783POPC   C3A62321  16.041  34.422   7.002
 4783POPC   C4A62322  15.851  34.612   7.366
 4783POPC   C1B62323  16.214  34.863   6.208
 4783POPC   C2B62324  16.323  34.923   6.687
 4783POPC   C3B62325  16.261  34.861   7.192
 4783POPC   C4B62326  16.355  34.782   7.673
 4784POPC   NC362327  26.371  31.705   5.350
 4784POPC   PO462328  25.888  31.201   5.266
 4784POPC   GL162329  26.009  31.411   5.652
 4784POPC   GL262330  25.711  31.616   5.729
 4784POPC   C1A62331  25.940  31.370   6.129
 4784POPC   D2A62332  26.100  31.409   6.564
 4784POPC   C3A62333  26.185  31.081   6.859
 4784POPC   C4A62334  26.284  31.162   7.323
 4784POPC   C1B62335  25.728  31.852   6.150
 4784POPC   C2B62336  25.874  32.019   6.570
 4784POPC   C3B62337  25.880  31.745   6.947
 4784POPC   C4B62338  25.833  31.335   7.139
 4785POPC   NC362339  15.676  12.541   5.483
 4785POPC   PO462340  16.217  12.911   5.441
 4785POPC   GL162341  16.019  13.123   5.804
 4785POPC   GL262342  15.856  12.829   5.875
 4785POPC   C1A62343  15.891  13.180   6.246
 4785POPC   D2A62344  15.843  12.834   6.547
 4785POPC   C3A62345  15.756  12.947   6.971
 4785POPC   C4A62346  16.028  13.130   7.275
 4785POPC   C1B62347  16.249  12.798   6.123
 4785POPC   C2B62348  16.369  12.788   6.526
 4785POPC   C3B62349  16.248  12.773   6.964
 4785POPC   C4B62350  16.223  12.548   7.355
 4786POPC   NC362351   5.832  14.001   5.312
 4786POPC   PO462352   5.837  14.662   5.431
 4786POPC   GL162353   5.971  14.483   5.801
 4786POPC   GL262354   5.858  14.137   5.817
 4786POPC   C1A62355   6.031  14.635   6.219
 4786POPC   D2A62356   5.913  14.692   6.650
 4786POPC   C3A62357   5.910  14.330   6.883
 4786POPC   C4A62358   5.986  14.412   7.288
 4786POPC   C1B62359   5.574  14.399   6.122
 4786POPC   C2B62360   5.452  14.413   6.572
 4786POPC   C3B62361   5.476  14.577   7.008
 4786POPC   C4B62362   5.487  14.368   7.411
 4787POPC   NC362363  26.565  40.983   5.291
 4787POPC   PO462364  26.906  40.436   5.531
 4787POPC   GL162365  26.584  40.674   5.723
 4787POPC   GL262366  26.785  40.938   5.802
 4787POPC   C1A62367  26.461  40.712   6.157
 4787POPC   D2A62368  26.411  40.526   6.555
 4787POPC   C3A62369  26.529  40.569   6.991
 4787POPC   C4A62370  26.609  40.738   7.413
 4787POPC   C1B62371  26.950  40.874   6.223
 4787POPC   C2B62372  26.826  40.825   6.643
 4787POPC   C3B62373  26.739  41.050   7.014
 4787POPC   C4B62374  27.067  40.951   7.300
 4788POPC   NC362375   5.141  15.569   5.262
 4788POPC   PO462376   4.939  14.887   5.378
 4788POPC   GL162377   5.120  15.195   5.657
 4788POPC   GL262378   5.131  14.898   5.859
 4788POPC   C1A62379   5.243  15.317   6.101
 4788POPC   D2A62380   5.124  15.277   6.518
 4788POPC   C3A62381   5.177  15.533   6.866
 4788POPC   C4A62382   5.128  15.401   7.271
 4788POPC   C1B62383   5.160  14.742   6.258
 4788POPC   C2B62384   5.101  14.788   6.688
 4788POPC   C3B62385   5.011  14.918   7.074
 4788POPC   C4B62386   5.205  14.788   7.428
 4789POPC   NC362387  11.937  18.953   4.842
 4789POPC   PO462388  12.218  19.048   5.462
 4789POPC   GL162389  11.895  19.099   5.789
 4789POPC   GL262390  11.737  19.442   5.844
 4789POPC   C1A62391  12.102  19.025   6.188
 4789POPC   D2A62392  12.299  18.669   6.398
 4789POPC   C3A62393  12.228  18.712   6.842
 4789POPC   C4A62394  12.362  18.934   7.231
 4789POPC   C1B62395  11.629  19.174   6.245
 4789POPC   C2B62396  11.759  19.135   6.701
 4789POPC   C3B62397  11.900  19.341   7.107
 4789POPC   C4B62398  11.673  19.536   7.478
 4790POPC   NC362399   6.642  36.902   5.364
 4790POPC   PO462400   6.020  36.648   5.256
 4790POPC   GL162401   6.288  36.715   5.673
 4790POPC   GL262402   6.385  37.098   5.767
 4790POPC   C1A62403   6.474  36.706   6.094
 4790POPC   D2A62404   6.332  36.797   6.522
 4790POPC   C3A62405   6.593  36.691   6.838
 4790POPC   C4A62406   6.710  36.794   7.243
 4790POPC   C1B62407   6.634  37.182   6.167
 4790POPC   C2B62408   6.893  36.969   6.496
 4790POPC   C3B62409   6.948  37.093   6.932
 4790POPC   C4B62410   6.583  37.285   7.180
 4791POPC   NC362411  32.172  31.798   5.389
 4791POPC   PO462412  32.416  32.407   5.289
 4791POPC   GL162413  32.370  32.273   5.731
 4791POPC   GL262414  32.683  32.309   5.906
 4791POPC   C1A62415  32.145  32.014   6.082
 4791POPC   D2A62416  31.976  32.023   6.522
 4791POPC   C3A62417  32.306  32.058   6.862
 4791POPC   C4A62418  32.272  32.189   7.309
 4791POPC   C1B62419  32.553  32.193   6.353
 4791POPC   C2B62420  32.662  32.413   6.737
 4791POPC   C3B62421  32.697  32.439   7.196
 4791POPC   C4B62422  32.561  32.468   7.651
 4792POPC   NC362423  24.685  13.348   5.315
 4792POPC   PO462424  24.209  13.798   5.396
 4792POPC   GL162425  24.203  13.910   5.851
 4792POPC   GL262426  24.516  13.697   5.888
 4792POPC   C1A62427  24.227  13.795   6.285
 4792POPC   D2A62428  24.507  13.564   6.555
 4792POPC   C3A62429  24.266  13.528   6.958
 4792POPC   C4A62430  24.190  13.855   7.260
 4792POPC   C1B62431  24.724  13.924   6.233
 4792POPC   C2B62432  24.937  13.865   6.616
 4792POPC   C3B62433  24.722  13.727   6.996
 4792POPC   C4B62434  24.749  13.868   7.402
 4793POPC   NC362435  10.653   7.179   5.473
 4793POPC   PO462436  10.208   7.694   5.461
 4793POPC   GL162437  10.253   7.377   5.790
 4793POPC   GL262438  10.567   7.308   5.958
 4793POPC   C1A62439  10.246   7.589   6.202
 4793POPC   D2A62440  10.535   7.652   6.549
 4793POPC   C3A62441  10.239   7.708   6.863
 4793POPC   C4A62442   9.968   7.519   7.183
 4793POPC   C1B62443  10.366   7.120   6.345
 4793POPC   C2B62444  10.312   7.223   6.779
 4793POPC   C3B62445  10.454   7.372   7.192
 4793POPC   C4B62446  10.353   7.102   7.553
 4794POPC   NC362447  19.828  16.677   5.408
 4794POPC   PO462448  20.481  16.767   5.303
 4794POPC   GL162449  20.223  16.803   5.747
 4794POPC   GL262450  19.901  16.615   5.909
 4794POPC   C1A62451  20.156  16.915   6.225
 4794POPC   D2A62452  19.951  16.667   6.587
 4794POPC   C3A62453  20.008  16.755   7.017
 4794POPC   C4A62454  19.964  16.532   7.407
 4794POPC   C1B62455  19.587  16.660   6.241
 4794POPC   C2B62456  19.457  16.942   6.552
 4794POPC   C3B62457  19.395  17.007   6.976
 4794POPC   C4B62458  19.666  16.932   7.382
 4795POPC   NC362459  11.475   7.101   5.458
 4795POPC   PO462460  10.970   7.493   5.658
 4795POPC   GL162461  11.217   7.233   5.908
 4795POPC   GL262462  11.525   7.408   5.868
 4795POPC   C1A62463  11.246   7.380   6.332
 4795POPC   D2A62464  11.008   7.413   6.716
 4795POPC   C3A62465  11.196   7.124   6.996
 4795POPC   C4A62466  11.551   7.060   7.194
 4795POPC   C1B62467  11.513   7.796   6.134
 4795POPC   C2B62468  11.561   7.851   6.579
 4795POPC   C3B62469  11.486   7.547   6.940
 4795POPC   C4B62470  11.077   7.562   7.225
 4796POPC   NC362471   2.037  35.640   5.402
 4796POPC   PO462472   1.684  35.029   5.490
 4796POPC   GL162473   1.865  35.211   5.807
 4796POPC   GL262474   1.860  35.536   5.874
 4796POPC   C1A62475   2.052  35.102   6.164
 4796POPC   D2A62476   2.197  35.226   6.552
 4796POPC   C3A62477   2.007  35.108   6.885
 4796POPC   C4A62478   2.133  35.020   7.273
 4796POPC   C1B62479   2.152  35.637   6.255
 4796POPC   C2B62480   2.348  35.697   6.693
 4796POPC   C3B62481   2.243  35.513   7.090
 4796POPC   C4B62482   2.047  35.554   7.525
 4797POPC   NC362483  41.100  29.215   5.229
 4797POPC   PO462484  40.744  28.796   5.588
 4797POPC   GL162485  40.719  29.183   5.810
 4797POPC   GL262486  41.044  29.262   5.894
 4797POPC   C1A62487  40.631  29.120   6.221
 4797POPC   D2A62488  40.719  28.915   6.600
 4797POPC   C3A62489  40.484  29.156   6.894
 4797POPC   C4A62490  40.470  29.093   7.314
 4797POPC   C1B62491  41.137  28.982   6.263
 4797POPC   C2B62492  41.233  28.973   6.724
 4797POPC   C3B62493  40.976  29.148   7.082
 4797POPC   C4B62494  40.914  29.161   7.547
 4798POPC   NC362495  19.277  37.194   5.199
 4798POPC   PO462496  18.575  37.155   5.450
 4798POPC   GL162497  18.872  37.164   5.852
 4798POPC   GL262498  19.202  37.286   5.742
 4798POPC   C1A62499  19.056  36.898   6.241
 4798POPC   D2A62500  19.078  36.662   6.670
 4798POPC   C3A62501  18.778  36.690   7.031
 4798POPC   C4A62502  18.772  36.671   7.502
 4798POPC   C1B62503  19.234  37.375   6.190
 4798POPC   C2B62504  19.407  37.132   6.563
 4798POPC   C3B62505  19.244  37.056   6.976
 4798POPC   C4B62506  19.239  36.704   7.228
 4799POPC   NC362507  42.251  40.392   5.142
 4799POPC   PO462508  41.930  40.875   5.113
 4799POPC   GL162509  42.187  40.670   5.566
 4799POPC   GL262510  42.497  40.813   5.720
 4799POPC   C1A62511  42.184  40.709   6.097
 4799POPC   D2A62512  42.501  40.872   6.435
 4799POPC   C3A62513  42.393  40.939   6.883
 4799POPC   C4A62514  42.123  40.825   7.240
 4799POPC   C1B62515  42.624  40.477   6.106
 4799POPC   C2B62516  42.671  40.334   6.533
 4799POPC   C3B62517  42.747  40.294   6.976
 4799POPC   C4B62518  42.596  40.604   7.265
 4800POPC   NC362519  33.204  17.855   5.306
 4800POPC   PO462520  33.339  18.460   5.427
 4800POPC   GL162521  33.086  18.190   5.765
 4800POPC   GL262522  32.725  18.260   5.859
 4800POPC   C1A62523  33.049  18.009   6.213
 4800POPC   D2A62524  33.220  18.151   6.645
 4800POPC   C3A62525  33.240  17.914   7.073
 4800POPC   C4A62526  33.225  17.983   7.550
 4800POPC   C1B62527  32.826  18.464   6.288
 4800POPC   C2B62528  32.779  18.435   6.744
 4800POPC   C3B62529  32.741  18.378   7.197
 4800POPC   C4B62530  32.552  18.583   7.577
 4801POPC   NC362531  40.672   9.630   5.265
 4801POPC   PO462532  41.173   9.854   5.336
 4801POPC   GL162533  40.847   9.828   5.720
 4801POPC   GL262534  40.558   9.596   5.782
 4801POPC   C1A62535  40.735   9.826   6.206
 4801POPC   D2A62536  40.875   9.815   6.662
 4801POPC   C3A62537  40.626   9.813   7.042
 4801POPC   C4A62538  40.739   9.984   7.428
 4801POPC   C1B62539  40.278   9.571   6.168
 4801POPC   C2B62540  40.400   9.556   6.619
 4801POPC   C3B62541  40.415   9.364   7.027
 4801POPC   C4B62542  40.492   9.524   7.466
 4802POPC   NC362543  24.341   3.257   5.392
 4802POPC   PO462544  24.224   3.859   5.497
 4802POPC   GL162545  24.435   3.581   5.794
 4802POPC   GL262546  24.213   3.286   5.867
 4802POPC   C1A62547  24.562   3.453   6.214
 4802POPC   D2A62548  24.517   3.701   6.586
 4802POPC   C3A62549  24.654   3.554   6.971
 4802POPC   C4A62550  24.540   3.760   7.358
 4802POPC   C1B62551  24.059   3.212   6.246
 4802POPC   C2B62552  24.117   3.366   6.651
 4802POPC   C3B62553  24.224   3.295   7.084
 4802POPC   C4B62554  24.269   3.320   7.509
 4803POPC   NC362555  42.744  21.930   5.306
 4803POPC   PO462556  42.275  22.319   5.472
 4803POPC   GL162557  42.457  22.063   5.759
 4803POPC   GL262558  42.341  21.774   5.622
 4803POPC   C1A62559  42.359  22.098   6.190
 4803POPC   D2A62560  42.322  22.408   6.521
 4803POPC   C3A62561  42.322  22.227   6.916
 4803POPC   C4A62562  42.452  22.422   7.277
 4803POPC   C1B62563  42.307  21.606   6.028
 4803POPC   C2B62564  42.339  21.618   6.501
 4803POPC   C3B62565  42.525  21.734   6.932
 4803POPC   C4B62566  42.398  21.923   7.343
 4804POPC   NC362567   7.044  11.142   5.458
 4804POPC   PO462568   7.682  11.025   5.606
 4804POPC   GL162569   7.668  11.268   5.950
 4804POPC   GL262570   7.330  11.337   5.878
 4804POPC   C1A62571   7.619  11.593   6.252
 4804POPC   D2A62572   7.387  11.807   6.606
 4804POPC   C3A62573   7.521  11.586   6.971
 4804POPC   C4A62574   7.685  11.204   7.127
 4804POPC   C1B62575   7.119  11.591   6.191
 4804POPC   C2B62576   6.886  11.524   6.562
 4804POPC   C3B62577   7.016  11.429   6.986
 4804POPC   C4B62578   6.924  11.299   7.393
 4805POPC   NC362579  13.562  16.481   5.214
 4805POPC   PO462580  13.743  17.116   5.310
 4805POPC   GL162581  13.508  16.962   5.687
 4805POPC   GL262582  13.489  16.584   5.774
 4805POPC   C1A62583  13.442  16.952   6.152
 4805POPC   D2A62584  13.577  16.948   6.579
 4805POPC   C3A62585  13.322  17.065   6.939
 4805POPC   C4A62586  13.497  16.861   7.301
 4805POPC   C1B62587  13.631  16.457   6.232
 4805POPC   C2B62588  13.812  16.487   6.666
 4805POPC   C3B62589  13.776  16.476   7.122
 4805POPC   C4B62590  13.437  16.307   7.391
 4806POPC   NC362591  31.164   9.266   5.513
 4806POPC   PO462592  30.728   8.827   5.523
 4806POPC   GL162593  30.722   9.195   5.816
 4806POPC   GL262594  30.864   9.532   5.853
 4806POPC   C1A62595  30.657   9.241   6.270
 4806POPC   D2A62596  30.821   9.055   6.662
 4806POPC   C3A62597  30.652   9.168   7.089
 4806POPC   C4A62598  30.568   8.898   7.489
 4806POPC   C1B62599  31.005   9.613   6.315
 4806POPC   C2B62600  30.893   9.559   6.766
 4806POPC   C3B62601  30.985   9.551   7.222
 4806POPC   C4B62602  30.828   9.326   7.564
 4807POPC   NC362603  15.780  10.776   5.560
 4807POPC   PO462604  16.446  10.674   5.349
 4807POPC   GL162605  16.230  10.686   5.776
 4807POPC   GL262606  16.106  10.395   5.839
 4807POPC   C1A62607  15.988  10.806   6.169
 4807POPC   D2A62608  16.015  10.830   6.599
 4807POPC   C3A62609  15.674  10.946   6.881
 4807POPC   C4A62610  15.706  10.757   7.292
 4807POPC   C1B62611  15.860  10.308   6.193
 4807POPC   C2B62612  15.923  10.304   6.615
 4807POPC   C3B62613  15.988  10.452   6.998
 4807POPC   C4B62614  16.046  10.156   7.300
 4808POPC   NC362615  33.352  34.287   5.476
 4808POPC   PO462616  32.880  34.738   5.402
 4808POPC   GL162617  32.927  34.514   5.778
 4808POPC   GL262618  32.684  34.235   5.700
 4808POPC   C1A62619  33.173  34.580   6.166
 4808POPC   D2A62620  33.107  34.399   6.575
 4808POPC   C3A62621  33.079  34.695   6.923
 4808POPC   C4A62622  33.266  34.496   7.242
 4808POPC   C1B62623  32.564  34.230   6.140
 4808POPC   C2B62624  32.590  34.314   6.606
 4808POPC   C3B62625  32.837  34.258   7.006
 4808POPC   C4B62626  32.820  34.390   7.438
 4809POPC   NC362627   2.099   6.181   5.407
 4809POPC   PO462628   1.827   5.555   5.276
 4809POPC   GL162629   1.925   5.745   5.691
 4809POPC   GL262630   1.865   6.092   5.836
 4809POPC   C1A62631   1.943   5.690   6.145
 4809POPC   D2A62632   2.123   5.780   6.542
 4809POPC   C3A62633   1.907   5.613   6.903
 4809POPC   C4A62634   1.860   5.879   7.253
 4809POPC   C1B62635   2.085   6.198   6.221
 4809POPC   C2B62636   2.223   6.299   6.657
 4809POPC   C3B62637   2.120   6.320   7.105
 4809POPC   C4B62638   2.185   6.185   7.536
 4810POPC   NC362639  15.789  29.952   5.519
 4810POPC   PO462640  16.406  29.720   5.685
 4810POPC   GL162641  16.092  29.860   5.938
 4810POPC   GL262642  15.999  30.220   5.929
 4810POPC   C1A62643  15.718  29.784   6.147
 4810POPC   D2A62644  15.617  30.083   6.406
 4810POPC   C3A62645  15.801  29.994   6.793
 4810POPC   C4A62646  15.931  30.194   7.166
 4810POPC   C1B62647  16.132  30.120   6.363
 4810POPC   C2B62648  16.096  29.671   6.493
 4810POPC   C3B62649  15.859  29.477   6.813
 4810POPC   C4B62650  15.992  29.673   7.200
 4811POPC   NC362651  10.757  25.574   5.099
 4811POPC   PO462652  10.416  26.007   5.499
 4811POPC   GL162653  10.523  26.093   5.888
 4811POPC   GL262654  10.368  25.788   5.987
 4811POPC   C1A62655  10.349  26.224   6.263
 4811POPC   D2A62656  10.475  26.207   6.680
 4811POPC   C3A62657  10.225  26.108   6.990
 4811POPC   C4A62658  10.322  26.085   7.400
 4811POPC   C1B62659  10.631  25.801   6.321
 4811POPC   C2B62660  10.557  25.685   6.713
 4811POPC   C3B62661  10.641  25.841   7.067
 4811POPC   C4B62662  10.937  25.904   7.314
 4812POPC   NC362663  34.557  22.385   5.464
 4812POPC   PO462664  34.963  21.821   5.282
 4812POPC   GL162665  34.859  22.047   5.692
 4812POPC   GL262666  34.509  22.033   5.872
 4812POPC   C1A62667  34.906  22.183   6.125
 4812POPC   D2A62668  34.620  22.101   6.474
 4812POPC   C3A62669  34.655  22.211   6.909
 4812POPC   C4A62670  34.857  22.109   7.301
 4812POPC   C1B62671  34.440  22.441   6.144
 4812POPC   C2B62672  34.344  22.617   6.586
 4812POPC   C3B62673  34.295  22.599   7.058
 4812POPC   C4B62674  34.354  22.274   7.375
 4813POPC   NC362675  19.113  43.523   5.144
 4813POPC   PO462676  18.940  43.007   5.622
 4813POPC   GL162677  18.980  43.220   5.991
 4813POPC   GL262678  19.319  43.133   6.041
 4813POPC   C1A62679  19.109  43.513   6.302
 4813POPC   D2A62680  18.852  43.470   6.629
 4813POPC   C3A62681  19.053  43.423   6.979
 4813POPC   C4A62682  19.070  43.102   7.240
 4813POPC   C1B62683  19.180  42.927   6.384
 4813POPC   C2B62684  18.954  42.932   6.752
 4813POPC   C3B62685  19.138  42.657   7.022
 4813POPC   C4B62686  19.528  42.719   7.233
 4814POPC   NC362687  19.053  27.181   5.458
 4814POPC   PO462688  18.745  26.574   5.371
 4814POPC   GL162689  18.740  26.815   5.738
 4814POPC   GL262690  19.092  26.834   5.845
 4814POPC   C1A62691  18.723  26.688   6.178
 4814POPC   D2A62692  19.012  26.725   6.502
 4814POPC   C3A62693  18.934  26.823   6.913
 4814POPC   C4A62694  19.199  26.697   7.272
 4814POPC   C1B62695  19.004  27.154   6.187
 4814POPC   C2B62696  19.195  27.196   6.621
 4814POPC   C3B62697  19.108  27.277   7.020
 4814POPC   C4B62698  18.899  27.113   7.365
 4815POPC   NC362699  30.079  13.169   5.484
 4815POPC   PO462700  29.951  12.562   5.223
 4815POPC   GL162701  29.941  12.724   5.683
 4815POPC   GL262702  30.298  12.787   5.768
 4815POPC   C1A62703  29.812  13.038   6.051
 4815POPC   D2A62704  29.759  12.904   6.477
 4815POPC   C3A62705  29.707  13.044   6.884
 4815POPC   C4A62706  29.884  12.926   7.265
 4815POPC   C1B62707  30.150  12.663   6.174
 4815POPC   C2B62708  30.281  12.800   6.566
 4815POPC   C3B62709  30.055  12.642   6.883
 4815POPC   C4B62710  30.164  12.458   7.274
 4816POPC   NC362711  20.144   1.853   5.631
 4816POPC   PO462712  19.673   2.294   5.447
 4816POPC   GL162713  19.652   2.110   5.804
 4816POPC   GL262714  19.937   2.237   5.894
 4816POPC   C1A62715  19.643   2.062   6.253
 4816POPC   D2A62716  19.802   2.074   6.635
 4816POPC   C3A62717  19.551   1.879   6.928
 4816POPC   C4A62718  19.474   1.831   7.334
 4816POPC   C1B62719  20.156   2.169   6.247
 4816POPC   C2B62720  20.304   1.956   6.565
 4816POPC   C3B62721  20.149   1.905   6.967
 4816POPC   C4B62722  19.903   2.178   7.187
 4817POPC   NC362723  26.301   0.876   5.380
 4817POPC   PO462724  25.959   0.293   5.401
 4817POPC   GL162725  26.002   0.548   5.774
 4817POPC   GL262726  25.702   0.734   5.866
 4817POPC   C1A62727  26.208   0.479   6.203
 4817POPC   D2A62728  26.468   0.250   6.524
 4817POPC   C3A62729  26.352   0.368   6.926
 4817POPC   C4A62730  25.948   0.571   7.070
 4817POPC   C1B62731  25.670   0.479   6.266
 4817POPC   C2B62732  25.558   0.255   6.690
 4817POPC   C3B62733  25.651   0.161   7.152
 4817POPC   C4B62734  25.849   0.216   7.566
 4818POPC   NC362735   2.584  25.593   5.276
 4818POPC   PO462736   2.888  25.014   5.255
 4818POPC   GL162737   2.728  25.238   5.651
 4818POPC   GL262738   2.950  25.392   5.880
 4818POPC   C1A62739   2.568  25.108   6.092
 4818POPC   D2A62740   2.560  24.921   6.539
 4818POPC   C3A62741   2.637  25.173   6.855
 4818POPC   C4A62742   2.626  25.359   7.233
 4818POPC   C1B62743   3.067  25.621   6.251
 4818POPC   C2B62744   3.026  25.493   6.684
 4818POPC   C3B62745   2.959  25.707   7.076
 4818POPC   C4B62746   3.149  25.763   7.474
 4819POPC   NC362747   7.397  18.820   5.416
 4819POPC   PO462748   7.160  19.400   5.607
 4819POPC   GL162749   7.454  19.096   5.872
 4819POPC   GL262750   7.375  18.721   5.941
 4819POPC   C1A62751   7.720  18.928   6.231
 4819POPC   D2A62752   7.689  18.781   6.663
 4819POPC   C3A62753   7.469  18.955   6.991
 4819POPC   C4A62754   7.513  19.155   7.388
 4819POPC   C1B62755   7.217  18.543   6.352
 4819POPC   C2B62756   7.093  18.546   6.794
 4819POPC   C3B62757   7.185  18.602   7.246
 4819POPC   C4B62758   7.377  18.746   7.654
 4820POPC   NC362759  38.120  13.559   5.438
 4820POPC   PO462760  38.712  13.815   5.415
 4820POPC   GL162761  38.568  13.488   5.722
 4820POPC   GL262762  38.799  13.197   5.807
 4820POPC   C1A62763  38.277  13.585   6.086
 4820POPC   D2A62764  38.205  13.835   6.458
 4820POPC   C3A62765  38.246  13.690   6.894
 4820POPC   C4A62766  38.203  13.498   7.291
 4820POPC   C1B62767  38.722  13.397   6.212
 4820POPC   C2B62768  38.504  13.355   6.592
 4820POPC   C3B62769  38.661  13.354   7.009
 4820POPC   C4B62770  38.739  13.716   7.235
 4821POPC   NC362771  28.451  29.655   5.444
 4821POPC   PO462772  28.736  30.286   5.496
 4821POPC   GL162773  28.466  30.035   5.808
 4821POPC   GL262774  28.185  29.748   5.870
 4821POPC   C1A62775  28.502  29.912   6.257
 4821POPC   D2A62776  28.306  30.112   6.604
 4821POPC   C3A62777  28.324  29.775   6.870
 4821POPC   C4A62778  28.445  29.835   7.260
 4821POPC   C1B62779  27.999  29.940   6.230
 4821POPC   C2B62780  27.874  29.770   6.617
 4821POPC   C3B62781  27.869  29.971   7.014
 4821POPC   C4B62782  28.096  30.150   7.373
 4822POPC   NC362783   3.212  11.443   5.151
 4822POPC   PO462784   3.663  11.057   5.365
 4822POPC   GL162785   3.704  11.275   5.776
 4822POPC   GL262786   3.973  11.058   5.960
 4822POPC   C1A62787   3.435  11.533   6.083
 4822POPC   D2A62788   3.451  11.711   6.515
 4822POPC   C3A62789   3.319  11.405   6.851
 4822POPC   C4A62790   3.462  11.237   7.270
 4822POPC   C1B62791   3.911  11.407   6.228
 4822POPC   C2B62792   3.763  11.325   6.598
 4822POPC   C3B62793   3.863  11.444   6.980
 4822POPC   C4B62794   3.963  11.232   7.349
 4823POPC   NC362795  42.678  16.273   5.326
 4823POPC   PO462796  42.472  15.693   5.379
 4823POPC   GL162797  42.684  15.765   5.768
 4823POPC   GL262798  42.736  16.116   5.824
 4823POPC   C1A62799  42.517  15.693   6.174
 4823POPC   D2A62800  42.412  15.567   6.598
 4823POPC   C3A62801  42.714  15.732   6.851
 4823POPC   C4A62802  42.457  15.942   7.128
 4823POPC   C1B62803  42.700  16.238   6.268
 4823POPC   C2B62804  42.561  16.224   6.709
 4823POPC   C3B62805  42.517  16.447   7.138
 4823POPC   C4B62806  42.216  16.276   7.483
 4824POPC   NC362807  33.577  41.330   5.603
 4824POPC   PO462808  34.182  41.782   5.546
 4824POPC   GL162809  33.989  41.569   5.860
 4824POPC   GL262810  34.263  41.348   5.925
 4824POPC   C1A62811  33.692  41.659   6.202
 4824POPC   D2A62812  33.640  41.888   6.605
 4824POPC   C3A62813  33.518  41.677   6.971
 4824POPC   C4A62814  33.529  41.819   7.395
 4824POPC   C1B62815  33.977  41.224   6.238
 4824POPC   C2B62816  33.822  41.374   6.625
 4824POPC   C3B62817  34.050  41.613   6.883
 4824POPC   C4B62818  34.225  41.701   7.259
 4825POPC   NC362819   8.781  37.568   5.411
 4825POPC   PO462820   9.418  37.310   5.367
 4825POPC   GL162821   9.181  37.549   5.779
 4825POPC   GL262822   8.800  37.659   5.908
 4825POPC   C1A62823   9.148  37.613   6.264
 4825POPC   D2A62824   9.124  37.784   6.687
 4825POPC   C3A62825   9.234  37.485   7.038
 4825POPC   C4A62826   9.202  37.590   7.506
 4825POPC   C1B62827   8.699  37.874   6.324
 4825POPC   C2B62828   8.651  37.929   6.785
 4825POPC   C3B62829   8.819  37.729   7.155
 4825POPC   C4B62830   8.827  37.927   7.582
 4826POPC   NC362831   3.405  42.457   5.040
 4826POPC   PO462832   3.621  42.064   5.547
 4826POPC   GL162833   3.506  42.332   5.862
 4826POPC   GL262834   3.152  42.384   5.893
 4826POPC   C1A62835   3.503  42.538   6.248
 4826POPC   D2A62836   3.581  42.297   6.603
 4826POPC   C3A62837   3.760  42.535   6.891
 4826POPC   C4A62838   3.716  42.446   7.287
 4826POPC   C1B62839   3.116  42.207   6.280
 4826POPC   C2B62840   3.106  42.462   6.656
 4826POPC   C3B62841   3.254  42.630   7.034
 4826POPC   C4B62842   3.250  42.294   7.299
 4827POPC   NC362843  23.224  36.619   5.456
 4827POPC   PO462844  22.845  37.109   5.393
 4827POPC   GL162845  22.889  36.931   5.775
 4827POPC   GL262846  23.180  37.086   5.790
 4827POPC   C1A62847  22.854  36.767   6.193
 4827POPC   D2A62848  22.985  36.863   6.587
 4827POPC   C3A62849  22.820  36.642   6.917
 4827POPC   C4A62850  22.914  36.963   7.182
 4827POPC   C1B62851  23.284  37.074   6.190
 4827POPC   C2B62852  23.489  36.948   6.544
 4827POPC   C3B62853  23.406  36.753   6.934
 4827POPC   C4B62854  23.415  36.953   7.328
 4828POPC   NC362855  39.383  21.357   5.345
 4828POPC   PO462856  40.053  21.361   5.461
 4828POPC   GL162857  40.143  21.464   5.875
 4828POPC   GL262858  40.073  21.783   5.922
 4828POPC   C1A62859  40.252  21.555   6.329
 4828POPC   D2A62860  40.066  21.731   6.702
 4828POPC   C3A62861  40.133  21.417   7.030
 4828POPC   C4A62862  40.234  21.408   7.470
 4828POPC   C1B62863  39.746  21.661   6.260
 4828POPC   C2B62864  39.592  21.542   6.703
 4828POPC   C3B62865  39.616  21.393   7.141
 4828POPC   C4B62866  39.727  21.467   7.576
 4829POPC   NC362867   4.672  44.515   5.425
 4829POPC   PO462868   5.249  44.957   5.442
 4829POPC   GL162869   5.184  44.592   5.776
 4829POPC   GL262870   4.865  44.476   5.890
 4829POPC   C1A62871   5.330  44.527   6.237
 4829POPC   D2A62872   5.565  44.391   6.651
 4829POPC   C3A62873   5.371  44.521   7.009
 4829POPC   C4A62874   5.157  44.651   7.357
 4829POPC   C1B62875   4.703  44.278   6.242
 4829POPC   C2B62876   4.577  44.328   6.655
 4829POPC   C3B62877   4.864  44.346   7.016
 4829POPC   C4B62878   4.836  44.267   7.462
 4830POPC   NC362879  20.145  36.147   5.520
 4830POPC   PO462880  19.529  35.981   5.469
 4830POPC   GL162881  19.831  35.857   5.808
 4830POPC   GL262882  19.884  36.186   5.967
 4830POPC   C1A62883  19.911  35.798   6.265
 4830POPC   D2A62884  19.679  36.128   6.463
 4830POPC   C3A62885  19.804  36.140   6.868
 4830POPC   C4A62886  19.981  35.993   7.219
 4830POPC   C1B62887  20.158  36.231   6.361
 4830POPC   C2B62888  20.028  36.517   6.625
 4830POPC   C3B62889  20.071  36.541   7.028
 4830POPC   C4B62890  20.174  36.418   7.423
 4831POPC   NC362891   3.843  40.892   5.553
 4831POPC   PO462892   3.259  40.532   5.496
 4831POPC   GL162893   3.527  40.650   5.870
 4831POPC   GL262894   3.908  40.597   5.955
 4831POPC   C1A62895   3.600  40.900   6.241
 4831POPC   D2A62896   3.399  41.118   6.558
 4831POPC   C3A62897   3.594  40.950   6.885
 4831POPC   C4A62898   3.599  40.772   7.252
 4831POPC   C1B62899   3.859  40.438   6.369
 4831POPC   C2B62900   3.869  40.525   6.820
 4831POPC   C3B62901   4.067  40.627   7.220
 4831POPC   C4B62902   3.974  40.512   7.625
 4832POPC   NC362903  44.086   3.654   5.096
 4832POPC   PO462904  43.760   3.564   5.649
 4832POPC   GL162905  43.935   3.718   5.986
 4832POPC   GL262906  43.650   3.829   6.125
 4832POPC   C1A62907  44.080   3.627   6.350
 4832POPC   D2A62908  43.847   3.665   6.681
 4832POPC   C3A62909  44.084   3.446   6.924
 4832POPC   C4A62910  44.130   3.734   7.246
 4832POPC   C1B62911  43.574   3.416   6.314
 4832POPC   C2B62912  43.538   3.265   6.731
 4832POPC   C3B62913  43.615   3.488   7.133
 4832POPC   C4B62914  43.439   3.403   7.528
 4833POPC   NC362915  29.504  24.819   5.493
 4833POPC   PO462916  30.093  24.436   5.306
 4833POPC   GL162917  29.841  24.483   5.679
 4833POPC   GL262918  29.707  24.177   5.820
 4833POPC   C1A62919  29.906  24.678   6.086
 4833POPC   D2A62920  30.006  24.878   6.478
 4833POPC   C3A62921  29.730  24.763   6.808
 4833POPC   C4A62922  29.912  24.744   7.201
 4833POPC   C1B62923  30.164  24.224   5.986
 4833POPC   C2B62924  30.289  24.444   6.375
 4833POPC   C3B62925  30.073  24.381   6.765
 4833POPC   C4B62926  30.184  24.320   7.198
 4834POPC   NC362927  18.670  17.928   5.434
 4834POPC   PO462928  18.138  18.378   5.411
 4834POPC   GL162929  18.316  18.191   5.765
 4834POPC   GL262930  18.600  18.382   5.777
 4834POPC   C1A62931  18.164  18.037   6.189
 4834POPC   D2A62932  17.958  18.122   6.600
 4834POPC   C3A62933  17.994  18.161   7.040
 4834POPC   C4A62934  18.102  18.274   7.458
 4834POPC   C1B62935  18.654  18.126   6.178
 4834POPC   C2B62936  18.482  18.091   6.638
 4834POPC   C3B62937  18.491  18.326   7.051
 4834POPC   C4B62938  18.598  18.261   7.484
 4835POPC   NC362939  29.259  32.460   5.294
 4835POPC   PO462940  28.993  31.907   5.319
 4835POPC   GL162941  28.974  32.151   5.737
 4835POPC   GL262942  29.303  32.290   5.788
 4835POPC   C1A62943  28.956  32.281   6.225
 4835POPC   D2A62944  28.793  32.188   6.689
 4835POPC   C3A62945  29.093  32.270   7.038
 4835POPC   C4A62946  29.054  32.578   7.400
 4835POPC   C1B62947  29.462  32.455   6.173
 4835POPC   C2B62948  29.342  32.436   6.610
 4835POPC   C3B62949  29.465  32.604   7.012
 4835POPC   C4B62950  29.492  32.340   7.400
 4836POPC   NC362951   7.427   7.200   5.436
 4836POPC   PO462952   7.947   7.676   5.432
 4836POPC   GL162953   7.742   7.443   5.757
 4836POPC   GL262954   7.419   7.615   5.739
 4836POPC   C1A62955   7.571   7.328   6.145
 4836POPC   D2A62956   7.539   7.531   6.528
 4836POPC   C3A62957   7.150   7.504   6.794
 4836POPC   C4A62958   7.004   7.295   7.172
 4836POPC   C1B62959   7.509   7.862   6.108
 4836POPC   C2B62960   7.373   8.036   6.498
 4836POPC   C3B62961   7.506   7.872   6.914
 4836POPC   C4B62962   7.633   7.443   7.017
 4837POPC   NC362963  28.972   1.747   5.586
 4837POPC   PO462964  29.090   2.357   5.398
 4837POPC   GL162965  28.907   2.192   5.824
 4837POPC   GL262966  29.162   1.962   6.008
 4837POPC   C1A62967  28.714   2.059   6.247
 4837POPC   D2A62968  28.875   1.848   6.627
 4837POPC   C3A62969  28.916   1.974   7.074
 4837POPC   C4A62970  28.704   2.209   7.353
 4837POPC   C1B62971  29.044   1.545   6.208
 4837POPC   C2B62972  29.043   1.370   6.617
 4837POPC   C3B62973  29.227   1.588   6.968
 4837POPC   C4B62974  29.351   1.764   7.368
 4838POPC   NC362975  16.270  27.353   5.291
 4838POPC   PO462976  15.862  27.842   5.252
 4838POPC   GL162977  16.109  27.719   5.642
 4838POPC   GL262978  16.108  27.354   5.776
 4838POPC   C1A62979  15.997  27.727   6.096
 4838POPC   D2A62980  16.219  27.746   6.485
 4838POPC   C3A62981  16.023  27.702   6.884
 4838POPC   C4A62982  15.950  27.906   7.274
 4838POPC   C1B62983  16.371  27.339   6.175
 4838POPC   C2B62984  16.230  27.244   6.622
 4838POPC   C3B62985  16.095  27.193   7.051
 4838POPC   C4B62986  16.153  27.264   7.511
 4839POPC   NC362987  37.090  34.509   5.240
 4839POPC   PO462988  36.837  35.035   5.546
 4839POPC   GL162989  36.831  34.720   5.870
 4839POPC   GL262990  36.900  34.405   5.754
 4839POPC   C1A62991  37.061  34.627   6.219
 4839POPC   D2A62992  37.105  34.847   6.562
 4839POPC   C3A62993  37.062  34.662   6.963
 4839POPC   C4A62994  36.992  34.846   7.375
 4839POPC   C1B62995  36.757  34.229   6.188
 4839POPC   C2B62996  37.017  34.198   6.601
 4839POPC   C3B62997  37.239  34.175   7.010
 4839POPC   C4B62998  36.998  34.326   7.362
 4840POPC   NC362999  26.647  41.774   5.354
 4840POPC   PO463000  27.007  41.162   5.281
 4840POPC   GL163001  26.890  41.402   5.638
 4840POPC   GL263002  27.097  41.658   5.700
 4840POPC   C1A63003  26.949  41.364   6.097
 4840POPC   D2A63004  26.806  41.352   6.527
 4840POPC   C3A63005  27.118  41.361   6.853
 4840POPC   C4A63006  27.030  41.563   7.230
 4840POPC   C1B63007  26.802  41.835   6.038
 4840POPC   C2B63008  26.710  41.887   6.463
 4840POPC   C3B63009  26.693  41.739   6.877
 4840POPC   C4B63010  26.862  42.047   7.169
 4841POPC   NC363011   4.626  10.119   5.608
 4841POPC   PO463012   4.168  10.664   5.596
 4841POPC   GL163013   4.260  10.603   5.998
 4841POPC   GL263014   3.936  10.469   6.065
 4841POPC   C1A63015   4.640  10.698   6.262
 4841POPC   D2A63016   4.720  10.687   6.694
 4841POPC   C3A63017   4.336  10.524   6.855
 4841POPC   C4A63018   4.163  10.715   7.205
 4841POPC   C1B63019   4.184  10.260   6.384
 4841POPC   C2B63020   4.594  10.202   6.499
 4841POPC   C3B63021   4.761  10.202   6.866
 4841POPC   C4B63022   4.510  10.200   7.216
 4842POPC   NC363023  26.645  29.310   5.376
 4842POPC   PO463024  27.226  29.527   5.208
 4842POPC   GL163025  27.039  29.441   5.699
 4842POPC   GL263026  26.818  29.124   5.810
 4842POPC   C1A63027  27.088  29.284   6.186
 4842POPC   D2A63028  26.797  29.140   6.521
 4842POPC   C3A63029  26.965  29.056   6.923
 4842POPC   C4A63030  27.129  29.213   7.281
 4842POPC   C1B63031  26.603  29.453   6.126
 4842POPC   C2B63032  26.510  29.589   6.581
 4842POPC   C3B63033  26.501  29.317   6.938
 4842POPC   C4B63034  26.657  29.348   7.354
 4843POPC   NC363035  10.814   9.775   5.570
 4843POPC   PO463036  10.166   9.618   5.341
 4843POPC   GL163037  10.377   9.604   5.779
 4843POPC   GL263038  10.489   9.921   5.955
 4843POPC   C1A63039  10.518   9.483   6.233
 4843POPC   D2A63040  10.646   9.669   6.656
 4843POPC   C3A63041  10.441   9.516   7.056
 4843POPC   C4A63042  10.383   9.687   7.494
 4843POPC   C1B63043  10.870   9.941   6.255
 4843POPC   C2B63044  11.023  10.005   6.710
 4843POPC   C3B63045  10.715   9.948   7.098
 4843POPC   C4B63046  10.808  10.016   7.595
 4844POPC   NC363047  29.675  12.293   5.506
 4844POPC   PO463048  30.261  12.312   5.578
 4844POPC   GL163049  30.042  12.253   5.875
 4844POPC   GL263050  29.955  11.947   5.772
 4844POPC   C1A63051  29.900  12.201   6.253
 4844POPC   D2A63052  29.815  11.986   6.565
 4844POPC   C3A63053  29.887  12.144   6.941
 4844POPC   C4A63054  30.014  11.918   7.279
 4844POPC   C1B63055  30.198  11.748   6.090
 4844POPC   C2B63056  30.290  11.786   6.524
 4844POPC   C3B63057  30.255  11.586   6.926
 4844POPC   C4B63058  30.457  11.569   7.325
 4845POPC   NC363059  33.422  26.550   5.660
 4845POPC   PO463060  33.670  26.930   5.107
 4845POPC   GL163061  33.870  26.811   5.530
 4845POPC   GL263062  33.736  27.029   5.744
 4845POPC   C1A63063  34.052  26.610   5.944
 4845POPC   D2A63064  33.887  26.586   6.381
 4845POPC   C3A63065  34.009  26.552   6.820
 4845POPC   C4A63066  33.714  26.699   7.102
 4845POPC   C1B63067  33.962  27.074   6.135
 4845POPC   C2B63068  34.183  27.021   6.529
 4845POPC   C3B63069  34.053  27.055   6.960
 4845POPC   C4B63070  33.754  27.204   7.236
 4846POPC   NC363071  32.526  26.146   5.480
 4846POPC   PO463072  33.217  26.070   5.340
 4846POPC   GL163073  33.103  26.160   5.809
 4846POPC   GL263074  32.783  26.011   5.931
 4846POPC   C1A63075  33.172  26.089   6.277
 4846POPC   D2A63076  32.809  26.045   6.574
 4846POPC   C3A63077  32.823  25.932   7.022
 4846POPC   C4A63078  33.180  26.051   7.268
 4846POPC   C1B63079  32.762  26.364   6.175
 4846POPC   C2B63080  32.644  26.563   6.521
 4846POPC   C3B63081  32.713  26.426   6.909
 4846POPC   C4B63082  32.658  26.350   7.319
 4847POPC   NC363083  28.776   0.773   5.467
 4847POPC   PO463084  28.653   0.105   5.443
 4847POPC   GL163085  28.502   0.457   5.765
 4847POPC   GL263086  28.353   0.193   5.891
 4847POPC   C1A63087  28.351   0.687   6.162
 4847POPC   D2A63088  28.251   0.469   6.587
 4847POPC   C3A63089  28.310   0.624   7.000
 4847POPC   C4A63090  28.282   0.382   7.380
 4847POPC   C1B63091  28.585   0.268   6.249
 4847POPC   C2B63092  28.604   0.077   6.611
 4847POPC   C3B63093  28.696   0.069   7.022
 4847POPC   C4B63094  28.773   0.378   7.295
 4848POPC   NC363095  34.442  21.640   5.298
 4848POPC   PO463096  34.546  20.998   5.475
 4848POPC   GL163097  34.559  21.368   5.721
 4848POPC   GL263098  34.890  21.536   5.730
 4848POPC   C1A63099  34.331  21.459   6.100
 4848POPC   D2A63100  34.355  21.655   6.519
 4848POPC   C3A63101  34.511  21.388   6.861
 4848POPC   C4A63102  34.227  21.276   7.142
 4848POPC   C1B63103  34.777  21.688   6.171
 4848POPC   C2B63104  34.864  21.691   6.646
 4848POPC   C3B63105  34.930  21.644   7.105
 4848POPC   C4B63106  34.900  21.665   7.603
 4849POPC   NC363107  19.523  33.302   5.447
 4849POPC   PO463108  18.958  32.916   5.241
 4849POPC   GL163109  19.073  32.921   5.698
 4849POPC   GL263110  19.447  32.824   5.775
 4849POPC   C1A63111  18.814  32.992   6.112
 4849POPC   D2A63112  18.649  33.008   6.584
 4849POPC   C3A63113  18.895  33.257   6.936
 4849POPC   C4A63114  18.960  33.178   7.419
 4849POPC   C1B63115  19.331  33.100   6.102
 4849POPC   C2B63116  19.156  33.023   6.508
 4849POPC   C3B63117  19.330  32.982   6.896
 4849POPC   C4B63118  19.462  33.168   7.282
 4850POPC   NC363119  37.461   0.676   5.304
 4850POPC   PO463120  37.665   0.016   5.379
 4850POPC   GL163121  37.850   0.296   5.694
 4850POPC   GL263122  37.820   0.646   5.699
 4850POPC   C1A63123  37.939   0.349   6.120
 4850POPC   D2A63124  37.911   0.574   6.486
 4850POPC   C3A63125  37.715   0.406   6.850
 4850POPC   C4A63126  37.917   0.359   7.244
 4850POPC   C1B63127  37.675   0.818   6.097
 4850POPC   C2B63128  37.474   0.825   6.509
 4850POPC   C3B63129  37.600   0.940   6.929
 4850POPC   C4B63130  37.629   0.765   7.353
 4851POPC   NC363131  37.046  36.353   5.164
 4851POPC   PO463132  36.512  35.975   5.442
 4851POPC   GL163133  36.671  35.974   5.858
 4851POPC   GL263134  36.990  36.136   5.806
 4851POPC   C1A63135  36.711  36.184   6.258
 4851POPC   D2A63136  36.994  36.218   6.610
 4851POPC   C3A63137  36.771  36.083   6.952
 4851POPC   C4A63138  36.787  36.216   7.346
 4851POPC   C1B63139  37.218  36.034   6.185
 4851POPC   C2B63140  37.389  35.830   6.544
 4851POPC   C3B63141  37.343  36.035   6.959
 4851POPC   C4B63142  37.158  35.878   7.322
 4852POPC   NC363143  14.305   6.947   5.162
 4852POPC   PO463144  13.956   7.332   5.553
 4852POPC   GL163145  14.287   7.353   5.857
 4852POPC   GL263146  14.535   7.110   5.972
 4852POPC   C1A63147  14.311   7.494   6.256
 4852POPC   D2A63148  14.109   7.221   6.515
 4852POPC   C3A63149  14.124   7.370   6.867
 4852POPC   C4A63150  14.414   7.595   7.089
 4852POPC   C1B63151  14.598   7.098   6.403
 4852POPC   C2B63152  14.675   7.422   6.673
 4852POPC   C3B63153  14.904   7.401   7.035
 4852POPC   C4B63154  14.752   7.385   7.414
 4853POPC   NC363155  39.852  29.906   5.374
 4853POPC   PO463156  40.438  29.561   5.420
 4853POPC   GL163157  40.147  29.746   5.784
 4853POPC   GL263158  40.151  30.077   5.790
 4853POPC   C1A63159  39.879  29.901   6.200
 4853POPC   D2A63160  39.724  29.777   6.645
 4853POPC   C3A63161  39.913  29.981   7.028
 4853POPC   C4A63162  40.226  29.762   7.331
 4853POPC   C1B63163  40.391  29.990   6.172
 4853POPC   C2B63164  40.214  29.989   6.608
 4853POPC   C3B63165  40.405  30.127   7.009
 4853POPC   C4B63166  40.522  30.447   7.316
 4854POPC   NC363167  10.159  43.315   5.560
 4854POPC   PO463168   9.511  43.120   5.371
 4854POPC   GL163169   9.534  42.965   5.807
 4854POPC   GL263170   9.896  42.948   5.842
 4854POPC   C1A63171   9.601  42.910   6.277
 4854POPC   D2A63172   9.928  42.766   6.608
 4854POPC   C3A63173   9.809  42.904   7.028
 4854POPC   C4A63174   9.452  43.163   7.204
 4854POPC   C1B63175   9.874  43.301   6.168
 4854POPC   C2B63176   9.671  43.319   6.597
 4854POPC   C3B63177   9.849  43.422   7.007
 4854POPC   C4B63178   9.957  43.273   7.429
 4855POPC   NC363179  38.593  23.783   5.168
 4855POPC   PO463180  38.028  23.995   5.407
 4855POPC   GL163181  38.254  23.918   5.777
 4855POPC   GL263182  38.603  23.855   5.701
 4855POPC   C1A63183  38.270  23.657   6.149
 4855POPC   D2A63184  38.123  23.539   6.564
 4855POPC   C3A63185  38.359  23.565   6.941
 4855POPC   C4A63186  38.186  23.788   7.273
 4855POPC   C1B63187  38.643  24.049   6.139
 4855POPC   C2B63188  38.554  23.961   6.600
 4855POPC   C3B63189  38.611  24.043   7.075
 4855POPC   C4B63190  38.849  24.169   7.457
 4856POPC   NC363191  12.173  14.790   5.434
 4856POPC   PO463192  12.114  14.163   5.203
 4856POPC   GL163193  12.190  14.349   5.670
 4856POPC   GL263194  12.291  14.117   5.938
 4856POPC   C1A63195  11.939  14.505   6.063
 4856POPC   D2A63196  11.862  14.451   6.535
 4856POPC   C3A63197  11.884  14.708   6.925
 4856POPC   C4A63198  12.020  14.702   7.356
 4856POPC   C1B63199  12.392  14.453   6.272
 4856POPC   C2B63200  12.321  14.644   6.661
 4856POPC   C3B63201  12.304  14.413   7.047
 4856POPC   C4B63202  12.519  14.511   7.429
 4857POPC   NC363203  14.972  42.082   5.295
 4857POPC   PO463204  15.456  42.540   5.299
 4857POPC   GL163205  15.232  42.486   5.692
 4857POPC   GL263206  14.987  42.732   5.676
 4857POPC   C1A63207  15.363  42.411   6.139
 4857POPC   D2A63208  15.588  42.336   6.557
 4857POPC   C3A63209  15.367  42.279   6.943
 4857POPC   C4A63210  15.001  42.109   7.074
 4857POPC   C1B63211  15.059  42.839   6.111
 4857POPC   C2B63212  15.275  42.764   6.500
 4857POPC   C3B63213  15.354  42.787   6.920
 4857POPC   C4B63214  15.197  42.634   7.307
 4858POPC   NC363215  16.911  30.763   5.486
 4858POPC   PO463216  16.262  30.599   5.364
 4858POPC   GL163217  16.485  30.613   5.734
 4858POPC   GL263218  16.440  30.965   5.795
 4858POPC   C1A63219  16.757  30.599   6.128
 4858POPC   D2A63220  16.867  30.778   6.543
 4858POPC   C3A63221  16.823  30.471   6.887
 4858POPC   C4A63222  16.887  30.540   7.323
 4858POPC   C1B63223  16.513  31.057   6.245
 4858POPC   C2B63224  16.527  31.137   6.693
 4858POPC   C3B63225  16.515  30.879   7.062
 4858POPC   C4B63226  16.484  30.861   7.529
 4859POPC   NC363227  34.817  15.320   5.661
 4859POPC   PO463228  34.383  14.978   5.350
 4859POPC   GL163229  34.372  15.145   5.820
 4859POPC   GL263230  34.450  14.923   6.113
 4859POPC   C1A63231  34.464  15.392   6.248
 4859POPC   D2A63232  34.540  15.271   6.721
 4859POPC   C3A63233  34.339  15.553   7.059
 4859POPC   C4A63234  34.492  15.592   7.458
 4859POPC   C1B63235  34.867  15.029   6.343
 4859POPC   C2B63236  35.086  15.165   6.748
 4859POPC   C3B63237  34.890  15.367   7.117
 4859POPC   C4B63238  34.528  15.118   7.264
 4860POPC   NC363239  26.785  26.296   5.452
 4860POPC   PO463240  26.527  25.740   5.493
 4860POPC   GL163241  26.773  25.915   5.843
 4860POPC   GL263242  27.096  25.984   5.711
 4860POPC   C1A63243  26.653  26.158   6.242
 4860POPC   D2A63244  26.631  26.424   6.607
 4860POPC   C3A63245  26.546  26.246   6.992
 4860POPC   C4A63246  26.777  25.978   7.240
 4860POPC   C1B63247  27.104  26.262   6.064
 4860POPC   C2B63248  27.116  26.273   6.487
 4860POPC   C3B63249  27.073  26.241   6.901
 4860POPC   C4B63250  27.262  26.159   7.275
 4861POPC   NC363251  44.464  14.735   5.451
 4861POPC   PO463252  44.975  14.258   5.472
 4861POPC   GL163253  44.757  14.476   5.821
 4861POPC   GL263254  44.412  14.429   5.851
 4861POPC   C1A63255  44.657  14.586   6.279
 4861POPC   D2A63256  44.827  14.750   6.690
 4861POPC   C3A63257  44.866  14.486   6.976
 4861POPC   C4A63258  44.946  14.365   7.338
 4861POPC   C1B63259  44.230  14.289   6.231
 4861POPC   C2B63260  44.168  14.450   6.618
 4861POPC   C3B63261  44.360  14.667   6.943
 4861POPC   C4B63262  44.216  14.683   7.345
 4862POPC   NC363263   7.475  44.330   5.593
 4862POPC   PO463264   7.272  43.765   5.420
 4862POPC   GL163265   7.375  43.894   5.823
 4862POPC   GL263266   7.691  43.805   5.742
 4862POPC   C1A63267   7.210  43.948   6.238
 4862POPC   D2A63268   7.065  43.913   6.662
 4862POPC   C3A63269   7.420  43.905   6.921
 4862POPC   C4A63270   7.539  44.031   7.326
 4862POPC   C1B63271   7.839  43.962   6.128
 4862POPC   C2B63272   7.794  43.795   6.544
 4862POPC   C3B63273   7.931  43.928   6.947
 4862POPC   C4B63274   7.817  43.642   7.223
 4863POPC   NC363275  18.506  10.763   5.459
 4863POPC   PO463276  18.076  10.290   5.529
 4863POPC   GL163277  18.153  10.407   5.928
 4863POPC   GL263278  18.487  10.416   5.884
 4863POPC   C1A63279  18.283  10.428   6.367
 4863POPC   D2A63280  18.591  10.506   6.682
 4863POPC   C3A63281  18.275  10.564   7.001
 4863POPC   C4A63282  17.930  10.310   7.209
 4863POPC   C1B63283  18.484  10.822   6.128
 4863POPC   C2B63284  18.358  10.964   6.535
 4863POPC   C3B63285  18.579  10.983   6.931
 4863POPC   C4B63286  18.586  10.823   7.352
 4864POPC   NC363287  32.332   8.771   5.495
 4864POPC   PO463288  32.145   9.386   5.264
 4864POPC   GL163289  32.114   9.197   5.719
 4864POPC   GL263290  31.935   8.859   5.783
 4864POPC   C1A63291  32.200   9.095   6.173
 4864POPC   D2A63292  32.388   8.763   6.502
 4864POPC   C3A63293  32.309   8.818   6.971
 4864POPC   C4A63294  32.319   9.174   7.262
 4864POPC   C1B63295  31.972   8.639   6.193
 4864POPC   C2B63296  31.889   8.499   6.612
 4864POPC   C3B63297  31.837   8.620   7.036
 4864POPC   C4B63298  31.936   8.735   7.457
 4865POPC   NC363299  10.940  19.240   5.358
 4865POPC   PO463300  10.587  18.737   5.618
 4865POPC   GL163301  10.843  18.968   5.879
 4865POPC   GL263302  10.672  19.260   6.010
 4865POPC   C1A63303  10.848  18.859   6.317
 4865POPC   D2A63304  10.683  18.982   6.718
 4865POPC   C3A63305  10.865  19.273   7.019
 4865POPC   C4A63306  10.781  19.058   7.413
 4865POPC   C1B63307  10.362  19.053   6.287
 4865POPC   C2B63308  10.186  18.801   6.645
 4865POPC   C3B63309  10.285  18.792   7.096
 4865POPC   C4B63310  10.305  18.728   7.550
 4866POPC   NC363311   5.329   9.920   5.436
 4866POPC   PO463312   4.945   9.437   5.161
 4866POPC   GL163313   5.087   9.500   5.664
 4866POPC   GL263314   5.022   9.847   5.819
 4866POPC   C1A63315   5.067   9.439   6.133
 4866POPC   D2A63316   5.287   9.490   6.526
 4866POPC   C3A63317   4.995   9.375   6.851
 4866POPC   C4A63318   5.085   9.484   7.285
 4866POPC   C1B63319   5.287   9.899   6.153
 4866POPC   C2B63320   5.066   9.938   6.539
 4866POPC   C3B63321   5.105   9.852   6.940
 4866POPC   C4B63322   5.393   9.909   7.230
 4867POPC   NC363323  20.326  15.259   5.394
 4867POPC   PO463324  20.984  15.254   5.641
 4867POPC   GL163325  20.604  15.245   5.858
 4867POPC   GL263326  20.468  14.922   5.949
 4867POPC   C1A63327  20.485  15.356   6.267
 4867POPC   D2A63328  20.543  15.610   6.619
 4867POPC   C3A63329  20.554  15.420   7.023
 4867POPC   C4A63330  20.271  15.147   7.302
 4867POPC   C1B63331  20.804  14.940   6.286
 4867POPC   C2B63332  20.790  15.131   6.665
 4867POPC   C3B63333  20.700  14.931   7.048
 4867POPC   C4B63334  21.005  14.817   7.318
 4868POPC   NC363335   2.120  16.822   5.367
 4868POPC   PO463336   1.613  16.341   5.486
 4868POPC   GL163337   1.771  16.703   5.719
 4868POPC   GL263338   2.062  16.481   5.801
 4868POPC   C1A63339   2.064  16.912   6.060
 4868POPC   D2A63340   2.209  16.661   6.434
 4868POPC   C3A63341   2.104  16.797   6.874
 4868POPC   C4A63342   2.100  16.646   7.314
 4868POPC   C1B63343   1.743  16.532   6.183
 4868POPC   C2B63344   1.561  16.648   6.586
 4868POPC   C3B63345   1.682  16.504   7.003
 4868POPC   C4B63346   1.752  16.269   7.376
 4869POPC   NC363347  22.412  44.023   5.436
 4869POPC   PO463348  21.831  43.675   5.427
 4869POPC   GL163349  22.041  43.859   5.787
 4869POPC   GL263350  22.305  43.613   5.733
 4869POPC   C1A63351  21.989  43.823   6.255
 4869POPC   D2A63352  21.827  43.704   6.672
 4869POPC   C3A63353  22.044  43.965   6.970
 4869POPC   C4A63354  21.980  44.021   7.419
 4869POPC   C1B63355  22.398  43.504   6.152
 4869POPC   C2B63356  22.264  43.442   6.583
 4869POPC   C3B63357  22.518  43.581   6.926
 4869POPC   C4B63358  22.375  43.758   7.290
 4870POPC   NC363359  32.687  21.430   5.392
 4870POPC   PO463360  33.304  21.866   5.553
 4870POPC   GL163361  33.022  21.563   5.760
 4870POPC   GL263362  33.061  21.213   5.711
 4870POPC   C1A63363  33.025  21.521   6.205
 4870POPC   D2A63364  33.282  21.671   6.541
 4870POPC   C3A63365  33.185  21.496   6.927
 4870POPC   C4A63366  33.082  21.703   7.331
 4870POPC   C1B63367  32.973  21.038   6.136
 4870POPC   C2B63368  32.983  21.148   6.575
 4870POPC   C3B63369  32.834  21.139   7.001
 4870POPC   C4B63370  33.122  21.184   7.344
 4871POPC   NC363371  35.698  40.162   5.211
 4871POPC   PO463372  35.268  39.800   5.503
 4871POPC   GL163373  35.249  40.056   5.836
 4871POPC   GL263374  34.957  39.922   5.896
 4871POPC   C1A63375  35.264  39.994   6.284
 4871POPC   D2A63376  35.409  39.696   6.576
 4871POPC   C3A63377  35.368  39.870   6.966
 4871POPC   C4A63378  35.619  39.845   7.316
 4871POPC   C1B63379  34.912  40.338   6.164
 4871POPC   C2B63380  35.043  40.503   6.573
 4871POPC   C3B63381  35.061  40.284   6.970
 4871POPC   C4B63382  35.249  40.207   7.391
 4872POPC   NC363383  11.158  26.910   5.274
 4872POPC   PO463384  11.430  26.429   5.503
 4872POPC   GL163385  11.423  26.800   5.742
 4872POPC   GL263386  11.088  26.842   5.771
 4872POPC   C1A63387  11.553  26.988   6.125
 4872POPC   D2A63388  11.713  26.740   6.461
 4872POPC   C3A63389  11.663  26.903   6.870
 4872POPC   C4A63390  11.532  26.718   7.250
 4872POPC   C1B63391  11.134  26.699   6.181
 4872POPC   C2B63392  11.245  26.905   6.558
 4872POPC   C3B63393  11.123  26.771   6.955
 4872POPC   C4B63394  10.844  26.846   7.291
 4873POPC   NC363395  35.095  29.376   5.438
 4873POPC   PO463396  34.388  29.160   5.251
 4873POPC   GL163397  34.479  29.189   5.711
 4873POPC   GL263398  34.809  29.304   5.854
 4873POPC   C1A63399  34.390  29.193   6.161
 4873POPC   D2A63400  34.679  29.057   6.482
 4873POPC   C3A63401  34.707  29.086   6.948
 4873POPC   C4A63402  34.381  29.004   7.249
 4873POPC   C1B63403  34.724  29.569   6.224
 4873POPC   C2B63404  34.410  29.533   6.560
 4873POPC   C3B63405  34.325  29.475   6.999
 4873POPC   C4B63406  34.618  29.434   7.347
 4874POPC   NC363407  12.371  16.139   5.473
 4874POPC   PO463408  11.898  15.755   5.388
 4874POPC   GL163409  12.132  15.743   5.752
 4874POPC   GL263410  12.104  16.060   5.920
 4874POPC   C1A63411  12.146  15.614   6.179
 4874POPC   D2A63412  12.080  15.874   6.525
 4874POPC   C3A63413  12.121  15.638   6.904
 4874POPC   C4A63414  11.995  15.672   7.311
 4874POPC   C1B63415  12.234  16.403   6.170
 4874POPC   C2B63416  12.355  16.438   6.574
 4874POPC   C3B63417  12.315  16.130   6.914
 4874POPC   C4B63418  12.047  16.151   7.253
 4875POPC   NC363419  36.711  27.520   5.095
 4875POPC   PO463420  37.219  27.443   5.537
 4875POPC   GL163421  36.912  27.569   5.837
 4875POPC   GL263422  37.037  27.860   6.023
 4875POPC   C1A63423  36.811  27.496   6.285
 4875POPC   D2A63424  36.774  27.679   6.685
 4875POPC   C3A63425  36.864  27.537   7.098
 4875POPC   C4A63426  37.077  27.724   7.475
 4875POPC   C1B63427  36.615  28.032   6.192
 4875POPC   C2B63428  36.402  28.019   6.625
 4875POPC   C3B63429  36.621  28.045   7.034
 4875POPC   C4B63430  36.610  27.944   7.486
 4876POPC   NC363431  35.510  30.964   5.582
 4876POPC   PO463432  35.649  30.361   5.357
 4876POPC   GL163433  35.606  30.470   5.778
 4876POPC   GL263434  35.238  30.552   5.742
 4876POPC   C1A63435  35.600  30.676   6.182
 4876POPC   D2A63436  35.412  30.602   6.556
 4876POPC   C3A63437  35.575  30.543   6.934
 4876POPC   C4A63438  35.455  30.821   7.223
 4876POPC   C1B63439  34.980  30.653   6.091
 4876POPC   C2B63440  34.944  30.801   6.511
 4876POPC   C3B63441  35.047  30.667   6.933
 4876POPC   C4B63442  35.040  30.564   7.371
 4877POPC   NC363443  39.849  38.661   5.465
 4877POPC   PO463444  40.386  38.511   5.277
 4877POPC   GL163445  40.229  38.489   5.770
 4877POPC   GL263446  39.876  38.353   5.882
 4877POPC   C1A63447  40.148  38.560   6.244
 4877POPC   D2A63448  40.025  38.262   6.563
 4877POPC   C3A63449  40.155  38.358   6.984
 4877POPC   C4A63450  40.133  38.177   7.386
 4877POPC   C1B63451  39.637  38.571   6.254
 4877POPC   C2B63452  39.695  38.617   6.716
 4877POPC   C3B63453  39.625  38.365   7.088
 4877POPC   C4B63454  39.675  38.341   7.549
 4878POPC   NC363455  29.187  30.132   5.317
 4878POPC   PO463456  28.881  29.454   5.437
 4878POPC   GL163457  29.211  29.708   5.736
 4878POPC   GL263458  29.006  29.986   5.792
 4878POPC   C1A63459  29.299  29.941   6.188
 4878POPC   D2A63460  29.087  29.842   6.583
 4878POPC   C3A63461  29.269  29.780   7.005
 4878POPC   C4A63462  29.298  29.718   7.476
 4878POPC   C1B63463  28.839  30.254   6.123
 4878POPC   C2B63464  28.783  30.341   6.534
 4878POPC   C3B63465  28.738  30.076   6.868
 4878POPC   C4B63466  28.894  30.046   7.232
 4879POPC   NC363467   7.198  40.866   5.438
 4879POPC   PO463468   7.760  41.183   5.334
 4879POPC   GL163469   7.647  41.023   5.797
 4879POPC   GL263470   7.640  40.647   5.861
 4879POPC   C1A63471   7.388  40.938   6.216
 4879POPC   D2A63472   7.305  40.728   6.668
 4879POPC   C3A63473   7.122  40.778   7.110
 4879POPC   C4A63474   7.198  41.067   7.490
 4879POPC   C1B63475   7.875  40.556   6.238
 4879POPC   C2B63476   7.757  40.419   6.661
 4879POPC   C3B63477   7.586  40.538   7.061
 4879POPC   C4B63478   7.461  40.614   7.482
 4880POPC   NC363479  12.470  10.592   5.298
 4880POPC   PO463480  11.834  10.629   5.287
 4880POPC   GL163481  12.012  10.523   5.758
 4880POPC   GL263482  12.363  10.491   5.786
 4880POPC   C1A63483  12.088  10.786   6.168
 4880POPC   D2A63484  11.846  10.721   6.550
 4880POPC   C3A63485  12.050  10.750   6.946
 4880POPC   C4A63486  12.074  10.502   7.335
 4880POPC   C1B63487  12.377  10.384   6.209
 4880POPC   C2B63488  12.389  10.613   6.595
 4880POPC   C3B63489  12.422  10.385   7.002
 4880POPC   C4B63490  12.207  10.031   7.216
 4881POPC   NC363491  25.179  39.602   5.315
 4881POPC   PO463492  24.873  39.000   5.281
 4881POPC   GL163493  25.184  39.127   5.659
 4881POPC   GL263494  25.183  39.447   5.835
 4881POPC   C1A63495  25.310  38.975   6.098
 4881POPC   D2A63496  25.213  38.831   6.531
 4881POPC   C3A63497  25.287  39.114   6.884
 4881POPC   C4A63498  25.050  39.206   7.303
 4881POPC   C1B63499  25.566  39.445   6.143
 4881POPC   C2B63500  25.593  39.530   6.614
 4881POPC   C3B63501  25.352  39.591   7.028
 4881POPC   C4B63502  25.523  39.408   7.381
 4882POPC   NC363503   9.809  20.172   5.314
 4882POPC   PO463504   9.828  20.811   5.197
 4882POPC   GL163505   9.699  20.666   5.624
 4882POPC   GL263506   9.501  20.924   5.765
 4882POPC   C1A63507   9.691  20.578   6.102
 4882POPC   D2A63508   9.695  20.657   6.543
 4882POPC   C3A63509   9.582  20.466   6.937
 4882POPC   C4A63510   9.795  20.476   7.360
 4882POPC   C1B63511   9.489  21.030   6.209
 4882POPC   C2B63512   9.621  21.143   6.631
 4882POPC   C3B63513   9.805  20.914   7.014
 4882POPC   C4B63514   9.672  20.970   7.439
 4883POPC   NC363515  36.579   1.084   5.160
 4883POPC   PO463516  36.903   1.527   5.540
 4883POPC   GL163517  37.059   1.308   5.839
 4883POPC   GL263518  37.017   0.968   5.743
 4883POPC   C1A63519  36.923   1.251   6.230
 4883POPC   D2A63520  36.779   1.455   6.615
 4883POPC   C3A63521  36.906   1.359   7.053
 4883POPC   C4A63522  36.930   1.325   7.534
 4883POPC   C1B63523  37.091   0.773   6.155
 4883POPC   C2B63524  36.955   0.866   6.581
 4883POPC   C3B63525  36.616   0.991   6.848
 4883POPC   C4B63526  36.671   0.961   7.302
 4884POPC   NC363527   2.296  11.845   5.176
 4884POPC   PO463528   1.848  11.354   5.433
 4884POPC   GL163529   2.051  11.204   5.853
 4884POPC   GL263530   1.987  11.486   5.975
 4884POPC   C1A63531   2.148  11.258   6.369
 4884POPC   D2A63532   2.321  11.394   6.778
 4884POPC   C3A63533   2.077  11.294   7.157
 4884POPC   C4A63534   1.809  11.231   7.524
 4884POPC   C1B63535   1.728  11.579   6.326
 4884POPC   C2B63536   1.813  11.461   6.729
 4884POPC   C3B63537   1.605  11.446   7.076
 4884POPC   C4B63538   1.557  11.656   7.439
 4885POPC   NC363539   7.254  21.500   5.407
 4885POPC   PO463540   7.872  21.255   5.525
 4885POPC   GL163541   7.657  21.091   5.867
 4885POPC   GL263542   7.317  21.196   5.829
 4885POPC   C1A63543   7.581  21.232   6.302
 4885POPC   D2A63544   7.279  21.361   6.631
 4885POPC   C3A63545   7.368  21.530   7.033
 4885POPC   C4A63546   7.707  21.764   7.214
 4885POPC   C1B63547   7.075  21.085   6.204
 4885POPC   C2B63548   6.990  20.939   6.638
 4885POPC   C3B63549   6.965  21.183   7.046
 4885POPC   C4B63550   6.860  21.602   7.171
 4886POPC   NC363551  25.417  14.034   5.464
 4886POPC   PO463552  25.139  13.432   5.382
 4886POPC   GL163553  25.288  13.652   5.772
 4886POPC   GL263554  25.015  13.865   5.829
 4886POPC   C1A63555  25.347  13.780   6.215
 4886POPC   D2A63556  25.486  13.597   6.583
 4886POPC   C3A63557  25.498  13.896   6.856
 4886POPC   C4A63558  25.131  14.005   7.070
 4886POPC   C1B63559  24.932  13.481   6.112
 4886POPC   C2B63560  24.998  13.353   6.545
 4886POPC   C3B63561  25.160  13.473   6.955
 4886POPC   C4B63562  24.934  13.361   7.318
 4887POPC   NC363563   3.566  39.471   5.499
 4887POPC   PO463564   3.327  38.836   5.491
 4887POPC   GL163565   3.439  39.065   5.841
 4887POPC   GL263566   3.790  39.092   5.789
 4887POPC   C1A63567   3.491  39.182   6.277
 4887POPC   D2A63568   3.636  39.511   6.566
 4887POPC   C3A63569   3.530  39.362   6.946
 4887POPC   C4A63570   3.345  39.469   7.311
 4887POPC   C1B63571   3.921  38.881   6.157
 4887POPC   C2B63572   3.903  38.977   6.590
 4887POPC   C3B63573   3.714  38.872   6.983
 4887POPC   C4B63574   3.705  39.107   7.350
 4888POPC   NC363575   0.751  17.511   5.483
 4888POPC   PO463576   1.335  18.003   5.423
 4888POPC   GL163577   1.288  17.765   5.861
 4888POPC   GL263578   1.089  17.477   5.848
 4888POPC   C1A63579   1.427  17.552   6.254
 4888POPC   D2A63580   1.527  17.464   6.694
 4888POPC   C3A63581   1.282  17.695   6.994
 4888POPC   C4A63582   1.397  17.882   7.364
 4888POPC   C1B63583   0.938  17.439   6.221
 4888POPC   C2B63584   0.979  17.477   6.644
 4888POPC   C3B63585   0.896  17.338   7.066
 4888POPC   C4B63586   1.121  17.417   7.438
 4889POPC   NC363587  39.457   4.695   5.018
 4889POPC   PO463588  39.317   4.181   5.377
 4889POPC   GL163589  39.328   4.379   5.787
 4889POPC   GL263590  39.002   4.600   5.799
 4889POPC   C1A63591  39.408   4.131   6.141
 4889POPC   D2A63592  39.184   3.996   6.521
 4889POPC   C3A63593  39.441   4.001   6.911
 4889POPC   C4A63594  39.433   4.116   7.354
 4889POPC   C1B63595  39.120   4.541   6.230
 4889POPC   C2B63596  39.000   4.502   6.649
 4889POPC   C3B63597  39.154   4.470   7.076
 4889POPC   C4B63598  39.162   4.488   7.542
 4890POPC   NC363599  37.565  41.223   5.450
 4890POPC   PO463600  37.840  40.603   5.474
 4890POPC   GL163601  37.616  40.815   5.777
 4890POPC   GL263602  37.893  41.012   5.814
 4890POPC   C1A63603  37.606  40.767   6.232
 4890POPC   D2A63604  37.408  40.748   6.643
 4890POPC   C3A63605  37.702  40.712   6.969
 4890POPC   C4A63606  37.629  40.586   7.383
 4890POPC   C1B63607  37.956  41.169   6.198
 4890POPC   C2B63608  37.822  41.103   6.606
 4890POPC   C3B63609  38.119  41.018   6.915
 4890POPC   C4B63610  38.099  41.172   7.301
 4891POPC   NC363611  13.242  15.908   5.225
 4891POPC   PO463612  12.615  15.735   5.506
 4891POPC   GL163613  12.833  15.916   5.850
 4891POPC   GL263614  12.617  16.171   5.918
 4891POPC   C1A63615  13.020  15.821   6.282
 4891POPC   D2A63616  13.111  15.529   6.617
 4891POPC   C3A63617  13.172  15.727   6.984
 4891POPC   C4A63618  13.053  16.118   7.105
 4891POPC   C1B63619  12.530  15.993   6.295
 4891POPC   C2B63620  12.769  16.108   6.656
 4891POPC   C3B63621  12.713  16.451   6.943
 4891POPC   C4B63622  12.575  16.333   7.348
 4892POPC   NC363623  41.173  35.057   5.382
 4892POPC   PO463624  40.529  35.402   5.448
 4892POPC   GL163625  40.854  35.271   5.753
 4892POPC   GL263626  40.980  35.600   5.824
 4892POPC   C1A63627  40.949  35.286   6.215
 4892POPC   D2A63628  40.688  35.335   6.567
 4892POPC   C3A63629  40.853  35.334   6.972
 4892POPC   C4A63630  40.644  35.037   7.241
 4892POPC   C1B63631  40.565  35.598   6.066
 4892POPC   C2B63632  40.353  35.699   6.421
 4892POPC   C3B63633  40.476  35.765   6.829
 4892POPC   C4B63634  40.465  35.574   7.212
 4893POPC   NC363635   4.415  31.913   5.375
 4893POPC   PO463636   3.887  32.354   5.354
 4893POPC   GL163637   4.306  32.318   5.659
 4893POPC   GL263638   4.396  32.619   5.847
 4893POPC   C1A63639   4.491  32.085   6.041
 4893POPC   D2A63640   4.478  32.031   6.494
 4893POPC   C3A63641   4.479  32.262   6.886
 4893POPC   C4A63642   4.411  32.103   7.311
 4893POPC   C1B63643   4.197  32.446   6.234
 4893POPC   C2B63644   3.998  32.237   6.594
 4893POPC   C3B63645   3.987  32.210   7.045
 4893POPC   C4B63646   4.174  32.562   7.261
 4894POPC   NC363647   7.991   6.276   5.602
 4894POPC   PO463648   7.547   6.759   5.415
 4894POPC   GL163649   7.595   6.532   5.812
 4894POPC   GL263650   7.674   6.867   5.916
 4894POPC   C1A63651   7.572   6.354   6.246
 4894POPC   D2A63652   7.770   6.470   6.661
 4894POPC   C3A63653   7.575   6.506   6.997
 4894POPC   C4A63654   7.185   6.388   7.125
 4894POPC   C1B63655   7.677   6.878   6.364
 4894POPC   C2B63656   7.727   6.981   6.784
 4894POPC   C3B63657   7.568   6.971   7.200
 4894POPC   C4B63658   7.669   6.876   7.631
 4895POPC   NC363659  39.677   8.466   5.446
 4895POPC   PO463660  40.053   8.040   5.242
 4895POPC   GL163661  39.902   8.065   5.699
 4895POPC   GL263662  39.706   7.804   5.836
 4895POPC   C1A63663  39.840   8.243   6.140
 4895POPC   D2A63664  39.947   8.122   6.598
 4895POPC   C3A63665  39.851   8.357   7.008
 4895POPC   C4A63666  39.824   8.561   7.431
 4895POPC   C1B63667  39.834   7.745   6.241
 4895POPC   C2B63668  39.627   7.722   6.628
 4895POPC   C3B63669  39.760   7.852   7.013
 4895POPC   C4B63670  39.957   7.996   7.406
 4896POPC   NC363671  43.647  33.365   5.138
 4896POPC   PO463672  43.624  32.829   5.524
 4896POPC   GL163673  43.758  32.931   5.897
 4896POPC   GL263674  43.641  33.293   5.982
 4896POPC   C1A63675  43.726  32.719   6.269
 4896POPC   D2A63676  43.805  32.465   6.601
 4896POPC   C3A63677  43.839  32.682   6.988
 4896POPC   C4A63678  43.784  33.016   7.270
 4896POPC   C1B63679  44.010  33.194   6.238
 4896POPC   C2B63680  44.081  32.931   6.577
 4896POPC   C3B63681  44.251  32.973   6.929
 4896POPC   C4B63682  44.227  33.292   7.201
 4897POPC   NC363683  15.647  44.471   5.626
 4897POPC   PO463684  16.161  44.918   5.334
 4897POPC   GL163685  16.064  44.750   5.748
 4897POPC   GL263686  15.789  44.883   5.914
 4897POPC   C1A63687  16.205  44.799   6.202
 4897POPC   D2A63688  16.202  44.533   6.575
 4897POPC   C3A63689  16.059  44.613   6.979
 4897POPC   C4A63690  15.711  44.414   7.190
 4897POPC   C1B63691  15.747  44.641   6.291
 4897POPC   C2B63692  15.803  44.906   6.655
 4897POPC   C3B63693  15.634  44.925   7.078
 4897POPC   C4B63694  15.525  44.774   7.494
 4898POPC   NC363695  38.410  38.127   5.270
 4898POPC   PO463696  38.490  37.513   5.327
 4898POPC   GL163697  38.451  37.798   5.705
 4898POPC   GL263698  38.380  37.504   5.883
 4898POPC   C1A63699  38.606  37.859   6.178
 4898POPC   D2A63700  38.434  37.846   6.644
 4898POPC   C3A63701  38.563  37.781   7.102
 4898POPC   C4A63702  38.482  37.817   7.572
 4898POPC   C1B63703  38.345  37.413   6.322
 4898POPC   C2B63704  38.175  37.175   6.662
 4898POPC   C3B63705  38.192  37.132   7.073
 4898POPC   C4B63706  38.350  37.379   7.363
 4899POPC   NC363707  42.161  35.192   5.455
 4899POPC   PO463708  42.758  35.420   5.474
 4899POPC   GL163709  42.495  35.305   5.867
 4899POPC   GL263710  42.118  35.327   5.920
 4899POPC   C1A63711  42.412  35.458   6.302
 4899POPC   D2A63712  42.167  35.543   6.649
 4899POPC   C3A63713  42.386  35.295   6.898
 4899POPC   C4A63714  42.662  35.290   7.234
 4899POPC   C1B63715  41.886  35.262   6.273
 4899POPC   C2B63716  41.940  34.987   6.609
 4899POPC   C3B63717  41.988  34.947   7.022
 4899POPC   C4B63718  42.149  35.154   7.348
 4900POPC   NC363719   5.175  29.721   5.633
 4900POPC   PO463720   5.415  29.049   5.566
 4900POPC   GL163721   5.105  29.250   5.836
 4900POPC   GL263722   4.735  29.207   5.824
 4900POPC   C1A63723   5.151  29.404   6.250
 4900POPC   D2A63724   5.308  29.542   6.643
 4900POPC   C3A63725   5.208  29.232   6.923
 4900POPC   C4A63726   5.077  28.779   7.011
 4900POPC   C1B63727   4.627  29.333   6.262
 4900POPC   C2B63728   4.730  29.169   6.668
 4900POPC   C3B63729   4.745  29.155   7.110
 4900POPC   C4B63730   4.990  29.390   7.363
 4901POPC   NC363731  35.162  41.129   5.185
 4901POPC   PO463732  35.575  41.479   5.588
 4901POPC   GL163733  35.253  41.465   5.795
 4901POPC   GL263734  35.212  41.783   5.892
 4901POPC   C1A63735  35.147  41.335   6.200
 4901POPC   D2A63736  35.214  41.434   6.618
 4901POPC   C3A63737  35.562  41.618   6.739
 4901POPC   C4A63738  35.624  41.608   7.125
 4901POPC   C1B63739  35.372  41.828   6.294
 4901POPC   C2B63740  35.167  41.958   6.668
 4901POPC   C3B63741  35.078  41.750   7.029
 4901POPC   C4B63742  34.974  41.926   7.424
 4902POPC   NC363743  40.954  28.253   5.197
 4902POPC   PO463744  41.632  28.263   5.191
 4902POPC   GL163745  41.751  28.221   5.659
 4902POPC   GL263746  41.766  28.559   5.756
 4902POPC   C1A63747  41.638  28.167   6.137
 4902POPC   D2A63748  41.303  28.306   6.490
 4902POPC   C3A63749  41.210  28.086   6.920
 4902POPC   C4A63750  41.450  27.967   7.293
 4902POPC   C1B63751  41.504  28.638   6.136
 4902POPC   C2B63752  41.640  28.676   6.551
 4902POPC   C3B63753  41.589  28.431   6.917
 4902POPC   C4B63754  41.473  28.566   7.318
 4903POPC   NC363755  19.301  31.845   5.492
 4903POPC   PO463756  18.857  31.342   5.502
 4903POPC   GL163757  19.016  31.525   5.879
 4903POPC   GL263758  19.377  31.545   5.908
 4903POPC   C1A63759  18.897  31.452   6.310
 4903POPC   D2A63760  18.832  31.661   6.719
 4903POPC   C3A63761  18.846  31.377   7.069
 4903POPC   C4A63762  18.917  31.463   7.495
 4903POPC   C1B63763  19.392  31.341   6.319
 4903POPC   C2B63764  19.252  31.349   6.752
 4903POPC   C3B63765  19.371  31.260   7.183
 4903POPC   C4B63766  19.367  31.226   7.659
 4904POPC   NC363767  44.708  37.121   5.500
 4904POPC   PO463768  44.670  36.412   5.376
 4904POPC   GL163769  44.754  36.662   5.752
 4904POPC   GL263770  44.432  36.856   5.841
 4904POPC   C1A63771  44.815  36.796   6.199
 4904POPC   D2A63772  44.642  36.616   6.590
 4904POPC   C3A63773  44.871  36.687   6.988
 4904POPC   C4A63774  44.684  36.557   7.396
 4904POPC   C1B63775  44.350  37.085   6.251
 4904POPC   C2B63776  44.455  37.069   6.716
 4904POPC   C3B63777  44.485  36.980   7.186
 4904POPC   C4B63778  44.368  36.884   7.642
 4905POPC   NC363779  35.313  13.502   5.459
 4905POPC   PO463780  35.092  12.892   5.424
 4905POPC   GL163781  35.200  12.779   5.839
 4905POPC   GL263782  34.981  12.498   5.873
 4905POPC   C1A63783  35.456  12.977   6.188
 4905POPC   D2A63784  35.679  13.111   6.570
 4905POPC   C3A63785  35.404  13.140   6.924
 4905POPC   C4A63786  35.308  13.028   7.390
 4905POPC   C1B63787  35.236  12.505   6.269
 4905POPC   C2B63788  35.375  12.686   6.660
 4905POPC   C3B63789  35.191  12.675   7.047
 4905POPC   C4B63790  35.223  12.534   7.481
 4906POPC   NC363791  21.600  44.182   5.472
 4906POPC   PO463792  21.138  44.695   5.398
 4906POPC   GL163793  21.374  44.537   5.774
 4906POPC   GL263794  21.744  44.591   5.790
 4906POPC   C1A63795  21.431  44.694   6.202
 4906POPC   D2A63796  21.274  44.821   6.593
 4906POPC   C3A63797  21.422  44.607   6.988
 4906POPC   C4A63798  21.301  44.716   7.440
 4906POPC   C1B63799  21.816  44.299   6.131
 4906POPC   C2B63800  21.690  44.184   6.551
 4906POPC   C3B63801  21.564  44.116   6.978
 4906POPC   C4B63802  21.569  44.301   7.393
 4907POPC   NC363803  22.112   2.330   5.314
 4907POPC   PO463804  22.130   1.688   5.287
 4907POPC   GL163805  22.017   1.932   5.685
 4907POPC   GL263806  22.309   2.044   5.900
 4907POPC   C1A63807  21.860   1.995   6.135
 4907POPC   D2A63808  21.761   1.808   6.570
 4907POPC   C3A63809  21.901   1.957   6.968
 4907POPC   C4A63810  21.933   1.858   7.414
 4907POPC   C1B63811  22.396   1.978   6.321
 4907POPC   C2B63812  22.318   1.823   6.725
 4907POPC   C3B63813  22.398   1.890   7.163
 4907POPC   C4B63814  22.444   1.987   7.608
 4908POPC   NC363815  10.747   6.439   5.418
 4908POPC   PO463816  10.209   6.905   5.421
 4908POPC   GL163817  10.500   6.768   5.752
 4908POPC   GL263818  10.830   6.891   5.853
 4908POPC   C1A63819  10.514   6.652   6.184
 4908POPC   D2A63820  10.329   6.656   6.592
 4908POPC   C3A63821  10.613   6.491   6.865
 4908POPC   C4A63822  10.784   6.470   7.248
 4908POPC   C1B63823  10.861   7.053   6.290
 4908POPC   C2B63824  10.754   6.962   6.734
 4908POPC   C3B63825  10.768   6.975   7.200
 4908POPC   C4B63826  10.812   6.862   7.614
 4909POPC   NC363827  11.271  17.457   5.397
 4909POPC   PO463828  11.649  16.947   5.515
 4909POPC   GL163829  11.555  17.354   5.812
 4909POPC   GL263830  11.563  17.743   5.738
 4909POPC   C1A63831  11.279  17.380   6.225
 4909POPC   D2A63832  11.266  17.652   6.631
 4909POPC   C3A63833  11.231  17.376   7.023
 4909POPC   C4A63834  11.100  17.191   7.457
 4909POPC   C1B63835  11.569  17.781   6.181
 4909POPC   C2B63836  11.839  17.716   6.549
 4909POPC   C3B63837  11.715  17.728   6.965
 4909POPC   C4B63838  11.358  17.892   7.100
 4910POPC   NC363839  28.471  23.591   5.164
 4910POPC   PO463840  28.501  24.207   5.452
 4910POPC   GL163841  28.480  23.884   5.737
 4910POPC   GL263842  28.211  24.059   5.900
 4910POPC   C1A63843  28.513  23.729   6.166
 4910POPC   D2A63844  28.342  23.743   6.591
 4910POPC   C3A63845  28.574  23.783   6.985
 4910POPC   C4A63846  28.769  23.475   7.229
 4910POPC   C1B63847  28.076  24.179   6.311
 4910POPC   C2B63848  27.902  23.990   6.684
 4910POPC   C3B63849  28.052  23.802   7.072
 4910POPC   C4B63850  28.324  23.734   7.454
 4911POPC   NC363851   3.113  20.932   5.404
 4911POPC   PO463852   2.657  20.401   5.292
 4911POPC   GL163853   2.643  20.670   5.696
 4911POPC   GL263854   2.971  20.612   5.817
 4911POPC   C1A63855   2.639  20.902   6.119
 4911POPC   D2A63856   2.958  20.869   6.468
 4911POPC   C3A63857   2.754  20.898   6.879
 4911POPC   C4A63858   2.755  20.806   7.314
 4911POPC   C1B63859   2.798  20.418   6.203
 4911POPC   C2B63860   2.678  20.211   6.602
 4911POPC   C3B63861   2.735  20.376   7.029
 4911POPC   C4B63862   2.947  20.343   7.444
 4912POPC   NC363863  18.911  34.906   5.315
 4912POPC   PO463864  19.350  34.375   5.307
 4912POPC   GL163865  19.301  34.687   5.636
 4912POPC   GL263866  18.956  34.680   5.761
 4912POPC   C1A63867  19.373  34.694   6.094
 4912POPC   D2A63868  19.265  34.437   6.465
 4912POPC   C3A63869  19.321  34.616   6.898
 4912POPC   C4A63870  19.245  34.438   7.330
 4912POPC   C1B63871  18.830  34.548   6.164
 4912POPC   C2B63872  18.845  34.711   6.578
 4912POPC   C3B63873  18.812  34.470   6.935
 4912POPC   C4B63874  18.710  34.577   7.312
 4913POPC   NC363875  41.383  14.288   5.462
 4913POPC   PO463876  41.991  14.238   5.668
 4913POPC   GL163877  41.651  14.370   5.915
 4913POPC   GL263878  41.543  14.690   5.791
 4913POPC   C1A63879  41.530  14.274   6.336
 4913POPC   D2A63880  41.701  14.000   6.647
 4913POPC   C3A63881  41.791  14.280   6.973
 4913POPC   C4A63882  41.747  14.300   7.374
 4913POPC   C1B63883  41.510  14.771   6.248
 4913POPC   C2B63884  41.411  14.607   6.701
 4913POPC   C3B63885  41.412  14.616   7.151
 4913POPC   C4B63886  41.403  14.806   7.558
 4914POPC   NC363887  40.045  34.078   5.245
 4914POPC   PO463888  40.141  33.369   5.253
 4914POPC   GL163889  40.107  33.646   5.640
 4914POPC   GL263890  39.801  33.833   5.657
 4914POPC   C1A63891  40.030  33.507   6.101
 4914POPC   D2A63892  39.944  33.721   6.503
 4914POPC   C3A63893  40.025  33.616   6.907
 4914POPC   C4A63894  40.136  33.819   7.280
 4914POPC   C1B63895  39.781  33.951   6.090
 4914POPC   C2B63896  39.485  34.007   6.441
 4914POPC   C3B63897  39.580  33.924   6.851
 4914POPC   C4B63898  39.652  34.001   7.255
 4915POPC   NC363899  23.943  37.360   5.387
 4915POPC   PO463900  23.415  37.859   5.375
 4915POPC   GL163901  23.575  37.633   5.724
 4915POPC   GL263902  23.879  37.841   5.682
 4915POPC   C1A63903  23.451  37.576   6.175
 4915POPC   D2A63904  23.412  37.872   6.560
 4915POPC   C3A63905  23.408  37.760   7.016
 4915POPC   C4A63906  23.461  37.775   7.492
 4915POPC   C1B63907  24.004  37.596   6.041
 4915POPC   C2B63908  23.871  37.615   6.489
 4915POPC   C3B63909  23.926  37.461   6.909
 4915POPC   C4B63910  23.695  37.378   7.256
 4916POPC   NC363911  43.517  43.241   5.485
 4916POPC   PO463912  43.007  42.763   5.494
 4916POPC   GL163913  43.152  42.984   5.840
 4916POPC   GL263914  43.276  43.303   5.931
 4916POPC   C1A63915  42.867  43.069   6.164
 4916POPC   D2A63916  42.779  43.284   6.524
 4916POPC   C3A63917  42.967  43.065   6.860
 4916POPC   C4A63918  42.867  43.062   7.256
 4916POPC   C1B63919  43.306  43.245   6.377
 4916POPC   C2B63920  43.220  43.486   6.735
 4916POPC   C3B63921  43.180  43.468   7.182
 4916POPC   C4B63922  43.410  43.382   7.558
 4917POPC   NC363923   3.716  15.351   5.031
 4917POPC   PO463924   3.377  15.131   5.575
 4917POPC   GL163925   3.547  15.159   5.951
 4917POPC   GL263926   3.771  14.927   5.991
 4917POPC   C1A63927   3.480  15.098   6.381
 4917POPC   D2A63928   3.364  15.391   6.678
 4917POPC   C3A63929   3.415  15.253   7.101
 4917POPC   C4A63930   3.229  15.390   7.476
 4917POPC   C1B63931   3.994  15.079   6.292
 4917POPC   C2B63932   3.895  15.269   6.671
 4917POPC   C3B63933   4.031  15.087   7.029
 4917POPC   C4B63934   3.827  15.183   7.399
 4918POPC   NC363935   4.977  31.245   5.598
 4918POPC   PO463936   4.842  30.617   5.307
 4918POPC   GL163937   4.986  30.650   5.761
 4918POPC   GL263938   4.771  30.493   6.009
 4918POPC   C1A63939   5.020  30.904   6.156
 4918POPC   D2A63940   5.124  31.031   6.579
 4918POPC   C3A63941   4.917  30.864   6.910
 4918POPC   C4A63942   4.922  30.810   7.332
 4918POPC   C1B63943   5.072  30.400   6.336
 4918POPC   C2B63944   4.962  30.374   6.773
 4918POPC   C3B63945   5.112  30.346   7.178
 4918POPC   C4B63946   4.967  30.319   7.605
 4919POPC   NC363947   3.514   7.823   5.503
 4919POPC   PO463948   3.229   8.497   5.539
 4919POPC   GL163949   3.298   8.146   5.841
 4919POPC   GL263950   3.653   8.022   5.955
 4919POPC   C1A63951   3.201   7.939   6.238
 4919POPC   D2A63952   3.115   7.903   6.680
 4919POPC   C3A63953   3.429   8.048   6.946
 4919POPC   C4A63954   3.411   8.445   7.103
 4919POPC   C1B63955   3.594   8.422   6.196
 4919POPC   C2B63956   3.824   8.596   6.553
 4919POPC   C3B63957   3.908   8.398   6.917
 4919POPC   C4B63958   3.842   8.604   7.268
 4920POPC   NC363959  31.390  37.249   5.570
 4920POPC   PO463960  31.719  36.612   5.469
 4920POPC   GL163961  31.583  36.822   5.824
 4920POPC   GL263962  31.221  36.833   5.852
 4920POPC   C1A63963  31.563  36.930   6.245
 4920POPC   D2A63964  31.701  36.926   6.635
 4920POPC   C3A63965  31.439  36.867   6.954
 4920POPC   C4A63966  31.508  36.795   7.379
 4920POPC   C1B63967  31.116  37.157   6.184
 4920POPC   C2B63968  31.172  37.178   6.632
 4920POPC   C3B63969  31.172  37.346   7.069
 4920POPC   C4B63970  31.291  37.241   7.519
 4921POPC   NC363971  29.537  43.918   5.565
 4921POPC   PO463972  29.131  44.543   5.399
 4921POPC   GL163973  28.987  44.768   5.773
 4921POPC   GL263974  29.324  44.935   5.782
 4921POPC   C1A63975  28.937  44.630   6.223
 4921POPC   D2A63976  29.224  44.538   6.568
 4921POPC   C3A63977  29.056  44.649   6.959
 4921POPC   C4A63978  29.272  44.500   7.356
 4921POPC   C1B63979  29.444  44.814   6.188
 4921POPC   C2B63980  29.608  44.980   6.561
 4921POPC   C3B63981  29.547  44.775   6.917
 4921POPC   C4B63982  29.570  44.927   7.290
 4922POPC   NC363983  10.070  15.002   5.271
 4922POPC   PO463984  10.795  15.340   5.283
 4922POPC   GL163985  10.710  15.157   5.725
 4922POPC   GL263986  10.348  15.093   5.699
 4922POPC   C1A63987  10.707  15.222   6.200
 4922POPC   D2A63988  10.630  15.139   6.644
 4922POPC   C3A63989  10.788  15.399   6.988
 4922POPC   C4A63990  10.759  15.443   7.463
 4922POPC   C1B63991  10.344  14.854   6.074
 4922POPC   C2B63992  10.350  14.699   6.506
 4922POPC   C3B63993  10.301  14.851   6.938
 4922POPC   C4B63994  10.410  15.152   7.242
 4923POPC   NC363995  30.861  34.453   5.349
 4923POPC   PO463996  30.280  34.785   5.407
 4923POPC   GL163997  30.535  34.580   5.705
 4923POPC   GL263998  30.889  34.718   5.783
 4923POPC   C1A63999  30.567  34.513   6.130
 4923POPC   D2A64000  30.500  34.663   6.517
 4923POPC   C3A64001  30.665  34.401   6.849
 4923POPC   C4A64002  30.677  34.485   7.280
 4923POPC   C1B64003  31.060  34.569   6.209
 4923POPC   C2B64004  31.015  34.766   6.610
 4923POPC   C3B64005  31.120  34.649   7.014
 4923POPC   C4B64006  31.074  34.207   7.153
 4924POPC   NC364007  19.775  11.655   5.421
 4924POPC   PO464008  19.994  12.293   5.444
 4924POPC   GL164009  19.958  11.995   5.753
 4924POPC   GL264010  20.231  11.753   5.772
 4924POPC   C1A64011  19.730  12.005   6.140
 4924POPC   D2A64012  19.694  12.340   6.451
 4924POPC   C3A64013  19.682  12.172   6.855
 4924POPC   C4A64014  19.809  12.256   7.254
 4924POPC   C1B64015  20.257  12.021   6.155
 4924POPC   C2B64016  20.078  11.987   6.564
 4924POPC   C3B64017  20.214  12.158   6.948
 4924POPC   C4B64018  20.257  11.928   7.306
 4925POPC   NC364019   5.709  44.956   5.373
 4925POPC   PO464020   6.175  44.567   5.522
 4925POPC   GL164021   5.919  44.612   5.891
 4925POPC   GL264022   5.617  44.826   5.869
 4925POPC   C1A64023   5.824  44.656   6.317
 4925POPC   D2A64024   6.003  44.829   6.673
 4925POPC   C3A64025   5.884  44.646   7.048
 4925POPC   C4A64026   5.654  44.642   7.427
 4925POPC   C1B64027   5.500   0.045   6.237
 4925POPC   C2B64028   5.437  44.936   6.670
 4925POPC   C3B64029   5.465   0.033   7.117
 4925POPC   C4B64030   5.770   0.189   7.417
 4926POPC   NC364031   7.077  40.069   5.464
 4926POPC   PO464032   6.455  39.780   5.359
 4926POPC   GL164033   6.490  39.994   5.763
 4926POPC   GL264034   6.600  39.823   6.069
 4926POPC   C1A64035   6.279  40.200   6.133
 4926POPC   D2A64036   6.511  40.099   6.514
 4926POPC   C3A64037   6.478  40.098   6.945
 4926POPC   C4A64038   6.670  39.757   7.131
 4926POPC   C1B64039   6.815  40.226   6.120
 4926POPC   C2B64040   7.072  40.317   6.482
 4926POPC   C3B64041   7.130  40.286   6.953
 4926POPC   C4B64042   6.945  40.147   7.358
 4927POPC   NC364043  44.914   3.099   5.380
 4927POPC   PO464044  44.579   2.548   5.535
 4927POPC   GL164045  44.600   2.833   5.888
 4927POPC   GL264046  44.467   3.143   5.725
 4927POPC   C1A64047  44.640   2.765   6.369
 4927POPC   D2A64048  44.899   2.557   6.681
 4927POPC   C3A64049  44.822   2.594   7.115
 4927POPC   C4A64050   0.019   2.337   7.412
 4927POPC   C1B64051  44.303   3.153   6.161
 4927POPC   C2B64052  44.204   3.010   6.593
 4927POPC   C3B64053  44.355   2.836   6.999
 4927POPC   C4B64054  44.495   2.968   7.415
 4928POPC   NC364055  31.214  23.584   5.492
 4928POPC   PO464056  31.642  24.049   5.403
 4928POPC   GL164057  31.748  23.923   5.853
 4928POPC   GL264058  31.527  23.630   5.879
 4928POPC   C1A64059  31.747  23.742   6.315
 4928POPC   D2A64060  31.733  23.427   6.658
 4928POPC   C3A64061  31.827  23.534   7.050
 4928POPC   C4A64062  31.679  23.913   7.205
 4928POPC   C1B64063  31.201  23.467   6.142
 4928POPC   C2B64064  31.054  23.633   6.509
 4928POPC   C3B64065  31.308  23.653   6.860
 4928POPC   C4B64066  31.339  23.403   7.215
 4929POPC   NC364067  37.421  11.034   5.029
 4929POPC   PO464068  37.856  11.582   5.173
 4929POPC   GL164069  37.719  11.322   5.572
 4929POPC   GL264070  37.426  11.054   5.570
 4929POPC   C1A64071  37.881  11.191   5.995
 4929POPC   D2A64072  37.978  11.236   6.444
 4929POPC   C3A64073  37.671  11.273   6.765
 4929POPC   C4A64074  37.655  11.569   7.116
 4929POPC   C1B64075  37.389  10.983   6.043
 4929POPC   C2B64076  37.219  10.945   6.502
 4929POPC   C3B64077  37.360  10.884   6.963
 4929POPC   C4B64078  37.697  11.057   7.237
 4930POPC   NC364079  32.633  16.414   5.848
 4930POPC   PO464080  32.955  16.832   5.426
 4930POPC   GL164081  33.068  16.733   5.821
 4930POPC   GL264082  33.298  16.453   5.780
 4930POPC   C1A64083  32.921  16.894   6.225
 4930POPC   D2A64084  33.088  17.034   6.611
 4930POPC   C3A64085  32.932  16.855   6.989
 4930POPC   C4A64086  32.595  16.603   7.199
 4930POPC   C1B64087  33.148  16.344   6.215
 4930POPC   C2B64088  32.867  16.461   6.592
 4930POPC   C3B64089  32.989  16.335   7.012
 4930POPC   C4B64090  33.423  16.428   7.105
 4931POPC   NC364091   1.205  30.103   5.437
 4931POPC   PO464092   1.157  29.488   5.490
 4931POPC   GL164093   1.207  29.750   5.843
 4931POPC   GL264094   1.006  30.065   5.908
 4931POPC   C1A64095   1.366  29.796   6.248
 4931POPC   D2A64096   1.165  29.942   6.621
 4931POPC   C3A64097   1.334  29.799   7.017
 4931POPC   C4A64098   1.173  29.942   7.448
 4931POPC   C1B64099   1.278  30.283   6.174
 4931POPC   C2B64100   1.253  30.467   6.586
 4931POPC   C3B64101   1.276  30.302   7.021
 4931POPC   C4B64102   1.611  30.200   7.315
 4932POPC   NC364103  28.721  24.681   5.424
 4932POPC   PO464104  29.304  24.314   5.450
 4932POPC   GL164105  29.111  24.535   5.782
 4932POPC   GL264106  29.414  24.614   5.948
 4932POPC   C1A64107  29.001  24.488   6.243
 4932POPC   D2A64108  29.087  24.208   6.622
 4932POPC   C3A64109  28.823  24.275   6.973
 4932POPC   C4A64110  28.766  24.621   7.214
 4932POPC   C1B64111  29.465  24.666   6.370
 4932POPC   C2B64112  29.182  24.735   6.694
 4932POPC   C3B64113  29.288  24.539   7.039
 4932POPC   C4B64114  29.672  24.295   7.073
 4933POPC   NC364115  30.954  14.605   5.452
 4933POPC   PO464116  30.591  13.988   5.361
 4933POPC   GL164117  30.634  14.262   5.706
 4933POPC   GL264118  30.958  14.213   5.773
 4933POPC   C1A64119  30.528  14.409   6.136
 4933POPC   D2A64120  30.590  14.186   6.546
 4933POPC   C3A64121  30.829  14.329   6.902
 4933POPC   C4A64122  30.594  14.515   7.246
 4933POPC   C1B64123  31.023  14.358   6.205
 4933POPC   C2B64124  31.002  14.657   6.540
 4933POPC   C3B64125  31.171  14.787   6.935
 4933POPC   C4B64126  31.094  14.575   7.352
 4934POPC   NC364127  24.164  36.620   5.115
 4934POPC   PO464128  23.603  36.959   5.404
 4934POPC   GL164129  23.691  37.109   5.780
 4934POPC   GL264130  23.579  36.787   5.916
 4934POPC   C1A64131  23.795  37.176   6.197
 4934POPC   D2A64132  24.100  37.126   6.505
 4934POPC   C3A64133  23.901  36.945   6.846
 4934POPC   C4A64134  23.952  36.911   7.239
 4934POPC   C1B64135  23.833  36.667   6.255
 4934POPC   C2B64136  23.718  36.490   6.615
 4934POPC   C3B64137  23.876  36.431   6.964
 4934POPC   C4B64138  23.658  36.510   7.324
 4935POPC   NC364139  41.454  23.085   5.398
 4935POPC   PO464140  41.418  22.535   5.637
 4935POPC   GL164141  41.482  22.900   5.899
 4935POPC   GL264142  41.759  23.128   5.819
 4935POPC   C1A64143  41.483  22.848   6.344
 4935POPC   D2A64144  41.602  22.999   6.731
 4935POPC   C3A64145  41.444  22.690   6.966
 4935POPC   C4A64146  41.284  22.775   7.336
 4935POPC   C1B64147  41.950  22.959   6.181
 4935POPC   C2B64148  42.094  23.056   6.586
 4935POPC   C3B64149  42.012  23.217   6.995
 4935POPC   C4B64150  41.739  22.999   7.277
 4936POPC   NC364151  18.187  35.037   5.432
 4936POPC   PO464152  18.601  34.531   5.359
 4936POPC   GL164153  18.258  34.572   5.673
 4936POPC   GL264154  18.461  34.815   5.829
 4936POPC   C1A64155  18.149  34.557   6.134
 4936POPC   D2A64156  18.395  34.473   6.487
 4936POPC   C3A64157  18.289  34.524   6.907
 4936POPC   C4A64158  18.229  34.343   7.272
 4936POPC   C1B64159  18.496  34.945   6.244
 4936POPC   C2B64160  18.372  35.008   6.670
 4936POPC   C3B64161  18.411  34.985   7.117
 4936POPC   C4B64162  18.237  34.774   7.501
 4937POPC   NC364163  10.855  23.435   5.470
 4937POPC   PO464164  11.518  23.607   5.301
 4937POPC   GL164165  11.302  23.738   5.714
 4937POPC   GL264166  11.586  23.930   5.891
 4937POPC   C1A64167  11.023  23.852   6.094
 4937POPC   D2A64168  10.845  23.858   6.555
 4937POPC   C3A64169  11.085  23.841   6.940
 4937POPC   C4A64170  11.086  24.010   7.354
 4937POPC   C1B64171  11.705  23.866   6.323
 4937POPC   C2B64172  11.534  24.020   6.706
 4937POPC   C3B64173  11.589  23.867   7.130
 4937POPC   C4B64174  11.831  23.545   7.382
 4938POPC   NC364175  42.652  38.109   5.477
 4938POPC   PO464176  42.027  37.806   5.337
 4938POPC   GL164177  42.029  37.642   5.760
 4938POPC   GL264178  42.350  37.798   5.790
 4938POPC   C1A64179  42.226  37.486   6.162
 4938POPC   D2A64180  42.488  37.541   6.541
 4938POPC   C3A64181  42.323  37.384   6.959
 4938POPC   C4A64182  42.185  37.543   7.371
 4938POPC   C1B64183  42.582  37.924   6.141
 4938POPC   C2B64184  42.621  38.099   6.557
 4938POPC   C3B64185  42.435  37.900   6.915
 4938POPC   C4B64186  42.623  37.914   7.302
 4939POPC   NC364187  34.765  37.347   5.429
 4939POPC   PO464188  34.413  37.868   5.308
 4939POPC   GL164189  34.644  37.729   5.741
 4939POPC   GL264190  34.500  37.428   5.873
 4939POPC   C1A64191  34.887  37.599   6.165
 4939POPC   D2A64192  34.737  37.649   6.602
 4939POPC   C3A64193  34.950  37.702   7.010
 4939POPC   C4A64194  34.624  37.827   7.341
 4939POPC   C1B64195  34.484  37.267   6.300
 4939POPC   C2B64196  34.326  37.333   6.734
 4939POPC   C3B64197  34.575  37.371   7.113
 4939POPC   C4B64198  34.447  37.347   7.567
 4940POPC   NC364199  42.046  30.692   5.566
 4940POPC   PO464200  42.651  30.582   5.320
 4940POPC   GL164201  42.496  30.845   5.718
 4940POPC   GL264202  42.379  30.580   5.913
 4940POPC   C1A64203  42.531  31.012   6.212
 4940POPC   D2A64204  42.701  31.172   6.649
 4940POPC   C3A64205  42.590  30.991   7.079
 4940POPC   C4A64206  42.261  31.053   7.409
 4940POPC   C1B64207  42.180  30.651   6.295
 4940POPC   C2B64208  42.298  30.790   6.679
 4940POPC   C3B64209  42.204  30.646   7.076
 4940POPC   C4B64210  42.362  30.560   7.452
 4941POPC   NC364211  35.318  30.053   5.218
 4941POPC   PO464212  35.481  29.555   5.637
 4941POPC   GL164213  35.148  29.711   5.886
 4941POPC   GL264214  35.282  30.040   5.781
 4941POPC   C1A64215  35.152  29.805   6.353
 4941POPC   D2A64216  35.486  30.010   6.601
 4941POPC   C3A64217  35.664  29.769   6.928
 4941POPC   C4A64218  35.571  29.874   7.338
 4941POPC   C1B64219  35.290  30.261   6.186
 4941POPC   C2B64220  35.038  30.261   6.603
 4941POPC   C3B64221  35.221  30.177   7.044
 4941POPC   C4B64222  35.130  30.089   7.528
 4942POPC   NC364223   9.134   4.446   5.128
 4942POPC   PO464224   9.518   3.985   5.458
 4942POPC   GL164225   9.180   4.203   5.731
 4942POPC   GL264226   8.792   4.283   5.722
 4942POPC   C1A64227   9.007   4.164   6.157
 4942POPC   D2A64228   8.916   4.351   6.525
 4942POPC   C3A64229   8.925   4.143   6.906
 4942POPC   C4A64230   9.151   4.346   7.266
 4942POPC   C1B64231   8.571   4.499   6.104
 4942POPC   C2B64232   8.480   4.649   6.534
 4942POPC   C3B64233   8.739   4.633   6.914
 4942POPC   C4B64234   8.797   4.779   7.308
 4943POPC   NC364235  43.964  26.246   5.463
 4943POPC   PO464236  44.228  25.693   5.152
 4943POPC   GL164237  44.054  25.778   5.647
 4943POPC   GL264238  43.691  25.908   5.756
 4943POPC   C1A64239  44.080  26.016   6.090
 4943POPC   D2A64240  43.962  25.880   6.497
 4943POPC   C3A64241  43.996  26.073   6.900
 4943POPC   C4A64242  44.275  26.067   7.211
 4943POPC   C1B64243  43.585  26.119   6.177
 4943POPC   C2B64244  43.674  26.312   6.585
 4943POPC   C3B64245  43.550  26.315   7.017
 4943POPC   C4B64246  43.606  25.920   7.220
 4944POPC   NC364247  20.047  44.997   5.588
 4944POPC   PO464248  19.464  44.773   5.326
 4944POPC   GL164249  19.677  44.658   5.757
 4944POPC   GL264250  19.968  44.426   5.811
 4944POPC   C1A64251  19.696  44.747   6.239
 4944POPC   D2A64252  19.433  44.718   6.639
 4944POPC   C3A64253  19.547  44.963   6.993
 4944POPC   C4A64254  19.652  44.867   7.411
 4944POPC   C1B64255  19.737  44.249   6.127
 4944POPC   C2B64256  19.667  44.279   6.551
 4944POPC   C3B64257  19.816  44.520   6.909
 4944POPC   C4B64258  19.912  44.432   7.311
 4945POPC   NC364259   6.483   7.309   5.563
 4945POPC   PO464260   7.088   7.660   5.319
 4945POPC   GL164261   6.898   7.585   5.745
 4945POPC   GL264262   7.014   7.275   5.824
 4945POPC   C1A64263   6.790   7.656   6.198
 4945POPC   D2A64264   6.603   7.448   6.563
 4945POPC   C3A64265   6.644   7.623   6.974
 4945POPC   C4A64266   6.636   7.559   7.418
 4945POPC   C1B64267   6.812   7.074   6.189
 4945POPC   C2B64268   6.714   6.943   6.632
 4945POPC   C3B64269   6.438   7.137   6.952
 4945POPC   C4B64270   6.427   7.062   7.382
 4946POPC   NC364271  15.094   8.276   5.231
 4946POPC   PO464272  15.398   7.722   5.407
 4946POPC   GL164273  15.314   8.090   5.689
 4946POPC   GL264274  14.945   8.150   5.729
 4946POPC   C1A64275  15.244   8.080   6.138
 4946POPC   D2A64276  15.390   7.947   6.510
 4946POPC   C3A64277  15.205   8.220   6.841
 4946POPC   C4A64278  15.126   8.191   7.291
 4946POPC   C1B64279  14.731   8.133   6.141
 4946POPC   C2B64280  14.872   7.898   6.526
 4946POPC   C3B64281  14.802   7.904   6.965
 4946POPC   C4B64282  14.699   7.914   7.394
 4947POPC   NC364283  34.169  34.105   5.392
 4947POPC   PO464284  33.740  33.558   5.411
 4947POPC   GL164285  33.703  33.738   5.832
 4947POPC   GL264286  33.960  33.968   5.856
 4947POPC   C1A64287  33.430  33.763   6.231
 4947POPC   D2A64288  33.427  33.825   6.717
 4947POPC   C3A64289  33.687  33.563   7.059
 4947POPC   C4A64290  33.880  33.634   7.512
 4947POPC   C1B64291  33.928  33.864   6.311
 4947POPC   C2B64292  34.091  34.020   6.704
 4947POPC   C3B64293  33.991  33.978   7.152
 4947POPC   C4B64294  34.122  34.135   7.574
 4948POPC   NC364295  44.112  40.955   5.407
 4948POPC   PO464296  43.546  40.656   5.395
 4948POPC   GL164297  43.736  40.818   5.742
 4948POPC   GL264298  43.991  40.614   5.792
 4948POPC   C1A64299  43.812  41.063   6.117
 4948POPC   D2A64300  43.774  40.924   6.540
 4948POPC   C3A64301  43.968  41.086   6.914
 4948POPC   C4A64302  43.927  40.939   7.303
 4948POPC   C1B64303  44.017  40.386   6.146
 4948POPC   C2B64304  44.101  40.452   6.543
 4948POPC   C3B64305  43.908  40.545   6.920
 4948POPC   C4B64306  44.118  40.477   7.326
 4949POPC   NC364307  30.363  27.368   5.437
 4949POPC   PO464308  29.860  27.911   5.363
 4949POPC   GL164309  29.792  27.631   5.748
 4949POPC   GL264310  30.158  27.566   5.889
 4949POPC   C1A64311  29.768  27.429   6.183
 4949POPC   D2A64312  29.985  27.540   6.552
 4949POPC   C3A64313  29.846  27.384   6.923
 4949POPC   C4A64314  29.899  27.700   7.246
 4949POPC   C1B64315  30.309  27.289   6.260
 4949POPC   C2B64316  30.329  27.198   6.745
 4949POPC   C3B64317  30.262  27.324   7.210
 4949POPC   C4B64318  30.441  27.219   7.656
 4950POPC   NC364319  36.091  32.380   5.300
 4950POPC   PO464320  36.600  31.936   5.531
 4950POPC   GL164321  36.360  32.102   5.872
 4950POPC   GL264322  36.035  32.209   5.787
 4950POPC   C1A64323  36.266  32.140   6.332
 4950POPC   D2A64324  36.377  32.357   6.741
 4950POPC   C3A64325  36.152  32.157   7.069
 4950POPC   C4A64326  35.840  31.820   7.027
 4950POPC   C1B64327  35.898  32.452   6.180
 4950POPC   C2B64328  35.889  32.429   6.639
 4950POPC   C3B64329  35.681  32.342   7.053
 4950POPC   C4B64330  35.776  32.355   7.528
 4951POPC   NC364331  16.907  18.284   5.298
 4951POPC   PO464332  16.623  17.829   5.581
 4951POPC   GL164333  16.928  18.073   5.842
 4951POPC   GL264334  16.964  18.431   5.801
 4951POPC   C1A64335  16.958  18.116   6.312
 4951POPC   D2A64336  16.683  17.927   6.595
 4951POPC   C3A64337  16.661  18.068   7.016
 4951POPC   C4A64338  16.291  18.054   7.241
 4951POPC   C1B64339  16.671  18.510   6.187
 4951POPC   C2B64340  16.605  18.451   6.667
 4951POPC   C3B64341  16.596  18.542   7.144
 4951POPC   C4B64342  16.850  18.689   7.498
 4952POPC   NC364343  30.730  18.575   5.574
 4952POPC   PO464344  30.652  19.140   5.330
 4952POPC   GL164345  30.603  19.142   5.764
 4952POPC   GL264346  30.329  18.890   5.765
 4952POPC   C1A64347  30.784  19.288   6.142
 4952POPC   D2A64348  30.661  19.221   6.572
 4952POPC   C3A64349  30.750  19.280   7.012
 4952POPC   C4A64350  31.030  19.037   7.264
 4952POPC   C1B64351  30.484  18.855   6.195
 4952POPC   C2B64352  30.685  18.671   6.543
 4952POPC   C3B64353  30.581  18.813   6.926
 4952POPC   C4B64354  30.456  18.872   7.332
 4953POPC   NC364355  19.370  23.556   5.359
 4953POPC   PO464356  20.025  23.669   5.458
 4953POPC   GL164357  19.789  23.640   5.818
 4953POPC   GL264358  19.549  23.812   5.749
 4953POPC   C1A64359  19.782  23.831   6.257
 4953POPC   D2A64360  19.889  23.943   6.701
 4953POPC   C3A64361  19.937  23.599   6.990
 4953POPC   C4A64362  20.236  23.404   7.256
 4953POPC   C1B64363  19.361  24.041   6.027
 4953POPC   C2B64364  19.273  23.994   6.474
 4953POPC   C3B64365  19.396  23.878   6.899
 4953POPC   C4B64366  19.658  23.903   7.259
 4954POPC   NC364367  42.885  39.862   5.412
 4954POPC   PO464368  43.517  39.857   5.438
 4954POPC   GL164369  43.188  40.061   5.786
 4954POPC   GL264370  42.788  40.049   5.862
 4954POPC   C1A64371  43.112  40.272   6.196
 4954POPC   D2A64372  43.135  40.127   6.618
 4954POPC   C3A64373  43.240  40.113   7.044
 4954POPC   C4A64374  43.392  39.736   7.234
 4954POPC   C1B64375  42.832  39.818   6.248
 4954POPC   C2B64376  42.712  39.844   6.686
 4954POPC   C3B64377  42.816  39.770   7.094
 4954POPC   C4B64378  42.962  39.881   7.486
 4955POPC   NC364379  20.978  14.797   5.693
 4955POPC   PO464380  20.246  14.754   5.510
 4955POPC   GL164381  20.450  14.409   5.855
 4955POPC   GL264382  20.389  14.001   5.835
 4955POPC   C1A64383  20.699  14.400   6.254
 4955POPC   D2A64384  20.693  14.565   6.692
 4955POPC   C3A64385  20.768  14.390   7.131
 4955POPC   C4A64386  20.856  14.436   7.617
 4955POPC   C1B64387  20.299  14.075   6.274
 4955POPC   C2B64388  20.496  14.057   6.679
 4955POPC   C3B64389  20.307  14.159   7.083
 4955POPC   C4B64390  20.527  14.097   7.476
 4956POPC   NC364391  44.596  34.880   5.275
 4956POPC   PO464392  44.411  34.247   5.382
 4956POPC   GL164393  44.582  34.464   5.757
 4956POPC   GL264394  44.520  34.831   5.775
 4956POPC   C1A64395  44.850  34.384   6.133
 4956POPC   D2A64396  44.782  34.251   6.560
 4956POPC   C3A64397  44.716  34.425   6.933
 4956POPC   C4A64398  44.370  34.537   7.150
 4956POPC   C1B64399  44.804  34.889   6.086
 4956POPC   C2B64400  44.813  34.767   6.498
 4956POPC   C3B64401  44.605  34.895   6.851
 4956POPC   C4B64402  44.935  34.875   7.180
 4957POPC   NC364403   5.868  37.141   5.257
 4957POPC   PO464404   5.449  36.788   5.588
 4957POPC   GL164405   5.560  36.958   5.896
 4957POPC   GL264406   5.878  37.014   5.777
 4957POPC   C1A64407   5.647  36.777   6.271
 4957POPC   D2A64408   5.837  36.962   6.614
 4957POPC   C3A64409   5.694  36.905   7.021
 4957POPC   C4A64410   5.503  36.584   7.200
 4957POPC   C1B64411   6.086  37.053   6.160
 4957POPC   C2B64412   6.237  37.296   6.521
 4957POPC   C3B64413   6.174  37.138   6.935
 4957POPC   C4B64414   6.186  36.890   7.311
 4958POPC   NC364415  23.208  14.824   5.423
 4958POPC   PO464416  22.659  14.532   5.686
 4958POPC   GL164417  23.039  14.397   5.777
 4958POPC   GL264418  23.100  14.698   5.933
 4958POPC   C1A64419  23.074  14.281   6.221
 4958POPC   D2A64420  23.058  14.048   6.575
 4958POPC   C3A64421  22.715  14.084   6.883
 4958POPC   C4A64422  22.720  14.466   7.141
 4958POPC   C1B64423  22.719  14.769   6.254
 4958POPC   C2B64424  22.742  14.514   6.606
 4958POPC   C3B64425  23.122  14.525   6.859
 4958POPC   C4B64426  23.105  14.874   7.165
 4959POPC   NC364427  35.687  14.411   5.275
 4959POPC   PO464428  36.326  14.682   5.257
 4959POPC   GL164429  36.179  14.370   5.640
 4959POPC   GL264430  36.203  14.595   5.869
 4959POPC   C1A64431  36.037  14.178   6.121
 4959POPC   D2A64432  36.185  14.272   6.584
 4959POPC   C3A64433  35.939  14.192   6.956
 4959POPC   C4A64434  35.825  14.243   7.353
 4959POPC   C1B64435  36.450  14.465   6.184
 4959POPC   C2B64436  36.628  14.529   6.562
 4959POPC   C3B64437  36.602  14.376   6.945
 4959POPC   C4B64438  36.332  14.356   7.235
 4960POPC   NC364439  21.046  17.190   5.605
 4960POPC   PO464440  20.524  17.661   5.187
 4960POPC   GL164441  20.442  17.645   5.671
 4960POPC   GL264442  20.785  17.621   5.825
 4960POPC   C1A64443  20.327  17.494   6.129
 4960POPC   D2A64444  20.143  17.399   6.544
 4960POPC   C3A64445  20.284  17.565   6.956
 4960POPC   C4A64446  20.382  17.325   7.336
 4960POPC   C1B64447  20.822  17.369   6.234
 4960POPC   C2B64448  20.648  17.286   6.621
 4960POPC   C3B64449  20.785  17.381   7.018
 4960POPC   C4B64450  20.912  17.350   7.441
 4961POPC   NC364451   0.338  14.907   5.603
 4961POPC   PO464452   0.457  15.435   5.301
 4961POPC   GL164453   0.323  15.390   5.764
 4961POPC   GL264454   0.658  15.285   5.798
 4961POPC   C1A64455   0.276  15.179   6.203
 4961POPC   D2A64456   0.333  14.896   6.602
 4961POPC   C3A64457   0.380  15.137   6.970
 4961POPC   C4A64458   0.375  15.328   7.363
 4961POPC   C1B64459   0.681  15.542   6.177
 4961POPC   C2B64460   0.593  15.407   6.588
 4961POPC   C3B64461   0.865  15.287   6.947
 4961POPC   C4B64462   0.829  14.954   7.190
 4962POPC   NC364463  28.898  27.136   5.441
 4962POPC   PO464464  29.409  26.658   5.433
 4962POPC   GL164465  29.076  26.712   5.713
 4962POPC   GL264466  28.839  26.930   5.914
 4962POPC   C1A64467  29.059  26.475   6.046
 4962POPC   D2A64468  29.073  26.396   6.436
 4962POPC   C3A64469  29.222  26.650   6.738
 4962POPC   C4A64470  29.108  26.690   7.161
 4962POPC   C1B64471  29.029  26.924   6.332
 4962POPC   C2B64472  29.004  27.134   6.746
 4962POPC   C3B64473  28.754  27.057   7.111
 4962POPC   C4B64474  28.791  26.940   7.547
 4963POPC   NC364475  35.408  36.386   5.612
 4963POPC   PO464476  35.539  35.901   5.221
 4963POPC   GL164477  35.504  35.881   5.720
 4963POPC   GL264478  35.784  35.970   5.945
 4963POPC   C1A64479  35.460  35.674   6.162
 4963POPC   D2A64480  35.331  35.858   6.548
 4963POPC   C3A64481  35.523  36.079   6.896
 4963POPC   C4A64482  35.746  36.008   7.281
 4963POPC   C1B64483  35.531  36.222   6.237
 4963POPC   C2B64484  35.645  36.505   6.561
 4963POPC   C3B64485  35.894  36.578   6.907
 4963POPC   C4B64486  35.619  36.493   7.214
 4964POPC   NC364487  19.505  42.543   5.178
 4964POPC   PO464488  20.148  42.246   5.220
 4964POPC   GL164489  20.010  42.273   5.660
 4964POPC   GL264490  19.798  42.571   5.713
 4964POPC   C1A64491  19.978  42.136   6.103
 4964POPC   D2A64492  19.739  42.144   6.488
 4964POPC   C3A64493  19.870  41.929   6.863
 4964POPC   C4A64494  19.818  42.078   7.290
 4964POPC   C1B64495  19.699  42.567   6.186
 4964POPC   C2B64496  19.753  42.681   6.630
 4964POPC   C3B64497  19.980  42.511   6.987
 4964POPC   C4B64498  19.963  42.576   7.435
 4965POPC   NC364499  21.828  11.217   5.253
 4965POPC   PO464500  21.209  11.014   5.537
 4965POPC   GL164501  21.185  11.291   5.840
 4965POPC   GL264502  21.516  11.414   5.848
 4965POPC   C1A64503  21.316  11.218   6.265
 4965POPC   D2A64504  21.442  11.132   6.660
 4965POPC   C3A64505  21.165  11.417   6.889
 4965POPC   C4A64506  21.130  11.570   7.310
 4965POPC   C1B64507  21.524  11.697   6.242
 4965POPC   C2B64508  21.574  11.642   6.690
 4965POPC   C3B64509  21.608  11.560   7.150
 4965POPC   C4B64510  21.772  11.220   7.423
 4966POPC   NC364511  19.647  12.596   5.512
 4966POPC   PO464512  19.700  13.246   5.368
 4966POPC   GL164513  19.813  13.013   5.765
 4966POPC   GL264514  20.110  12.784   5.766
 4966POPC   C1A64515  19.760  12.795   6.173
 4966POPC   D2A64516  20.060  12.680   6.490
 4966POPC   C3A64517  19.933  12.636   6.909
 4966POPC   C4A64518  20.128  12.667   7.294
 4966POPC   C1B64519  20.171  13.074   6.146
 4966POPC   C2B64520  20.004  13.184   6.574
 4966POPC   C3B64521  20.235  13.066   6.944
 4966POPC   C4B64522  20.302  13.222   7.385
 4967POPC   NC364523  33.113  31.458   5.380
 4967POPC   PO464524  32.428  31.449   5.540
 4967POPC   GL164525  32.832  31.417   5.805
 4967POPC   GL264526  33.187  31.622   5.845
 4967POPC   C1A64527  32.998  31.315   6.207
 4967POPC   D2A64528  32.973  31.077   6.556
 4967POPC   C3A64529  32.969  31.338   6.911
 4967POPC   C4A64530  33.024  31.097   7.285
 4967POPC   C1B64531  33.343  31.688   6.267
 4967POPC   C2B64532  33.350  31.579   6.681
 4967POPC   C3B64533  33.293  31.754   7.051
 4967POPC   C4B64534  32.962  31.616   7.332
 4968POPC   NC364535  38.028  29.907   5.159
 4968POPC   PO464536  38.695  30.006   5.236
 4968POPC   GL164537  38.635  29.904   5.678
 4968POPC   GL264538  38.829  29.617   5.714
 4968POPC   C1A64539  38.516  30.111   6.093
 4968POPC   D2A64540  38.227  30.020   6.438
 4968POPC   C3A64541  38.311  30.172   6.883
 4968POPC   C4A64542  38.331  29.836   7.180
 4968POPC   C1B64543  38.878  29.745   6.152
 4968POPC   C2B64544  38.729  29.942   6.542
 4968POPC   C3B64545  38.828  29.983   6.976
 4968POPC   C4B64546  38.808  29.755   7.387
 4969POPC   NC364547  40.604  30.045   5.449
 4969POPC   PO464548  41.105  29.673   5.273
 4969POPC   GL164549  40.883  29.701   5.709
 4969POPC   GL264550  40.864  30.015   5.906
 4969POPC   C1A64551  40.783  29.610   6.180
 4969POPC   D2A64552  40.689  29.862   6.572
 4969POPC   C3A64553  40.634  29.665   6.970
 4969POPC   C4A64554  40.901  29.612   7.305
 4969POPC   C1B64555  40.810  30.347   6.201
 4969POPC   C2B64556  40.585  30.393   6.572
 4969POPC   C3B64557  40.847  30.375   6.913
 4969POPC   C4B64558  40.902  30.110   7.232
 4970POPC   NC364559  24.992   1.293   5.066
 4970POPC   PO464560  24.379   1.068   5.271
 4970POPC   GL164561  24.510   1.025   5.744
 4970POPC   GL264562  24.877   1.064   5.817
 4970POPC   C1A64563  24.396   0.907   6.203
 4970POPC   D2A64564  24.418   0.689   6.629
 4970POPC   C3A64565  24.308   1.025   6.935
 4970POPC   C4A64566  24.260   1.479   7.043
 4970POPC   C1B64567  24.702   1.344   6.145
 4970POPC   C2B64568  24.593   1.271   6.582
 4970POPC   C3B64569  24.765   1.310   6.996
 4970POPC   C4B64570  24.965   1.653   7.171
 4971POPC   NC364571  35.572   8.212   5.553
 4971POPC   PO464572  35.059   8.628   5.803
 4971POPC   GL164573  35.204   8.241   5.948
 4971POPC   GL264574  34.960   8.291   6.197
 4971POPC   C1A64575  35.513   8.133   6.248
 4971POPC   D2A64576  35.739   8.088   6.627
 4971POPC   C3A64577  35.555   8.134   7.047
 4971POPC   C4A64578  35.483   8.511   7.353
 4971POPC   C1B64579  35.012   8.518   6.573
 4971POPC   C2B64580  35.135   8.400   6.978
 4971POPC   C3B64581  35.063   8.221   7.376
 4971POPC   C4B64582  34.888   8.508   7.698
 4972POPC   NC364583   1.587  33.584   5.583
 4972POPC   PO464584   0.903  33.513   5.476
 4972POPC   GL164585   1.163  33.750   5.810
 4972POPC   GL264586   1.200  34.106   5.733
 4972POPC   C1A64587   1.426  33.838   6.219
 4972POPC   D2A64588   1.626  33.993   6.629
 4972POPC   C3A64589   1.383  33.865   7.003
 4972POPC   C4A64590   1.267  33.697   7.421
 4972POPC   C1B64591   0.947  34.068   6.137
 4972POPC   C2B64592   1.094  34.020   6.575
 4972POPC   C3B64593   0.873  33.907   6.964
 4972POPC   C4B64594   0.934  34.070   7.377
 4973POPC   NC364595  18.903  12.120   5.267
 4973POPC   PO464596  19.318  11.560   5.375
 4973POPC   GL164597  19.083  11.836   5.720
 4973POPC   GL264598  18.773  12.066   5.766
 4973POPC   C1A64599  19.165  12.129   6.099
 4973POPC   D2A64600  19.222  12.222   6.554
 4973POPC   C3A64601  19.274  11.856   6.811
 4973POPC   C4A64602  19.071  11.863   7.169
 4973POPC   C1B64603  18.644  11.865   6.171
 4973POPC   C2B64604  18.782  11.915   6.623
 4973POPC   C3B64605  18.828  12.297   6.875
 4973POPC   C4B64606  18.790  12.561   7.242
 4974POPC   NC364607  30.404  11.910   5.399
 4974POPC   PO464608  30.917  12.313   5.293
 4974POPC   GL164609  30.923  12.104   5.718
 4974POPC   GL264610  30.606  12.052   5.847
 4974POPC   C1A64611  30.975  12.144   6.198
 4974POPC   D2A64612  30.753  12.024   6.591
 4974POPC   C3A64613  30.900  12.161   6.993
 4974POPC   C4A64614  31.066  12.458   7.218
 4974POPC   C1B64615  30.422  12.188   6.223
 4974POPC   C2B64616  30.280  12.284   6.610
 4974POPC   C3B64617  30.397  12.078   6.974
 4974POPC   C4B64618  30.529  12.105   7.391
 4975POPC   NC364619  31.855  19.445   5.559
 4975POPC   PO464620  31.510  19.954   5.258
 4975POPC   GL164621  31.566  19.808   5.720
 4975POPC   GL264622  31.397  19.988   5.941
 4975POPC   C1A64623  31.729  19.670   6.176
 4975POPC   D2A64624  31.561  19.790   6.607
 4975POPC   C3A64625  31.734  19.562   6.976
 4975POPC   C4A64626  31.888  19.629   7.388
 4975POPC   C1B64627  31.137  20.118   6.248
 4975POPC   C2B64628  31.048  20.064   6.655
 4975POPC   C3B64629  31.209  20.130   7.060
 4975POPC   C4B64630  31.420  19.833   7.316
 4976POPC   NC364631   5.318  34.940   5.506
 4976POPC   PO464632   4.777  34.677   5.278
 4976POPC   GL164633   4.884  34.607   5.739
 4976POPC   GL264634   5.201  34.671   5.923
 4976POPC   C1A64635   4.874  34.365   6.149
 4976POPC   D2A64636   4.813  34.263   6.614
 4976POPC   C3A64637   4.858  34.647   6.889
 4976POPC   C4A64638   5.085  34.687   7.276
 4976POPC   C1B64639   5.372  34.291   6.126
 4976POPC   C2B64640   5.416  34.262   6.559
 4976POPC   C3B64641   5.235  34.317   6.977
 4976POPC   C4B64642   5.401  34.298   7.391
 4977POPC   NC364643   7.274  14.024   5.097
 4977POPC   PO464644   7.510  13.445   5.324
 4977POPC   GL164645   7.453  13.456   5.750
 4977POPC   GL264646   7.105  13.312   5.737
 4977POPC   C1A64647   7.609  13.725   6.122
 4977POPC   D2A64648   7.855  13.820   6.474
 4977POPC   C3A64649   7.672  13.796   6.854
 4977POPC   C4A64650   7.532  13.656   7.236
 4977POPC   C1B64651   7.110  13.680   6.048
 4977POPC   C2B64652   7.238  13.759   6.463
 4977POPC   C3B64653   7.187  13.603   6.852
 4977POPC   C4B64654   6.948  13.565   7.191
 4978POPC   NC364655  28.182  42.179   5.395
 4978POPC   PO464656  28.289  42.883   5.350
 4978POPC   GL164657  28.262  42.582   5.728
 4978POPC   GL264658  28.532  42.575   5.974
 4978POPC   C1A64659  28.052  42.479   6.122
 4978POPC   D2A64660  28.111  42.355   6.559
 4978POPC   C3A64661  28.050  42.586   6.919
 4978POPC   C4A64662  28.116  42.341   7.273
 4978POPC   C1B64663  28.801  42.589   6.359
 4978POPC   C2B64664  28.838  42.655   6.805
 4978POPC   C3B64665  28.566  42.413   7.057
 4978POPC   C4B64666  28.500  41.982   7.220
 4979POPC   NC364667  44.163   3.894   5.578
 4979POPC   PO464668  44.672   3.479   5.247
 4979POPC   GL164669  44.770   3.587   5.668
 4979POPC   GL264670  44.937   3.328   5.829
 4979POPC   C1A64671  44.571   3.601   6.096
 4979POPC   D2A64672  44.532   3.431   6.535
 4979POPC   C3A64673  44.549   3.693   6.896
 4979POPC   C4A64674  44.506   3.417   7.231
 4979POPC   C1B64675  44.867   3.190   6.220
 4979POPC   C2B64676   0.023   3.056   6.626
 4979POPC   C3B64677  44.902   3.121   7.065
 4979POPC   C4B64678  44.998   3.548   7.185
 4980POPC   NC364679  20.109  10.520   5.344
 4980POPC   PO464680  20.716  10.160   5.146
 4980POPC   GL164681  20.531  10.447   5.638
 4980POPC   GL264682  20.837  10.513   5.873
 4980POPC   C1A64683  20.453  10.642   6.134
 4980POPC   D2A64684  20.707  10.748   6.534
 4980POPC   C3A64685  20.565  10.709   6.983
 4980POPC   C4A64686  20.786  10.615   7.386
 4980POPC   C1B64687  20.826  10.278   6.308
 4980POPC   C2B64688  20.782  10.275   6.785
 4980POPC   C3B64689  20.689  10.156   7.219
 4980POPC   C4B64690  21.062  10.160   7.481
 4981POPC   NC364691  11.115  25.028   5.417
 4981POPC   PO464692  11.617  25.465   5.401
 4981POPC   GL164693  11.416  25.361   5.802
 4981POPC   GL264694  11.068  25.367   5.934
 4981POPC   C1A64695  11.469  25.268   6.225
 4981POPC   D2A64696  11.701  25.163   6.585
 4981POPC   C3A64697  11.553  25.418   6.911
 4981POPC   C4A64698  11.573  25.239   7.266
 4981POPC   C1B64699  11.136  25.651   6.342
 4981POPC   C2B64700  11.098  25.670   6.833
 4981POPC   C3B64701  11.088  25.436   7.260
 4981POPC   C4B64702  10.995  25.537   7.719
 4982POPC   NC364703  34.807  13.961   5.126
 4982POPC   PO464704  35.082  13.803   5.703
 4982POPC   GL164705  35.356  13.692   5.998
 4982POPC   GL264706  35.553  13.992   6.021
 4982POPC   C1A64707  35.339  13.487   6.396
 4982POPC   D2A64708  35.037  13.562   6.720
 4982POPC   C3A64709  35.163  13.538   7.141
 4982POPC   C4A64710  35.551  13.453   7.297
 4982POPC   C1B64711  35.321  14.090   6.370
 4982POPC   C2B64712  35.433  14.167   6.786
 4982POPC   C3B64713  35.476  13.951   7.140
 4982POPC   C4B64714  35.220  13.928   7.481
 4983POPC   NC364715  11.693  10.219   5.475
 4983POPC   PO464716  12.195   9.728   5.528
 4983POPC   GL164717  12.100   9.653   5.921
 4983POPC   GL264718  12.075  10.026   5.968
 4983POPC   C1A64719  11.875   9.680   6.289
 4983POPC   D2A64720  12.005   9.846   6.673
 4983POPC   C3A64721  12.072   9.592   7.013
 4983POPC   C4A64722  11.877   9.689   7.432
 4983POPC   C1B64723  12.386   9.875   6.305
 4983POPC   C2B64724  12.539   9.917   6.756
 4983POPC   C3B64725  12.693   9.903   7.199
 4983POPC   C4B64726  12.538  10.067   7.626
 4984POPC   NC364727  19.353  29.623   5.432
 4984POPC   PO464728  18.935  28.983   5.388
 4984POPC   GL164729  19.053  28.981   5.794
 4984POPC   GL264730  19.188  29.288   5.776
 4984POPC   C1A64731  18.957  29.043   6.222
 4984POPC   D2A64732  18.773  28.888   6.594
 4984POPC   C3A64733  19.040  29.032   6.922
 4984POPC   C4A64734  18.989  29.217   7.335
 4984POPC   C1B64735  19.261  29.462   6.187
 4984POPC   C2B64736  19.381  29.275   6.593
 4984POPC   C3B64737  19.438  29.388   7.039
 4984POPC   C4B64738  19.416  29.432   7.529
 4985POPC   NC364739  18.331   4.236   5.177
 4985POPC   PO464740  18.300   3.554   5.182
 4985POPC   GL164741  18.304   3.662   5.651
 4985POPC   GL264742  18.115   3.951   5.735
 4985POPC   C1A64743  18.466   3.677   6.088
 4985POPC   D2A64744  18.258   3.713   6.501
 4985POPC   C3A64745  18.352   3.713   6.942
 4985POPC   C4A64746  18.259   3.476   7.325
 4985POPC   C1B64747  17.942   3.763   6.100
 4985POPC   C2B64748  17.774   3.850   6.521
 4985POPC   C3B64749  17.796   3.701   6.959
 4985POPC   C4B64750  18.016   3.921   7.287
 4986POPC   NC364751  42.292  41.116   5.335
 4986POPC   PO464752  42.250  41.817   5.212
 4986POPC   GL164753  42.206  41.565   5.626
 4986POPC   GL264754  42.504  41.377   5.727
 4986POPC   C1A64755  42.162  41.594   6.121
 4986POPC   D2A64756  42.180  41.810   6.556
 4986POPC   C3A64757  42.100  41.497   6.933
 4986POPC   C4A64758  42.331  41.314   7.255
 4986POPC   C1B64759  42.616  41.302   6.159
 4986POPC   C2B64760  42.476  41.388   6.584
 4986POPC   C3B64761  42.558  41.721   6.891
 4986POPC   C4B64762  42.754  41.784   7.250
 4987POPC   NC364763   0.595  38.682   5.463
 4987POPC   PO464764  44.917  38.651   5.320
 4987POPC   GL164765   0.192  38.501   5.709
 4987POPC   GL264766   0.367  38.181   5.818
 4987POPC   C1A64767   0.389  38.561   6.137
 4987POPC   D2A64768   0.613  38.565   6.522
 4987POPC   C3A64769   0.332  38.574   6.871
 4987POPC   C4A64770   0.468  38.650   7.293
 4987POPC   C1B64771   0.720  38.181   6.154
 4987POPC   C2B64772   0.797  38.077   6.597
 4987POPC   C3B64773   0.644  38.197   7.018
 4987POPC   C4B64774   0.627  38.214   7.482
 4988POPC   NC364775  15.262  13.429   5.526
 4988POPC   PO464776  15.232  12.748   5.487
 4988POPC   GL164777  15.347  12.907   5.883
 4988POPC   GL264778  15.495  13.231   5.928
 4988POPC   C1A64779  15.331  12.898   6.335
 4988POPC   D2A64780  15.008  13.031   6.640
 4988POPC   C3A64781  14.978  12.787   6.997
 4988POPC   C4A64782  15.365  12.610   7.143
 4988POPC   C1B64783  15.385  13.411   6.342
 4988POPC   C2B64784  15.368  13.382   6.789
 4988POPC   C3B64785  15.411  13.239   7.216
 4988POPC   C4B64786  15.414  13.315   7.677
 4989POPC   NC364787  24.048  34.802   5.466
 4989POPC   PO464788  23.468  34.516   5.618
 4989POPC   GL164789  23.772  34.626   5.881
 4989POPC   GL264790  23.984  34.340   5.786
 4989POPC   C1A64791  23.713  34.787   6.306
 4989POPC   D2A64792  23.456  34.873   6.682
 4989POPC   C3A64793  23.598  34.699   7.063
 4989POPC   C4A64794  23.642  34.259   7.103
 4989POPC   C1B64795  24.064  34.402   6.235
 4989POPC   C2B64796  24.091  34.615   6.617
 4989POPC   C3B64797  24.161  34.543   7.026
 4989POPC   C4B64798  23.986  34.562   7.421
 4990POPC   NC364799  14.139   5.155   5.576
 4990POPC   PO464800  14.773   4.948   5.616
 4990POPC   GL164801  14.597   5.245   5.917
 4990POPC   GL264802  14.247   5.192   6.048
 4990POPC   C1A64803  14.596   5.230   6.369
 4990POPC   D2A64804  14.340   4.994   6.596
 4990POPC   C3A64805  14.389   5.225   6.914
 4990POPC   C4A64806  14.511   5.101   7.295
 4990POPC   C1B64807  14.038   4.843   6.195
 4990POPC   C2B64808  13.904   4.723   6.611
 4990POPC   C3B64809  14.066   4.845   7.031
 4990POPC   C4B64810  14.126   4.849   7.518
 4991POPC   NC364811  43.688  44.830   5.338
 4991POPC   PO464812  44.188  44.406   5.540
 4991POPC   GL164813  43.897  44.565   5.878
 4991POPC   GL264814  43.795  44.920   5.832
 4991POPC   C1A64815  43.872  44.653   6.336
 4991POPC   D2A64816  44.180  44.645   6.687
 4991POPC   C3A64817  44.074  44.561   7.100
 4991POPC   C4A64818  43.644  44.536   7.210
 4991POPC   C1B64819  43.490  44.982   6.133
 4991POPC   C2B64820  43.616   0.076   6.533
 4991POPC   C3B64821  43.770  44.921   6.895
 4991POPC   C4B64822  43.898   0.010   7.294
 4992POPC   NC364823  32.940  11.144   5.388
 4992POPC   PO464824  33.506  11.420   5.715
 4992POPC   GL164825  33.122  11.268   5.907
 4992POPC   GL264826  33.011  10.909   5.843
 4992POPC   C1A64827  32.955  11.393   6.322
 4992POPC   D2A64828  33.036  11.613   6.741
 4992POPC   C3A64829  33.070  11.388   7.118
 4992POPC   C4A64830  32.870  11.002   7.097
 4992POPC   C1B64831  33.163  10.907   6.274
 4992POPC   C2B64832  33.181  11.096   6.664
 4992POPC   C3B64833  33.489  11.178   6.907
 4992POPC   C4B64834  33.468  11.048   7.293
 4993POPC   NC364835  21.080  41.805   5.390
 4993POPC   PO464836  20.393  41.703   5.356
 4993POPC   GL164837  20.635  41.574   5.705
 4993POPC   GL264838  20.779  41.857   5.822
 4993POPC   C1A64839  20.670  41.386   6.128
 4993POPC   D2A64840  20.615  41.099   6.500
 4993POPC   C3A64841  20.675  41.256   6.922
 4993POPC   C4A64842  20.604  41.408   7.295
 4993POPC   C1B64843  20.883  41.848   6.220
 4993POPC   C2B64844  20.767  41.643   6.594
 4993POPC   C3B64845  20.734  41.816   7.007
 4993POPC   C4B64846  20.952  41.815   7.401
 4994POPC   NC364847  27.829  33.216   5.627
 4994POPC   PO464848  27.593  32.620   5.502
 4994POPC   GL164849  27.485  32.851   5.829
 4994POPC   GL264850  27.794  32.800   5.974
 4994POPC   C1A64851  27.352  32.981   6.237
 4994POPC   D2A64852  27.562  33.022   6.657
 4994POPC   C3A64853  27.370  33.256   6.985
 4994POPC   C4A64854  27.293  32.957   7.265
 4994POPC   C1B64855  27.892  33.125   6.276
 4994POPC   C2B64856  28.068  33.139   6.681
 4994POPC   C3B64857  27.870  33.182   7.081
 4994POPC   C4B64858  27.734  33.557   7.276
 4995POPC   NC364859  34.855  35.041   5.140
 4995POPC   PO464860  34.775  35.624   5.333
 4995POPC   GL164861  34.678  35.534   5.777
 4995POPC   GL264862  34.361  35.352   5.747
 4995POPC   C1A64863  34.549  35.598   6.213
 4995POPC   D2A64864  34.354  35.461   6.606
 4995POPC   C3A64865  34.598  35.555   7.003
 4995POPC   C4A64866  34.902  35.243   7.205
 4995POPC   C1B64867  34.628  35.056   5.988
 4995POPC   C2B64868  34.685  34.926   6.422
 4995POPC   C3B64869  34.604  35.053   6.840
 4995POPC   C4B64870  34.390  35.134   7.237
 4996POPC   NC364871  21.371  20.306   5.476
 4996POPC   PO464872  21.769  19.856   5.103
 4996POPC   GL164873  21.550  19.842   5.527
 4996POPC   GL264874  21.193  19.800   5.640
 4996POPC   C1A64875  21.598  19.970   5.995
 4996POPC   D2A64876  21.464  19.931   6.438
 4996POPC   C3A64877  21.663  19.751   6.802
 4996POPC   C4A64878  21.494  19.636   7.189
 4996POPC   C1B64879  21.060  19.959   6.072
 4996POPC   C2B64880  20.978  20.043   6.531
 4996POPC   C3B64881  21.167  19.933   6.904
 4996POPC   C4B64882  20.916  19.831   7.230
 4997POPC   NC364883   5.279  43.167   5.142
 4997POPC   PO464884   4.814  43.414   5.453
 4997POPC   GL164885   5.034  43.161   5.742
 4997POPC   GL264886   5.359  43.152   5.659
 4997POPC   C1A64887   5.079  42.970   6.140
 4997POPC   D2A64888   5.113  43.076   6.573
 4997POPC   C3A64889   5.279  42.780   6.879
 4997POPC   C4A64890   5.199  42.904   7.312
 4997POPC   C1B64891   5.496  43.252   6.060
 4997POPC   C2B64892   5.608  43.078   6.436
 4997POPC   C3B64893   5.547  43.206   6.832
 4997POPC   C4B64894   5.629  43.239   7.242
 4998POPC   NC364895   5.425  21.629   5.268
 4998POPC   PO464896   4.984  21.297   5.359
 4998POPC   GL164897   5.146  21.462   5.770
 4998POPC   GL264898   5.176  21.108   5.851
 4998POPC   C1A64899   5.188  21.439   6.268
 4998POPC   D2A64900   4.989  21.514   6.695
 4998POPC   C3A64901   5.222  21.526   7.109
 4998POPC   C4A64902   5.288  21.440   7.543
 4998POPC   C1B64903   4.923  20.998   6.202
 4998POPC   C2B64904   4.946  20.867   6.607
 4998POPC   C3B64905   5.041  21.070   6.966
 4998POPC   C4B64906   4.851  21.206   7.316
 4999POPC   NC364907  35.234  34.095   5.427
 4999POPC   PO464908  35.300  33.433   5.470
 4999POPC   GL164909  35.553  33.686   5.800
 4999POPC   GL264910  35.323  33.955   5.902
 4999POPC   C1A64911  35.664  33.847   6.253
 4999POPC   D2A64912  35.395  34.060   6.570
 4999POPC   C3A64913  35.383  33.843   7.024
 4999POPC   C4A64914  35.156  33.450   7.186
 4999POPC   C1B64915  35.067  34.257   6.118
 4999POPC   C2B64916  35.033  34.450   6.517
 4999POPC   C3B64917  35.043  34.230   6.908
 4999POPC   C4B64918  35.081  34.350   7.303
 5000POPC   NC364919  28.280  16.217   5.406
 5000POPC   PO464920  28.576  15.592   5.502
 5000POPC   GL164921  28.436  15.870   5.781
 5000POPC   GL264922  28.099  15.801   5.864
 5000POPC   C1A64923  28.491  15.787   6.212
 5000POPC   D2A64924  28.431  15.950   6.627
 5000POPC   C3A64925  28.613  15.760   6.988
 5000POPC   C4A64926  28.711  15.989   7.361
 5000POPC   C1B64927  27.834  15.694   6.231
 5000POPC   C2B64928  27.740  15.609   6.677
 5000POPC   C3B64929  27.824  15.852   7.023
 5000POPC   C4B64930  28.234  16.077   7.093
 5001POPC   NC364931  23.491  31.119   5.556
 5001POPC   PO464932  23.551  31.780   5.449
 5001POPC   GL164933  23.734  31.649   5.842
 5001POPC   GL264934  23.447  31.470   5.919
 5001POPC   C1A64935  24.019  31.551   6.221
 5001POPC   D2A64936  24.103  31.450   6.678
 5001POPC   C3A64937  23.713  31.445   6.964
 5001POPC   C4A64938  23.423  31.728   7.202
 5001POPC   C1B64939  23.447  31.123   6.196
 5001POPC   C2B64940  23.477  31.149   6.608
 5001POPC   C3B64941  23.322  31.054   6.978
 5001POPC   C4B64942  23.388  31.242   7.334
 5002POPC   NC364943  13.699  29.332   5.549
 5002POPC   PO464944  13.601  28.710   5.290
 5002POPC   GL164945  13.464  28.860   5.728
 5002POPC   GL264946  13.374  29.187   5.903
 5002POPC   C1A64947  13.627  28.820   6.175
 5002POPC   D2A64948  13.571  28.738   6.650
 5002POPC   C3A64949  13.794  28.979   7.017
 5002POPC   C4A64950  13.983  29.432   7.075
 5002POPC   C1B64951  13.370  29.208   6.368
 5002POPC   C2B64952  13.367  29.202   6.817
 5002POPC   C3B64953  13.495  29.390   7.219
 5002POPC   C4B64954  13.446  29.439   7.722
 5003POPC   NC364955  36.518   8.511   5.432
 5003POPC   PO464956  36.675   7.813   5.399
 5003POPC   GL164957  36.619   8.064   5.737
 5003POPC   GL264958  36.918   8.222   5.683
 5003POPC   C1A64959  36.541   8.143   6.162
 5003POPC   D2A64960  36.650   8.342   6.529
 5003POPC   C3A64961  36.581   8.153   6.920
 5003POPC   C4A64962  36.703   8.226   7.328
 5003POPC   C1B64963  37.064   8.245   6.106
 5003POPC   C2B64964  37.160   8.188   6.547
 5003POPC   C3B64965  37.043   8.388   6.934
 5003POPC   C4B64966  37.207   8.324   7.318
 5004POPC   NC364967  42.911  25.981   5.432
 5004POPC   PO464968  43.527  26.364   5.531
 5004POPC   GL164969  43.207  26.197   5.808
 5004POPC   GL264970  43.184  25.818   5.843
 5004POPC   C1A64971  43.048  26.138   6.236
 5004POPC   D2A64972  43.179  26.300   6.644
 5004POPC   C3A64973  43.111  26.033   7.029
 5004POPC   C4A64974  42.879  26.072   7.421
 5004POPC   C1B64975  43.387  25.656   6.205
 5004POPC   C2B64976  43.461  25.802   6.633
 5004POPC   C3B64977  43.318  25.573   6.991
 5004POPC   C4B64978  43.254  25.617   7.455
 5005POPC   NC364979  35.055   9.944   5.445
 5005POPC   PO464980  35.481   9.329   5.475
 5005POPC   GL164981  35.338   9.652   5.755
 5005POPC   GL264982  35.151   9.437   5.992
 5005POPC   C1A64983  35.201   9.934   6.118
 5005POPC   D2A64984  35.118   9.662   6.485
 5005POPC   C3A64985  35.194   9.784   6.911
 5005POPC   C4A64986  35.352   9.941   7.298
 5005POPC   C1B64987  35.553   9.583   6.204
 5005POPC   C2B64988  35.795   9.582   6.568
 5005POPC   C3B64989  35.692   9.706   6.964
 5005POPC   C4B64990  35.721   9.588   7.349
 5006POPC   NC364991  35.509   3.215   5.437
 5006POPC   PO464992  35.052   2.820   5.299
 5006POPC   GL164993  35.385   2.744   5.649
 5006POPC   GL264994  35.370   3.026   5.886
 5006POPC   C1A64995  35.535   2.611   6.108
 5006POPC   D2A64996  35.254   2.576   6.496
 5006POPC   C3A64997  35.290   2.722   6.925
 5006POPC   C4A64998  35.403   2.502   7.296
 5006POPC   C1B64999  35.378   3.055   6.342
 5006POPC   C2B65000  35.631   3.078   6.718
 5006POPC   C3B65001  35.470   3.153   7.129
 5006POPC   C4B65002  35.389   3.371   7.529
 5007POPC   NC365003  31.851  16.473   5.504
 5007POPC   PO465004  31.336  16.918   5.544
 5007POPC   GL165005  31.402  16.583   5.815
 5007POPC   GL265006  31.711  16.763   5.928
 5007POPC   C1A65007  31.245  16.428   6.221
 5007POPC   D2A65008  31.234  16.621   6.630
 5007POPC   C3A65009  31.578  16.561   6.926
 5007POPC   C4A65010  31.692  16.781   7.276
 5007POPC   C1B65011  31.750  16.348   6.144
 5007POPC   C2B65012  31.641  16.209   6.546
 5007POPC   C3B65013  31.891  16.156   6.899
 5007POPC   C4B65014  31.630  16.121   7.240
 5008POPC   NC365015  43.931  30.976   5.491
 5008POPC   PO465016  43.593  30.431   5.214
 5008POPC   GL165017  43.790  30.551   5.720
 5008POPC   GL265018  44.112  30.716   5.918
 5008POPC   C1A65019  43.687  30.723   6.184
 5008POPC   D2A65020  43.816  30.851   6.615
 5008POPC   C3A65021  43.599  30.712   7.001
 5008POPC   C4A65022  43.712  30.585   7.416
 5008POPC   C1B65023  44.093  30.394   6.272
 5008POPC   C2B65024  44.069  30.391   6.743
 5008POPC   C3B65025  44.096  30.683   7.093
 5008POPC   C4B65026  44.184  30.784   7.534
 5009POPC   NC365027  44.772  17.335   5.588
 5009POPC   PO465028   0.377  17.314   5.254
 5009POPC   GL165029   0.272  17.379   5.712
 5009POPC   GL265030   0.495  17.625   5.905
 5009POPC   C1A65031   0.098  17.430   6.138
 5009POPC   D2A65032   0.217  17.646   6.493
 5009POPC   C3A65033   0.450  17.423   6.819
 5009POPC   C4A65034   0.310  17.436   7.237
 5009POPC   C1B65035   0.676  17.860   6.263
 5009POPC   C2B65036   0.660  17.874   6.653
 5009POPC   C3B65037   0.763  17.824   7.004
 5009POPC   C4B65038   0.694  17.710   7.382
 5010POPC   NC365039   9.308  17.318   5.513
 5010POPC   PO465040   8.622  17.266   5.832
 5010POPC   GL165041   8.959  17.534   5.833
 5010POPC   GL265042   9.233  17.325   6.001
 5010POPC   C1A65043   9.044  17.732   6.229
 5010POPC   D2A65044   8.959  17.542   6.592
 5010POPC   C3A65045   9.176  17.709   6.916
 5010POPC   C4A65046   8.989  17.755   7.332
 5010POPC   C1B65047   9.141  17.097   6.382
 5010POPC   C2B65048   9.244  17.163   6.832
 5010POPC   C3B65049   9.270  17.331   7.264
 5010POPC   C4B65050   9.376  17.066   7.640
 5011POPC   NC365051  19.244  10.956   5.591
 5011POPC   PO465052  19.807  11.266   5.179
 5011POPC   GL165053  19.816  11.201   5.657
 5011POPC   GL265054  20.178  11.230   5.734
 5011POPC   C1A65055  19.843  11.452   6.078
 5011POPC   D2A65056  19.934  11.332   6.528
 5011POPC   C3A65057  19.754  11.505   6.923
 5011POPC   C4A65058  19.973  11.471   7.325
 5011POPC   C1B65059  20.066  10.983   6.116
 5011POPC   C2B65060  20.189  10.874   6.557
 5011POPC   C3B65061  20.122  11.069   6.978
 5011POPC   C4B65062  20.033  10.958   7.415
 5012POPC   NC365063   1.482  44.997   5.655
 5012POPC   PO465064   0.895  44.578   5.488
 5012POPC   GL165065   1.115  44.616   5.857
 5012POPC   GL265066   1.432  44.464   5.782
 5012POPC   C1A65067   1.013  44.675   6.287
 5012POPC   D2A65068   1.055  44.460   6.675
 5012POPC   C3A65069   1.290  44.666   6.964
 5012POPC   C4A65070   1.155  44.702   7.358
 5012POPC   C1B65071   1.471  44.454   6.261
 5012POPC   C2B65072   1.666  44.376   6.711
 5012POPC   C3B65073   1.664  44.437   7.200
 5012POPC   C4B65074   1.599  44.736   7.594
 5013POPC   NC365075  42.694  41.776   5.398
 5013POPC   PO465076  42.772  41.135   5.353
 5013POPC   GL165077  43.046  41.325   5.688
 5013POPC   GL265078  43.332  41.123   5.811
 5013POPC   C1A65079  43.076  41.558   6.108
 5013POPC   D2A65080  42.905  41.737   6.513
 5013POPC   C3A65081  43.152  41.651   6.905
 5013POPC   C4A65082  43.226  41.661   7.357
 5013POPC   C1B65083  43.306  41.090   6.278
 5013POPC   C2B65084  42.965  41.223   6.559
 5013POPC   C3B65085  42.799  41.277   6.983
 5013POPC   C4B65086  43.123  41.175   7.240
 5014POPC   NC365087  23.302  30.541   5.177
 5014POPC   PO465088  23.782  30.807   5.426
 5014POPC   GL165089  23.767  30.823   5.886
 5014POPC   GL265090  23.904  31.145   5.918
 5014POPC   C1A65091  23.605  30.647   6.292
 5014POPC   D2A65092  23.320  30.531   6.657
 5014POPC   C3A65093  23.541  30.604   7.027
 5014POPC   C4A65094  23.881  30.505   7.263
 5014POPC   C1B65095  23.932  31.049   6.374
 5014POPC   C2B65096  23.906  30.948   6.824
 5014POPC   C3B65097  23.839  31.031   7.246
 5014POPC   C4B65098  23.712  31.005   7.662
 5015POPC   NC365099  35.842  22.945   5.264
 5015POPC   PO465100  35.289  23.243   5.206
 5015POPC   GL165101  35.294  23.200   5.692
 5015POPC   GL265102  35.567  23.127   5.833
 5015POPC   C1A65103  35.132  23.201   6.130
 5015POPC   D2A65104  35.163  22.971   6.521
 5015POPC   C3A65105  35.237  23.191   6.889
 5015POPC   C4A65106  35.117  23.026   7.284
 5015POPC   C1B65107  35.454  22.791   6.140
 5015POPC   C2B65108  35.589  22.666   6.601
 5015POPC   C3B65109  35.491  22.747   7.074
 5015POPC   C4B65110  35.603  22.848   7.537
 5016POPC   NC365111  19.277  42.714   5.708
 5016POPC   PO465112  19.320  42.129   5.330
 5016POPC   GL165113  19.158  42.191   5.725
 5016POPC   GL265114  19.504  42.158   5.858
 5016POPC   C1A65115  18.868  42.013   6.048
 5016POPC   D2A65116  18.961  41.913   6.481
 5016POPC   C3A65117  18.950  42.189   6.838
 5016POPC   C4A65118  18.785  42.350   7.229
 5016POPC   C1B65119  19.271  42.276   6.221
 5016POPC   C2B65120  19.310  42.454   6.580
 5016POPC   C3B65121  19.507  42.309   6.927
 5016POPC   C4B65122  19.281  42.166   7.239
 5017POPC   NC365123  29.142  41.177   5.476
 5017POPC   PO465124  28.824  40.586   5.434
 5017POPC   GL165125  28.946  40.779   5.818
 5017POPC   GL265126  29.293  40.848   5.809
 5017POPC   C1A65127  29.134  40.695   6.236
 5017POPC   D2A65128  29.142  40.598   6.614
 5017POPC   C3A65129  29.057  40.911   6.874
 5017POPC   C4A65130  29.167  40.875   7.278
 5017POPC   C1B65131  29.311  41.167   6.172
 5017POPC   C2B65132  29.373  41.335   6.639
 5017POPC   C3B65133  29.432  41.233   7.089
 5017POPC   C4B65134  29.512  41.072   7.585
 5018POPC   NC365135  41.282  31.203   5.529
 5018POPC   PO465136  41.699  31.714   5.343
 5018POPC   GL165137  41.644  31.611   5.808
 5018POPC   GL265138  41.286  31.571   5.868
 5018POPC   C1A65139  41.531  31.666   6.286
 5018POPC   D2A65140  41.284  31.574   6.677
 5018POPC   C3A65141  41.525  31.722   7.058
 5018POPC   C4A65142  41.565  31.593   7.501
 5018POPC   C1B65143  41.374  31.204   6.200
 5018POPC   C2B65144  41.421  31.070   6.669
 5018POPC   C3B65145  41.511  31.143   7.156
 5018POPC   C4B65146  41.736  31.128   7.582
 5019POPC   NC365147  34.440  36.628   5.544
 5019POPC   PO465148  35.011  36.969   5.346
 5019POPC   GL165149  34.716  36.988   5.765
 5019POPC   GL265150  35.006  37.225   5.848
 5019POPC   C1A65151  34.588  36.741   6.160
 5019POPC   D2A65152  34.722  36.612   6.580
 5019POPC   C3A65153  34.482  36.831   6.875
 5019POPC   C4A65154  34.317  36.959   7.239
 5019POPC   C1B65155  34.956  37.077   6.240
 5019POPC   C2B65156  34.825  37.145   6.663
 5019POPC   C3B65157  34.984  37.072   7.050
 5019POPC   C4B65158  34.884  37.107   7.501
 5020POPC   NC365159   5.027   5.341   5.432
 5020POPC   PO465160   5.276   4.775   5.496
 5020POPC   GL165161   5.153   5.043   5.843
 5020POPC   GL265162   5.353   5.329   5.867
 5020POPC   C1A65163   5.151   4.942   6.285
 5020POPC   D2A65164   5.352   5.138   6.644
 5020POPC   C3A65165   5.165   4.955   7.027
 5020POPC   C4A65166   4.720   4.824   7.102
 5020POPC   C1B65167   5.049   5.443   6.206
 5020POPC   C2B65168   5.049   5.559   6.648
 5020POPC   C3B65169   5.322   5.485   7.025
 5020POPC   C4B65170   5.296   5.340   7.475
 5021POPC   NC365171  16.369  33.884   5.146
 5021POPC   PO465172  15.793  33.647   5.453
 5021POPC   GL165173  16.137  33.782   5.714
 5021POPC   GL265174  15.935  33.997   5.885
 5021POPC   C1A65175  16.225  33.683   6.155
 5021POPC   D2A65176  16.016  33.544   6.548
 5021POPC   C3A65177  16.088  33.773   6.929
 5021POPC   C4A65178  15.907  33.596   7.271
 5021POPC   C1B65179  15.739  33.867   6.271
 5021POPC   C2B65180  15.667  33.992   6.712
 5021POPC   C3B65181  15.646  34.076   7.166
 5021POPC   C4B65182  15.539  34.292   7.583
 5022POPC   NC365183   7.041  14.612   5.435
 5022POPC   PO465184   7.604  14.203   5.393
 5022POPC   GL165185   7.485  14.468   5.782
 5022POPC   GL265186   7.179  14.621   5.937
 5022POPC   C1A65187   7.643  14.645   6.180
 5022POPC   D2A65188   7.699  14.766   6.611
 5022POPC   C3A65189   7.384  14.659   6.897
 5022POPC   C4A65190   7.491  14.372   7.240
 5022POPC   C1B65191   7.299  14.262   6.254
 5022POPC   C2B65192   7.378  14.182   6.715
 5022POPC   C3B65193   7.152  14.038   7.107
 5022POPC   C4B65194   7.058  14.298   7.503
 5023POPC   NC365195   3.063   2.585   5.286
 5023POPC   PO465196   2.415   2.820   5.352
 5023POPC   GL165197   2.698   2.679   5.709
 5023POPC   GL265198   3.002   2.876   5.793
 5023POPC   C1A65199   2.605   2.716   6.170
 5023POPC   D2A65200   2.727   2.857   6.604
 5023POPC   C3A65201   2.498   2.776   7.025
 5023POPC   C4A65202   2.610   2.697   7.459
 5023POPC   C1B65203   3.244   2.951   6.211
 5023POPC   C2B65204   3.206   3.132   6.653
 5023POPC   C3B65205   3.034   2.927   7.035
 5023POPC   C4B65206   3.134   2.599   7.320
 5024POPC   NC365207  15.647  43.869   5.276
 5024POPC   PO465208  16.057  44.269   5.549
 5024POPC   GL165209  15.871  43.943   5.763
 5024POPC   GL265210  16.166  43.753   5.819
 5024POPC   C1A65211  15.865  43.971   6.209
 5024POPC   D2A65212  15.808  44.205   6.611
 5024POPC   C3A65213  15.985  44.026   6.985
 5024POPC   C4A65214  15.807  43.942   7.385
 5024POPC   C1B65215  16.398  43.802   6.183
 5024POPC   C2B65216  16.221  43.813   6.577
 5024POPC   C3B65217  16.457  43.770   6.941
 5024POPC   C4B65218  16.298  43.755   7.334
 5025POPC   NC365219   3.777  12.227   5.406
 5025POPC   PO465220   3.164  11.895   5.286
 5025POPC   GL165221   3.475  11.895   5.681
 5025POPC   GL265222   3.505  12.242   5.836
 5025POPC   C1A65223   3.779  11.918   6.092
 5025POPC   D2A65224   3.744  12.201   6.481
 5025POPC   C3A65225   3.744  11.963   6.869
 5025POPC   C4A65226   3.503  11.736   7.176
 5025POPC   C1B65227   3.261  12.012   6.144
 5025POPC   C2B65228   3.222  12.184   6.518
 5025POPC   C3B65229   3.373  12.514   6.764
 5025POPC   C4B65230   3.425  12.287   7.118
 5026POPC   NC365231   4.607  34.280   5.406
 5026POPC   PO465232   4.080  34.688   5.563
 5026POPC   GL165233   4.389  34.523   5.850
 5026POPC   GL265234   4.466  34.153   5.895
 5026POPC   C1A65235   4.428  34.529   6.296
 5026POPC   D2A65236   4.178  34.587   6.631
 5026POPC   C3A65237   4.356  34.688   7.029
 5026POPC   C4A65238   4.600  34.745   7.425
 5026POPC   C1B65239   4.089  34.164   6.174
 5026POPC   C2B65240   3.962  34.130   6.610
 5026POPC   C3B65241   4.139  34.208   7.021
 5026POPC   C4B65242   4.116  34.465   7.428
 5027POPC   NC365243  29.146   5.636   5.455
 5027POPC   PO465244  29.317   6.313   5.490
 5027POPC   GL165245  29.196   6.029   5.870
 5027POPC   GL265246  28.874   5.875   5.858
 5027POPC   C1A65247  29.123   5.825   6.316
 5027POPC   D2A65248  29.187   5.959   6.758
 5027POPC   C3A65249  29.039   5.718   7.097
 5027POPC   C4A65250  29.253   5.576   7.470
 5027POPC   C1B65251  28.791   6.184   6.233
 5027POPC   C2B65252  28.834   6.321   6.688
 5027POPC   C3B65253  28.827   6.186   7.143
 5027POPC   C4B65254  28.950   6.404   7.549
 5028POPC   NC365255  27.905   1.900   5.514
 5028POPC   PO465256  28.548   1.864   5.490
 5028POPC   GL165257  28.302   1.820   5.808
 5028POPC   GL265258  28.065   1.502   5.763
 5028POPC   C1A65259  28.212   2.156   6.108
 5028POPC   D2A65260  28.331   2.388   6.503
 5028POPC   C3A65261  28.425   2.136   6.901
 5028POPC   C4A65262  28.178   2.139   7.301
 5028POPC   C1B65263  28.000   1.672   6.169
 5028POPC   C2B65264  28.180   1.857   6.521
 5028POPC   C3B65265  28.176   1.654   6.876
 5028POPC   C4B65266  27.967   1.641   7.215
 5029POPC   NC365267  40.814  44.397   5.476
 5029POPC   PO465268  40.987   0.018   5.680
 5029POPC   GL165269  40.822  44.654   5.938
 5029POPC   GL265270  40.497  44.515   5.886
 5029POPC   C1A65271  40.630  44.719   6.340
 5029POPC   D2A65272  40.888   0.079   6.466
 5029POPC   C3A65273  40.928   0.151   6.903
 5029POPC   C4A65274  40.707  44.958   7.252
 5029POPC   C1B65275  40.230  44.265   6.122
 5029POPC   C2B65276  40.305  44.145   6.540
 5029POPC   C3B65277  40.427  44.410   6.881
 5029POPC   C4B65278  40.628  44.431   7.289
 5030POPC   NC365279  24.009   2.771   5.149
 5030POPC   PO465280  23.620   2.294   5.412
 5030POPC   GL165281  23.748   2.492   5.801
 5030POPC   GL265282  23.910   2.841   5.747
 5030POPC   C1A65283  23.533   2.488   6.224
 5030POPC   D2A65284  23.281   2.747   6.519
 5030POPC   C3A65285  23.484   2.789   6.932
 5030POPC   C4A65286  23.725   2.462   7.145
 5030POPC   C1B65287  23.634   2.970   6.113
 5030POPC   C2B65288  23.643   3.130   6.559
 5030POPC   C3B65289  23.710   3.273   6.990
 5030POPC   C4B65290  23.806   3.080   7.404
 5031POPC   NC365291  20.148  14.282   5.481
 5031POPC   PO465292  19.486  14.440   5.574
 5031POPC   GL165293  19.884  14.510   5.866
 5031POPC   GL265294  19.928  14.206   5.946
 5031POPC   C1A65295  20.156  14.584   6.232
 5031POPC   D2A65296  20.156  14.435   6.673
 5031POPC   C3A65297  20.126  14.697   7.066
 5031POPC   C4A65298  19.981  14.697   7.536
 5031POPC   C1B65299  19.633  14.331   6.272
 5031POPC   C2B65300  19.657  14.292   6.699
 5031POPC   C3B65301  19.800  14.309   7.100
 5031POPC   C4B65302  19.529  14.480   7.377
 5032POPC   NC365303  35.828  29.251   5.591
 5032POPC   PO465304  35.318  28.930   5.401
 5032POPC   GL165305  35.367  29.053   5.818
 5032POPC   GL265306  35.704  28.829   5.850
 5032POPC   C1A65307  35.164  29.263   6.222
 5032POPC   D2A65308  35.007  29.406   6.660
 5032POPC   C3A65309  35.298  29.424   7.027
 5032POPC   C4A65310  35.728  29.217   7.101
 5032POPC   C1B65311  35.513  28.878   6.261
 5032POPC   C2B65312  35.446  29.058   6.647
 5032POPC   C3B65313  35.266  28.921   6.997
 5032POPC   C4B65314  35.074  28.733   7.296
 5033POPC   NC365315  41.903  21.589   5.445
 5033POPC   PO465316  42.590  21.454   5.310
 5033POPC   GL165317  42.460  21.243   5.711
 5033POPC   GL265318  42.126  21.082   5.738
 5033POPC   C1A65319  42.473  21.151   6.185
 5033POPC   D2A65320  42.274  21.085   6.600
 5033POPC   C3A65321  42.440  21.222   6.992
 5033POPC   C4A65322  42.592  21.417   7.388
 5033POPC   C1B65323  41.909  21.288   6.076
 5033POPC   C2B65324  41.774  21.196   6.486
 5033POPC   C3B65325  41.878  21.306   6.898
 5033POPC   C4B65326  42.071  21.577   7.191
 5034POPC   NC365327   0.837  37.766   5.524
 5034POPC   PO465328   1.535  37.636   5.575
 5034POPC   GL165329   1.209  37.745   5.860
 5034POPC   GL265330   1.008  37.403   5.864
 5034POPC   C1A65331   0.978  37.735   6.244
 5034POPC   D2A65332   1.065  37.527   6.611
 5034POPC   C3A65333   1.027  37.785   6.957
 5034POPC   C4A65334   1.069  38.051   7.266
 5034POPC   C1B65335   1.371  37.407   6.196
 5034POPC   C2B65336   1.582  37.499   6.602
 5034POPC   C3B65337   1.403  37.450   7.024
 5034POPC   C4B65338   1.292  37.136   7.334
 5035POPC   NC365339   0.044   3.871   5.270
 5035POPC   PO465340   0.410   3.307   5.400
 5035POPC   GL165341   0.409   3.480   5.819
 5035POPC   GL265342   0.235   3.810   5.810
 5035POPC   C1A65343   0.383   3.275   6.236
 5035POPC   D2A65344   0.604   3.334   6.637
 5035POPC   C3A65345   0.420   3.256   7.029
 5035POPC   C4A65346   0.264   3.176   7.440
 5035POPC   C1B65347   0.387   3.781   6.249
 5035POPC   C2B65348   0.253   3.714   6.676
 5035POPC   C3B65349   0.441   3.771   7.079
 5035POPC   C4B65350   0.710   3.543   7.354
 5036POPC   NC365351  22.114  41.687   5.374
 5036POPC   PO465352  22.479  41.186   5.587
 5036POPC   GL165353  22.446  41.510   5.911
 5036POPC   GL265354  22.325  41.864   5.891
 5036POPC   C1A65355  22.474  41.602   6.366
 5036POPC   D2A65356  22.290  41.828   6.710
 5036POPC   C3A65357  22.241  41.516   7.023
 5036POPC   C4A65358  22.309  41.325   7.403
 5036POPC   C1B65359  22.004  41.826   6.232
 5036POPC   C2B65360  21.813  42.048   6.593
 5036POPC   C3B65361  21.848  41.872   7.002
 5036POPC   C4B65362  21.758  41.450   7.133
 5037POPC   NC365363  15.849   4.593   5.339
 5037POPC   PO465364  16.084   3.980   5.589
 5037POPC   GL165365  15.824   4.051   5.920
 5037POPC   GL265366  15.777   4.371   5.784
 5037POPC   C1A65367  15.807   4.070   6.354
 5037POPC   D2A65368  16.097   4.158   6.661
 5037POPC   C3A65369  15.969   4.034   7.044
 5037POPC   C4A65370  16.062   4.327   7.341
 5037POPC   C1B65371  15.714   4.602   6.095
 5037POPC   C2B65372  15.800   4.593   6.501
 5037POPC   C3B65373  15.788   4.537   6.918
 5037POPC   C4B65374  15.813   4.807   7.271
 5038POPC   NC365375  18.504  41.126   5.122
 5038POPC   PO465376  18.108  40.653   5.472
 5038POPC   GL165377  18.133  40.680   5.883
 5038POPC   GL265378  18.484  40.703   5.981
 5038POPC   C1A65379  18.066  40.953   6.199
 5038POPC   D2A65380  17.884  40.854   6.543
 5038POPC   C3A65381  18.062  40.562   6.805
 5038POPC   C4A65382  18.152  40.636   7.239
 5038POPC   C1B65383  18.482  40.723   6.445
 5038POPC   C2B65384  18.519  40.731   6.878
 5038POPC   C3B65385  18.499  40.993   7.196
 5038POPC   C4B65386  18.721  40.788   7.483
 5039POPC   NC365387  24.834  15.675   5.365
 5039POPC   PO465388  24.386  16.207   5.473
 5039POPC   GL165389  24.603  16.048   5.786
 5039POPC   GL265390  24.610  15.685   5.845
 5039POPC   C1A65391  24.415  16.138   6.193
 5039POPC   D2A65392  24.139  16.122   6.573
 5039POPC   C3A65393  24.370  16.094   6.973
 5039POPC   C4A65394  24.716  16.197   7.259
 5039POPC   C1B65395  24.445  15.617   6.290
 5039POPC   C2B65396  24.321  15.476   6.729
 5039POPC   C3B65397  24.352  15.612   7.166
 5039POPC   C4B65398  24.730  15.678   7.398
 5040POPC   NC365399   4.243   1.873   5.327
 5040POPC   PO465400   4.841   2.205   5.165
 5040POPC   GL165401   4.711   1.935   5.542
 5040POPC   GL265402   4.480   2.181   5.729
 5040POPC   C1A65403   4.514   1.733   5.945
 5040POPC   D2A65404   4.178   1.797   6.285
 5040POPC   C3A65405   4.200   1.997   6.701
 5040POPC   C4A65406   4.059   2.041   7.116
 5040POPC   C1B65407   4.533   2.180   6.215
 5040POPC   C2B65408   4.625   2.418   6.603
 5040POPC   C3B65409   4.597   2.440   7.062
 5040POPC   C4B65410   4.463   2.159   7.381
 5041POPC   NC365411  27.796  18.665   5.678
 5041POPC   PO465412  28.200  18.269   5.245
 5041POPC   GL165413  28.426  18.388   5.639
 5041POPC   GL265414  28.172  18.302   5.869
 5041POPC   C1A65415  28.648  18.267   6.062
 5041POPC   D2A65416  28.481  18.164   6.469
 5041POPC   C3A65417  28.592  18.209   6.915
 5041POPC   C4A65418  28.678  18.487   7.260
 5041POPC   C1B65419  27.996  18.234   6.289
 5041POPC   C2B65420  28.057  18.205   6.754
 5041POPC   C3B65421  28.036  18.397   7.154
 5041POPC   C4B65422  28.023  18.438   7.613
 5042POPC   NC365423  31.256  24.335   5.318
 5042POPC   PO465424  31.755  24.748   5.412
 5042POPC   GL165425  31.525  24.566   5.764
 5042POPC   GL265426  31.332  24.239   5.807
 5042POPC   C1A65427  31.462  24.735   6.209
 5042POPC   D2A65428  31.346  24.606   6.646
 5042POPC   C3A65429  31.677  24.462   6.938
 5042POPC   C4A65430  31.665  24.400   7.369
 5042POPC   C1B65431  31.315  23.989   6.192
 5042POPC   C2B65432  31.466  24.092   6.613
 5042POPC   C3B65433  31.274  24.166   7.016
 5042POPC   C4B65434  31.161  23.882   7.290
 5043POPC   NC365435  13.158   6.698   5.248
 5043POPC   PO465436  12.668   7.084   5.332
 5043POPC   GL165437  12.704   6.866   5.712
 5043POPC   GL265438  12.851   6.539   5.645
 5043POPC   C1A65439  12.591   6.898   6.152
 5043POPC   D2A65440  12.803   6.804   6.539
 5043POPC   C3A65441  12.707   6.600   6.915
 5043POPC   C4A65442  12.703   6.748   7.342
 5043POPC   C1B65443  12.941   6.514   6.112
 5043POPC   C2B65444  12.923   6.274   6.504
 5043POPC   C3B65445  13.078   6.229   6.908
 5043POPC   C4B65446  12.790   6.230   7.268
 5044POPC   NC365447  25.046  41.757   5.060
 5044POPC   PO465448  25.198  41.377   5.591
 5044POPC   GL165449  25.380  41.544   5.892
 5044POPC   GL265450  25.605  41.782   5.768
 5044POPC   C1A65451  25.528  41.488   6.280
 5044POPC   D2A65452  25.362  41.382   6.688
 5044POPC   C3A65453  25.553  41.603   7.008
 5044POPC   C4A65454  25.395  41.604   7.418
 5044POPC   C1B65455  25.382  41.967   6.141
 5044POPC   C2B65456  25.253  41.852   6.551
 5044POPC   C3B65457  25.148  41.907   6.974
 5044POPC   C4B65458  25.289  42.115   7.349
 5045POPC   NC365459  24.859  44.936   5.563
 5045POPC   PO465460  24.205  44.845   5.310
 5045POPC   GL165461  24.348  44.675   5.733
 5045POPC   GL265462  24.691  44.502   5.791
 5045POPC   C1A65463  24.310  44.432   6.126
 5045POPC   D2A65464  24.557  44.453   6.512
 5045POPC   C3A65465  24.463  44.761   6.779
 5045POPC   C4A65466  24.506  44.563   7.175
 5045POPC   C1B65467  24.680  44.798   6.167
 5045POPC   C2B65468  24.980  44.815   6.524
 5045POPC   C3B65469  24.931  44.758   6.953
 5045POPC   C4B65470  24.807  44.934   7.354
 5046POPC   NC365471   5.222  43.630   5.567
 5046POPC   PO465472   4.790  44.068   5.437
 5046POPC   GL165473   4.872  43.954   5.831
 5046POPC   GL265474   4.814  43.622   5.909
 5046POPC   C1A65475   5.138  44.020   6.175
 5046POPC   D2A65476   5.099  44.209   6.577
 5046POPC   C3A65477   5.278  44.024   6.933
 5046POPC   C4A65478   5.023  43.851   7.213
 5046POPC   C1B65479   5.066  43.496   6.243
 5046POPC   C2B65480   5.213  43.581   6.658
 5046POPC   C3B65481   5.106  43.360   7.047
 5046POPC   C4B65482   5.151  43.390   7.486
 5047POPC   NC365483  32.579  38.693   5.395
 5047POPC   PO465484  31.961  38.266   5.324
 5047POPC   GL165485  32.081  38.191   5.754
 5047POPC   GL265486  32.010  38.493   5.942
 5047POPC   C1A65487  32.309  38.087   6.142
 5047POPC   D2A65488  32.382  38.209   6.564
 5047POPC   C3A65489  32.226  38.108   6.981
 5047POPC   C4A65490  32.400  38.373   7.299
 5047POPC   C1B65491  32.061  38.590   6.377
 5047POPC   C2B65492  32.069  38.569   6.815
 5047POPC   C3B65493  32.039  38.696   7.223
 5047POPC   C4B65494  32.028  38.757   7.663
 5048POPC   NC365495  42.136  14.697   5.596
 5048POPC   PO465496  42.535  14.291   5.318
 5048POPC   GL165497  42.465  14.343   5.808
 5048POPC   GL265498  42.422  14.681   6.010
 5048POPC   C1A65499  42.323  14.183   6.229
 5048POPC   D2A65500  42.185  14.226   6.653
 5048POPC   C3A65501  42.460  14.244   7.012
 5048POPC   C4A65502  42.685  14.565   7.248
 5048POPC   C1B65503  42.010  14.577   6.253
 5048POPC   C2B65504  41.909  14.686   6.681
 5048POPC   C3B65505  42.177  14.639   7.034
 5048POPC   C4B65506  42.232  14.465   7.482
 5049POPC   NC365507   8.360  42.480   5.347
 5049POPC   PO465508   7.715  42.136   5.412
 5049POPC   GL165509   7.957  42.206   5.788
 5049POPC   GL265510   8.319  42.279   5.828
 5049POPC   C1A65511   7.934  42.142   6.229
 5049POPC   D2A65512   8.060  42.364   6.598
 5049POPC   C3A65513   7.957  42.212   6.977
 5049POPC   C4A65514   8.164  42.344   7.338
 5049POPC   C1B65515   8.434  42.307   6.244
 5049POPC   C2B65516   8.522  42.180   6.664
 5049POPC   C3B65517   8.603  42.367   7.082
 5049POPC   C4B65518   8.627  42.128   7.478
 5050POPC   NC365519  23.261  16.277   5.159
 5050POPC   PO465520  22.664  15.992   5.183
 5050POPC   GL165521  22.900  16.015   5.610
 5050POPC   GL265522  23.223  16.229   5.698
 5050POPC   C1A65523  23.001  15.938   6.064
 5050POPC   D2A65524  22.987  16.074   6.480
 5050POPC   C3A65525  23.062  15.859   6.849
 5050POPC   C4A65526  22.911  15.853   7.243
 5050POPC   C1B65527  23.164  16.425   6.135
 5050POPC   C2B65528  23.247  16.489   6.607
 5050POPC   C3B65529  23.115  16.345   7.042
 5050POPC   C4B65530  23.134  16.253   7.512
 5051POPC   NC365531  39.632  22.879   5.382
 5051POPC   PO465532  39.014  22.507   5.263
 5051POPC   GL165533  39.135  22.820   5.625
 5051POPC   GL265534  38.918  23.102   5.802
 5051POPC   C1A65535  39.211  22.796   6.096
 5051POPC   D2A65536  39.036  22.983   6.480
 5051POPC   C3A65537  39.257  22.847   6.848
 5051POPC   C4A65538  39.581  22.807   7.192
 5051POPC   C1B65539  39.232  23.318   6.138
 5051POPC   C2B65540  39.277  23.442   6.582
 5051POPC   C3B65541  39.228  23.310   7.033
 5051POPC   C4B65542  39.155  23.028   7.373
 5052POPC   NC365543  25.526  30.213   5.405
 5052POPC   PO465544  24.939  29.940   5.391
 5052POPC   GL165545  25.112  30.083   5.798
 5052POPC   GL265546  25.425  29.911   5.899
 5052POPC   C1A65547  25.062  29.913   6.235
 5052POPC   D2A65548  25.324  29.997   6.600
 5052POPC   C3A65549  25.184  29.839   6.981
 5052POPC   C4A65550  25.142  30.042   7.338
 5052POPC   C1B65551  25.509  29.620   6.280
 5052POPC   C2B65552  25.560  29.552   6.736
 5052POPC   C3B65553  25.662  29.629   7.154
 5052POPC   C4B65554  25.566  29.891   7.519
 5053POPC   NC365555  10.155  10.073   5.380
 5053POPC   PO465556   9.539   9.805   5.397
 5053POPC   GL165557   9.801   9.681   5.731
 5053POPC   GL265558   9.576   9.405   5.806
 5053POPC   C1A65559  10.001   9.586   6.130
 5053POPC   D2A65560  10.149   9.665   6.564
 5053POPC   C3A65561   9.910   9.514   6.934
 5053POPC   C4A65562   9.867   9.804   7.260
 5053POPC   C1B65563   9.490   9.618   6.218
 5053POPC   C2B65564   9.282   9.541   6.641
 5053POPC   C3B65565   9.398   9.634   7.104
 5053POPC   C4B65566   9.462   9.796   7.577
 5054POPC   NC365567  43.374  26.770   5.357
 5054POPC   PO465568  44.034  26.689   5.293
 5054POPC   GL165569  43.840  26.721   5.728
 5054POPC   GL265570  43.494  26.881   5.822
 5054POPC   C1A65571  43.751  26.610   6.169
 5054POPC   D2A65572  43.648  26.819   6.549
 5054POPC   C3A65573  44.029  26.856   6.774
 5054POPC   C4A65574  43.946  26.623   7.110
 5054POPC   C1B65575  43.783  27.124   6.076
 5054POPC   C2B65576  43.877  27.256   6.478
 5054POPC   C3B65577  43.648  27.285   6.850
 5054POPC   C4B65578  43.882  27.164   7.165
 5055POPC   NC365579   4.789   1.096   5.639
 5055POPC   PO465580   5.218   1.478   5.237
 5055POPC   GL165581   5.246   1.302   5.675
 5055POPC   GL265582   5.383   1.025   5.872
 5055POPC   C1A65583   5.092   1.394   6.115
 5055POPC   D2A65584   5.039   1.326   6.575
 5055POPC   C3A65585   4.881   1.504   6.969
 5055POPC   C4A65586   5.004   1.459   7.433
 5055POPC   C1B65587   5.153   0.910   6.260
 5055POPC   C2B65588   5.036   0.823   6.700
 5055POPC   C3B65589   5.111   1.073   7.070
 5055POPC   C4B65590   4.679   1.118   7.274
 5056POPC   NC365591   0.120  37.314   5.127
 5056POPC   PO465592   0.743  37.323   5.396
 5056POPC   GL165593   0.432  37.502   5.718
 5056POPC   GL265594   0.147  37.750   5.650
 5056POPC   C1A65595   0.474  37.731   6.112
 5056POPC   D2A65596   0.569  37.606   6.537
 5056POPC   C3A65597   0.526  37.716   6.931
 5056POPC   C4A65598   0.680  37.723   7.355
 5056POPC   C1B65599   0.017  37.936   6.091
 5056POPC   C2B65600   0.251  38.118   6.490
 5056POPC   C3B65601   0.137  38.051   6.958
 5056POPC   C4B65602   0.150  37.685   7.283
 5057POPC   NC365603  36.091   6.933   5.391
 5057POPC   PO465604  36.042   6.331   5.496
 5057POPC   GL165605  36.209   6.606   5.823
 5057POPC   GL265606  36.070   6.936   5.887
 5057POPC   C1A65607  36.123   6.634   6.278
 5057POPC   D2A65608  35.911   6.525   6.637
 5057POPC   C3A65609  36.185   6.543   6.978
 5057POPC   C4A65610  36.133   6.419   7.362
 5057POPC   C1B65611  35.719   6.951   6.188
 5057POPC   C2B65612  35.645   7.008   6.663
 5057POPC   C3B65613  35.774   6.828   7.053
 5057POPC   C4B65614  36.109   6.923   7.320
 5058POPC   NC365615  30.103  40.465   5.355
 5058POPC   PO465616  29.505  40.931   5.313
 5058POPC   GL165617  29.734  40.691   5.628
 5058POPC   GL265618  30.038  40.863   5.698
 5058POPC   C1A65619  29.720  40.757   6.097
 5058POPC   D2A65620  29.561  40.885   6.502
 5058POPC   C3A65621  29.550  40.705   6.914
 5058POPC   C4A65622  29.768  40.766   7.266
 5058POPC   C1B65623  30.259  40.765   6.097
 5058POPC   C2B65624  30.268  40.598   6.526
 5058POPC   C3B65625  30.260  40.829   6.920
 5058POPC   C4B65626  30.273  40.691   7.324
 5059POPC   NC365627  21.632  38.096   5.575
 5059POPC   PO465628  22.055  37.567   5.246
 5059POPC   GL165629  22.263  37.632   5.715
 5059POPC   GL265630  22.104  37.955   5.900
 5059POPC   C1A65631  22.367  37.607   6.152
 5059POPC   D2A65632  22.205  37.893   6.515
 5059POPC   C3A65633  22.350  37.821   6.952
 5059POPC   C4A65634  22.438  37.494   7.231
 5059POPC   C1B65635  21.840  37.689   6.236
 5059POPC   C2B65636  21.738  37.567   6.616
 5059POPC   C3B65637  21.855  37.903   6.872
 5059POPC   C4B65638  21.920  37.629   7.149
 5060POPC   NC365639   4.536  38.980   5.388
 5060POPC   PO465640   4.063  39.429   5.499
 5060POPC   GL165641   4.317  39.202   5.803
 5060POPC   GL265642   4.543  39.459   5.803
 5060POPC   C1A65643   4.353  39.218   6.253
 5060POPC   D2A65644   4.147  39.442   6.581
 5060POPC   C3A65645   4.069  39.260   7.012
 5060POPC   C4A65646   4.137  38.857   7.296
 5060POPC   C1B65647   4.809  39.453   6.149
 5060POPC   C2B65648   4.770  39.275   6.567
 5060POPC   C3B65649   4.774  39.449   6.968
 5060POPC   C4B65650   4.523  39.209   7.250
 5061POPC   NC365651  20.941  16.675   5.398
 5061POPC   PO465652  20.598  17.162   5.671
 5061POPC   GL165653  20.780  16.923   5.948
 5061POPC   GL265654  20.691  16.619   5.868
 5061POPC   C1A65655  20.654  16.840   6.342
 5061POPC   D2A65656  20.474  16.647   6.662
 5061POPC   C3A65657  20.490  16.942   6.974
 5061POPC   C4A65658  20.428  16.736   7.307
 5061POPC   C1B65659  20.845  16.380   6.198
 5061POPC   C2B65660  20.991  16.380   6.642
 5061POPC   C3B65661  20.785  16.463   7.048
 5061POPC   C4B65662  20.830  16.530   7.525
 5062POPC   NC365663   5.210   3.540   5.238
 5062POPC   PO465664   5.207   4.194   5.082
 5062POPC   GL165665   5.230   3.928   5.599
 5062POPC   GL265666   5.230   3.551   5.755
 5062POPC   C1A65667   5.102   3.873   6.113
 5062POPC   D2A65668   4.978   3.495   6.443
 5062POPC   C3A65669   4.795   3.590   6.871
 5062POPC   C4A65670   4.856   3.695   7.340
 5062POPC   C1B65671   5.431   3.458   6.204
 5062POPC   C2B65672   5.408   3.616   6.683
 5062POPC   C3B65673   5.246   3.421   7.069
 5062POPC   C4B65674   5.243   3.403   7.547
 5063POPC   NC365675   5.743  33.077   5.256
 5063POPC   PO465676   6.287  33.421   5.566
 5063POPC   GL165677   5.950  33.264   5.783
 5063POPC   GL265678   5.908  32.914   5.783
 5063POPC   C1A65679   6.034  33.201   6.219
 5063POPC   D2A65680   5.982  33.308   6.639
 5063POPC   C3A65681   5.673  33.027   6.815
 5063POPC   C4A65682   5.464  33.102   7.220
 5063POPC   C1B65683   5.750  32.672   6.160
 5063POPC   C2B65684   5.897  32.610   6.624
 5063POPC   C3B65685   6.105  32.788   7.012
 5063POPC   C4B65686   6.150  32.627   7.419
 5064POPC   NC365687  10.707  29.168   5.208
 5064POPC   PO465688  10.156  29.444   5.268
 5064POPC   GL165689  10.436  29.228   5.665
 5064POPC   GL265690  10.337  28.924   5.843
 5064POPC   C1A65691  10.775  29.111   6.059
 5064POPC   D2A65692  11.051  29.084   6.494
 5064POPC   C3A65693  10.822  29.073   6.921
 5064POPC   C4A65694  10.538  29.039   7.283
 5064POPC   C1B65695  10.291  29.218   6.221
 5064POPC   C2B65696  10.386  29.307   6.683
 5064POPC   C3B65697  10.288  29.452   7.113
 5064POPC   C4B65698   9.968  29.338   7.419
 5065POPC   NC365699  21.860  34.785   5.020
 5065POPC   PO465700  22.286  34.665   5.567
 5065POPC   GL165701  22.137  34.450   5.955
 5065POPC   GL265702  21.969  34.733   6.157
 5065POPC   C1A65703  22.258  34.337   6.369
 5065POPC   D2A65704  22.549  34.492   6.655
 5065POPC   C3A65705  22.334  34.582   7.024
 5065POPC   C4A65706  22.334  34.896   7.349
 5065POPC   C1B65707  21.728  34.401   6.345
 5065POPC   C2B65708  21.884  34.369   6.764
 5065POPC   C3B65709  21.823  34.561   7.171
 5065POPC   C4B65710  21.711  34.364   7.574
 5066POPC   NC365711  20.534   3.923   5.513
 5066POPC   PO465712  20.725   4.535   5.333
 5066POPC   GL165713  20.602   4.365   5.776
 5066POPC   GL265714  20.235   4.338   5.847
 5066POPC   C1A65715  20.542   4.111   6.195
 5066POPC   D2A65716  20.529   4.256   6.642
 5066POPC   C3A65717  20.480   4.073   7.057
 5066POPC   C4A65718  20.741   4.049   7.413
 5066POPC   C1B65719  20.236   4.546   6.269
 5066POPC   C2B65720  20.338   4.718   6.702
 5066POPC   C3B65721  20.507   4.588   7.129
 5066POPC   C4B65722  20.307   4.366   7.475
 5067POPC   NC365723  26.164  44.153   5.365
 5067POPC   PO465724  25.886  43.556   5.340
 5067POPC   GL165725  26.077  43.761   5.706
 5067POPC   GL265726  26.405  43.621   5.656
 5067POPC   C1A65727  26.017  43.935   6.155
 5067POPC   D2A65728  25.773  44.019   6.561
 5067POPC   C3A65729  25.950  44.110   6.969
 5067POPC   C4A65730  26.194  44.010   7.359
 5067POPC   C1B65731  26.314  43.519   6.089
 5067POPC   C2B65732  26.272  43.606   6.521
 5067POPC   C3B65733  26.277  43.704   6.944
 5067POPC   C4B65734  26.169  43.517   7.341
 5068POPC   NC365735  33.250   7.588   5.451
 5068POPC   PO465736  32.847   7.119   5.449
 5068POPC   GL165737  32.994   7.303   5.818
 5068POPC   GL265738  33.299   7.153   5.872
 5068POPC   C1A65739  32.912   7.490   6.233
 5068POPC   D2A65740  32.661   7.659   6.575
 5068POPC   C3A65741  32.859   7.617   6.975
 5068POPC   C4A65742  32.967   7.392   7.333
 5068POPC   C1B65743  33.388   7.259   6.302
 5068POPC   C2B65744  33.324   7.364   6.757
 5068POPC   C3B65745  33.365   7.107   7.135
 5068POPC   C4B65746  33.440   7.082   7.578
 5069POPC   NC365747  39.245   3.744   5.241
 5069POPC   PO465748  39.663   3.245   5.318
 5069POPC   GL165749  39.513   3.584   5.701
 5069POPC   GL265750  39.153   3.553   5.851
 5069POPC   C1A65751  39.492   3.631   6.220
 5069POPC   D2A65752  39.320   3.496   6.646
 5069POPC   C3A65753  39.513   3.415   7.059
 5069POPC   C4A65754  39.419   3.571   7.472
 5069POPC   C1B65755  38.904   3.415   6.229
 5069POPC   C2B65756  38.810   3.539   6.667
 5069POPC   C3B65757  38.974   3.539   7.123
 5069POPC   C4B65758  38.933   3.362   7.561
 5070POPC   NC365759  14.603  13.620   5.359
 5070POPC   PO465760  14.033  13.930   5.437
 5070POPC   GL165761  14.198  13.587   5.780
 5070POPC   GL265762  14.572  13.563   5.856
 5070POPC   C1A65763  14.268  13.457   6.238
 5070POPC   D2A65764  14.343  13.605   6.665
 5070POPC   C3A65765  14.125  13.469   7.062
 5070POPC   C4A65766  14.289  13.324   7.496
 5070POPC   C1B65767  14.622  13.853   6.223
 5070POPC   C2B65768  14.720  14.028   6.631
 5070POPC   C3B65769  14.873  13.904   7.025
 5070POPC   C4B65770  14.559  13.719   7.299
 5071POPC   NC365771  11.762  18.672   5.397
 5071POPC   PO465772  11.348  19.185   5.149
 5071POPC   GL165773  11.416  19.028   5.584
 5071POPC   GL265774  11.271  19.241   5.784
 5071POPC   C1A65775  11.331  18.801   6.021
 5071POPC   D2A65776  11.307  18.745   6.501
 5071POPC   C3A65777  11.171  18.863   6.911
 5071POPC   C4A65778  11.194  18.745   7.364
 5071POPC   C1B65779  11.135  19.259   6.218
 5071POPC   C2B65780  11.285  19.341   6.645
 5071POPC   C3B65781  11.391  19.283   7.089
 5071POPC   C4B65782  11.156  19.511   7.394
 5072POPC   NC365783  30.447  23.720   5.550
 5072POPC   PO465784  30.978  24.007   5.486
 5072POPC   GL165785  30.925  23.814   5.874
 5072POPC   GL265786  30.821  23.478   5.808
 5072POPC   C1A65787  30.643  23.809   6.238
 5072POPC   D2A65788  30.555  23.557   6.647
 5072POPC   C3A65789  30.791  23.796   6.935
 5072POPC   C4A65790  30.678  24.138   7.172
 5072POPC   C1B65791  30.700  23.316   6.219
 5072POPC   C2B65792  30.807  23.088   6.552
 5072POPC   C3B65793  30.927  23.291   6.917
 5072POPC   C4B65794  30.839  23.483   7.337
 5073POPC   NC365795  40.002  15.202   5.401
 5073POPC   PO465796  39.878  14.680   5.513
 5073POPC   GL165797  39.965  15.009   5.878
 5073POPC   GL265798  39.867  15.390   5.885
 5073POPC   C1A65799  40.006  15.158   6.326
 5073POPC   D2A65800  39.806  15.004   6.713
 5073POPC   C3A65801  39.928  14.916   7.147
 5073POPC   C4A65802  39.754  14.947   7.579
 5073POPC   C1B65803  39.686  15.589   6.295
 5073POPC   C2B65804  39.743  15.524   6.751
 5073POPC   C3B65805  39.800  15.440   7.209
 5073POPC   C4B65806  39.853  15.544   7.668
 5074POPC   NC365807   2.307  22.150   5.482
 5074POPC   PO465808   2.938  22.095   5.347
 5074POPC   GL165809   2.735  22.066   5.750
 5074POPC   GL265810   2.532  21.825   5.840
 5074POPC   C1A65811   2.614  22.196   6.175
 5074POPC   D2A65812   2.459  22.332   6.585
 5074POPC   C3A65813   2.694  22.191   6.928
 5074POPC   C4A65814   2.815  21.919   7.269
 5074POPC   C1B65815   2.327  21.778   6.233
 5074POPC   C2B65816   2.460  21.822   6.649
 5074POPC   C3B65817   2.335  21.869   7.090
 5074POPC   C4B65818   2.413  21.832   7.561
 5075POPC   NC365819  25.025  40.929   5.608
 5075POPC   PO465820  25.515  41.027   5.182
 5075POPC   GL165821  25.553  40.831   5.624
 5075POPC   GL265822  25.553  41.059   5.927
 5075POPC   C1A65823  25.474  40.566   6.015
 5075POPC   D2A65824  25.606  40.458   6.443
 5075POPC   C3A65825  25.570  40.594   6.889
 5075POPC   C4A65826  25.376  40.428   7.261
 5075POPC   C1B65827  25.520  40.981   6.373
 5075POPC   C2B65828  25.225  40.899   6.703
 5075POPC   C3B65829  25.215  40.929   7.165
 5075POPC   C4B65830  25.365  41.112   7.574
 5076POPC   NC365831  39.069  23.530   5.531
 5076POPC   PO465832  39.331  24.087   5.289
 5076POPC   GL165833  39.332  23.917   5.741
 5076POPC   GL265834  39.049  23.796   5.953
 5076POPC   C1A65835  39.506  23.820   6.181
 5076POPC   D2A65836  39.606  23.981   6.593
 5076POPC   C3A65837  39.475  23.749   6.953
 5076POPC   C4A65838  39.490  23.598   7.390
 5076POPC   C1B65839  38.746  23.488   6.125
 5076POPC   C2B65840  38.683  23.389   6.554
 5076POPC   C3B65841  38.883  23.653   6.849
 5076POPC   C4B65842  39.032  23.743   7.233
 5077POPC   NC365843  22.221  19.789   5.043
 5077POPC   PO465844  22.685  19.916   5.499
 5077POPC   GL165845  22.374  19.695   5.778
 5077POPC   GL265846  22.040  19.779   5.633
 5077POPC   C1A65847  22.296  19.822   6.187
 5077POPC   D2A65848  21.982  19.991   6.400
 5077POPC   C3A65849  22.137  19.923   6.807
 5077POPC   C4A65850  22.086  20.157   7.184
 5077POPC   C1B65851  21.903  19.567   5.995
 5077POPC   C2B65852  21.938  19.487   6.435
 5077POPC   C3B65853  22.048  19.390   6.862
 5077POPC   C4B65854  22.075  19.627   7.230
 5078POPC   NC365855   5.558  10.645   5.600
 5078POPC   PO465856   5.048  10.296   5.522
 5078POPC   GL165857   5.200  10.349   5.871
 5078POPC   GL265858   5.244  10.705   6.009
 5078POPC   C1A65859   4.992  10.314   6.215
 5078POPC   D2A65860   5.163  10.435   6.567
 5078POPC   C3A65861   5.258  10.342   6.973
 5078POPC   C4A65862   4.926  10.519   7.216
 5078POPC   C1B65863   5.120  10.922   6.403
 5078POPC   C2B65864   5.184  10.851   6.853
 5078POPC   C3B65865   5.357  10.764   7.278
 5078POPC   C4B65866   5.206  10.777   7.755
 5079POPC   NC365867  37.302  38.064   5.480
 5079POPC   PO465868  36.730  37.691   5.350
 5079POPC   GL165869  37.020  37.685   5.685
 5079POPC   GL265870  36.905  38.003   5.818
 5079POPC   C1A65871  37.030  37.584   6.127
 5079POPC   D2A65872  36.891  37.586   6.557
 5079POPC   C3A65873  37.121  37.648   6.958
 5079POPC   C4A65874  36.981  37.704   7.336
 5079POPC   C1B65875  36.688  37.958   6.237
 5079POPC   C2B65876  36.646  38.010   6.698
 5079POPC   C3B65877  36.849  38.123   7.101
 5079POPC   C4B65878  36.767  38.166   7.563
 5080POPC   NC365879  44.938  22.694   5.322
 5080POPC   PO465880  44.422  23.168   5.464
 5080POPC   GL165881  44.702  22.974   5.720
 5080POPC   GL265882  44.448  22.792   5.862
 5080POPC   C1A65883  44.741  23.049   6.181
 5080POPC   D2A65884  44.453  23.051   6.561
 5080POPC   C3A65885  44.652  23.042   6.969
 5080POPC   C4A65886  44.927  23.282   7.256
 5080POPC   C1B65887  44.466  22.595   6.232
 5080POPC   C2B65888  44.275  22.555   6.612
 5080POPC   C3B65889  44.380  22.501   7.011
 5080POPC   C4B65890  44.404  22.684   7.401
 5081POPC   NC365891  43.682  28.021   5.510
 5081POPC   PO465892  43.949  28.672   5.494
 5081POPC   GL165893  43.970  28.340   5.817
 5081POPC   GL265894  43.683  28.493   5.925
 5081POPC   C1A65895  43.734  28.054   6.171
 5081POPC   D2A65896  43.547  28.172   6.588
 5081POPC   C3A65897  43.788  28.116   6.966
 5081POPC   C4A65898  44.042  28.091   7.359
 5081POPC   C1B65899  43.939  28.490   6.299
 5081POPC   C2B65900  43.925  28.554   6.714
 5081POPC   C3B65901  43.992  28.545   7.132
 5081POPC   C4B65902  44.063  28.619   7.546
 5082POPC   NC365903  22.329  17.983   5.212
 5082POPC   PO465904  21.995  18.572   5.372
 5082POPC   GL165905  21.951  18.319   5.748
 5082POPC   GL265906  22.310  18.238   5.742
 5082POPC   C1A65907  21.950  18.258   6.219
 5082POPC   D2A65908  22.143  18.554   6.541
 5082POPC   C3A65909  22.036  18.616   6.971
 5082POPC   C4A65910  21.827  18.255   7.137
 5082POPC   C1B65911  22.454  18.325   6.189
 5082POPC   C2B65912  22.606  18.304   6.613
 5082POPC   C3B65913  22.404  18.228   7.000
 5082POPC   C4B65914  22.481  18.074   7.389
 5083POPC   NC365915  32.501  28.880   5.013
 5083POPC   PO465916  32.286  28.312   5.368
 5083POPC   GL165917  32.346  28.447   5.766
 5083POPC   GL265918  32.109  28.722   5.716
 5083POPC   C1A65919  32.245  28.230   6.156
 5083POPC   D2A65920  32.090  28.128   6.559
 5083POPC   C3A65921  32.376  28.159   6.900
 5083POPC   C4A65922  32.294  28.325   7.300
 5083POPC   C1B65923  32.000  28.686   6.145
 5083POPC   C2B65924  32.230  28.622   6.530
 5083POPC   C3B65925  32.143  28.685   6.959
 5083POPC   C4B65926  31.924  28.698   7.338
 5084POPC   NC365927   2.355   1.399   5.509
 5084POPC   PO465928   1.678   1.396   5.502
 5084POPC   GL165929   1.931   1.451   5.918
 5084POPC   GL265930   2.311   1.441   6.001
 5084POPC   C1A65931   2.017   1.612   6.370
 5084POPC   D2A65932   2.083   1.352   6.742
 5084POPC   C3A65933   1.811   0.976   6.826
 5084POPC   C4A65934   1.707   0.921   7.286
 5084POPC   C1B65935   2.140   1.108   6.282
 5084POPC   C2B65936   2.286   0.875   6.657
 5084POPC   C3B65937   2.193   0.854   7.113
 5084POPC   C4B65938   2.103   1.269   7.268
 5085POPC   NC365939  26.513   5.226   5.343
 5085POPC   PO465940  27.136   5.388   5.246
 5085POPC   GL165941  26.967   5.170   5.653
 5085POPC   GL265942  26.629   5.054   5.816
 5085POPC   C1A65943  27.091   5.119   6.081
 5085POPC   D2A65944  26.848   5.245   6.445
 5085POPC   C3A65945  26.841   5.046   6.842
 5085POPC   C4A65946  27.093   5.004   7.227
 5085POPC   C1B65947  26.695   4.810   6.193
 5085POPC   C2B65948  26.676   4.622   6.584
 5085POPC   C3B65949  26.431   4.727   6.924
 5085POPC   C4B65950  26.535   5.012   7.253
 5086POPC   NC365951  17.647  40.650   5.470
 5086POPC   PO465952  17.951  41.250   5.356
 5086POPC   GL165953  17.778  41.068   5.776
 5086POPC   GL265954  17.427  40.957   5.807
 5086POPC   C1A65955  17.578  41.116   6.231
 5086POPC   D2A65956  17.377  40.893   6.541
 5086POPC   C3A65957  17.532  41.003   6.910
 5086POPC   C4A65958  17.268  41.070   7.212
 5086POPC   C1B65959  17.566  40.613   6.159
 5086POPC   C2B65960  17.607  40.439   6.633
 5086POPC   C3B65961  17.656  40.535   7.124
 5086POPC   C4B65962  17.822  40.495   7.595
 5087POPC   NC365963  25.031   1.921   5.552
 5087POPC   PO465964  25.589   1.868   5.225
 5087POPC   GL165965  25.522   1.921   5.662
 5087POPC   GL265966  25.392   2.227   5.751
 5087POPC   C1A65967  25.379   1.837   6.105
 5087POPC   D2A65968  25.490   1.754   6.503
 5087POPC   C3A65969  25.299   1.845   6.851
 5087POPC   C4A65970  25.534   1.871   7.166
 5087POPC   C1B65971  25.384   2.357   6.159
 5087POPC   C2B65972  25.205   2.217   6.523
 5087POPC   C3B65973  24.967   2.252   6.913
 5087POPC   C4B65974  25.213   2.223   7.303
 5088POPC   NC365975   2.349  38.339   5.319
 5088POPC   PO465976   1.717  38.423   5.437
 5088POPC   GL165977   1.825  38.571   5.800
 5088POPC   GL265978   2.150  38.425   5.779
 5088POPC   C1A65979   1.697  38.450   6.202
 5088POPC   D2A65980   1.728  38.293   6.611
 5088POPC   C3A65981   1.836  38.575   6.927
 5088POPC   C4A65982   2.002  38.350   7.288
 5088POPC   C1B65983   2.234  38.467   6.187
 5088POPC   C2B65984   2.307  38.736   6.522
 5088POPC   C3B65985   2.345  38.597   6.932
 5088POPC   C4B65986   2.161  38.827   7.256
 5089POPC   NC365987  44.519  12.970   5.430
 5089POPC   PO465988   0.177  12.734   5.363
 5089POPC   GL165989   0.013  12.826   5.805
 5089POPC   GL265990  44.661  12.828   5.895
 5089POPC   C1A65991   0.010  13.065   6.241
 5089POPC   D2A65992  44.979  13.296   6.674
 5089POPC   C3A65993  44.889  13.032   7.038
 5089POPC   C4A65994  44.468  13.053   7.239
 5089POPC   C1B65995  44.733  12.635   6.293
 5089POPC   C2B65996  44.773  12.645   6.739
 5089POPC   C3B65997  44.469  12.550   7.061
 5089POPC   C4B65998  44.263  12.602   7.455
 5090POPC   NC365999   7.459   4.755   5.398
 5090POPC   PO466000   7.122   4.175   5.302
 5090POPC   GL166001   7.331   4.265   5.699
 5090POPC   GL266002   7.669   4.094   5.763
 5090POPC   C1A66003   7.211   4.411   6.124
 5090POPC   D2A66004   7.405   4.371   6.529
 5090POPC   C3A66005   7.197   4.416   6.966
 5090POPC   C4A66006   7.292   4.224   7.410
 5090POPC   C1B66007   7.704   4.469   6.049
 5090POPC   C2B66008   7.871   4.631   6.434
 5090POPC   C3B66009   7.626   4.718   6.811
 5090POPC   C4B66010   7.670   4.457   7.180
 5091POPC   NC366011  38.140  10.468   5.432
 5091POPC   PO466012  37.498  10.626   5.225
 5091POPC   GL166013  37.496  10.554   5.730
 5091POPC   GL266014  37.831  10.473   5.850
 5091POPC   C1A66015  37.527  10.533   6.239
 5091POPC   D2A66016  37.719  10.767   6.598
 5091POPC   C3A66017  37.713  10.516   6.973
 5091POPC   C4A66018  37.404  10.316   7.216
 5091POPC   C1B66019  38.027  10.258   6.216
 5091POPC   C2B66020  38.107  10.390   6.638
 5091POPC   C3B66021  38.125  10.218   7.034
 5091POPC   C4B66022  37.870  10.202   7.428
 5092POPC   NC366023  14.663  27.818   5.415
 5092POPC   PO466024  14.257  27.271   5.508
 5092POPC   GL166025  14.371  27.613   5.780
 5092POPC   GL266026  14.742  27.642   5.896
 5092POPC   C1A66027  14.240  27.753   6.174
 5092POPC   D2A66028  14.497  27.725   6.504
 5092POPC   C3A66029  14.298  27.725   6.857
 5092POPC   C4A66030  14.207  27.605   7.237
 5092POPC   C1B66031  14.547  27.318   6.175
 5092POPC   C2B66032  14.705  27.243   6.588
 5092POPC   C3B66033  14.748  27.489   6.947
 5092POPC   C4B66034  14.716  27.382   7.401
 5093POPC   NC366035  44.054  17.104   5.459
 5093POPC   PO466036  43.515  17.493   5.535
 5093POPC   GL166037  43.821  17.524   5.908
 5093POPC   GL266038  43.882  17.178   6.026
 5093POPC   C1A66039  43.752  17.596   6.371
 5093POPC   D2A66040  43.734  17.241   6.677
 5093POPC   C3A66041  43.969  17.279   7.058
 5093POPC   C4A66042  43.907  17.638   7.350
 5093POPC   C1B66043  44.176  17.309   6.362
 5093POPC   C2B66044  44.295  17.655   6.647
 5093POPC   C3B66045  44.389  17.572   7.080
 5093POPC   C4B66046  44.329  17.382   7.472
 5094POPC   NC366047  40.545   1.506   5.441
 5094POPC   PO466048  40.573   0.814   5.386
 5094POPC   GL166049  40.702   1.064   5.766
 5094POPC   GL266050  41.039   1.158   5.843
 5094POPC   C1A66051  40.557   1.168   6.193
 5094POPC   D2A66052  40.524   0.958   6.595
 5094POPC   C3A66053  40.517   1.162   6.994
 5094POPC   C4A66054  40.706   1.100   7.386
 5094POPC   C1B66055  41.096   1.006   6.296
 5094POPC   C2B66056  41.044   1.014   6.758
 5094POPC   C3B66057  41.174   1.016   7.191
 5094POPC   C4B66058  41.073   0.861   7.641
 5095POPC   NC366059  21.208  39.500   5.368
 5095POPC   PO466060  21.755  39.141   5.425
 5095POPC   GL166061  21.616  39.094   5.838
 5095POPC   GL266062  21.571  39.466   5.835
 5095POPC   C1A66063  21.482  38.900   6.253
 5095POPC   D2A66064  21.440  38.754   6.714
 5095POPC   C3A66065  21.414  39.066   7.001
 5095POPC   C4A66066  21.176  39.145   7.371
 5095POPC   C1B66067  21.240  39.337   6.164
 5095POPC   C2B66068  21.091  39.350   6.626
 5095POPC   C3B66069  21.241  39.541   7.030
 5095POPC   C4B66070  21.588  39.414   7.354
 5096POPC   NC366071  27.845  44.316   5.433
 5096POPC   PO466072  27.581  43.586   5.428
 5096POPC   GL166073  27.706  43.865   5.763
 5096POPC   GL266074  27.397  43.950   5.897
 5096POPC   C1A66075  27.855  43.934   6.219
 5096POPC   D2A66076  27.697  44.029   6.654
 5096POPC   C3A66077  27.986  43.947   6.977
 5096POPC   C4A66078  28.032  43.665   7.314
 5096POPC   C1B66079  27.480  43.585   6.176
 5096POPC   C2B66080  27.278  43.466   6.570
 5096POPC   C3B66081  27.257  43.788   6.893
 5096POPC   C4B66082  27.554  43.806   7.213
 5097POPC   NC366083  19.821   4.011   5.435
 5097POPC   PO466084  19.972   4.618   5.511
 5097POPC   GL166085  19.611   4.458   5.804
 5097POPC   GL266086  19.748   4.128   5.929
 5097POPC   C1A66087  19.433   4.342   6.258
 5097POPC   D2A66088  19.680   4.376   6.643
 5097POPC   C3A66089  19.505   4.470   7.049
 5097POPC   C4A66090  19.567   4.078   7.174
 5097POPC   C1B66091  20.013   4.077   6.317
 5097POPC   C2B66092  20.065   4.056   6.764
 5097POPC   C3B66093  20.025   4.407   7.038
 5097POPC   C4B66094  19.865   4.813   6.880
 5098POPC   NC366095  30.960  18.053   5.170
 5098POPC   PO466096  30.396  18.296   5.366
 5098POPC   GL166097  30.353  18.291   5.808
 5098POPC   GL266098  30.697  18.178   5.903
 5098POPC   C1A66099  30.374  18.289   6.263
 5098POPC   D2A66100  30.530  18.173   6.668
 5098POPC   C3A66101  30.404  18.356   7.043
 5098POPC   C4A66102  30.464  18.380   7.485
 5098POPC   C1B66103  30.930  18.287   6.293
 5098POPC   C2B66104  31.022  18.274   6.755
 5098POPC   C3B66105  30.830  18.050   7.104
 5098POPC   C4B66106  30.853  18.076   7.571
 5099POPC   NC366107  20.302  29.913   5.305
 5099POPC   PO466108  19.661  30.086   5.433
 5099POPC   GL166109  19.906  29.816   5.713
 5099POPC   GL266110  19.882  30.077   5.942
 5099POPC   C1A66111  20.095  29.679   6.143
 5099POPC   D2A66112  19.962  29.548   6.583
 5099POPC   C3A66113  20.131  29.779   6.925
 5099POPC   C4A66114  20.058  30.008   7.306
 5099POPC   C1B66115  19.637  29.892   6.285
 5099POPC   C2B66116  19.635  30.185   6.649
 5099POPC   C3B66117  19.641  30.253   7.080
 5099POPC   C4B66118  19.569  29.851   7.239
 5100POPC   NC366119  19.707  24.832   5.336
 5100POPC   PO466120  20.241  25.277   5.404
 5100POPC   GL166121  20.011  25.388   5.772
 5100POPC   GL266122  19.848  25.072   5.772
 5100POPC   C1A66123  19.820  25.316   6.211
 5100POPC   D2A66124  19.955  25.126   6.616
 5100POPC   C3A66125  19.832  25.296   7.023
 5100POPC   C4A66126  20.060  25.162   7.464
 5100POPC   C1B66127  19.523  24.898   6.054
 5100POPC   C2B66128  19.542  24.840   6.494
 5100POPC   C3B66129  19.387  24.810   6.920
 5100POPC   C4B66130  19.742  24.836   7.174
 5101POPC   NC366131  22.425  18.746   5.454
 5101POPC   PO466132  22.277  19.439   5.346
 5101POPC   GL166133  22.069  19.166   5.710
 5101POPC   GL266134  21.768  18.930   5.687
 5101POPC   C1A66135  22.153  18.835   6.079
 5101POPC   D2A66136  22.544  18.801   6.371
 5101POPC   C3A66137  22.530  18.983   6.814
 5101POPC   C4A66138  22.278  19.048   7.203
 5101POPC   C1B66139  21.717  19.120   6.116
 5101POPC   C2B66140  21.809  19.012   6.553
 5101POPC   C3B66141  21.637  19.124   6.974
 5101POPC   C4B66142  21.812  18.948   7.347
 5102POPC   NC366143  20.503  42.528   5.117
 5102POPC   PO466144  20.546  43.157   5.446
 5102POPC   GL166145  20.659  43.207   5.859
 5102POPC   GL266146  20.715  42.912   6.016
 5102POPC   C1A66147  20.931  43.333   6.233
 5102POPC   D2A66148  20.876  43.437   6.655
 5102POPC   C3A66149  20.577  43.187   6.860
 5102POPC   C4A66150  20.764  43.238   7.255
 5102POPC   C1B66151  20.491  43.109   6.340
 5102POPC   C2B66152  20.162  42.964   6.537
 5102POPC   C3B66153  20.007  43.038   6.931
 5102POPC   C4B66154  20.299  42.928   7.233
 5103POPC   NC366155  17.958  27.551   5.241
 5103POPC   PO466156  18.578  27.348   5.445
 5103POPC   GL166157  18.363  27.673   5.737
 5103POPC   GL266158  18.020  27.786   5.709
 5103POPC   C1A66159  18.277  27.861   6.162
 5103POPC   D2A66160  18.494  27.870   6.567
 5103POPC   C3A66161  18.296  27.785   6.985
 5103POPC   C4A66162  18.514  27.604   7.365
 5103POPC   C1B66163  17.985  27.443   6.012
 5103POPC   C2B66164  17.994  27.384   6.470
 5103POPC   C3B66165  17.833  27.498   6.885
 5103POPC   C4B66166  18.008  27.438   7.298
 5104POPC   NC366167  12.040  38.346   5.436
 5104POPC   PO466168  11.921  37.798   5.630
 5104POPC   GL166169  11.937  38.161   5.921
 5104POPC   GL266170  12.259  38.328   5.899
 5104POPC   C1A66171  11.820  38.456   6.276
 5104POPC   D2A66172  11.605  38.475   6.682
 5104POPC   C3A66173  11.823  38.535   7.096
 5104POPC   C4A66174  12.053  38.572   7.510
 5104POPC   C1B66175  12.307  38.351   6.365
 5104POPC   C2B66176  12.097  38.228   6.768
 5104POPC   C3B66177  12.201  38.161   7.222
 5104POPC   C4B66178  12.393  38.223   7.655
 5105POPC   NC366179  41.606  34.534   5.255
 5105POPC   PO466180  41.071  34.278   5.614
 5105POPC   GL166181  41.351  34.617   5.733
 5105POPC   GL266182  41.735  34.576   5.765
 5105POPC   C1A66183  41.425  34.546   6.170
 5105POPC   D2A66184  41.553  34.631   6.579
 5105POPC   C3A66185  41.295  34.540   6.917
 5105POPC   C4A66186  41.261  34.751   7.265
 5105POPC   C1B66187  41.922  34.651   6.204
 5105POPC   C2B66188  42.022  34.469   6.651
 5105POPC   C3B66189  41.803  34.483   7.039
 5105POPC   C4B66190  41.582  34.384   7.393
 5106POPC   NC366191  37.236  27.911   5.549
 5106POPC   PO466192  37.899  27.741   5.583
 5106POPC   GL166193  37.673  27.786   5.925
 5106POPC   GL266194  37.453  27.531   5.972
 5106POPC   C1A66195  37.903  27.707   6.299
 5106POPC   D2A66196  38.086  27.414   6.598
 5106POPC   C3A66197  37.927  27.610   6.964
 5106POPC   C4A66198  37.749  27.835   7.285
 5106POPC   C1B66199  37.532  27.300   6.349
 5106POPC   C2B66200  37.267  27.373   6.685
 5106POPC   C3B66201  37.381  27.538   7.065
 5106POPC   C4B66202  37.267  27.274   7.349
 5107POPC   NC366203   0.547  23.770   5.276
 5107POPC   PO466204  44.961  23.802   5.404
 5107POPC   GL166205   0.293  23.718   5.712
 5107POPC   GL266206   0.622  23.924   5.764
 5107POPC   C1A66207   0.342  23.543   6.087
 5107POPC   D2A66208   0.110  23.568   6.438
 5107POPC   C3A66209   0.326  23.468   6.845
 5107POPC   C4A66210   0.499  23.648   7.242
 5107POPC   C1B66211   0.752  23.818   6.198
 5107POPC   C2B66212   0.816  23.689   6.651
 5107POPC   C3B66213   0.862  23.941   7.061
 5107POPC   C4B66214   0.792  23.951   7.544
 5108POPC   NC366215  28.130  43.586   5.568
 5108POPC   PO466216  28.376  44.191   5.390
 5108POPC   GL166217  28.395  43.976   5.741
 5108POPC   GL266218  28.130  44.146   5.855
 5108POPC   C1A66219  28.450  43.859   6.156
 5108POPC   D2A66220  28.282  43.881   6.557
 5108POPC   C3A66221  28.505  44.094   6.871
 5108POPC   C4A66222  28.402  44.039   7.276
 5108POPC   C1B66223  28.059  44.414   6.218
 5108POPC   C2B66224  28.121  44.356   6.634
 5108POPC   C3B66225  28.028  44.457   7.027
 5108POPC   C4B66226  27.927  44.256   7.406
 5109POPC   NC366227  18.022  23.849   5.467
 5109POPC   PO466228  18.671  23.916   5.393
 5109POPC   GL166229  18.521  23.727   5.802
 5109POPC   GL266230  18.169  23.634   5.896
 5109POPC   C1A66231  18.467  23.663   6.291
 5109POPC   D2A66232  18.516  23.437   6.688
 5109POPC   C3A66233  18.486  23.746   6.992
 5109POPC   C4A66234  18.387  23.949   7.372
 5109POPC   C1B66235  17.975  23.809   6.261
 5109POPC   C2B66236  18.073  23.729   6.700
 5109POPC   C3B66237  17.993  23.668   7.146
 5109POPC   C4B66238  17.623  23.651   7.419
 5110POPC   NC366239  32.810  36.151   5.572
 5110POPC   PO466240  33.399  36.260   5.210
 5110POPC   GL166241  33.298  36.315   5.672
 5110POPC   GL266242  33.339  36.005   5.889
 5110POPC   C1A66243  33.140  36.434   6.111
 5110POPC   D2A66244  32.850  36.472   6.486
 5110POPC   C3A66245  33.030  36.456   6.910
 5110POPC   C4A66246  32.818  36.237   7.253
 5110POPC   C1B66247  33.137  35.943   6.279
 5110POPC   C2B66248  33.232  36.033   6.702
 5110POPC   C3B66249  33.062  35.825   7.071
 5110POPC   C4B66250  32.779  35.704   7.431
 5111POPC   NC366251  13.920  43.704   5.447
 5111POPC   PO466252  14.624  43.939   5.588
 5111POPC   GL166253  14.550  43.987   5.984
 5111POPC   GL266254  14.196  43.862   5.938
 5111POPC   C1A66255  14.548  43.867   6.405
 5111POPC   D2A66256  14.725  43.917   6.808
 5111POPC   C3A66257  14.521  43.928   7.216
 5111POPC   C4A66258  14.416  43.767   7.638
 5111POPC   C1B66259  14.155  44.174   6.262
 5111POPC   C2B66260  14.343  44.270   6.680
 5111POPC   C3B66261  14.250  44.342   7.108
 5111POPC   C4B66262  14.034  44.050   7.410
 5112POPC   NC366263  24.840  43.416   5.339
 5112POPC   PO466264  24.219  43.262   5.311
 5112POPC   GL166265  24.459  43.222   5.693
 5112POPC   GL266266  24.357  42.928   5.882
 5112POPC   C1A66267  24.639  43.297   6.125
 5112POPC   D2A66268  24.665  43.103   6.533
 5112POPC   C3A66269  24.631  43.299   6.898
 5112POPC   C4A66270  24.593  43.321   7.299
 5112POPC   C1B66271  24.176  43.072   6.274
 5112POPC   C2B66272  24.201  43.047   6.728
 5112POPC   C3B66273  24.099  43.078   7.124
 5112POPC   C4B66274  24.047  42.689   7.324
 5113POPC   NC366275  36.798  12.246   5.017
 5113POPC   PO466276  36.523  11.728   5.391
 5113POPC   GL166277  36.726  11.745   5.797
 5113POPC   GL266278  36.794  12.107   5.817
 5113POPC   C1A66279  36.977  11.815   6.191
 5113POPC   D2A66280  36.965  11.976   6.628
 5113POPC   C3A66281  36.829  11.722   6.997
 5113POPC   C4A66282  36.889  11.798   7.438
 5113POPC   C1B66283  36.875  12.335   6.230
 5113POPC   C2B66284  36.832  12.458   6.675
 5113POPC   C3B66285  36.861  12.222   7.091
 5113POPC   C4B66286  36.854  12.292   7.562
 5114POPC   NC366287  44.164  31.679   5.686
 5114POPC   PO466288  43.655  31.367   5.460
 5114POPC   GL166289  43.690  31.536   5.853
 5114POPC   GL266290  43.905  31.253   5.940
 5114POPC   C1A66291  43.841  31.633   6.285
 5114POPC   D2A66292  43.843  31.473   6.701
 5114POPC   C3A66293  43.624  31.722   7.004
 5114POPC   C4A66294  43.749  31.667   7.428
 5114POPC   C1B66295  44.124  31.193   6.348
 5114POPC   C2B66296  44.210  31.127   6.810
 5114POPC   C3B66297  44.056  31.226   7.218
 5114POPC   C4B66298  43.750  31.125   7.532
 5115POPC   NC366299  17.568   4.829   5.414
 5115POPC   PO466300  17.089   5.281   5.332
 5115POPC   GL166301  17.237   5.046   5.741
 5115POPC   GL266302  17.586   5.173   5.782
 5115POPC   C1A66303  17.459   4.812   6.123
 5115POPC   D2A66304  17.326   4.737   6.553
 5115POPC   C3A66305  17.553   4.654   6.921
 5115POPC   C4A66306  17.621   4.767   7.330
 5115POPC   C1B66307  17.507   5.305   6.203
 5115POPC   C2B66308  17.682   5.116   6.529
 5115POPC   C3B66309  17.702   5.126   6.938
 5115POPC   C4B66310  17.937   5.187   7.291
 5116POPC   NC366311  29.273  26.210   5.454
 5116POPC   PO466312  28.882  25.703   5.219
 5116POPC   GL166313  28.957  25.770   5.704
 5116POPC   GL266314  29.321  25.850   5.812
 5116POPC   C1A66315  28.969  25.960   6.154
 5116POPC   D2A66316  29.224  25.937   6.554
 5116POPC   C3A66317  29.086  26.164   6.888
 5116POPC   C4A66318  29.038  25.897   7.178
 5116POPC   C1B66319  29.452  26.146   6.148
 5116POPC   C2B66320  29.628  26.277   6.545
 5116POPC   C3B66321  29.580  26.375   6.979
 5116POPC   C4B66322  29.325  26.272   7.339
 5117POPC   NC366323  15.868  42.385   5.131
 5117POPC   PO466324  16.392  42.233   5.474
 5117POPC   GL166325  16.308  42.465   5.855
 5117POPC   GL266326  16.460  42.798   5.878
 5117POPC   C1A66327  16.017  42.428   6.228
 5117POPC   D2A66328  16.117  42.383   6.674
 5117POPC   C3A66329  15.879  42.255   7.055
 5117POPC   C4A66330  16.031  42.163   7.481
 5117POPC   C1B66331  16.452  42.683   6.341
 5117POPC   C2B66332  16.319  42.831   6.775
 5117POPC   C3B66333  16.270  42.569   7.186
 5117POPC   C4B66334  16.368  42.508   7.667
 5118POPC   NC366335  38.615  36.103   5.504
 5118POPC   PO466336  37.959  36.146   5.638
 5118POPC   GL166337  38.231  36.301   5.901
 5118POPC   GL266338  38.394  35.992   5.965
 5118POPC   C1A66339  38.326  36.370   6.324
 5118POPC   D2A66340  38.487  36.091   6.624
 5118POPC   C3A66341  38.362  36.118   7.052
 5118POPC   C4A66342  38.668  36.284   7.329
 5118POPC   C1B66343  38.612  35.690   6.213
 5118POPC   C2B66344  38.798  35.697   6.580
 5118POPC   C3B66345  38.612  35.653   6.985
 5118POPC   C4B66346  38.560  35.357   7.324
 5119POPC   NC366347  42.960  21.206   5.518
 5119POPC   PO466348  43.472  21.591   5.537
 5119POPC   GL166349  43.312  21.588   5.936
 5119POPC   GL266350  43.289  21.245   5.911
 5119POPC   C1A66351  43.165  21.466   6.359
 5119POPC   D2A66352  42.788  21.372   6.598
 5119POPC   C3A66353  42.947  21.392   7.002
 5119POPC   C4A66354  43.195  21.750   7.056
 5119POPC   C1B66355  43.465  21.047   6.259
 5119POPC   C2B66356  43.257  21.014   6.663
 5119POPC   C3B66357  43.373  20.939   7.061
 5119POPC   C4B66358  43.496  21.340   7.179
 5120POPC   NC366359  22.743  19.463   5.516
 5120POPC   PO466360  22.965  18.802   5.448
 5120POPC   GL166361  22.911  19.042   5.818
 5120POPC   GL266362  22.563  19.069   5.843
 5120POPC   C1A66363  22.884  19.152   6.261
 5120POPC   D2A66364  23.026  18.896   6.610
 5120POPC   C3A66365  23.059  19.114   6.971
 5120POPC   C4A66366  22.789  19.101   7.295
 5120POPC   C1B66367  22.362  19.304   6.171
 5120POPC   C2B66368  22.462  19.489   6.586
 5120POPC   C3B66369  22.534  19.477   7.058
 5120POPC   C4B66370  22.441  19.404   7.536
 5121POPC   NC366371  16.590  26.792   5.478
 5121POPC   PO466372  17.230  26.510   5.400
 5121POPC   GL166373  17.042  26.754   5.746
 5121POPC   GL266374  17.091  26.449   5.916
 5121POPC   C1A66375  16.804  26.794   6.167
 5121POPC   D2A66376  16.637  26.590   6.557
 5121POPC   C3A66377  16.519  26.868   6.889
 5121POPC   C4A66378  16.542  27.048   7.277
 5121POPC   C1B66379  17.242  26.356   6.321
 5121POPC   C2B66380  17.040  26.295   6.717
 5121POPC   C3B66381  16.815  26.468   7.063
 5121POPC   C4B66382  16.527  26.543   7.427
 5122POPC   NC366383  43.690  41.861   5.404
 5122POPC   PO466384  44.151  41.427   5.436
 5122POPC   GL166385  43.900  41.627   5.803
 5122POPC   GL266386  43.510  41.647   5.832
 5122POPC   C1A66387  44.008  41.742   6.218
 5122POPC   D2A66388  44.075  41.435   6.542
 5122POPC   C3A66389  44.005  41.610   6.957
 5122POPC   C4A66390  44.091  41.413   7.310
 5122POPC   C1B66391  43.572  41.512   6.280
 5122POPC   C2B66392  43.557  41.364   6.711
 5122POPC   C3B66393  43.597  41.362   7.164
 5122POPC   C4B66394  43.684  41.534   7.592
 5123POPC   NC366395  44.842  38.210   5.474
 5123POPC   PO466396  44.776  37.563   5.310
 5123POPC   GL166397  44.666  37.583   5.763
 5123POPC   GL266398  44.939  37.349   5.902
 5123POPC   C1A66399  44.513  37.844   6.130
 5123POPC   D2A66400  44.745  37.993   6.547
 5123POPC   C3A66401  44.597  37.924   6.999
 5123POPC   C4A66402  44.734  37.918   7.461
 5123POPC   C1B66403  44.765  37.444   6.308
 5123POPC   C2B66404  44.418  37.572   6.575
 5123POPC   C3B66405  44.339  37.468   7.007
 5123POPC   C4B66406  44.603  37.434   7.355
 5124POPC   NC366407   5.253  29.801   5.094
 5124POPC   PO466408   5.017  30.162   5.606
 5124POPC   GL166409   4.960  30.011   5.997
 5124POPC   GL266410   4.818  29.699   5.988
 5124POPC   C1A66411   5.294  29.905   6.278
 5124POPC   D2A66412   5.355  30.075   6.688
 5124POPC   C3A66413   5.343  29.852   7.055
 5124POPC   C4A66414   5.338  29.991   7.470
 5124POPC   C1B66415   4.839  29.763   6.446
 5124POPC   C2B66416   4.842  29.637   6.858
 5124POPC   C3B66417   4.861  29.863   7.195
 5124POPC   C4B66418   4.886  29.807   7.607
 5125POPC   NC366419   7.267   2.269   5.357
 5125POPC   PO466420   7.350   1.597   5.377
 5125POPC   GL166421   7.387   1.737   5.770
 5125POPC   GL266422   7.142   2.017   5.806
 5125POPC   C1A66423   7.529   1.832   6.183
 5125POPC   D2A66424   7.429   1.670   6.599
 5125POPC   C3A66425   7.729   1.824   6.911
 5125POPC   C4A66426   7.631   2.062   7.259
 5125POPC   C1B66427   7.171   2.198   6.236
 5125POPC   C2B66428   7.154   2.173   6.711
 5125POPC   C3B66429   7.140   2.232   7.195
 5125POPC   C4B66430   7.010   2.364   7.616
 5126POPC   NC366431  28.597  44.630   5.424
 5126POPC   PO466432  27.898  44.827   5.467
 5126POPC   GL166433  28.231  44.672   5.790
 5126POPC   GL266434  28.548  44.442   5.881
 5126POPC   C1A66435  28.410  44.797   6.200
 5126POPC   D2A66436  28.152  44.863   6.519
 5126POPC   C3A66437  28.204   0.001   6.927
 5126POPC   C4A66438  28.137  44.853   7.330
 5126POPC   C1B66439  28.544  44.321   6.322
 5126POPC   C2B66440  28.591  44.579   6.666
 5126POPC   C3B66441  28.525  44.593   7.080
 5126POPC   C4B66442  28.796  44.343   7.260
 5127POPC   NC366443  31.290  35.192   5.197
 5127POPC   PO466444  31.788  35.615   5.492
 5127POPC   GL166445  31.445  35.418   5.742
 5127POPC   GL266446  31.170  35.152   5.722
 5127POPC   C1A66447  31.486  35.450   6.186
 5127POPC   D2A66448  31.748  35.321   6.525
 5127POPC   C3A66449  31.645  35.565   6.889
 5127POPC   C4A66450  31.704  35.465   7.327
 5127POPC   C1B66451  31.187  35.051   6.181
 5127POPC   C2B66452  31.218  35.247   6.606
 5127POPC   C3B66453  31.335  35.189   7.047
 5127POPC   C4B66454  31.418  35.084   7.499
 5128POPC   NC366455   3.960   6.928   5.495
 5128POPC   PO466456   3.260   6.651   5.463
 5128POPC   GL166457   3.306   6.506   5.895
 5128POPC   GL266458   3.628   6.665   5.931
 5128POPC   C1A66459   3.432   6.457   6.352
 5128POPC   D2A66460   3.716   6.640   6.679
 5128POPC   C3A66461   3.471   6.662   7.058
 5128POPC   C4A66462   3.104   6.468   7.243
 5128POPC   C1B66463   3.373   6.977   6.213
 5128POPC   C2B66464   3.388   7.058   6.672
 5128POPC   C3B66465   3.769   7.090   6.929
 5128POPC   C4B66466   3.922   6.853   7.235
 5129POPC   NC366467  17.637  11.228   5.291
 5129POPC   PO466468  17.061  11.054   5.603
 5129POPC   GL166469  17.383  11.327   5.720
 5129POPC   GL266470  17.622  11.054   5.772
 5129POPC   C1A66471  17.566  11.447   6.104
 5129POPC   D2A66472  17.392  11.323   6.514
 5129POPC   C3A66473  17.447  11.581   6.867
 5129POPC   C4A66474  17.792  11.572   7.153
 5129POPC   C1B66475  17.524  10.940   6.202
 5129POPC   C2B66476  17.775  10.941   6.580
 5129POPC   C3B66477  17.653  11.116   6.956
 5129POPC   C4B66478  17.406  11.251   7.300
 5130POPC   NC366479  28.783  31.498   5.367
 5130POPC   PO466480  28.193  31.789   5.225
 5130POPC   GL166481  28.402  31.507   5.672
 5130POPC   GL266482  28.563  31.156   5.724
 5130POPC   C1A66483  28.502  31.541   6.120
 5130POPC   D2A66484  28.310  31.537   6.528
 5130POPC   C3A66485  28.568  31.668   6.825
 5130POPC   C4A66486  28.418  31.597   7.263
 5130POPC   C1B66487  28.263  31.086   6.091
 5130POPC   C2B66488  27.998  31.104   6.461
 5130POPC   C3B66489  28.042  31.010   6.891
 5130POPC   C4B66490  28.159  31.185   7.301
 5131POPC   NC366491  20.939   2.460   5.509
 5131POPC   PO466492  20.589   1.915   5.579
 5131POPC   GL166493  20.588   2.119   5.937
 5131POPC   GL266494  20.416   2.394   5.840
 5131POPC   C1A66495  20.907   2.232   6.214
 5131POPC   D2A66496  21.014   2.078   6.621
 5131POPC   C3A66497  20.742   1.794   6.752
 5131POPC   C4A66498  20.561   1.707   7.166
 5131POPC   C1B66499  20.489   2.551   6.226
 5131POPC   C2B66500  20.619   2.400   6.598
 5131POPC   C3B66501  20.572   2.211   6.981
 5131POPC   C4B66502  20.378   2.144   7.387
 5132POPC   NC366503   9.307  28.382   5.092
 5132POPC   PO466504   9.617  28.121   5.622
 5132POPC   GL166505   9.778  28.341   5.936
 5132POPC   GL266506   9.441  28.321   6.085
 5132POPC   C1A66507   9.848  28.433   6.337
 5132POPC   D2A66508   9.795  28.627   6.714
 5132POPC   C3A66509  10.050  28.425   7.007
 5132POPC   C4A66510   9.808  28.304   7.350
 5132POPC   C1B66511   9.416  28.703   6.343
 5132POPC   C2B66512   9.314  28.870   6.753
 5132POPC   C3B66513   9.369  28.751   7.184
 5132POPC   C4B66514   9.393  28.581   7.606
 5133POPC   NC366515   8.995   5.187   5.507
 5133POPC   PO466516   8.726   4.577   5.306
 5133POPC   GL166517   8.729   4.806   5.730
 5133POPC   GL266518   9.083   4.724   5.710
 5133POPC   C1A66519   8.702   5.035   6.185
 5133POPC   D2A66520   8.829   5.320   6.569
 5133POPC   C3A66521   8.821   5.158   6.955
 5133POPC   C4A66522   9.071   5.252   7.298
 5133POPC   C1B66523   9.060   4.682   6.158
 5133POPC   C2B66524   9.055   4.855   6.576
 5133POPC   C3B66525   9.207   4.825   7.015
 5133POPC   C4B66526   9.287   4.802   7.475
 5134POPC   NC366527  12.311  41.097   5.470
 5134POPC   PO466528  12.270  40.462   5.404
 5134POPC   GL166529  12.049  40.641   5.774
 5134POPC   GL266530  11.906  40.972   5.797
 5134POPC   C1A66531  12.089  40.731   6.240
 5134POPC   D2A66532  12.064  40.773   6.721
 5134POPC   C3A66533  12.301  40.501   7.050
 5134POPC   C4A66534  12.272  40.484   7.531
 5134POPC   C1B66535  11.915  41.209   6.190
 5134POPC   C2B66536  11.985  41.286   6.635
 5134POPC   C3B66537  11.794  41.158   7.007
 5134POPC   C4B66538  11.968  40.826   7.240
 5135POPC   NC366539   3.065  28.693   5.485
 5135POPC   PO466540   2.430  28.497   5.355
 5135POPC   GL166541   2.506  28.235   5.764
 5135POPC   GL266542   2.845  28.301   5.931
 5135POPC   C1A66543   2.325  28.096   6.163
 5135POPC   D2A66544   2.596  28.017   6.517
 5135POPC   C3A66545   2.703  28.294   6.861
 5135POPC   C4A66546   2.391  28.613   6.984
 5135POPC   C1B66547   3.099  28.343   6.347
 5135POPC   C2B66548   3.211  28.411   6.793
 5135POPC   C3B66549   3.120  28.184   7.176
 5135POPC   C4B66550   3.092  28.381   7.589
 5136POPC   NC366551  27.059  22.020   5.427
 5136POPC   PO466552  26.593  21.767   5.607
 5136POPC   GL166553  26.944  21.888   5.901
 5136POPC   GL266554  26.984  22.252   5.899
 5136POPC   C1A66555  26.969  21.955   6.351
 5136POPC   D2A66556  26.898  21.802   6.765
 5136POPC   C3A66557  27.055  22.013   7.098
 5136POPC   C4A66558  26.856  22.000   7.470
 5136POPC   C1B66559  26.980  22.464   6.313
 5136POPC   C2B66560  26.901  22.340   6.746
 5136POPC   C3B66561  26.618  22.285   7.117
 5136POPC   C4B66562  26.666  22.470   7.525
 5137POPC   NC366563  21.482  16.340   5.309
 5137POPC   PO466564  21.401  16.957   5.344
 5137POPC   GL166565  21.483  16.617   5.721
 5137POPC   GL266566  21.201  16.617   5.891
 5137POPC   C1A66567  21.661  16.569   6.182
 5137POPC   D2A66568  21.560  16.700   6.639
 5137POPC   C3A66569  21.315  16.547   7.001
 5137POPC   C4A66570  21.472  16.816   7.295
 5137POPC   C1B66571  21.156  16.767   6.329
 5137POPC   C2B66572  20.977  16.891   6.755
 5137POPC   C3B66573  20.968  16.912   7.211
 5137POPC   C4B66574  21.125  16.928   7.658
 5138POPC   NC366575   4.107   5.691   5.415
 5138POPC   PO466576   4.377   6.217   5.149
 5138POPC   GL166577   4.381   6.196   5.649
 5138POPC   GL266578   4.448   5.857   5.764
 5138POPC   C1A66579   4.251   6.160   6.110
 5138POPC   D2A66580   4.273   5.906   6.484
 5138POPC   C3A66581   4.124   5.919   6.910
 5138POPC   C4A66582   4.217   6.048   7.324
 5138POPC   C1B66583   4.541   5.614   6.130
 5138POPC   C2B66584   4.544   5.503   6.555
 5138POPC   C3B66585   4.614   5.701   6.959
 5138POPC   C4B66586   4.511   5.633   7.401
 5139POPC   NC366587   3.246  25.252   5.427
 5139POPC   PO466588   3.848  25.261   5.391
 5139POPC   GL166589   3.586  25.317   5.821
 5139POPC   GL266590   3.333  25.063   5.912
 5139POPC   C1A66591   3.509  25.368   6.312
 5139POPC   D2A66592   3.478  25.243   6.769
 5139POPC   C3A66593   3.446  25.537   7.122
 5139POPC   C4A66594   3.541  25.987   7.250
 5139POPC   C1B66595   3.051  25.091   6.292
 5139POPC   C2B66596   3.064  24.950   6.707
 5139POPC   C3B66597   3.083  25.173   7.112
 5139POPC   C4B66598   3.297  25.202   7.511
 5140POPC   NC366599  20.352  11.302   5.065
 5140POPC   PO466600  20.624  11.831   5.435
 5140POPC   GL166601  20.688  12.036   5.799
 5140POPC   GL266602  21.018  12.177   5.753
 5140POPC   C1A66603  20.768  12.147   6.207
 5140POPC   D2A66604  20.586  12.053   6.575
 5140POPC   C3A66605  20.745  12.235   6.939
 5140POPC   C4A66606  20.542  12.369   7.329
 5140POPC   C1B66607  21.058  11.756   6.012
 5140POPC   C2B66608  21.030  11.717   6.482
 5140POPC   C3B66609  20.776  11.720   6.898
 5140POPC   C4B66610  20.778  11.920   7.318
 5141POPC   NC366611   2.816  38.976   5.411
 5141POPC   PO466612   3.116  39.551   5.629
 5141POPC   GL166613   2.739  39.313   5.801
 5141POPC   GL266614   2.925  39.019   5.903
 5141POPC   C1A66615   2.512  39.140   6.198
 5141POPC   D2A66616   2.598  39.272   6.649
 5141POPC   C3A66617   2.601  39.025   7.033
 5141POPC   C4A66618   2.518  39.001   7.551
 5141POPC   C1B66619   2.991  39.341   6.240
 5141POPC   C2B66620   3.130  39.417   6.633
 5141POPC   C3B66621   2.935  39.536   7.004
 5141POPC   C4B66622   2.892  39.269   7.367
 5142POPC   NC366623  23.368  30.233   5.632
 5142POPC   PO466624  23.928  29.948   5.478
 5142POPC   GL166625  23.800  29.788   5.877
 5142POPC   GL266626  23.562  29.526   5.843
 5142POPC   C1A66627  23.816  29.924   6.300
 5142POPC   D2A66628  23.797  30.277   6.604
 5142POPC   C3A66629  23.720  30.107   6.993
 5142POPC   C4A66630  24.038  29.973   7.264
 5142POPC   C1B66631  23.367  29.631   6.230
 5142POPC   C2B66632  23.369  29.906   6.596
 5142POPC   C3B66633  23.368  29.746   6.997
 5142POPC   C4B66634  23.612  29.665   7.305
 5143POPC   NC366635  11.498  15.529   5.491
 5143POPC   PO466636  11.208  16.115   5.179
 5143POPC   GL166637  11.273  16.053   5.645
 5143POPC   GL266638  11.619  16.007   5.739
 5143POPC   C1A66639  11.260  16.143   6.125
 5143POPC   D2A66640  11.272  16.346   6.555
 5143POPC   C3A66641  11.093  16.038   6.869
 5143POPC   C4A66642  11.168  15.705   7.166
 5143POPC   C1B66643  11.680  15.835   6.156
 5143POPC   C2B66644  11.525  15.890   6.586
 5143POPC   C3B66645  11.605  15.981   7.021
 5143POPC   C4B66646  11.584  16.403   7.234
 5144POPC   NC366647  22.245  30.980   4.998
 5144POPC   PO466648  22.266  30.547   5.468
 5144POPC   GL166649  22.298  30.686   5.852
 5144POPC   GL266650  22.071  30.938   5.808
 5144POPC   C1A66651  22.200  30.728   6.258
 5144POPC   D2A66652  22.435  30.834   6.572
 5144POPC   C3A66653  22.255  30.745   6.955
 5144POPC   C4A66654  22.418  30.627   7.311
 5144POPC   C1B66655  21.864  31.128   6.192
 5144POPC   C2B66656  21.958  31.027   6.630
 5144POPC   C3B66657  21.927  31.192   7.045
 5144POPC   C4B66658  21.959  31.190   7.538
 5145POPC   NC366659  36.281  29.784   5.239
 5145POPC   PO466660  36.971  29.828   5.412
 5145POPC   GL166661  36.806  29.928   5.796
 5145POPC   GL266662  36.726  29.653   6.025
 5145POPC   C1A66663  36.959  30.146   6.160
 5145POPC   D2A66664  36.848  30.328   6.533
 5145POPC   C3A66665  37.055  30.144   6.908
 5145POPC   C4A66666  36.990  29.969   7.275
 5145POPC   C1B66667  36.659  29.791   6.458
 5145POPC   C2B66668  36.689  29.750   6.910
 5145POPC   C3B66669  36.602  29.549   7.315
 5145POPC   C4B66670  36.395  29.556   7.755
 5146POPC   NC366671  29.380  39.465   5.395
 5146POPC   PO466672  28.845  39.076   5.206
 5146POPC   GL166673  29.018  39.320   5.706
 5146POPC   GL266674  29.307  39.458   5.913
 5146POPC   C1A66675  28.852  39.356   6.171
 5146POPC   D2A66676  28.858  39.034   6.511
 5146POPC   C3A66677  28.895  39.277   6.877
 5146POPC   C4A66678  29.182  39.425   7.194
 5146POPC   C1B66679  29.324  39.134   6.246
 5146POPC   C2B66680  29.368  39.099   6.705
 5146POPC   C3B66681  29.632  39.404   6.922
 5146POPC   C4B66682  29.639  39.709   7.242
 5147POPC   NC366683  11.387   6.244   5.310
 5147POPC   PO466684  11.019   6.853   5.382
 5147POPC   GL166685  11.161   6.538   5.702
 5147POPC   GL266686  11.445   6.688   5.775
 5147POPC   C1A66687  11.089   6.614   6.180
 5147POPC   D2A66688  11.240   6.841   6.567
 5147POPC   C3A66689  11.154   6.613   6.932
 5147POPC   C4A66690  11.237   6.687   7.363
 5147POPC   C1B66691  11.535   6.892   6.161
 5147POPC   C2B66692  11.755   6.722   6.503
 5147POPC   C3B66693  11.685   6.636   6.921
 5147POPC   C4B66694  11.716   6.406   7.277
 5148POPC   NC366695   6.140  39.411   5.322
 5148POPC   PO466696   5.794  38.820   5.346
 5148POPC   GL166697   5.824  39.192   5.688
 5148POPC   GL266698   6.157  39.086   5.728
 5148POPC   C1A66699   5.718  39.452   6.116
 5148POPC   D2A66700   5.668  39.699   6.531
 5148POPC   C3A66701   5.758  39.540   6.956
 5148POPC   C4A66702   5.669  39.641   7.377
 5148POPC   C1B66703   6.046  39.064   6.157
 5148POPC   C2B66704   5.965  39.270   6.547
 5148POPC   C3B66705   5.838  39.051   6.908
 5148POPC   C4B66706   6.098  38.969   7.217
 5149POPC   NC366707  43.561  35.902   5.521
 5149POPC   PO466708  43.886  36.441   5.431
 5149POPC   GL166709  43.793  36.253   5.834
 5149POPC   GL266710  44.096  36.139   6.002
 5149POPC   C1A66711  43.619  36.135   6.236
 5149POPC   D2A66712  43.818  36.123   6.664
 5149POPC   C3A66713  43.567  36.060   7.025
 5149POPC   C4A66714  43.782  36.186   7.390
 5149POPC   C1B66715  43.983  35.795   6.306
 5149POPC   C2B66716  44.044  35.678   6.761
 5149POPC   C3B66717  43.985  35.749   7.243
 5149POPC   C4B66718  43.872  35.812   7.719
 5150POPC   NC366719  44.480  26.775   5.221
 5150POPC   PO466720  44.974  26.353   5.242
 5150POPC   GL166721  44.779  26.474   5.658
 5150POPC   GL266722  44.484  26.711   5.723
 5150POPC   C1A66723  44.758  26.553   6.136
 5150POPC   D2A66724  44.452  26.824   6.417
 5150POPC   C3A66725  44.560  26.972   6.840
 5150POPC   C4A66726  44.733  26.732   7.178
 5150POPC   C1B66727  44.248  26.495   6.052
 5150POPC   C2B66728  44.170  26.395   6.502
 5150POPC   C3B66729  44.379  26.471   6.906
 5150POPC   C4B66730  44.341  26.529   7.395
 5151POPC   NC366731   4.777  38.252   5.584
 5151POPC   PO466732   5.160  38.742   5.460
 5151POPC   GL166733   5.058  38.590   5.865
 5151POPC   GL266734   5.256  38.321   5.832
 5151POPC   C1A66735   4.783  38.404   6.211
 5151POPC   D2A66736   4.576  38.347   6.619
 5151POPC   C3A66737   4.927  38.349   6.901
 5151POPC   C4A66738   4.922  38.340   7.333
 5151POPC   C1B66739   5.351  38.395   6.257
 5151POPC   C2B66740   5.326  38.080   6.579
 5151POPC   C3B66741   5.315  37.890   6.948
 5151POPC   C4B66742   5.414  38.172   7.282
 5152POPC   NC366743  34.101  27.151   5.239
 5152POPC   PO466744  33.910  27.790   5.394
 5152POPC   GL166745  33.909  27.518   5.735
 5152POPC   GL266746  33.549  27.565   5.841
 5152POPC   C1A66747  33.970  27.585   6.154
 5152POPC   D2A66748  33.967  27.882   6.477
 5152POPC   C3A66749  34.193  27.719   6.833
 5152POPC   C4A66750  34.056  27.610   7.242
 5152POPC   C1B66751  33.480  27.575   6.304
 5152POPC   C2B66752  33.577  27.505   6.752
 5152POPC   C3B66753  33.369  27.553   7.162
 5152POPC   C4B66754  33.415  27.383   7.596
 5153POPC   NC366755  22.781   3.868   5.217
 5153POPC   PO466756  22.887   3.191   5.280
 5153POPC   GL166757  22.918   3.359   5.712
 5153POPC   GL266758  23.007   3.716   5.753
 5153POPC   C1A66759  23.009   3.400   6.168
 5153POPC   D2A66760  22.903   3.515   6.582
 5153POPC   C3A66761  23.171   3.402   6.924
 5153POPC   C4A66762  22.933   3.410   7.293
 5153POPC   C1B66763  22.885   3.888   6.191
 5153POPC   C2B66764  23.040   4.026   6.573
 5153POPC   C3B66765  22.988   3.885   6.967
 5153POPC   C4B66766  23.158   3.864   7.358
 5154POPC   NC366767  14.544  32.935   5.049
 5154POPC   PO466768  14.837  33.351   5.446
 5154POPC   GL166769  14.528  33.101   5.651
 5154POPC   GL266770  14.686  32.818   5.818
 5154POPC   C1A66771  14.425  33.145   6.109
 5154POPC   D2A66772  14.721  33.045   6.473
 5154POPC   C3A66773  14.565  32.973   6.925
 5154POPC   C4A66774  14.555  32.962   7.382
 5154POPC   C1B66775  14.459  32.657   6.196
 5154POPC   C2B66776  14.267  32.834   6.543
 5154POPC   C3B66777  14.084  32.739   6.945
 5154POPC   C4B66778  14.050  32.665   7.395
 5155POPC   NC366779  15.875  15.815   5.440
 5155POPC   PO466780  16.209  16.382   5.278
 5155POPC   GL166781  16.235  16.133   5.632
 5155POPC   GL266782  15.892  16.176   5.791
 5155POPC   C1A66783  16.271  16.016   6.070
 5155POPC   D2A66784  16.031  16.004   6.455
 5155POPC   C3A66785  16.134  15.974   6.854
 5155POPC   C4A66786  15.785  15.958   7.098
 5155POPC   C1B66787  15.737  15.831   6.086
 5155POPC   C2B66788  15.679  15.623   6.500
 5155POPC   C3B66789  15.506  15.548   6.925
 5155POPC   C4B66790  15.813  15.485   7.276
 5156POPC   NC366791   7.238   6.398   5.443
 5156POPC   PO466792   6.664   6.776   5.514
 5156POPC   GL166793   6.836   6.614   5.860
 5156POPC   GL266794   7.151   6.792   5.759
 5156POPC   C1A66795   6.570   6.604   6.246
 5156POPC   D2A66796   6.365   6.310   6.545
 5156POPC   C3A66797   6.472   6.466   6.930
 5156POPC   C4A66798   6.710   6.329   7.252
 5156POPC   C1B66799   7.218   6.725   6.177
 5156POPC   C2B66800   7.277   6.643   6.597
 5156POPC   C3B66801   7.159   6.866   6.930
 5156POPC   C4B66802   6.793   6.818   7.148
 5157POPC   NC366803  11.561  35.323   5.570
 5157POPC   PO466804  11.067  35.610   5.381
 5157POPC   GL166805  11.206  35.640   5.823
 5157POPC   GL266806  11.545  35.664   5.955
 5157POPC   C1A66807  11.146  35.421   6.225
 5157POPC   D2A66808  11.278  35.169   6.589
 5157POPC   C3A66809  11.176  35.312   7.016
 5157POPC   C4A66810  11.312  35.179   7.432
 5157POPC   C1B66811  11.695  35.795   6.387
 5157POPC   C2B66812  11.700  35.792   6.853
 5157POPC   C3B66813  11.615  35.531   7.197
 5157POPC   C4B66814  11.825  35.290   7.517
 5158POPC   NC366815  24.301  10.714   5.549
 5158POPC   PO466816  24.583  10.138   5.749
 5158POPC   GL166817  24.343  10.447   6.014
 5158POPC   GL266818  24.484  10.784   6.041
 5158POPC   C1A66819  24.408  10.513   6.485
 5158POPC   D2A66820  24.443  10.788   6.860
 5158POPC   C3A66821  24.572  10.531   7.198
 5158POPC   C4A66822  24.406  10.195   7.465
 5158POPC   C1B66823  24.263  10.987   6.387
 5158POPC   C2B66824  24.071  11.152   6.769
 5158POPC   C3B66825  24.068  10.954   7.187
 5158POPC   C4B66826  24.211  10.682   7.526
 5159POPC   NC366827  21.225   6.014   5.390
 5159POPC   PO466828  21.864   6.133   5.429
 5159POPC   GL166829  21.546   6.041   5.838
 5159POPC   GL266830  21.189   6.146   5.889
 5159POPC   C1A66831  21.483   5.803   6.286
 5159POPC   D2A66832  21.500   5.547   6.701
 5159POPC   C3A66833  21.241   5.657   7.056
 5159POPC   C4A66834  21.230   5.819   7.505
 5159POPC   C1B66835  21.267   6.264   6.326
 5159POPC   C2B66836  21.241   6.065   6.726
 5159POPC   C3B66837  21.150   6.165   7.158
 5159POPC   C4B66838  20.864   6.174   7.579
 5160POPC   NC366839  17.415  27.196   5.196
 5160POPC   PO466840  17.542  27.773   5.526
 5160POPC   GL166841  17.253  27.575   5.803
 5160POPC   GL266842  17.349  27.212   5.822
 5160POPC   C1A66843  17.263  27.755   6.193
 5160POPC   D2A66844  17.548  27.769   6.538
 5160POPC   C3A66845  17.368  27.803   6.951
 5160POPC   C4A66846  17.649  27.845   7.298
 5160POPC   C1B66847  17.509  27.331   6.248
 5160POPC   C2B66848  17.312  27.337   6.674
 5160POPC   C3B66849  17.416  27.294   7.129
 5160POPC   C4B66850  17.349  27.498   7.541
 5161POPC   NC366851  25.436  12.066   5.476
 5161POPC   PO466852  24.738  12.045   5.510
 5161POPC   GL166853  25.035  12.127   5.818
 5161POPC   GL266854  25.212  11.836   5.896
 5161POPC   C1A66855  25.008  12.136   6.256
 5161POPC   D2A66856  25.049  12.377   6.594
 5161POPC   C3A66857  24.941  12.207   6.960
 5161POPC   C4A66858  25.113  12.322   7.334
 5161POPC   C1B66859  25.262  11.705   6.346
 5161POPC   C2B66860  25.332  11.975   6.719
 5161POPC   C3B66861  25.363  11.922   7.159
 5161POPC   C4B66862  25.586  11.695   7.508
 5162POPC   NC366863  38.144  25.110   5.613
 5162POPC   PO466864  38.698  25.216   5.312
 5162POPC   GL166865  38.617  25.292   5.754
 5162POPC   GL266866  38.342  25.559   5.782
 5162POPC   C1A66867  38.533  25.185   6.202
 5162POPC   D2A66868  38.608  25.373   6.608
 5162POPC   C3A66869  38.494  25.124   6.947
 5162POPC   C4A66870  38.510  24.962   7.344
 5162POPC   C1B66871  38.117  25.485   6.182
 5162POPC   C2B66872  38.091  25.254   6.578
 5162POPC   C3B66873  38.094  25.427   6.995
 5162POPC   C4B66874  37.902  25.327   7.359
 5163POPC   NC366875  41.863  38.500   5.258
 5163POPC   PO466876  42.602  38.618   5.441
 5163POPC   GL166877  42.353  38.376   5.772
 5163POPC   GL266878  42.050  38.204   5.673
 5163POPC   C1A66879  42.331  38.374   6.194
 5163POPC   D2A66880  42.293  38.563   6.587
 5163POPC   C3A66881  42.454  38.418   6.964
 5163POPC   C4A66882  42.283  38.585   7.345
 5163POPC   C1B66883  41.969  38.035   6.100
 5163POPC   C2B66884  42.119  38.075   6.537
 5163POPC   C3B66885  41.971  38.230   6.928
 5163POPC   C4B66886  42.140  38.071   7.296
 5164POPC   NC366887  15.680  34.103   5.460
 5164POPC   PO466888  15.123  33.834   5.288
 5164POPC   GL166889  15.172  33.725   5.732
 5164POPC   GL266890  15.403  33.985   5.883
 5164POPC   C1A66891  15.351  33.543   6.115
 5164POPC   D2A66892  15.210  33.784   6.488
 5164POPC   C3A66893  15.237  33.755   6.940
 5164POPC   C4A66894  15.488  33.424   7.040
 5164POPC   C1B66895  15.385  34.231   6.300
 5164POPC   C2B66896  15.223  34.248   6.748
 5164POPC   C3B66897  15.183  34.312   7.204
 5164POPC   C4B66898  15.022  34.297   7.646
 5165POPC   NC366899   0.519  20.056   5.081
 5165POPC   PO466900   0.363  19.793   5.677
 5165POPC   GL166901   0.312  19.637   6.017
 5165POPC   GL266902  44.975  19.554   6.010
 5165POPC   C1A66903   0.582  19.831   6.305
 5165POPC   D2A66904   0.668  19.719   6.669
 5165POPC   C3A66905   0.766  19.960   6.932
 5165POPC   C4A66906   0.566  19.758   7.227
 5165POPC   C1B66907   0.034  20.012   6.171
 5165POPC   C2B66908   0.209  20.128   6.525
 5165POPC   C3B66909   0.221  19.881   6.874
 5165POPC   C4B66910   0.085  19.905   7.280
 5166POPC   NC366911  25.232  17.330   5.416
 5166POPC   PO466912  25.686  17.786   5.452
 5166POPC   GL166913  25.341  17.690   5.793
 5166POPC   GL266914  25.063  17.400   5.877
 5166POPC   C1A66915  25.442  17.494   6.201
 5166POPC   D2A66916  25.652  17.298   6.541
 5166POPC   C3A66917  25.530  17.443   6.945
 5166POPC   C4A66918  25.609  17.198   7.269
 5166POPC   C1B66919  24.948  17.601   6.236
 5166POPC   C2B66920  25.148  17.561   6.618
 5166POPC   C3B66921  24.994  17.488   7.001
 5166POPC   C4B66922  25.191  17.596   7.364
 5167POPC   NC366923  36.794  38.923   5.558
 5167POPC   PO466924  37.125  39.426   5.321
 5167POPC   GL166925  37.120  39.302   5.748
 5167POPC   GL266926  37.269  38.973   5.782
 5167POPC   C1A66927  36.878  39.369   6.139
 5167POPC   D2A66928  36.567  39.339   6.483
 5167POPC   C3A66929  36.784  39.400   6.863
 5167POPC   C4A66930  36.663  39.390   7.278
 5167POPC   C1B66931  37.080  38.890   6.164
 5167POPC   C2B66932  36.928  38.993   6.551
 5167POPC   C3B66933  36.978  38.878   6.956
 5167POPC   C4B66934  37.070  39.060   7.323
 5168POPC   NC366935  34.910  40.322   5.527
 5168POPC   PO466936  34.743  40.977   5.352
 5168POPC   GL166937  34.450  40.904   5.718
 5168POPC   GL266938  34.536  40.588   5.822
 5168POPC   C1A66939  34.386  40.910   6.191
 5168POPC   D2A66940  34.409  40.736   6.627
 5168POPC   C3A66941  34.757  40.710   6.937
 5168POPC   C4A66942  34.653  40.966   7.275
 5168POPC   C1B66943  34.407  40.387   6.241
 5168POPC   C2B66944  34.597  40.253   6.650
 5168POPC   C3B66945  34.520  40.253   7.071
 5168POPC   C4B66946  34.312  40.613   7.129
 5169POPC   NC366947  30.596  36.686   5.349
 5169POPC   PO466948  30.911  37.202   5.552
 5169POPC   GL166949  30.711  36.916   5.821
 5169POPC   GL266950  30.357  36.866   5.767
 5169POPC   C1A66951  30.816  36.766   6.226
 5169POPC   D2A66952  30.717  36.922   6.588
 5169POPC   C3A66953  30.939  36.764   6.878
 5169POPC   C4A66954  31.018  36.908   7.253
 5169POPC   C1B66955  30.366  37.034   6.191
 5169POPC   C2B66956  30.222  37.023   6.602
 5169POPC   C3B66957  30.418  36.981   7.017
 5169POPC   C4B66958  30.620  37.216   7.314
 5170POPC   NC366959  10.556  13.064   5.629
 5170POPC   PO466960  10.498  13.617   5.175
 5170POPC   GL166961  10.494  13.776   5.654
 5170POPC   GL266962  10.458  13.486   5.913
 5170POPC   C1A66963  10.637  13.882   6.135
 5170POPC   D2A66964  10.505  13.646   6.535
 5170POPC   C3A66965  10.706  13.759   6.965
 5170POPC   C4A66966  10.854  13.825   7.420
 5170POPC   C1B66967  10.174  13.323   6.245
 5170POPC   C2B66968  10.281  13.110   6.633
 5170POPC   C3B66969  10.280  13.405   6.933
 5170POPC   C4B66970  10.391  13.558   7.296
 5171POPC   NC366971   9.200  40.135   5.106
 5171POPC   PO466972   9.862  40.067   5.322
 5171POPC   GL166973   9.562  40.048   5.703
 5171POPC   GL266974   9.572  39.743   5.924
 5171POPC   C1A66975   9.501  40.206   6.147
 5171POPC   D2A66976   9.681  40.217   6.583
 5171POPC   C3A66977   9.881  40.016   6.907
 5171POPC   C4A66978   9.653  40.003   7.247
 5171POPC   C1B66979   9.916  39.893   6.229
 5171POPC   C2B66980  10.191  39.662   6.533
 5171POPC   C3B66981  10.127  39.508   6.935
 5171POPC   C4B66982  10.003  39.647   7.300
 5172POPC   NC366983  38.368  12.022   5.249
 5172POPC   PO466984  38.879  12.365   5.366
 5172POPC   GL166985  38.505  12.259   5.684
 5172POPC   GL266986  38.422  11.942   5.819
 5172POPC   C1A66987  38.368  12.290   6.173
 5172POPC   D2A66988  38.442  12.387   6.638
 5172POPC   C3A66989  38.229  12.176   6.982
 5172POPC   C4A66990  38.279  11.920   7.377
 5172POPC   C1B66991  38.649  11.806   6.225
 5172POPC   C2B66992  38.744  11.858   6.673
 5172POPC   C3B66993  38.729  12.044   7.103
 5172POPC   C4B66994  38.757  12.115   7.562
 5173POPC   NC366995   3.887  19.405   5.466
 5173POPC   PO466996   4.354  19.684   5.064
 5173POPC   GL166997   4.399  19.864   5.492
 5173POPC   GL266998   4.102  20.014   5.648
 5173POPC   C1A66999   4.551  19.884   5.941
 5173POPC   D2A67000   4.533  19.955   6.407
 5173POPC   C3A67001   4.533  19.684   6.794
 5173POPC   C4A67002   4.441  19.789   7.254
 5173POPC   C1B67003   4.099  20.051   6.104
 5173POPC   C2B67004   4.038  19.872   6.515
 5173POPC   C3B67005   4.134  20.001   6.912
 5173POPC   C4B67006   3.956  19.954   7.287
 5174POPC   NC367007  17.937  17.260   5.309
 5174POPC   PO467008  17.453  17.705   5.350
 5174POPC   GL167009  17.610  17.677   5.744
 5174POPC   GL267010  17.347  17.798   5.919
 5174POPC   C1A67011  17.549  17.395   6.132
 5174POPC   D2A67012  17.340  17.314   6.523
 5174POPC   C3A67013  17.567  17.272   6.917
 5174POPC   C4A67014  17.284  17.111   7.225
 5174POPC   C1B67015  17.673  17.896   6.191
 5174POPC   C2B67016  17.670  17.715   6.572
 5174POPC   C3B67017  17.559  17.904   6.959
 5174POPC   C4B67018  17.508  17.622   7.305
 5175POPC   NC367019  32.870  41.914   5.338
 5175POPC   PO467020  33.095  41.300   5.580
 5175POPC   GL167021  32.937  41.633   5.834
 5175POPC   GL267022  33.253  41.788   5.894
 5175POPC   C1A67023  32.681  41.651   6.228
 5175POPC   D2A67024  32.540  41.646   6.665
 5175POPC   C3A67025  32.824  41.469   6.958
 5175POPC   C4A67026  33.074  41.626   7.277
 5175POPC   C1B67027  33.197  41.686   6.335
 5175POPC   C2B67028  33.092  41.841   6.742
 5175POPC   C3B67029  33.217  42.105   7.102
 5175POPC   C4B67030  33.159  42.153   7.558
 5176POPC   NC367031  22.408  37.285   5.375
 5176POPC   PO467032  21.923  36.785   5.529
 5176POPC   GL167033  22.066  37.151   5.828
 5176POPC   GL267034  22.415  37.145   5.874
 5176POPC   C1A67035  22.059  37.207   6.284
 5176POPC   D2A67036  21.936  36.852   6.552
 5176POPC   C3A67037  21.893  36.866   7.013
 5176POPC   C4A67038  22.051  37.171   7.354
 5176POPC   C1B67039  22.329  36.780   6.128
 5176POPC   C2B67040  22.451  36.711   6.553
 5176POPC   C3B67041  22.406  36.935   6.963
 5176POPC   C4B67042  22.339  36.675   7.304
 5177POPC   NC367043   1.295  23.401   5.524
 5177POPC   PO467044   1.151  22.760   5.481
 5177POPC   GL167045   1.112  23.012   5.831
 5177POPC   GL267046   0.814  22.866   5.942
 5177POPC   C1A67047   1.345  23.127   6.201
 5177POPC   D2A67048   1.194  23.200   6.609
 5177POPC   C3A67049   1.474  23.111   6.963
 5177POPC   C4A67050   1.517  23.299   7.349
 5177POPC   C1B67051   1.024  22.726   6.331
 5177POPC   C2B67052   1.275  22.684   6.725
 5177POPC   C3B67053   1.254  22.688   7.190
 5177POPC   C4B67054   1.170  22.772   7.634
 5178POPC   NC367055  35.227  19.776   5.276
 5178POPC   PO467056  35.821  19.556   5.413
 5178POPC   GL167057  35.468  19.717   5.749
 5178POPC   GL267058  35.108  19.871   5.759
 5178POPC   C1A67059  35.355  19.713   6.205
 5178POPC   D2A67060  35.532  19.836   6.609
 5178POPC   C3A67061  35.392  19.630   6.991
 5178POPC   C4A67062  35.511  19.667   7.436
 5178POPC   C1B67063  34.860  19.798   6.147
 5178POPC   C2B67064  34.995  19.911   6.566
 5178POPC   C3B67065  35.034  20.002   7.019
 5178POPC   C4B67066  35.130  19.993   7.474
 5179POPC   NC367067   0.047  13.801   5.461
 5179POPC   PO467068  44.467  13.437   5.386
 5179POPC   GL167069  44.619  13.641   5.746
 5179POPC   GL267070  44.600  13.981   5.711
 5179POPC   C1A67071  44.849  13.588   6.148
 5179POPC   D2A67072  44.678  13.713   6.535
 5179POPC   C3A67073  44.874  13.786   6.909
 5179POPC   C4A67074  44.780  13.482   7.200
 5179POPC   C1B67075  44.732  14.093   6.166
 5179POPC   C2B67076  44.616  14.209   6.618
 5179POPC   C3B67077  44.485  14.166   7.057
 5179POPC   C4B67078  44.680  13.929   7.383
 5180POPC   NC367079  43.626  29.016   5.428
 5180POPC   PO467080  43.663  29.618   5.645
 5180POPC   GL167081  43.961  29.299   5.812
 5180POPC   GL267082  43.848  28.980   5.896
 5180POPC   C1A67083  44.116  29.309   6.252
 5180POPC   D2A67084  44.202  29.558   6.655
 5180POPC   C3A67085  43.980  29.397   7.031
 5180POPC   C4A67086  43.900  29.020   7.236
 5180POPC   C1B67087  43.712  28.947   6.315
 5180POPC   C2B67088  43.686  29.001   6.766
 5180POPC   C3B67089  43.492  28.745   7.091
 5180POPC   C4B67090  43.546  28.811   7.563
 5181POPC   NC367091  18.102  16.366   5.496
 5181POPC   PO467092  18.639  16.751   5.308
 5181POPC   GL167093  18.577  16.594   5.781
 5181POPC   GL267094  18.340  16.358   5.945
 5181POPC   C1A67095  18.582  16.727   6.234
 5181POPC   D2A67096  18.578  16.543   6.667
 5181POPC   C3A67097  18.438  16.799   7.011
 5181POPC   C4A67098  18.025  16.959   7.019
 5181POPC   C1B67099  17.978  16.576   6.160
 5181POPC   C2B67100  17.825  16.588   6.603
 5181POPC   C3B67101  18.024  16.442   6.994
 5181POPC   C4B67102  18.457  16.283   7.126
 5182POPC   NC367103  40.812  43.400   5.402
 5182POPC   PO467104  40.634  42.708   5.341
 5182POPC   GL167105  40.730  42.999   5.737
 5182POPC   GL267106  41.069  43.211   5.789
 5182POPC   C1A67107  40.812  43.056   6.199
 5182POPC   D2A67108  40.742  43.362   6.528
 5182POPC   C3A67109  40.621  43.168   6.900
 5182POPC   C4A67110  40.519  42.863   7.168
 5182POPC   C1B67111  41.126  43.468   6.187
 5182POPC   C2B67112  41.214  43.563   6.630
 5182POPC   C3B67113  40.953  43.527   7.007
 5182POPC   C4B67114  41.050  43.144   7.221
 5183POPC   NC367115  43.876  38.323   5.289
 5183POPC   PO467116  43.974  38.981   5.281
 5183POPC   GL167117  44.107  38.682   5.655
 5183POPC   GL267118  43.901  38.394   5.794
 5183POPC   C1A67119  44.220  38.612   6.128
 5183POPC   D2A67120  43.970  38.496   6.483
 5183POPC   C3A67121  43.875  38.781   6.818
 5183POPC   C4A67122  43.870  38.703   7.243
 5183POPC   C1B67123  44.078  38.106   6.099
 5183POPC   C2B67124  44.242  38.060   6.531
 5183POPC   C3B67125  44.223  38.304   6.926
 5183POPC   C4B67126  44.126  38.276   7.365
 5184POPC   NC367127  17.023   9.752   5.283
 5184POPC   PO467128  17.687   9.987   5.171
 5184POPC   GL167129  17.629   9.784   5.594
 5184POPC   GL267130  17.292   9.688   5.700
 5184POPC   C1A67131  17.692   9.601   6.033
 5184POPC   D2A67132  17.943   9.637   6.433
 5184POPC   C3A67133  17.793   9.363   6.749
 5184POPC   C4A67134  17.636   9.231   7.154
 5184POPC   C1B67135  17.163   9.610   6.113
 5184POPC   C2B67136  17.381   9.611   6.493
 5184POPC   C3B67137  17.243   9.665   6.915
 5184POPC   C4B67138  17.433   9.688   7.302
 5185POPC   NC367139  27.647  39.399   5.103
 5185POPC   PO467140  27.256  38.800   5.316
 5185POPC   GL167141  27.344  38.985   5.724
 5185POPC   GL267142  27.699  38.911   5.738
 5185POPC   C1A67143  27.506  39.191   6.127
 5185POPC   D2A67144  27.374  39.446   6.477
 5185POPC   C3A67145  27.525  39.296   6.860
 5185POPC   C4A67146  27.573  39.230   7.284
 5185POPC   C1B67147  27.871  38.823   6.138
 5185POPC   C2B67148  27.810  39.021   6.538
 5185POPC   C3B67149  27.884  38.922   6.979
 5185POPC   C4B67150  28.022  39.020   7.410
 5186POPC   NC367151  35.274  44.188   5.532
 5186POPC   PO467152  35.218  44.814   5.368
 5186POPC   GL167153  35.281  44.642   5.761
 5186POPC   GL267154  35.634  44.586   5.734
 5186POPC   C1A67155  35.147  44.452   6.162
 5186POPC   D2A67156  34.882  44.496   6.523
 5186POPC   C3A67157  35.118  44.597   6.888
 5186POPC   C4A67158  35.159  44.246   7.133
 5186POPC   C1B67159  35.673  44.511   6.189
 5186POPC   C2B67160  35.503  44.422   6.606
 5186POPC   C3B67161  35.609  44.508   7.061
 5186POPC   C4B67162  35.506  44.898   7.250
 5187POPC   NC367163  33.821  12.589   5.427
 5187POPC   PO467164  33.411  13.073   5.376
 5187POPC   GL167165  33.663  12.991   5.717
 5187POPC   GL267166  34.034  12.982   5.747
 5187POPC   C1A67167  33.636  12.826   6.115
 5187POPC   D2A67168  33.653  13.033   6.514
 5187POPC   C3A67169  33.532  12.770   6.835
 5187POPC   C4A67170  33.566  12.851   7.255
 5187POPC   C1B67171  34.113  13.016   6.212
 5187POPC   C2B67172  34.139  13.138   6.660
 5187POPC   C3B67173  34.018  12.953   7.066
 5187POPC   C4B67174  33.995  12.754   7.512
 5188POPC   NC367175  19.363   1.829   5.406
 5188POPC   PO467176  18.888   2.323   5.440
 5188POPC   GL167177  19.148   2.176   5.714
 5188POPC   GL267178  18.993   1.872   5.800
 5188POPC   C1A67179  19.173   2.210   6.141
 5188POPC   D2A67180  19.226   2.001   6.538
 5188POPC   C3A67181  19.121   2.206   6.919
 5188POPC   C4A67182  19.016   2.034   7.309
 5188POPC   C1B67183  18.849   1.792   6.221
 5188POPC   C2B67184  18.719   1.920   6.638
 5188POPC   C3B67185  18.676   1.770   7.034
 5188POPC   C4B67186  18.643   1.745   7.506
 5189POPC   NC367187  26.432   0.116   5.346
 5189POPC   PO467188  25.955  44.583   5.389
 5189POPC   GL167189  26.150  44.859   5.696
 5189POPC   GL267190  26.486  44.715   5.725
 5189POPC   C1A67191  26.252  44.938   6.160
 5189POPC   D2A67192  26.326  44.758   6.622
 5189POPC   C3A67193  26.045  44.856   6.995
 5189POPC   C4A67194  25.764  44.541   7.217
 5189POPC   C1B67195  26.369  44.421   6.079
 5189POPC   C2B67196  26.246  44.252   6.499
 5189POPC   C3B67197  26.433  44.218   6.879
 5189POPC   C4B67198  26.293  44.463   7.201
 5190POPC   NC367199  15.225  15.737   5.394
 5190POPC   PO467200  15.023  15.021   5.333
 5190POPC   GL167201  15.013  15.086   5.802
 5190POPC   GL267202  15.143  15.433   5.830
 5190POPC   C1A67203  15.077  15.033   6.281
 5190POPC   D2A67204  15.376  14.861   6.610
 5190POPC   C3A67205  15.249  14.847   7.032
 5190POPC   C4A67206  15.397  15.173   7.311
 5190POPC   C1B67207  14.761  15.514   6.096
 5190POPC   C2B67208  14.665  15.358   6.531
 5190POPC   C3B67209  14.999  15.246   6.832
 5190POPC   C4B67210  14.984  15.468   7.221
 5191POPC   NC367211  39.918  21.803   5.431
 5191POPC   PO467212  39.762  22.426   5.392
 5191POPC   GL167213  39.914  22.239   5.804
 5191POPC   GL267214  40.229  22.319   5.940
 5191POPC   C1A67215  40.012  22.092   6.313
 5191POPC   D2A67216  40.299  22.231   6.643
 5191POPC   C3A67217  40.232  22.091   7.056
 5191POPC   C4A67218  39.877  21.825   7.185
 5191POPC   C1B67219  39.990  22.589   6.208
 5191POPC   C2B67220  39.883  22.667   6.611
 5191POPC   C3B67221  39.803  22.394   6.964
 5191POPC   C4B67222  39.896  22.287   7.391
 5192POPC   NC367223   9.641   8.586   5.370
 5192POPC   PO467224   9.370   8.124   5.798
 5192POPC   GL167225   9.518   8.513   5.856
 5192POPC   GL267226   9.886   8.477   5.817
 5192POPC   C1A67227   9.393   8.601   6.260
 5192POPC   D2A67228   9.470   8.308   6.596
 5192POPC   C3A67229   9.562   8.423   7.026
 5192POPC   C4A67230   9.520   8.094   7.329
 5192POPC   C1B67231   9.838   8.297   6.214
 5192POPC   C2B67232   9.971   8.291   6.641
 5192POPC   C3B67233   9.931   8.069   7.013
 5192POPC   C4B67234  10.217   7.944   7.317
 5193POPC   NC367235  20.416  23.916   5.540
 5193POPC   PO467236  20.974  23.582   5.500
 5193POPC   GL167237  20.755  23.726   5.901
 5193POPC   GL267238  20.737  24.117   5.930
 5193POPC   C1A67239  20.560  23.632   6.328
 5193POPC   D2A67240  20.432  23.560   6.776
 5193POPC   C3A67241  20.752  23.629   7.109
 5193POPC   C4A67242  20.923  23.422   7.510
 5193POPC   C1B67243  20.477  24.185   6.306
 5193POPC   C2B67244  20.389  24.133   6.756
 5193POPC   C3B67245  20.315  23.910   7.144
 5193POPC   C4B67246  20.517  23.742   7.547
 5194POPC   NC367247  12.771  30.569   5.212
 5194POPC   PO467248  12.746  31.135   5.579
 5194POPC   GL167249  12.954  30.817   5.779
 5194POPC   GL267250  13.011  30.457   5.658
 5194POPC   C1A67251  13.053  30.886   6.197
 5194POPC   D2A67252  12.950  31.021   6.607
 5194POPC   C3A67253  13.093  30.933   7.019
 5194POPC   C4A67254  12.772  30.816   7.350
 5194POPC   C1B67255  12.997  30.376   6.111
 5194POPC   C2B67256  13.115  30.518   6.555
 5194POPC   C3B67257  12.900  30.467   6.975
 5194POPC   C4B67258  12.795  30.314   7.411
 5195POPC   NC367259  21.572  17.576   5.442
 5195POPC   PO467260  21.450  17.100   5.838
 5195POPC   GL167261  21.298  17.542   5.889
 5195POPC   GL267262  21.553  17.781   5.918
 5195POPC   C1A67263  21.106  17.789   6.223
 5195POPC   D2A67264  21.083  17.721   6.682
 5195POPC   C3A67265  21.278  17.347   6.880
 5195POPC   C4A67266  21.384  17.304   7.303
 5195POPC   C1B67267  21.773  17.726   6.317
 5195POPC   C2B67268  21.759  17.565   6.760
 5195POPC   C3B67269  21.576  17.755   7.141
 5195POPC   C4B67270  21.560  17.670   7.611
 5196POPC   NC367271   1.783  43.297   5.407
 5196POPC   PO467272   1.102  43.163   5.461
 5196POPC   GL167273   1.226  43.101   5.853
 5196POPC   GL267274   1.577  43.067   5.829
 5196POPC   C1A67275   1.031  43.176   6.238
 5196POPC   D2A67276   0.749  43.340   6.537
 5196POPC   C3A67277   0.938  43.354   6.934
 5196POPC   C4A67278   1.147  43.164   7.281
 5196POPC   C1B67279   1.473  42.915   6.265
 5196POPC   C2B67280   1.303  43.010   6.672
 5196POPC   C3B67281   1.555  43.008   7.044
 5196POPC   C4B67282   1.629  42.959   7.487
 5197POPC   NC367283  43.754  17.895   5.551
 5197POPC   PO467284  44.200  18.424   5.462
 5197POPC   GL167285  43.868  18.320   5.788
 5197POPC   GL267286  43.660  18.561   5.957
 5197POPC   C1A67287  43.759  18.088   6.196
 5197POPC   D2A67288  43.924  18.055   6.658
 5197POPC   C3A67289  43.667  18.020   7.086
 5197POPC   C4A67290  43.665  18.055   7.564
 5197POPC   C1B67291  44.051  18.488   6.221
 5197POPC   C2B67292  44.035  18.607   6.601
 5197POPC   C3B67293  43.773  18.499   6.902
 5197POPC   C4B67294  43.915  18.462   7.301
 5198POPC   NC367295  30.937  40.294   5.336
 5198POPC   PO467296  30.453  40.791   5.401
 5198POPC   GL167297  30.659  40.786   5.781
 5198POPC   GL267298  30.993  40.668   5.745
 5198POPC   C1A67299  30.799  40.859   6.212
 5198POPC   D2A67300  30.599  41.003   6.577
 5198POPC   C3A67301  30.784  40.889   6.973
 5198POPC   C4A67302  30.923  41.086   7.351
 5198POPC   C1B67303  31.046  40.420   6.151
 5198POPC   C2B67304  31.049  40.493   6.634
 5198POPC   C3B67305  31.021  40.323   7.089
 5198POPC   C4B67306  30.794  40.580   7.395
 5199POPC   NC367307  34.707  19.050   5.399
 5199POPC   PO467308  34.144  18.836   5.625
 5199POPC   GL167309  34.532  18.839   5.867
 5199POPC   GL267310  34.722  19.187   5.903
 5199POPC   C1A67311  34.556  18.888   6.306
 5199POPC   D2A67312  34.347  19.201   6.560
 5199POPC   C3A67313  34.400  19.144   6.982
 5199POPC   C4A67314  34.453  19.397   7.295
 5199POPC   C1B67315  34.835  19.317   6.351
 5199POPC   C2B67316  34.833  19.048   6.719
 5199POPC   C3B67317  34.946  19.075   7.150
 5199POPC   C4B67318  35.281  19.187   7.468
 5200POPC   NC367319  10.046  13.617   5.333
 5200POPC   PO467320   9.538  13.291   5.061
 5200POPC   GL167321   9.607  13.330   5.584
 5200POPC   GL267322   9.763  13.649   5.751
 5200POPC   C1A67323   9.620  13.319   6.116
 5200POPC   D2A67324   9.797  13.274   6.588
 5200POPC   C3A67325   9.785  13.548   6.975
 5200POPC   C4A67326   9.580  13.378   7.334
 5200POPC   C1B67327  10.030  13.827   6.102
 5200POPC   C2B67328  10.013  13.755   6.552
 5200POPC   C3B67329  10.181  13.932   6.926
 5200POPC   C4B67330  10.049  13.922   7.349
 5201POPC   NC367331  35.873   5.079   5.391
 5201POPC   PO467332  36.428   4.789   5.413
 5201POPC   GL167333  36.237   5.030   5.759
 5201POPC   GL267334  36.376   5.353   5.811
 5201POPC   C1A67335  36.053   5.208   6.168
 5201POPC   D2A67336  35.956   5.444   6.553
 5201POPC   C3A67337  36.001   5.213   6.968
 5201POPC   C4A67338  35.746   5.282   7.325
 5201POPC   C1B67339  36.525   5.032   6.184
 5201POPC   C2B67340  36.376   5.127   6.611
 5201POPC   C3B67341  36.515   5.097   7.058
 5201POPC   C4B67342  36.559   5.214   7.489
 5202POPC   NC367343  42.404  23.387   5.321
 5202POPC   PO467344  42.156  24.016   5.476
 5202POPC   GL167345  42.389  23.844   5.789
 5202POPC   GL267346  42.270  23.503   5.810
 5202POPC   C1A67347  42.488  23.746   6.223
 5202POPC   D2A67348  42.392  23.468   6.577
 5202POPC   C3A67349  42.462  23.691   6.952
 5202POPC   C4A67350  42.744  23.992   7.143
 5202POPC   C1B67351  42.041  23.476   6.200
 5202POPC   C2B67352  41.850  23.559   6.613
 5202POPC   C3B67353  41.953  23.741   7.032
 5202POPC   C4B67354  42.071  23.531   7.430
 5203POPC   NC367355   3.097   4.196   5.387
 5203POPC   PO467356   2.410   4.360   5.435
 5203POPC   GL167357   2.681   4.382   5.778
 5203POPC   GL267358   2.763   4.020   5.766
 5203POPC   C1A67359   2.732   4.573   6.206
 5203POPC   D2A67360   2.911   4.501   6.633
 5203POPC   C3A67361   2.709   4.621   7.027
 5203POPC   C4A67362   2.854   4.557   7.447
 5203POPC   C1B67363   2.873   4.038   6.204
 5203POPC   C2B67364   2.950   3.995   6.643
 5203POPC   C3B67365   2.893   4.141   7.060
 5203POPC   C4B67366   2.719   4.040   7.469
 5204POPC   NC367367   6.145  35.500   5.463
 5204POPC   PO467368   5.577  35.274   5.342
 5204POPC   GL167369   5.696  35.524   5.751
 5204POPC   GL267370   5.953  35.339   5.904
 5204POPC   C1A67371   5.908  35.806   6.108
 5204POPC   D2A67372   6.023  35.951   6.547
 5204POPC   C3A67373   5.830  35.666   6.870
 5204POPC   C4A67374   5.980  35.409   7.249
 5204POPC   C1B67375   5.677  35.283   6.233
 5204POPC   C2B67376   5.777  35.112   6.620
 5204POPC   C3B67377   5.610  35.196   6.993
 5204POPC   C4B67378   5.476  35.187   7.398
 5205POPC   NC367379  43.567  24.381   5.450
 5205POPC   PO467380  44.147  24.128   5.408
 5205POPC   GL167381  44.007  24.422   5.744
 5205POPC   GL267382  44.245  24.691   5.854
 5205POPC   C1A67383  43.765  24.664   6.085
 5205POPC   D2A67384  43.727  24.883   6.485
 5205POPC   C3A67385  43.618  24.605   6.821
 5205POPC   C4A67386  43.607  24.348   7.196
 5205POPC   C1B67387  44.211  24.408   6.202
 5205POPC   C2B67388  44.087  24.508   6.581
 5205POPC   C3B67389  44.059  24.356   6.940
 5205POPC   C4B67390  44.239  24.372   7.303
 5206POPC   NC367391  38.253  35.146   5.468
 5206POPC   PO467392  38.730  35.642   5.493
 5206POPC   GL167393  38.421  35.496   5.786
 5206POPC   GL267394  38.062  35.634   5.770
 5206POPC   C1A67395  38.479  35.187   6.134
 5206POPC   D2A67396  38.607  35.235   6.575
 5206POPC   C3A67397  38.418  35.099   6.925
 5206POPC   C4A67398  38.216  34.990   7.323
 5206POPC   C1B67399  38.133  35.535   6.210
 5206POPC   C2B67400  38.253  35.619   6.634
 5206POPC   C3B67401  38.113  35.502   7.077
 5206POPC   C4B67402  38.111  35.486   7.544
 5207POPC   NC367403  11.461  24.143   5.443
 5207POPC   PO467404  10.991  24.615   5.602
 5207POPC   GL167405  11.298  24.487   5.871
 5207POPC   GL267406  11.338  24.862   5.891
 5207POPC   C1A67407  11.310  24.265   6.279
 5207POPC   D2A67408  11.091  24.303   6.686
 5207POPC   C3A67409  11.339  24.342   7.052
 5207POPC   C4A67410  11.570  24.272   7.451
 5207POPC   C1B67411  11.590  24.782   6.237
 5207POPC   C2B67412  11.582  24.585   6.620
 5207POPC   C3B67413  11.587  24.804   6.976
 5207POPC   C4B67414  11.191  24.977   7.053
 5208POPC   NC367415  42.012  28.495   5.275
 5208POPC   PO467416  42.572  28.102   5.491
 5208POPC   GL167417  42.734  28.264   5.831
 5208POPC   GL267418  42.415  28.432   5.910
 5208POPC   C1A67419  42.706  28.192   6.252
 5208POPC   D2A67420  42.473  28.398   6.529
 5208POPC   C3A67421  42.646  28.281   6.914
 5208POPC   C4A67422  42.432  28.239   7.290
 5208POPC   C1B67423  42.040  28.479   6.191
 5208POPC   C2B67424  41.917  28.231   6.550
 5208POPC   C3B67425  42.100  28.297   6.900
 5208POPC   C4B67426  41.971  28.456   7.255
 5209POPC   NC367427  24.421  11.703   5.458
 5209POPC   PO467428  24.581  11.072   5.621
 5209POPC   GL167429  24.309  11.299   5.950
 5209POPC   GL267430  24.280  11.675   5.937
 5209POPC   C1A67431  24.286  11.496   6.397
 5209POPC   D2A67432  24.561  11.402   6.721
 5209POPC   C3A67433  24.421  11.332   7.117
 5209POPC   C4A67434  24.563  11.007   7.375
 5209POPC   C1B67435  24.696  11.734   6.168
 5209POPC   C2B67436  24.838  11.820   6.612
 5209POPC   C3B67437  24.908  11.682   7.040
 5209POPC   C4B67438  24.811  11.482   7.445
 5210POPC   NC367439  28.465  33.296   5.166
 5210POPC   PO467440  28.588  32.674   5.417
 5210POPC   GL167441  28.312  32.874   5.744
 5210POPC   GL267442  28.328  33.239   5.761
 5210POPC   C1A67443  28.256  32.760   6.175
 5210POPC   D2A67444  28.395  32.527   6.540
 5210POPC   C3A67445  28.427  32.835   6.857
 5210POPC   C4A67446  28.256  32.912   7.280
 5210POPC   C1B67447  28.390  33.258   6.228
 5210POPC   C2B67448  28.551  33.312   6.679
 5210POPC   C3B67449  28.355  33.371   7.119
 5210POPC   C4B67450  28.546  33.291   7.588
 5211POPC   NC367451  17.859  33.148   5.491
 5211POPC   PO467452  17.286  33.332   5.256
 5211POPC   GL167453  17.443  33.102   5.736
 5211POPC   GL267454  17.643  32.764   5.749
 5211POPC   C1A67455  17.577  33.241   6.148
 5211POPC   D2A67456  17.774  33.230   6.540
 5211POPC   C3A67457  17.505  33.157   6.857
 5211POPC   C4A67458  17.617  33.130   7.281
 5211POPC   C1B67459  17.822  32.801   6.146
 5211POPC   C2B67460  17.663  32.721   6.553
 5211POPC   C3B67461  17.786  32.758   6.976
 5211POPC   C4B67462  17.569  32.608   7.354
 5212POPC   NC367463  39.702   2.816   5.508
 5212POPC   PO467464  40.397   2.929   5.476
 5212POPC   GL167465  40.102   2.912   5.817
 5212POPC   GL267466  39.905   2.579   5.911
 5212POPC   C1A67467  40.106   2.939   6.240
 5212POPC   D2A67468  40.070   3.259   6.544
 5212POPC   C3A67469  39.868   3.052   6.868
 5212POPC   C4A67470  40.034   2.820   7.221
 5212POPC   C1B67471  39.878   2.444   6.361
 5212POPC   C2B67472  39.833   2.532   6.822
 5212POPC   C3B67473  39.678   2.419   7.242
 5212POPC   C4B67474  39.852   2.204   7.624
 5213POPC   NC367475  36.960   7.427   5.386
 5213POPC   PO467476  36.306   7.300   5.566
 5213POPC   GL167477  36.674   7.471   5.792
 5213POPC   GL267478  37.003   7.711   5.807
 5213POPC   C1A67479  36.901   7.302   6.138
 5213POPC   D2A67480  36.734   7.275   6.566
 5213POPC   C3A67481  36.983   7.191   6.926
 5213POPC   C4A67482  37.074   7.442   7.255
 5213POPC   C1B67483  37.079   7.755   6.265
 5213POPC   C2B67484  37.134   7.652   6.729
 5213POPC   C3B67485  37.019   7.903   7.084
 5213POPC   C4B67486  37.023   7.889   7.557
 5214POPC   NC367487   7.856  14.635   5.465
 5214POPC   PO467488   8.487  14.687   5.335
 5214POPC   GL167489   8.380  14.446   5.709
 5214POPC   GL267490   8.147  14.157   5.646
 5214POPC   C1A67491   8.386  14.334   6.155
 5214POPC   D2A67492   8.445  14.525   6.575
 5214POPC   C3A67493   8.487  14.339   6.959
 5214POPC   C4A67494   8.239  14.394   7.286
 5214POPC   C1B67495   7.894  14.196   6.042
 5214POPC   C2B67496   7.960  14.328   6.471
 5214POPC   C3B67497   7.880  14.308   6.898
 5214POPC   C4B67498   7.882  14.037   7.251
 5215POPC   NC367499  25.756  15.844   5.325
 5215POPC   PO467500  25.150  16.107   5.306
 5215POPC   GL167501  25.130  15.910   5.707
 5215POPC   GL267502  25.415  15.691   5.687
 5215POPC   C1A67503  24.949  15.927   6.145
 5215POPC   D2A67504  24.844  16.232   6.472
 5215POPC   C3A67505  25.002  16.083   6.865
 5215POPC   C4A67506  25.165  15.919   7.261
 5215POPC   C1B67507  25.460  15.914   6.095
 5215POPC   C2B67508  25.352  16.009   6.497
 5215POPC   C3B67509  25.516  15.902   6.897
 5215POPC   C4B67510  25.752  15.922   7.257
 5216POPC   NC367511  28.568  41.744   5.430
 5216POPC   PO467512  29.297  41.607   5.402
 5216POPC   GL167513  29.151  41.523   5.845
 5216POPC   GL267514  28.849  41.299   5.877
 5216POPC   C1A67515  29.102  41.621   6.294
 5216POPC   D2A67516  29.349  41.863   6.618
 5216POPC   C3A67517  29.318  41.734   7.063
 5216POPC   C4A67518  29.402  41.552   7.481
 5216POPC   C1B67519  28.779  41.132   6.277
 5216POPC   C2B67520  28.839  41.335   6.671
 5216POPC   C3B67521  28.937  41.377   7.099
 5216POPC   C4B67522  28.928  41.727   7.394
 5217POPC   NC367523  32.507  14.739   5.532
 5217POPC   PO467524  32.192  14.066   5.335
 5217POPC   GL167525  32.207  14.295   5.750
 5217POPC   GL267526  31.955  14.501   5.694
 5217POPC   C1A67527  32.380  14.242   6.196
 5217POPC   D2A67528  32.481  14.026   6.600
 5217POPC   C3A67529  32.254  14.264   6.921
 5217POPC   C4A67530  32.239  14.546   7.269
 5217POPC   C1B67531  31.902  14.542   6.141
 5217POPC   C2B67532  31.954  14.303   6.517
 5217POPC   C3B67533  31.770  14.119   6.888
 5217POPC   C4B67534  31.800  14.308   7.307
 5218POPC   NC367535  31.056   3.646   5.358
 5218POPC   PO467536  30.528   3.489   5.397
 5218POPC   GL167537  30.654   3.591   5.847
 5218POPC   GL267538  31.022   3.585   5.879
 5218POPC   C1A67539  30.696   3.693   6.326
 5218POPC   D2A67540  30.492   3.502   6.701
 5218POPC   C3A67541  30.365   3.596   7.140
 5218POPC   C4A67542  30.447   3.255   7.444
 5218POPC   C1B67543  31.176   3.499   6.304
 5218POPC   C2B67544  30.920   3.235   6.605
 5218POPC   C3B67545  30.798   3.315   7.092
 5218POPC   C4B67546  30.822   3.761   7.292
 5219POPC   NC367547   1.742  14.246   5.409
 5219POPC   PO467548   2.340  14.038   5.405
 5219POPC   GL167549   2.114  14.055   5.815
 5219POPC   GL267550   1.889  14.357   5.875
 5219POPC   C1A67551   2.092  14.134   6.273
 5219POPC   D2A67552   2.290  13.991   6.640
 5219POPC   C3A67553   2.101  14.113   7.044
 5219POPC   C4A67554   2.149  14.213   7.486
 5219POPC   C1B67555   1.855  14.683   6.207
 5219POPC   C2B67556   2.024  14.785   6.624
 5219POPC   C3B67557   2.162  14.635   7.039
 5219POPC   C4B67558   1.931  14.665   7.428
 5220POPC   NC367559  20.292  24.847   5.574
 5220POPC   PO467560  20.781  25.149   5.455
 5220POPC   GL167561  20.558  25.274   5.812
 5220POPC   GL267562  20.905  25.384   5.911
 5220POPC   C1A67563  20.294  25.142   6.185
 5220POPC   D2A67564  20.462  25.260   6.604
 5220POPC   C3A67565  20.354  25.257   7.041
 5220POPC   C4A67566  20.521  25.647   7.252
 5220POPC   C1B67567  20.793  25.104   6.251
 5220POPC   C2B67568  20.856  24.918   6.649
 5220POPC   C3B67569  20.825  25.024   7.050
 5220POPC   C4B67570  21.049  24.918   7.392
 5221POPC   NC367571  21.059  25.491   5.385
 5221POPC   PO467572  21.099  24.829   5.116
 5221POPC   GL167573  21.210  25.018   5.653
 5221POPC   GL267574  21.440  25.307   5.708
 5221POPC   C1A67575  21.279  25.054   6.140
 5221POPC   D2A67576  21.257  25.235   6.603
 5221POPC   C3A67577  21.390  25.061   7.042
 5221POPC   C4A67578  21.525  25.035   7.523
 5221POPC   C1B67579  21.773  25.467   6.034
 5221POPC   C2B67580  21.855  25.651   6.492
 5221POPC   C3B67581  21.643  25.499   6.872
 5221POPC   C4B67582  21.509  25.497   7.301
 5222POPC   NC367583  28.359  26.301   5.354
 5222POPC   PO467584  28.389  27.044   5.222
 5222POPC   GL167585  28.377  26.924   5.667
 5222POPC   GL267586  28.470  26.584   5.776
 5222POPC   C1A67587  28.343  26.982   6.135
 5222POPC   D2A67588  28.166  26.993   6.578
 5222POPC   C3A67589  28.311  26.818   6.972
 5222POPC   C4A67590  28.231  26.937   7.409
 5222POPC   C1B67591  28.591  26.536   6.231
 5222POPC   C2B67592  28.706  26.677   6.667
 5222POPC   C3B67593  28.664  26.453   7.064
 5222POPC   C4B67594  28.319  26.454   7.364
 5223POPC   NC367595   4.776   3.995   4.976
 5223POPC   PO467596   4.366   4.521   5.167
 5223POPC   GL167597   4.428   4.523   5.651
 5223POPC   GL267598   4.326   4.217   5.802
 5223POPC   C1A67599   4.393   4.644   6.128
 5223POPC   D2A67600   4.393   4.779   6.595
 5223POPC   C3A67601   4.404   4.468   6.947
 5223POPC   C4A67602   4.187   4.419   7.313
 5223POPC   C1B67603   4.217   4.160   6.259
 5223POPC   C2B67604   4.035   4.264   6.681
 5223POPC   C3B67605   3.932   4.043   7.090
 5223POPC   C4B67606   4.103   3.877   7.521
 5224POPC   NC367607   8.454  43.440   5.351
 5224POPC   PO467608   7.906  43.065   5.093
 5224POPC   GL167609   8.071  43.158   5.535
 5224POPC   GL267610   7.857  43.307   5.781
 5224POPC   C1A67611   8.266  43.049   5.967
 5224POPC   D2A67612   8.173  42.820   6.376
 5224POPC   C3A67613   8.198  42.945   6.829
 5224POPC   C4A67614   8.460  42.858   7.199
 5224POPC   C1B67615   7.773  43.076   6.167
 5224POPC   C2B67616   7.820  43.239   6.592
 5224POPC   C3B67617   7.664  43.184   7.037
 5224POPC   C4B67618   7.690  43.245   7.525
 5225POPC   NC367619  21.747  37.231   5.451
 5225POPC   PO467620  21.046  37.262   5.474
 5225POPC   GL167621  21.380  37.055   5.765
 5225POPC   GL267622  21.443  36.690   5.811
 5225POPC   C1A67623  21.551  37.170   6.187
 5225POPC   D2A67624  21.464  37.055   6.629
 5225POPC   C3A67625  21.517  37.248   7.046
 5225POPC   C4A67626  21.595  36.967   7.421
 5225POPC   C1B67627  21.215  36.739   6.225
 5225POPC   C2B67628  21.020  36.772   6.652
 5225POPC   C3B67629  21.293  36.759   7.036
 5225POPC   C4B67630  21.155  36.715   7.470
 5226POPC   NC367631  36.642  25.593   5.486
 5226POPC   PO467632  35.954  25.331   5.381
 5226POPC   GL167633  36.033  25.136   5.741
 5226POPC   GL267634  36.149  24.795   5.743
 5226POPC   C1A67635  36.178  25.293   6.158
 5226POPC   D2A67636  35.997  25.424   6.552
 5226POPC   C3A67637  36.240  25.482   6.884
 5226POPC   C4A67638  36.335  25.262   7.206
 5226POPC   C1B67639  35.917  24.862   6.145
 5226POPC   C2B67640  36.130  24.927   6.561
 5226POPC   C3B67641  35.936  25.064   6.959
 5226POPC   C4B67642  35.733  24.916   7.320
 5227POPC   NC367643  27.982  19.406   5.489
 5227POPC   PO467644  28.404  20.011   5.490
 5227POPC   GL167645  28.484  19.764   5.854
 5227POPC   GL267646  28.131  19.715   5.912
 5227POPC   C1A67647  28.492  19.675   6.316
 5227POPC   D2A67648  28.263  19.766   6.674
 5227POPC   C3A67649  28.437  19.734   7.084
 5227POPC   C4A67650  28.454  19.881   7.541
 5227POPC   C1B67651  28.040  19.469   6.278
 5227POPC   C2B67652  28.205  19.246   6.591
 5227POPC   C3B67653  27.985  19.428   6.945
 5227POPC   C4B67654  27.724  19.284   7.259
 5228POPC   NC367655  37.987  43.348   5.268
 5228POPC   PO467656  38.539  43.008   5.429
 5228POPC   GL167657  38.474  43.314   5.787
 5228POPC   GL267658  38.291  43.054   5.909
 5228POPC   C1A67659  38.447  43.360   6.271
 5228POPC   D2A67660  38.478  43.035   6.596
 5228POPC   C3A67661  38.659  43.098   6.994
 5228POPC   C4A67662  38.561  43.350   7.353
 5228POPC   C1B67663  38.120  42.848   6.264
 5228POPC   C2B67664  38.196  42.606   6.630
 5228POPC   C3B67665  38.192  42.798   7.004
 5228POPC   C4B67666  38.442  42.789   7.337
 5229POPC   NC367667  23.269   6.690   5.078
 5229POPC   PO467668  22.637   6.624   5.396
 5229POPC   GL167669  22.901   6.657   5.779
 5229POPC   GL267670  23.077   6.409   5.770
 5229POPC   C1A67671  23.100   6.837   6.175
 5229POPC   D2A67672  23.070   7.121   6.544
 5229POPC   C3A67673  23.129   6.845   6.879
 5229POPC   C4A67674  23.252   6.751   7.269
 5229POPC   C1B67675  22.951   6.325   6.227
 5229POPC   C2B67676  23.016   6.332   6.686
 5229POPC   C3B67677  23.055   6.251   7.135
 5229POPC   C4B67678  23.066   6.170   7.588
 5230POPC   NC367679   6.822  39.501   5.239
 5230POPC   PO467680   6.464  39.061   5.301
 5230POPC   GL167681   6.577  39.372   5.673
 5230POPC   GL267682   6.875  39.611   5.717
 5230POPC   C1A67683   6.477  39.343   6.122
 5230POPC   D2A67684   6.582  39.538   6.531
 5230POPC   C3A67685   6.387  39.338   6.922
 5230POPC   C4A67686   6.450  39.349   7.375
 5230POPC   C1B67687   6.984  39.372   6.069
 5230POPC   C2B67688   6.991  39.187   6.482
 5230POPC   C3B67689   6.917  39.349   6.896
 5230POPC   C4B67690   6.979  39.389   7.312
 5231POPC   NC367691   6.787   9.489   5.194
 5231POPC   PO467692   6.470  10.031   5.505
 5231POPC   GL167693   6.752   9.809   5.798
 5231POPC   GL267694   6.861   9.469   5.704
 5231POPC   C1A67695   6.566   9.601   6.149
 5231POPC   D2A67696   6.287   9.766   6.440
 5231POPC   C3A67697   6.449   9.723   6.834
 5231POPC   C4A67698   6.556   9.596   7.231
 5231POPC   C1B67699   7.052   9.458   6.128
 5231POPC   C2B67700   6.873   9.505   6.560
 5231POPC   C3B67701   7.045   9.536   6.976
 5231POPC   C4B67702   6.964   9.315   7.354
 5232POPC   NC367703  44.451  15.618   5.343
 5232POPC   PO467704  44.888  15.036   5.481
 5232POPC   GL167705  44.885  14.971   5.902
 5232POPC   GL267706  44.537  14.940   5.900
 5232POPC   C1A67707  44.766  15.069   6.329
 5232POPC   D2A67708   0.006  15.289   6.635
 5232POPC   C3A67709  44.887  15.341   7.050
 5232POPC   C4A67710  44.898  15.251   7.508
 5232POPC   C1B67711  44.207  14.795   6.159
 5232POPC   C2B67712  44.159  14.962   6.544
 5232POPC   C3B67713  44.492  15.151   6.771
 5232POPC   C4B67714  44.455  15.131   7.219
 5233POPC   NC367715   7.729  39.112   5.280
 5233POPC   PO467716   7.266  39.642   5.384
 5233POPC   GL167717   7.411  39.374   5.760
 5233POPC   GL267718   7.621  39.070   5.789
 5233POPC   C1A67719   7.465  39.318   6.231
 5233POPC   D2A67720   7.350  39.507   6.639
 5233POPC   C3A67721   7.442  39.323   7.037
 5233POPC   C4A67722   7.578  39.544   7.386
 5233POPC   C1B67723   7.661  38.821   6.168
 5233POPC   C2B67724   7.503  38.917   6.585
 5233POPC   C3B67725   7.680  38.850   6.981
 5233POPC   C4B67726   7.767  39.045   7.362
 5234POPC   NC367727   4.217  29.740   5.347
 5234POPC   PO467728   3.474  29.824   5.160
 5234POPC   GL167729   3.447  29.857   5.643
 5234POPC   GL267730   3.211  30.140   5.678
 5234POPC   C1A67731   3.595  29.808   6.109
 5234POPC   D2A67732   3.374  29.754   6.528
 5234POPC   C3A67733   3.506  29.995   6.879
 5234POPC   C4A67734   3.799  30.153   7.208
 5234POPC   C1B67735   3.205  30.137   6.129
 5234POPC   C2B67736   3.284  30.353   6.529
 5234POPC   C3B67737   3.117  30.330   6.939
 5234POPC   C4B67738   3.307  30.232   7.304
 5235POPC   NC367739   2.935  11.668   5.623
 5235POPC   PO467740   2.871  11.144   5.295
 5235POPC   GL167741   2.593  11.224   5.723
 5235POPC   GL267742   2.493  11.562   5.916
 5235POPC   C1A67743   2.654  11.148   6.187
 5235POPC   D2A67744   3.018  11.202   6.474
 5235POPC   C3A67745   2.918  11.065   6.889
 5235POPC   C4A67746   2.579  11.146   7.168
 5235POPC   C1B67747   2.825  11.639   6.257
 5235POPC   C2B67748   2.957  11.757   6.661
 5235POPC   C3B67749   2.730  11.622   7.004
 5235POPC   C4B67750   3.011  11.464   7.275
 5236POPC   NC367751   3.342  27.817   5.471
 5236POPC   PO467752   3.835  28.153   5.568
 5236POPC   GL167753   3.721  27.837   5.876
 5236POPC   GL267754   3.382  27.741   5.983
 5236POPC   C1A67755   3.753  27.683   6.311
 5236POPC   D2A67756   3.525  27.594   6.674
 5236POPC   C3A67757   3.612  27.855   7.010
 5236POPC   C4A67758   3.536  27.859   7.414
 5236POPC   C1B67759   3.203  27.397   6.318
 5236POPC   C2B67760   3.291  27.148   6.751
 5236POPC   C3B67761   3.551  27.333   7.131
 5236POPC   C4B67762   3.866  27.454   7.478
 5237POPC   NC367763  11.867  41.851   5.499
 5237POPC   PO467764  11.258  41.555   5.370
 5237POPC   GL167765  11.172  41.430   5.789
 5237POPC   GL267766  11.540  41.377   5.837
 5237POPC   C1A67767  11.163  41.260   6.209
 5237POPC   D2A67768  10.941  41.308   6.584
 5237POPC   C3A67769  11.123  41.263   6.995
 5237POPC   C4A67770  11.050  41.661   7.247
 5237POPC   C1B67771  11.567  41.578   6.237
 5237POPC   C2B67772  11.481  41.423   6.650
 5237POPC   C3B67773  11.524  41.603   7.060
 5237POPC   C4B67774  11.742  41.685   7.431
 5238POPC   NC367775   7.337   5.526   5.704
 5238POPC   PO467776   7.709   5.166   5.256
 5238POPC   GL167777   7.684   4.941   5.797
 5238POPC   GL267778   7.367   5.066   5.884
 5238POPC   C1A67779   7.464   4.870   6.302
 5238POPC   D2A67780   7.370   5.133   6.691
 5238POPC   C3A67781   7.286   4.950   7.105
 5238POPC   C4A67782   7.680   4.948   7.299
 5238POPC   C1B67783   7.165   5.331   6.277
 5238POPC   C2B67784   7.080   5.551   6.702
 5238POPC   C3B67785   7.057   5.435   7.172
 5238POPC   C4B67786   7.276   5.508   7.564
 5239POPC   NC367787  39.719   9.902   5.393
 5239POPC   PO467788  40.243   9.619   5.386
 5239POPC   GL167789  39.955   9.586   5.733
 5239POPC   GL267790  39.695   9.331   5.678
 5239POPC   C1A67791  39.781   9.760   6.149
 5239POPC   D2A67792  39.975   9.837   6.585
 5239POPC   C3A67793  39.927   9.895   7.045
 5239POPC   C4A67794  40.078   9.937   7.499
 5239POPC   C1B67795  39.821   9.251   6.103
 5239POPC   C2B67796  39.685   9.392   6.508
 5239POPC   C3B67797  39.908   9.397   6.900
 5239POPC   C4B67798  40.021   9.469   7.325
 5240POPC   NC367799   2.895  24.654   4.964
 5240POPC   PO467800   2.422  24.270   5.420
 5240POPC   GL167801   2.576  24.410   5.816
 5240POPC   GL267802   2.521  24.083   5.967
 5240POPC   C1A67803   2.771  24.610   6.201
 5240POPC   D2A67804   2.824  24.450   6.655
 5240POPC   C3A67805   2.821  24.683   7.060
 5240POPC   C4A67806   3.248  24.720   7.280
 5240POPC   C1B67807   2.405  24.292   6.359
 5240POPC   C2B67808   2.337  24.494   6.753
 5240POPC   C3B67809   2.362  24.462   7.178
 5240POPC   C4B67810   2.684  24.458   7.507
 5241POPC   NC367811   9.113  13.277   5.216
 5241POPC   PO467812   9.130  13.907   5.457
 5241POPC   GL167813   8.908  13.721   5.764
 5241POPC   GL267814   9.140  13.459   5.788
 5241POPC   C1A67815   8.764  13.620   6.180
 5241POPC   D2A67816   8.959  13.659   6.562
 5241POPC   C3A67817   8.675  13.602   6.897
 5241POPC   C4A67818   8.721  13.381   7.260
 5241POPC   C1B67819   9.287  13.724   6.138
 5241POPC   C2B67820   9.468  13.657   6.562
 5241POPC   C3B67821   9.284  13.710   7.004
 5241POPC   C4B67822   9.314  14.029   7.344
 5242POPC   NC367823  29.360  34.728   5.344
 5242POPC   PO467824  29.004  34.200   5.416
 5242POPC   GL167825  29.280  34.376   5.759
 5242POPC   GL267826  29.208  34.751   5.828
 5242POPC   C1A67827  29.333  34.418   6.216
 5242POPC   D2A67828  29.105  34.363   6.590
 5242POPC   C3A67829  29.255  34.431   6.985
 5242POPC   C4A67830  29.442  34.224   7.347
 5242POPC   C1B67831  29.026  34.833   6.216
 5242POPC   C2B67832  28.721  34.705   6.485
 5242POPC   C3B67833  28.774  34.682   6.900
 5242POPC   C4B67834  28.913  34.616   7.297
 5243POPC   NC367835  37.135  37.138   5.495
 5243POPC   PO467836  36.712  36.700   5.215
 5243POPC   GL167837  37.059  36.644   5.666
 5243POPC   GL267838  37.124  36.936   5.931
 5243POPC   C1A67839  37.093  36.519   6.164
 5243POPC   D2A67840  36.771  36.665   6.487
 5243POPC   C3A67841  36.858  36.630   6.962
 5243POPC   C4A67842  36.712  36.718   7.407
 5243POPC   C1B67843  37.030  37.106   6.333
 5243POPC   C2B67844  37.123  37.182   6.759
 5243POPC   C3B67845  36.995  37.185   7.182
 5243POPC   C4B67846  37.290  37.348   7.484
 5244POPC   NC367847   4.075  31.190   5.610
 5244POPC   PO467848   4.677  31.528   5.405
 5244POPC   GL167849   4.494  31.415   5.796
 5244POPC   GL267850   4.271  31.690   5.819
 5244POPC   C1A67851   4.540  31.576   6.246
 5244POPC   D2A67852   4.719  31.620   6.690
 5244POPC   C3A67853   4.371  31.653   7.017
 5244POPC   C4A67854   4.428  31.594   7.471
 5244POPC   C1B67855   4.042  31.883   6.183
 5244POPC   C2B67856   4.045  31.721   6.614
 5244POPC   C3B67857   3.840  31.709   7.015
 5244POPC   C4B67858   3.986  31.836   7.415
 5245POPC   NC367859  13.328  16.070   5.756
 5245POPC   PO467860  13.693  16.047   5.204
 5245POPC   GL167861  13.845  15.986   5.652
 5245POPC   GL267862  13.796  15.657   5.772
 5245POPC   C1A67863  13.885  16.008   6.137
 5245POPC   D2A67864  13.520  15.969   6.454
 5245POPC   C3A67865  13.534  16.085   6.881
 5245POPC   C4A67866  13.780  15.949   7.190
 5245POPC   C1B67867  13.633  15.554   6.198
 5245POPC   C2B67868  13.689  15.354   6.595
 5245POPC   C3B67869  13.800  15.469   7.019
 5245POPC   C4B67870  13.736  15.454   7.482
 5246POPC   NC367871   9.853   7.405   5.419
 5246POPC   PO467872   9.641   8.092   5.346
 5246POPC   GL167873   9.836   7.893   5.806
 5246POPC   GL267874   9.782   7.515   5.905
 5246POPC   C1A67875   9.798   7.800   6.313
 5246POPC   D2A67876   9.834   7.468   6.660
 5246POPC   C3A67877   9.511   7.451   6.986
 5246POPC   C4A67878   9.469   7.583   7.420
 5246POPC   C1B67879   9.881   7.219   6.218
 5246POPC   C2B67880   9.923   6.952   6.590
 5246POPC   C3B67881   9.816   7.022   7.022
 5246POPC   C4B67882   9.502   7.082   7.345
 5247POPC   NC367883  33.253  39.109   5.332
 5247POPC   PO467884  32.594  39.132   5.235
 5247POPC   GL167885  32.831  39.062   5.658
 5247POPC   GL267886  33.098  39.280   5.834
 5247POPC   C1A67887  32.927  38.862   6.063
 5247POPC   D2A67888  33.043  39.083   6.467
 5247POPC   C3A67889  32.884  38.957   6.862
 5247POPC   C4A67890  32.795  39.014   7.285
 5247POPC   C1B67891  33.279  39.486   6.229
 5247POPC   C2B67892  33.451  39.550   6.654
 5247POPC   C3B67893  33.394  39.622   7.087
 5247POPC   C4B67894  32.994  39.579   7.227
 5248POPC   NC367895   8.660  10.269   5.012
 5248POPC   PO467896   9.166  10.720   5.243
 5248POPC   GL167897   9.132  10.590   5.719
 5248POPC   GL267898   8.856  10.347   5.752
 5248POPC   C1A67899   9.028  10.628   6.189
 5248POPC   D2A67900   9.100  10.543   6.648
 5248POPC   C3A67901   9.040  10.796   7.053
 5248POPC   C4A67902   8.975  10.707   7.531
 5248POPC   C1B67903   8.735  10.188   6.161
 5248POPC   C2B67904   8.634  10.307   6.579
 5248POPC   C3B67905   8.793  10.320   6.999
 5248POPC   C4B67906   8.688  10.306   7.430
 5249POPC   NC367907  32.558  16.452   5.297
 5249POPC   PO467908  32.095  16.929   5.385
 5249POPC   GL167909  32.276  16.775   5.748
 5249POPC   GL267910  32.575  16.970   5.741
 5249POPC   C1A67911  32.149  16.713   6.192
 5249POPC   D2A67912  31.886  16.679   6.534
 5249POPC   C3A67913  32.108  16.645   6.924
 5249POPC   C4A67914  32.055  16.437   7.320
 5249POPC   C1B67915  32.463  17.111   6.161
 5249POPC   C2B67916  32.528  16.905   6.574
 5249POPC   C3B67917  32.454  17.047   6.986
 5249POPC   C4B67918  32.231  16.923   7.371
 5250POPC   NC367919  27.730  33.846   5.309
 5250POPC   PO467920  27.374  33.316   5.595
 5250POPC   GL167921  27.592  33.662   5.796
 5250POPC   GL267922  27.404  33.978   5.696
 5250POPC   C1A67923  27.710  33.621   6.242
 5250POPC   D2A67924  27.723  33.519   6.690
 5250POPC   C3A67925  27.867  33.880   6.887
 5250POPC   C4A67926  27.769  34.089   7.260
 5250POPC   C1B67927  27.293  33.928   6.130
 5250POPC   C2B67928  27.303  33.776   6.556
 5250POPC   C3B67929  27.350  33.785   6.996
 5250POPC   C4B67930  27.273  34.075   7.311
 5251POPC   NC367931  31.809  28.475   5.374
 5251POPC   PO467932  31.493  27.883   5.435
 5251POPC   GL167933  31.435  28.179   5.780
 5251POPC   GL267934  31.550  28.523   5.818
 5251POPC   C1A67935  31.691  28.225   6.180
 5251POPC   D2A67936  31.687  28.467   6.537
 5251POPC   C3A67937  31.536  28.240   6.903
 5251POPC   C4A67938  31.760  28.222   7.265
 5251POPC   C1B67939  31.235  28.454   6.235
 5251POPC   C2B67940  30.961  28.547   6.617
 5251POPC   C3B67941  31.057  28.515   7.077
 5251POPC   C4B67942  31.064  28.322   7.493
 5252POPC   NC367943  22.756  10.015   5.247
 5252POPC   PO467944  22.689   9.368   5.335
 5252POPC   GL167945  22.791   9.522   5.717
 5252POPC   GL267946  22.608   9.817   5.759
 5252POPC   C1A67947  22.722   9.453   6.145
 5252POPC   D2A67948  22.695   9.508   6.556
 5252POPC   C3A67949  23.019   9.557   6.829
 5252POPC   C4A67950  22.834   9.488   7.190
 5252POPC   C1B67951  22.593   9.954   6.183
 5252POPC   C2B67952  22.438   9.950   6.600
 5252POPC   C3B67953  22.633   9.894   6.964
 5252POPC   C4B67954  22.998   9.965   7.229
 5253POPC   NC367955   3.581  31.026   5.283
 5253POPC   PO467956   3.857  31.591   5.532
 5253POPC   GL167957   3.488  31.414   5.741
 5253POPC   GL267958   3.270  31.689   5.888
 5253POPC   C1A67959   3.434  31.276   6.191
 5253POPC   D2A67960   3.507  31.444   6.620
 5253POPC   C3A67961   3.671  31.224   6.976
 5253POPC   C4A67962   4.044  31.279   7.257
 5253POPC   C1B67963   3.133  31.699   6.318
 5253POPC   C2B67964   3.063  31.722   6.749
 5253POPC   C3B67965   3.314  31.606   7.074
 5253POPC   C4B67966   3.280  31.237   7.305
 5254POPC   NC367967  38.693   7.699   5.171
 5254POPC   PO467968  38.313   7.206   5.312
 5254POPC   GL167969  38.434   7.458   5.699
 5254POPC   GL267970  38.266   7.780   5.773
 5254POPC   C1A67971  38.475   7.512   6.164
 5254POPC   D2A67972  38.656   7.331   6.532
 5254POPC   C3A67973  38.524   7.468   6.940
 5254POPC   C4A67974  38.701   7.266   7.316
 5254POPC   C1B67975  38.005   7.754   6.183
 5254POPC   C2B67976  38.049   7.901   6.628
 5254POPC   C3B67977  37.971   7.817   7.086
 5254POPC   C4B67978  38.320   7.695   7.370
 5255POPC   NC367979  19.854  37.346   5.444
 5255POPC   PO467980  20.044  38.024   5.442
 5255POPC   GL167981  19.847  37.786   5.746
 5255POPC   GL267982  20.130  37.643   5.774
 5255POPC   C1A67983  19.710  37.513   6.097
 5255POPC   D2A67984  19.541  37.628   6.514
 5255POPC   C3A67985  19.615  37.485   6.920
 5255POPC   C4A67986  19.797  37.809   7.186
 5255POPC   C1B67987  20.212  37.480   6.128
 5255POPC   C2B67988  20.045  37.464   6.510
 5255POPC   C3B67989  20.122  37.533   6.901
 5255POPC   C4B67990  20.002  37.339   7.245
 5256POPC   NC367991  14.083   8.603   5.397
 5256POPC   PO467992  13.402   8.698   5.308
 5256POPC   GL167993  13.458   8.906   5.728
 5256POPC   GL267994  13.834   8.959   5.734
 5256POPC   C1A67995  13.515   8.975   6.166
 5256POPC   D2A67996  13.288   8.855   6.539
 5256POPC   C3A67997  13.501   8.769   6.916
 5256POPC   C4A67998  13.753   9.074   7.071
 5256POPC   C1B67999  14.026   8.933   6.149
 5256POPC   C2B68000  13.873   8.947   6.567
 5256POPC   C3B68001  14.053   8.701   6.874
 5256POPC   C4B68002  13.876   8.355   7.046
 5257POPC   NC368003  22.005   9.360   5.161
 5257POPC   PO468004  22.307   9.919   5.352
 5257POPC   GL168005  22.160  10.069   5.761
 5257POPC   GL268006  22.057   9.768   5.877
 5257POPC   C1A68007  22.101  10.129   6.231
 5257POPC   D2A68008  21.919   9.891   6.589
 5257POPC   C3A68009  22.089  10.002   6.985
 5257POPC   C4A68010  22.372  10.115   7.347
 5257POPC   C1B68011  22.232   9.614   6.276
 5257POPC   C2B68012  22.218   9.486   6.708
 5257POPC   C3B68013  22.292   9.556   7.116
 5257POPC   C4B68014  21.892   9.549   7.191
 5258POPC   NC368015  41.247   1.868   5.515
 5258POPC   PO468016  40.567   1.985   5.463
 5258POPC   GL168017  40.831   2.050   5.792
 5258POPC   GL268018  40.877   1.682   5.821
 5258POPC   C1A68019  40.723   2.151   6.212
 5258POPC   D2A68020  40.917   2.157   6.612
 5258POPC   C3A68021  40.655   2.198   6.966
 5258POPC   C4A68022  40.726   2.153   7.388
 5258POPC   C1B68023  40.931   1.488   6.227
 5258POPC   C2B68024  40.772   1.429   6.633
 5258POPC   C3B68025  40.915   1.466   7.069
 5258POPC   C4B68026  40.705   1.610   7.450
 5259POPC   NC368027  39.041  13.482   5.422
 5259POPC   PO468028  39.410  14.079   5.278
 5259POPC   GL168029  39.293  13.852   5.662
 5259POPC   GL268030  39.445  13.506   5.714
 5259POPC   C1A68031  39.136  13.650   6.071
 5259POPC   D2A68032  39.030  13.663   6.521
 5259POPC   C3A68033  39.221  13.547   6.910
 5259POPC   C4A68034  39.269  13.810   7.247
 5259POPC   C1B68035  39.559  13.364   6.121
 5259POPC   C2B68036  39.462  13.312   6.512
 5259POPC   C3B68037  39.598  13.172   6.875
 5259POPC   C4B68038  39.625  13.286   7.293
 5260POPC   NC368039  37.764  31.838   5.374
 5260POPC   PO468040  37.538  31.203   5.447
 5260POPC   GL168041  37.741  31.304   5.812
 5260POPC   GL268042  37.897  31.629   5.818
 5260POPC   C1A68043  37.656  31.404   6.231
 5260POPC   D2A68044  37.385  31.231   6.550
 5260POPC   C3A68045  37.341  31.378   6.966
 5260POPC   C4A68046  37.652  31.399   7.283
 5260POPC   C1B68047  38.030  31.815   6.212
 5260POPC   C2B68048  37.904  31.668   6.612
 5260POPC   C3B68049  37.678  31.788   6.950
 5260POPC   C4B68050  37.746  31.907   7.370
 5261POPC   NC368051  13.231  41.486   5.423
 5261POPC   PO468052  12.556  41.402   5.221
 5261POPC   GL168053  12.770  41.568   5.619
 5261POPC   GL268054  13.003  41.853   5.722
 5261POPC   C1A68055  12.924  41.439   6.048
 5261POPC   D2A68056  12.958  41.535   6.511
 5261POPC   C3A68057  12.921  41.320   6.900
 5261POPC   C4A68058  12.534  41.375   7.109
 5261POPC   C1B68059  13.068  41.915   6.186
 5261POPC   C2B68060  13.272  41.895   6.631
 5261POPC   C3B68061  13.037  41.793   7.051
 5261POPC   C4B68062  13.089  41.878   7.505
 5262POPC   NC368063   2.655  28.058   5.318
 5262POPC   PO468064   2.683  27.461   5.024
 5262POPC   GL168065   2.705  27.607   5.556
 5262POPC   GL268066   2.920  27.835   5.745
 5262POPC   C1A68067   2.547  27.635   6.032
 5262POPC   D2A68068   2.494  27.500   6.498
 5262POPC   C3A68069   2.664  27.700   6.896
 5262POPC   C4A68070   2.613  27.464   7.253
 5262POPC   C1B68071   2.974  27.861   6.225
 5262POPC   C2B68072   3.099  27.893   6.694
 5262POPC   C3B68073   3.133  27.666   7.124
 5262POPC   C4B68074   3.054  27.831   7.554
 5263POPC   NC368075  16.719   3.122   5.389
 5263POPC   PO468076  17.082   2.602   5.508
 5263POPC   GL168077  16.725   2.774   5.770
 5263POPC   GL268078  16.815   3.125   5.883
 5263POPC   C1A68079  16.652   2.737   6.223
 5263POPC   D2A68080  16.979   2.678   6.550
 5263POPC   C3A68081  16.796   2.631   6.957
 5263POPC   C4A68082  16.453   2.518   7.240
 5263POPC   C1B68083  16.914   3.188   6.318
 5263POPC   C2B68084  16.663   3.069   6.645
 5263POPC   C3B68085  16.604   3.093   7.086
 5263POPC   C4B68086  17.009   3.050   7.154
 5264POPC   NC368087  20.551   6.422   5.424
 5264POPC   PO468088  20.787   7.064   5.401
 5264POPC   GL168089  20.607   6.819   5.774
 5264POPC   GL268090  20.315   6.951   5.933
 5264POPC   C1A68091  20.471   6.519   6.157
 5264POPC   D2A68092  20.268   6.209   6.504
 5264POPC   C3A68093  20.423   6.239   6.972
 5264POPC   C4A68094  20.763   6.483   7.165
 5264POPC   C1B68095  20.660   7.032   6.250
 5264POPC   C2B68096  20.948   7.097   6.619
 5264POPC   C3B68097  20.830   6.987   7.035
 5264POPC   C4B68098  20.409   6.787   6.968
 5265POPC   NC368099  41.442  17.303   5.423
 5265POPC   PO468100  41.980  17.196   5.577
 5265POPC   GL168101  41.661  17.338   5.904
 5265POPC   GL268102  41.497  17.655   5.849
 5265POPC   C1A68103  41.426  17.415   6.316
 5265POPC   D2A68104  41.383  17.565   6.763
 5265POPC   C3A68105  41.472  17.239   7.113
 5265POPC   C4A68106  41.454  17.029   7.536
 5265POPC   C1B68107  41.808  17.748   6.218
 5265POPC   C2B68108  41.825  17.828   6.690
 5265POPC   C3B68109  41.723  17.773   7.142
 5265POPC   C4B68110  41.846  17.957   7.555
 5266POPC   NC368111   2.680  42.860   5.340
 5266POPC   PO468112   2.856  43.489   5.489
 5266POPC   GL168113   2.682  43.168   5.765
 5266POPC   GL268114   2.889  42.862   5.803
 5266POPC   C1A68115   2.630  43.147   6.230
 5266POPC   D2A68116   2.718  43.330   6.668
 5266POPC   C3A68117   2.520  43.288   7.100
 5266POPC   C4A68118   2.706  43.323   7.530
 5266POPC   C1B68119   2.982  42.729   6.214
 5266POPC   C2B68120   2.711  42.744   6.546
 5266POPC   C3B68121   2.778  42.857   6.948
 5266POPC   C4B68122   2.400  42.764   7.092
 5267POPC   NC368123  42.861  15.408   5.450
 5267POPC   PO468124  43.306  14.919   5.257
 5267POPC   GL168125  43.158  15.048   5.704
 5267POPC   GL268126  43.185  15.411   5.848
 5267POPC   C1A68127  42.870  15.042   6.093
 5267POPC   D2A68128  42.868  15.387   6.414
 5267POPC   C3A68129  43.003  15.310   6.841
 5267POPC   C4A68130  42.910  15.162   7.238
 5267POPC   C1B68131  43.334  15.188   6.184
 5267POPC   C2B68132  43.184  14.948   6.511
 5267POPC   C3B68133  43.276  14.843   6.901
 5267POPC   C4B68134  43.196  14.742   7.299
 5268POPC   NC368135  40.359  13.428   5.462
 5268POPC   PO468136  40.989  13.594   5.484
 5268POPC   GL168137  40.806  13.525   5.858
 5268POPC   GL268138  40.518  13.696   5.889
 5268POPC   C1A68139  40.919  13.463   6.268
 5268POPC   D2A68140  40.783  13.727   6.630
 5268POPC   C3A68141  41.018  13.728   7.014
 5268POPC   C4A68142  41.250  13.668   7.403
 5268POPC   C1B68143  40.404  13.373   6.159
 5268POPC   C2B68144  40.550  13.248   6.559
 5268POPC   C3B68145  40.593  13.400   6.970
 5268POPC   C4B68146  40.454  13.149   7.278
 5269POPC   NC368147  29.940   5.690   5.427
 5269POPC   PO468148  30.126   6.266   5.400
 5269POPC   GL168149  30.067   6.048   5.766
 5269POPC   GL268150  29.708   6.043   5.737
 5269POPC   C1A68151  29.996   6.083   6.217
 5269POPC   D2A68152  29.689   6.054   6.573
 5269POPC   C3A68153  29.856   6.160   6.981
 5269POPC   C4A68154  30.147   6.021   7.290
 5269POPC   C1B68155  29.588   5.775   6.119
 5269POPC   C2B68156  29.497   5.585   6.580
 5269POPC   C3B68157  29.557   5.731   7.042
 5269POPC   C4B68158  29.705   5.842   7.481
 5270POPC   NC368159  32.556   9.493   5.082
 5270POPC   PO468160  32.225   9.938   5.514
 5270POPC   GL168161  32.120   9.794   5.899
 5270POPC   GL268162  32.379  10.023   6.024
 5270POPC   C1A68163  32.206   9.604   6.261
 5270POPC   D2A68164  32.203   9.861   6.607
 5270POPC   C3A68165  32.202   9.589   6.944
 5270POPC   C4A68166  32.039   9.677   7.333
 5270POPC   C1B68167  32.693   9.740   6.215
 5270POPC   C2B68168  32.621   9.547   6.592
 5270POPC   C3B68169  32.786   9.565   6.975
 5270POPC   C4B68170  32.563   9.650   7.306
 5271POPC   NC368171   2.790  21.639   5.419
 5271POPC   PO468172   2.640  20.987   5.300
 5271POPC   GL168173   2.727  21.204   5.697
 5271POPC   GL268174   3.042  21.114   5.883
 5271POPC   C1A68175   2.669  21.419   6.095
 5271POPC   D2A68176   2.678  21.319   6.544
 5271POPC   C3A68177   2.749  21.528   6.944
 5271POPC   C4A68178   2.604  21.406   7.342
 5271POPC   C1B68179   3.135  21.340   6.258
 5271POPC   C2B68180   3.196  21.499   6.685
 5271POPC   C3B68181   3.141  21.196   7.026
 5271POPC   C4B68182   3.047  21.186   7.468
 5272POPC   NC368183  35.517   7.236   5.368
 5272POPC   PO468184  35.195   7.864   5.515
 5272POPC   GL168185  35.429   7.615   5.784
 5272POPC   GL268186  35.405   7.240   5.859
 5272POPC   C1A68187  35.430   7.617   6.211
 5272POPC   D2A68188  35.364   7.451   6.604
 5272POPC   C3A68189  35.646   7.635   6.851
 5272POPC   C4A68190  35.409   7.664   7.220
 5272POPC   C1B68191  35.232   7.101   6.256
 5272POPC   C2B68192  35.124   6.977   6.688
 5272POPC   C3B68193  35.252   7.120   7.098
 5272POPC   C4B68194  35.301   7.234   7.535
 5273POPC   NC368195  19.840   0.020   5.029
 5273POPC   PO468196  20.048   0.491   5.538
 5273POPC   GL168197  19.734   0.378   5.780
 5273POPC   GL268198  19.709   0.710   5.904
 5273POPC   C1A68199  19.730   0.285   6.206
 5273POPC   D2A68200  19.681   0.661   6.477
 5273POPC   C3A68201  19.720   0.524   6.878
 5273POPC   C4A68202  19.680   0.369   7.290
 5273POPC   C1B68203  20.102   0.623   6.176
 5273POPC   C2B68204  20.129   0.367   6.557
 5273POPC   C3B68205  20.201   0.397   7.009
 5273POPC   C4B68206  20.205   0.357   7.459
 5274POPC   NC368207  40.476  32.427   5.474
 5274POPC   PO468208  40.954  32.061   5.325
 5274POPC   GL168209  40.957  32.389   5.681
 5274POPC   GL268210  40.895  32.162   5.931
 5274POPC   C1A68211  41.039  32.597   6.127
 5274POPC   D2A68212  41.249  32.521   6.547
 5274POPC   C3A68213  41.102  32.651   6.953
 5274POPC   C4A68214  40.881  32.669   7.356
 5274POPC   C1B68215  40.876  32.189   6.413
 5274POPC   C2B68216  40.653  32.121   6.805
 5274POPC   C3B68217  40.687  32.109   7.251
 5274POPC   C4B68218  40.447  32.149   7.631
 5275POPC   NC368219  23.562  17.132   5.433
 5275POPC   PO468220  23.899  17.728   5.322
 5275POPC   GL168221  23.707  17.540   5.714
 5275POPC   GL268222  24.016  17.524   5.920
 5275POPC   C1A68223  23.571  17.401   6.142
 5275POPC   D2A68224  23.880  17.339   6.478
 5275POPC   C3A68225  23.746  17.372   6.917
 5275POPC   C4A68226  23.495  17.503   7.263
 5275POPC   C1B68227  23.891  17.816   6.259
 5275POPC   C2B68228  23.884  17.835   6.734
 5275POPC   C3B68229  24.013  17.756   7.161
 5275POPC   C4B68230  24.237  17.987   7.489
 5276POPC   NC368231   1.925  26.307   5.068
 5276POPC   PO468232   2.390  25.972   5.477
 5276POPC   GL168233   2.268  26.209   5.800
 5276POPC   GL268234   1.945  26.064   5.837
 5276POPC   C1A68235   2.190  26.197   6.245
 5276POPC   D2A68236   2.339  26.072   6.602
 5276POPC   C3A68237   2.177  26.301   6.920
 5276POPC   C4A68238   1.955  26.225   7.288
 5276POPC   C1B68239   1.693  25.986   6.180
 5276POPC   C2B68240   1.812  26.082   6.578
 5276POPC   C3B68241   1.904  25.862   6.937
 5276POPC   C4B68242   1.604  25.819   7.256
 5277POPC   NC368243  20.832  31.688   5.022
 5277POPC   PO468244  20.512  32.295   5.319
 5277POPC   GL168245  20.747  32.171   5.674
 5277POPC   GL268246  20.452  32.302   5.843
 5277POPC   C1A68247  20.856  32.108   6.129
 5277POPC   D2A68248  20.813  32.294   6.562
 5277POPC   C3A68249  20.727  32.069   6.960
 5277POPC   C4A68250  20.896  32.085   7.374
 5277POPC   C1B68251  20.632  32.586   6.161
 5277POPC   C2B68252  20.531  32.722   6.597
 5277POPC   C3B68253  20.659  32.591   7.039
 5277POPC   C4B68254  21.006  32.720   7.317
 5278POPC   NC368255   9.893  16.453   5.426
 5278POPC   PO468256   9.439  16.865   5.418
 5278POPC   GL168257   9.721  16.974   5.779
 5278POPC   GL268258   9.829  16.651   5.875
 5278POPC   C1A68259   9.603  16.904   6.252
 5278POPC   D2A68260   9.353  16.644   6.548
 5278POPC   C3A68261   9.511  16.583   6.954
 5278POPC   C4A68262   9.558  16.921   7.186
 5278POPC   C1B68263  10.086  16.767   6.224
 5278POPC   C2B68264   9.933  16.736   6.658
 5278POPC   C3B68265  10.034  16.983   7.012
 5278POPC   C4B68266  10.348  16.920   7.340
 5279POPC   NC368267  27.112  35.283   5.442
 5279POPC   PO468268  27.770  35.136   5.559
 5279POPC   GL168269  27.457  35.273   5.839
 5279POPC   GL268270  27.281  34.932   5.792
 5279POPC   C1A68271  27.558  35.443   6.257
 5279POPC   D2A68272  27.604  35.467   6.709
 5279POPC   C3A68273  27.839  35.168   6.954
 5279POPC   C4A68274  27.712  35.176   7.373
 5279POPC   C1B68275  27.364  34.924   6.238
 5279POPC   C2B68276  27.265  34.725   6.649
 5279POPC   C3B68277  27.333  34.987   7.023
 5279POPC   C4B68278  27.266  34.976   7.486
 5280POPC   NC368279  22.846   7.051   5.479
 5280POPC   PO468280  23.153   7.573   5.227
 5280POPC   GL168281  23.035   7.541   5.716
 5280POPC   GL268282  22.901   7.223   5.929
 5280POPC   C1A68283  23.026   7.628   6.181
 5280POPC   D2A68284  23.235   7.734   6.556
 5280POPC   C3A68285  23.126   7.628   6.966
 5280POPC   C4A68286  23.291   7.259   7.147
 5280POPC   C1B68287  22.654   7.276   6.282
 5280POPC   C2B68288  22.701   7.479   6.681
 5280POPC   C3B68289  22.763   7.272   7.082
 5280POPC   C4B68290  22.447   7.031   7.373
 5281POPC   NC368291  40.503  36.614   5.651
 5281POPC   PO468292  39.891  36.604   5.301
 5281POPC   GL168293  40.036  36.897   5.674
 5281POPC   GL268294  40.369  37.092   5.766
 5281POPC   C1A68295  40.000  37.060   6.123
 5281POPC   D2A68296  39.923  37.227   6.540
 5281POPC   C3A68297  39.855  36.932   6.875
 5281POPC   C4A68298  39.987  36.689   7.257
 5281POPC   C1B68299  40.512  37.024   6.197
 5281POPC   C2B68300  40.370  36.862   6.596
 5281POPC   C3B68301  40.352  36.977   7.025
 5281POPC   C4B68302  40.528  37.273   7.286
 5282POPC   NC368303  13.550   9.942   5.466
 5282POPC   PO468304  14.172   9.854   5.590
 5282POPC   GL168305  13.786   9.736   5.873
 5282POPC   GL268306  13.539   9.429   5.850
 5282POPC   C1A68307  13.454   9.903   6.170
 5282POPC   D2A68308  13.364   9.830   6.627
 5282POPC   C3A68309  13.701   9.993   6.928
 5282POPC   C4A68310  13.821   9.904   7.379
 5282POPC   C1B68311  13.331   9.415   6.294
 5282POPC   C2B68312  13.426   9.317   6.741
 5282POPC   C3B68313  13.567   9.538   7.130
 5282POPC   C4B68314  13.447   9.612   7.576
 5283POPC   NC368315  37.453  32.922   5.579
 5283POPC   PO468316  38.126  32.920   5.417
 5283POPC   GL168317  37.882  33.054   5.796
 5283POPC   GL268318  37.879  32.709   5.849
 5283POPC   C1A68319  37.663  33.066   6.228
 5283POPC   D2A68320  37.754  33.172   6.674
 5283POPC   C3A68321  37.409  33.183   6.965
 5283POPC   C4A68322  37.398  33.026   7.378
 5283POPC   C1B68323  38.089  32.785   6.245
 5283POPC   C2B68324  37.947  32.660   6.665
 5283POPC   C3B68325  37.749  32.787   7.064
 5283POPC   C4B68326  37.866  32.825   7.496
 5284POPC   NC368327  44.306  36.175   5.520
 5284POPC   PO468328   0.040  35.929   5.513
 5284POPC   GL168329  44.741  36.050   5.785
 5284POPC   GL268330  44.508  35.762   5.763
 5284POPC   C1A68331  44.713  36.290   6.165
 5284POPC   D2A68332  44.933  36.210   6.551
 5284POPC   C3A68333  44.741  36.206   6.951
 5284POPC   C4A68334  44.981  36.156   7.336
 5284POPC   C1B68335  44.464  35.854   6.200
 5284POPC   C2B68336  44.332  36.169   6.537
 5284POPC   C3B68337  44.250  36.098   6.988
 5284POPC   C4B68338  44.532  35.781   7.188
 5285POPC   NC368339  32.258  22.488   5.425
 5285POPC   PO468340  31.964  23.104   5.449
 5285POPC   GL168341  32.160  22.947   5.869
 5285POPC   GL268342  32.288  22.611   5.941
 5285POPC   C1A68343  32.305  22.939   6.332
 5285POPC   D2A68344  31.978  22.979   6.680
 5285POPC   C3A68345  32.185  22.957   7.075
 5285POPC   C4A68346  32.587  22.781   7.134
 5285POPC   C1B68347  31.950  22.583   6.296
 5285POPC   C2B68348  31.900  22.463   6.715
 5285POPC   C3B68349  31.859  22.567   7.135
 5285POPC   C4B68350  32.157  22.619   7.474
 5286POPC   NC368351  19.682  35.451   5.255
 5286POPC   PO468352  20.297  35.736   5.365
 5286POPC   GL168353  20.163  35.466   5.708
 5286POPC   GL268354  19.802  35.341   5.757
 5286POPC   C1A68355  20.160  35.348   6.142
 5286POPC   D2A68356  19.857  35.348   6.482
 5286POPC   C3A68357  20.050  35.620   6.807
 5286POPC   C4A68358  19.814  35.491   7.135
 5286POPC   C1B68359  19.485  35.238   6.091
 5286POPC   C2B68360  19.389  35.037   6.505
 5286POPC   C3B68361  19.516  35.107   6.934
 5286POPC   C4B68362  19.768  34.988   7.278
 5287POPC   NC368363  26.987  31.726   5.559
 5287POPC   PO468364  26.535  31.218   5.419
 5287POPC   GL168365  26.573  31.471   5.770
 5287POPC   GL268366  26.907  31.365   5.913
 5287POPC   C1A68367  26.454  31.341   6.171
 5287POPC   D2A68368  26.574  31.078   6.489
 5287POPC   C3A68369  26.731  31.323   6.813
 5287POPC   C4A68370  26.771  31.206   7.219
 5287POPC   C1B68371  26.905  31.622   6.289
 5287POPC   C2B68372  27.136  31.714   6.668
 5287POPC   C3B68373  26.951  31.751   7.052
 5287POPC   C4B68374  26.528  31.671   7.170
 5288POPC   NC368375  39.772   4.538   5.542
 5288POPC   PO468376  40.177   3.882   5.687
 5288POPC   GL168377  40.318   4.309   5.877
 5288POPC   GL268378  40.087   4.621   5.946
 5288POPC   C1A68379  40.330   4.373   6.332
 5288POPC   D2A68380  40.054   4.255   6.667
 5288POPC   C3A68381  40.152   4.476   7.046
 5288POPC   C4A68382  39.903   4.322   7.373
 5288POPC   C1B68383  39.645   4.614   6.162
 5288POPC   C2B68384  39.518   4.414   6.554
 5288POPC   C3B68385  39.648   4.492   6.950
 5288POPC   C4B68386  39.559   4.722   7.300
 5289POPC   NC368387  13.989  14.393   5.516
 5289POPC   PO468388  14.589  14.681   5.584
 5289POPC   GL168389  14.383  14.415   5.833
 5289POPC   GL268390  14.411  14.059   5.780
 5289POPC   C1A68391  14.452  14.408   6.243
 5289POPC   D2A68392  14.202  14.597   6.554
 5289POPC   C3A68393  14.395  14.530   6.927
 5289POPC   C4A68394  14.209  14.759   7.249
 5289POPC   C1B68395  14.134  13.968   6.128
 5289POPC   C2B68396  14.215  14.084   6.549
 5289POPC   C3B68397  14.150  13.985   6.966
 5289POPC   C4B68398  14.192  14.236   7.301
 5290POPC   NC368399  34.176  37.486   5.257
 5290POPC   PO468400  33.715  37.882   5.555
 5290POPC   GL168401  33.746  37.664   5.879
 5290POPC   GL268402  34.007  37.463   5.788
 5290POPC   C1A68403  33.544  37.713   6.228
 5290POPC   D2A68404  33.414  38.006   6.517
 5290POPC   C3A68405  33.452  37.762   6.864
 5290POPC   C4A68406  33.673  37.713   7.199
 5290POPC   C1B68407  34.051  37.532   6.254
 5290POPC   C2B68408  33.921  37.758   6.623
 5290POPC   C3B68409  34.144  37.773   7.017
 5290POPC   C4B68410  34.085  37.404   7.225
 5291POPC   NC368411  15.287  33.382   5.386
 5291POPC   PO468412  14.902  32.730   5.259
 5291POPC   GL168413  15.160  32.947   5.637
 5291POPC   GL268414  15.009  33.222   5.880
 5291POPC   C1A68415  15.327  32.932   6.097
 5291POPC   D2A68416  15.220  33.201   6.476
 5291POPC   C3A68417  15.323  32.978   6.849
 5291POPC   C4A68418  15.241  33.037   7.283
 5291POPC   C1B68419  14.841  33.484   6.197
 5291POPC   C2B68420  14.786  33.524   6.638
 5291POPC   C3B68421  14.950  33.313   6.960
 5291POPC   C4B68422  15.000  33.474   7.356
 5292POPC   NC368423  29.253   1.013   5.028
 5292POPC   PO468424  28.864   1.323   5.396
 5292POPC   GL168425  29.006   1.125   5.817
 5292POPC   GL268426  28.770   0.898   5.955
 5292POPC   C1A68427  29.218   1.051   6.249
 5292POPC   D2A68428  29.278   0.939   6.726
 5292POPC   C3A68429  29.107   1.145   7.157
 5292POPC   C4A68430  29.263   1.263   7.586
 5292POPC   C1B68431  28.719   1.037   6.362
 5292POPC   C2B68432  28.732   0.992   6.820
 5292POPC   C3B68433  28.678   0.883   7.254
 5292POPC   C4B68434  28.756   1.129   7.625
 5293POPC   NC368435  32.601  28.849   5.533
 5293POPC   PO468436  32.052  29.001   5.222
 5293POPC   GL168437  32.216  29.208   5.615
 5293POPC   GL268438  32.020  29.435   5.815
 5293POPC   C1A68439  32.342  29.087   6.055
 5293POPC   D2A68440  32.346  29.135   6.494
 5293POPC   C3A68441  32.554  28.991   6.865
 5293POPC   C4A68442  32.284  29.227   7.135
 5293POPC   C1B68443  31.879  29.211   6.201
 5293POPC   C2B68444  31.857  28.971   6.597
 5293POPC   C3B68445  31.814  29.089   7.045
 5293POPC   C4B68446  31.929  29.174   7.508
 5294POPC   NC368447  37.124  26.360   5.393
 5294POPC   PO468448  37.082  25.660   5.584
 5294POPC   GL168449  37.006  25.963   5.852
 5294POPC   GL268450  37.188  25.795   6.093
 5294POPC   C1A68451  36.687  25.982   6.194
 5294POPC   D2A68452  36.454  25.763   6.522
 5294POPC   C3A68453  36.657  25.784   6.955
 5294POPC   C4A68454  36.605  26.140   7.219
 5294POPC   C1B68455  37.143  26.187   6.320
 5294POPC   C2B68456  36.892  26.181   6.697
 5294POPC   C3B68457  37.134  26.266   7.048
 5294POPC   C4B68458  37.392  25.936   7.067
 5295POPC   NC368459   1.801  38.010   5.632
 5295POPC   PO468460   2.491  37.913   5.478
 5295POPC   GL168461   2.224  37.854   5.843
 5295POPC   GL268462   2.037  37.539   5.722
 5295POPC   C1A68463   2.029  38.006   6.254
 5295POPC   D2A68464   2.240  38.173   6.627
 5295POPC   C3A68465   2.088  37.954   6.957
 5295POPC   C4A68466   1.889  37.850   7.329
 5295POPC   C1B68467   1.957  37.502   6.168
 5295POPC   C2B68468   2.117  37.510   6.601
 5295POPC   C3B68469   1.913  37.446   7.004
 5295POPC   C4B68470   1.755  37.355   7.425
 5296POPC   NC368471   7.825  41.636   5.318
 5296POPC   PO468472   8.265  42.035   5.385
 5296POPC   GL168473   8.192  41.741   5.767
 5296POPC   GL268474   8.035  41.395   5.742
 5296POPC   C1A68475   8.307  41.785   6.216
 5296POPC   D2A68476   8.131  41.845   6.629
 5296POPC   C3A68477   8.364  41.873   7.044
 5296POPC   C4A68478   8.191  41.855   7.456
 5296POPC   C1B68479   8.212  41.272   6.134
 5296POPC   C2B68480   8.211  41.328   6.575
 5296POPC   C3B68481   8.064  41.196   6.970
 5296POPC   C4B68482   8.234  41.389   7.280
 5297POPC   NC368483  35.726  27.437   5.381
 5297POPC   PO468484  36.285  27.623   5.229
 5297POPC   GL168485  36.217  27.685   5.697
 5297POPC   GL268486  36.012  27.409   5.831
 5297POPC   C1A68487  36.333  27.610   6.174
 5297POPC   D2A68488  36.370  27.331   6.562
 5297POPC   C3A68489  36.347  27.542   6.975
 5297POPC   C4A68490  36.148  27.897   7.113
 5297POPC   C1B68491  35.842  27.578   6.220
 5297POPC   C2B68492  35.982  27.654   6.631
 5297POPC   C3B68493  35.785  27.554   6.991
 5297POPC   C4B68494  35.883  27.289   7.296
 5298POPC   NC368495  29.261  28.825   5.451
 5298POPC   PO468496  29.112  28.222   5.409
 5298POPC   GL168497  29.033  28.495   5.757
 5298POPC   GL268498  28.891  28.306   5.976
 5298POPC   C1A68499  29.212  28.743   6.108
 5298POPC   D2A68500  29.170  28.800   6.542
 5298POPC   C3A68501  29.268  28.587   6.938
 5298POPC   C4A68502  28.930  28.542   7.214
 5298POPC   C1B68503  29.328  28.274   6.192
 5298POPC   C2B68504  29.447  28.191   6.593
 5298POPC   C3B68505  29.169  28.039   6.888
 5298POPC   C4B68506  29.089  27.998   7.303
 5299POPC   NC368507   4.426  30.689   5.110
 5299POPC   PO468508   4.106  30.291   5.527
 5299POPC   GL168509   4.237  30.658   5.757
 5299POPC   GL268510   4.527  30.883   5.701
 5299POPC   C1A68511   4.295  30.589   6.178
 5299POPC   D2A68512   4.578  30.634   6.512
 5299POPC   C3A68513   4.252  30.527   6.819
 5299POPC   C4A68514   4.201  30.451   7.236
 5299POPC   C1B68515   4.534  31.051   6.172
 5299POPC   C2B68516   4.528  31.123   6.670
 5299POPC   C3B68517   4.426  30.931   7.121
 5299POPC   C4B68518   4.533  31.098   7.555
 5300POPC   NC368519  30.861  10.924   4.846
 5300POPC   PO468520  30.938  10.680   5.431
 5300POPC   GL168521  30.815  10.705   5.823
 5300POPC   GL268522  30.927  10.372   5.938
 5300POPC   C1A68523  30.682  10.762   6.241
 5300POPC   D2A68524  30.789  10.828   6.648
 5300POPC   C3A68525  30.516  10.718   6.971
 5300POPC   C4A68526  30.759  10.534   7.259
 5300POPC   C1B68527  31.007  10.320   6.416
 5300POPC   C2B68528  30.752  10.266   6.810
 5300POPC   C3B68529  30.402  10.221   7.128
 5300POPC   C4B68530  30.479  10.200   7.586
 5301POPC   NC368531  38.876  43.335   5.455
 5301POPC   PO468532  39.522  43.189   5.437
 5301POPC   GL168533  39.363  43.182   5.875
 5301POPC   GL268534  39.021  43.003   5.832
 5301POPC   C1A68535  39.427  43.308   6.348
 5301POPC   D2A68536  39.378  43.453   6.817
 5301POPC   C3A68537  39.162  43.164   7.094
 5301POPC   C4A68538  39.141  42.713   7.114
 5301POPC   C1B68539  38.938  43.343   6.133
 5301POPC   C2B68540  38.907  43.373   6.597
 5301POPC   C3B68541  38.880  43.573   7.013
 5301POPC   C4B68542  39.013  43.550   7.445
 5302POPC   NC368543   4.995  13.741   5.290
 5302POPC   PO468544   5.015  13.116   5.413
 5302POPC   GL168545   4.916  13.441   5.720
 5302POPC   GL268546   5.194  13.627   5.733
 5302POPC   C1A68547   4.843  13.750   6.095
 5302POPC   D2A68548   4.612  13.946   6.467
 5302POPC   C3A68549   4.838  13.910   6.863
 5302POPC   C4A68550   5.062  13.576   7.076
 5302POPC   C1B68551   5.304  13.417   6.087
 5302POPC   C2B68552   5.360  13.357   6.514
 5302POPC   C3B68553   5.543  13.455   6.912
 5302POPC   C4B68554   5.502  13.299   7.329
 5303POPC   NC368555  32.095  12.477   5.410
 5303POPC   PO468556  32.395  11.806   5.384
 5303POPC   GL168557  32.365  12.117   5.754
 5303POPC   GL268558  32.527  12.454   5.759
 5303POPC   C1A68559  32.425  12.051   6.219
 5303POPC   D2A68560  32.575  11.786   6.596
 5303POPC   C3A68561  32.395  11.923   7.005
 5303POPC   C4A68562  31.991  11.991   7.211
 5303POPC   C1B68563  32.266  12.561   6.118
 5303POPC   C2B68564  32.004  12.422   6.470
 5303POPC   C3B68565  32.035  12.483   6.926
 5303POPC   C4B68566  32.313  12.374   7.257
 5304POPC   NC368567  28.722  12.454   5.252
 5304POPC   PO468568  29.325  12.261   5.229
 5304POPC   GL168569  29.233  12.237   5.731
 5304POPC   GL268570  28.961  12.456   5.702
 5304POPC   C1A68571  29.368  12.130   6.220
 5304POPC   D2A68572  29.225  12.109   6.686
 5304POPC   C3A68573  29.394  12.078   7.118
 5304POPC   C4A68574  29.370  11.688   7.372
 5304POPC   C1B68575  29.063  12.569   6.130
 5304POPC   C2B68576  28.950  12.523   6.575
 5304POPC   C3B68577  29.108  12.600   7.009
 5304POPC   C4B68578  29.257  12.517   7.462
 5305POPC   NC368579   0.710   5.477   5.432
 5305POPC   PO468580   0.083   5.038   5.380
 5305POPC   GL168581   0.377   4.962   5.723
 5305POPC   GL268582   0.392   5.320   5.831
 5305POPC   C1A68583   0.500   4.966   6.188
 5305POPC   D2A68584   0.723   5.267   6.474
 5305POPC   C3A68585   0.751   5.139   6.914
 5305POPC   C4A68586   0.509   4.855   7.187
 5305POPC   C1B68587   0.245   5.400   6.277
 5305POPC   C2B68588   0.260   5.197   6.718
 5305POPC   C3B68589   0.346   5.331   7.172
 5305POPC   C4B68590   0.337   5.491   7.619
 5306POPC   NC368591  14.797   8.628   5.610
 5306POPC   PO468592  14.315   9.013   5.454
 5306POPC   GL168593  14.501   9.188   5.790
 5306POPC   GL268594  14.822   9.109   5.776
 5306POPC   C1A68595  14.439   9.263   6.191
 5306POPC   D2A68596  14.396   9.003   6.552
 5306POPC   C3A68597  14.237   9.185   6.926
 5306POPC   C4A68598  14.169   8.968   7.330
 5306POPC   C1B68599  14.793   8.905   6.195
 5306POPC   C2B68600  14.920   8.881   6.617
 5306POPC   C3B68601  14.688   8.925   6.980
 5306POPC   C4B68602  14.693   8.818   7.380
 5307POPC   NC368603   8.180   6.596   5.173
 5307POPC   PO468604   8.423   6.320   5.736
 5307POPC   GL168605   8.253   6.670   5.861
 5307POPC   GL268606   8.593   6.870   5.845
 5307POPC   C1A68607   8.060   6.557   6.258
 5307POPC   D2A68608   8.241   6.307   6.623
 5307POPC   C3A68609   8.130   6.448   7.057
 5307POPC   C4A68610   8.053   6.869   7.213
 5307POPC   C1B68611   8.490   6.811   6.286
 5307POPC   C2B68612   8.249   6.839   6.680
 5307POPC   C3B68613   8.527   6.949   7.024
 5307POPC   C4B68614   8.521   6.751   7.412
 5308POPC   NC368615   6.077  40.126   5.470
 5308POPC   PO468616   5.636  39.615   5.351
 5308POPC   GL168617   5.837  39.750   5.733
 5308POPC   GL268618   6.146  39.612   5.819
 5308POPC   C1A68619   5.752  40.005   6.122
 5308POPC   D2A68620   5.926  40.184   6.520
 5308POPC   C3A68621   5.786  40.056   6.940
 5308POPC   C4A68622   5.879  40.105   7.385
 5308POPC   C1B68623   6.143  39.711   6.279
 5308POPC   C2B68624   6.158  39.759   6.725
 5308POPC   C3B68625   6.167  39.740   7.189
 5308POPC   C4B68626   6.180  39.747   7.648
 5309POPC   NC368627  24.078   5.029   5.520
 5309POPC   PO468628  24.678   5.208   5.479
 5309POPC   GL168629  24.521   5.108   5.895
 5309POPC   GL268630  24.404   4.786   5.872
 5309POPC   C1A68631  24.727   5.063   6.312
 5309POPC   D2A68632  24.823   5.186   6.737
 5309POPC   C3A68633  24.503   5.364   7.022
 5309POPC   C4A68634  24.591   5.370   7.493
 5309POPC   C1B68635  24.297   4.783   6.304
 5309POPC   C2B68636  24.442   4.830   6.739
 5309POPC   C3B68637  24.247   4.630   7.082
 5309POPC   C4B68638  24.233   4.868   7.460
 5310POPC   NC368639  18.014  24.733   5.491
 5310POPC   PO468640  18.628  24.749   5.108
 5310POPC   GL168641  18.597  24.592   5.570
 5310POPC   GL268642  18.363  24.289   5.592
 5310POPC   C1A68643  18.548  24.644   6.046
 5310POPC   D2A68644  18.229  24.756   6.391
 5310POPC   C3A68645  18.287  24.743   6.858
 5310POPC   C4A68646  17.947  24.644   7.151
 5310POPC   C1B68647  18.343  24.144   6.039
 5310POPC   C2B68648  18.259  24.176   6.494
 5310POPC   C3B68649  18.207  24.206   6.949
 5310POPC   C4B68650  18.582  24.365   7.130
 5311POPC   NC368651   6.424  42.091   5.423
 5311POPC   PO468652   6.328  42.832   5.510
 5311POPC   GL168653   6.584  42.646   5.848
 5311POPC   GL268654   6.686  42.261   5.861
 5311POPC   C1A68655   6.475  42.492   6.262
 5311POPC   D2A68656   6.649  42.217   6.531
 5311POPC   C3A68657   6.468  42.191   6.850
 5311POPC   C4A68658   6.483  42.376   7.182
 5311POPC   C1B68659   7.001  42.384   6.229
 5311POPC   C2B68660   7.108  42.473   6.664
 5311POPC   C3B68661   6.942  42.258   7.013
 5311POPC   C4B68662   6.737  41.942   7.260
 5312POPC   NC368663   2.719  14.176   5.210
 5312POPC   PO468664   3.229  14.495   5.392
 5312POPC   GL168665   3.019  14.224   5.712
 5312POPC   GL268666   2.647  14.209   5.782
 5312POPC   C1A68667   3.065  14.132   6.162
 5312POPC   D2A68668   2.962  13.929   6.558
 5312POPC   C3A68669   3.022  14.160   6.918
 5312POPC   C4A68670   3.040  14.187   7.336
 5312POPC   C1B68671   2.560  14.368   6.226
 5312POPC   C2B68672   2.603  14.383   6.694
 5312POPC   C3B68673   2.570  14.324   7.147
 5312POPC   C4B68674   2.476  14.627   7.467
 5313POPC   NC368675  14.563  11.802   5.441
 5313POPC   PO468676  14.189  12.450   5.535
 5313POPC   GL168677  14.039  12.159   5.865
 5313POPC   GL268678  14.289  11.883   5.869
 5313POPC   C1A68679  14.061  12.195   6.307
 5313POPC   D2A68680  14.269  11.981   6.603
 5313POPC   C3A68681  14.290  12.143   6.992
 5313POPC   C4A68682  14.539  12.095   7.326
 5313POPC   C1B68683  14.528  12.129   6.142
 5313POPC   C2B68684  14.762  12.058   6.514
 5313POPC   C3B68685  14.793  12.287   6.917
 5313POPC   C4B68686  15.101  12.186   7.215
 5314POPC   NC368687  13.468  40.426   5.519
 5314POPC   PO468688  13.376  41.073   5.551
 5314POPC   GL168689  13.632  40.885   5.871
 5314POPC   GL268690  13.761  40.563   5.945
 5314POPC   C1A68691  13.510  40.952   6.280
 5314POPC   D2A68692  13.347  40.758   6.646
 5314POPC   C3A68693  13.587  40.728   7.016
 5314POPC   C4A68694  13.721  40.883   7.434
 5314POPC   C1B68695  13.772  40.521   6.408
 5314POPC   C2B68696  13.999  40.482   6.784
 5314POPC   C3B68697  13.955  40.448   7.204
 5314POPC   C4B68698  13.519  40.389   7.404
 5315POPC   NC368699  35.487  15.391   5.276
 5315POPC   PO468700  35.096  14.960   5.559
 5315POPC   GL168701  35.355  15.150   5.856
 5315POPC   GL268702  35.400  15.513   5.765
 5315POPC   C1A68703  35.385  15.069   6.324
 5315POPC   D2A68704  35.624  15.034   6.700
 5315POPC   C3A68705  35.437  15.050   7.127
 5315POPC   C4A68706  35.030  14.906   7.280
 5315POPC   C1B68707  35.260  15.563   6.188
 5315POPC   C2B68708  35.431  15.511   6.606
 5315POPC   C3B68709  35.570  15.524   7.043
 5315POPC   C4B68710  35.331  15.459   7.423
 5316POPC   NC368711  39.361  34.850   5.038
 5316POPC   PO468712  39.268  34.293   5.380
 5316POPC   GL168713  39.192  34.390   5.786
 5316POPC   GL268714  39.391  34.146   5.876
 5316POPC   C1A68715  39.148  34.699   6.113
 5316POPC   D2A68716  39.413  34.939   6.357
 5316POPC   C3A68717  39.424  34.943   6.817
 5316POPC   C4A68718  39.220  34.808   7.177
 5316POPC   C1B68719  39.558  34.423   6.170
 5316POPC   C2B68720  39.617  34.521   6.572
 5316POPC   C3B68721  39.489  34.426   6.974
 5316POPC   C4B68722  39.545  34.481   7.420
 5317POPC   NC368723  13.792  27.339   5.521
 5317POPC   PO468724  13.340  27.870   5.609
 5317POPC   GL168725  13.550  27.619   5.876
 5317POPC   GL268726  13.876  27.783   5.801
 5317POPC   C1A68727  13.765  27.480   6.244
 5317POPC   D2A68728  13.829  27.658   6.661
 5317POPC   C3A68729  13.641  27.419   6.981
 5317POPC   C4A68730  13.867  27.245   7.304
 5317POPC   C1B68731  13.743  27.982   6.193
 5317POPC   C2B68732  13.460  27.967   6.528
 5317POPC   C3B68733  13.338  27.864   6.933
 5317POPC   C4B68734  13.538  27.815   7.314
 5318POPC   NC368735  15.682  14.108   5.554
 5318POPC   PO468736  15.024  13.800   5.394
 5318POPC   GL168737  15.234  13.882   5.791
 5318POPC   GL268738  15.084  13.606   5.967
 5318POPC   C1A68739  15.443  13.916   6.199
 5318POPC   D2A68740  15.223  13.864   6.596
 5318POPC   C3A68741  15.440  13.856   6.991
 5318POPC   C4A68742  15.248  13.714   7.356
 5318POPC   C1B68743  14.846  13.389   6.270
 5318POPC   C2B68744  14.842  13.511   6.683
 5318POPC   C3B68745  14.938  13.371   7.085
 5318POPC   C4B68746  14.911  13.366   7.512
 5319POPC   NC368747  29.964  15.237   5.445
 5319POPC   PO468748  30.447  14.715   5.475
 5319POPC   GL168749  30.267  15.031   5.814
 5319POPC   GL268750  30.272  15.431   5.802
 5319POPC   C1A68751  29.893  15.147   6.096
 5319POPC   D2A68752  29.720  15.273   6.495
 5319POPC   C3A68753  29.832  15.038   6.849
 5319POPC   C4A68754  29.874  15.118   7.263
 5319POPC   C1B68755  30.364  15.339   6.229
 5319POPC   C2B68756  30.277  15.254   6.679
 5319POPC   C3B68757  30.365  15.267   7.120
 5319POPC   C4B68758  30.364  15.003   7.463
 5320POPC   NC368759  36.442  37.987   5.551
 5320POPC   PO468760  36.157  38.493   5.183
 5320POPC   GL168761  36.361  38.551   5.634
 5320POPC   GL268762  36.509  38.333   5.881
 5320POPC   C1A68763  36.179  38.612   6.112
 5320POPC   D2A68764  35.953  38.710   6.483
 5320POPC   C3A68765  36.083  38.631   6.920
 5320POPC   C4A68766  35.919  38.572   7.339
 5320POPC   C1B68767  36.208  38.099   6.148
 5320POPC   C2B68768  36.170  38.242   6.554
 5320POPC   C3B68769  36.211  38.098   6.941
 5320POPC   C4B68770  36.338  38.285   7.306
 5321POPC   NC368771  19.476  36.427   5.330
 5321POPC   PO468772  18.800  36.181   5.464
 5321POPC   GL168773  18.983  36.147   5.930
 5321POPC   GL268774  19.352  36.026   5.967
 5321POPC   C1A68775  19.109  36.201   6.377
 5321POPC   D2A68776  19.295  36.207   6.780
 5321POPC   C3A68777  19.073  36.228   7.155
 5321POPC   C4A68778  19.131  36.324   7.593
 5321POPC   C1B68779  19.426  35.713   6.296
 5321POPC   C2B68780  19.562  35.695   6.724
 5321POPC   C3B68781  19.465  35.862   7.122
 5321POPC   C4B68782  19.267  35.846   7.467
 5322POPC   NC368783  27.090  13.919   5.468
 5322POPC   PO468784  26.467  13.712   5.185
 5322POPC   GL168785  26.593  13.771   5.634
 5322POPC   GL268786  26.343  13.951   5.756
 5322POPC   C1A68787  26.714  13.664   6.092
 5322POPC   D2A68788  26.836  13.421   6.470
 5322POPC   C3A68789  26.748  13.491   6.906
 5322POPC   C4A68790  27.015  13.576   7.274
 5322POPC   C1B68791  26.279  13.947   6.222
 5322POPC   C2B68792  26.565  13.908   6.601
 5322POPC   C3B68793  26.833  14.010   6.996
 5322POPC   C4B68794  26.862  14.006   7.477
 5323POPC   NC368795  24.049  18.165   5.413
 5323POPC   PO468796  24.634  18.383   5.493
 5323POPC   GL168797  24.584  18.042   5.763
 5323POPC   GL268798  24.231  17.991   5.877
 5323POPC   C1A68799  24.618  17.980   6.196
 5323POPC   D2A68800  24.291  18.030   6.494
 5323POPC   C3A68801  24.349  18.104   6.922
 5323POPC   C4A68802  24.671  18.148   7.228
 5323POPC   C1B68803  24.075  18.347   6.170
 5323POPC   C2B68804  24.251  18.531   6.601
 5323POPC   C3B68805  24.362  18.607   7.066
 5323POPC   C4B68806  24.210  18.532   7.518
 5324POPC   NC368807  32.487  13.880   5.659
 5324POPC   PO468808  32.989  13.501   5.313
 5324POPC   GL168809  33.155  13.459   5.731
 5324POPC   GL268810  33.160  13.823   5.769
 5324POPC   C1A68811  33.029  13.443   6.178
 5324POPC   D2A68812  32.889  13.644   6.576
 5324POPC   C3A68813  33.022  13.448   7.006
 5324POPC   C4A68814  33.055  13.674   7.454
 5324POPC   C1B68815  32.969  14.015   6.149
 5324POPC   C2B68816  33.133  14.147   6.551
 5324POPC   C3B68817  33.026  14.018   6.981
 5324POPC   C4B68818  33.040  14.189   7.411
 5325POPC   NC368819   5.464  17.043   5.638
 5325POPC   PO468820   4.987  16.685   5.380
 5325POPC   GL168821   5.032  16.830   5.764
 5325POPC   GL268822   5.290  16.572   5.819
 5325POPC   C1A68823   5.139  16.952   6.195
 5325POPC   D2A68824   5.051  17.086   6.606
 5325POPC   C3A68825   5.277  17.080   6.983
 5325POPC   C4A68826   5.027  16.939   7.327
 5325POPC   C1B68827   4.957  16.455   6.103
 5325POPC   C2B68828   4.971  16.574   6.507
 5325POPC   C3B68829   4.980  16.649   6.916
 5325POPC   C4B68830   4.955  16.421   7.298
 5326POPC   NC368831  24.630  29.173   5.229
 5326POPC   PO468832  24.039  28.974   5.471
 5326POPC   GL168833  24.367  29.101   5.761
 5326POPC   GL268834  24.595  29.364   5.922
 5326POPC   C1A68835  24.338  29.014   6.198
 5326POPC   D2A68836  24.615  29.218   6.483
 5326POPC   C3A68837  24.403  29.275   6.869
 5326POPC   C4A68838  24.538  29.185   7.265
 5326POPC   C1B68839  24.811  28.951   6.026
 5326POPC   C2B68840  24.931  28.804   6.471
 5326POPC   C3B68841  24.767  28.860   6.927
 5326POPC   C4B68842  24.852  28.783   7.429
 5327POPC   NC368843  19.668   3.457   5.475
 5327POPC   PO468844  20.128   3.831   5.718
 5327POPC   GL168845  19.862   3.585   5.947
 5327POPC   GL268846  19.936   3.225   5.849
 5327POPC   C1A68847  19.596   3.766   6.270
 5327POPC   D2A68848  19.560   3.868   6.702
 5327POPC   C3A68849  19.849   3.672   7.019
 5327POPC   C4A68850  20.051   3.946   7.322
 5327POPC   C1B68851  19.722   3.116   6.207
 5327POPC   C2B68852  19.653   3.340   6.610
 5327POPC   C3B68853  19.682   3.174   7.032
 5327POPC   C4B68854  20.139   3.104   7.163
 5328POPC   NC368855  14.954  16.472   5.101
 5328POPC   PO468856  15.520  16.126   5.345
 5328POPC   GL168857  15.407  16.036   5.747
 5328POPC   GL268858  15.199  16.286   5.815
 5328POPC   C1A68859  15.231  15.850   6.126
 5328POPC   D2A68860  15.164  15.533   6.435
 5328POPC   C3A68861  14.928  15.745   6.767
 5328POPC   C4A68862  15.160  15.936   7.066
 5328POPC   C1B68863  15.534  16.296   6.165
 5328POPC   C2B68864  15.496  16.103   6.581
 5328POPC   C3B68865  15.470  16.333   6.972
 5328POPC   C4B68866  15.448  16.199   7.394
 5329POPC   NC368867  35.966  29.036   5.084
 5329POPC   PO468868  36.280  29.418   5.533
 5329POPC   GL168869  36.321  29.282   5.888
 5329POPC   GL268870  36.268  28.929   5.830
 5329POPC   C1A68871  36.277  29.460   6.281
 5329POPC   D2A68872  36.463  29.338   6.680
 5329POPC   C3A68873  36.202  29.428   7.026
 5329POPC   C4A68874  36.165  29.241   7.428
 5329POPC   C1B68875  36.022  29.003   6.213
 5329POPC   C2B68876  35.974  29.140   6.620
 5329POPC   C3B68877  36.135  28.907   6.933
 5329POPC   C4B68878  36.033  28.734   7.309
 5330POPC   NC368879   7.877  40.720   5.428
 5330POPC   PO468880   8.579  40.644   5.390
 5330POPC   GL168881   8.333  40.538   5.754
 5330POPC   GL268882   8.152  40.830   5.875
 5330POPC   C1A68883   8.390  40.478   6.195
 5330POPC   D2A68884   8.312  40.833   6.449
 5330POPC   C3A68885   8.267  40.747   6.867
 5330POPC   C4A68886   8.039  40.702   7.231
 5330POPC   C1B68887   8.606  40.935   6.031
 5330POPC   C2B68888   8.836  41.012   6.443
 5330POPC   C3B68889   8.646  41.099   6.835
 5330POPC   C4B68890   8.515  40.973   7.246
 5331POPC   NC368891  34.807  14.716   5.218
 5331POPC   PO468892  34.478  14.232   5.559
 5331POPC   GL168893  34.371  14.518   5.818
 5331POPC   GL268894  34.663  14.713   5.707
 5331POPC   C1A68895  34.324  14.318   6.217
 5331POPC   D2A68896  34.150  14.283   6.610
 5331POPC   C3A68897  34.465  14.307   6.915
 5331POPC   C4A68898  34.467  14.593   7.217
 5331POPC   C1B68899  34.785  14.552   6.118
 5331POPC   C2B68900  34.568  14.651   6.524
 5331POPC   C3B68901  34.764  14.786   6.867
 5331POPC   C4B68902  34.930  14.436   7.120
 5332POPC   NC368903  34.870  25.452   5.611
 5332POPC   PO468904  35.220  24.914   5.690
 5332POPC   GL168905  35.535  25.182   5.843
 5332POPC   GL268906  35.629  25.513   5.753
 5332POPC   C1A68907  35.618  25.305   6.234
 5332POPC   D2A68908  35.607  25.048   6.578
 5332POPC   C3A68909  35.343  25.133   6.935
 5332POPC   C4A68910  35.410  25.351   7.275
 5332POPC   C1B68911  35.337  25.732   6.039
 5332POPC   C2B68912  35.136  25.839   6.443
 5332POPC   C3B68913  35.304  25.769   6.876
 5332POPC   C4B68914  35.399  25.844   7.313
 5333POPC   NC368915   4.615  15.270   5.462
 5333POPC   PO468916   4.094  15.085   5.096
 5333POPC   GL168917   4.132  15.402   5.570
 5333POPC   GL268918   4.417  15.274   5.910
 5333POPC   C1A68919   4.056  15.563   6.049
 5333POPC   D2A68920   4.324  15.430   6.435
 5333POPC   C3A68921   4.260  15.647   6.841
 5333POPC   C4A68922   4.205  15.520   7.282
 5333POPC   C1B68923   4.711  15.093   6.239
 5333POPC   C2B68924   4.675  15.109   6.701
 5333POPC   C3B68925   4.620  15.249   7.127
 5333POPC   C4B68926   4.780  15.160   7.554
 5334POPC   NC368927  19.972  30.419   5.572
 5334POPC   PO468928  19.706  31.023   5.445
 5334POPC   GL168929  19.930  30.906   5.801
 5334POPC   GL268930  19.679  31.113   5.960
 5334POPC   C1A68931  20.098  30.766   6.209
 5334POPC   D2A68932  19.956  30.610   6.603
 5334POPC   C3A68933  20.163  30.737   6.975
 5334POPC   C4A68934  20.002  30.542   7.318
 5334POPC   C1B68935  19.587  30.846   6.281
 5334POPC   C2B68936  19.596  30.975   6.682
 5334POPC   C3B68937  19.623  30.784   7.039
 5334POPC   C4B68938  19.698  30.925   7.437
 5335POPC   NC368939   5.900  33.596   5.380
 5335POPC   PO468940   5.800  34.249   5.284
 5335POPC   GL168941   5.899  34.028   5.710
 5335POPC   GL268942   5.672  33.747   5.801
 5335POPC   C1A68943   5.958  33.883   6.180
 5335POPC   D2A68944   5.779  33.828   6.605
 5335POPC   C3A68945   6.006  33.826   7.043
 5335POPC   C4A68946   5.653  33.856   7.353
 5335POPC   C1B68947   5.611  33.486   6.176
 5335POPC   C2B68948   5.425  33.420   6.601
 5335POPC   C3B68949   5.634  33.499   6.984
 5335POPC   C4B68950   5.966  33.273   7.174
 5336POPC   NC368951  15.978  26.403   5.401
 5336POPC   PO468952  15.880  27.117   5.365
 5336POPC   GL168953  15.897  26.856   5.728
 5336POPC   GL268954  15.607  26.617   5.755
 5336POPC   C1A68955  15.953  27.018   6.160
 5336POPC   D2A68956  15.767  26.959   6.563
 5336POPC   C3A68957  16.030  26.713   6.813
 5336POPC   C4A68958  16.107  26.730   7.248
 5336POPC   C1B68959  15.733  26.557   6.205
 5336POPC   C2B68960  15.572  26.487   6.642
 5336POPC   C3B68961  15.733  26.382   7.073
 5336POPC   C4B68962  15.696  26.604   7.495
 5337POPC   NC368963  31.632  18.630   5.633
 5337POPC   PO468964  31.645  19.192   5.223
 5337POPC   GL168965  31.224  19.118   5.626
 5337POPC   GL268966  31.221  19.424   5.817
 5337POPC   C1A68967  31.240  19.084   6.183
 5337POPC   D2A68968  31.547  19.275   6.530
 5337POPC   C3A68969  31.540  19.032   6.926
 5337POPC   C4A68970  31.288  18.653   6.971
 5337POPC   C1B68971  31.212  19.604   6.231
 5337POPC   C2B68972  31.085  19.522   6.637
 5337POPC   C3B68973  31.248  19.443   7.026
 5337POPC   C4B68974  31.469  19.308   7.414
 5338POPC   NC368975  21.164  28.367   5.270
 5338POPC   PO468976  21.750  28.249   5.628
 5338POPC   GL168977  21.330  28.274   5.765
 5338POPC   GL268978  21.222  27.967   5.676
 5338POPC   C1A68979  21.285  28.435   6.169
 5338POPC   D2A68980  21.586  28.292   6.469
 5338POPC   C3A68981  21.668  28.547   6.809
 5338POPC   C4A68982  21.437  28.534   7.200
 5338POPC   C1B68983  21.155  27.937   6.144
 5338POPC   C2B68984  21.072  28.144   6.543
 5338POPC   C3B68985  21.330  28.125   6.904
 5338POPC   C4B68986  21.351  28.006   7.341
 5339POPC   NC368987  31.999  42.617   5.359
 5339POPC   PO468988  32.510  42.187   5.475
 5339POPC   GL168989  32.347  42.390   5.806
 5339POPC   GL268990  32.034  42.262   5.759
 5339POPC   C1A68991  32.423  42.308   6.243
 5339POPC   D2A68992  32.327  42.501   6.651
 5339POPC   C3A68993  32.365  42.352   7.064
 5339POPC   C4A68994  32.302  42.069   7.397
 5339POPC   C1B68995  31.854  42.362   6.161
 5339POPC   C2B68996  31.867  42.639   6.526
 5339POPC   C3B68997  31.892  42.501   6.921
 5339POPC   C4B68998  32.007  42.732   7.263
 5340POPC   NC368999  15.727  16.544   5.230
 5340POPC   PO469000  16.085  17.036   5.446
 5340POPC   GL169001  16.126  16.942   5.846
 5340POPC   GL269002  16.173  16.602   5.842
 5340POPC   C1A69003  16.290  16.903   6.266
 5340POPC   D2A69004  16.279  16.728   6.668
 5340POPC   C3A69005  16.050  16.960   7.000
 5340POPC   C4A69006  15.758  17.220   7.223
 5340POPC   C1B69007  16.044  16.448   6.227
 5340POPC   C2B69008  15.848  16.463   6.630
 5340POPC   C3B69009  16.027  16.444   7.044
 5340POPC   C4B69010  16.322  16.272   7.382
 5341POPC   NC369011  14.686  27.003   5.437
 5341POPC   PO469012  14.546  26.355   5.349
 5341POPC   GL169013  14.641  26.567   5.720
 5341POPC   GL269014  14.348  26.813   5.820
 5341POPC   C1A69015  14.748  26.694   6.117
 5341POPC   D2A69016  14.433  26.844   6.410
 5341POPC   C3A69017  14.384  26.699   6.832
 5341POPC   C4A69018  14.707  26.771   7.132
 5341POPC   C1B69019  14.069  27.068   6.134
 5341POPC   C2B69020  14.163  27.279   6.546
 5341POPC   C3B69021  14.327  27.193   6.966
 5341POPC   C4B69022  14.232  26.898   7.296
 5342POPC   NC369023  38.914  10.752   5.382
 5342POPC   PO469024  38.535  10.178   5.437
 5342POPC   GL169025  38.405  10.369   5.855
 5342POPC   GL269026  38.282  10.713   5.862
 5342POPC   C1A69027  38.493  10.498   6.284
 5342POPC   D2A69028  38.619  10.401   6.688
 5342POPC   C3A69029  38.462  10.586   7.044
 5342POPC   C4A69030  38.425  10.362   7.464
 5342POPC   C1B69031  38.062  10.764   6.226
 5342POPC   C2B69032  38.279  10.858   6.600
 5342POPC   C3B69033  38.077  10.917   6.944
 5342POPC   C4B69034  38.042  10.676   7.318
 5343POPC   NC369035  40.203  41.380   5.340
 5343POPC   PO469036  39.829  41.957   5.283
 5343POPC   GL169037  39.966  41.773   5.699
 5343POPC   GL269038  39.833  41.430   5.727
 5343POPC   C1A69039  39.861  41.739   6.164
 5343POPC   D2A69040  39.678  41.972   6.512
 5343POPC   C3A69041  39.673  41.808   6.918
 5343POPC   C4A69042  39.946  41.624   7.191
 5343POPC   C1B69043  40.166  41.339   6.031
 5343POPC   C2B69044  40.162  41.221   6.463
 5343POPC   C3B69045  40.145  41.288   6.871
 5343POPC   C4B69046  40.271  41.231   7.289
 5344POPC   NC369047  33.564  28.058   5.521
 5344POPC   PO469048  33.892  28.620   5.356
 5344POPC   GL169049  33.889  28.402   5.797
 5344POPC   GL269050  33.949  28.024   5.870
 5344POPC   C1A69051  33.985  28.371   6.264
 5344POPC   D2A69052  33.833  28.623   6.603
 5344POPC   C3A69053  33.802  28.445   7.010
 5344POPC   C4A69054  34.197  28.521   7.205
 5344POPC   C1B69055  33.572  28.068   6.165
 5344POPC   C2B69056  33.541  28.185   6.587
 5344POPC   C3B69057  33.303  28.189   6.975
 5344POPC   C4B69058  33.569  28.033   7.261
 5345POPC   NC369059  23.386  18.757   5.218
 5345POPC   PO469060  23.698  19.277   4.961
 5345POPC   GL169061  23.659  19.114   5.495
 5345POPC   GL269062  23.406  18.861   5.717
 5345POPC   C1A69063  23.829  18.950   5.959
 5345POPC   D2A69064  23.855  19.008   6.439
 5345POPC   C3A69065  23.829  18.741   6.802
 5345POPC   C4A69066  23.939  18.845   7.222
 5345POPC   C1B69067  23.361  18.987   6.178
 5345POPC   C2B69068  23.415  19.241   6.576
 5345POPC   C3B69069  23.598  19.161   6.984
 5345POPC   C4B69070  23.431  18.837   7.203
 5346POPC   NC369071  23.299   1.970   5.304
 5346POPC   PO469072  23.948   1.636   5.418
 5346POPC   GL169073  23.786   1.938   5.761
 5346POPC   GL269074  23.419   2.075   5.817
 5346POPC   C1A69075  23.892   2.132   6.153
 5346POPC   D2A69076  23.751   2.174   6.575
 5346POPC   C3A69077  24.029   2.073   6.860
 5346POPC   C4A69078  23.896   1.994   7.247
 5346POPC   C1B69079  23.401   1.972   6.238
 5346POPC   C2B69080  23.245   2.165   6.607
 5346POPC   C3B69081  23.370   2.106   7.016
 5346POPC   C4B69082  23.188   2.480   7.222
 5347POPC   NC369083  30.987  26.252   5.456
 5347POPC   PO469084  30.403  26.011   5.464
 5347POPC   GL169085  30.568  26.154   5.828
 5347POPC   GL269086  30.874  26.035   5.890
 5347POPC   C1A69087  30.432  25.959   6.207
 5347POPC   D2A69088  30.602  25.869   6.597
 5347POPC   C3A69089  30.410  25.938   6.993
 5347POPC   C4A69090  30.294  25.896   7.432
 5347POPC   C1B69091  31.008  26.116   6.284
 5347POPC   C2B69092  31.098  25.909   6.617
 5347POPC   C3B69093  31.034  26.084   6.965
 5347POPC   C4B69094  30.808  26.036   7.292
 5348POPC   NC369095  16.334   7.148   5.478
 5348POPC   PO469096  15.674   7.196   5.368
 5348POPC   GL169097  15.643   7.411   5.789
 5348POPC   GL269098  16.012   7.409   5.803
 5348POPC   C1A69099  15.731   7.535   6.252
 5348POPC   D2A69100  15.688   7.563   6.727
 5348POPC   C3A69101  15.995   7.702   7.043
 5348POPC   C4A69102  16.121   7.445   7.405
 5348POPC   C1B69103  16.049   7.112   6.121
 5348POPC   C2B69104  15.993   7.175   6.567
 5348POPC   C3B69105  15.938   7.179   7.000
 5348POPC   C4B69106  16.139   6.944   7.333
 5349POPC   NC369107   6.267   6.521   5.526
 5349POPC   PO469108   5.737   6.895   5.462
 5349POPC   GL169109   5.834   6.666   5.867
 5349POPC   GL269110   5.823   6.282   5.879
 5349POPC   C1A69111   6.032   6.563   6.259
 5349POPC   D2A69112   6.200   6.816   6.603
 5349POPC   C3A69113   6.058   6.770   7.023
 5349POPC   C4A69114   6.235   6.577   7.410
 5349POPC   C1B69115   5.555   6.357   6.195
 5349POPC   C2B69116   5.571   6.685   6.483
 5349POPC   C3B69117   5.543   6.627   6.922
 5349POPC   C4B69118   5.513   6.210   7.077
 5350POPC   NC369119  26.884  39.101   5.367
 5350POPC   PO469120  26.803  39.677   5.155
 5350POPC   GL169121  26.888  39.530   5.646
 5350POPC   GL269122  26.589  39.289   5.776
 5350POPC   C1A69123  27.011  39.275   6.051
 5350POPC   D2A69124  26.852  39.169   6.480
 5350POPC   C3A69125  27.013  39.333   6.866
 5350POPC   C4A69126  26.994  39.135   7.264
 5350POPC   C1B69127  26.581  39.511   6.218
 5350POPC   C2B69128  26.536  39.564   6.687
 5350POPC   C3B69129  26.532  39.294   7.072
 5350POPC   C4B69130  26.467  39.376   7.549
 5351POPC   NC369131  44.046  23.661   5.317
 5351POPC   PO469132  43.431  23.872   5.428
 5351POPC   GL169133  43.646  23.591   5.730
 5351POPC   GL269134  43.957  23.800   5.784
 5351POPC   C1A69135  43.815  23.516   6.172
 5351POPC   D2A69136  43.930  23.745   6.530
 5351POPC   C3A69137  44.212  23.601   6.857
 5351POPC   C4A69138  44.050  23.440   7.242
 5351POPC   C1B69139  43.792  24.087   6.072
 5351POPC   C2B69140  43.680  24.228   6.466
 5351POPC   C3B69141  43.638  24.007   6.841
 5351POPC   C4B69142  43.930  23.924   7.172
 5352POPC   NC369143  17.717  10.434   5.292
 5352POPC   PO469144  17.339  10.921   5.089
 5352POPC   GL169145  17.362  10.656   5.551
 5352POPC   GL269146  17.326  10.248   5.603
 5352POPC   C1A69147  17.620  10.522   5.949
 5352POPC   D2A69148  17.690  10.443   6.431
 5352POPC   C3A69149  17.508  10.604   6.875
 5352POPC   C4A69150  17.664  10.740   7.316
 5352POPC   C1B69151  17.341  10.089   6.057
 5352POPC   C2B69152  17.296  10.114   6.538
 5352POPC   C3B69153  17.510  10.096   6.966
 5352POPC   C4B69154  17.419  10.203   7.419
 5353POPC   NC369155  36.986  11.716   5.332
 5353POPC   PO469156  37.005  11.060   5.227
 5353POPC   GL169157  36.919  11.242   5.645
 5353POPC   GL269158  36.574  11.247   5.753
 5353POPC   C1A69159  36.963  11.259   6.113
 5353POPC   D2A69160  36.929  11.453   6.528
 5353POPC   C3A69161  37.158  11.338   6.858
 5353POPC   C4A69162  37.186  11.424   7.248
 5353POPC   C1B69163  36.496  11.448   6.155
 5353POPC   C2B69164  36.478  11.228   6.527
 5353POPC   C3B69165  36.636  11.257   6.908
 5353POPC   C4B69166  36.655  11.350   7.330
 5354POPC   NC369167  43.575   1.085   5.327
 5354POPC   PO469168  43.868   1.686   5.441
 5354POPC   GL169169  43.750   1.401   5.794
 5354POPC   GL269170  43.934   1.077   5.768
 5354POPC   C1A69171  43.599   1.258   6.229
 5354POPC   D2A69172  43.741   1.082   6.642
 5354POPC   C3A69173  43.713   1.243   7.087
 5354POPC   C4A69174  43.688   0.990   7.474
 5354POPC   C1B69175  44.006   0.881   6.189
 5354POPC   C2B69176  44.121   0.682   6.582
 5354POPC   C3B69177  44.069   0.879   6.997
 5354POPC   C4B69178  44.223   1.238   7.235
 5355POPC   NC369179  11.283   5.495   5.435
 5355POPC   PO469180  10.963   6.071   5.220
 5355POPC   GL169181  11.263   5.936   5.673
 5355POPC   GL269182  11.610   6.101   5.728
 5355POPC   C1A69183  11.214   5.776   6.129
 5355POPC   D2A69184  11.480   5.816   6.515
 5355POPC   C3A69185  11.234   5.703   6.896
 5355POPC   C4A69186  11.073   5.667   7.315
 5355POPC   C1B69187  11.406   6.250   6.074
 5355POPC   C2B69188  11.397   6.347   6.512
 5355POPC   C3B69189  11.419   6.172   6.917
 5355POPC   C4B69190  11.194   6.173   7.291
 5356POPC   NC369191  22.402  14.886   5.547
 5356POPC   PO469192  22.656  15.529   5.606
 5356POPC   GL169193  22.282  15.400   5.850
 5356POPC   GL269194  21.893  15.432   5.774
 5356POPC   C1A69195  22.255  15.087   6.181
 5356POPC   D2A69196  22.243  14.825   6.538
 5356POPC   C3A69197  22.392  15.093   6.866
 5356POPC   C4A69198  22.598  14.962   7.224
 5356POPC   C1B69199  21.782  15.280   6.194
 5356POPC   C2B69200  21.929  15.237   6.611
 5356POPC   C3B69201  21.986  15.412   7.012
 5356POPC   C4B69202  21.824  15.209   7.352
 5357POPC   NC369203  22.776  17.112   5.414
 5357POPC   PO469204  23.334  16.727   5.286
 5357POPC   GL169205  23.060  16.735   5.682
 5357POPC   GL269206  22.755  16.515   5.666
 5357POPC   C1A69207  22.876  16.830   6.106
 5357POPC   D2A69208  23.026  16.976   6.521
 5357POPC   C3A69209  23.151  16.862   6.959
 5357POPC   C4A69210  22.989  16.737   7.360
 5357POPC   C1B69211  22.652  16.351   6.087
 5357POPC   C2B69212  22.729  16.528   6.498
 5357POPC   C3B69213  22.685  16.600   6.920
 5357POPC   C4B69214  22.664  16.324   7.272
 5358POPC   NC369215  25.412  27.034   5.313
 5358POPC   PO469216  24.912  26.565   5.390
 5358POPC   GL169217  25.175  26.642   5.801
 5358POPC   GL269218  25.295  26.970   5.800
 5358POPC   C1A69219  25.342  26.703   6.250
 5358POPC   D2A69220  25.208  26.930   6.644
 5358POPC   C3A69221  25.295  26.773   7.055
 5358POPC   C4A69222  25.145  26.813   7.459
 5358POPC   C1B69223  25.471  27.185   6.143
 5358POPC   C2B69224  25.648  27.194   6.563
 5358POPC   C3B69225  25.578  27.208   7.005
 5358POPC   C4B69226  25.299  27.292   7.354
 5359POPC   NC369227  17.652  41.596   5.215
 5359POPC   PO469228  16.976  41.451   5.259
 5359POPC   GL169229  17.335  41.424   5.620
 5359POPC   GL269230  17.677  41.580   5.711
 5359POPC   C1A69231  17.349  41.544   6.107
 5359POPC   D2A69232  17.400  41.428   6.601
 5359POPC   C3A69233  17.147  41.572   6.954
 5359POPC   C4A69234  17.073  41.495   7.375
 5359POPC   C1B69235  17.905  41.471   6.067
 5359POPC   C2B69236  17.913  41.395   6.496
 5359POPC   C3B69237  17.899  41.555   6.894
 5359POPC   C4B69238  17.588  41.470   7.228
 5360POPC   NC369239  13.270   8.272   5.213
 5360POPC   PO469240  13.937   8.079   5.414
 5360POPC   GL169241  13.574   8.150   5.682
 5360POPC   GL269242  13.684   8.457   5.783
 5360POPC   C1A69243  13.406   8.080   6.120
 5360POPC   D2A69244  13.668   7.865   6.443
 5360POPC   C3A69245  13.692   7.855   6.899
 5360POPC   C4A69246  13.697   7.995   7.329
 5360POPC   C1B69247  13.692   8.508   6.237
 5360POPC   C2B69248  13.463   8.346   6.597
 5360POPC   C3B69249  13.372   8.254   7.032
 5360POPC   C4B69250  13.353   8.331   7.500
 5361POPC   NC369251   7.356  28.555   5.483
 5361POPC   PO469252   7.391  29.121   5.163
 5361POPC   GL169253   7.455  29.052   5.665
 5361POPC   GL269254   7.176  29.117   5.956
 5361POPC   C1A69255   7.647  29.106   6.102
 5361POPC   D2A69256   7.483  28.981   6.529
 5361POPC   C3A69257   7.522  29.285   6.837
 5361POPC   C4A69258   7.737  29.352   7.224
 5361POPC   C1B69259   7.132  29.328   6.392
 5361POPC   C2B69260   7.023  29.431   6.834
 5361POPC   C3B69261   7.199  29.401   7.216
 5361POPC   C4B69262   7.335  29.182   7.525
 5362POPC   NC369263  29.898  38.679   5.058
 5362POPC   PO469264  29.866  39.291   5.344
 5362POPC   GL169265  29.735  39.225   5.740
 5362POPC   GL269266  29.657  38.897   5.777
 5362POPC   C1A69267  29.868  39.309   6.149
 5362POPC   D2A69268  29.999  39.533   6.499
 5362POPC   C3A69269  30.152  39.349   6.882
 5362POPC   C4A69270  30.020  39.371   7.293
 5362POPC   C1B69271  29.734  38.821   6.213
 5362POPC   C2B69272  29.858  39.029   6.591
 5362POPC   C3B69273  29.794  38.923   7.022
 5362POPC   C4B69274  29.913  38.879   7.430
 5363POPC   NC369275  18.379  41.023   5.591
 5363POPC   PO469276  18.495  41.697   5.399
 5363POPC   GL169277  18.278  41.706   5.792
 5363POPC   GL269278  18.474  41.432   5.874
 5363POPC   C1A69279  18.321  41.675   6.287
 5363POPC   D2A69280  18.619  41.562   6.599
 5363POPC   C3A69281  18.462  41.491   6.992
 5363POPC   C4A69282  18.410  41.685   7.383
 5363POPC   C1B69283  18.510  41.193   6.244
 5363POPC   C2B69284  18.313  41.142   6.645
 5363POPC   C3B69285  18.048  41.066   6.964
 5363POPC   C4B69286  18.090  41.303   7.284
 5364POPC   NC369287  44.380  39.096   5.486
 5364POPC   PO469288  44.859  39.649   5.345
 5364POPC   GL169289  44.684  39.492   5.748
 5364POPC   GL269290  44.696  39.147   5.855
 5364POPC   C1A69291  44.589  39.498   6.188
 5364POPC   D2A69292  44.499  39.603   6.596
 5364POPC   C3A69293  44.537  39.319   6.940
 5364POPC   C4A69294  44.429  39.493   7.354
 5364POPC   C1B69295  44.603  39.002   6.307
 5364POPC   C2B69296  44.312  38.955   6.619
 5364POPC   C3B69297  44.423  38.785   7.025
 5364POPC   C4B69298  44.617  39.027   7.370
 5365POPC   NC369299   3.512  26.840   5.602
 5365POPC   PO469300   3.160  27.407   5.433
 5365POPC   GL169301   3.362  27.256   5.845
 5365POPC   GL269302   3.113  27.006   5.912
 5365POPC   C1A69303   3.625  27.118   6.259
 5365POPC   D2A69304   3.638  26.771   6.621
 5365POPC   C3A69305   3.624  26.833   7.082
 5365POPC   C4A69306   3.629  26.988   7.536
 5365POPC   C1B69307   3.240  26.782   6.282
 5365POPC   C2B69308   3.158  26.462   6.608
 5365POPC   C3B69309   3.340  26.394   6.999
 5365POPC   C4B69310   3.392  26.512   7.430
 5366POPC   NC369311  19.024   5.292   5.408
 5366POPC   PO469312  19.307   4.745   5.373
 5366POPC   GL169313  19.263   5.012   5.765
 5366POPC   GL269314  19.053   5.326   5.906
 5366POPC   C1A69315  19.373   5.086   6.195
 5366POPC   D2A69316  19.154   5.269   6.540
 5366POPC   C3A69317  18.930   4.981   6.776
 5366POPC   C4A69318  18.905   4.905   7.196
 5366POPC   C1B69319  18.806   5.525   6.245
 5366POPC   C2B69320  18.652   5.408   6.666
 5366POPC   C3B69321  18.844   5.426   7.093
 5366POPC   C4B69322  18.709   5.591   7.504
 5367POPC   NC369323  13.928  11.049   5.618
 5367POPC   PO469324  13.721  10.387   5.563
 5367POPC   GL169325  13.719  10.698   5.919
 5367POPC   GL269326  13.399  10.823   6.100
 5367POPC   C1A69327  13.899  10.649   6.291
 5367POPC   D2A69328  13.830  10.310   6.535
 5367POPC   C3A69329  13.911  10.487   6.899
 5367POPC   C4A69330  13.835  10.814   7.151
 5367POPC   C1B69331  13.311  10.427   6.273
 5367POPC   C2B69332  13.327  10.332   6.686
 5367POPC   C3B69333  13.390  10.553   7.016
 5367POPC   C4B69334  13.594  10.354   7.286
 5368POPC   NC369335   5.093  28.724   5.664
 5368POPC   PO469336   5.052  28.146   5.337
 5368POPC   GL169337   4.938  28.221   5.790
 5368POPC   GL269338   5.282  28.288   5.876
 5368POPC   C1A69339   4.672  28.412   6.168
 5368POPC   D2A69340   4.720  28.614   6.607
 5368POPC   C3A69341   4.880  28.309   6.912
 5368POPC   C4A69342   4.942  28.231   7.336
 5368POPC   C1B69343   5.154  28.294   6.316
 5368POPC   C2B69344   5.357  28.216   6.715
 5368POPC   C3B69345   5.394  28.356   7.148
 5368POPC   C4B69346   5.387  28.222   7.584
 5369POPC   NC369347  15.372  32.541   5.313
 5369POPC   PO469348  15.343  31.903   5.607
 5369POPC   GL169349  15.125  32.141   5.897
 5369POPC   GL269350  15.054  32.448   5.712
 5369POPC   C1A69351  15.229  32.157   6.342
 5369POPC   D2A69352  15.496  31.968   6.658
 5369POPC   C3A69353  15.327  32.095   7.039
 5369POPC   C4A69354  14.976  32.221   7.279
 5369POPC   C1B69355  14.961  32.575   6.170
 5369POPC   C2B69356  14.798  32.553   6.621
 5369POPC   C3B69357  14.966  32.667   7.041
 5369POPC   C4B69358  15.374  32.561   7.261
 5370POPC   NC369359  27.747  38.597   5.337
 5370POPC   PO469360  27.408  38.008   5.292
 5370POPC   GL169361  27.646  38.206   5.643
 5370POPC   GL269362  27.417  38.469   5.739
 5370POPC   C1A69363  27.780  38.286   6.087
 5370POPC   D2A69364  27.570  38.287   6.504
 5370POPC   C3A69365  27.681  38.415   6.931
 5370POPC   C4A69366  27.641  38.182   7.311
 5370POPC   C1B69367  27.384  38.654   6.164
 5370POPC   C2B69368  27.296  38.904   6.549
 5370POPC   C3B69369  27.323  38.837   7.002
 5370POPC   C4B69370  27.569  38.723   7.353
 5371POPC   NC369371  34.003  33.212   5.231
 5371POPC   PO469372  33.535  32.880   5.589
 5371POPC   GL169373  33.792  32.964   5.893
 5371POPC   GL269374  33.952  33.244   5.760
 5371POPC   C1A69375  33.670  32.897   6.304
 5371POPC   D2A69376  33.651  32.607   6.629
 5371POPC   C3A69377  33.655  32.887   6.978
 5371POPC   C4A69378  33.575  32.812   7.423
 5371POPC   C1B69379  33.831  33.380   6.192
 5371POPC   C2B69380  33.911  33.298   6.607
 5371POPC   C3B69381  34.135  33.112   6.912
 5371POPC   C4B69382  33.924  33.169   7.302
 5372POPC   NC369383  17.024  28.691   5.253
 5372POPC   PO469384  16.600  28.081   5.392
 5372POPC   GL169385  16.797  28.239   5.779
 5372POPC   GL269386  16.782  28.597   5.697
 5372POPC   C1A69387  16.991  28.182   6.191
 5372POPC   D2A69388  16.787  28.215   6.572
 5372POPC   C3A69389  16.837  28.060   6.979
 5372POPC   C4A69390  16.383  28.082   7.076
 5372POPC   C1B69391  16.937  28.682   6.103
 5372POPC   C2B69392  16.870  28.751   6.533
 5372POPC   C3B69393  16.653  28.581   6.910
 5372POPC   C4B69394  16.687  28.428   7.314
 5373POPC   NC369395  36.675   9.299   5.314
 5373POPC   PO469396  36.982   8.677   5.448
 5373POPC   GL169397  36.782   8.964   5.684
 5373POPC   GL269398  37.035   9.203   5.756
 5373POPC   C1A69399  36.628   9.028   6.078
 5373POPC   D2A69400  36.753   9.068   6.506
 5373POPC   C3A69401  36.699   8.759   6.818
 5373POPC   C4A69402  36.757   8.740   7.240
 5373POPC   C1B69403  37.153   9.004   6.154
 5373POPC   C2B69404  37.252   9.137   6.577
 5373POPC   C3B69405  37.121   9.054   6.985
 5373POPC   C4B69406  37.071   9.316   7.326
 5374POPC   NC369407  31.108  35.935   5.264
 5374POPC   PO469408  31.691  35.899   5.084
 5374POPC   GL169409  31.423  35.929   5.626
 5374POPC   GL269410  31.396  36.291   5.720
 5374POPC   C1A69411  31.276  35.915   6.065
 5374POPC   D2A69412  31.502  35.886   6.477
 5374POPC   C3A69413  31.274  35.927   6.861
 5374POPC   C4A69414  31.487  35.926   7.256
 5374POPC   C1B69415  31.428  36.428   6.158
 5374POPC   C2B69416  31.439  36.450   6.627
 5374POPC   C3B69417  31.339  36.390   7.082
 5374POPC   C4B69418  31.410  36.326   7.558
 5375POPC   NC369419  31.337  44.123   5.677
 5375POPC   PO469420  31.734  44.441   5.241
 5375POPC   GL169421  31.651  44.734   5.645
 5375POPC   GL269422  31.329  44.640   5.794
 5375POPC   C1A69423  31.656  44.818   6.164
 5375POPC   D2A69424  31.643  44.525   6.563
 5375POPC   C3A69425  31.634  44.642   7.018
 5375POPC   C4A69426  31.792  44.504   7.452
 5375POPC   C1B69427  31.236  44.485   6.234
 5375POPC   C2B69428  31.043  44.332   6.609
 5375POPC   C3B69429  31.162  44.329   7.037
 5375POPC   C4B69430  31.273  44.578   7.369
 5376POPC   NC369431  15.098   4.617   5.504
 5376POPC   PO469432  15.568   4.092   5.263
 5376POPC   GL169433  15.349   4.131   5.700
 5376POPC   GL269434  15.028   4.210   5.819
 5376POPC   C1A69435  15.372   4.249   6.168
 5376POPC   D2A69436  15.329   4.402   6.601
 5376POPC   C3A69437  15.409   4.139   6.954
 5376POPC   C4A69438  15.540   4.347   7.328
 5376POPC   C1B69439  14.894   4.384   6.255
 5376POPC   C2B69440  14.833   4.342   6.725
 5376POPC   C3B69441  14.991   4.416   7.152
 5376POPC   C4B69442  14.994   4.501   7.608
 5377POPC   NC369443  34.043  25.023   5.113
 5377POPC   PO469444  33.626  25.365   5.592
 5377POPC   GL169445  33.866  25.427   5.974
 5377POPC   GL269446  33.594  25.207   6.091
 5377POPC   C1A69447  33.873  25.445   6.441
 5377POPC   D2A69448  33.539  25.337   6.685
 5377POPC   C3A69449  33.635  25.481   7.071
 5377POPC   C4A69450  33.716  25.258   7.430
 5377POPC   C1B69451  33.882  24.929   6.256
 5377POPC   C2B69452  34.062  24.918   6.608
 5377POPC   C3B69453  34.045  25.215   6.884
 5377POPC   C4B69454  34.125  25.480   7.212
 5378POPC   NC369455  43.145   0.659   5.200
 5378POPC   PO469456  42.692   0.220   5.229
 5378POPC   GL169457  42.848   0.470   5.605
 5378POPC   GL269458  43.190   0.644   5.734
 5378POPC   C1A69459  42.794   0.441   6.038
 5378POPC   D2A69460  42.648   0.432   6.482
 5378POPC   C3A69461  42.877   0.531   6.847
 5378POPC   C4A69462  42.866   0.463   7.253
 5378POPC   C1B69463  43.197   0.660   6.228
 5378POPC   C2B69464  43.158   0.278   6.513
 5378POPC   C3B69465  43.349   0.297   6.945
 5378POPC   C4B69466  43.489   0.731   7.081
 5379POPC   NC369467  22.004  33.844   5.326
 5379POPC   PO469468  21.732  34.327   5.651
 5379POPC   GL169469  21.993  33.941   5.821
 5379POPC   GL269470  22.029  33.533   5.719
 5379POPC   C1A69471  22.284  33.876   6.137
 5379POPC   D2A69472  22.113  33.869   6.546
 5379POPC   C3A69473  22.280  34.070   6.899
 5379POPC   C4A69474  21.988  34.085   7.217
 5379POPC   C1B69475  22.338  33.378   6.028
 5379POPC   C2B69476  22.468  33.487   6.442
 5379POPC   C3B69477  22.279  33.474   6.820
 5379POPC   C4B69478  22.276  33.652   7.193
 5380POPC   NC369479  44.385  39.784   5.407
 5380POPC   PO469480  44.251  40.488   5.382
 5380POPC   GL169481  44.618  40.380   5.684
 5380POPC   GL269482  44.734  40.024   5.777
 5380POPC   C1A69483  44.545  40.406   6.147
 5380POPC   D2A69484  44.580  40.159   6.527
 5380POPC   C3A69485  44.818  40.324   6.881
 5380POPC   C4A69486  44.607  40.328   7.260
 5380POPC   C1B69487  44.951  39.857   6.184
 5380POPC   C2B69488  44.960  39.841   6.663
 5380POPC   C3B69489  44.651  39.833   7.035
 5380POPC   C4B69490  44.700  39.880   7.522
 5381POPC   NC369491   2.292  19.169   5.455
 5381POPC   PO469492   1.646  18.846   5.448
 5381POPC   GL169493   1.659  19.094   5.837
 5381POPC   GL269494   1.894  19.321   5.755
 5381POPC   C1A69495   1.848  19.103   6.259
 5381POPC   D2A69496   2.096  19.021   6.637
 5381POPC   C3A69497   1.859  19.033   7.027
 5381POPC   C4A69498   1.995  18.841   7.394
 5381POPC   C1B69499   2.171  19.467   6.095
 5381POPC   C2B69500   2.066  19.527   6.536
 5381POPC   C3B69501   2.233  19.419   6.955
 5381POPC   C4B69502   2.049  19.365   7.388
 5382POPC   NC369503  32.678  43.369   5.495
 5382POPC   PO469504  33.149  42.883   5.558
 5382POPC   GL169505  32.963  43.044   5.888
 5382POPC   GL269506  32.634  42.907   5.939
 5382POPC   C1A69507  32.960  43.050   6.326
 5382POPC   D2A69508  32.905  43.268   6.704
 5382POPC   C3A69509  32.913  43.024   7.058
 5382POPC   C4A69510  33.190  43.086   7.404
 5382POPC   C1B69511  32.562  43.319   6.152
 5382POPC   C2B69512  32.435  43.449   6.606
 5382POPC   C3B69513  32.545  43.434   7.053
 5382POPC   C4B69514  32.683  43.258   7.450
 5383POPC   NC369515  40.377   7.717   5.274
 5383POPC   PO469516  39.840   7.306   5.358
 5383POPC   GL169517  39.970   7.345   5.787
 5383POPC   GL269518  40.197   7.605   5.758
 5383POPC   C1A69519  39.793   7.245   6.222
 5383POPC   D2A69520  39.526   7.218   6.596
 5383POPC   C3A69521  39.709   7.325   6.980
 5383POPC   C4A69522  39.783   7.235   7.406
 5383POPC   C1B69523  40.263   7.444   6.203
 5383POPC   C2B69524  40.077   7.467   6.645
 5383POPC   C3B69525  40.150   7.542   7.119
 5383POPC   C4B69526  40.395   7.725   7.483
 5384POPC   NC369527  21.627  32.418   5.415
 5384POPC   PO469528  21.207  31.886   5.274
 5384POPC   GL169529  21.346  32.072   5.663
 5384POPC   GL269530  21.207  32.408   5.725
 5384POPC   C1A69531  21.424  32.144   6.116
 5384POPC   D2A69532  21.338  31.919   6.519
 5384POPC   C3A69533  21.635  32.043   6.843
 5384POPC   C4A69534  21.741  32.245   7.241
 5384POPC   C1B69535  21.145  32.573   6.161
 5384POPC   C2B69536  21.312  32.447   6.582
 5384POPC   C3B69537  21.239  32.350   7.041
 5384POPC   C4B69538  21.318  32.363   7.518
 5385POPC   NC369539  30.164  30.248   5.140
 5385POPC   PO469540  29.656  29.899   5.430
 5385POPC   GL169541  29.688  29.927   5.865
 5385POPC   GL269542  30.030  29.839   5.900
 5385POPC   C1A69543  29.797  30.135   6.263
 5385POPC   D2A69544  29.596  30.021   6.642
 5385POPC   C3A69545  29.683  30.188   7.042
 5385POPC   C4A69546  29.733  29.811   7.239
 5385POPC   C1B69547  30.194  29.756   6.260
 5385POPC   C2B69548  30.062  29.725   6.670
 5385POPC   C3B69549  30.197  29.828   7.037
 5385POPC   C4B69550  30.240  30.251   7.092
 5386POPC   NC369551  20.881  30.116   5.375
 5386POPC   PO469552  20.492  29.489   5.343
 5386POPC   GL169553  20.648  29.711   5.679
 5386POPC   GL269554  20.409  29.962   5.815
 5386POPC   C1A69555  20.689  29.602   6.109
 5386POPC   D2A69556  20.466  29.611   6.490
 5386POPC   C3A69557  20.611  29.541   6.890
 5386POPC   C4A69558  20.388  29.500   7.281
 5386POPC   C1B69559  20.545  30.082   6.256
 5386POPC   C2B69560  20.693  30.028   6.710
 5386POPC   C3B69561  20.558  29.977   7.174
 5386POPC   C4B69562  20.697  30.132   7.607
 5387POPC   NC369563  31.009  31.759   5.428
 5387POPC   PO469564  30.623  32.339   5.379
 5387POPC   GL169565  30.494  32.199   5.781
 5387POPC   GL269566  30.677  31.954   5.942
 5387POPC   C1A69567  30.515  32.357   6.217
 5387POPC   D2A69568  30.650  32.558   6.569
 5387POPC   C3A69569  30.574  32.343   6.919
 5387POPC   C4A69570  30.305  32.382   7.269
 5387POPC   C1B69571  30.240  31.944   6.178
 5387POPC   C2B69572  30.222  32.053   6.628
 5387POPC   C3B69573  30.302  31.925   7.061
 5387POPC   C4B69574  30.284  31.978   7.562
 5388POPC   NC369575  33.595  25.666   5.240
 5388POPC   PO469576  33.802  26.333   5.410
 5388POPC   GL169577  33.666  26.102   5.790
 5388POPC   GL269578  33.458  25.801   5.769
 5388POPC   C1A69579  33.828  26.083   6.217
 5388POPC   D2A69580  34.140  26.109   6.569
 5388POPC   C3A69581  34.044  25.960   6.970
 5388POPC   C4A69582  34.007  26.298   7.270
 5388POPC   C1B69583  33.480  25.689   6.217
 5388POPC   C2B69584  33.600  25.863   6.630
 5388POPC   C3B69585  33.584  26.156   6.976
 5388POPC   C4B69586  33.681  25.906   7.357
 5389POPC   NC369587  40.778  25.823   5.419
 5389POPC   PO469588  40.815  26.479   5.366
 5389POPC   GL169589  40.874  26.244   5.706
 5389POPC   GL269590  40.554  26.236   5.812
 5389POPC   C1A69591  40.997  26.246   6.115
 5389POPC   D2A69592  41.114  26.057   6.492
 5389POPC   C3A69593  40.834  26.177   6.809
 5389POPC   C4A69594  40.781  26.108   7.236
 5389POPC   C1B69595  40.537  26.061   6.235
 5389POPC   C2B69596  40.649  25.754   6.533
 5389POPC   C3B69597  40.597  25.713   6.962
 5389POPC   C4B69598  40.517  25.434   7.313
 5390POPC   NC369599  14.139  31.599   5.496
 5390POPC   PO469600  14.688  31.218   5.430
 5390POPC   GL169601  14.665  31.420   5.861
 5390POPC   GL269602  14.735  31.769   5.936
 5390POPC   C1A69603  14.637  31.394   6.328
 5390POPC   D2A69604  14.221  31.347   6.492
 5390POPC   C3A69605  14.176  31.210   6.896
 5390POPC   C4A69606  14.398  31.251   7.309
 5390POPC   C1B69607  14.335  31.748   6.150
 5390POPC   C2B69608  14.403  31.824   6.568
 5390POPC   C3B69609  14.546  31.563   6.883
 5390POPC   C4B69610  14.196  31.700   7.126
 5391POPC   NC369611  35.234  16.595   5.341
 5391POPC   PO469612  35.395  15.861   5.348
 5391POPC   GL169613  35.150  16.014   5.673
 5391POPC   GL269614  35.455  16.017   5.867
 5391POPC   C1A69615  35.033  16.049   6.127
 5391POPC   D2A69616  35.304  16.034   6.479
 5391POPC   C3A69617  35.091  16.181   6.823
 5391POPC   C4A69618  35.203  15.873   7.120
 5391POPC   C1B69619  35.655  16.285   6.183
 5391POPC   C2B69620  35.739  16.355   6.624
 5391POPC   C3B69621  35.550  16.239   7.021
 5391POPC   C4B69622  35.236  16.532   7.186
 5392POPC   NC369623  39.179  35.522   5.428
 5392POPC   PO469624  39.063  34.783   5.397
 5392POPC   GL169625  39.200  35.101   5.754
 5392POPC   GL269626  38.931  35.351   5.852
 5392POPC   C1A69627  39.422  35.408   6.073
 5392POPC   D2A69628  39.632  35.364   6.493
 5392POPC   C3A69629  39.536  35.515   6.898
 5392POPC   C4A69630  39.443  35.294   7.224
 5392POPC   C1B69631  38.987  35.204   6.239
 5392POPC   C2B69632  39.124  35.305   6.630
 5392POPC   C3B69633  38.965  35.263   7.021
 5392POPC   C4B69634  39.021  35.188   7.461
 5393POPC   NC369635  35.404  32.539   5.407
 5393POPC   PO469636  35.826  31.992   5.274
 5393POPC   GL169637  35.587  31.989   5.694
 5393POPC   GL269638  35.537  32.335   5.844
 5393POPC   C1A69639  35.690  31.977   6.173
 5393POPC   D2A69640  35.499  32.101   6.587
 5393POPC   C3A69641  35.336  31.964   7.003
 5393POPC   C4A69642  35.283  32.180   7.399
 5393POPC   C1B69643  35.415  32.537   6.250
 5393POPC   C2B69644  35.393  32.595   6.692
 5393POPC   C3B69645  35.138  32.432   6.979
 5393POPC   C4B69646  34.944  32.583   7.326
 5394POPC   NC369647   8.981  38.535   5.289
 5394POPC   PO469648   9.105  37.907   5.402
 5394POPC   GL169649   9.071  38.085   5.822
 5394POPC   GL269650   9.021  38.437   5.802
 5394POPC   C1A69651   9.186  38.132   6.261
 5394POPC   D2A69652   9.049  38.307   6.647
 5394POPC   C3A69653   9.027  38.178   7.081
 5394POPC   C4A69654   8.909  38.420   7.478
 5394POPC   C1B69655   9.058  38.644   6.212
 5394POPC   C2B69656   9.143  38.818   6.621
 5394POPC   C3B69657   9.107  38.671   7.056
 5394POPC   C4B69658   9.400  38.597   7.443
 5395POPC   NC369659  38.604  41.832   5.411
 5395POPC   PO469660  38.049  41.371   5.394
 5395POPC   GL169661  38.300  41.523   5.753
 5395POPC   GL269662  38.682  41.442   5.751
 5395POPC   C1A69663  38.220  41.651   6.198
 5395POPC   D2A69664  38.253  41.400   6.573
 5395POPC   C3A69665  38.232  41.569   6.986
 5395POPC   C4A69666  38.556  41.422   7.255
 5395POPC   C1B69667  38.781  41.738   6.094
 5395POPC   C2B69668  38.714  41.781   6.542
 5395POPC   C3B69669  38.595  41.932   6.936
 5395POPC   C4B69670  38.739  41.900   7.334
 5396POPC   NC369671   1.273  40.118   5.432
 5396POPC   PO469672   1.611  39.548   5.526
 5396POPC   GL169673   1.365  39.828   5.871
 5396POPC   GL269674   1.068  40.103   5.882
 5396POPC   C1A69675   1.184  39.807   6.310
 5396POPC   D2A69676   1.066  39.705   6.741
 5396POPC   C3A69677   1.392  39.792   7.011
 5396POPC   C4A69678   1.515  39.589   7.383
 5396POPC   C1B69679   1.364  40.290   6.178
 5396POPC   C2B69680   1.391  40.184   6.627
 5396POPC   C3B69681   1.081  40.202   6.955
 5396POPC   C4B69682   1.144  40.233   7.390
 5397POPC   NC369683  12.757  17.855   5.490
 5397POPC   PO469684  12.607  17.204   5.388
 5397POPC   GL169685  12.607  17.430   5.775
 5397POPC   GL269686  12.975  17.539   5.848
 5397POPC   C1A69687  12.631  17.262   6.180
 5397POPC   D2A69688  12.805  17.287   6.611
 5397POPC   C3A69689  12.692  17.453   7.012
 5397POPC   C4A69690  13.048  17.381   7.292
 5397POPC   C1B69691  12.934  17.675   6.289
 5397POPC   C2B69692  12.612  17.798   6.613
 5397POPC   C3B69693  12.703  17.962   7.030
 5397POPC   C4B69694  13.121  17.938   7.245
 5398POPC   NC369695  30.079   3.434   5.381
 5398POPC   PO469696  29.560   3.240   5.407
 5398POPC   GL169697  29.734   3.303   5.847
 5398POPC   GL269698  30.119   3.289   5.873
 5398POPC   C1A69699  29.596   3.429   6.317
 5398POPC   D2A69700  29.522   3.324   6.791
 5398POPC   C3A69701  29.663   3.676   7.111
 5398POPC   C4A69702  29.989   3.926   7.343
 5398POPC   C1B69703  30.138   3.507   6.294
 5398POPC   C2B69704  29.990   3.475   6.738
 5398POPC   C3B69705  29.973   3.275   7.171
 5398POPC   C4B69706  30.026   3.480   7.580
 5399POPC   NC369707  16.153   3.530   5.368
 5399POPC   PO469708  16.775   3.457   5.090
 5399POPC   GL169709  16.691   3.609   5.587
 5399POPC   GL269710  16.559   3.950   5.776
 5399POPC   C1A69711  16.781   3.615   6.060
 5399POPC   D2A69712  16.903   3.787   6.468
 5399POPC   C3A69713  16.905   3.491   6.818
 5399POPC   C4A69714  16.877   3.540   7.252
 5399POPC   C1B69715  16.360   3.903   6.251
 5399POPC   C2B69716  16.457   3.746   6.725
 5399POPC   C3B69717  16.460   3.843   7.201
 5399POPC   C4B69718  16.546   4.012   7.660
 5400POPC   NC369719  33.226   9.119   5.127
 5400POPC   PO469720  32.593   9.146   5.404
 5400POPC   GL169721  32.770   9.143   5.810
 5400POPC   GL269722  33.145   9.080   5.765
 5400POPC   C1A69723  32.701   9.171   6.261
 5400POPC   D2A69724  32.971   9.184   6.640
 5400POPC   C3A69725  32.781   9.048   7.024
 5400POPC   C4A69726  32.802   8.607   6.982
 5400POPC   C1B69727  33.150   8.930   6.204
 5400POPC   C2B69728  33.316   8.780   6.597
 5400POPC   C3B69729  33.287   8.989   6.992
 5400POPC   C4B69730  33.133   8.842   7.401
 5401POPC   NC369731   4.446  40.912   5.098
 5401POPC   PO469732   4.980  40.854   5.420
 5401POPC   GL169733   4.965  40.685   5.817
 5401POPC   GL269734   5.041  41.002   5.930
 5401POPC   C1A69735   5.125  40.571   6.206
 5401POPC   D2A69736   5.163  40.880   6.515
 5401POPC   C3A69737   5.062  40.682   6.891
 5401POPC   C4A69738   5.190  40.809   7.332
 5401POPC   C1B69739   4.727  40.896   6.248
 5401POPC   C2B69740   4.675  40.991   6.687
 5401POPC   C3B69741   4.922  41.135   7.031
 5401POPC   C4B69742   4.761  41.124   7.487
 5402POPC   NC369743  22.671  33.358   5.414
 5402POPC   PO469744  23.136  32.939   5.390
 5402POPC   GL169745  22.955  33.025   5.757
 5402POPC   GL269746  23.023  32.743   5.897
 5402POPC   C1A69747  23.056  33.174   6.174
 5402POPC   D2A69748  22.867  33.202   6.567
 5402POPC   C3A69749  23.071  33.220   6.944
 5402POPC   C4A69750  23.172  33.063   7.349
 5402POPC   C1B69751  22.965  32.623   6.293
 5402POPC   C2B69752  23.081  32.745   6.693
 5402POPC   C3B69753  22.895  32.721   7.076
 5402POPC   C4B69754  22.977  32.612   7.533
 5403POPC   NC369755   2.674  18.398   5.436
 5403POPC   PO469756   3.252  18.154   5.759
 5403POPC   GL169757   2.863  18.291   5.908
 5403POPC   GL269758   2.601  18.058   5.854
 5403POPC   C1A69759   2.664  18.512   6.241
 5403POPC   D2A69760   2.660  18.368   6.677
 5403POPC   C3A69761   2.506  18.563   7.048
 5403POPC   C4A69762   2.675  18.384   7.394
 5403POPC   C1B69763   2.356  18.071   6.241
 5403POPC   C2B69764   2.277  17.997   6.682
 5403POPC   C3B69765   2.350  18.043   7.112
 5403POPC   C4B69766   2.476  17.959   7.528
 5404POPC   NC369767  28.384   1.481   5.296
 5404POPC   PO469768  28.243   0.766   5.465
 5404POPC   GL169769  28.330   1.062   5.767
 5404POPC   GL269770  28.548   1.356   5.785
 5404POPC   C1A69771  28.238   1.189   6.197
 5404POPC   D2A69772  28.260   0.976   6.599
 5404POPC   C3A69773  28.071   1.103   6.978
 5404POPC   C4A69774  28.344   1.264   7.205
 5404POPC   C1B69775  28.543   1.581   6.172
 5404POPC   C2B69776  28.527   1.449   6.579
 5404POPC   C3B69777  28.702   1.508   6.970
 5404POPC   C4B69778  28.478   1.754   7.258
 5405POPC   NC369779  41.005  23.890   5.440
 5405POPC   PO469780  40.302  23.909   5.452
 5405POPC   GL169781  40.601  23.873   5.817
 5405POPC   GL269782  40.828  23.568   5.786
 5405POPC   C1A69783  40.675  23.743   6.265
 5405POPC   D2A69784  40.954  23.699   6.624
 5405POPC   C3A69785  40.787  23.789   7.051
 5405POPC   C4A69786  40.437  23.942   7.275
 5405POPC   C1B69787  40.596  23.272   6.018
 5405POPC   C2B69788  40.644  23.156   6.447
 5405POPC   C3B69789  40.653  23.340   6.843
 5405POPC   C4B69790  40.612  23.208   7.250
 5406POPC   NC369791  31.164  13.023   5.264
 5406POPC   PO469792  31.774  12.808   5.336
 5406POPC   GL169793  31.661  12.734   5.723
 5406POPC   GL269794  31.437  13.029   5.728
 5406POPC   C1A69795  31.574  12.620   6.149
 5406POPC   D2A69796  31.329  12.764   6.496
 5406POPC   C3A69797  31.552  12.742   6.902
 5406POPC   C4A69798  31.463  12.724   7.359
 5406POPC   C1B69799  31.500  13.169   6.140
 5406POPC   C2B69800  31.466  13.260   6.567
 5406POPC   C3B69801  31.354  13.201   6.994
 5406POPC   C4B69802  31.715  13.135   7.218
 5407POPC   NC369803  31.454  38.140   5.334
 5407POPC   PO469804  31.767  37.550   5.543
 5407POPC   GL169805  31.512  37.780   5.843
 5407POPC   GL269806  31.225  37.576   5.925
 5407POPC   C1A69807  31.332  37.933   6.266
 5407POPC   D2A69808  31.166  37.690   6.624
 5407POPC   C3A69809  31.380  37.803   7.042
 5407POPC   C4A69810  31.391  37.739   7.528
 5407POPC   C1B69811  31.538  37.453   6.255
 5407POPC   C2B69812  31.626  37.440   6.697
 5407POPC   C3B69813  31.700  37.262   7.108
 5407POPC   C4B69814  31.765  37.411   7.503
 5408POPC   NC369815  30.201  38.997   5.555
 5408POPC   PO469816  30.784  39.418   5.553
 5408POPC   GL169817  30.723  39.158   5.888
 5408POPC   GL269818  30.372  39.159   6.009
 5408POPC   C1A69819  30.833  39.230   6.327
 5408POPC   D2A69820  30.970  39.413   6.723
 5408POPC   C3A69821  30.791  39.317   7.160
 5408POPC   C4A69822  30.894  39.397   7.616
 5408POPC   C1B69823  30.366  39.104   6.453
 5408POPC   C2B69824  30.700  38.845   6.671
 5408POPC   C3B69825  30.691  38.746   7.097
 5408POPC   C4B69826  30.367  39.017   7.227
 5409POPC   NC369827   6.185  41.119   5.427
 5409POPC   PO469828   6.785  40.987   5.238
 5409POPC   GL169829   6.733  40.951   5.669
 5409POPC   GL269830   6.568  41.221   5.761
 5409POPC   C1A69831   6.518  40.747   6.040
 5409POPC   D2A69832   6.369  40.610   6.457
 5409POPC   C3A69833   6.698  40.542   6.760
 5409POPC   C4A69834   6.661  40.526   7.172
 5409POPC   C1B69835   6.870  41.137   6.126
 5409POPC   C2B69836   6.746  40.983   6.504
 5409POPC   C3B69837   6.789  41.117   6.913
 5409POPC   C4B69838   6.702  41.007   7.341
 5410POPC   NC369839   1.765  21.644   5.491
 5410POPC   PO469840   1.883  22.364   5.443
 5410POPC   GL169841   1.964  22.300   5.841
 5410POPC   GL269842   1.998  21.931   5.865
 5410POPC   C1A69843   2.093  22.270   6.233
 5410POPC   D2A69844   1.984  22.017   6.548
 5410POPC   C3A69845   2.043  22.249   6.883
 5410POPC   C4A69846   1.968  22.198   7.268
 5410POPC   C1B69847   1.828  21.640   6.177
 5410POPC   C2B69848   1.590  21.671   6.552
 5410POPC   C3B69849   1.748  21.800   6.957
 5410POPC   C4B69850   1.551  21.872   7.356
 5411POPC   NC369851  11.085  38.599   5.281
 5411POPC   PO469852  11.656  38.213   5.236
 5411POPC   GL169853  11.522  38.304   5.640
 5411POPC   GL269854  11.679  38.597   5.775
 5411POPC   C1A69855  11.407  38.251   6.071
 5411POPC   D2A69856  11.155  38.459   6.400
 5411POPC   C3A69857  11.116  38.391   6.842
 5411POPC   C4A69858  11.432  38.204   7.103
 5411POPC   C1B69859  11.386  38.801   6.091
 5411POPC   C2B69860  11.255  38.959   6.499
 5411POPC   C3B69861  11.478  38.922   6.897
 5411POPC   C4B69862  11.301  38.698   7.191
 5412POPC   NC369863   1.232  28.475   5.283
 5412POPC   PO469864   1.016  27.782   5.431
 5412POPC   GL169865   1.144  28.096   5.699
 5412POPC   GL269866   0.883  28.285   5.652
 5412POPC   C1A69867   1.337  28.322   6.086
 5412POPC   D2A69868   1.515  28.511   6.484
 5412POPC   C3A69869   1.386  28.332   6.879
 5412POPC   C4A69870   1.517  28.283   7.278
 5412POPC   C1B69871   0.843  28.240   6.113
 5412POPC   C2B69872   0.991  28.400   6.511
 5412POPC   C3B69873   0.870  28.398   6.935
 5412POPC   C4B69874   1.033  28.391   7.382
 5413POPC   NC369875   1.665  20.074   5.337
 5413POPC   PO469876   2.159  19.612   5.418
 5413POPC   GL169877   1.962  19.838   5.746
 5413POPC   GL269878   1.617  19.750   5.757
 5413POPC   C1A69879   2.021  19.949   6.188
 5413POPC   D2A69880   1.935  20.055   6.603
 5413POPC   C3A69881   2.193  19.917   6.922
 5413POPC   C4A69882   2.052  19.867   7.308
 5413POPC   C1B69883   1.640  19.573   6.155
 5413POPC   C2B69884   1.588  19.699   6.575
 5413POPC   C3B69885   1.739  19.560   6.970
 5413POPC   C4B69886   1.534  19.378   7.307
 5414POPC   NC369887  19.197  17.446   5.311
 5414POPC   PO469888  18.733  17.199   5.708
 5414POPC   GL169889  19.068  17.473   5.857
 5414POPC   GL269890  19.430  17.534   5.789
 5414POPC   C1A69891  19.250  17.374   6.252
 5414POPC   D2A69892  19.138  17.377   6.651
 5414POPC   C3A69893  18.799  17.626   6.768
 5414POPC   C4A69894  18.789  17.577   7.179
 5414POPC   C1B69895  19.556  17.758   6.192
 5414POPC   C2B69896  19.350  17.843   6.630
 5414POPC   C3B69897  19.280  17.699   7.059
 5414POPC   C4B69898  19.461  17.774   7.475
 5415POPC   NC369899   0.429  21.879   4.959
 5415POPC   PO469900   0.388  21.340   5.382
 5415POPC   GL169901   0.518  21.464   5.766
 5415POPC   GL269902   0.633  21.151   5.849
 5415POPC   C1A69903   0.417  21.529   6.181
 5415POPC   D2A69904   0.342  21.133   6.384
 5415POPC   C3A69905   0.352  21.137   6.844
 5415POPC   C4A69906   0.435  21.554   7.007
 5415POPC   C1B69907   0.831  21.246   6.217
 5415POPC   C2B69908   0.719  21.408   6.604
 5415POPC   C3B69909   0.856  21.268   7.002
 5415POPC   C4B69910   0.905  21.130   7.447
 5416POPC   NC369911   4.736   7.558   5.484
 5416POPC   PO469912   5.437   7.752   5.529
 5416POPC   GL169913   5.225   7.414   5.807
 5416POPC   GL269914   4.934   7.162   5.745
 5416POPC   C1A69915   4.955   7.508   6.171
 5416POPC   D2A69916   5.007   7.664   6.591
 5416POPC   C3A69917   5.338   7.463   6.818
 5416POPC   C4A69918   5.282   7.428   7.243
 5416POPC   C1B69919   4.801   7.018   6.157
 5416POPC   C2B69920   4.723   7.197   6.554
 5416POPC   C3B69921   4.840   7.326   6.961
 5416POPC   C4B69922   4.832   7.200   7.384
 5417POPC   NC369923  28.854  37.203   5.538
 5417POPC   PO469924  28.404  36.682   5.376
 5417POPC   GL169925  28.589  36.826   5.744
 5417POPC   GL269926  28.870  36.602   5.683
 5417POPC   C1A69927  28.535  37.114   6.130
 5417POPC   D2A69928  28.256  37.246   6.488
 5417POPC   C3A69929  28.432  37.093   6.872
 5417POPC   C4A69930  28.387  37.152   7.313
 5417POPC   C1B69931  28.688  36.480   6.101
 5417POPC   C2B69932  28.577  36.710   6.479
 5417POPC   C3B69933  28.595  36.594   6.911
 5417POPC   C4B69934  28.412  36.625   7.311
 5418POPC   NC369935  35.017   8.305   5.477
 5418POPC   PO469936  34.516   8.574   5.050
 5418POPC   GL169937  34.502   8.369   5.582
 5418POPC   GL269938  34.720   8.047   5.775
 5418POPC   C1A69939  34.445   8.302   6.093
 5418POPC   D2A69940  34.582   8.088   6.493
 5418POPC   C3A69941  34.691   8.184   6.877
 5418POPC   C4A69942  34.573   8.302   7.286
 5418POPC   C1B69943  34.927   7.801   6.145
 5418POPC   C2B69944  35.119   7.925   6.555
 5418POPC   C3B69945  35.007   7.801   6.973
 5418POPC   C4B69946  34.651   7.801   7.234
 5419POPC   NC369947   6.112  18.729   5.657
 5419POPC   PO469948   5.646  19.042   5.289
 5419POPC   GL169949   5.597  19.086   5.737
 5419POPC   GL269950   5.580  18.715   5.722
 5419POPC   C1A69951   5.803  19.210   6.186
 5419POPC   D2A69952   6.005  19.369   6.617
 5419POPC   C3A69953   6.032  19.202   7.074
 5419POPC   C4A69954   6.160  19.277   7.540
 5419POPC   C1B69955   5.467  18.815   6.144
 5419POPC   C2B69956   5.678  18.839   6.538
 5419POPC   C3B69957   5.579  18.929   6.950
 5419POPC   C4B69958   5.408  18.627   7.227
 5420POPC   NC369959   9.216   9.490   5.409
 5420POPC   PO469960   8.855  10.023   5.345
 5420POPC   GL169961   8.836   9.752   5.726
 5420POPC   GL269962   8.514   9.758   5.949
 5420POPC   C1A69963   8.995   9.722   6.149
 5420POPC   D2A69964   8.793   9.782   6.520
 5420POPC   C3A69965   8.969   9.854   6.904
 5420POPC   C4A69966   9.066   9.978   7.295
 5420POPC   C1B69967   8.623   9.360   6.136
 5420POPC   C2B69968   8.804   9.266   6.523
 5420POPC   C3B69969   8.716   9.412   6.900
 5420POPC   C4B69970   8.930   9.485   7.272
 5421POPC   NC369971  10.687  16.795   5.458
 5421POPC   PO469972  10.053  16.924   5.387
 5421POPC   GL169973  10.293  16.848   5.766
 5421POPC   GL269974  10.350  16.494   5.750
 5421POPC   C1A69975  10.606  17.017   6.093
 5421POPC   D2A69976  10.461  16.926   6.528
 5421POPC   C3A69977  10.529  17.096   6.901
 5421POPC   C4A69978  10.846  16.941   7.122
 5421POPC   C1B69979  10.543  16.521   6.168
 5421POPC   C2B69980  10.320  16.421   6.550
 5421POPC   C3B69981  10.374  16.592   6.959
 5421POPC   C4B69982  10.665  16.488   7.292
 5422POPC   NC369983  37.633  34.893   5.336
 5422POPC   PO469984  37.501  34.280   5.336
 5422POPC   GL169985  37.523  34.504   5.696
 5422POPC   GL269986  37.299  34.789   5.705
 5422POPC   C1A69987  37.594  34.594   6.128
 5422POPC   D2A69988  37.858  34.587   6.477
 5422POPC   C3A69989  37.657  34.516   6.850
 5422POPC   C4A69990  37.932  34.560   7.196
 5422POPC   C1B69991  37.350  35.038   6.099
 5422POPC   C2B69992  37.581  35.016   6.494
 5422POPC   C3B69993  37.410  35.048   6.907
 5422POPC   C4B69994  37.480  34.791   7.238
 5423POPC   NC369995   2.231  10.080   5.330
 5423POPC   PO469996   1.919   9.406   5.383
 5423POPC   GL169997   1.997   9.463   5.821
 5423POPC   GL269998   2.079   9.809   5.737
 5423POPC   C1A69999   2.043   9.688   6.243
 5423POPC   D2A70000   1.794   9.983   6.524
 5423POPC   C3A70001   1.770   9.909   6.950
 5423POPC   C4A70002   2.007   9.575   7.168
 5423POPC   C1B70003   2.409   9.989   6.011
 5423POPC   C2B70004   2.400   9.967   6.476
 5423POPC   C3B70005   2.256   9.975   6.903
 5423POPC   C4B70006   2.258   9.962   7.370
 5424POPC   NC370007  12.932  28.047   5.423
 5424POPC   PO470008  12.738  27.415   5.132
 5424POPC   GL170009  12.962  27.515   5.602
 5424POPC   GL270010  12.879  27.813   5.854
 5424POPC   C1A70011  13.124  27.431   6.092
 5424POPC   D2A70012  13.321  27.481   6.550
 5424POPC   C3A70013  13.089  27.389   6.970
 5424POPC   C4A70014  12.796  27.515   7.325
 5424POPC   C1B70015  13.037  27.939   6.250
 5424POPC   C2B70016  12.903  27.800   6.651
 5424POPC   C3B70017  12.744  27.947   7.022
 5424POPC   C4B70018  13.009  28.135   7.244
 5425POPC   NC370019  26.141  12.630   5.368
 5425POPC   PO470020  25.884  12.058   5.382
 5425POPC   GL170021  25.895  12.195   5.796
 5425POPC   GL270022  25.726  11.889   5.867
 5425POPC   C1A70023  26.084  12.159   6.224
 5425POPC   D2A70024  26.012  12.263   6.659
 5425POPC   C3A70025  26.277  12.130   7.012
 5425POPC   C4A70026  26.451  11.828   7.299
 5425POPC   C1B70027  25.578  12.070   6.222
 5425POPC   C2B70028  25.774  11.815   6.537
 5425POPC   C3B70029  25.831  11.880   6.968
 5425POPC   C4B70030  25.773  12.300   7.108
 5426POPC   NC370031  10.834  42.579   5.503
 5426POPC   PO470032  10.311  42.916   5.417
 5426POPC   GL170033  10.412  42.943   5.838
 5426POPC   GL270034  10.740  43.034   5.877
 5426POPC   C1A70035  10.233  42.941   6.242
 5426POPC   D2A70036  10.173  43.249   6.605
 5426POPC   C3A70037  10.293  43.149   7.050
 5426POPC   C4A70038  10.242  42.840   7.357
 5426POPC   C1B70039  10.694  43.169   6.329
 5426POPC   C2B70040  10.668  43.344   6.754
 5426POPC   C3B70041  10.879  43.309   7.158
 5426POPC   C4B70042  11.017  43.368   7.630
 5427POPC   NC370043   1.031  14.932   5.227
 5427POPC   PO470044   1.455  15.375   5.280
 5427POPC   GL170045   1.159  15.246   5.620
 5427POPC   GL270046   1.423  15.289   5.817
 5427POPC   C1A70047   1.042  15.193   6.117
 5427POPC   D2A70048   1.106  15.368   6.517
 5427POPC   C3A70049   1.388  15.243   6.851
 5427POPC   C4A70050   1.274  15.243   7.277
 5427POPC   C1B70051   1.548  15.181   6.247
 5427POPC   C2B70052   1.488  14.839   6.548
 5427POPC   C3B70053   1.220  14.768   6.902
 5427POPC   C4B70054   1.396  14.756   7.291
 5428POPC   NC370055  44.629  44.719   5.380
 5428POPC   PO470056  44.082   0.040   5.415
 5428POPC   GL170057  44.311  44.882   5.803
 5428POPC   GL270058  44.604  44.653   5.869
 5428POPC   C1A70059  44.373  44.835   6.264
 5428POPC   D2A70060  44.701  44.767   6.579
 5428POPC   C3A70061  44.565  44.706   7.016
 5428POPC   C4A70062  44.718  44.901   7.371
 5428POPC   C1B70063  44.859  44.422   6.183
 5428POPC   C2B70064   0.049  44.244   6.559
 5428POPC   C3B70065  44.921  44.366   6.952
 5428POPC   C4B70066  44.771  44.409   7.420
 5429POPC   NC370067  12.257  24.480   5.462
 5429POPC   PO470068  11.527  24.603   5.395
 5429POPC   GL170069  11.792  24.613   5.806
 5429POPC   GL270070  12.100  24.797   5.839
 5429POPC   C1A70071  11.802  24.339   6.186
 5429POPC   D2A70072  11.964  24.273   6.592
 5429POPC   C3A70073  11.850  24.346   7.007
 5429POPC   C4A70074  12.058  24.461   7.380
 5429POPC   C1B70075  12.106  24.715   6.317
 5429POPC   C2B70076  12.076  24.758   6.767
 5429POPC   C3B70077  12.420  24.753   7.062
 5429POPC   C4B70078  12.502  24.679   7.511
 5430POPC   NC370079   3.013  19.271   5.085
 5430POPC   PO470080   2.645  18.859   5.393
 5430POPC   GL170081   2.687  18.832   5.810
 5430POPC   GL270082   3.033  18.756   5.758
 5430POPC   C1A70083   2.538  19.063   6.190
 5430POPC   D2A70084   2.751  19.263   6.521
 5430POPC   C3A70085   2.598  19.027   6.846
 5430POPC   C4A70086   2.449  19.074   7.244
 5430POPC   C1B70087   3.048  18.958   6.156
 5430POPC   C2B70088   2.971  18.792   6.545
 5430POPC   C3B70089   3.087  18.861   6.938
 5430POPC   C4B70090   2.902  18.836   7.322
 5431POPC   NC370091  27.901  30.449   5.549
 5431POPC   PO470092  27.244  30.515   5.467
 5431POPC   GL170093  27.484  30.816   5.790
 5431POPC   GL270094  27.878  30.791   5.910
 5431POPC   C1A70095  27.518  30.936   6.249
 5431POPC   D2A70096  27.673  30.729   6.625
 5431POPC   C3A70097  27.599  30.783   7.056
 5431POPC   C4A70098  27.667  31.172   7.227
 5431POPC   C1B70099  27.782  30.448   6.192
 5431POPC   C2B70100  27.821  30.265   6.600
 5431POPC   C3B70101  28.017  30.455   6.950
 5431POPC   C4B70102  28.053  30.693   7.310
 5432POPC   NC370103   0.244  29.728   5.431
 5432POPC   PO470104   0.262  30.322   5.444
 5432POPC   GL170105   0.495  30.057   5.757
 5432POPC   GL270106   0.670  29.714   5.751
 5432POPC   C1A70107   0.376  29.850   6.158
 5432POPC   D2A70108   0.534  29.915   6.585
 5432POPC   C3A70109   0.341  29.730   6.958
 5432POPC   C4A70110   0.423  29.892   7.363
 5432POPC   C1B70111   0.850  29.649   6.216
 5432POPC   C2B70112   0.852  29.511   6.684
 5432POPC   C3B70113   0.840  29.716   7.113
 5432POPC   C4B70114   0.804  29.624   7.593
 5433POPC   NC370115  25.926  18.090   5.182
 5433POPC   PO470116  26.273  18.595   5.429
 5433POPC   GL170117  26.190  18.266   5.677
 5433POPC   GL270118  25.889  18.180   5.733
 5433POPC   C1A70119  26.284  18.102   6.097
 5433POPC   D2A70120  26.239  18.053   6.540
 5433POPC   C3A70121  26.234  18.350   6.876
 5433POPC   C4A70122  26.303  18.252   7.312
 5433POPC   C1B70123  25.815  18.331   6.168
 5433POPC   C2B70124  25.739  18.244   6.622
 5433POPC   C3B70125  25.753  18.363   7.069
 5433POPC   C4B70126  25.810  18.222   7.485
 5434POPC   NC370127  34.106   8.660   5.265
 5434POPC   PO470128  33.563   8.989   5.428
 5434POPC   GL170129  33.700   9.047   5.807
 5434POPC   GL270130  34.064   9.026   5.750
 5434POPC   C1A70131  33.655   8.909   6.204
 5434POPC   D2A70132  33.864   8.825   6.559
 5434POPC   C3A70133  33.731   8.694   6.952
 5434POPC   C4A70134  33.653   8.949   7.320
 5434POPC   C1B70135  34.109   9.177   6.185
 5434POPC   C2B70136  34.310   9.072   6.575
 5434POPC   C3B70137  34.209   8.877   6.943
 5434POPC   C4B70138  34.127   9.104   7.271
 5435POPC   NC370139  18.627  43.954   5.327
 5435POPC   PO470140  18.099  43.544   5.543
 5435POPC   GL170141  18.211  43.771   5.918
 5435POPC   GL270142  18.494  43.989   5.827
 5435POPC   C1A70143  18.134  43.726   6.331
 5435POPC   D2A70144  18.287  43.640   6.698
 5435POPC   C3A70145  17.977  43.766   6.939
 5435POPC   C4A70146  18.089  43.837   7.369
 5435POPC   C1B70147  18.375  44.152   6.221
 5435POPC   C2B70148  18.225  44.165   6.609
 5435POPC   C3B70149  18.333  44.125   6.997
 5435POPC   C4B70150  18.215  44.335   7.307
 5436POPC   NC370151  37.602  28.827   5.386
 5436POPC   PO470152  37.832  29.499   5.239
 5436POPC   GL170153  37.871  29.421   5.710
 5436POPC   GL270154  37.715  29.087   5.824
 5436POPC   C1A70155  37.919  29.415   6.190
 5436POPC   D2A70156  37.817  29.024   6.499
 5436POPC   C3A70157  37.960  29.046   6.922
 5436POPC   C4A70158  38.059  29.425   7.081
 5436POPC   C1B70159  37.457  29.247   6.173
 5436POPC   C2B70160  37.496  29.421   6.572
 5436POPC   C3B70161  37.402  29.136   6.901
 5436POPC   C4B70162  37.581  28.939   7.259
 5437POPC   NC370163  18.892  34.121   5.395
 5437POPC   PO470164  19.097  33.444   5.566
 5437POPC   GL170165  19.001  33.801   5.786
 5437POPC   GL270166  19.298  34.043   5.752
 5437POPC   C1A70167  19.009  34.004   6.183
 5437POPC   D2A70168  18.797  34.145   6.537
 5437POPC   C3A70169  18.786  33.829   6.883
 5437POPC   C4A70170  18.975  34.031   7.196
 5437POPC   C1B70171  19.471  33.710   6.052
 5437POPC   C2B70172  19.383  33.488   6.440
 5437POPC   C3B70173  19.458  33.498   6.882
 5437POPC   C4B70174  19.197  33.585   7.223
 5438POPC   NC370175  36.260  26.439   5.291
 5438POPC   PO470176  36.045  27.090   5.435
 5438POPC   GL170177  36.121  26.876   5.777
 5438POPC   GL270178  35.975  26.540   5.730
 5438POPC   C1A70179  36.289  26.983   6.173
 5438POPC   D2A70180  36.231  26.774   6.570
 5438POPC   C3A70181  36.139  27.019   6.935
 5438POPC   C4A70182  36.501  27.107   7.185
 5438POPC   C1B70183  35.909  26.571   6.180
 5438POPC   C2B70184  35.888  26.376   6.591
 5438POPC   C3B70185  36.038  26.500   6.985
 5438POPC   C4B70186  36.340  26.619   7.270
 5439POPC   NC370187  36.092  43.857   5.493
 5439POPC   PO470188  36.691  43.531   5.464
 5439POPC   GL170189  36.476  43.692   5.818
 5439POPC   GL270190  36.438  44.074   5.862
 5439POPC   C1A70191  36.291  43.659   6.221
 5439POPC   D2A70192  36.352  43.885   6.613
 5439POPC   C3A70193  36.094  43.808   6.985
 5439POPC   C4A70194  36.240  43.850   7.400
 5439POPC   C1B70195  36.070  44.117   6.158
 5439POPC   C2B70196  35.954  44.208   6.608
 5439POPC   C3B70197  36.103  44.319   7.035
 5439POPC   C4B70198  35.865  44.181   7.419
 5440POPC   NC370199  16.431  24.943   4.996
 5440POPC   PO470200  16.822  24.442   5.219
 5440POPC   GL170201  16.825  24.615   5.701
 5440POPC   GL270202  17.071  24.867   5.821
 5440POPC   C1A70203  16.738  24.470   6.155
 5440POPC   D2A70204  16.877  24.394   6.596
 5440POPC   C3A70205  16.615  24.460   7.003
 5440POPC   C4A70206  16.493  24.319   7.462
 5440POPC   C1B70207  17.227  24.655   6.185
 5440POPC   C2B70208  17.368  24.638   6.608
 5440POPC   C3B70209  17.128  24.550   6.985
 5440POPC   C4B70210  16.982  24.387   7.360
 5441POPC   NC370211  12.539  26.342   5.392
 5441POPC   PO470212  12.905  25.764   5.254
 5441POPC   GL170213  12.822  25.989   5.680
 5441POPC   GL270214  13.120  26.171   5.839
 5441POPC   C1A70215  12.716  25.960   6.135
 5441POPC   D2A70216  12.951  26.064   6.526
 5441POPC   C3A70217  12.759  25.914   6.915
 5441POPC   C4A70218  12.639  26.041   7.344
 5441POPC   C1B70219  13.287  26.365   6.214
 5441POPC   C2B70220  13.090  26.576   6.570
 5441POPC   C3B70221  12.808  26.414   6.886
 5441POPC   C4B70222  13.049  26.308   7.265
 5442POPC   NC370223   4.558   6.582   5.358
 5442POPC   PO470224   3.936   6.465   5.558
 5442POPC   GL170225   4.162   6.645   5.868
 5442POPC   GL270226   4.482   6.821   5.790
 5442POPC   C1A70227   4.032   6.592   6.269
 5442POPC   D2A70228   4.279   6.413   6.582
 5442POPC   C3A70229   4.117   6.452   6.966
 5442POPC   C4A70230   4.304   6.538   7.358
 5442POPC   C1B70231   4.579   6.558   6.162
 5442POPC   C2B70232   4.729   6.663   6.574
 5442POPC   C3B70233   4.604   6.749   6.966
 5442POPC   C4B70234   4.764   6.710   7.378
 5443POPC   NC370235   1.353  12.339   5.337
 5443POPC   PO470236   1.670  12.868   5.198
 5443POPC   GL170237   1.471  12.792   5.677
 5443POPC   GL270238   1.147  12.962   5.823
 5443POPC   C1A70239   1.484  12.914   6.178
 5443POPC   D2A70240   1.287  13.032   6.616
 5443POPC   C3A70241   1.489  12.800   6.975
 5443POPC   C4A70242   1.211  12.591   7.280
 5443POPC   C1B70243   0.987  12.771   6.237
 5443POPC   C2B70244   0.788  12.898   6.666
 5443POPC   C3B70245   0.768  12.829   7.155
 5443POPC   C4B70246   0.940  12.983   7.574
 5444POPC   NC370247  40.554   2.472   5.452
 5444POPC   PO470248  41.207   2.741   5.328
 5444POPC   GL170249  41.181   2.495   5.699
 5444POPC   GL270250  40.872   2.659   5.814
 5444POPC   C1A70251  41.148   2.426   6.166
 5444POPC   D2A70252  40.902   2.637   6.487
 5444POPC   C3A70253  41.019   2.578   6.928
 5444POPC   C4A70254  41.040   2.814   7.306
 5444POPC   C1B70255  40.515   2.614   6.112
 5444POPC   C2B70256  40.393   2.441   6.507
 5444POPC   C3B70257  40.376   2.634   6.892
 5444POPC   C4B70258  40.559   2.666   7.317
 5445POPC   NC370259   5.723   5.513   5.360
 5445POPC   PO470260   6.075   6.084   5.495
 5445POPC   GL170261   6.042   5.812   5.889
 5445POPC   GL270262   5.718   5.698   5.875
 5445POPC   C1A70263   5.898   5.942   6.324
 5445POPC   D2A70264   5.824   6.266   6.645
 5445POPC   C3A70265   6.018   6.264   7.043
 5445POPC   C4A70266   5.991   6.117   7.473
 5445POPC   C1B70267   5.620   5.485   6.292
 5445POPC   C2B70268   5.789   5.491   6.728
 5445POPC   C3B70269   5.823   5.784   7.068
 5445POPC   C4B70270   5.516   5.807   7.382
 5446POPC   NC370271   1.537   7.130   5.721
 5446POPC   PO470272   1.864   7.478   5.254
 5446POPC   GL170273   2.041   7.615   5.763
 5446POPC   GL270274   1.884   7.336   6.002
 5446POPC   C1A70275   2.214   7.580   6.236
 5446POPC   D2A70276   1.990   7.211   6.503
 5446POPC   C3A70277   2.041   7.199   6.948
 5446POPC   C4A70278   2.070   7.478   7.290
 5446POPC   C1B70279   1.713   7.613   6.378
 5446POPC   C2B70280   1.751   7.614   6.852
 5446POPC   C3B70281   1.605   7.710   7.266
 5446POPC   C4B70282   1.704   7.503   7.671
 5447POPC   NC370283   8.340  19.266   5.189
 5447POPC   PO470284   7.874  18.817   5.225
 5447POPC   GL170285   8.067  18.919   5.639
 5447POPC   GL270286   8.328  19.198   5.683
 5447POPC   C1A70287   8.265  18.872   6.075
 5447POPC   D2A70288   8.176  18.831   6.506
 5447POPC   C3A70289   8.311  18.866   6.935
 5447POPC   C4A70290   7.939  18.891   7.202
 5447POPC   C1B70291   7.987  19.314   5.950
 5447POPC   C2B70292   8.045  19.296   6.370
 5447POPC   C3B70293   7.965  19.216   6.798
 5447POPC   C4B70294   7.950  19.416   7.215
 5448POPC   NC370295   6.633   4.192   5.375
 5448POPC   PO470296   6.397   4.668   5.799
 5448POPC   GL170297   6.720   4.453   5.980
 5448POPC   GL270298   6.798   4.122   5.864
 5448POPC   C1A70299   6.795   4.394   6.417
 5448POPC   D2A70300   6.602   4.148   6.733
 5448POPC   C3A70301   6.690   4.341   7.101
 5448POPC   C4A70302   6.420   4.566   7.356
 5448POPC   C1B70303   6.805   3.925   6.270
 5448POPC   C2B70304   7.073   3.993   6.637
 5448POPC   C3B70305   7.016   3.932   7.087
 5448POPC   C4B70306   6.831   4.041   7.528
 5449POPC   NC370307  21.291   7.083   5.555
 5449POPC   PO470308  21.344   6.468   5.275
 5449POPC   GL170309  21.362   6.590   5.690
 5449POPC   GL270310  21.697   6.533   5.732
 5449POPC   C1A70311  21.055   6.684   6.052
 5449POPC   D2A70312  20.883   6.598   6.475
 5449POPC   C3A70313  21.209   6.602   6.774
 5449POPC   C4A70314  21.250   6.667   7.201
 5449POPC   C1B70315  21.571   6.638   6.154
 5449POPC   C2B70316  21.766   6.828   6.511
 5449POPC   C3B70317  21.683   6.750   6.923
 5449POPC   C4B70318  21.703   6.443   7.227
 5450POPC   NC370319  26.432   4.457   5.360
 5450POPC   PO470320  25.742   4.127   5.345
 5450POPC   GL170321  25.990   4.357   5.669
 5450POPC   GL270322  26.277   4.165   5.771
 5450POPC   C1A70323  25.998   4.381   6.149
 5450POPC   D2A70324  25.821   4.088   6.498
 5450POPC   C3A70325  25.757   4.264   6.927
 5450POPC   C4A70326  26.044   4.524   7.170
 5450POPC   C1B70327  26.252   3.924   6.180
 5450POPC   C2B70328  26.199   3.753   6.606
 5450POPC   C3B70329  26.205   4.034   6.991
 5450POPC   C4B70330  26.404   4.162   7.374
 5451POPC   NC370331  25.742   0.640   5.174
 5451POPC   PO470332  25.192   0.266   5.430
 5451POPC   GL170333  25.315   0.338   5.837
 5451POPC   GL270334  25.063   0.589   5.835
 5451POPC   C1A70335  25.185   0.260   6.271
 5451POPC   D2A70336  25.047   0.427   6.658
 5451POPC   C3A70337  25.144   0.223   7.034
 5451POPC   C4A70338  24.999   0.424   7.386
 5451POPC   C1B70339  25.256   0.798   6.184
 5451POPC   C2B70340  25.274   0.896   6.620
 5451POPC   C3B70341  25.419   0.654   6.982
 5451POPC   C4B70342  25.499   0.591   7.396
 5452POPC   NC370343  38.763  44.893   4.994
 5452POPC   PO470344  38.387   0.401   5.199
 5452POPC   GL170345  38.334   0.502   5.667
 5452POPC   GL270346  38.609   0.737   5.758
 5452POPC   C1A70347  38.456   0.346   6.117
 5452POPC   D2A70348  38.406   0.460   6.559
 5452POPC   C3A70349  38.437   0.240   6.967
 5452POPC   C4A70350  38.410   0.471   7.358
 5452POPC   C1B70351  38.702   0.925   6.173
 5452POPC   C2B70352  38.769   0.825   6.588
 5452POPC   C3B70353  38.585   0.746   6.960
 5452POPC   C4B70354  38.653   0.945   7.330
 5453POPC   NC370355  20.955  10.500   5.381
 5453POPC   PO470356  21.635  10.621   5.322
 5453POPC   GL170357  21.342  10.557   5.728
 5453POPC   GL270358  21.338  10.212   5.840
 5453POPC   C1A70359  21.177  10.704   6.169
 5453POPC   D2A70360  21.197  10.538   6.598
 5453POPC   C3A70361  21.090  10.816   6.935
 5453POPC   C4A70362  21.378  11.080   7.161
 5453POPC   C1B70363  21.582  10.166   6.255
 5453POPC   C2B70364  21.648  10.297   6.717
 5453POPC   C3B70365  21.383  10.343   7.094
 5453POPC   C4B70366  21.288  10.669   7.419
 5454POPC   NC370367   0.376  32.455   5.194
 5454POPC   PO470368   0.752  31.918   5.415
 5454POPC   GL170369   0.419  32.123   5.619
 5454POPC   GL270370   0.430  32.449   5.732
 5454POPC   C1A70371   0.382  32.061   6.095
 5454POPC   D2A70372   0.272  32.142   6.534
 5454POPC   C3A70373   0.530  32.344   6.863
 5454POPC   C4A70374   0.481  31.997   7.129
 5454POPC   C1B70375   0.267  32.565   6.162
 5454POPC   C2B70376   0.056  32.585   6.582
 5454POPC   C3B70377   0.044  32.353   7.002
 5454POPC   C4B70378   0.319  32.438   7.365
 5455POPC   NC370379  26.775   3.177   5.633
 5455POPC   PO470380  26.554   3.852   5.472
 5455POPC   GL170381  26.695   3.874   5.894
 5455POPC   GL270382  26.929   3.612   5.909
 5455POPC   C1A70383  26.737   3.790   6.345
 5455POPC   D2A70384  26.889   3.778   6.768
 5455POPC   C3A70385  26.580   3.700   7.055
 5455POPC   C4A70386  26.533   3.361   7.315
 5455POPC   C1B70387  26.888   3.301   6.281
 5455POPC   C2B70388  27.057   3.265   6.717
 5455POPC   C3B70389  27.027   3.409   7.161
 5455POPC   C4B70390  26.914   3.147   7.545
 5456POPC   NC370391  18.502  36.614   5.448
 5456POPC   PO470392  18.067  36.057   5.382
 5456POPC   GL170393  18.221  35.923   5.816
 5456POPC   GL270394  18.570  35.827   5.863
 5456POPC   C1A70395  18.090  36.010   6.252
 5456POPC   D2A70396  18.232  36.007   6.670
 5456POPC   C3A70397  18.053  36.090   7.071
 5456POPC   C4A70398  18.199  36.093   7.523
 5456POPC   C1B70399  18.604  36.044   6.285
 5456POPC   C2B70400  18.737  36.151   6.735
 5456POPC   C3B70401  18.573  36.149   7.154
 5456POPC   C4B70402  18.725  35.976   7.546
 5457POPC   NC370403  21.505  24.762   5.360
 5457POPC   PO470404  21.773  24.182   5.471
 5457POPC   GL170405  21.604  24.481   5.786
 5457POPC   GL270406  21.236  24.507   5.819
 5457POPC   C1A70407  21.617  24.682   6.198
 5457POPC   D2A70408  21.351  24.716   6.576
 5457POPC   C3A70409  21.584  24.609   6.954
 5457POPC   C4A70410  21.512  24.549   7.402
 5457POPC   C1B70411  21.320  24.269   6.243
 5457POPC   C2B70412  21.368  24.208   6.716
 5457POPC   C3B70413  21.329  24.134   7.175
 5457POPC   C4B70414  21.394  24.108   7.653
 5458POPC   NC370415  10.280  24.096   5.590
 5458POPC   PO470416   9.866  24.567   5.298
 5458POPC   GL170417   9.890  24.430   5.772
 5458POPC   GL270418   9.878  24.080   5.907
 5458POPC   C1A70419   9.729  24.448   6.232
 5458POPC   D2A70420   9.637  24.295   6.679
 5458POPC   C3A70421   9.585  24.623   7.007
 5458POPC   C4A70422   9.823  24.848   7.369
 5458POPC   C1B70423   9.976  24.012   6.365
 5458POPC   C2B70424  10.098  24.100   6.813
 5458POPC   C3B70425   9.797  24.129   7.166
 5458POPC   C4B70426   9.677  23.787   7.478
 5459POPC   NC370427  34.625  10.818   5.221
 5459POPC   PO470428  34.614  10.155   5.390
 5459POPC   GL170429  34.659  10.371   5.777
 5459POPC   GL270430  34.772  10.723   5.713
 5459POPC   C1A70431  34.490  10.253   6.198
 5459POPC   D2A70432  34.258  10.081   6.582
 5459POPC   C3A70433  34.447  10.059   6.996
 5459POPC   C4A70434  34.870  10.099   7.136
 5459POPC   C1B70435  34.532  10.751   6.105
 5459POPC   C2B70436  34.476  10.640   6.525
 5459POPC   C3B70437  34.393  10.835   6.879
 5459POPC   C4B70438  34.629  10.574   7.168
 5460POPC   NC370439   9.756  29.238   5.348
 5460POPC   PO470440   9.709  28.550   5.273
 5460POPC   GL170441   9.863  28.815   5.698
 5460POPC   GL270442   9.825  29.191   5.835
 5460POPC   C1A70443   9.914  28.881   6.187
 5460POPC   D2A70444   9.888  29.130   6.583
 5460POPC   C3A70445  10.067  28.995   6.980
 5460POPC   C4A70446   9.870  28.804   7.305
 5460POPC   C1B70447   9.509  29.203   6.227
 5460POPC   C2B70448   9.428  29.352   6.692
 5460POPC   C3B70449   9.539  29.238   7.150
 5460POPC   C4B70450   9.492  29.477   7.576
 5461POPC   NC370451  20.602   5.315   5.131
 5461POPC   PO470452  20.752   6.026   5.289
 5461POPC   GL170453  20.689   5.880   5.722
 5461POPC   GL270454  20.392   5.644   5.733
 5461POPC   C1A70455  20.825   5.810   6.165
 5461POPC   D2A70456  20.989   5.645   6.560
 5461POPC   C3A70457  20.797   5.877   6.888
 5461POPC   C4A70458  20.767   5.794   7.277
 5461POPC   C1B70459  20.333   5.564   6.176
 5461POPC   C2B70460  20.475   5.608   6.607
 5461POPC   C3B70461  20.336   5.597   7.054
 5461POPC   C4B70462  20.276   5.869   7.441
 5462POPC   NC370463  30.136  36.156   5.183
 5462POPC   PO470464  29.749  35.803   5.629
 5462POPC   GL170465  30.032  35.996   5.870
 5462POPC   GL270466  29.903  35.773   6.120
 5462POPC   C1A70467  30.212  36.122   6.272
 5462POPC   D2A70468  30.013  36.184   6.669
 5462POPC   C3A70469  30.145  36.073   7.061
 5462POPC   C4A70470  29.995  36.117   7.485
 5462POPC   C1B70471  29.709  36.216   6.250
 5462POPC   C2B70472  29.513  36.316   6.666
 5462POPC   C3B70473  29.697  36.347   7.091
 5462POPC   C4B70474  29.652  36.487   7.519
 5463POPC   NC370475   6.697  11.807   5.366
 5463POPC   PO470476   6.952  12.491   5.370
 5463POPC   GL170477   7.018  12.284   5.763
 5463POPC   GL270478   6.851  11.970   5.812
 5463POPC   C1A70479   6.787  12.377   6.160
 5463POPC   D2A70480   6.488  12.388   6.493
 5463POPC   C3A70481   6.588  12.359   6.934
 5463POPC   C4A70482   6.366  12.176   7.267
 5463POPC   C1B70483   6.693  11.863   6.196
 5463POPC   C2B70484   6.840  12.029   6.565
 5463POPC   C3B70485   6.734  11.870   6.941
 5463POPC   C4B70486   6.650  11.719   7.291
 5464POPC   NC370487  39.138  25.287   5.427
 5464POPC   PO470488  39.722  25.474   5.469
 5464POPC   GL170489  39.694  25.300   5.886
 5464POPC   GL270490  39.409  25.138   5.844
 5464POPC   C1A70491  39.499  25.328   6.306
 5464POPC   D2A70492  39.151  25.464   6.542
 5464POPC   C3A70493  39.315  25.549   6.955
 5464POPC   C4A70494  39.302  25.398   7.391
 5464POPC   C1B70495  39.026  25.120   6.089
 5464POPC   C2B70496  38.933  24.975   6.517
 5464POPC   C3B70497  38.995  25.148   6.915
 5464POPC   C4B70498  39.013  24.984   7.279
 5465POPC   NC370499  37.349  24.925   5.499
 5465POPC   PO470500  37.883  25.412   5.399
 5465POPC   GL170501  37.742  25.408   5.794
 5465POPC   GL270502  37.399  25.342   5.811
 5465POPC   C1A70503  37.727  25.153   6.174
 5465POPC   D2A70504  37.555  25.121   6.575
 5465POPC   C3A70505  37.763  25.015   6.937
 5465POPC   C4A70506  37.467  25.109   7.255
 5465POPC   C1B70507  37.211  25.302   6.227
 5465POPC   C2B70508  37.283  25.564   6.605
 5465POPC   C3B70509  37.584  25.499   6.957
 5465POPC   C4B70510  37.461  25.581   7.445
 5466POPC   NC370511  43.685  21.162   5.454
 5466POPC   PO470512  44.196  21.588   5.257
 5466POPC   GL170513  44.143  21.438   5.691
 5466POPC   GL270514  43.810  21.450   5.871
 5466POPC   C1A70515  44.198  21.582   6.140
 5466POPC   D2A70516  43.913  21.462   6.452
 5466POPC   C3A70517  44.064  21.586   6.840
 5466POPC   C4A70518  44.045  21.412   7.239
 5466POPC   C1B70519  43.972  21.102   6.078
 5466POPC   C2B70520  43.912  20.936   6.480
 5466POPC   C3B70521  43.829  21.117   6.854
 5466POPC   C4B70522  43.845  20.954   7.262
 5467POPC   NC370523  38.798  34.394   5.474
 5467POPC   PO470524  38.124  34.694   5.465
 5467POPC   GL170525  38.377  34.706   5.853
 5467POPC   GL270526  38.736  34.837   5.847
 5467POPC   C1A70527  38.317  34.479   6.260
 5467POPC   D2A70528  38.341  34.649   6.695
 5467POPC   C3A70529  38.421  34.410   7.078
 5467POPC   C4A70530  38.321  34.536   7.516
 5467POPC   C1B70531  38.713  34.776   6.338
 5467POPC   C2B70532  38.863  34.826   6.767
 5467POPC   C3B70533  38.718  34.803   7.209
 5467POPC   C4B70534  38.660  34.898   7.620
 5468POPC   NC370535  44.711  38.625   4.919
 5468POPC   PO470536  44.357  38.225   5.353
 5468POPC   GL170537  44.447  38.309   5.779
 5468POPC   GL270538  44.613  38.645   5.748
 5468POPC   C1A70539  44.667  38.342   6.169
 5468POPC   D2A70540  44.525  38.501   6.545
 5468POPC   C3A70541  44.772  38.412   6.881
 5468POPC   C4A70542  44.616  38.373   7.285
 5468POPC   C1B70543  44.944  38.761   6.040
 5468POPC   C2B70544  44.999  38.682   6.471
 5468POPC   C3B70545  44.922  38.914   6.851
 5468POPC   C4B70546  44.984  38.728   7.238
 5469POPC   NC370547   1.490  24.141   5.591
 5469POPC   PO470548   0.975  23.729   5.410
 5469POPC   GL170549   1.123  23.770   5.838
 5469POPC   GL270550   1.098  24.113   5.953
 5469POPC   C1A70551   1.233  23.634   6.258
 5469POPC   D2A70552   1.477  23.669   6.636
 5469POPC   C3A70553   1.225  23.558   6.985
 5469POPC   C4A70554   1.145  23.636   7.393
 5469POPC   C1B70555   1.420  24.125   6.295
 5469POPC   C2B70556   1.455  24.225   6.709
 5469POPC   C3B70557   1.363  24.045   7.066
 5469POPC   C4B70558   1.316  24.092   7.490
 5470POPC   NC370559  20.563   0.729   5.395
 5470POPC   PO470560  20.598   0.047   5.309
 5470POPC   GL170561  20.483   0.248   5.700
 5470POPC   GL270562  20.517   0.560   5.852
 5470POPC   C1A70563  20.374   0.147   6.132
 5470POPC   D2A70564  20.646  44.994   6.435
 5470POPC   C3A70565  20.537   0.059   6.842
 5470POPC   C4A70566  20.693   0.316   7.171
 5470POPC   C1B70567  20.683   0.537   6.254
 5470POPC   C2B70568  20.588   0.537   6.680
 5470POPC   C3B70569  20.863   0.747   6.942
 5470POPC   C4B70570  20.966   0.832   7.373
 5471POPC   NC370571  27.032  30.939   5.489
 5471POPC   PO470572  26.616  30.543   5.148
 5471POPC   GL170573  26.633  30.590   5.652
 5471POPC   GL270574  26.955  30.568   5.866
 5471POPC   C1A70575  26.553  30.662   6.141
 5471POPC   D2A70576  26.745  30.585   6.546
 5471POPC   C3A70577  26.603  30.790   6.929
 5471POPC   C4A70578  26.654  30.617   7.328
 5471POPC   C1B70579  26.997  30.923   6.177
 5471POPC   C2B70580  27.085  30.985   6.620
 5471POPC   C3B70581  27.092  30.840   7.064
 5471POPC   C4B70582  27.117  30.981   7.513
 5472POPC   NC370583  33.486  13.528   5.352
 5472POPC   PO470584  34.236  13.404   5.349
 5472POPC   GL170585  33.885  13.464   5.677
 5472POPC   GL270586  33.676  13.742   5.795
 5472POPC   C1A70587  33.712  13.342   6.098
 5472POPC   D2A70588  33.822  13.542   6.501
 5472POPC   C3A70589  33.797  13.416   6.935
 5472POPC   C4A70590  33.910  13.722   7.253
 5472POPC   C1B70591  33.435  13.770   6.209
 5472POPC   C2B70592  33.378  13.712   6.685
 5472POPC   C3B70593  33.429  13.717   7.120
 5472POPC   C4B70594  33.374  13.296   7.344
 5473POPC   NC370595  33.591  35.860   5.383
 5473POPC   PO470596  34.095  36.315   5.550
 5473POPC   GL170597  33.787  36.244   5.830
 5473POPC   GL270598  33.839  35.914   5.820
 5473POPC   C1A70599  33.654  36.143   6.264
 5473POPC   D2A70600  33.921  36.282   6.593
 5473POPC   C3A70601  33.821  36.145   7.002
 5473POPC   C4A70602  33.416  36.178   7.163
 5473POPC   C1B70603  34.049  35.801   6.164
 5473POPC   C2B70604  33.885  35.728   6.566
 5473POPC   C3B70605  34.099  35.739   6.951
 5473POPC   C4B70606  34.163  35.587   7.323
 5474POPC   NC370607  21.532  18.559   5.391
 5474POPC   PO470608  21.236  17.932   5.493
 5474POPC   GL170609  21.419  18.254   5.798
 5474POPC   GL270610  21.249  18.590   5.820
 5474POPC   C1A70611  21.443  18.171   6.254
 5474POPC   D2A70612  21.556  18.027   6.676
 5474POPC   C3A70613  21.289  18.165   7.013
 5474POPC   C4A70614  21.386  18.128   7.456
 5474POPC   C1B70615  21.610  18.632   6.141
 5474POPC   C2B70616  21.639  18.526   6.621
 5474POPC   C3B70617  21.517  18.632   7.081
 5474POPC   C4B70618  21.628  18.540   7.570
 5475POPC   NC370619  26.108   3.858   5.349
 5475POPC   PO470620  25.669   3.386   5.448
 5475POPC   GL170621  25.862   3.657   5.763
 5475POPC   GL270622  26.234   3.599   5.795
 5475POPC   C1A70623  25.880   3.572   6.207
 5475POPC   D2A70624  25.611   3.607   6.548
 5475POPC   C3A70625  25.795   3.729   6.928
 5475POPC   C4A70626  25.691   3.461   7.242
 5475POPC   C1B70627  26.396   3.410   6.198
 5475POPC   C2B70628  26.524   3.358   6.653
 5475POPC   C3B70629  26.184   3.359   6.951
 5475POPC   C4B70630  26.086   3.147   7.316
 5476POPC   NC370631  14.978  29.498   5.618
 5476POPC   PO470632  14.920  28.864   5.635
 5476POPC   GL170633  15.106  28.988   5.978
 5476POPC   GL270634  15.305  29.329   5.999
 5476POPC   C1A70635  15.221  28.887   6.381
 5476POPC   D2A70636  15.533  29.158   6.507
 5476POPC   C3A70637  15.390  29.252   6.915
 5476POPC   C4A70638  15.270  29.049   7.305
 5476POPC   C1B70639  15.025  29.359   6.338
 5476POPC   C2B70640  14.925  29.585   6.711
 5476POPC   C3B70641  14.982  29.476   7.146
 5476POPC   C4B70642  15.017  29.531   7.587
 5477POPC   NC370643   3.049  33.663   5.153
 5477POPC   PO470644   3.620  33.528   5.492
 5477POPC   GL170645   3.419  33.706   5.825
 5477POPC   GL270646   3.398  34.055   5.823
 5477POPC   C1A70647   3.346  33.644   6.250
 5477POPC   D2A70648   3.486  33.467   6.631
 5477POPC   C3A70649   3.285  33.617   6.988
 5477POPC   C4A70650   3.325  33.947   7.287
 5477POPC   C1B70651   3.550  34.143   6.250
 5477POPC   C2B70652   3.479  34.019   6.680
 5477POPC   C3B70653   3.629  34.252   7.039
 5477POPC   C4B70654   3.548  34.346   7.493
 5478POPC   NC370655  21.637  20.286   4.974
 5478POPC   PO470656  21.293  20.749   5.346
 5478POPC   GL170657  21.362  20.797   5.800
 5478POPC   GL270658  21.453  20.488   5.947
 5478POPC   C1A70659  21.223  20.923   6.245
 5478POPC   D2A70660  21.336  20.808   6.693
 5478POPC   C3A70661  21.197  20.965   7.106
 5478POPC   C4A70662  21.372  20.966   7.523
 5478POPC   C1B70663  21.543  20.441   6.384
 5478POPC   C2B70664  21.752  20.281   6.741
 5478POPC   C3B70665  21.586  20.182   7.082
 5478POPC   C4B70666  21.266  20.463   7.180
 5479POPC   NC370667  30.012  23.147   5.417
 5479POPC   PO470668  30.154  22.461   5.505
 5479POPC   GL170669  29.935  22.614   5.911
 5479POPC   GL270670  29.949  22.964   5.894
 5479POPC   C1A70671  29.841  22.735   6.364
 5479POPC   D2A70672  30.020  23.000   6.684
 5479POPC   C3A70673  30.046  22.828   7.123
 5479POPC   C4A70674  29.912  22.504   7.433
 5479POPC   C1B70675  29.801  23.227   6.229
 5479POPC   C2B70676  29.545  23.223   6.599
 5479POPC   C3B70677  29.587  23.051   7.020
 5479POPC   C4B70678  29.620  22.910   7.433
 5480POPC   NC370679   5.490  38.383   5.378
 5480POPC   PO470680   6.112  38.243   5.540
 5480POPC   GL170681   5.782  38.264   5.789
 5480POPC   GL270682   5.611  37.960   5.669
 5480POPC   C1A70683   5.800  38.589   6.082
 5480POPC   D2A70684   5.772  38.751   6.494
 5480POPC   C3A70685   6.023  38.569   6.837
 5480POPC   C4A70686   5.794  38.529   7.205
 5480POPC   C1B70687   5.589  37.938   6.127
 5480POPC   C2B70688   5.817  38.200   6.447
 5480POPC   C3B70689   5.794  38.112   6.885
 5480POPC   C4B70690   6.069  38.079   7.243
 5481POPC   NC370691  25.271  32.846   5.383
 5481POPC   PO470692  25.241  33.477   5.535
 5481POPC   GL170693  25.136  33.124   5.812
 5481POPC   GL270694  25.414  32.885   5.862
 5481POPC   C1A70695  25.120  33.035   6.273
 5481POPC   D2A70696  25.267  32.750   6.612
 5481POPC   C3A70697  25.021  32.792   7.009
 5481POPC   C4A70698  25.066  32.854   7.488
 5481POPC   C1B70699  25.548  33.268   6.067
 5481POPC   C2B70700  25.557  33.383   6.497
 5481POPC   C3B70701  25.410  33.175   6.886
 5481POPC   C4B70702  25.042  33.287   7.096
 5482POPC   NC370703   7.098  34.431   5.466
 5482POPC   PO470704   7.167  33.797   5.277
 5482POPC   GL170705   7.185  33.749   5.744
 5482POPC   GL270706   7.216  34.037   5.969
 5482POPC   C1A70707   7.242  33.542   6.177
 5482POPC   D2A70708   7.188  33.410   6.632
 5482POPC   C3A70709   7.108  33.589   7.055
 5482POPC   C4A70710   7.310  33.877   7.328
 5482POPC   C1B70711   7.372  33.972   6.436
 5482POPC   C2B70712   7.546  33.774   6.845
 5482POPC   C3B70713   7.791  33.957   7.228
 5482POPC   C4B70714   7.624  34.210   7.594
 5483POPC   NC370715  28.781   4.244   5.404
 5483POPC   PO470716  28.222   4.006   5.486
 5483POPC   GL170717  28.458   4.160   5.852
 5483POPC   GL270718  28.751   4.411   5.871
 5483POPC   C1A70719  28.290   4.111   6.276
 5483POPC   D2A70720  28.068   4.353   6.531
 5483POPC   C3A70721  28.214   4.291   6.911
 5483POPC   C4A70722  28.291   3.917   7.142
 5483POPC   C1B70723  28.786   4.258   6.273
 5483POPC   C2B70724  28.675   4.362   6.692
 5483POPC   C3B70725  28.667   4.292   7.164
 5483POPC   C4B70726  28.644   4.352   7.626
 5484POPC   NC370727  21.915  10.223   5.325
 5484POPC   PO470728  22.112  10.893   5.469
 5484POPC   GL170729  22.138  10.596   5.787
 5484POPC   GL270730  21.822  10.459   5.871
 5484POPC   C1A70731  22.158  10.643   6.251
 5484POPC   D2A70732  22.301  10.435   6.626
 5484POPC   C3A70733  22.219  10.524   7.039
 5484POPC   C4A70734  22.326  10.607   7.484
 5484POPC   C1B70735  21.666  10.680   6.277
 5484POPC   C2B70736  21.860  10.775   6.686
 5484POPC   C3B70737  21.743  10.738   7.127
 5484POPC   C4B70738  21.780  10.736   7.597
 5485POPC   NC370739  40.331  22.446   5.459
 5485POPC   PO470740  40.154  23.094   5.303
 5485POPC   GL170741  40.148  23.090   5.773
 5485POPC   GL270742  40.017  22.761   5.738
 5485POPC   C1A70743  40.127  23.099   6.273
 5485POPC   D2A70744  40.176  23.163   6.727
 5485POPC   C3A70745  40.081  22.845   7.032
 5485POPC   C4A70746  40.304  22.610   7.338
 5485POPC   C1B70747  39.702  22.967   6.027
 5485POPC   C2B70748  39.551  23.012   6.424
 5485POPC   C3B70749  39.670  23.128   6.803
 5485POPC   C4B70750  39.776  23.280   7.156
 5486POPC   NC370751  39.798  31.806   5.404
 5486POPC   PO470752  39.815  31.158   5.410
 5486POPC   GL170753  40.216  31.232   5.670
 5486POPC   GL270754  40.170  31.601   5.743
 5486POPC   C1A70755  40.371  31.262   6.109
 5486POPC   D2A70756  40.092  31.290   6.473
 5486POPC   C3A70757  40.232  31.309   6.886
 5486POPC   C4A70758  40.076  31.277   7.280
 5486POPC   C1B70759  40.241  31.754   6.179
 5486POPC   C2B70760  40.267  31.770   6.652
 5486POPC   C3B70761  40.020  31.747   7.051
 5486POPC   C4B70762  40.197  31.746   7.462
 5487POPC   NC370763  43.355  22.717   5.387
 5487POPC   PO470764  42.788  23.108   5.364
 5487POPC   GL170765  42.980  23.034   5.739
 5487POPC   GL270766  43.267  23.224   5.816
 5487POPC   C1A70767  42.969  22.940   6.185
 5487POPC   D2A70768  43.050  23.163   6.587
 5487POPC   C3A70769  43.037  22.836   6.897
 5487POPC   C4A70770  42.791  22.787   7.272
 5487POPC   C1B70771  43.430  23.177   6.226
 5487POPC   C2B70772  43.520  22.931   6.597
 5487POPC   C3B70773  43.584  22.961   7.046
 5487POPC   C4B70774  43.225  23.069   7.306
 5488POPC   NC370775  15.409  42.961   5.485
 5488POPC   PO470776  14.769  43.182   5.553
 5488POPC   GL170777  14.963  43.303   5.922
 5488POPC   GL270778  15.277  43.262   5.861
 5488POPC   C1A70779  15.063  43.276   6.371
 5488POPC   D2A70780  14.956  43.059   6.772
 5488POPC   C3A70781  15.078  43.132   7.211
 5488POPC   C4A70782  14.869  43.072   7.615
 5488POPC   C1B70783  15.530  43.085   6.176
 5488POPC   C2B70784  15.506  43.216   6.598
 5488POPC   C3B70785  15.598  43.232   6.988
 5488POPC   C4B70786  15.559  43.013   7.346
 5489POPC   NC370787   6.092  29.790   5.349
 5489POPC   PO470788   5.548  30.145   5.123
 5489POPC   GL170789   5.636  30.104   5.643
 5489POPC   GL270790   5.415  30.250   5.904
 5489POPC   C1A70791   5.801  29.884   6.055
 5489POPC   D2A70792   5.756  29.783   6.535
 5489POPC   C3A70793   5.906  29.851   6.975
 5489POPC   C4A70794   6.244  29.670   7.233
 5489POPC   C1B70795   5.626  30.286   6.308
 5489POPC   C2B70796   5.822  30.285   6.708
 5489POPC   C3B70797   5.628  30.275   7.119
 5489POPC   C4B70798   5.740  30.273   7.571
 5490POPC   NC370799  34.988  26.326   5.383
 5490POPC   PO470800  35.738  26.289   5.329
 5490POPC   GL170801  35.598  26.126   5.761
 5490POPC   GL270802  35.210  26.199   5.842
 5490POPC   C1A70803  35.561  26.176   6.230
 5490POPC   D2A70804  35.373  26.236   6.645
 5490POPC   C3A70805  35.627  26.182   6.994
 5490POPC   C4A70806  35.772  26.281   7.386
 5490POPC   C1B70807  35.066  26.400   6.257
 5490POPC   C2B70808  34.889  26.457   6.671
 5490POPC   C3B70809  34.989  26.175   7.023
 5490POPC   C4B70810  35.263  26.316   7.334
 5491POPC   NC370811  29.696  22.374   5.511
 5491POPC   PO470812  29.016  22.520   5.483
 5491POPC   GL170813  29.282  22.305   5.803
 5491POPC   GL270814  29.360  21.983   5.753
 5491POPC   C1A70815  29.190  22.094   6.204
 5491POPC   D2A70816  29.219  22.247   6.618
 5491POPC   C3A70817  28.975  22.117   6.958
 5491POPC   C4A70818  29.058  22.152   7.385
 5491POPC   C1B70819  29.566  21.733   6.123
 5491POPC   C2B70820  29.414  21.780   6.553
 5491POPC   C3B70821  29.427  21.883   6.961
 5491POPC   C4B70822  29.544  21.758   7.360
 5492POPC   NC370823  16.396  14.341   5.341
 5492POPC   PO470824  17.067  14.252   5.584
 5492POPC   GL170825  16.646  14.422   5.791
 5492POPC   GL270826  16.726  14.758   5.932
 5492POPC   C1A70827  16.411  14.517   6.225
 5492POPC   D2A70828  16.625  14.581   6.621
 5492POPC   C3A70829  16.421  14.379   6.912
 5492POPC   C4A70830  16.514  14.059   7.179
 5492POPC   C1B70831  16.946  14.441   6.202
 5492POPC   C2B70832  16.910  14.163   6.540
 5492POPC   C3B70833  16.932  14.296   6.978
 5492POPC   C4B70834  16.949  14.709   7.181
 5493POPC   NC370835  42.758  33.423   5.264
 5493POPC   PO470836  42.529  33.983   5.641
 5493POPC   GL170837  42.298  33.954   5.945
 5493POPC   GL270838  42.179  34.310   5.837
 5493POPC   C1A70839  42.517  33.707   6.270
 5493POPC   D2A70840  42.567  33.418   6.610
 5493POPC   C3A70841  42.533  33.698   6.943
 5493POPC   C4A70842  42.282  33.699   7.294
 5493POPC   C1B70843  42.324  34.334   6.253
 5493POPC   C2B70844  42.217  34.002   6.550
 5493POPC   C3B70845  42.048  34.017   6.972
 5493POPC   C4B70846  42.014  34.127   7.399
 5494POPC   NC370847  38.148   3.583   5.481
 5494POPC   PO470848  38.849   3.684   5.463
 5494POPC   GL170849  38.604   3.592   5.822
 5494POPC   GL270850  38.645   3.233   5.799
 5494POPC   C1A70851  38.461   3.738   6.235
 5494POPC   D2A70852  38.542   3.967   6.611
 5494POPC   C3A70853  38.442   3.732   6.962
 5494POPC   C4A70854  38.501   3.539   7.360
 5494POPC   C1B70855  38.323   3.240   6.142
 5494POPC   C2B70856  38.237   3.392   6.583
 5494POPC   C3B70857  38.258   3.247   7.017
 5494POPC   C4B70858  38.575   3.018   7.231
 5495POPC   NC370859  31.243  21.922   5.345
 5495POPC   PO470860  31.857  22.302   5.187
 5495POPC   GL170861  31.443  22.292   5.642
 5495POPC   GL270862  31.214  22.553   5.795
 5495POPC   C1A70863  31.531  22.283   6.176
 5495POPC   D2A70864  31.737  22.013   6.533
 5495POPC   C3A70865  31.795  22.061   7.022
 5495POPC   C4A70866  31.761  22.220   7.488
 5495POPC   C1B70867  31.071  22.168   6.042
 5495POPC   C2B70868  31.155  22.093   6.493
 5495POPC   C3B70869  31.349  21.881   6.841
 5495POPC   C4B70870  31.361  21.972   7.285
 5496POPC   NC370871   3.747  28.599   5.578
 5496POPC   PO470872   3.106  28.232   5.442
 5496POPC   GL170873   3.360  28.231   5.788
 5496POPC   GL270874   3.310  28.540   5.923
 5496POPC   C1A70875   3.588  28.224   6.181
 5496POPC   D2A70876   3.565  28.108   6.572
 5496POPC   C3A70877   3.741  28.366   6.888
 5496POPC   C4A70878   3.911  28.183   7.281
 5496POPC   C1B70879   3.515  28.795   6.248
 5496POPC   C2B70880   3.758  28.897   6.602
 5496POPC   C3B70881   3.504  28.842   6.943
 5496POPC   C4B70882   3.457  28.543   7.265
 5497POPC   NC370883  26.430  35.022   5.597
 5497POPC   PO470884  25.844  35.272   5.408
 5497POPC   GL170885  25.947  35.056   5.792
 5497POPC   GL270886  26.117  35.338   5.888
 5497POPC   C1A70887  26.192  34.956   6.215
 5497POPC   D2A70888  26.243  34.809   6.642
 5497POPC   C3A70889  26.030  35.064   6.922
 5497POPC   C4A70890  25.935  35.132   7.328
 5497POPC   C1B70891  25.806  35.312   6.240
 5497POPC   C2B70892  25.967  35.484   6.630
 5497POPC   C3B70893  25.998  35.555   7.076
 5497POPC   C4B70894  25.560  35.517   7.248
 5498POPC   NC370895  17.355  12.928   5.383
 5498POPC   PO470896  18.001  12.650   5.557
 5498POPC   GL170897  17.657  12.760   5.825
 5498POPC   GL270898  17.429  12.466   5.772
 5498POPC   C1A70899  17.500  13.079   6.156
 5498POPC   D2A70900  17.380  13.266   6.582
 5498POPC   C3A70901  17.556  13.084   6.977
 5498POPC   C4A70902  17.408  12.916   7.391
 5498POPC   C1B70903  17.322  12.598   6.196
 5498POPC   C2B70904  17.495  12.769   6.580
 5498POPC   C3B70905  17.219  12.691   6.963
 5498POPC   C4B70906  17.195  12.449   7.368
 5499POPC   NC370907  21.181   7.881   5.353
 5499POPC   PO470908  21.155   8.497   5.483
 5499POPC   GL170909  21.394   8.201   5.757
 5499POPC   GL270910  21.244   7.847   5.868
 5499POPC   C1A70911  21.574   8.086   6.150
 5499POPC   D2A70912  21.314   8.077   6.520
 5499POPC   C3A70913  21.532   8.079   6.908
 5499POPC   C4A70914  21.539   8.422   7.186
 5499POPC   C1B70915  20.908   7.930   6.179
 5499POPC   C2B70916  20.782   8.031   6.591
 5499POPC   C3B70917  21.026   7.964   6.955
 5499POPC   C4B70918  21.277   8.015   7.346
 5500POPC   NC370919  32.151  36.783   5.442
 5500POPC   PO470920  32.434  37.386   5.361
 5500POPC   GL170921  32.342  37.156   5.748
 5500POPC   GL270922  31.981  37.184   5.848
 5500POPC   C1A70923  32.386  37.240   6.189
 5500POPC   D2A70924  32.100  37.222   6.546
 5500POPC   C3A70925  32.255  37.151   6.970
 5500POPC   C4A70926  32.485  36.979   7.321
 5500POPC   C1B70927  32.065  36.833   6.144
 5500POPC   C2B70928  32.151  36.652   6.559
 5500POPC   C3B70929  32.000  36.698   6.979
 5500POPC   C4B70930  31.814  36.396   7.227
 5501POPC   NC370931   5.909   7.903   5.608
 5501POPC   PO470932   5.829   8.513   5.542
 5501POPC   GL170933   5.659   8.392   5.924
 5501POPC   GL270934   6.009   8.280   5.995
 5501POPC   C1A70935   5.674   8.409   6.401
 5501POPC   D2A70936   5.975   8.197   6.711
 5501POPC   C3A70937   6.169   8.454   7.033
 5501POPC   C4A70938   5.985   8.574   7.420
 5501POPC   C1B70939   5.859   7.948   6.265
 5501POPC   C2B70940   5.486   7.932   6.532
 5501POPC   C3B70941   5.587   7.916   6.933
 5501POPC   C4B70942   5.890   8.079   7.258
 5502POPC   NC370943   0.228  39.447   5.155
 5502POPC   PO470944   0.708  39.129   5.430
 5502POPC   GL170945   0.503  39.096   5.789
 5502POPC   GL270946   0.171  39.134   5.669
 5502POPC   C1A70947   0.639  38.989   6.174
 5502POPC   D2A70948   0.360  39.030   6.491
 5502POPC   C3A70949   0.452  39.087   6.879
 5502POPC   C4A70950   0.322  39.135   7.255
 5502POPC   C1B70951   0.087  39.267   6.117
 5502POPC   C2B70952  44.942  39.330   6.532
 5502POPC   C3B70953   0.043  39.422   6.937
 5502POPC   C4B70954  44.930  39.446   7.335
 5503POPC   NC370955  19.425  25.658   5.545
 5503POPC   PO470956  19.981  26.047   5.424
 5503POPC   GL170957  20.040  25.965   5.837
 5503POPC   GL270958  20.287  26.202   5.879
 5503POPC   C1A70959  19.790  25.844   6.202
 5503POPC   D2A70960  19.589  25.607   6.574
 5503POPC   C3A70961  19.625  25.804   6.975
 5503POPC   C4A70962  19.429  25.688   7.329
 5503POPC   C1B70963  20.224  26.101   6.327
 5503POPC   C2B70964  19.978  26.144   6.730
 5503POPC   C3B70965  20.030  26.102   7.199
 5503POPC   C4B70966  20.222  26.032   7.655
 5504POPC   NC370967  35.726  33.230   5.526
 5504POPC   PO470968  35.371  32.864   5.087
 5504POPC   GL170969  35.189  32.950   5.579
 5504POPC   GL270970  35.122  32.654   5.820
 5504POPC   C1A70971  35.377  33.019   6.048
 5504POPC   D2A70972  35.265  33.106   6.500
 5504POPC   C3A70973  35.536  33.274   6.835
 5504POPC   C4A70974  35.583  33.179   7.259
 5504POPC   C1B70975  34.949  32.757   6.240
 5504POPC   C2B70976  34.926  32.792   6.688
 5504POPC   C3B70977  35.163  32.955   7.030
 5504POPC   C4B70978  35.130  33.015   7.506
 5505POPC   NC370979  31.773  14.034   5.515
 5505POPC   PO470980  31.407  13.410   5.379
 5505POPC   GL170981  31.554  13.592   5.720
 5505POPC   GL270982  31.321  13.870   5.667
 5505POPC   C1A70983  31.616  13.674   6.152
 5505POPC   D2A70984  31.499  13.782   6.559
 5505POPC   C3A70985  31.679  13.580   6.905
 5505POPC   C4A70986  31.493  13.602   7.281
 5505POPC   C1B70987  31.166  13.888   6.088
 5505POPC   C2B70988  31.001  13.889   6.522
 5505POPC   C3B70989  31.130  13.848   6.954
 5505POPC   C4B70990  30.886  13.987   7.290
 5506POPC   NC370991  23.214  44.028   5.073
 5506POPC   PO470992  22.775  43.637   5.440
 5506POPC   GL170993  22.801  43.685   5.842
 5506POPC   GL270994  22.762  44.020   5.821
 5506POPC   C1A70995  22.899  43.751   6.258
 5506POPC   D2A70996  22.925  44.105   6.525
 5506POPC   C3A70997  23.052  44.005   6.906
 5506POPC   C4A70998  22.861  43.827   7.228
 5506POPC   C1B70999  22.457  44.024   6.120
 5506POPC   C2B71000  22.450  43.905   6.534
 5506POPC   C3B71001  22.545  44.121   6.917
 5506POPC   C4B71002  22.564  44.243   7.329
 5507POPC   NC371003  36.412  34.893   5.656
 5507POPC   PO471004  35.988  34.369   5.497
 5507POPC   GL171005  36.050  34.575   5.849
 5507POPC   GL271006  36.387  34.435   5.878
 5507POPC   C1A71007  35.981  34.751   6.253
 5507POPC   D2A71008  36.198  34.793   6.669
 5507POPC   C3A71009  36.089  34.514   7.023
 5507POPC   C4A71010  36.027  34.657   7.459
 5507POPC   C1B71011  36.501  34.678   6.255
 5507POPC   C2B71012  36.673  34.574   6.621
 5507POPC   C3B71013  36.622  34.391   7.006
 5507POPC   C4B71014  36.524  34.557   7.382
 5508POPC   NC371015   1.944  11.800   5.603
 5508POPC   PO471016   2.145  12.287   5.232
 5508POPC   GL171017   2.036  12.293   5.700
 5508POPC   GL271018   2.263  12.089   5.918
 5508POPC   C1A71019   1.891  12.320   6.149
 5508POPC   D2A71020   2.182  12.311   6.503
 5508POPC   C3A71021   1.976  12.453   6.885
 5508POPC   C4A71022   1.701  12.433   7.272
 5508POPC   C1B71023   2.130  11.867   6.263
 5508POPC   C2B71024   1.865  11.958   6.648
 5508POPC   C3B71025   1.835  11.936   7.085
 5508POPC   C4B71026   2.141  11.754   7.354
 5509POPC   NC371027   0.438  35.679   5.512
 5509POPC   PO471028   0.049  35.121   5.310
 5509POPC   GL171029   0.188  35.052   5.775
 5509POPC   GL271030   0.444  35.275   5.847
 5509POPC   C1A71031   0.154  35.251   6.232
 5509POPC   D2A71032   0.309  35.532   6.596
 5509POPC   C3A71033   0.250  35.264   6.981
 5509POPC   C4A71034   0.455  34.869   7.155
 5509POPC   C1B71035   0.639  35.464   6.194
 5509POPC   C2B71036   0.856  35.365   6.568
 5509POPC   C3B71037   0.797  35.444   6.993
 5509POPC   C4B71038   0.521  35.497   7.329
 5510POPC   NC371039  21.637  31.020   5.539
 5510POPC   PO471040  21.250  30.443   5.403
 5510POPC   GL171041  21.309  30.506   5.871
 5510POPC   GL271042  21.634  30.675   5.943
 5510POPC   C1A71043  21.188  30.444   6.339
 5510POPC   D2A71044  21.032  30.728   6.692
 5510POPC   C3A71045  21.188  30.648   7.139
 5510POPC   C4A71046  21.481  30.315   7.254
 5510POPC   C1B71047  21.705  30.601   6.382
 5510POPC   C2B71048  21.817  30.518   6.810
 5510POPC   C3B71049  21.746  30.749   7.185
 5510POPC   C4B71050  21.507  31.132   7.301
 5511POPC   NC371051  18.345  16.992   5.572
 5511POPC   PO471052  18.203  17.650   5.334
 5511POPC   GL171053  18.131  17.714   5.756
 5511POPC   GL271054  18.487  17.705   5.901
 5511POPC   C1A71055  18.048  17.538   6.166
 5511POPC   D2A71056  18.211  17.647   6.562
 5511POPC   C3A71057  18.012  17.665   6.959
 5511POPC   C4A71058  18.376  17.852   7.171
 5511POPC   C1B71059  18.663  17.475   6.284
 5511POPC   C2B71060  18.481  17.191   6.580
 5511POPC   C3B71061  18.380  17.333   6.960
 5511POPC   C4B71062  18.455  17.223   7.333
 5512POPC   NC371063   5.927  26.565   4.989
 5512POPC   PO471064   6.113  26.934   5.371
 5512POPC   GL171065   5.874  26.941   5.787
 5512POPC   GL271066   5.523  26.923   5.871
 5512POPC   C1A71067   5.850  27.100   6.212
 5512POPC   D2A71068   5.976  26.993   6.619
 5512POPC   C3A71069   5.801  27.068   7.017
 5512POPC   C4A71070   5.621  26.815   7.339
 5512POPC   C1B71071   5.395  26.879   6.345
 5512POPC   C2B71072   5.342  26.900   6.820
 5512POPC   C3B71073   5.163  27.005   7.229
 5512POPC   C4B71074   5.269  27.020   7.686
 5513POPC   NC371075  15.079  30.143   5.219
 5513POPC   PO471076  15.417  29.665   5.552
 5513POPC   GL171077  15.267  29.917   5.847
 5513POPC   GL271078  14.968  30.086   5.730
 5513POPC   C1A71079  15.202  29.813   6.256
 5513POPC   D2A71080  15.425  29.647   6.577
 5513POPC   C3A71081  15.351  29.803   6.969
 5513POPC   C4A71082  15.477  29.660   7.362
 5513POPC   C1B71083  14.940  30.227   6.163
 5513POPC   C2B71084  15.171  30.199   6.592
 5513POPC   C3B71085  15.032  30.216   7.007
 5513POPC   C4B71086  15.030  29.968   7.353
 5514POPC   NC371087  42.705   2.664   5.626
 5514POPC   PO471088  42.107   2.607   5.291
 5514POPC   GL171089  42.119   2.721   5.771
 5514POPC   GL271090  42.008   2.519   5.986
 5514POPC   C1A71091  42.291   2.893   6.211
 5514POPC   D2A71092  41.976   2.846   6.541
 5514POPC   C3A71093  42.009   2.752   6.968
 5514POPC   C4A71094  42.095   2.973   7.351
 5514POPC   C1B71095  42.408   2.419   6.234
 5514POPC   C2B71096  42.390   2.546   6.650
 5514POPC   C3B71097  42.517   2.389   7.026
 5514POPC   C4B71098  42.277   2.486   7.328
 5515POPC   NC371099  16.138  29.140   5.368
 5515POPC   PO471100  16.092  29.762   5.225
 5515POPC   GL171101  15.911  29.484   5.663
 5515POPC   GL271102  15.673  29.202   5.675
 5515POPC   C1A71103  15.923  29.310   6.148
 5515POPC   D2A71104  16.165  29.118   6.561
 5515POPC   C3A71105  16.124  29.114   7.055
 5515POPC   C4A71106  15.744  29.235   7.278
 5515POPC   C1B71107  15.615  28.888   6.033
 5515POPC   C2B71108  15.670  28.651   6.436
 5515POPC   C3B71109  15.779  28.838   6.817
 5515POPC   C4B71110  15.710  28.747   7.219
 5516POPC   NC371111   5.547  36.467   5.286
 5516POPC   PO471112   5.868  35.894   5.429
 5516POPC   GL171113   5.781  36.166   5.760
 5516POPC   GL271114   5.827  36.493   5.728
 5516POPC   C1A71115   5.591  36.241   6.169
 5516POPC   D2A71116   5.488  36.150   6.608
 5516POPC   C3A71117   5.732  36.162   6.994
 5516POPC   C4A71118   6.104  35.996   7.176
 5516POPC   C1B71119   6.033  36.483   6.116
 5516POPC   C2B71120   5.938  36.449   6.549
 5516POPC   C3B71121   6.086  36.552   6.935
 5516POPC   C4B71122   6.386  36.426   7.227
 5517POPC   NC371123  26.500  34.830   5.051
 5517POPC   PO471124  26.624  35.465   5.417
 5517POPC   GL171125  26.813  35.487   5.808
 5517POPC   GL271126  26.829  35.136   5.895
 5517POPC   C1A71127  27.050  35.478   6.205
 5517POPC   D2A71128  27.142  35.228   6.596
 5517POPC   C3A71129  26.914  35.281   6.992
 5517POPC   C4A71130  26.811  35.585   7.299
 5517POPC   C1B71131  26.687  35.092   6.349
 5517POPC   C2B71132  26.469  35.264   6.729
 5517POPC   C3B71133  26.437  35.242   7.196
 5517POPC   C4B71134  26.321  35.311   7.635
 5518POPC   NC371135  20.163  40.643   5.308
 5518POPC   PO471136  19.541  40.414   5.398
 5518POPC   GL171137  19.766  40.702   5.726
 5518POPC   GL271138  20.013  40.935   5.771
 5518POPC   C1A71139  19.759  40.886   6.203
 5518POPC   D2A71140  19.878  40.668   6.603
 5518POPC   C3A71141  19.819  40.804   7.046
 5518POPC   C4A71142  19.704  40.720   7.468
 5518POPC   C1B71143  20.233  41.114   6.103
 5518POPC   C2B71144  20.108  41.155   6.520
 5518POPC   C3B71145  20.259  40.975   6.869
 5518POPC   C4B71146  20.198  41.105   7.256
 5519POPC   NC371147  43.281  37.696   5.330
 5519POPC   PO471148  42.614  37.658   5.381
 5519POPC   GL171149  42.885  37.691   5.738
 5519POPC   GL271150  43.096  37.389   5.720
 5519POPC   C1A71151  42.986  37.578   6.187
 5519POPC   D2A71152  42.984  37.359   6.587
 5519POPC   C3A71153  42.936  37.594   7.016
 5519POPC   C4A71154  43.111  38.006   7.226
 5519POPC   C1B71155  43.470  37.424   6.005
 5519POPC   C2B71156  43.472  37.525   6.457
 5519POPC   C3B71157  43.411  37.382   6.917
 5519POPC   C4B71158  43.382  37.597   7.314
 5520POPC   NC371159  23.725  39.993   5.108
 5520POPC   PO471160  23.400  39.581   5.564
 5520POPC   GL171161  23.409  39.949   5.859
 5520POPC   GL271162  23.594  40.259   5.705
 5520POPC   C1A71163  23.582  40.007   6.257
 5520POPC   D2A71164  23.599  39.723   6.587
 5520POPC   C3A71165  23.801  39.872   6.931
 5520POPC   C4A71166  23.583  39.823   7.283
 5520POPC   C1B71167  23.934  40.307   6.059
 5520POPC   C2B71168  24.010  40.204   6.519
 5520POPC   C3B71169  23.925  40.374   6.920
 5520POPC   C4B71170  23.901  40.198   7.353
 5521POPC   NC371171   1.674   1.853   5.571
 5521POPC   PO471172   2.360   1.851   5.594
 5521POPC   GL171173   2.090   1.929   5.918
 5521POPC   GL271174   2.054   2.226   5.874
 5521POPC   C1A71175   1.778   2.061   6.259
 5521POPC   D2A71176   1.676   1.917   6.676
 5521POPC   C3A71177   1.906   2.065   7.040
 5521POPC   C4A71178   1.870   1.721   7.333
 5521POPC   C1B71179   2.233   2.326   6.219
 5521POPC   C2B71180   2.164   2.154   6.603
 5521POPC   C3B71181   2.393   2.230   6.973
 5521POPC   C4B71182   2.212   2.397   7.360
 5522POPC   NC371183   1.086  26.071   5.188
 5522POPC   PO471184   1.667  26.231   5.460
 5522POPC   GL171185   1.363  26.120   5.769
 5522POPC   GL271186   1.030  25.933   5.714
 5522POPC   C1A71187   1.283  26.291   6.157
 5522POPC   D2A71188   1.416  26.443   6.560
 5522POPC   C3A71189   1.449  26.173   6.930
 5522POPC   C4A71190   1.445  26.296   7.359
 5522POPC   C1B71191   0.821  26.067   6.126
 5522POPC   C2B71192   0.910  26.311   6.519
 5522POPC   C3B71193   0.822  26.237   6.945
 5522POPC   C4B71194   1.027  25.990   7.225
 5523POPC   NC371195  36.829   4.892   5.617
 5523POPC   PO471196  37.249   5.342   5.550
 5523POPC   GL171197  37.184   5.217   5.943
 5523POPC   GL271198  36.860   5.348   5.946
 5523POPC   C1A71199  37.030   5.066   6.347
 5523POPC   D2A71200  36.807   4.866   6.685
 5523POPC   C3A71201  37.040   4.897   7.078
 5523POPC   C4A71202  37.011   5.015   7.516
 5523POPC   C1B71203  36.647   5.486   6.333
 5523POPC   C2B71204  36.819   5.379   6.737
 5523POPC   C3B71205  36.960   5.406   7.156
 5523POPC   C4B71206  36.962   5.508   7.582
 5524POPC   NC371207  16.560  34.185   5.625
 5524POPC   PO471208  16.822  34.822   5.545
 5524POPC   GL171209  16.617  34.632   5.876
 5524POPC   GL271210  16.901  34.406   5.939
 5524POPC   C1A71211  16.579  34.530   6.303
 5524POPC   D2A71212  16.791  34.736   6.604
 5524POPC   C3A71213  16.619  34.580   6.970
 5524POPC   C4A71214  16.468  34.410   7.376
 5524POPC   C1B71215  17.080  34.366   6.360
 5524POPC   C2B71216  17.108  34.405   6.806
 5524POPC   C3B71217  16.921  34.271   7.222
 5524POPC   C4B71218  16.902  34.468   7.678
 5525POPC   NC371219  21.031   0.127   5.471
 5525POPC   PO471220  21.012   0.755   5.555
 5525POPC   GL171221  21.168   0.634   5.966
 5525POPC   GL271222  21.452   0.902   6.066
 5525POPC   C1A71223  21.101   0.233   6.264
 5525POPC   D2A71224  20.994   0.257   6.720
 5525POPC   C3A71225  21.165   0.026   7.046
 5525POPC   C4A71226  21.636   0.025   7.190
 5525POPC   C1B71227  21.398   0.607   6.426
 5525POPC   C2B71228  21.495   0.328   6.776
 5525POPC   C3B71229  21.306   0.482   7.166
 5525POPC   C4B71230  21.467   0.811   7.361
 5526POPC   NC371231  27.022  19.661   5.378
 5526POPC   PO471232  27.581  19.490   5.262
 5526POPC   GL171233  27.483  19.583   5.713
 5526POPC   GL271234  27.163  19.404   5.777
 5526POPC   C1A71235  27.641  19.751   6.125
 5526POPC   D2A71236  27.708  19.706   6.586
 5526POPC   C3A71237  27.873  19.966   6.931
 5526POPC   C4A71238  27.998  19.838   7.329
 5526POPC   C1B71239  27.148  19.603   6.173
 5526POPC   C2B71240  27.220  19.399   6.558
 5526POPC   C3B71241  27.409  19.508   6.942
 5526POPC   C4B71242  27.493  19.835   7.265
 5527POPC   NC371243  19.366  40.909   5.377
 5527POPC   PO471244  18.687  40.576   5.416
 5527POPC   GL171245  18.930  40.792   5.729
 5527POPC   GL271246  19.245  40.623   5.783
 5527POPC   C1A71247  18.933  40.865   6.208
 5527POPC   D2A71248  18.820  41.063   6.639
 5527POPC   C3A71249  18.987  40.912   7.034
 5527POPC   C4A71250  19.382  41.034   7.187
 5527POPC   C1B71251  19.516  40.452   6.081
 5527POPC   C2B71252  19.351  40.630   6.436
 5527POPC   C3B71253  19.379  40.625   6.850
 5527POPC   C4B71254  19.316  40.501   7.249
 5528POPC   NC371255   0.323   6.230   5.408
 5528POPC   PO471256   0.289   5.599   5.296
 5528POPC   GL171257   0.432   5.819   5.714
 5528POPC   GL271258   0.630   6.114   5.796
 5528POPC   C1A71259   0.659   5.707   6.121
 5528POPC   D2A71260   0.527   5.790   6.558
 5528POPC   C3A71261   0.711   5.685   6.972
 5528POPC   C4A71262   0.398   5.841   7.270
 5528POPC   C1B71263   0.555   6.207   6.209
 5528POPC   C2B71264   0.730   6.293   6.604
 5528POPC   C3B71265   0.639   6.200   7.000
 5528POPC   C4B71266   0.830   6.108   7.401
 5529POPC   NC371267  28.571  39.361   5.483
 5529POPC   PO471268  28.011  38.984   5.324
 5529POPC   GL171269  28.210  38.995   5.797
 5529POPC   GL271270  28.370  39.299   5.926
 5529POPC   C1A71271  28.353  38.977   6.298
 5529POPC   D2A71272  28.410  39.311   6.619
 5529POPC   C3A71273  28.402  39.135   7.041
 5529POPC   C4A71274  28.728  39.204   7.346
 5529POPC   C1B71275  28.004  39.344   6.184
 5529POPC   C2B71276  27.927  39.520   6.604
 5529POPC   C3B71277  27.979  39.450   7.049
 5529POPC   C4B71278  27.968  39.540   7.504
 5530POPC   NC371279  36.710  44.295   5.431
 5530POPC   PO471280  36.874  44.952   5.445
 5530POPC   GL171281  36.715  44.682   5.754
 5530POPC   GL271282  36.993  44.468   5.830
 5530POPC   C1A71283  36.671  44.628   6.184
 5530POPC   D2A71284  36.935  44.660   6.507
 5530POPC   C3A71285  36.937  44.988   6.808
 5530POPC   C4A71286  37.009  44.836   7.214
 5530POPC   C1B71287  37.292  44.588   6.128
 5530POPC   C2B71288  37.391  44.388   6.524
 5530POPC   C3B71289  37.209  44.493   6.900
 5530POPC   C4B71290  37.375  44.513   7.304
 5531POPC   NC371291  16.514   0.297   5.331
 5531POPC   PO471292  16.450   0.683   5.805
 5531POPC   GL171293  16.810   0.550   5.891
 5531POPC   GL271294  16.791   0.209   5.762
 5531POPC   C1A71295  16.822   0.548   6.323
 5531POPC   D2A71296  16.604   0.474   6.722
 5531POPC   C3A71297  16.532   0.730   7.074
 5531POPC   C4A71298  16.650   0.534   7.435
 5531POPC   C1B71299  16.890   0.044   6.175
 5531POPC   C2B71300  16.963   0.109   6.660
 5531POPC   C3B71301  16.785   0.143   7.126
 5531POPC   C4B71302  16.868   0.049   7.624
 5532POPC   NC371303   7.908  13.219   5.266
 5532POPC   PO471304   7.627  12.623   5.269
 5532POPC   GL171305   7.446  12.605   5.705
 5532POPC   GL271306   7.460  12.939   5.812
 5532POPC   C1A71307   7.525  12.538   6.148
 5532POPC   D2A71308   7.504  12.820   6.529
 5532POPC   C3A71309   7.398  12.660   6.935
 5532POPC   C4A71310   7.452  12.820   7.336
 5532POPC   C1B71311   7.435  13.211   6.187
 5532POPC   C2B71312   7.565  13.359   6.586
 5532POPC   C3B71313   7.460  13.201   7.000
 5532POPC   C4B71314   7.244  13.268   7.452
 5533POPC   NC371315  27.723  13.336   5.387
 5533POPC   PO471316  27.467  12.721   5.349
 5533POPC   GL171317  27.393  12.824   5.783
 5533POPC   GL271318  27.459  13.154   5.795
 5533POPC   C1A71319  27.509  12.905   6.233
 5533POPC   D2A71320  27.626  13.001   6.646
 5533POPC   C3A71321  27.489  12.679   6.914
 5533POPC   C4A71322  27.793  12.491   7.204
 5533POPC   C1B71323  27.217  13.321   6.143
 5533POPC   C2B71324  27.335  13.421   6.581
 5533POPC   C3B71325  27.299  13.219   6.974
 5533POPC   C4B71326  27.632  13.019   7.250
 5534POPC   NC371327  37.671  13.157   5.153
 5534POPC   PO471328  37.710  13.784   5.369
 5534POPC   GL171329  37.596  13.801   5.823
 5534POPC   GL271330  37.408  13.496   5.893
 5534POPC   C1A71331  37.671  13.731   6.305
 5534POPC   D2A71332  37.776  13.899   6.721
 5534POPC   C3A71333  37.753  13.658   7.093
 5534POPC   C4A71334  37.636  13.854   7.484
 5534POPC   C1B71335  37.832  13.345   6.023
 5534POPC   C2B71336  38.009  13.336   6.451
 5534POPC   C3B71337  38.019  13.222   6.872
 5534POPC   C4B71338  37.795  13.153   7.236
 5535POPC   NC371339  38.971   8.469   5.291
 5535POPC   PO471340  39.391   8.083   5.533
 5535POPC   GL171341  39.381   8.224   5.896
 5535POPC   GL271342  39.059   8.334   5.870
 5535POPC   C1A71343  39.387   8.047   6.299
 5535POPC   D2A71344  39.454   8.287   6.659
 5535POPC   C3A71345  39.210   8.211   6.989
 5535POPC   C4A71346  39.475   8.167   7.303
 5535POPC   C1B71347  38.897   8.251   6.285
 5535POPC   C2B71348  38.790   8.400   6.698
 5535POPC   C3B71349  39.001   8.706   6.967
 5535POPC   C4B71350  39.415   8.675   7.143
 5536POPC   NC371351  25.579  37.210   5.410
 5536POPC   PO471352  25.191  36.661   5.462
 5536POPC   GL171353  25.283  36.950   5.764
 5536POPC   GL271354  25.344  36.701   5.982
 5536POPC   C1A71355  25.081  37.112   6.152
 5536POPC   D2A71356  25.256  37.095   6.564
 5536POPC   C3A71357  25.141  37.318   6.929
 5536POPC   C4A71358  25.148  37.207   7.347
 5536POPC   C1B71359  25.658  36.830   6.281
 5536POPC   C2B71360  25.696  36.883   6.723
 5536POPC   C3B71361  25.337  36.833   7.006
 5536POPC   C4B71362  25.157  36.587   7.306
 5537POPC   NC371363   5.564  19.494   5.383
 5537POPC   PO471364   6.193  19.647   5.541
 5537POPC   GL171365   5.988  19.901   5.857
 5537POPC   GL271366   5.637  19.803   5.814
 5537POPC   C1A71367   5.855  19.833   6.301
 5537POPC   D2A71368   5.747  19.798   6.745
 5537POPC   C3A71369   6.078  19.726   7.032
 5537POPC   C4A71370   6.218  20.109   7.179
 5537POPC   C1B71371   5.433  19.567   6.176
 5537POPC   C2B71372   5.482  19.358   6.602
 5537POPC   C3B71373   5.567  19.444   7.054
 5537POPC   C4B71374   5.640  19.853   7.273
 5538POPC   NC371375  29.371   4.860   5.433
 5538POPC   PO471376  29.570   5.437   5.459
 5538POPC   GL171377  29.231   5.271   5.808
 5538POPC   GL271378  29.070   4.927   5.880
 5538POPC   C1A71379  28.983   5.315   6.223
 5538POPC   D2A71380  29.001   5.437   6.676
 5538POPC   C3A71381  29.280   5.273   7.020
 5538POPC   C4A71382  29.356   5.074   7.450
 5538POPC   C1B71383  28.852   4.787   6.279
 5538POPC   C2B71384  28.859   4.930   6.727
 5538POPC   C3B71385  28.904   4.950   7.194
 5538POPC   C4B71386  28.934   4.781   7.635
 5539POPC   NC371387  23.387  26.780   5.204
 5539POPC   PO471388  23.951  26.378   5.360
 5539POPC   GL171389  23.739  26.652   5.642
 5539POPC   GL271390  23.980  26.935   5.672
 5539POPC   C1A71391  23.772  26.734   6.101
 5539POPC   D2A71392  23.812  26.528   6.527
 5539POPC   C3A71393  23.604  26.586   6.922
 5539POPC   C4A71394  23.806  26.568   7.322
 5539POPC   C1B71395  23.993  27.207   6.050
 5539POPC   C2B71396  23.815  27.245   6.465
 5539POPC   C3B71397  23.864  27.013   6.817
 5539POPC   C4B71398  23.806  27.076   7.213
 5540POPC   NC371399   2.411  29.052   5.283
 5540POPC   PO471400   3.077  29.216   5.265
 5540POPC   GL171401   3.034  29.315   5.695
 5540POPC   GL271402   2.655  29.347   5.677
 5540POPC   C1A71403   2.921  29.153   6.098
 5540POPC   D2A71404   2.693  29.089   6.464
 5540POPC   C3A71405   2.955  28.987   6.822
 5540POPC   C4A71406   2.713  29.130   7.124
 5540POPC   C1B71407   2.503  29.506   6.087
 5540POPC   C2B71408   2.368  29.521   6.521
 5540POPC   C3B71409   2.478  29.562   6.951
 5540POPC   C4B71410   2.599  29.580   7.373
 5541POPC   NC371411  26.041  28.569   5.415
 5541POPC   PO471412  25.831  27.980   5.736
 5541POPC   GL171413  26.100  28.265   5.842
 5541POPC   GL271414  25.791  28.462   5.844
 5541POPC   C1A71415  26.311  28.280   6.227
 5541POPC   D2A71416  26.435  28.504   6.563
 5541POPC   C3A71417  26.370  28.235   6.907
 5541POPC   C4A71418  26.197  28.393   7.232
 5541POPC   C1B71419  25.783  28.377   6.259
 5541POPC   C2B71420  25.944  28.370   6.646
 5541POPC   C3B71421  25.735  28.465   6.992
 5541POPC   C4B71422  25.703  28.306   7.401
 5542POPC   NC371423   2.364   7.517   5.395
 5542POPC   PO471424   2.905   7.219   5.070
 5542POPC   GL171425   2.729   7.279   5.631
 5542POPC   GL271426   2.419   7.271   5.862
 5542POPC   C1A71427   2.889   7.292   6.098
 5542POPC   D2A71428   3.130   7.446   6.455
 5542POPC   C3A71429   2.951   7.454   6.862
 5542POPC   C4A71430   3.030   7.324   7.281
 5542POPC   C1B71431   2.443   7.134   6.258
 5542POPC   C2B71432   2.469   7.366   6.647
 5542POPC   C3B71433   2.534   7.251   7.059
 5542POPC   C4B71434   2.544   7.345   7.479
 5543POPC   NC371435  23.180  44.830   5.447
 5543POPC   PO471436  22.841  44.227   5.338
 5543POPC   GL171437  23.005  44.446   5.731
 5543POPC   GL271438  22.894  44.772   5.833
 5543POPC   C1A71439  23.047  44.461   6.198
 5543POPC   D2A71440  23.175  44.558   6.648
 5543POPC   C3A71441  22.991  44.471   7.091
 5543POPC   C4A71442  23.244  44.566   7.498
 5543POPC   C1B71443  23.178  44.976   6.137
 5543POPC   C2B71444  23.177   0.104   6.571
 5543POPC   C3B71445  22.928  44.955   6.914
 5543POPC   C4B71446  22.860  44.883   7.366
 5544POPC   NC371447   9.708  17.111   5.140
 5544POPC   PO471448   9.882  17.711   5.122
 5544POPC   GL171449   9.803  17.454   5.553
 5544POPC   GL271450   9.867  17.756   5.758
 5544POPC   C1A71451   9.742  17.387   6.082
 5544POPC   D2A71452   9.835  17.240   6.572
 5544POPC   C3A71453   9.697  17.411   7.011
 5544POPC   C4A71454   9.699  17.434   7.519
 5544POPC   C1B71455  10.094  17.772   6.137
 5544POPC   C2B71456   9.898  17.754   6.558
 5544POPC   C3B71457   9.987  17.956   6.964
 5544POPC   C4B71458   9.981  17.956   7.412
 5545POPC   NC371459  34.642   2.680   5.408
 5545POPC   PO471460  34.107   2.741   5.615
 5545POPC   GL171461  34.490   2.755   5.901
 5545POPC   GL271462  34.651   2.437   5.903
 5545POPC   C1A71463  34.790   2.770   6.289
 5545POPC   D2A71464  34.773   2.545   6.706
 5545POPC   C3A71465  34.787   2.743   7.124
 5545POPC   C4A71466  34.636   3.012   7.487
 5545POPC   C1B71467  34.391   2.449   6.319
 5545POPC   C2B71468  34.255   2.597   6.755
 5545POPC   C3B71469  34.278   2.791   7.167
 5545POPC   C4B71470  34.450   2.553   7.532
 5546POPC   NC371471  40.374  33.212   5.623
 5546POPC   PO471472  40.907  33.060   5.314
 5546POPC   GL171473  40.903  32.966   5.772
 5546POPC   GL271474  40.626  32.769   5.820
 5546POPC   C1A71475  40.765  33.117   6.200
 5546POPC   D2A71476  40.551  33.170   6.621
 5546POPC   C3A71477  40.775  33.055   7.000
 5546POPC   C4A71478  40.960  33.317   7.318
 5546POPC   C1B71479  40.503  32.672   6.213
 5546POPC   C2B71480  40.715  32.649   6.588
 5546POPC   C3B71481  40.555  32.578   6.977
 5546POPC   C4B71482  40.353  32.678   7.318
 5547POPC   NC371483  26.985  27.882   5.470
 5547POPC   PO471484  26.521  27.408   5.478
 5547POPC   GL171485  26.729  27.606   5.806
 5547POPC   GL271486  27.059  27.407   5.806
 5547POPC   C1A71487  26.622  27.838   6.178
 5547POPC   D2A71488  26.373  27.855   6.557
 5547POPC   C3A71489  26.610  27.748   6.923
 5547POPC   C4A71490  26.524  27.515   7.282
 5547POPC   C1B71491  27.209  27.178   6.237
 5547POPC   C2B71492  27.130  27.216   6.720
 5547POPC   C3B71493  27.033  27.447   7.125
 5547POPC   C4B71494  27.159  27.296   7.566
 5548POPC   NC371495  18.216   4.527   5.611
 5548POPC   PO471496  18.631   4.012   5.444
 5548POPC   GL171497  18.536   4.211   5.851
 5548POPC   GL271498  18.534   4.567   6.018
 5548POPC   C1A71499  18.299   4.151   6.208
 5548POPC   D2A71500  18.533   4.140   6.564
 5548POPC   C3A71501  18.272   4.217   6.882
 5548POPC   C4A71502  18.461   4.161   7.249
 5548POPC   C1B71503  18.130   4.652   6.251
 5548POPC   C2B71504  17.999   4.746   6.662
 5548POPC   C3B71505  18.068   4.753   7.062
 5548POPC   C4B71506  18.019   4.436   7.283
 5549POPC   NC371507  17.752  14.742   5.448
 5549POPC   PO471508  17.195  15.239   5.493
 5549POPC   GL171509  17.399  14.977   5.757
 5549POPC   GL271510  17.730  15.183   5.736
 5549POPC   C1A71511  17.205  14.895   6.151
 5549POPC   D2A71512  17.269  15.153   6.532
 5549POPC   C3A71513  17.504  15.001   6.878
 5549POPC   C4A71514  17.318  15.120   7.229
 5549POPC   C1B71515  17.645  15.141   6.182
 5549POPC   C2B71516  17.866  15.188   6.574
 5549POPC   C3B71517  17.944  15.330   7.018
 5549POPC   C4B71518  17.786  15.050   7.338
 5550POPC   NC371519  38.070  23.512   5.482
 5550POPC   PO471520  37.389  23.737   5.537
 5550POPC   GL171521  37.734  23.737   5.804
 5550POPC   GL271522  37.686  23.350   5.784
 5550POPC   C1A71523  37.814  23.878   6.239
 5550POPC   D2A71524  37.538  23.701   6.566
 5550POPC   C3A71525  37.699  23.648   6.974
 5550POPC   C4A71526  37.435  23.654   7.325
 5550POPC   C1B71527  37.772  23.383   6.211
 5550POPC   C2B71528  37.732  23.217   6.640
 5550POPC   C3B71529  37.926  23.193   7.061
 5550POPC   C4B71530  37.839  23.411   7.461
 5551POPC   NC371531  42.603   1.412   5.574
 5551POPC   PO471532  43.123   1.122   5.245
 5551POPC   GL171533  43.028   1.132   5.684
 5551POPC   GL271534  42.740   0.950   5.767
 5551POPC   C1A71535  43.063   1.175   6.141
 5551POPC   D2A71536  43.144   1.418   6.521
 5551POPC   C3A71537  43.254   1.157   6.856
 5551POPC   C4A71538  43.243   1.127   7.284
 5551POPC   C1B71539  42.634   0.891   6.214
 5551POPC   C2B71540  42.839   0.978   6.614
 5551POPC   C3B71541  42.788   0.977   7.112
 5551POPC   C4B71542  42.957   0.831   7.573
 5552POPC   NC371543  27.739  17.186   5.396
 5552POPC   PO471544  27.941  17.905   5.631
 5552POPC   GL171545  27.837  17.516   5.805
 5552POPC   GL271546  27.523  17.338   5.851
 5552POPC   C1A71547  27.953  17.323   6.188
 5552POPC   D2A71548  28.069  17.284   6.622
 5552POPC   C3A71549  27.841  17.562   6.859
 5552POPC   C4A71550  27.689  17.580   7.262
 5552POPC   C1B71551  27.479  17.132   6.266
 5552POPC   C2B71552  27.489  17.161   6.712
 5552POPC   C3B71553  27.715  17.074   7.093
 5552POPC   C4B71554  27.590  17.152   7.522
 5553POPC   NC371555   4.329  37.234   5.461
 5553POPC   PO471556   4.617  37.830   5.673
 5553POPC   GL171557   4.434  37.529   5.873
 5553POPC   GL271558   4.604  37.218   5.893
 5553POPC   C1A71559   4.223  37.633   6.246
 5553POPC   D2A71560   4.254  37.940   6.595
 5553POPC   C3A71561   4.300  37.778   6.998
 5553POPC   C4A71562   4.532  37.695   7.399
 5553POPC   C1B71563   4.699  37.383   6.280
 5553POPC   C2B71564   4.504  37.453   6.639
 5553POPC   C3B71565   4.606  37.364   7.018
 5553POPC   C4B71566   4.224  37.327   7.260
 5554POPC   NC371567  41.576   6.244   5.355
 5554POPC   PO471568  41.437   6.864   5.452
 5554POPC   GL171569  41.392   6.499   5.781
 5554POPC   GL271570  41.721   6.333   5.834
 5554POPC   C1A71571  41.436   6.428   6.254
 5554POPC   D2A71572  41.736   6.593   6.561
 5554POPC   C3A71573  41.563   6.722   6.951
 5554POPC   C4A71574  41.270   6.432   7.139
 5554POPC   C1B71575  41.936   6.213   6.210
 5554POPC   C2B71576  41.845   6.060   6.599
 5554POPC   C3B71577  41.744   6.245   6.984
 5554POPC   C4B71578  41.932   6.551   7.266
 5555POPC   NC371579  31.875  38.735   5.436
 5555POPC   PO471580  31.265  38.569   5.330
 5555POPC   GL171581  31.450  38.621   5.740
 5555POPC   GL271582  31.557  38.291   5.832
 5555POPC   C1A71583  31.590  38.707   6.176
 5555POPC   D2A71584  31.582  38.553   6.607
 5555POPC   C3A71585  31.612  38.809   6.979
 5555POPC   C4A71586  31.572  38.664   7.406
 5555POPC   C1B71587  31.799  38.118   6.209
 5555POPC   C2B71588  31.794  38.088   6.672
 5555POPC   C3B71589  31.710  38.292   7.070
 5555POPC   C4B71590  31.910  38.281   7.479
 5556POPC   NC371591   8.011  10.933   5.310
 5556POPC   PO471592   8.243  10.290   5.240
 5556POPC   GL171593   8.322  10.448   5.713
 5556POPC   GL271594   8.475  10.813   5.782
 5556POPC   C1A71595   8.238  10.386   6.205
 5556POPC   D2A71596   8.048  10.271   6.657
 5556POPC   C3A71597   8.111  10.528   7.049
 5556POPC   C4A71598   8.051  10.492   7.534
 5556POPC   C1B71599   8.551  10.804   6.259
 5556POPC   C2B71600   8.597  10.817   6.733
 5556POPC   C3B71601   8.548  10.722   7.185
 5556POPC   C4B71602   8.474  10.800   7.634
 5557POPC   NC371603   0.431  26.514   5.383
 5557POPC   PO471604   0.419  27.125   5.696
 5557POPC   GL171605   0.676  26.814   5.932
 5557POPC   GL271606   0.707  26.453   5.825
 5557POPC   C1A71607   0.681  26.965   6.336
 5557POPC   D2A71608   0.283  27.107   6.518
 5557POPC   C3A71609   0.133  26.890   6.891
 5557POPC   C4A71610   0.306  26.972   7.307
 5557POPC   C1B71611   0.496  26.462   6.265
 5557POPC   C2B71612   0.547  26.631   6.716
 5557POPC   C3B71613   0.729  26.711   7.140
 5557POPC   C4B71614   0.723  26.785   7.615
 5558POPC   NC371615  33.076  44.301   5.379
 5558POPC   PO471616  33.055  43.666   5.579
 5558POPC   GL171617  33.025  44.019   5.858
 5558POPC   GL271618  33.344  44.160   5.778
 5558POPC   C1A71619  32.817  44.051   6.289
 5558POPC   D2A71620  32.797  43.831   6.724
 5558POPC   C3A71621  32.798  44.084   7.131
 5558POPC   C4A71622  32.793  44.278   7.619
 5558POPC   C1B71623  33.484  44.022   6.191
 5558POPC   C2B71624  33.531  44.099   6.651
 5558POPC   C3B71625  33.266  43.845   6.948
 5558POPC   C4B71626  33.030  43.532   7.163
 5559POPC   NC371627  25.435  13.061   5.354
 5559POPC   PO471628  25.272  12.445   5.292
 5559POPC   GL171629  25.145  12.615   5.689
 5559POPC   GL271630  25.006  12.943   5.613
 5559POPC   C1A71631  25.301  12.527   6.140
 5559POPC   D2A71632  25.548  12.458   6.554
 5559POPC   C3A71633  25.366  12.560   6.959
 5559POPC   C4A71634  25.537  12.676   7.369
 5559POPC   C1B71635  25.049  12.973   6.086
 5559POPC   C2B71636  25.187  12.870   6.537
 5559POPC   C3B71637  25.069  12.970   6.981
 5559POPC   C4B71638  25.074  12.819   7.418
 5560POPC   NC371639  33.393  27.468   4.899
 5560POPC   PO471640  33.148  27.952   5.351
 5560POPC   GL171641  33.002  27.818   5.763
 5560POPC   GL271642  32.811  27.481   5.776
 5560POPC   C1A71643  32.994  27.796   6.209
 5560POPC   D2A71644  33.173  27.827   6.619
 5560POPC   C3A71645  32.885  27.783   6.923
 5560POPC   C4A71646  32.904  27.694   7.337
 5560POPC   C1B71647  32.917  27.271   6.186
 5560POPC   C2B71648  33.081  27.312   6.620
 5560POPC   C3B71649  32.904  27.267   7.051
 5560POPC   C4B71650  32.940  27.204   7.515
 5561POPC   NC371651  42.596  39.122   5.535
 5561POPC   PO471652  41.960  38.922   5.411
 5561POPC   GL171653  42.074  39.127   5.769
 5561POPC   GL271654  42.291  38.868   5.846
 5561POPC   C1A71655  42.257  39.289   6.141
 5561POPC   D2A71656  42.379  39.552   6.460
 5561POPC   C3A71657  42.332  39.444   6.892
 5561POPC   C4A71658  42.394  39.552   7.310
 5561POPC   C1B71659  42.507  38.847   6.194
 5561POPC   C2B71660  42.513  39.049   6.574
 5561POPC   C3B71661  42.339  38.928   6.958
 5561POPC   C4B71662  42.488  39.053   7.354
 5562POPC   NC371663  30.386  13.584   5.339
 5562POPC   PO471664  29.756  13.463   5.314
 5562POPC   GL171665  29.975  13.631   5.695
 5562POPC   GL271666  29.667  13.523   5.820
 5562POPC   C1A71667  30.039  13.544   6.171
 5562POPC   D2A71668  30.071  13.289   6.555
 5562POPC   C3A71669  30.202  13.441   6.946
 5562POPC   C4A71670  30.018  13.740   7.204
 5562POPC   C1B71671  29.422  13.538   6.162
 5562POPC   C2B71672  29.468  13.399   6.547
 5562POPC   C3B71673  29.642  13.554   6.914
 5562POPC   C4B71674  29.664  13.375   7.318
 5563POPC   NC371675  16.168   1.741   5.316
 5563POPC   PO471676  16.382   2.303   5.493
 5563POPC   GL171677  16.195   1.975   5.799
 5563POPC   GL271678  16.187   1.593   5.807
 5563POPC   C1A71679  16.088   1.913   6.250
 5563POPC   D2A71680  16.157   2.051   6.692
 5563POPC   C3A71681  15.786   1.981   6.953
 5563POPC   C4A71682  15.564   2.106   7.332
 5563POPC   C1B71683  16.467   1.575   6.172
 5563POPC   C2B71684  16.322   1.583   6.584
 5563POPC   C3B71685  16.223   1.655   7.018
 5563POPC   C4B71686  16.190   2.056   7.260
 5564POPC   NC371687  29.324  29.356   5.371
 5564POPC   PO471688  28.814  28.837   5.402
 5564POPC   GL171689  28.945  29.050   5.798
 5564POPC   GL271690  29.300  29.170   5.847
 5564POPC   C1A71691  28.980  29.199   6.249
 5564POPC   D2A71692  29.134  29.307   6.668
 5564POPC   C3A71693  28.972  29.015   6.976
 5564POPC   C4A71694  28.723  29.011   7.316
 5564POPC   C1B71695  29.514  29.128   6.286
 5564POPC   C2B71696  29.571  29.030   6.744
 5564POPC   C3B71697  29.403  29.232   7.116
 5564POPC   C4B71698  29.350  28.920   7.415
 5565POPC   NC371699  22.565  10.968   5.481
 5565POPC   PO471700  22.968  10.428   5.244
 5565POPC   GL171701  22.863  10.581   5.658
 5565POPC   GL271702  22.600  10.348   5.764
 5565POPC   C1A71703  22.974  10.783   6.070
 5565POPC   D2A71704  22.828  10.823   6.515
 5565POPC   C3A71705  23.101  10.713   6.840
 5565POPC   C4A71706  23.145  10.621   7.270
 5565POPC   C1B71707  22.621  10.452   6.212
 5565POPC   C2B71708  22.807  10.317   6.625
 5565POPC   C3B71709  22.729  10.378   7.075
 5565POPC   C4B71710  22.799  10.345   7.537
 5566POPC   NC371711  32.234  21.935   5.211
 5566POPC   PO471712  31.917  22.356   5.693
 5566POPC   GL171713  32.284  22.104   5.806
 5566POPC   GL271714  32.362  21.745   5.664
 5566POPC   C1A71715  32.428  22.170   6.241
 5566POPC   D2A71716  32.638  22.285   6.624
 5566POPC   C3A71717  32.341  22.401   6.937
 5566POPC   C4A71718  32.225  22.173   7.259
 5566POPC   C1B71719  32.536  21.695   6.061
 5566POPC   C2B71720  32.293  21.709   6.435
 5566POPC   C3B71721  32.308  21.893   6.830
 5566POPC   C4B71722  32.148  21.685   7.190
 5567POPC   NC371723  28.831  37.578   5.002
 5567POPC   PO471724  29.041  37.988   5.515
 5567POPC   GL171725  29.204  37.547   5.709
 5567POPC   GL271726  29.229  37.760   5.992
 5567POPC   C1A71727  29.327  37.300   6.130
 5567POPC   D2A71728  29.310  37.512   6.552
 5567POPC   C3A71729  29.386  37.276   6.938
 5567POPC   C4A71730  29.132  37.234   7.315
 5567POPC   C1B71731  29.155  37.986   6.332
 5567POPC   C2B71732  29.416  38.123   6.637
 5567POPC   C3B71733  29.279  38.092   7.015
 5567POPC   C4B71734  29.178  37.701   7.094
 5568POPC   NC371735  26.235  14.417   5.615
 5568POPC   PO471736  26.849  14.412   5.380
 5568POPC   GL171737  26.729  14.485   5.783
 5568POPC   GL271738  26.740  14.175   5.980
 5568POPC   C1A71739  26.906  14.627   6.142
 5568POPC   D2A71740  26.944  14.348   6.503
 5568POPC   C3A71741  26.956  14.536   6.909
 5568POPC   C4A71742  27.108  14.391   7.286
 5568POPC   C1B71743  26.479  14.404   6.311
 5568POPC   C2B71744  26.488  14.399   6.768
 5568POPC   C3B71745  26.571  14.394   7.204
 5568POPC   C4B71746  26.652  14.458   7.622
 5569POPC   NC371747  17.094  25.274   5.442
 5569POPC   PO471748  16.447  25.368   5.175
 5569POPC   GL171749  16.663  25.543   5.596
 5569POPC   GL271750  16.709  25.235   5.796
 5569POPC   C1A71751  16.686  25.637   6.093
 5569POPC   D2A71752  16.862  25.442   6.492
 5569POPC   C3A71753  16.623  25.505   6.902
 5569POPC   C4A71754  16.308  25.633   7.269
 5569POPC   C1B71755  16.741  24.992   6.193
 5569POPC   C2B71756  16.943  24.917   6.594
 5569POPC   C3B71757  16.830  24.984   7.004
 5569POPC   C4B71758  16.548  25.173   7.279
 5570POPC   NC371759   8.503  17.576   5.513
 5570POPC   PO471760   7.982  17.094   5.578
 5570POPC   GL171761   8.097  17.468   5.869
 5570POPC   GL271762   8.338  17.753   5.933
 5570POPC   C1A71763   8.029  17.468   6.325
 5570POPC   D2A71764   7.996  17.106   6.633
 5570POPC   C3A71765   8.214  17.250   6.993
 5570POPC   C4A71766   8.212  17.669   7.128
 5570POPC   C1B71767   8.438  17.898   6.307
 5570POPC   C2B71768   8.386  17.968   6.718
 5570POPC   C3B71769   8.667  17.763   6.946
 5570POPC   C4B71770   8.792  17.350   7.074
 5571POPC   NC371771  37.408  21.077   5.433
 5571POPC   PO471772  38.024  21.264   5.629
 5571POPC   GL171773  37.720  21.010   5.905
 5571POPC   GL271774  37.357  21.019   5.931
 5571POPC   C1A71775  37.698  20.641   6.217
 5571POPC   D2A71776  37.880  20.368   6.560
 5571POPC   C3A71777  37.893  20.555   6.997
 5571POPC   C4A71778  37.737  20.482   7.434
 5571POPC   C1B71779  37.412  21.034   6.370
 5571POPC   C2B71780  37.508  20.871   6.783
 5571POPC   C3B71781  37.534  20.935   7.227
 5571POPC   C4B71782  37.623  20.977   7.659
 5572POPC   NC371783  20.703   1.492   5.422
 5572POPC   PO471784  20.251   1.061   5.318
 5572POPC   GL171785  20.316   1.281   5.714
 5572POPC   GL271786  20.641   1.098   5.741
 5572POPC   C1A71787  20.412   1.487   6.151
 5572POPC   D2A71788  20.389   1.449   6.622
 5572POPC   C3A71789  20.731   1.296   6.873
 5572POPC   C4A71790  20.779   1.275   7.295
 5572POPC   C1B71791  20.454   0.986   6.109
 5572POPC   C2B71792  20.588   0.997   6.500
 5572POPC   C3B71793  20.364   0.947   6.903
 5572POPC   C4B71794  20.470   0.772   7.275
 5573POPC   NC371795  25.571  33.798   5.435
 5573POPC   PO471796  24.887  33.949   5.299
 5573POPC   GL171797  25.214  33.928   5.745
 5573POPC   GL271798  25.254  34.179   5.964
 5573POPC   C1A71799  25.417  33.750   6.137
 5573POPC   D2A71800  25.375  33.874   6.575
 5573POPC   C3A71801  25.535  33.669   6.929
 5573POPC   C4A71802  25.481  33.688   7.336
 5573POPC   C1B71803  25.006  34.063   6.280
 5573POPC   C2B71804  24.864  33.983   6.662
 5573POPC   C3B71805  25.066  33.862   7.027
 5573POPC   C4B71806  25.230  34.164   7.311
 5574POPC   NC371807  20.477  33.704   5.248
 5574POPC   PO471808  20.858  34.147   5.586
 5574POPC   GL171809  20.927  33.928   5.971
 5574POPC   GL271810  21.050  33.576   5.890
 5574POPC   C1A71811  20.671  33.675   6.251
 5574POPC   D2A71812  20.364  33.705   6.573
 5574POPC   C3A71813  20.513  33.837   6.978
 5574POPC   C4A71814  20.446  33.453   7.184
 5574POPC   C1B71815  21.142  33.495   6.340
 5574POPC   C2B71816  20.904  33.597   6.717
 5574POPC   C3B71817  20.949  33.583   7.144
 5574POPC   C4B71818  20.967  33.994   7.290
 5575POPC   NC371819  19.417  15.317   5.099
 5575POPC   PO471820  19.058  14.784   5.215
 5575POPC   GL171821  19.183  14.909   5.695
 5575POPC   GL271822  19.151  15.304   5.744
 5575POPC   C1A71823  19.084  15.012   6.167
 5575POPC   D2A71824  18.852  14.917   6.555
 5575POPC   C3A71825  18.996  15.177   6.890
 5575POPC   C4A71826  19.040  15.343   7.340
 5575POPC   C1B71827  19.422  15.378   6.152
 5575POPC   C2B71828  19.510  15.196   6.587
 5575POPC   C3B71829  19.468  15.376   7.029
 5575POPC   C4B71830  19.505  15.394   7.531
 5576POPC   NC371831  23.305  10.734   5.358
 5576POPC   PO471832  23.929  10.661   5.293
 5576POPC   GL171833  23.805  10.614   5.745
 5576POPC   GL271834  23.984  10.852   5.943
 5576POPC   C1A71835  23.473  10.583   6.093
 5576POPC   D2A71836  23.356  10.394   6.532
 5576POPC   C3A71837  23.546  10.462   6.980
 5576POPC   C4A71838  23.663  10.700   7.377
 5576POPC   C1B71839  23.931  10.601   6.312
 5576POPC   C2B71840  23.958  10.658   6.750
 5576POPC   C3B71841  24.059  10.428   7.121
 5576POPC   C4B71842  23.897  10.285   7.537
 5577POPC   NC371843   3.029  40.935   5.595
 5577POPC   PO471844   2.434  41.098   5.482
 5577POPC   GL171845   2.483  40.715   5.775
 5577POPC   GL271846   2.823  40.506   5.839
 5577POPC   C1A71847   2.598  40.782   6.223
 5577POPC   D2A71848   2.473  41.077   6.549
 5577POPC   C3A71849   2.547  40.865   6.920
 5577POPC   C4A71850   2.677  40.964   7.312
 5577POPC   C1B71851   3.100  40.687   6.197
 5577POPC   C2B71852   2.996  40.788   6.639
 5577POPC   C3B71853   3.109  40.997   7.037
 5577POPC   C4B71854   3.135  40.820   7.450
 5578POPC   NC371855  30.106  25.668   5.543
 5578POPC   PO471856  29.724  25.221   5.462
 5578POPC   GL171857  29.680  25.132   5.918
 5578POPC   GL271858  29.699  25.496   5.982
 5578POPC   C1A71859  29.581  25.160   6.388
 5578POPC   D2A71860  29.719  25.268   6.828
 5578POPC   C3A71861  30.127  25.127   6.918
 5578POPC   C4A71862  30.337  25.016   7.271
 5578POPC   C1B71863  30.030  25.391   6.289
 5578POPC   C2B71864  30.170  25.592   6.672
 5578POPC   C3B71865  30.024  25.603   7.095
 5578POPC   C4B71866  29.736  25.389   7.358
 5579POPC   NC371867   3.359  41.746   5.742
 5579POPC   PO471868   3.448  41.109   5.640
 5579POPC   GL171869   3.754  41.327   5.871
 5579POPC   GL271870   3.833  41.700   5.850
 5579POPC   C1A71871   3.734  41.417   6.300
 5579POPC   D2A71872   3.836  41.377   6.722
 5579POPC   C3A71873   3.531  41.446   7.060
 5579POPC   C4A71874   3.446  41.214   7.428
 5579POPC   C1B71875   3.640  41.917   6.256
 5579POPC   C2B71876   3.511  41.782   6.653
 5579POPC   C3B71877   3.576  41.976   7.034
 5579POPC   C4B71878   3.471  41.853   7.427
 5580POPC   NC371879  15.317  28.821   5.393
 5580POPC   PO471880  15.042  28.162   5.263
 5580POPC   GL171881  15.154  28.377   5.635
 5580POPC   GL271882  15.052  28.084   5.785
 5580POPC   C1A71883  15.295  28.464   6.072
 5580POPC   D2A71884  15.270  28.311   6.516
 5580POPC   C3A71885  15.340  28.583   6.878
 5580POPC   C4A71886  15.284  28.515   7.328
 5580POPC   C1B71887  14.906  28.108   6.198
 5580POPC   C2B71888  14.794  28.113   6.650
 5580POPC   C3B71889  14.973  28.235   7.047
 5580POPC   C4B71890  14.914  28.207   7.520
 5581POPC   NC371891  27.782   4.106   5.556
 5581POPC   PO471892  27.290   4.491   5.427
 5581POPC   GL171893  27.451   4.359   5.822
 5581POPC   GL271894  27.780   4.536   5.863
 5581POPC   C1A71895  27.614   4.250   6.252
 5581POPC   D2A71896  27.548   4.454   6.643
 5581POPC   C3A71897  27.732   4.266   7.028
 5581POPC   C4A71898  27.814   4.013   7.386
 5581POPC   C1B71899  27.453   4.746   6.133
 5581POPC   C2B71900  27.146   4.776   6.472
 5581POPC   C3B71901  27.121   4.627   6.889
 5581POPC   C4B71902  27.504   4.717   7.094
 5582POPC   NC371903   6.355  20.101   5.464
 5582POPC   PO471904   6.787  19.700   5.173
 5582POPC   GL171905   6.676  19.763   5.717
 5582POPC   GL271906   6.751  19.469   5.935
 5582POPC   C1A71907   6.453  19.930   6.120
 5582POPC   D2A71908   6.303  19.841   6.571
 5582POPC   C3A71909   6.636  19.910   6.907
 5582POPC   C4A71910   7.082  20.012   7.002
 5582POPC   C1B71911   6.815  19.650   6.380
 5582POPC   C2B71912   7.016  19.500   6.778
 5582POPC   C3B71913   6.811  19.480   7.185
 5582POPC   C4B71914   6.515  19.757   7.387
 5583POPC   NC371915  24.393  39.032   5.353
 5583POPC   PO471916  24.725  39.639   5.458
 5583POPC   GL171917  24.671  39.305   5.766
 5583POPC   GL271918  24.317  39.175   5.844
 5583POPC   C1A71919  24.665  39.319   6.224
 5583POPC   D2A71920  24.373  39.261   6.567
 5583POPC   C3A71921  24.619  39.221   6.947
 5583POPC   C4A71922  24.718  39.592   7.179
 5583POPC   C1B71923  24.075  38.987   6.206
 5583POPC   C2B71924  24.079  38.826   6.646
 5583POPC   C3B71925  24.129  39.104   7.035
 5583POPC   C4B71926  24.378  39.287   7.417
 5584POPC   NC371927  26.897  35.814   5.268
 5584POPC   PO471928  27.055  36.476   5.252
 5584POPC   GL171929  26.993  36.202   5.596
 5584POPC   GL271930  26.631  36.163   5.579
 5584POPC   C1A71931  26.964  35.994   5.997
 5584POPC   D2A71932  27.053  36.130   6.428
 5584POPC   C3A71933  26.862  36.042   6.805
 5584POPC   C4A71934  27.128  35.946   7.123
 5584POPC   C1B71935  26.593  36.385   5.993
 5584POPC   C2B71936  26.530  36.301   6.441
 5584POPC   C3B71937  26.553  36.448   6.865
 5584POPC   C4B71938  26.655  36.493   7.281
 5585POPC   NC371939  33.117  24.801   5.388
 5585POPC   PO471940  33.230  24.205   5.595
 5585POPC   GL171941  33.068  24.303   5.960
 5585POPC   GL271942  32.754  24.411   5.924
 5585POPC   C1A71943  33.050  24.349   6.396
 5585POPC   D2A71944  33.006  24.270   6.802
 5585POPC   C3A71945  33.063  24.665   7.014
 5585POPC   C4A71946  33.459  24.951   7.049
 5585POPC   C1B71947  32.722  24.732   6.216
 5585POPC   C2B71948  32.632  24.783   6.647
 5585POPC   C3B71949  32.590  24.878   7.064
 5585POPC   C4B71950  32.727  24.646   7.417
 5586POPC   NC371951  40.376  35.848   5.478
 5586POPC   PO471952  40.785  36.365   5.367
 5586POPC   GL171953  40.746  36.131   5.755
 5586POPC   GL271954  41.106  36.085   5.902
 5586POPC   C1A71955  40.668  36.096   6.205
 5586POPC   D2A71956  40.882  35.787   6.443
 5586POPC   C3A71957  40.991  35.869   6.865
 5586POPC   C4A71958  40.751  36.069   7.170
 5586POPC   C1B71959  41.222  36.173   6.346
 5586POPC   C2B71960  41.212  36.368   6.776
 5586POPC   C3B71961  41.103  36.450   7.231
 5586POPC   C4B71962  41.309  36.540   7.684
 5587POPC   NC371963  44.751  33.190   5.458
 5587POPC   PO471964  44.126  32.970   5.264
 5587POPC   GL171965  44.303  32.923   5.746
 5587POPC   GL271966  44.624  32.747   5.711
 5587POPC   C1A71967  44.523  33.150   6.164
 5587POPC   D2A71968  44.773  33.427   6.479
 5587POPC   C3A71969  44.690  33.333   6.946
 5587POPC   C4A71970  44.900  33.105   7.282
 5587POPC   C1B71971  44.755  32.704   6.149
 5587POPC   C2B71972  44.620  32.844   6.559
 5587POPC   C3B71973  44.696  32.746   6.981
 5587POPC   C4B71974  44.451  32.884   7.377
 5588POPC   NC371975  12.234   7.000   5.481
 5588POPC   PO471976  11.833   6.486   5.484
 5588POPC   GL171977  11.958   6.662   5.870
 5588POPC   GL271978  11.875   7.025   5.834
 5588POPC   C1A71979  12.177   6.471   6.242
 5588POPC   D2A71980  12.401   6.276   6.608
 5588POPC   C3A71981  12.211   6.393   6.989
 5588POPC   C4A71982  12.289   6.439   7.392
 5588POPC   C1B71983  12.085   6.997   6.240
 5588POPC   C2B71984  12.287   6.820   6.607
 5588POPC   C3B71985  12.297   6.894   7.031
 5588POPC   C4B71986  11.987   6.854   7.325
 5589POPC   NC371987  11.448  12.005   5.440
 5589POPC   PO471988  10.953  11.760   5.422
 5589POPC   GL171989  11.097  11.963   5.832
 5589POPC   GL271990  11.319  12.260   5.852
 5589POPC   C1A71991  11.091  12.074   6.277
 5589POPC   D2A71992  11.339  12.009   6.652
 5589POPC   C3A71993  11.132  11.942   7.033
 5589POPC   C4A71994  11.275  12.046   7.457
 5589POPC   C1B71995  11.600  12.237   6.224
 5589POPC   C2B71996  11.584  12.462   6.625
 5589POPC   C3B71997  11.430  12.381   7.057
 5589POPC   C4B71998  11.726  12.363   7.401
 5590W        W71999  18.553  21.047   4.961
 5591W        W72000  33.172  25.988   0.240
 5592W        W72001  26.672   8.192  13.894
 5593W        W72002  26.972   1.755  12.911
 5594W        W72003   4.940  21.599   2.666
 5595W        W72004  13.397  29.892  11.452
 5596W        W72005   1.466  28.623   0.841
 5597W        W72006  31.766  32.484   4.198
 5598W        W72007  31.976  34.985   1.839
 5599W        W72008  22.054  14.353   0.812
 5600W        W72009   9.268  27.767   3.991
 5601W        W72010  27.958   9.973  14.355
 5602W        W72011   9.398  43.019  14.819
 5603W        W72012   6.395  30.371   9.703
 5604W        W72013  13.538  36.918  10.659
 5605W        W72014  26.083  37.552  14.995
 5606W        W72015   2.736  23.138  14.976
 5607W        W72016  29.558  38.091  13.484
 5608W        W72017   6.642  18.112  13.919
 5609W        W72018  38.402   6.473  11.145
 5610W        W72019  41.504  23.460   2.630
 5611W        W72020   9.556   3.943  12.668
 5612W        W72021  16.774  37.443  14.842
 5613W        W72022  14.054  24.771   2.770
 5614W        W72023  33.415  39.861  10.859
 5615W        W72024   4.231  16.997  13.943
 5616W        W72025  36.364  33.881  13.736
 5617W        W72026  21.984  14.673   3.258
 5618W        W72027   1.677  31.157  11.712
 5619W        W72028  32.875   4.905   1.419
 5620W        W72029  39.033   9.638   1.463
 5621W        W72030  18.802  23.196   4.279
 5622W        W72031  26.062  30.380   0.374
 5623W        W72032  29.875  36.872  13.912
 5624W        W72033  10.580  17.424   4.149
 5625W        W72034  27.117  41.276   1.887
 5626W        W72035   8.472   9.321   0.307
 5627W        W72036  20.425  38.593  11.113
 5628W        W72037  14.555   3.648   0.755
 5629W        W72038  34.934  31.073   3.674
 5630W        W72039  21.482   3.574  10.139
 5631W        W72040   8.179  39.748  11.119
 5632W        W72041  33.015  25.215  10.783
 5633W        W72042   0.434  35.181   0.544
 5634W        W72043  43.750  11.174   1.412
 5635W        W72044  35.198  15.552  12.139
 5636W        W72045   2.707  22.177   0.921
 5637W        W72046   4.842  19.217  11.403
 5638W        W72047  40.637  39.408  14.259
 5639W        W72048  18.679  17.849   3.398
 5640W        W72049   9.204  19.756  12.078
 5641W        W72050  39.632  24.702  14.501
 5642W        W72051  36.928  32.122  10.071
 5643W        W72052   2.368  16.970   3.287
 5644W        W72053  40.926  24.528  14.040
 5645W        W72054  43.477  26.919  12.448
 5646W        W72055   7.842  44.247  13.020
 5647W        W72056  36.556  26.380  10.718
 5648W        W72057  16.538   2.194  11.951
 5649W        W72058   9.825  40.385  10.535
 5650W        W72059  37.144  17.769   0.986
 5651W        W72060  16.122  13.992  12.526
 5652W        W72061  13.876  16.684  10.688
 5653W        W72062  26.221  11.860   3.426
 5654W        W72063  44.958  24.557  13.058
 5655W        W72064  20.206   8.613  13.937
 5656W        W72065  30.114   8.544   2.893
 5657W        W72066   0.275  32.132  12.421
 5658W        W72067  29.757  24.455  14.375
 5659W        W72068   8.336  41.067   4.517
 5660W        W72069   9.250  44.385   3.176
 5661W        W72070  32.311  42.370   2.259
 5662W        W72071  31.140  18.736  14.874
 5663W        W72072   7.233  23.031  11.042
 5664W        W72073  38.925  38.830   4.040
 5665W        W72074  30.986  34.329  12.940
 5666W        W72075  16.091  39.260   1.187
 5667W        W72076   5.442  26.478  13.441
 5668W        W72077  18.627   0.227  12.024
 5669W        W72078  26.733  32.623   4.427
 5670W        W72079  36.778   9.316   1.005
 5671W        W72080  42.373   4.935  11.131
 5672W        W72081  43.281  38.204  12.669
 5673W        W72082   4.306  36.809  12.501
 5674W        W72083  37.837  14.737   2.265
 5675W        W72084  34.913  24.637   4.737
 5676W        W72085  41.069   8.482  13.536
 5677W        W72086  26.844   4.381   4.333
 5678W        W72087  12.717  39.280   2.019
 5679W        W72088   0.779   2.376   3.150
 5680W        W72089   0.333  38.888   4.801
 5681W        W72090  36.709   0.026   3.410
 5682W        W72091  10.542  35.599  14.824
 5683W        W72092   5.436  28.674  11.046
 5684W        W72093  18.265   9.795   1.678
 5685W        W72094  43.812  41.343  12.387
 5686W        W72095  34.482  41.650   3.598
 5687W        W72096  11.666  17.208   4.731
 5688W        W72097  31.473  27.770   3.302
 5689W        W72098   7.328  17.140   0.755
 5690W        W72099  15.124   5.344  13.092
 5691W        W72100  34.351  38.534  12.426
 5692W        W72101   8.860  39.491  11.804
 5693W        W72102  21.140  12.113  13.958
 5694W        W72103  32.928  40.100   3.105
 5695W        W72104  17.389  23.184   2.152
 5696W        W72105  42.757  15.211  14.376
 5697W        W72106  27.155  25.792  13.933
 5698W        W72107  12.839  43.094  14.573
 5699W        W72108   1.802  25.696   4.693
 5700W        W72109   4.345   3.226  11.797
 5701W        W72110  15.482  20.741   2.725
 5702W        W72111  43.326  22.796   0.583
 5703W        W72112  17.052   1.935   3.678
 5704W        W72113  32.951  22.504   1.747
 5705W        W72114  35.538   4.135   5.006
 5706W        W72115  21.885  33.375  13.267
 5707W        W72116  19.266  40.697  13.516
 5708W        W72117  23.504  32.672   1.048
 5709W        W72118  16.061  38.724  13.850
 5710W        W72119   5.130  23.037   4.507
 5711W        W72120  24.639  43.456  11.910
 5712W        W72121  34.830   5.256  11.975
 5713W        W72122  19.500   0.254  12.513
 5714W        W72123  10.595  11.600  13.398
 5715W        W72124   8.140   7.076  11.122
 5716W        W72125  29.497   7.902  11.025
 5717W        W72126   1.011  21.979  13.745
 5718W        W72127  26.486  34.494   4.212
 5719W        W72128   8.771   9.313  13.434
 5720W        W72129   1.721  37.930   2.213
 5721W        W72130  16.994   7.160  12.091
 5722W        W72131   3.924  31.432  11.952
 5723W        W72132  33.382   7.478   1.840
 5724W        W72133  11.361  19.039  12.377
 5725W        W72134  42.329  21.596   1.382
 5726W        W72135  20.078  23.734   1.267
 5727W        W72136  31.312  29.444  14.714
 5728W        W72137   3.761  30.285   0.760
 5729W        W72138  26.021  20.130   1.319
 5730W        W72139  35.335   6.333  13.562
 5731W        W72140  29.052  21.626  11.910
 5732W        W72141   5.070  12.857   1.655
 5733W        W72142  16.093  20.044   4.674
 5734W        W72143  12.092  14.161  14.463
 5735W        W72144  43.431   5.406  11.503
 5736W        W72145   6.320   2.442   1.894
 5737W        W72146  13.134  24.139   0.798
 5738W        W72147  34.827  33.907   2.815
 5739W        W72148  29.067  28.243   1.962
 5740W        W72149  27.896  19.454  13.837
 5741W        W72150   0.304   3.412  13.809
 5742W        W72151  32.046  37.954  12.536
 5743W        W72152  38.980  27.028   2.834
 5744W        W72153  39.256   0.801   3.182
 5745W        W72154  18.221   8.182  14.463
 5746W        W72155   2.292  22.797  10.627
 5747W        W72156  20.287  12.155   2.826
 5748W        W72157  25.773   9.462   0.195
 5749W        W72158  29.944  26.323  13.487
 5750W        W72159   3.921   8.723   3.340
 5751W        W72160   6.884  34.998   4.986
 5752W        W72161   4.213  30.342   3.806
 5753W        W72162  13.209  11.837   1.267
 5754W        W72163  10.405  27.822  12.114
 5755W        W72164  37.432  12.700   4.346
 5756W        W72165  36.881   7.685  10.700
 5757W        W72166   1.994  44.696   3.234
 5758W        W72167   9.859  19.612   1.100
 5759W        W72168  18.780  22.241   1.736
 5760W        W72169  32.022  40.457  12.132
 5761W        W72170  24.432  19.634  12.492
 5762W        W72171  10.059  18.048   1.800
 5763W        W72172   8.837  13.408  12.100
 5764W        W72173   4.001  18.496  14.037
 5765W        W72174  42.491  20.365  13.458
 5766W        W72175  21.703  10.110  12.585
 5767W        W72176  22.034   5.311   3.364
 5768W        W72177  26.636  26.521   1.838
 5769W        W72178  17.124   8.252  12.268
 5770W        W72179  12.853  34.677  14.877
 5771W        W72180  40.360   8.332  12.909
 5772W        W72181  11.582  12.187   1.219
 5773W        W72182   9.318  44.325   1.705
 5774W        W72183  36.585   3.871  13.508
 5775W        W72184  12.148  40.104   3.009
 5776W        W72185  41.946  27.795   0.751
 5777W        W72186   3.685   4.420   1.834
 5778W        W72187   6.818  23.911  12.798
 5779W        W72188  34.621  24.560  12.616
 5780W        W72189  41.351  34.979   4.402
 5781W        W72190  12.268  42.342   2.130
 5782W        W72191  24.689  32.574   4.567
 5783W        W72192   9.262  41.409  11.099
 5784W        W72193   6.116  12.585  12.020
 5785W        W72194  19.811  16.820  12.480
 5786W        W72195   4.941  43.796  12.316
 5787W        W72196  21.854  36.983   2.336
 5788W        W72197   7.373  17.140  10.337
 5789W        W72198  37.048  21.002  13.925
 5790W        W72199  19.039  22.480   3.658
 5791W        W72200   0.336  17.834  12.573
 5792W        W72201  39.930  43.770   3.811
 5793W        W72202  10.097  29.928  10.745
 5794W        W72203  37.540  20.223  13.323
 5795W        W72204   6.649  13.890   2.210
 5796W        W72205  27.910   2.801  13.711
 5797W        W72206  35.083  17.652  11.954
 5798W        W72207  42.434  15.597  11.555
 5799W        W72208   2.259  39.522   1.211
 5800W        W72209  41.982  11.376   4.283
 5801W        W72210  17.649  19.368   4.646
 5802W        W72211  21.615  20.144  13.467
 5803W        W72212   0.296  16.074  12.870
 5804W        W72213  33.396  18.106   4.181
 5805W        W72214  26.845  23.706   4.290
 5806W        W72215  26.666  38.020  11.064
 5807W        W72216  33.202   7.864   1.452
 5808W        W72217  17.268  30.949   1.883
 5809W        W72218  25.084  28.879   4.493
 5810W        W72219   9.735  26.190  13.012
 5811W        W72220  36.007  13.248  10.632
 5812W        W72221  31.121  17.312  11.594
 5813W        W72222  28.135  17.554   0.892
 5814W        W72223   5.170  36.464   4.525
 5815W        W72224   7.377  18.033   4.091
 5816W        W72225  13.500  17.688  14.671
 5817W        W72226   1.645  41.466   3.291
 5818W        W72227  31.498  30.212   0.557
 5819W        W72228  27.365  35.146   0.387
 5820W        W72229   0.919  44.463  14.966
 5821W        W72230  14.525  35.475   4.613
 5822W        W72231   2.515  29.386  14.869
 5823W        W72232   4.462  37.536  10.774
 5824W        W72233  16.702  22.519   3.610
 5825W        W72234  24.446  37.931   3.389
 5826W        W72235  28.218   8.866   2.894
 5827W        W72236  39.004  35.452   2.907
 5828W        W72237  29.365  40.394   0.551
 5829W        W72238   1.938  17.041   2.735
 5830W        W72239  35.952  34.955  12.474
 5831W        W72240  24.098  10.227   5.564
 5832W        W72241  41.072  33.970   1.745
 5833W        W72242  24.121  22.166  14.403
 5834W        W72243  38.138   4.719  11.067
 5835W        W72244   7.625  34.972   1.746
 5836W        W72245   5.670  39.842   0.858
 5837W        W72246  40.774   9.721  13.938
 5838W        W72247  18.059  32.385  14.584
 5839W        W72248  42.701  41.539   0.469
 5840W        W72249  36.921  38.903  13.081
 5841W        W72250  10.801   0.231   2.816
 5842W        W72251  33.447  13.916   2.712
 5843W        W72252  21.641  31.482  12.405
 5844W        W72253  26.025  21.956  12.256
 5845W        W72254   4.513  31.883   1.494
 5846W        W72255  29.937  11.125  11.976
 5847W        W72256  39.914   7.960   3.599
 5848W        W72257   2.722   8.138  12.150
 5849W        W72258  31.110   6.964   1.848
 5850W        W72259  43.719   0.594   3.196
 5851W        W72260   7.508  35.847  10.770
 5852W        W72261  10.628  21.506  11.613
 5853W        W72262  21.906  10.037   4.444
 5854W        W72263  28.485  43.146  10.841
 5855W        W72264   6.400  18.292  11.471
 5856W        W72265   6.771  37.904  11.008
 5857W        W72266  34.340  19.414   2.754
 5858W        W72267  22.596  30.981  12.852
 5859W        W72268  43.067  15.411  11.153
 5860W        W72269   2.532  43.932   1.256
 5861W        W72270   2.968  19.680   1.274
 5862W        W72271  39.013  35.799   1.850
 5863W        W72272  44.871  24.140   2.470
 5864W        W72273  25.424  33.063   1.451
 5865W        W72274   8.306   4.438  11.619
 5866W        W72275   1.063   9.421   3.149
 5867W        W72276   3.544  30.704  12.453
 5868W        W72277   0.874   2.994   3.736
 5869W        W72278   4.902  19.555   1.266
 5870W        W72279  41.981  11.725  13.069
 5871W        W72280  17.626  24.195  14.991
 5872W        W72281  30.322  13.363  13.126
 5873W        W72282   2.354   1.867  12.766
 5874W        W72283  12.255  15.024  12.859
 5875W        W72284  22.034  13.585   4.902
 5876W        W72285  23.592  20.211   2.728
 5877W        W72286   6.229   3.755  14.321
 5878W        W72287  23.001  25.655   3.320
 5879W        W72288  40.347   8.291   1.757
 5880W        W72289  22.289  42.015   1.389
 5881W        W72290  18.593  34.864   3.660
 5882W        W72291  25.923  34.640  14.342
 5883W        W72292  22.187  28.076  12.937
 5884W        W72293  23.747  36.433   2.706
 5885W        W72294  12.499  20.678   0.375
 5886W        W72295  22.909   9.407   1.742
 5887W        W72296  13.771  17.467  11.903
 5888W        W72297  11.856  44.259  10.581
 5889W        W72298  16.292  33.710   0.313
 5890W        W72299  34.727   5.857  13.967
 5891W        W72300   7.693  39.366   4.206
 5892W        W72301  40.546  13.123   2.706
 5893W        W72302   7.945  43.809   0.500
 5894W        W72303  41.364  39.389   2.444
 5895W        W72304  27.895  17.609   1.761
 5896W        W72305  22.213  37.939  12.120
 5897W        W72306  32.133  16.958   4.135
 5898W        W72307   1.792  14.671  12.028
 5899W        W72308  21.515  38.514   3.694
 5900W        W72309   3.711  32.261  14.952
 5901W        W72310  21.705   5.808  10.459
 5902W        W72311  34.433  15.237   4.622
 5903W        W72312  15.545  23.716  14.940
 5904W        W72313  41.960  33.985  14.935
 5905W        W72314  38.200  39.547   1.345
 5906W        W72315   3.352  28.437   0.906
 5907W        W72316  10.232  43.299   1.306
 5908W        W72317   3.111  39.318   2.984
 5909W        W72318  43.992   2.488   0.902
 5910W        W72319  31.429  22.681  13.615
 5911W        W72320   9.301  30.345   2.766
 5912W        W72321  10.385  44.503   2.227
 5913W        W72322  35.400  44.001   0.932
 5914W        W72323  25.067  12.404   4.818
 5915W        W72324  17.187   4.156  14.240
 5916W        W72325  27.540  24.098   0.549
 5917W        W72326   7.847   0.503  11.971
 5918W        W72327  34.929  31.504  11.300
 5919W        W72328  11.099  26.710   0.223
 5920W        W72329  42.294  44.039   3.640
 5921W        W72330   2.339   6.909  14.817
 5922W        W72331  20.912  43.414   3.233
 5923W        W72332  11.282  11.404  12.357
 5924W        W72333   5.080  19.209   2.452
 5925W        W72334  37.441  19.298   1.238
 5926W        W72335  44.939  19.169  11.663
 5927W        W72336  32.469  26.426  14.288
 5928W        W72337   9.772  25.616   0.272
 5929W        W72338  14.187  14.800  13.910
 5930W        W72339   3.044  42.071  11.455
 5931W        W72340  43.342   8.623  13.345
 5932W        W72341  41.704  20.378  13.021
 5933W        W72342  28.237   0.798  14.580
 5934W        W72343  41.856  37.425  12.868
 5935W        W72344  31.930  29.927  12.548
 5936W        W72345  42.844  37.340   2.939
 5937W        W72346  15.021  10.855  14.797
 5938W        W72347  18.255  17.784  12.069
 5939W        W72348  30.106  25.266  11.230
 5940W        W72349  12.470   0.863  13.359
 5941W        W72350  39.962  40.117   0.882
 5942W        W72351  22.574   2.215   3.715
 5943W        W72352   1.303  17.351  12.603
 5944W        W72353  29.676  23.795   3.707
 5945W        W72354  14.432  39.813  14.427
 5946W        W72355   1.444  29.450   2.271
 5947W        W72356  20.100  16.567   1.931
 5948W        W72357  33.222  17.146  11.474
 5949W        W72358   7.607   5.255   4.769
 5950W        W72359  35.376  41.488  10.512
 5951W        W72360  15.734  10.383   3.204
 5952W        W72361  37.901  26.115   4.779
 5953W        W72362  19.802  20.117   4.397
 5954W        W72363   2.327   2.839   2.692
 5955W        W72364  27.438  39.774   0.007
 5956W        W72365  11.108   4.588   9.713
 5957W        W72366  29.676  10.339   1.558
 5958W        W72367  10.217  39.962  11.182
 5959W        W72368  41.823  19.828  13.869
 5960W        W72369   5.833  20.008  14.202
 5961W        W72370   5.986  19.327  13.383
 5962W        W72371  22.510  11.572   0.900
 5963W        W72372  41.443  39.825  11.985
 5964W        W72373   3.777  14.733   4.229
 5965W        W72374  31.667  39.332  13.090
 5966W        W72375   6.926  25.041   2.833
 5967W        W72376   1.058  23.307   1.736
 5968W        W72377  10.757  38.492  12.253
 5969W        W72378  25.961  10.335   1.132
 5970W        W72379   8.538  34.507   4.120
 5971W        W72380   9.753  29.247   2.096
 5972W        W72381   3.130  27.414   0.964
 5973W        W72382  43.336  15.104  13.000
 5974W        W72383  44.448  32.137   2.368
 5975W        W72384  38.995   0.989  12.550
 5976W        W72385  27.933  28.634   4.314
 5977W        W72386  21.558   4.749  10.393
 5978W        W72387  15.554  20.965  13.309
 5979W        W72388  28.512  42.346  14.245
 5980W        W72389  28.774  19.406  11.601
 5981W        W72390  18.026   4.037  10.738
 5982W        W72391  43.551  29.116   2.302
 5983W        W72392  16.657  43.894  13.479
 5984W        W72393  39.317  34.073  13.391
 5985W        W72394  32.060  44.005   2.674
 5986W        W72395   9.419  13.894   3.566
 5987W        W72396  23.994  33.670  12.588
 5988W        W72397  14.439  17.616   3.246
 5989W        W72398  44.800  38.861  13.326
 5990W        W72399   3.687  44.182   2.242
 5991W        W72400  19.673  28.977  12.175
 5992W        W72401  23.471  22.633   3.633
 5993W        W72402  37.653  20.597  12.481
 5994W        W72403  35.237   4.225   2.326
 5995W        W72404  34.063  39.642   1.470
 5996W        W72405  14.792  28.432   3.014
 5997W        W72406  20.591  39.412  12.107
 5998W        W72407  22.677  24.560   0.448
 5999W        W72408  43.493  34.624   3.781
 6000W        W72409  14.226  29.535   3.445
 6001W        W72410  26.587  19.791  12.583
 6002W        W72411  18.025  33.600  12.132
 6003W        W72412  14.195  13.345  13.065
 6004W        W72413   9.823   8.953   5.018
 6005W        W72414  12.155  22.034   2.915
 6006W        W72415  15.060  11.382   3.253
 6007W        W72416  24.595   5.036   2.768
 6008W        W72417  26.904  10.369   1.300
 6009W        W72418   3.743  21.756  13.281
 6010W        W72419   8.389  32.892   0.276
 6011W        W72420  28.158  29.038  10.316
 6012W        W72421  29.944  12.991   1.396
 6013W        W72422  29.150  18.044   2.167
 6014W        W72423  44.436  20.183  12.442
 6015W        W72424  24.019  30.739  12.926
 6016W        W72425  17.354  39.480   2.743
 6017W        W72426  36.166  26.555   4.411
 6018W        W72427   9.176  31.402   2.645
 6019W        W72428  14.205  25.048   3.203
 6020W        W72429  25.864   0.056  11.620
 6021W        W72430  37.984  36.146   0.846
 6022W        W72431  23.106   0.756   0.865
 6023W        W72432  44.857   7.111  11.596
 6024W        W72433  34.368   2.916  14.815
 6025W        W72434  34.486  27.920  12.301
 6026W        W72435   7.236  31.294  12.976
 6027W        W72436  33.827  16.547   3.455
 6028W        W72437  17.502   9.224   1.798
 6029W        W72438  18.448   5.033  14.388
 6030W        W72439  18.561  17.058   0.733
 6031W        W72440  25.536   9.377  11.495
 6032W        W72441  33.105  16.258   2.159
 6033W        W72442  34.705  29.026  13.017
 6034W        W72443  37.480  24.878  13.197
 6035W        W72444  21.619   6.421   2.826
 6036W        W72445  23.776  12.227   0.853
 6037W        W72446  38.637   6.389  12.111
 6038W        W72447  14.755   0.944  12.604
 6039W        W72448  25.322  44.640  12.004
 6040W        W72449  35.584  15.911   0.881
 6041W        W72450   3.271  23.006   3.224
 6042W        W72451  10.094   7.550  14.473
 6043W        W72452   3.581  20.344  12.662
 6044W        W72453   8.138   6.151  11.110
 6045W        W72454  36.910  40.055  14.729
 6046W        W72455   7.719  17.093  14.999
 6047W        W72456  33.359  15.072   1.893
 6048W        W72457  11.716  43.331  14.004
 6049W        W72458   3.757  30.228  14.785
 6050W        W72459  16.324  44.535  14.178
 6051W        W72460  19.646  36.467  10.775
 6052W        W72461  29.840   3.188   4.145
 6053W        W72462  41.403  31.648  14.773
 6054W        W72463  20.646  37.569   0.057
 6055W        W72464  30.048  16.715  13.530
 6056W        W72465  44.841  38.067   3.702
 6057W        W72466  28.961  13.876   2.182
 6058W        W72467   7.466  41.827   0.405
 6059W        W72468  15.817   6.872  10.600
 6060W        W72469   0.818  32.519   4.915
 6061W        W72470  40.326  29.995  14.946
 6062W        W72471  22.690  16.552  12.349
 6063W        W72472  34.959  23.772  11.584
 6064W        W72473  31.577  13.444   0.259
 6065W        W72474  29.873  40.678  13.323
 6066W        W72475  38.150   4.857   0.265
 6067W        W72476  12.808  26.419  10.911
 6068W        W72477  25.296  35.490  13.473
 6069W        W72478  39.422  22.185  13.498
 6070W        W72479  26.125  34.301   3.167
 6071W        W72480   1.376  28.943   2.236
 6072W        W72481  22.173  34.595  10.731
 6073W        W72482  11.580  28.414   4.170
 6074W        W72483   2.725  22.531  10.709
 6075W        W72484   6.716  13.084  11.607
 6076W        W72485  10.330  15.396  13.928
 6077W        W72486  38.409  22.281   4.562
 6078W        W72487   4.627   8.983   4.096
 6079W        W72488  15.807  30.900  10.764
 6080W        W72489   3.014  38.534  12.014
 6081W        W72490  22.598  28.686   2.824
 6082W        W72491   1.718  41.274  12.419
 6083W        W72492  20.833  23.465  12.408
 6084W        W72493  41.010  29.889  14.864
 6085W        W72494  15.513   1.884  12.020
 6086W        W72495  16.203  30.633  13.011
 6087W        W72496  17.131  38.173  11.205
 6088W        W72497  43.229   7.673  13.472
 6089W        W72498   5.863  25.707  13.866
 6090W        W72499  36.128   8.432  14.844
 6091W        W72500   2.790  44.575   3.940
 6092W        W72501  18.484  44.882   4.038
 6093W        W72502   3.421  40.215   1.165
 6094W        W72503   5.618  34.092  12.118
 6095W        W72504   8.485  36.848  12.107
 6096W        W72505  11.137  40.228   1.271
 6097W        W72506  39.940  36.999   1.417
 6098W        W72507  21.595  10.752  11.981
 6099W        W72508  26.698  37.799   1.447
 6100W        W72509  14.866  11.662  14.601
 6101W        W72510  38.352  33.382  11.556
 6102W        W72511  33.789  28.207  12.783
 6103W        W72512  26.867  13.388  14.452
 6104W        W72513   3.850  33.601   2.281
 6105W        W72514  18.668  13.775  13.838
 6106W        W72515  18.815  14.556   2.406
 6107W        W72516  21.682  28.225  12.947
 6108W        W72517  28.140  32.394   0.820
 6109W        W72518  24.734  27.930   0.111
 6110W        W72519  18.963  28.947   1.948
 6111W        W72520  27.710  27.748   0.956
 6112W        W72521  18.957   1.906   2.324
 6113W        W72522  18.220  41.287   0.276
 6114W        W72523  42.238   4.387   3.247
 6115W        W72524  21.523  34.412   2.782
 6116W        W72525  33.322  20.023   1.747
 6117W        W72526  14.893   0.094  13.266
 6118W        W72527   9.446  13.529  14.776
 6119W        W72528  18.552   0.813  13.908
 6120W        W72529  23.257   9.579  13.819
 6121W        W72530  11.449   0.843  12.499
 6122W        W72531  30.885  32.005   4.815
 6123W        W72532  33.516  31.226  13.476
 6124W        W72533  32.412  28.154  14.381
 6125W        W72534  20.858  24.263   2.745
 6126W        W72535  12.947  36.495   1.212
 6127W        W72536  10.171  38.484  12.389
 6128W        W72537  21.556   2.628   2.150
 6129W        W72538   5.825  43.090  14.451
 6130W        W72539  29.935  38.541  12.016
 6131W        W72540  17.520  33.406  10.762
 6132W        W72541  27.523  41.368   3.278
 6133W        W72542  29.529  43.812   0.314
 6134W        W72543  41.582  22.963  12.501
 6135W        W72544  20.661  41.305   1.239
 6136W        W72545  38.797  40.505  12.895
 6137W        W72546  28.271  10.888   2.853
 6138W        W72547  42.827   8.218  10.748
 6139W        W72548  19.714  21.028  12.297
 6140W        W72549  14.206   0.474  12.828
 6141W        W72550   8.269  41.975  14.892
 6142W        W72551  42.096   8.575   3.611
 6143W        W72552  34.122  43.981  13.331
 6144W        W72553  33.422  30.490   4.050
 6145W        W72554  14.821  11.866   0.378
 6146W        W72555   3.833   5.869   1.883
 6147W        W72556  17.764  33.394   3.204
 6148W        W72557   4.690  32.749   0.245
 6149W        W72558   1.307  34.525   2.238
 6150W        W72559   6.592   4.519   1.369
 6151W        W72560   1.359  20.700  13.342
 6152W        W72561   0.856   1.000  11.467
 6153W        W72562  14.609  31.175   3.358
 6154W        W72563  31.516  40.306   2.238
 6155W        W72564  26.530  30.802  13.824
 6156W        W72565  32.158  26.001  12.963
 6157W        W72566   1.421  23.608  11.212
 6158W        W72567  38.139  30.193   1.788
 6159W        W72568  14.869   1.742   3.641
 6160W        W72569  40.510  17.739  12.166
 6161W        W72570  19.960  21.308  14.375
 6162W        W72571  39.811  29.342   3.362
 6163W        W72572  43.318  15.536   3.360
 6164W        W72573  16.070   2.261  14.526
 6165W        W72574  26.792  20.733   2.336
 6166W        W72575  29.884  31.482  14.506
 6167W        W72576   8.264  23.594  10.254
 6168W        W72577  42.919  41.314  12.609
 6169W        W72578  35.103   2.594   3.168
 6170W        W72579  28.701   2.186  11.503
 6171W        W72580  18.707  38.689  10.176
 6172W        W72581   9.118  40.282  13.811
 6173W        W72582  19.533  26.530  11.806
 6174W        W72583  39.416  28.984   3.702
 6175W        W72584  32.453   6.626   3.767
 6176W        W72585  34.959  12.102   0.759
 6177W        W72586  18.407  39.567  11.406
 6178W        W72587  41.814  15.188  12.574
 6179W        W72588   7.266  41.962   2.795
 6180W        W72589  20.849  13.395  13.821
 6181W        W72590  19.696  41.591   4.038
 6182W        W72591   7.695  35.577   3.077
 6183W        W72592  39.668   9.610   1.220
 6184W        W72593  28.893  12.161  13.389
 6185W        W72594  14.560  16.588  14.966
 6186W        W72595  22.994  43.990  13.979
 6187W        W72596  37.634  18.606   1.007
 6188W        W72597   1.302  44.594   1.369
 6189W        W72598  37.667   2.023  14.817
 6190W        W72599  30.965   1.282  12.341
 6191W        W72600  42.058   9.197  13.905
 6192W        W72601  12.204  15.826   2.396
 6193W        W72602  32.418   8.297   4.716
 6194W        W72603  41.440  43.281   0.819
 6195W        W72604  22.191  13.772   1.461
 6196W        W72605  14.248   1.834  10.501
 6197W        W72606  21.900   6.959   1.408
 6198W        W72607  12.750   7.460  14.293
 6199W        W72608  12.841   8.192   3.225
 6200W        W72609  21.799  10.200   2.289
 6201W        W72610  35.349   0.067  10.683
 6202W        W72611   7.283  25.419   1.991
 6203W        W72612  13.336  32.005  10.641
 6204W        W72613  20.361  24.546  11.083
 6205W        W72614  34.256  16.768   3.268
 6206W        W72615  26.830   5.348  14.804
 6207W        W72616   8.204   2.796   0.744
 6208W        W72617  27.068   8.653  12.100
 6209W        W72618  10.483  32.512   3.677
 6210W        W72619  33.923  30.119   3.350
 6211W        W72620  16.339   6.696   3.103
 6212W        W72621   7.660  19.178   0.885
 6213W        W72622  36.198  44.462  14.317
 6214W        W72623  23.952   1.530  11.232
 6215W        W72624  36.089  27.342   1.457
 6216W        W72625   6.886  38.495   1.955
 6217W        W72626  16.336  43.096   1.965
 6218W        W72627  35.964  16.102   2.689
 6219W        W72628   2.149  23.996   1.622
 6220W        W72629  39.819  32.042  11.481
 6221W        W72630  22.769   7.552  12.618
 6222W        W72631   1.943  24.996   0.227
 6223W        W72632  13.208   1.777  14.909
 6224W        W72633  20.350  20.812   3.299
 6225W        W72634  39.882  25.614  12.420
 6226W        W72635  22.784  16.128  12.729
 6227W        W72636  31.573  20.460   0.617
 6228W        W72637   1.767  44.045  11.102
 6229W        W72638  29.456  36.940   0.402
 6230W        W72639  41.089  26.638  14.219
 6231W        W72640  16.809  34.211  11.868
 6232W        W72641  16.839  44.695  11.368
 6233W        W72642  25.039  23.367   3.076
 6234W        W72643  15.753  13.146   0.937
 6235W        W72644  37.683  33.136   3.691
 6236W        W72645   2.720   9.629  10.491
 6237W        W72646  15.120  15.134   1.423
 6238W        W72647  13.818   3.511  13.353
 6239W        W72648  35.793  42.279   3.880
 6240W        W72649  13.338  25.549  12.086
 6241W        W72650  41.075  31.123  11.993
 6242W        W72651  22.419  44.915  13.790
 6243W        W72652  35.865  28.025  13.538
 6244W        W72653  41.733  14.739  12.891
 6245W        W72654  16.247  37.012  13.995
 6246W        W72655  44.390  44.997  13.000
 6247W        W72656  21.174  15.762  13.077
 6248W        W72657   1.632  31.307  14.354
 6249W        W72658  27.606  40.738  13.797
 6250W        W72659  43.847  24.426   0.195
 6251W        W72660  31.511  40.222  12.916
 6252W        W72661  37.035   7.092   0.364
 6253W        W72662  41.726  26.357   2.628
 6254W        W72663  25.965   7.198  14.866
 6255W        W72664  20.582  27.153  11.193
 6256W        W72665  15.312   4.805   4.461
 6257W        W72666   3.900   9.757  12.615
 6258W        W72667   6.957  22.358  10.876
 6259W        W72668  20.446  31.802   1.938
 6260W        W72669  21.138  19.562  10.319
 6261W        W72670  24.463  24.263  14.929
 6262W        W72671  14.633  35.390   3.735
 6263W        W72672   1.897  32.107  14.027
 6264W        W72673  32.158  22.271  12.070
 6265W        W72674  12.181  26.683   3.209
 6266W        W72675  37.303  18.576   3.707
 6267W        W72676   5.773   0.791   1.950
 6268W        W72677  17.041  37.319   2.251
 6269W        W72678  39.777  23.749  14.301
 6270W        W72679  36.563  28.607   3.314
 6271W        W72680  37.932  27.133  10.979
 6272W        W72681  18.968  39.763  11.529
 6273W        W72682  30.902  29.721  10.351
 6274W        W72683  27.388  31.439   0.227
 6275W        W72684  40.490  44.572  14.481
 6276W        W72685  16.830   4.424  12.296
 6277W        W72686  44.020   3.213   2.324
 6278W        W72687  16.093  31.670   2.948
 6279W        W72688  13.354  14.810  14.877
 6280W        W72689  16.786  21.960   1.862
 6281W        W72690   7.611  31.872   2.812
 6282W        W72691  13.835  12.866  10.580
 6283W        W72692   5.557   4.729  13.462
 6284W        W72693  14.440  32.152  13.440
 6285W        W72694   8.601  31.962   1.471
 6286W        W72695  44.362  35.036   4.565
 6287W        W72696  18.092  14.694   2.859
 6288W        W72697  10.603   3.493  12.864
 6289W        W72698  11.584   9.408   2.304
 6290W        W72699  23.522  25.208   4.107
 6291W        W72700  29.599  10.649  10.362
 6292W        W72701  31.028  14.913  13.398
 6293W        W72702   7.210   7.525  10.927
 6294W        W72703  31.281  19.438   1.863
 6295W        W72704  44.697  25.035   4.286
 6296W        W72705  33.174   9.246   4.229
 6297W        W72706  35.748  25.919  12.990
 6298W        W72707  11.371  25.653   4.965
 6299W        W72708  20.276  33.566  14.380
 6300W        W72709  36.583  11.306   1.683
 6301W        W72710  21.003   9.599  13.803
 6302W        W72711  13.646  23.506  14.339
 6303W        W72712  12.945   3.289   2.300
 6304W        W72713   1.829   4.411  12.498
 6305W        W72714  27.589   4.485   0.283
 6306W        W72715  28.398  40.877  13.019
 6307W        W72716  11.352  17.593  11.417
 6308W        W72717  11.597  39.081  11.600
 6309W        W72718   1.073   8.982   2.288
 6310W        W72719  37.638  35.560   2.759
 6311W        W72720  24.754  34.496   2.860
 6312W        W72721   0.686   6.880   1.765
 6313W        W72722  17.309  38.524   0.966
 6314W        W72723  27.976  17.282   0.251
 6315W        W72724  19.099  16.658   4.599
 6316W        W72725  37.401  14.350  11.593
 6317W        W72726  12.650  40.376   1.462
 6318W        W72727  27.750  18.110   2.322
 6319W        W72728  25.458  32.441  11.324
 6320W        W72729  14.613  38.105   1.631
 6321W        W72730  35.863  20.029   3.807
 6322W        W72731  34.119   4.583   4.491
 6323W        W72732  29.095   8.177   2.604
 6324W        W72733  34.024  39.632   3.195
 6325W        W72734  21.583  25.658   4.119
 6326W        W72735   1.918  19.823   0.329
 6327W        W72736  30.277  12.646  10.763
 6328W        W72737  11.113  37.478  12.587
 6329W        W72738  17.830  39.948   4.583
 6330W        W72739  44.361  29.176  10.604
 6331W        W72740  33.135  10.176  13.554
 6332W        W72741  36.902  14.600   1.229
 6333W        W72742  31.931  30.933  14.339
 6334W        W72743  34.622   2.453  13.927
 6335W        W72744   1.958   4.865   0.659
 6336W        W72745   1.990   0.865  10.707
 6337W        W72746  22.183  43.361  14.317
 6338W        W72747   1.331  29.191  12.330
 6339W        W72748  27.253  15.160   0.728
 6340W        W72749  24.746  24.293   1.195
 6341W        W72750  17.336  40.052   3.771
 6342W        W72751  28.564  32.613  14.474
 6343W        W72752  32.174  14.229   0.950
 6344W        W72753  42.463  31.397  10.545
 6345W        W72754  21.982  29.145  11.412
 6346W        W72755  39.740   7.620  10.644
 6347W        W72756  21.216  44.697  13.458
 6348W        W72757  23.502   7.370  14.870
 6349W        W72758  39.283   2.835   0.900
 6350W        W72759  15.362  27.305   3.097
 6351W        W72760   9.735   8.920  11.079
 6352W        W72761  12.576  35.959   0.015
 6353W        W72762  36.377  10.113   4.240
 6354W        W72763  12.412  21.985   1.329
 6355W        W72764  18.340   4.887   3.588
 6356W        W72765  42.448   1.433   0.710
 6357W        W72766  12.382  17.594  13.989
 6358W        W72767  21.151  21.299  14.805
 6359W        W72768  26.599  34.561   1.336
 6360W        W72769  34.174   1.416  12.326
 6361W        W72770  27.522  41.887   3.510
 6362W        W72771  14.873  20.709  11.308
 6363W        W72772   5.340  36.983  11.589
 6364W        W72773  29.241  27.489   1.726
 6365W        W72774  24.692  27.456   3.149
 6366W        W72775  44.343  23.095  11.961
 6367W        W72776  35.620  20.230  13.349
 6368W        W72777  41.070   4.250   3.181
 6369W        W72778  10.028   7.366  13.524
 6370W        W72779  22.904  26.569   0.015
 6371W        W72780  34.858   0.003  13.138
 6372W        W72781   2.615  44.022  12.899
 6373W        W72782  33.622  40.749   4.135
 6374W        W72783  14.632  41.007   0.023
 6375W        W72784   7.407   2.764  13.638
 6376W        W72785  31.419  36.062   3.138
 6377W        W72786  28.012  27.573  13.323
 6378W        W72787  29.008  12.648   4.340
 6379W        W72788  25.705   9.202  14.766
 6380W        W72789  38.497   9.027  14.455
 6381W        W72790   5.917  30.652  14.084
 6382W        W72791  16.558  40.180   1.324
 6383W        W72792  37.463   2.447   3.245
 6384W        W72793   4.496   8.605   1.303
 6385W        W72794  30.926  30.456   0.680
 6386W        W72795  10.675  20.983  10.016
 6387W        W72796  12.779   0.889  14.636
 6388W        W72797  19.344   4.218  13.318
 6389W        W72798   5.219  39.448   4.403
 6390W        W72799  31.847   4.702  11.191
 6391W        W72800  38.800  26.347   4.647
 6392W        W72801   8.773   2.811  13.864
 6393W        W72802   6.404  15.224  13.506
 6394W        W72803  10.528  29.586   2.801
 6395W        W72804  10.121  23.340  13.142
 6396W        W72805   4.005  23.973   0.863
 6397W        W72806   7.938   8.767  10.521
 6398W        W72807  19.507  33.163  13.668
 6399W        W72808  15.594  10.636  13.900
 6400W        W72809  13.319  39.313  12.577
 6401W        W72810  44.881  22.980  13.965
 6402W        W72811  18.610  35.591   3.140
 6403W        W72812   3.392  41.834   0.230
 6404W        W72813  38.353  22.247   0.954
 6405W        W72814  21.049   9.343   1.542
 6406W        W72815  40.444   6.225  11.123
 6407W        W72816  31.133  38.832  12.540
 6408W        W72817  24.863   7.738  11.091
 6409W        W72818  10.275   3.517  12.422
 6410W        W72819  15.216  24.625  12.625
 6411W        W72820  22.227  14.378  13.957
 6412W        W72821  32.567  18.381  12.434
 6413W        W72822  39.642  43.161  11.668
 6414W        W72823  40.797  40.543  13.560
 6415W        W72824  31.104  28.536  10.434
 6416W        W72825  10.867   5.864  10.838
 6417W        W72826  36.828  23.045   3.686
 6418W        W72827  12.188  15.578  13.202
 6419W        W72828  38.381  17.919   1.836
 6420W        W72829  32.500  42.065   3.754
 6421W        W72830  17.522   1.158  11.277
 6422W        W72831  26.844  31.912  12.037
 6423W        W72832   4.713  41.318   0.824
 6424W        W72833   9.730  33.373  14.817
 6425W        W72834  24.109  11.663  13.192
 6426W        W72835  27.912  24.452   3.715
 6427W        W72836  25.153   6.732  12.662
 6428W        W72837  27.934   3.676   1.466
 6429W        W72838  20.683  24.229   1.843
 6430W        W72839  22.542  28.421   4.196
 6431W        W72840  41.803  19.277   0.799
 6432W        W72841  24.170  32.171   1.004
 6433W        W72842  27.985  36.420   3.224
 6434W        W72843  35.576   2.890   3.911
 6435W        W72844   0.390  21.498   2.403
 6436W        W72845  35.396   6.301  12.065
 6437W        W72846  41.291  34.383   3.703
 6438W        W72847  15.156  15.627   2.134
 6439W        W72848   6.699  16.415  13.122
 6440W        W72849   5.279  13.592  14.592
 6441W        W72850  36.815  25.868   3.699
 6442W        W72851  10.383   4.035   1.849
 6443W        W72852  13.443   2.252   3.626
 6444W        W72853  42.870   8.314   1.848
 6445W        W72854  33.373  32.319   4.092
 6446W        W72855  31.953  44.199   3.153
 6447W        W72856  26.275   4.395  13.235
 6448W        W72857  19.760  41.431   2.737
 6449W        W72858  30.722  25.545  12.151
 6450W        W72859  18.758  20.103   2.266
 6451W        W72860  16.271  31.153  11.586
 6452W        W72861  41.858  42.917  11.488
 6453W        W72862  35.447  32.472   1.302
 6454W        W72863   2.923  20.663   3.738
 6455W        W72864  31.875  19.815   4.824
 6456W        W72865  32.358   4.717  13.916
 6457W        W72866  27.410  44.733  10.837
 6458W        W72867   0.767  31.854   1.632
 6459W        W72868  43.246  19.633  12.496
 6460W        W72869  31.518   6.018  13.255
 6461W        W72870  20.011   0.694   1.328
 6462W        W72871  17.172   9.282   3.998
 6463W        W72872  24.667  44.554  11.058
 6464W        W72873  31.137  24.530   1.248
 6465W        W72874  16.733  25.725   4.123
 6466W        W72875  14.800   6.773   4.255
 6467W        W72876  25.403  14.893   1.357
 6468W        W72877  35.975  18.581  11.063
 6469W        W72878  12.006   1.483   4.461
 6470W        W72879  26.943   2.066  12.478
 6471W        W72880  26.586  39.377  13.479
 6472W        W72881  19.727  39.387  14.003
 6473W        W72882  33.917  39.127  12.881
 6474W        W72883  30.503   4.868  12.631
 6475W        W72884  14.600  16.634  13.128
 6476W        W72885   7.591  43.216  13.796
 6477W        W72886  25.579   9.642  11.947
 6478W        W72887  42.641  30.585   2.308
 6479W        W72888  31.117  12.386  10.764
 6480W        W72889  28.596  35.532  14.364
 6481W        W72890  19.367   1.927   0.348
 6482W        W72891   5.453   0.232  11.061
 6483W        W72892  18.319   7.203  12.821
 6484W        W72893  10.298  44.206   0.303
 6485W        W72894  37.923  41.545  13.119
 6486W        W72895  18.190  12.691  13.300
 6487W        W72896  17.167   3.239  10.201
 6488W        W72897   6.005  19.821   0.302
 6489W        W72898  30.250  40.248   2.253
 6490W        W72899  39.591  22.729  12.103
 6491W        W72900  15.808  15.197  10.511
 6492W        W72901  32.044   0.543  11.597
 6493W        W72902   6.696  36.363   4.925
 6494W        W72903  29.562  34.458   3.182
 6495W        W72904  42.764  44.564   0.916
 6496W        W72905  23.749  22.119   1.684
 6497W        W72906  27.564  28.138   2.647
 6498W        W72907   9.256   7.613   0.489
 6499W        W72908  39.855  44.572   2.989
 6500W        W72909   7.325   4.812  10.680
 6501W        W72910  38.589  10.210   2.739
 6502W        W72911   6.474   9.617   4.000
 6503W        W72912  40.088   2.293   4.556
 6504W        W72913   7.789  34.015   0.257
 6505W        W72914  24.184   5.148  11.060
 6506W        W72915  44.434  25.032   1.571
 6507W        W72916  29.676  10.176   0.661
 6508W        W72917  40.657   2.415   1.421
 6509W        W72918  15.917  11.686   1.886
 6510W        W72919  16.020   7.089   3.211
 6511W        W72920  36.169  26.126   4.093
 6512W        W72921   1.255  14.044  13.189
 6513W        W72922   3.442  14.594  14.980
 6514W        W72923   9.375  43.466  12.486
 6515W        W72924  19.138   2.038  12.176
 6516W        W72925  33.501  42.483  13.389
 6517W        W72926  40.663   9.206   4.633
 6518W        W72927  27.123  20.227   0.449
 6519W        W72928  37.264  36.360  12.008
 6520W        W72929  20.400  41.184   3.528
 6521W        W72930  21.137  13.344  11.901
 6522W        W72931   9.425  12.740  14.726
 6523W        W72932  37.563  39.540   0.839
 6524W        W72933   0.921  25.005  10.377
 6525W        W72934  10.280  18.574  10.440
 6526W        W72935   3.919   9.098  11.524
 6527W        W72936  29.517  21.602  11.657
 6528W        W72937  34.676  14.726   1.839
 6529W        W72938  19.517  10.640   0.414
 6530W        W72939   5.270   2.019   1.674
 6531W        W72940  19.092   1.504  12.197
 6532W        W72941  35.044  13.262   2.993
 6533W        W72942   0.554  39.418   2.015
 6534W        W72943  42.991  26.493  12.932
 6535W        W72944  27.462  26.755  13.841
 6536W        W72945  33.071  13.198  10.798
 6537W        W72946  20.429   6.482  13.342
 6538W        W72947  19.125  37.304   4.644
 6539W        W72948  31.485  26.267   3.690
 6540W        W72949  29.655  17.305   2.804
 6541W        W72950  19.629   9.529  11.559
 6542W        W72951  11.385  35.181   1.791
 6543W        W72952  39.298  26.983  12.812
 6544W        W72953  44.880   6.621  11.562
 6545W        W72954   6.167  27.208   0.293
 6546W        W72955   4.896  13.891   3.764
 6547W        W72956  19.569  11.734   4.619
 6548W        W72957  10.134  40.478  13.319
 6549W        W72958  13.084  36.460   5.312
 6550W        W72959  37.554   7.198  12.001
 6551W        W72960  14.253  15.432   2.218
 6552W        W72961  10.894  11.634  11.298
 6553W        W72962   9.525  16.726  14.254
 6554W        W72963  39.598  40.900  12.054
 6555W        W72964   4.914  13.460  13.398
 6556W        W72965   3.517  21.596  10.978
 6557W        W72966  10.724  43.530  14.018
 6558W        W72967   0.849  24.193   5.129
 6559W        W72968   3.811   6.087  11.157
 6560W        W72969  28.604  11.008  13.517
 6561W        W72970  44.926  36.910  14.175
 6562W        W72971  20.763   5.852  13.853
 6563W        W72972   1.326   2.548  12.531
 6564W        W72973  27.478  39.933  14.511
 6565W        W72974   8.269   2.272  12.883
 6566W        W72975   0.253  14.400  12.721
 6567W        W72976  32.040  14.108  10.307
 6568W        W72977  29.547   8.385   2.765
 6569W        W72978  36.012  40.878   3.694
 6570W        W72979  20.522  22.594   4.054
 6571W        W72980   7.574  35.074   3.221
 6572W        W72981  18.563  36.359   1.784
 6573W        W72982  24.202   6.295   2.825
 6574W        W72983   8.758  27.149   5.025
 6575W        W72984  21.148   8.939  13.541
 6576W        W72985  37.498  17.656   0.573
 6577W        W72986   8.140  11.669  13.441
 6578W        W72987  18.816  13.591  14.406
 6579W        W72988   5.508  35.599   0.368
 6580W        W72989  24.989  33.575  11.424
 6581W        W72990  10.907  27.447   2.417
 6582W        W72991   0.415  10.692   2.305
 6583W        W72992  27.656  42.328   4.252
 6584W        W72993  38.372  20.416   4.181
 6585W        W72994  28.193  38.227  13.423
 6586W        W72995  15.003  14.110   0.417
 6587W        W72996   6.449  17.277  12.467
 6588W        W72997   7.178  43.548   3.595
 6589W        W72998  20.647  33.496   4.568
 6590W        W72999  42.605   5.332  11.334
 6591W        W73000  39.247  39.808  14.812
 6592W        W73001   3.826  19.547  11.147
 6593W        W73002  26.627  27.519   4.653
 6594W        W73003  16.123  41.840  11.903
 6595W        W73004   5.324  10.853  12.945
 6596W        W73005  40.022  24.799  12.107
 6597W        W73006  34.969  33.917  11.592
 6598W        W73007   3.090   1.974  11.603
 6599W        W73008   8.125  33.708  12.636
 6600W        W73009  35.941   0.036   1.511
 6601W        W73010  20.994  17.311   0.117
 6602W        W73011  37.269   9.467   4.398
 6603W        W73012  30.024  14.164   3.406
 6604W        W73013  16.702  19.819  14.592
 6605W        W73014  21.588  29.545  13.884
 6606W        W73015  23.553  44.025   1.667
 6607W        W73016  21.620  36.327  10.392
 6608W        W73017   8.888  32.820  11.968
 6609W        W73018   0.854   1.909   2.801
 6610W        W73019  40.423  39.383  12.509
 6611W        W73020  37.462  22.479  13.009
 6612W        W73021  24.557   7.577   4.083
 6613W        W73022  21.504  35.137  14.346
 6614W        W73023  14.911   4.111  14.287
 6615W        W73024  44.202  32.931  13.032
 6616W        W73025  44.530  41.012  13.442
 6617W        W73026   4.341  10.120   4.749
 6618W        W73027  30.024  29.376  11.453
 6619W        W73028  12.221  18.098   4.656
 6620W        W73029  35.899  34.068  11.953
 6621W        W73030   7.675  43.543  12.320
 6622W        W73031  11.823   7.275   2.648
 6623W        W73032   8.408  18.259   2.853
 6624W        W73033   6.521  28.442  14.842
 6625W        W73034  32.438   7.485   0.530
 6626W        W73035  32.294  10.407   2.218
 6627W        W73036  42.381   0.011   2.739
 6628W        W73037   3.172   5.418   1.363
 6629W        W73038  37.501   5.979  11.150
 6630W        W73039  11.721  20.025  11.389
 6631W        W73040  20.651  18.098   3.366
 6632W        W73041  13.636  20.685  11.256
 6633W        W73042  35.652   6.400   0.725
 6634W        W73043  11.374   3.157   4.020
 6635W        W73044   5.445   8.457   0.342
 6636W        W73045   2.473  12.794   0.311
 6637W        W73046  24.178  13.913   4.183
 6638W        W73047   6.683  26.869   1.345
 6639W        W73048  14.377  42.010  14.976
 6640W        W73049  43.550  21.224   2.236
 6641W        W73050  31.053  20.804   3.581
 6642W        W73051  27.962  15.148  13.758
 6643W        W73052  16.556  24.572   4.146
 6644W        W73053  20.178  24.125   2.915
 6645W        W73054  11.439  15.261   1.114
 6646W        W73055  44.427   8.781  13.998
 6647W        W73056  22.652  36.408  13.918
 6648W        W73057  21.030   0.402  12.158
 6649W        W73058  42.488  25.957   1.908
 6650W        W73059  39.780   7.132  12.907
 6651W        W73060  33.244   8.364   1.576
 6652W        W73061  39.624  27.333   0.268
 6653W        W73062  34.880  40.254   3.274
 6654W        W73063  14.907  26.529   4.564
 6655W        W73064  10.511  16.133   4.310
 6656W        W73065  31.111   3.308   1.500
 6657W        W73066  31.470   6.604  12.158
 6658W        W73067  15.654   4.608  10.329
 6659W        W73068   9.681  33.928  12.214
 6660W        W73069   6.925   2.370   2.134
 6661W        W73070  41.422   6.385   3.390
 6662W        W73071  43.416  21.569   0.508
 6663W        W73072  33.316  30.595   0.523
 6664W        W73073  31.693   5.810  11.026
 6665W        W73074  42.080  41.942  12.081
 6666W        W73075   2.517   5.574  11.300
 6667W        W73076  14.357  44.043   0.803
 6668W        W73077  27.955  17.221  10.746
 6669W        W73078  37.826  34.599  11.934
 6670W        W73079   9.407  14.921  13.917
 6671W        W73080  40.073  17.908  14.928
 6672W        W73081  21.885  34.121   3.822
 6673W        W73082  35.971  13.952   0.309
 6674W        W73083   0.251  39.477  14.760
 6675W        W73084  33.674  25.505  13.443
 6676W        W73085  19.313   2.994   4.638
 6677W        W73086   3.372  35.970   3.853
 6678W        W73087  15.672  27.949   0.643
 6679W        W73088  10.746  33.228   2.194
 6680W        W73089  24.449  36.004   3.865
 6681W        W73090  11.259  40.708   1.125
 6682W        W73091  26.951  26.761   0.881
 6683W        W73092   3.165  42.210   2.356
 6684W        W73093  30.059  31.980  14.526
 6685W        W73094   0.774  42.592  13.049
 6686W        W73095  28.420  13.915  13.568
 6687W        W73096  35.974  15.144   3.655
 6688W        W73097  35.426  20.235   0.756
 6689W        W73098  15.168   4.596   4.009
 6690W        W73099  13.550  30.500   2.179
 6691W        W73100   6.190  40.333   1.580
 6692W        W73101  40.116  35.068   1.218
 6693W        W73102  25.123  38.317  11.607
 6694W        W73103  19.793   7.681  13.991
 6695W        W73104   4.568  44.839  11.239
 6696W        W73105  22.855  25.224  10.257
 6697W        W73106  37.342  28.534   2.265
 6698W        W73107  42.900  19.181   2.405
 6699W        W73108   3.299   3.138   3.775
 6700W        W73109  15.106  11.599  12.955
 6701W        W73110  14.132  32.395  13.798
 6702W        W73111  23.523  41.967   2.833
 6703W        W73112   1.888   2.798  11.257
 6704W        W73113  27.403  13.851   3.618
 6705W        W73114  19.294  29.440  14.933
 6706W        W73115  41.897   8.179   5.218
 6707W        W73116  33.579  20.957   4.133
 6708W        W73117  36.329  29.184  14.481
 6709W        W73118  14.320   5.843   3.790
 6710W        W73119  24.694  24.153  14.455
 6711W        W73120  18.821   5.523  13.437
 6712W        W73121  16.028  17.117  12.456
 6713W        W73122  40.471  15.542  11.433
 6714W        W73123  42.752   2.672  12.080
 6715W        W73124  19.265   5.000   0.070
 6716W        W73125  31.517   6.843   3.803
 6717W        W73126  27.797  25.636   4.288
 6718W        W73127  26.611   0.450  10.619
 6719W        W73128   8.646  24.320   0.815
 6720W        W73129  16.916   4.510   2.901
 6721W        W73130   0.241  17.986   0.702
 6722W        W73131  29.756  40.825  11.951
 6723W        W73132  16.990  38.970  11.532
 6724W        W73133  35.901   7.589  12.143
 6725W        W73134  20.124  13.415  13.358
 6726W        W73135  34.960  40.929   2.775
 6727W        W73136  32.958  40.053  13.539
 6728W        W73137  32.189   4.243   2.269
 6729W        W73138   5.511  20.460  11.230
 6730W        W73139  43.237  15.225   0.035
 6731W        W73140  20.260  44.730   3.677
 6732W        W73141   9.170  20.563   2.862
 6733W        W73142  41.989  24.116   2.005
 6734W        W73143  32.095  19.856   3.711
 6735W        W73144  42.806   9.315   2.428
 6736W        W73145   5.943  18.792   4.960
 6737W        W73146  25.645  34.553   3.132
 6738W        W73147  39.408   6.416  14.866
 6739W        W73148  10.101  28.763  12.877
 6740W        W73149  10.209   3.696   2.270
 6741W        W73150  37.553  20.683   1.718
 6742W        W73151  18.734  40.472  14.263
 6743W        W73152  19.214  40.062  14.400
 6744W        W73153  38.842   9.527  10.342
 6745W        W73154  34.491  20.102   4.192
 6746W        W73155  37.068   4.831  10.006
 6747W        W73156  31.506  35.556  12.755
 6748W        W73157   5.647  30.004   3.613
 6749W        W73158  40.492  15.627   3.630
 6750W        W73159  36.342   4.721   1.411
 6751W        W73160  15.395  29.009  11.622
 6752W        W73161  11.708  41.875  13.796
 6753W        W73162  22.945  22.591  14.851
 6754W        W73163   8.677  34.405   2.755
 6755W        W73164  40.814  27.906  10.247
 6756W        W73165  25.964  10.179  14.059
 6757W        W73166  37.597  42.977  14.682
 6758W        W73167  19.022  16.844   1.177
 6759W        W73168   9.613  36.229  12.129
 6760W        W73169  10.828  14.191   2.929
 6761W        W73170  24.131  43.289  13.809
 6762W        W73171  38.400   1.417   3.271
 6763W        W73172   3.195  35.916   4.839
 6764W        W73173  12.172  16.571  14.829
 6765W        W73174  29.965  11.689   1.285
 6766W        W73175  31.135  43.927  14.770
 6767W        W73176  23.183  35.279  14.472
 6768W        W73177  43.194   7.956   2.827
 6769W        W73178  20.043  31.101  13.966
 6770W        W73179  35.900   9.449   4.559
 6771W        W73180  39.607  14.860  10.700
 6772W        W73181  22.097  44.814   1.165
 6773W        W73182  12.403   9.911   1.723
 6774W        W73183  27.600  10.646   1.345
 6775W        W73184  41.871   9.380   1.848
 6776W        W73185  17.562  30.864  12.547
 6777W        W73186  23.482  15.638  10.897
 6778W        W73187  27.457  12.615   0.333
 6779W        W73188   1.869  37.563   4.621
 6780W        W73189  42.039  38.053  14.396
 6781W        W73190  42.998  44.378   0.036
 6782W        W73191  13.521   2.776   3.758
 6783W        W73192  31.623  36.822  12.464
 6784W        W73193  20.525  28.552  11.217
 6785W        W73194  21.308  42.982  14.816
 6786W        W73195  12.876  17.252  13.319
 6787W        W73196  32.351   9.367  11.999
 6788W        W73197   2.641   6.681   2.951
 6789W        W73198  22.388  21.555   9.759
 6790W        W73199  36.861  16.121  14.797
 6791W        W73200  27.463  35.886  11.669
 6792W        W73201  30.210   6.011  14.914
 6793W        W73202  23.509  30.519   0.322
 6794W        W73203   5.449  20.657   1.287
 6795W        W73204  18.984   6.931   0.335
 6796W        W73205   9.661   1.034   3.678
 6797W        W73206  22.102  35.036   2.874
 6798W        W73207  27.903  16.810   2.825
 6799W        W73208  16.328  32.159   0.256
 6800W        W73209   8.819  20.235   1.402
 6801W        W73210   9.389  22.302   4.042
 6802W        W73211  42.042  15.107   2.707
 6803W        W73212  38.840  24.187   4.552
 6804W        W73213   8.435   6.293  12.009
 6805W        W73214  18.569  43.393   0.958
 6806W        W73215  13.757  24.627   3.683
 6807W        W73216  16.716  14.365   2.424
 6808W        W73217  37.580  43.579   2.108
 6809W        W73218  27.172  25.348   2.232
 6810W        W73219  37.823  13.818   2.203
 6811W        W73220  40.353  20.724  12.961
 6812W        W73221  28.190   1.027  11.357
 6813W        W73222  14.108  43.792   4.678
 6814W        W73223   9.093  44.838  10.734
 6815W        W73224  18.612  18.246  10.906
 6816W        W73225  11.718  16.672   0.877
 6817W        W73226  15.630   4.312   0.979
 6818W        W73227  19.271  30.149   0.942
 6819W        W73228   0.196  38.992   0.007
 6820W        W73229   6.159  21.104   5.028
 6821W        W73230  22.221  39.771   3.175
 6822W        W73231  14.205  41.298  14.315
 6823W        W73232  37.827  44.889   2.577
 6824W        W73233  10.648   5.676   0.444
 6825W        W73234   1.359  20.697   1.466
 6826W        W73235  16.672  21.749  12.615
 6827W        W73236   9.730   1.306   3.221
 6828W        W73237  12.469  17.687  12.614
 6829W        W73238  16.029  28.407   3.277
 6830W        W73239  29.901   7.474  12.398
 6831W        W73240  42.518   7.675  13.007
 6832W        W73241   7.303  19.776  13.048
 6833W        W73242   0.362  35.311  11.160
 6834W        W73243  11.575  34.383  13.482
 6835W        W73244  30.524  25.525   0.687
 6836W        W73245  21.083   4.350   1.628
 6837W        W73246   1.934  10.140  13.437
 6838W        W73247  23.580  41.195   4.289
 6839W        W73248  21.486  41.846  12.496
 6840W        W73249  12.629   5.652  10.801
 6841W        W73250  17.062   7.417  11.652
 6842W        W73251  40.094   6.011  14.896
 6843W        W73252  17.690  40.881   3.562
 6844W        W73253  33.948  27.203  12.955
 6845W        W73254  23.032  16.627  14.460
 6846W        W73255  10.756   9.330   1.972
 6847W        W73256  25.530  34.480  12.593
 6848W        W73257  33.986   2.418   1.241
 6849W        W73258   9.784  21.202  14.441
 6850W        W73259   3.821  17.817   2.696
 6851W        W73260  37.354  27.699  10.083
 6852W        W73261  23.657  24.913  13.065
 6853W        W73262   2.937   2.414  10.809
 6854W        W73263  19.162  18.541  13.066
 6855W        W73264   3.990  39.784  11.554
 6856W        W73265  13.861  29.672  11.472
 6857W        W73266  28.504  33.941   1.848
 6858W        W73267  41.864  18.425  13.068
 6859W        W73268   1.940  18.248   2.347
 6860W        W73269  13.167  30.884  13.409
 6861W        W73270  36.006  32.562  13.476
 6862W        W73271  32.058  25.721  11.562
 6863W        W73272  22.130  33.412   5.037
 6864W        W73273   1.236   9.620  10.583
 6865W        W73274  44.881  42.062   4.686
 6866W        W73275  31.556   6.942  12.583
 6867W        W73276   1.759  18.726   1.201
 6868W        W73277  43.120  10.283   3.777
 6869W        W73278   1.905   3.935  13.862
 6870W        W73279  21.045  37.280   2.416
 6871W        W73280  18.294  39.582   1.384
 6872W        W73281  13.312  20.573   2.928
 6873W        W73282   4.353  28.436   3.340
 6874W        W73283  40.027   1.636  12.988
 6875W        W73284  10.194  44.677   1.763
 6876W        W73285  15.260   7.299   4.573
 6877W        W73286  20.051  41.537  11.783
 6878W        W73287  36.784  28.175  11.003
 6879W        W73288  38.074  30.957   1.151
 6880W        W73289  18.564  20.310  10.911
 6881W        W73290   5.010  43.988   4.096
 6882W        W73291  14.396  11.187   1.401
 6883W        W73292  17.229  15.471   2.116
 6884W        W73293  27.911  21.188  10.750
 6885W        W73294  22.694  14.541   0.960
 6886W        W73295  41.757   4.861   4.187
 6887W        W73296   1.906   9.755  12.145
 6888W        W73297  15.653  41.289  12.623
 6889W        W73298   8.186   3.004   1.215
 6890W        W73299  34.152  12.270  13.241
 6891W        W73300  14.869   0.603  13.330
 6892W        W73301  26.865  30.046   1.498
 6893W        W73302   9.210   7.827   3.696
 6894W        W73303  39.546  26.226   0.901
 6895W        W73304  19.226  24.151   4.586
 6896W        W73305  15.776  25.817  10.704
 6897W        W73306   8.120   0.579  10.238
 6898W        W73307   8.950   0.740   4.229
 6899W        W73308  33.802  28.834  11.432
 6900W        W73309  33.483   8.572  11.066
 6901W        W73310  31.963  13.633   1.366
 6902W        W73311   4.515  21.209   1.843
 6903W        W73312   7.033  23.088   1.739
 6904W        W73313  21.208  28.648   2.423
 6905W        W73314  27.214  37.106   3.431
 6906W        W73315  43.223   1.973   4.490
 6907W        W73316   4.914  42.297  11.481
 6908W        W73317  26.283  32.393   1.394
 6909W        W73318   9.811  43.667   4.192
 6910W        W73319   1.024   6.392  12.155
 6911W        W73320  40.524  34.181   2.914
 6912W        W73321  35.333  12.281   4.497
 6913W        W73322  41.455   6.973  11.697
 6914W        W73323   6.055  24.946  13.157
 6915W        W73324  33.548  28.433  11.610
 6916W        W73325  26.051   8.807  11.775
 6917W        W73326  12.310   5.636   0.712
 6918W        W73327  43.402  13.311   5.166
 6919W        W73328   3.906   6.645   2.836
 6920W        W73329  22.400  38.915  13.853
 6921W        W73330  17.584  18.643   1.863
 6922W        W73331  26.010  28.759  12.997
 6923W        W73332  20.621  26.655   4.455
 6924W        W73333  32.857   3.398  11.675
 6925W        W73334  30.316  16.794   4.825
 6926W        W73335  38.756   5.732  14.518
 6927W        W73336  23.030  24.980  13.300
 6928W        W73337  28.724  26.144   1.450
 6929W        W73338  21.963  19.284   2.714
 6930W        W73339  12.776  43.798   1.700
 6931W        W73340  44.291  11.606  14.098
 6932W        W73341  14.628  19.123  10.955
 6933W        W73342  28.061  10.763  12.911
 6934W        W73343   6.567   8.175  10.612
 6935W        W73344  43.981  21.710  11.627
 6936W        W73345  12.687  31.947  12.338
 6937W        W73346  18.601   7.809   4.934
 6938W        W73347   7.619  32.320  13.779
 6939W        W73348  39.391  44.425   4.132
 6940W        W73349  12.124   9.598  12.090
 6941W        W73350  42.255  37.319  11.906
 6942W        W73351   9.243  18.083   5.120
 6943W        W73352  12.300  26.102  12.523
 6944W        W73353  37.377   8.872   0.982
 6945W        W73354  43.940  33.106  12.059
 6946W        W73355  16.077   9.337   2.715
 6947W        W73356  32.367  25.077  13.510
 6948W        W73357  24.484   8.029   2.221
 6949W        W73358  27.855  35.068   0.253
 6950W        W73359  41.794   1.616   0.254
 6951W        W73360  41.051  30.969   3.830
 6952W        W73361  26.807  21.590  11.540
 6953W        W73362  40.534  33.245  10.240
 6954W        W73363  12.083  13.063   0.969
 6955W        W73364  27.701  42.046  13.525
 6956W        W73365  31.480  28.008   1.739
 6957W        W73366  40.470  41.482   0.812
 6958W        W73367  13.664   0.475  13.803
 6959W        W73368   4.038   6.146   3.673
 6960W        W73369  33.412  25.185   5.154
 6961W        W73370   6.660  32.607  11.220
 6962W        W73371  43.911  21.079  13.475
 6963W        W73372  18.201   5.859  11.938
 6964W        W73373  40.931  30.695   1.378
 6965W        W73374   8.201  30.625  11.245
 6966W        W73375  28.914  25.905   0.218
 6967W        W73376  43.763  14.097  11.078
 6968W        W73377   9.637  35.466   1.413
 6969W        W73378  42.859  33.066  10.720
 6970W        W73379  22.604  23.495   4.166
 6971W        W73380  10.549  15.003  14.446
 6972W        W73381  21.824  26.516   1.867
 6973W        W73382  34.458   7.634  11.011
 6974W        W73383  17.496  18.428  10.530
 6975W        W73384   6.151   2.445  13.844
 6976W        W73385  40.044   1.411   4.141
 6977W        W73386  14.732  16.276   0.549
 6978W        W73387   6.485  31.741  11.980
 6979W        W73388  32.067  35.942   4.217
 6980W        W73389   8.710   0.950   5.409
 6981W        W73390  28.535  37.124  13.909
 6982W        W73391  31.420  11.197   2.182
 6983W        W73392  15.135   9.932   4.152
 6984W        W73393  18.174  20.861  14.629
 6985W        W73394   0.747  32.095   2.722
 6986W        W73395  11.415   7.684   4.165
 6987W        W73396  21.568  44.447   4.793
 6988W        W73397  11.692   4.906   4.078
 6989W        W73398  23.989  41.340   2.319
 6990W        W73399  15.261  40.881  10.578
 6991W        W73400  20.194   6.492   5.034
 6992W        W73401  40.704  34.405  14.906
 6993W        W73402  24.423   6.140   4.090
 6994W        W73403  34.493  41.518   1.450
 6995W        W73404  31.585  13.658  13.245
 6996W        W73405  30.732  17.869  10.184
 6997W        W73406  39.071  38.508  14.781
 6998W        W73407  43.556   1.854  10.575
 6999W        W73408  34.215   7.623  12.283
 7000W        W73409  37.882  36.800  12.652
 7001W        W73410   8.333  38.339   3.255
 7002W        W73411   5.900  43.785   4.026
 7003W        W73412  26.392  44.099  14.729
 7004W        W73413   6.448  32.738   0.371
 7005W        W73414  31.302  26.266   2.772
 7006W        W73415  11.793   2.099   2.638
 7007W        W73416  36.795   9.387   4.673
 7008W        W73417  26.019  35.720   4.939
 7009W        W73418  44.462  24.993   3.767
 7010W        W73419  41.480  42.379   3.369
 7011W        W73420  12.766  22.999   0.272
 7012W        W73421   3.052  37.303  10.138
 7013W        W73422  36.502  25.071   2.582
 7014W        W73423  31.886  29.690  13.859
 7015W        W73424  25.089  15.011   2.399
 7016W        W73425  44.986  16.166   1.383
 7017W        W73426  35.805  21.927  14.770
 7018W        W73427  43.951  20.120  10.862
 7019W        W73428   0.453  38.457  11.894
 7020W        W73429  10.348  24.541  11.491
 7021W        W73430  13.069  40.323  13.301
 7022W        W73431  36.162  30.491  11.995
 7023W        W73432  27.036  31.919   3.910
 7024W        W73433  29.729   4.816  14.894
 7025W        W73434  17.366  40.260  10.980
 7026W        W73435  23.126  30.616  10.706
 7027W        W73436  14.250  24.531  14.544
 7028W        W73437  15.248  15.284   2.969
 7029W        W73438  14.997   0.597   2.235
 7030W        W73439  31.795   8.247   2.609
 7031W        W73440  36.939   3.983   3.010
 7032W        W73441  33.929   9.886   3.414
 7033W        W73442  25.976  29.178  14.419
 7034W        W73443   5.126  23.576  13.318
 7035W        W73444  40.804  28.280  13.908
 7036W        W73445  30.019  43.446   0.422
 7037W        W73446  27.364   2.510  13.318
 7038W        W73447  44.861  39.050   4.641
 7039W        W73448  27.925  18.828  13.141
 7040W        W73449   9.382  25.643  11.955
 7041W        W73450  17.845  21.890  11.173
 7042W        W73451  40.338   9.548   3.567
 7043W        W73452  43.864  22.817   2.824
 7044W        W73453  19.960   3.765   1.736
 7045W        W73454  36.684  26.262   2.183
 7046W        W73455  33.552  37.907  14.972
 7047W        W73456  34.440  15.582   0.819
 7048W        W73457  44.823  28.673   1.497
 7049W        W73458  42.871  28.197  12.487
 7050W        W73459  30.163  15.702  12.377
 7051W        W73460  25.340  21.476  11.669
 7052W        W73461  28.522  29.747   1.427
 7053W        W73462  36.095  14.248   2.261
 7054W        W73463  11.761  22.775  14.836
 7055W        W73464  21.628  43.324  10.716
 7056W        W73465  36.633  30.415   4.594
 7057W        W73466   1.802  41.958   2.091
 7058W        W73467  40.121  34.519   4.352
 7059W        W73468  25.400   7.400  13.511
 7060W        W73469  39.503  29.064  11.451
 7061W        W73470  21.571  39.149  14.008
 7062W        W73471   7.102  26.611   1.494
 7063W        W73472  38.021  24.529   1.724
 7064W        W73473  28.542  29.058  13.321
 7065W        W73474   5.607   9.853  13.478
 7066W        W73475  18.769  13.054  10.755
 7067W        W73476   3.299  12.098   0.497
 7068W        W73477  35.247   8.696   9.686
 7069W        W73478  40.670  37.158   1.012
 7070W        W73479  18.997  25.927  13.603
 7071W        W73480  30.107  44.292  10.909
 7072W        W73481  26.978  38.832  12.407
 7073W        W73482   1.472  26.516   0.750
 7074W        W73483  11.666  41.534   4.617
 7075W        W73484  30.029  24.499  12.476
 7076W        W73485  26.916  24.477  12.482
 7077W        W73486   1.513  34.685   3.745
 7078W        W73487  40.348  44.018  13.670
 7079W        W73488  22.393  29.635  12.186
 7080W        W73489  11.459  13.608   1.260
 7081W        W73490   3.846  44.981  10.760
 7082W        W73491  21.891  15.273   0.734
 7083W        W73492  42.471  40.521  11.483
 7084W        W73493  31.819  25.780   1.839
 7085W        W73494  20.184  26.659  12.070
 7086W        W73495  12.734  36.727   5.021
 7087W        W73496   9.748  19.910  11.124
 7088W        W73497   3.437  34.920  12.881
 7089W        W73498  28.585   9.790   1.383
 7090W        W73499   3.453   8.894   0.379
 7091W        W73500   4.852  16.711   2.720
 7092W        W73501  30.757  28.441   1.102
 7093W        W73502  12.778  42.396  11.461
 7094W        W73503  27.893  44.715  12.923
 7095W        W73504  38.424  43.426   2.680
 7096W        W73505  43.657  41.954  10.862
 7097W        W73506   2.986   0.554  10.618
 7098W        W73507   1.878  27.589   2.276
 7099W        W73508   9.625  19.505  14.707
 7100W        W73509   2.735  17.343  13.807
 7101W        W73510   7.417  34.502   1.767
 7102W        W73511  41.773  18.593   3.029
 7103W        W73512  14.364  40.354  14.029
 7104W        W73513   7.240   7.684   1.168
 7105W        W73514  40.596  12.713  12.935
 7106W        W73515  34.518  20.593   0.512
 7107W        W73516   1.848   7.672   3.251
 7108W        W73517  32.829   0.439   5.247
 7109W        W73518  23.665  17.442  11.187
 7110W        W73519  15.992  38.257  10.645
 7111W        W73520  11.661  31.067   0.748
 7112W        W73521  10.885  11.205  13.594
 7113W        W73522  10.264   0.774  14.427
 7114W        W73523  25.607  22.614   2.560
 7115W        W73524  38.686  33.489   3.612
 7116W        W73525   4.217   2.813   1.337
 7117W        W73526  28.952  40.796  10.484
 7118W        W73527  30.543  13.329   4.661
 7119W        W73528  17.323  17.819   3.648
 7120W        W73529  33.459   4.504   1.768
 7121W        W73530  20.714  39.738   2.746
 7122W        W73531  41.430  31.866   4.719
 7123W        W73532   0.918  24.926   0.405
 7124W        W73533  38.909   6.229   3.050
 7125W        W73534   2.375  29.945   1.000
 7126W        W73535   0.866  39.765   2.342
 7127W        W73536   7.918  17.781   0.703
 7128W        W73537  27.251   3.517  11.683
 7129W        W73538   8.772  12.914   2.891
 7130W        W73539   6.307  28.281  10.648
 7131W        W73540   3.456  42.003  14.191
 7132W        W73541  41.346   2.752  12.056
 7133W        W73542  11.365   1.781  14.588
 7134W        W73543  11.197  44.291   4.563
 7135W        W73544  42.304  36.498  13.675
 7136W        W73545  29.189  18.586   2.192
 7137W        W73546   8.326  30.441  13.741
 7138W        W73547  16.680  37.117  13.299
 7139W        W73548  15.584  12.113  12.053
 7140W        W73549  12.880   6.535   1.226
 7141W        W73550  26.025  18.674   3.095
 7142W        W73551  11.704  24.142   4.570
 7143W        W73552  23.494  43.297  11.670
 7144W        W73553  39.223  11.900  12.502
 7145W        W73554  24.055  12.087   0.428
 7146W        W73555  33.164  38.431   1.881
 7147W        W73556  31.660  23.063  13.049
 7148W        W73557  17.754   1.507  13.893
 7149W        W73558   4.889  12.288  14.359
 7150W        W73559  30.591  11.435  14.246
 7151W        W73560  19.127  19.134   0.563
 7152W        W73561  17.401  31.365   3.150
 7153W        W73562  14.876  23.143   0.002
 7154W        W73563  42.096  39.409   0.371
 7155W        W73564  27.059  12.680  11.929
 7156W        W73565  20.558  27.508   2.893
 7157W        W73566  35.608   7.219   2.914
 7158W        W73567  21.734  35.758   3.773
 7159W        W73568  14.184   8.449  11.610
 7160W        W73569   8.130  17.316   3.810
 7161W        W73570  29.007  42.357  13.370
 7162W        W73571  44.360  41.443   2.449
 7163W        W73572  32.868   9.592  14.761
 7164W        W73573  22.996  27.959   3.124
 7165W        W73574   6.618  13.881  13.465
 7166W        W73575  34.794  26.279   0.990
 7167W        W73576  43.146   9.398  14.718
 7168W        W73577  18.685   6.835   1.290
 7169W        W73578  44.417  15.280   1.624
 7170W        W73579  23.590  25.779   2.865
 7171W        W73580  14.679   6.336   3.920
 7172W        W73581  19.347  42.569  13.379
 7173W        W73582  31.016   8.739   4.652
 7174W        W73583  20.060  21.057  13.500
 7175W        W73584  13.266  42.986  10.118
 7176W        W73585  12.354  28.052   2.666
 7177W        W73586  26.719  42.913   3.132
 7178W        W73587   9.152  33.672  13.909
 7179W        W73588  29.209  44.175   1.507
 7180W        W73589  44.504   0.970  12.541
 7181W        W73590  36.992  24.679  12.883
 7182W        W73591  21.229  10.882   4.198
 7183W        W73592  42.907   1.693  11.966
 7184W        W73593   6.826  16.021  14.549
 7185W        W73594  14.569  11.529  11.166
 7186W        W73595  20.121  19.196  13.456
 7187W        W73596  19.095   9.079   2.974
 7188W        W73597   9.165  33.164  14.360
 7189W        W73598  43.527   9.489   4.303
 7190W        W73599  18.812   6.956  13.508
 7191W        W73600  18.724   1.406   2.156
 7192W        W73601  26.669  10.128  13.031
 7193W        W73602  25.655  26.999   0.677
 7194W        W73603  28.584  22.804   1.825
 7195W        W73604  18.571  19.342   3.142
 7196W        W73605  13.348  41.769  14.308
 7197W        W73606  36.366   2.367  14.398
 7198W        W73607  41.952  15.407  14.000
 7199W        W73608  41.708  27.144   2.267
 7200W        W73609  30.463   9.082  11.577
 7201W        W73610  40.343   9.264   5.030
 7202W        W73611  23.969   0.299  12.379
 7203W        W73612  13.353  23.635   0.859
 7204W        W73613   5.004  35.081   1.206
 7205W        W73614  36.327  16.951  10.293
 7206W        W73615  37.237  15.740  14.756
 7207W        W73616  36.679  12.663   1.704
 7208W        W73617  20.625  21.485   2.308
 7209W        W73618  35.712  12.781  14.835
 7210W        W73619  26.725  19.267  12.014
 7211W        W73620  30.087  26.822   0.828
 7212W        W73621  31.612  31.177  10.646
 7213W        W73622   1.833  44.042   0.240
 7214W        W73623   6.739   9.308  13.385
 7215W        W73624  41.866   5.744   0.687
 7216W        W73625   1.870   9.298  11.944
 7217W        W73626  33.443  20.198   3.062
 7218W        W73627  38.981   0.288   3.846
 7219W        W73628   7.922  30.032  13.178
 7220W        W73629  35.680  22.527  11.875
 7221W        W73630  20.046  19.683   4.629
 7222W        W73631   7.151  16.048   1.363
 7223W        W73632  29.564  13.327   1.269
 7224W        W73633  24.964   6.475   0.288
 7225W        W73634  10.409   7.265   3.548
 7226W        W73635  24.181  42.298  13.438
 7227W        W73636  33.370  15.387  11.954
 7228W        W73637  15.185   2.458  13.495
 7229W        W73638   4.181  35.399  12.041
 7230W        W73639  15.033  37.854   1.872
 7231W        W73640  22.794   9.284  13.932
 7232W        W73641  40.736  30.089   0.241
 7233W        W73642  11.426  38.252   4.296
 7234W        W73643  13.802  37.492  12.800
 7235W        W73644  40.362   2.812   4.376
 7236W        W73645  16.507  42.863   4.044
 7237W        W73646  22.705   7.386  10.872
 7238W        W73647  43.404  43.954   0.534
 7239W        W73648   6.241  24.977  13.904
 7240W        W73649  24.610  33.693   2.047
 7241W        W73650   6.138  20.691  11.914
 7242W        W73651  23.151  36.896   3.728
 7243W        W73652  38.283   6.120   4.119
 7244W        W73653  14.816   6.637  14.488
 7245W        W73654  33.198  23.248   4.794
 7246W        W73655  44.014  29.611  12.512
 7247W        W73656  15.783  11.185   2.884
 7248W        W73657   7.790  36.002   0.808
 7249W        W73658  37.325   9.411  12.952
 7250W        W73659  19.658  35.927  12.611
 7251W        W73660  15.696   1.850   1.046
 7252W        W73661  26.822  14.860   3.121
 7253W        W73662  19.769  35.725   1.725
 7254W        W73663   7.733  13.088  10.456
 7255W        W73664  10.687  11.386   2.450
 7256W        W73665   6.269   2.910  11.080
 7257W        W73666   8.286   6.453   4.336
 7258W        W73667  42.460  42.750   2.366
 7259W        W73668   3.860   7.955   0.710
 7260W        W73669   3.810  11.335  10.888
 7261W        W73670   0.522  20.265   3.632
 7262W        W73671  33.509  30.567   0.020
 7263W        W73672  27.524   8.233  13.311
 7264W        W73673   1.721   8.825  13.077
 7265W        W73674  17.342  35.982   3.193
 7266W        W73675   1.996  39.321   1.612
 7267W        W73676  44.362  38.160  12.493
 7268W        W73677  35.505  14.707  10.435
 7269W        W73678   5.988  26.189   4.055
 7270W        W73679  13.030  42.694  14.898
 7271W        W73680  36.043  42.595   3.135
 7272W        W73681  42.349  30.328  10.874
 7273W        W73682  13.626  23.657  12.879
 7274W        W73683  16.161   1.877   4.028
 7275W        W73684   9.783  38.890   1.026
 7276W        W73685  17.837  26.390  12.764
 7277W        W73686   4.581  19.193   1.043
 7278W        W73687  15.216   1.816  10.005
 7279W        W73688  19.244   1.376   2.279
 7280W        W73689  18.553  11.219   1.414
 7281W        W73690  16.275  32.305   1.222
 7282W        W73691  29.621   1.652  11.560
 7283W        W73692  26.328  29.589   3.954
 7284W        W73693   1.794  44.944  14.026
 7285W        W73694  21.062   8.962  14.460
 7286W        W73695  30.530  42.361   4.111
 7287W        W73696  12.914  32.657  13.031
 7288W        W73697   9.771  39.057  13.013
 7289W        W73698  30.005   9.594   2.653
 7290W        W73699  35.028  33.466   0.741
 7291W        W73700  18.589  31.640  13.933
 7292W        W73701   1.947  10.207  11.911
 7293W        W73702  25.970  24.635  12.393
 7294W        W73703  20.204  13.097   4.703
 7295W        W73704  25.484  17.004  11.018
 7296W        W73705  33.453  11.169   0.258
 7297W        W73706  10.376  15.954  13.036
 7298W        W73707  17.354  10.285   3.275
 7299W        W73708  34.453  26.453   3.808
 7300W        W73709  13.407  33.243  13.270
 7301W        W73710  28.043   4.745   0.285
 7302W        W73711  35.817  41.151  12.582
 7303W        W73712  39.347  26.191   4.305
 7304W        W73713  10.871  19.051   1.672
 7305W        W73714   9.407  28.372  13.265
 7306W        W73715  41.554   2.954  13.919
 7307W        W73716  38.781  31.068   4.132
 7308W        W73717  36.825   8.652  12.613
 7309W        W73718  13.897   0.548   2.870
 7310W        W73719  42.039  16.437  10.181
 7311W        W73720  36.703  38.519   2.676
 7312W        W73721  44.597  27.253   3.443
 7313W        W73722   4.466  28.525  11.422
 7314W        W73723  14.621  31.044  13.279
 7315W        W73724  29.116  22.940  13.365
 7316W        W73725   0.719  23.658  11.230
 7317W        W73726  43.905  21.162   4.538
 7318W        W73727  38.326   8.118  14.389
 7319W        W73728  32.452   1.018  10.266
 7320W        W73729  39.891  25.582  13.645
 7321W        W73730  41.251  40.856   2.409
 7322W        W73731  36.256  27.070   4.089
 7323W        W73732  12.592  18.675  12.524
 7324W        W73733  31.990  44.194   0.760
 7325W        W73734  10.752   3.793  10.695
 7326W        W73735   7.670  17.182  13.004
 7327W        W73736  26.626  13.462  13.067
 7328W        W73737  12.220  44.992  11.665
 7329W        W73738   2.723  14.170  13.602
 7330W        W73739   6.896  43.308  11.037
 7331W        W73740  41.490  35.547   1.258
 7332W        W73741  19.595   5.397  14.866
 7333W        W73742   5.465  36.019  13.010
 7334W        W73743  10.376  10.716  11.450
 7335W        W73744   7.253  19.258  11.856
 7336W        W73745  39.192  17.254   1.891
 7337W        W73746   9.398  16.225  12.172
 7338W        W73747  43.739  36.589   1.786
 7339W        W73748  40.514  22.211  12.024
 7340W        W73749  14.669  15.750   2.298
 7341W        W73750  14.970  19.657   5.357
 7342W        W73751  21.243  19.979   5.064
 7343W        W73752  13.166   6.418  11.118
 7344W        W73753  26.409  18.212   0.389
 7345W        W73754   2.117  38.372   0.621
 7346W        W73755  37.227  23.186  14.566
 7347W        W73756   0.962  21.607  13.091
 7348W        W73757   2.363  16.991  13.925
 7349W        W73758  43.446  27.677   0.973
 7350W        W73759  37.784  41.288   3.803
 7351W        W73760  23.658  42.233  13.565
 7352W        W73761   8.077  40.510   3.699
 7353W        W73762  44.007   4.342  12.062
 7354W        W73763  19.312  26.755  12.563
 7355W        W73764  36.327   0.906  12.489
 7356W        W73765   1.937  23.082   4.461
 7357W        W73766  36.146   2.278   2.340
 7358W        W73767   6.520   4.448   0.651
 7359W        W73768  17.916  42.495  13.431
 7360W        W73769   8.325  26.967  14.488
 7361W        W73770  14.237  28.844  10.699
 7362W        W73771  42.256  12.937   2.361
 7363W        W73772   3.450  10.690   4.030
 7364W        W73773  10.846  14.641  14.047
 7365W        W73774  29.930   4.158   0.614
 7366W        W73775  42.418   3.883   3.284
 7367W        W73776  40.113  33.547  11.616
 7368W        W73777  36.061   9.299  12.478
 7369W        W73778  36.034  30.479   2.167
 7370W        W73779  15.328  31.980   1.448
 7371W        W73780  33.087  14.147   4.594
 7372W        W73781   0.423   6.626  14.301
 7373W        W73782  14.130  16.165  11.883
 7374W        W73783  18.599   2.777   0.229
 7375W        W73784  20.050  25.987  10.685
 7376W        W73785  24.489  40.789  13.961
 7377W        W73786   1.523  36.559   1.906
 7378W        W73787  32.588  11.782  12.025
 7379W        W73788   8.646   2.688   3.752
 7380W        W73789   3.338  33.400   3.147
 7381W        W73790   1.712  37.935  10.972
 7382W        W73791  21.475  27.939  12.447
 7383W        W73792  24.870  38.903  13.995
 7384W        W73793  17.749   0.023   0.339
 7385W        W73794  19.715  44.230  12.967
 7386W        W73795  15.991   4.415   1.794
 7387W        W73796  37.963   0.886   0.995
 7388W        W73797  40.672   1.915   9.830
 7389W        W73798   3.546   4.916   1.613
 7390W        W73799  10.100  39.939   1.926
 7391W        W73800  14.696  37.391  11.214
 7392W        W73801  36.484  22.228  11.523
 7393W        W73802  12.367   2.898  13.963
 7394W        W73803  13.190  29.561   4.330
 7395W        W73804   1.310  17.033   2.159
 7396W        W73805   0.066   2.923   0.415
 7397W        W73806  15.799  36.855  13.321
 7398W        W73807  12.151  33.144  14.318
 7399W        W73808   9.609  44.033  11.076
 7400W        W73809  28.655  30.753   0.943
 7401W        W73810  33.015  17.297   1.770
 7402W        W73811  35.746   3.518  12.084
 7403W        W73812  14.690  43.264   0.889
 7404W        W73813  39.858  22.290  12.877
 7405W        W73814  26.574   1.323   3.711
 7406W        W73815  20.488   1.293   2.863
 7407W        W73816   1.574  28.102   0.377
 7408W        W73817  16.773  32.067  13.466
 7409W        W73818  26.470  42.544  11.434
 7410W        W73819   9.728  15.304   2.543
 7411W        W73820  27.174  36.395  13.136
 7412W        W73821  29.809   4.984   3.609
 7413W        W73822   3.780  20.069  14.013
 7414W        W73823   3.521  29.522   2.846
 7415W        W73824  38.826  35.162   3.653
 7416W        W73825   8.453  10.831  14.423
 7417W        W73826   2.208  18.855  11.021
 7418W        W73827  16.106  27.761  14.985
 7419W        W73828   9.830  34.569  10.729
 7420W        W73829  31.075  40.615  10.473
 7421W        W73830  11.467  35.435  12.040
 7422W        W73831  32.885  37.337   4.131
 7423W        W73832  11.304   6.943  13.398
 7424W        W73833   1.036   6.695   0.828
 7425W        W73834   0.521  34.359   2.644
 7426W        W73835   1.348   6.642   0.402
 7427W        W73836   4.228  20.770   3.272
 7428W        W73837   9.205  39.822   1.166
 7429W        W73838   6.533  14.189   0.904
 7430W        W73839   2.560  34.356   2.391
 7431W        W73840  10.832  13.147  13.576
 7432W        W73841  33.002  15.232  14.705
 7433W        W73842  36.396  40.513   4.043
 7434W        W73843  42.736  37.983  12.876
 7435W        W73844  43.951  14.852  10.679
 7436W        W73845   5.764  41.506   2.836
 7437W        W73846   1.632  42.765   0.428
 7438W        W73847   8.436  40.295  14.937
 7439W        W73848  33.809  12.126   2.286
 7440W        W73849   2.089  34.047   3.695
 7441W        W73850  43.528  39.485   3.770
 7442W        W73851  21.048  42.120  12.697
 7443W        W73852  18.418  28.412  13.568
 7444W        W73853   3.433  22.070   2.249
 7445W        W73854  34.022  35.859   4.657
 7446W        W73855   2.430  37.412  11.601
 7447W        W73856   2.239   8.350  12.142
 7448W        W73857   2.041  13.784  13.480
 7449W        W73858  44.109  27.474   2.546
 7450W        W73859  38.088  24.226  14.277
 7451W        W73860  11.060   6.017  13.437
 7452W        W73861  31.764  22.439   2.256
 7453W        W73862  15.358  20.378  10.749
 7454W        W73863  24.241  13.884   1.339
 7455W        W73864  29.520  20.985  14.735
 7456W        W73865  16.139  42.364   0.037
 7457W        W73866  19.537  25.131   4.692
 7458W        W73867  13.650   0.888  12.350
 7459W        W73868  38.207  34.348   0.461
 7460W        W73869  28.454  22.023  10.759
 7461W        W73870  37.898   2.008  11.397
 7462W        W73871  19.707  16.294   0.251
 7463W        W73872  38.321  25.152  12.016
 7464W        W73873  41.528  31.702  10.672
 7465W        W73874   1.028  42.799   3.372
 7466W        W73875   6.421  13.105   2.104
 7467W        W73876   3.753  26.068  13.622
 7468W        W73877   0.979   4.439  14.891
 7469W        W73878  15.113  31.605   4.500
 7470W        W73879   4.193  26.363  12.977
 7471W        W73880   6.338  42.675  13.937
 7472W        W73881  34.965   5.254   1.845
 7473W        W73882  10.142  36.147  13.985
 7474W        W73883  37.182  22.220  10.455
 7475W        W73884  24.626  22.749   1.424
 7476W        W73885  37.306  41.895   3.134
 7477W        W73886   6.529   9.580  12.010
 7478W        W73887   0.834  41.895  12.578
 7479W        W73888  36.936  30.599  13.660
 7480W        W73889  44.281  26.724  14.431
 7481W        W73890   7.780  19.861  14.858
 7482W        W73891  39.749  39.844  14.931
 7483W        W73892  22.164  32.211  11.607
 7484W        W73893  26.547  25.429   4.654
 7485W        W73894  43.872  35.959   1.286
 7486W        W73895  29.235  41.988   3.683
 7487W        W73896  15.857  16.337   2.399
 7488W        W73897   6.964  38.288  14.076
 7489W        W73898  32.461  15.879  12.786
 7490W        W73899  30.566  30.324  14.888
 7491W        W73900  27.362  33.594   2.612
 7492W        W73901   1.241  10.381   0.988
 7493W        W73902  40.914   0.604  10.677
 7494W        W73903  29.933  30.063  13.589
 7495W        W73904  29.887  14.871  14.311
 7496W        W73905  26.676  32.516   0.356
 7497W        W73906   7.720  42.017  14.360
 7498W        W73907  37.329  34.941  13.539
 7499W        W73908  17.668   4.415  11.435
 7500W        W73909  37.896   7.917  11.631
 7501W        W73910  19.567  40.815   0.376
 7502W        W73911  42.333  31.881  14.444
 7503W        W73912   0.747  41.283   2.258
 7504W        W73913   5.697   6.162  14.465
 7505W        W73914  10.887  19.538  11.638
 7506W        W73915   5.870  34.561   0.990
 7507W        W73916  40.792  19.652  12.201
 7508W        W73917  32.998  20.656  11.686
 7509W        W73918  11.866  25.498  14.612
 7510W        W73919  12.586  22.331   0.984
 7511W        W73920  41.581  13.899  12.462
 7512W        W73921  39.468  27.505  13.931
 7513W        W73922  37.561  15.654   0.240
 7514W        W73923  40.326  30.633  13.538
 7515W        W73924  17.870  14.834   3.363
 7516W        W73925  35.490  44.490   0.445
 7517W        W73926  12.651  35.492   9.832
 7518W        W73927  21.356   6.316   1.755
 7519W        W73928  18.092  10.386  12.599
 7520W        W73929  21.836   2.399   1.766
 7521W        W73930  32.044  16.173   4.675
 7522W        W73931  11.175  41.954  11.601
 7523W        W73932  18.690  11.362   0.194
 7524W        W73933  16.094  42.485  10.635
 7525W        W73934  33.842  22.717   3.314
 7526W        W73935  29.894   5.379  12.113
 7527W        W73936  20.279  43.913   0.900
 7528W        W73937  15.684   7.151   4.286
 7529W        W73938  15.098   8.642   0.483
 7530W        W73939  35.203  32.130   4.513
 7531W        W73940  14.125  40.373   0.385
 7532W        W73941   9.263   4.724  11.245
 7533W        W73942  39.807  41.712   3.161
 7534W        W73943  15.390  27.181  13.497
 7535W        W73944  14.440  26.093  11.499
 7536W        W73945  34.876  18.277   1.457
 7537W        W73946  44.063  44.434  13.968
 7538W        W73947  29.653  13.520   3.261
 7539W        W73948   0.487   9.581  10.331
 7540W        W73949  16.597  25.510  11.802
 7541W        W73950  44.416  33.106   4.098
 7542W        W73951  13.377   4.307   1.469
 7543W        W73952  22.306  12.283   4.107
 7544W        W73953  29.205  43.299   1.264
 7545W        W73954  24.051  24.951   4.136
 7546W        W73955  33.583  36.370  12.243
 7547W        W73956  30.181  34.613  12.461
 7548W        W73957  41.914  37.664   3.993
 7549W        W73958  26.661  12.891  11.681
 7550W        W73959  43.556  12.546  12.229
 7551W        W73960   3.920   7.183   4.555
 7552W        W73961  26.065  11.649   1.708
 7553W        W73962  29.136  17.227  12.435
 7554W        W73963  14.086   3.773  11.472
 7555W        W73964  33.962  35.593   3.201
 7556W        W73965  32.919  13.707  10.757
 7557W        W73966  42.750  16.944   3.652
 7558W        W73967  33.923  21.068   3.190
 7559W        W73968  24.657  27.307  13.709
 7560W        W73969  30.202  36.515  13.719
 7561W        W73970  19.211  40.906  11.662
 7562W        W73971  33.042  26.550  11.199
 7563W        W73972  23.135  13.843  11.784
 7564W        W73973   0.447  12.291  14.737
 7565W        W73974  41.550  20.472  12.538
 7566W        W73975  24.967   2.511  14.869
 7567W        W73976  44.486   3.255   4.762
 7568W        W73977  33.363  17.978   1.897
 7569W        W73978   9.897   3.469   2.833
 7570W        W73979   8.340  40.367  12.483
 7571W        W73980  15.532  28.148  13.415
 7572W        W73981   8.744  15.639  13.525
 7573W        W73982   6.020  10.985  11.472
 7574W        W73983   5.497  13.068  13.384
 7575W        W73984   2.209  20.764   4.191
 7576W        W73985  12.710  43.417  12.348
 7577W        W73986  25.266   5.479  10.938
 7578W        W73987  14.780  12.677   3.282
 7579W        W73988   4.282   6.509  11.954
 7580W        W73989  36.823  18.712  12.711
 7581W        W73990  11.727  32.325  10.777
 7582W        W73991  25.653  33.844  13.271
 7583W        W73992  15.054  38.251   2.200
 7584W        W73993  20.906  33.131  13.766
 7585W        W73994   5.706  34.010   1.857
 7586W        W73995  16.218  14.378  14.031
 7587W        W73996   1.992  18.623  10.621
 7588W        W73997  13.232  13.185  12.133
 7589W        W73998  23.588  11.453   3.780
 7590W        W73999  31.176  33.877   0.002
 7591W        W74000  38.346  10.233   2.235
 7592W        W74001   0.352  16.139   2.912
 7593W        W74002  28.554  24.678   2.997
 7594W        W74003  42.839  25.924  12.245
 7595W        W74004   1.951  25.890   3.308
 7596W        W74005  19.326  20.185   2.230
 7597W        W74006  28.053  11.575  13.497
 7598W        W74007  37.421  16.196   0.957
 7599W        W74008  30.691  14.607  13.652
 7600W        W74009   4.048  31.906   2.819
 7601W        W74010  37.029  14.273   1.615
 7602W        W74011  35.857  32.195   1.812
 7603W        W74012   1.320  11.385   1.876
 7604W        W74013  12.313  22.993  14.943
 7605W        W74014  28.907   9.367   1.344
 7606W        W74015  29.436   3.751  10.433
 7607W        W74016  20.263  37.437   4.614
 7608W        W74017  43.641  16.580  13.806
 7609W        W74018   7.936   1.768  10.444
 7610W        W74019  31.602  27.825  11.102
 7611W        W74020  25.741  25.050  13.369
 7612W        W74021  34.078  18.529  10.746
 7613W        W74022  19.615  30.340   2.304
 7614W        W74023   8.921  16.280   3.214
 7615W        W74024  27.664  43.293   0.377
 7616W        W74025  19.036  27.829   0.674
 7617W        W74026   0.217  39.553  12.142
 7618W        W74027  21.133  37.477  14.651
 7619W        W74028   9.101  15.018   1.259
 7620W        W74029  27.420  11.786   2.229
 7621W        W74030  21.216  28.011   3.670
 7622W        W74031  40.999  33.349   2.284
 7623W        W74032  34.288  24.971   0.778
 7624W        W74033  25.098  24.132   2.609
 7625W        W74034  33.806  42.742  13.067
 7626W        W74035   4.959  15.576   0.429
 7627W        W74036  40.815   2.886  14.697
 7628W        W74037  36.228   4.452   4.258
 7629W        W74038  29.484   6.410  11.198
 7630W        W74039  36.071   3.064   4.767
 7631W        W74040  43.289  18.528  13.105
 7632W        W74041  31.167  26.004   0.909
 7633W        W74042  13.160  43.810  13.955
 7634W        W74043   2.998  25.075   3.171
 7635W        W74044  41.782  27.695  11.195
 7636W        W74045  23.735  37.884  12.122
 7637W        W74046  35.908   5.354   4.083
 7638W        W74047  32.637  23.244  11.404
 7639W        W74048  12.635  31.925   1.347
 7640W        W74049  10.357  43.812   4.573
 7641W        W74050  37.602  15.680   0.782
 7642W        W74051  30.569  16.315   4.675
 7643W        W74052  26.396  35.348   0.993
 7644W        W74053  18.664   5.281   4.263
 7645W        W74054  26.605  16.668   4.058
 7646W        W74055  20.940  15.058  13.600
 7647W        W74056  20.257  15.776  13.392
 7648W        W74057  22.806  43.789   3.218
 7649W        W74058  41.428  32.669  12.943
 7650W        W74059  41.474  18.549  13.941
 7651W        W74060  21.443  18.178   4.050
 7652W        W74061   9.161  12.333  10.711
 7653W        W74062   2.349  21.773   4.164
 7654W        W74063  31.929  36.720  10.729
 7655W        W74064   6.274   1.310  12.010
 7656W        W74065  26.967  43.523  14.041
 7657W        W74066  25.976  37.800   4.937
 7658W        W74067  35.609   0.137   4.317
 7659W        W74068  38.827  27.717   3.655
 7660W        W74069  43.589   7.651  14.941
 7661W        W74070  34.029  17.825  13.396
 7662W        W74071  28.943   7.187  11.551
 7663W        W74072  28.181  13.154  14.355
 7664W        W74073  12.120  28.253   0.039
 7665W        W74074  31.292  24.009  11.177
 7666W        W74075  24.155  16.594   3.058
 7667W        W74076  10.817  24.604   1.358
 7668W        W74077  35.415  29.562  13.536
 7669W        W74078  30.109  15.253   1.866
 7670W        W74079  38.844  31.032   2.176
 7671W        W74080  30.175  39.757  12.468
 7672W        W74081  33.485  18.092  14.443
 7673W        W74082  44.505  26.454   0.241
 7674W        W74083  18.950  27.601  10.868
 7675W        W74084   5.480  37.548  10.575
 7676W        W74085   2.815  44.861   2.737
 7677W        W74086   0.724  16.081   4.379
 7678W        W74087   9.145  42.531   2.811
 7679W        W74088  28.421  25.263  14.917
 7680W        W74089  29.178  20.086  12.012
 7681W        W74090   1.920  40.366   2.393
 7682W        W74091  27.009  24.975   4.051
 7683W        W74092  27.078  13.634  14.877
 7684W        W74093  26.764   1.525  13.333
 7685W        W74094  14.607  13.533  13.296
 7686W        W74095  27.855   1.033  12.107
 7687W        W74096  37.111  40.998  11.279
 7688W        W74097  35.390  22.545   4.345
 7689W        W74098   2.946  24.901  10.759
 7690W        W74099  35.848  41.042   4.150
 7691W        W74100  20.962  35.583   2.736
 7692W        W74101   8.102  15.462  11.423
 7693W        W74102  19.051  42.968  12.434
 7694W        W74103   3.417  18.792  11.738
 7695W        W74104  36.764  41.739   1.284
 7696W        W74105  25.795  36.448  12.025
 7697W        W74106  44.542  14.154   3.760
 7698W        W74107  33.699  32.808  12.002
 7699W        W74108  15.423  34.750   2.808
 7700W        W74109  17.773  12.805   2.637
 7701W        W74110  19.227  14.536   3.841
 7702W        W74111  44.572  15.117  14.043
 7703W        W74112  12.709  27.492  11.625
 7704W        W74113  12.339  21.825  10.442
 7705W        W74114  35.835  24.491  12.073
 7706W        W74115  26.473   6.648   4.974
 7707W        W74116  41.625   2.930   0.374
 7708W        W74117   3.420  26.279   2.630
 7709W        W74118  29.182  25.920  14.773
 7710W        W74119  16.734  28.721   2.715
 7711W        W74120  16.823  19.075  11.600
 7712W        W74121  22.423  13.789  12.021
 7713W        W74122   6.471  33.110  10.245
 7714W        W74123   5.738   0.693   2.856
 7715W        W74124  33.153   2.391   3.196
 7716W        W74125  38.340  40.030   4.645
 7717W        W74126   5.123  15.344  13.419
 7718W        W74127  38.577   9.851  13.083
 7719W        W74128   5.963  13.177  11.138
 7720W        W74129  18.238  44.732  12.822
 7721W        W74130  11.434  42.851  12.007
 7722W        W74131  40.074  13.110   4.073
 7723W        W74132  22.443  27.727  12.242
 7724W        W74133  16.648  27.223   2.921
 7725W        W74134  35.392  11.932  11.706
 7726W        W74135  29.203   7.024   1.097
 7727W        W74136  33.081  22.564   4.505
 7728W        W74137  44.436  21.801   2.161
 7729W        W74138  21.324   6.919   3.397
 7730W        W74139   2.697  26.196   1.028
 7731W        W74140  21.211  34.411  13.087
 7732W        W74141  33.072  25.560   4.561
 7733W        W74142   2.591  37.781  10.723
 7734W        W74143  34.376   6.438  11.917
 7735W        W74144  38.779  35.367  12.950
 7736W        W74145   9.535  31.090  13.398
 7737W        W74146   2.237  12.378  13.502
 7738W        W74147  31.567   1.653  14.027
 7739W        W74148  37.548  38.801  10.658
 7740W        W74149  23.180  33.489   2.392
 7741W        W74150  24.280   8.398   1.875
 7742W        W74151  40.753  15.075   0.039
 7743W        W74152  17.588  39.076   2.252
 7744W        W74153  38.637   1.003  10.903
 7745W        W74154  40.926  12.659   1.412
 7746W        W74155  30.580  16.109   4.211
 7747W        W74156   1.859  43.489   0.467
 7748W        W74157   3.343  29.168   3.195
 7749W        W74158  26.169  42.180   2.915
 7750W        W74159  35.476   1.634  14.013
 7751W        W74160   5.613  24.911  12.877
 7752W        W74161  32.086  32.430   1.929
 7753W        W74162  38.936  35.330   2.413
 7754W        W74163  36.360  38.612  12.525
 7755W        W74164  44.329  23.166   1.724
 7756W        W74165  31.620  35.429   4.890
 7757W        W74166  24.349  38.469  12.986
 7758W        W74167  44.266  42.411   2.300
 7759W        W74168  25.553  18.338   2.063
 7760W        W74169  17.745  37.086  14.824
 7761W        W74170  17.856  24.036   4.346
 7762W        W74171  36.602  31.111  11.163
 7763W        W74172  13.527   4.925  12.464
 7764W        W74173  37.898  10.851   1.474
 7765W        W74174  22.543  30.357   0.851
 7766W        W74175   3.893  30.123  13.314
 7767W        W74176  29.479  35.734   0.299
 7768W        W74177  34.345  18.748  13.006
 7769W        W74178  20.289  41.462  14.478
 7770W        W74179  34.378  35.896  11.047
 7771W        W74180  29.894  33.190  12.432
 7772W        W74181   5.769  29.091   3.901
 7773W        W74182  31.182  32.456  10.452
 7774W        W74183  40.753  26.109   3.583
 7775W        W74184  11.857  12.649   3.149
 7776W        W74185  36.957  12.191  13.638
 7777W        W74186   5.971  28.222   4.572
 7778W        W74187  18.780  20.251  12.893
 7779W        W74188  13.647   0.458  11.446
 7780W        W74189  39.302  35.494  12.257
 7781W        W74190  12.831  30.865   3.004
 7782W        W74191  27.727  30.046  14.049
 7783W        W74192  38.058  37.422   4.593
 7784W        W74193  42.281  12.912  11.587
 7785W        W74194  30.103  24.506  13.869
 7786W        W74195  27.932  10.059  13.255
 7787W        W74196  21.479  41.806  14.482
 7788W        W74197  38.825  14.192   0.748
 7789W        W74198  38.399  35.733  11.975
 7790W        W74199  23.795   3.687   4.003
 7791W        W74200  30.994   6.557   5.014
 7792W        W74201  35.041   6.955  11.179
 7793W        W74202   1.212  13.441  13.342
 7794W        W74203   4.190  27.174   2.552
 7795W        W74204  21.127  39.192   0.957
 7796W        W74205  41.768  15.219   0.881
 7797W        W74206  16.886  15.121  14.448
 7798W        W74207  44.148   1.280   0.055
 7799W        W74208  42.107  26.514  10.756
 7800W        W74209  22.042  22.128   1.234
 7801W        W74210   9.259   8.257  14.875
 7802W        W74211   7.081  27.958   3.254
 7803W        W74212  25.126  37.903  12.349
 7804W        W74213   6.762  30.880  13.419
 7805W        W74214  26.188   7.718  14.819
 7806W        W74215  18.485  19.263  12.438
 7807W        W74216  13.978  18.611  11.530
 7808W        W74217  44.600   3.288   4.217
 7809W        W74218  44.998  35.545   1.700
 7810W        W74219  15.731  14.387  12.484
 7811W        W74220  43.857  22.976  14.072
 7812W        W74221   6.307  34.333   4.054
 7813W        W74222  10.180  34.616   1.316
 7814W        W74223  30.749   0.447  14.337
 7815W        W74224   4.722  24.411  14.816
 7816W        W74225  31.421   1.772   0.876
 7817W        W74226  10.183   7.309   4.515
 7818W        W74227  24.076  29.430  14.806
 7819W        W74228  40.096  42.523   0.471
 7820W        W74229  33.511  19.505  14.412
 7821W        W74230   9.387  42.475  14.878
 7822W        W74231  38.509  17.824  11.342
 7823W        W74232  40.923  19.209   3.548
 7824W        W74233  14.196  22.507  12.123
 7825W        W74234  21.306  35.340  13.894
 7826W        W74235  14.688  30.381   3.285
 7827W        W74236   3.859  29.694  14.865
 7828W        W74237  35.988   1.315  12.491
 7829W        W74238  24.300  42.764  11.187
 7830W        W74239  23.711  11.632  10.657
 7831W        W74240  33.127  31.349  14.612
 7832W        W74241  13.894  37.074  13.852
 7833W        W74242   4.437   2.270   4.106
 7834W        W74243  33.621  10.320  13.437
 7835W        W74244  35.570  25.262   0.806
 7836W        W74245  32.433   7.334   4.556
 7837W        W74246  32.324  25.667   1.741
 7838W        W74247  44.190  43.845  10.273
 7839W        W74248  42.401  25.155  14.993
 7840W        W74249  35.603   5.945   0.446
 7841W        W74250  17.579   4.426   2.944
 7842W        W74251  18.191   2.497  13.098
 7843W        W74252  26.468   4.573  12.348
 7844W        W74253  24.856  34.423  12.056
 7845W        W74254   8.490  32.702   2.392
 7846W        W74255  15.733  40.429  12.012
 7847W        W74256   5.353  27.260   1.291
 7848W        W74257  16.032  24.749  11.115
 7849W        W74258  31.052  37.535   4.636
 7850W        W74259  17.675   7.907  14.370
 7851W        W74260  32.873  29.343   1.008
 7852W        W74261  35.926  42.260   0.673
 7853W        W74262  31.149  40.085  14.932
 7854W        W74263  32.002  14.170   1.450
 7855W        W74264  18.624  36.430   0.916
 7856W        W74265  12.864  29.980  10.746
 7857W        W74266  30.040  20.636   3.710
 7858W        W74267  40.455  25.206   0.459
 7859W        W74268   7.651   5.585   3.291
 7860W        W74269   8.370  38.576   2.747
 7861W        W74270   1.382   2.943   2.634
 7862W        W74271  18.633  15.832  13.830
 7863W        W74272  12.417  17.711   3.102
 7864W        W74273  44.917  36.832  11.804
 7865W        W74274  21.237  21.274  12.326
 7866W        W74275  10.631  18.284  14.854
 7867W        W74276  26.410   7.677   0.304
 7868W        W74277  11.177  35.609   3.359
 7869W        W74278  20.845  41.743   1.720
 7870W        W74279  34.834  37.834  11.494
 7871W        W74280  16.309  38.606  14.301
 7872W        W74281  37.935  39.238   2.235
 7873W        W74282   6.413  38.328  10.911
 7874W        W74283  11.598  21.129  12.576
 7875W        W74284   7.852  36.664  11.078
 7876W        W74285  23.427  10.658   3.642
 7877W        W74286  13.217  24.113  14.788
 7878W        W74287  32.936  24.653   2.445
 7879W        W74288  31.616  16.519   2.643
 7880W        W74289  12.112  38.501   1.192
 7881W        W74290  14.589  37.465   1.049
 7882W        W74291  28.490  23.645  13.434
 7883W        W74292  27.980  23.507  12.576
 7884W        W74293  44.705  25.392   3.528
 7885W        W74294  33.373  11.659  11.103
 7886W        W74295  37.106  15.736  11.418
 7887W        W74296  11.398  38.838  11.197
 7888W        W74297  10.875  37.556   4.562
 7889W        W74298  12.856  21.322   1.493
 7890W        W74299  15.615  11.674  12.907
 7891W        W74300  27.640   3.153  11.509
 7892W        W74301  25.444   1.003  11.904
 7893W        W74302  34.086   5.823   0.282
 7894W        W74303  28.466  16.216   3.325
 7895W        W74304  18.781  28.072   2.695
 7896W        W74305  20.718  34.037   0.702
 7897W        W74306  25.554  23.250   5.443
 7898W        W74307  14.832  34.927   1.741
 7899W        W74308  36.851  26.708  12.013
 7900W        W74309  10.091   4.765  12.415
 7901W        W74310  20.061  17.615  13.482
 7902W        W74311  27.822  15.752   4.129
 7903W        W74312  29.583  40.260   4.004
 7904W        W74313  24.684  14.789   1.159
 7905W        W74314   6.005  12.948   2.396
 7906W        W74315  28.207  43.892   0.826
 7907W        W74316  33.007   1.067   4.541
 7908W        W74317  16.104  20.016  12.431
 7909W        W74318  12.298  15.843   4.590
 7910W        W74319  27.896  21.334  13.543
 7911W        W74320  30.446   7.252   3.356
 7912W        W74321  29.184  14.920   3.401
 7913W        W74322  10.645  36.337   0.699
 7914W        W74323  30.621  15.850   4.904
 7915W        W74324  34.443  23.973  11.658
 7916W        W74325  33.978  10.359   3.609
 7917W        W74326  36.536  27.473   0.841
 7918W        W74327  22.818   4.876   0.358
 7919W        W74328  23.795  13.147   0.900
 7920W        W74329  28.475  14.774  11.515
 7921W        W74330  11.409  25.862  12.985
 7922W        W74331  39.375   1.290   3.410
 7923W        W74332  20.691  26.994   0.189
 7924W        W74333  29.523   2.010  10.629
 7925W        W74334  13.215  42.979   1.739
 7926W        W74335  22.449  28.646  14.442
 7927W        W74336  24.104  39.535  14.705
 7928W        W74337  12.204   6.251   4.641
 7929W        W74338  34.517  43.415  12.896
 7930W        W74339  11.755  36.455   4.187
 7931W        W74340  22.088  36.640  13.329
 7932W        W74341  34.628  27.024  13.043
 7933W        W74342  38.763  22.562   0.335
 7934W        W74343  29.002   1.192  14.458
 7935W        W74344  38.504  12.212  11.546
 7936W        W74345  13.426  12.183  13.979
 7937W        W74346   7.227  34.897   0.179
 7938W        W74347   7.660  12.111   3.345
 7939W        W74348  16.067  26.238   3.761
 7940W        W74349  35.944  42.266   1.195
 7941W        W74350  17.401  39.025  10.300
 7942W        W74351   7.271  41.343   3.156
 7943W        W74352  43.584  26.177   4.141
 7944W        W74353  14.382  41.387  12.014
 7945W        W74354  11.336  13.321   2.748
 7946W        W74355   5.934  20.910  12.595
 7947W        W74356  11.885  31.473  12.562
 7948W        W74357  16.311  40.190  11.250
 7949W        W74358   3.632  42.405   1.361
 7950W        W74359  29.246  24.038  12.275
 7951W        W74360   0.344  14.365  11.087
 7952W        W74361  42.777  29.029   1.341
 7953W        W74362   1.872  43.761   2.818
 7954W        W74363  20.054  24.552  12.048
 7955W        W74364  10.186  43.299  11.008
 7956W        W74365   2.478  22.281  13.451
 7957W        W74366  37.514  14.766   3.229
 7958W        W74367  41.287  29.473   2.613
 7959W        W74368  44.956   7.663  12.998
 7960W        W74369  21.037  17.835   1.917
 7961W        W74370  34.515  32.663   3.246
 7962W        W74371  40.071  26.333  11.246
 7963W        W74372  33.326   9.644  13.471
 7964W        W74373  28.927   4.977  14.565
 7965W        W74374  14.664  14.810  12.586
 7966W        W74375  17.307  39.893   1.393
 7967W        W74376  16.716  32.133   1.469
 7968W        W74377  18.209   2.991   3.925
 7969W        W74378  43.235  17.753   3.578
 7970W        W74379  20.282   4.989  12.967
 7971W        W74380  35.480   9.146   4.345
 7972W        W74381  30.039   9.001   5.069
 7973W        W74382  44.870  29.098  11.451
 7974W        W74383  42.097  12.207   2.683
 7975W        W74384   4.828  26.220   4.507
 7976W        W74385  29.165  40.956   2.758
 7977W        W74386  26.857  22.763  13.841
 7978W        W74387  32.854   6.249  11.602
 7979W        W74388   6.237  41.269   2.052
 7980W        W74389  39.039  23.228  14.462
 7981W        W74390  12.795  10.699   2.371
 7982W        W74391  43.504  14.407  12.454
 7983W        W74392  18.805  24.989  14.429
 7984W        W74393  14.583  15.958  11.508
 7985W        W74394  42.980  19.106   1.899
 7986W        W74395  34.673  10.631  12.871
 7987W        W74396   8.209   4.876   0.978
 7988W        W74397  20.653  43.271  12.594
 7989W        W74398   9.410  26.584   2.764
 7990W        W74399  21.347  23.275  11.985
 7991W        W74400  25.121  27.323  10.724
 7992W        W74401   7.200  18.487   2.266
 7993W        W74402  24.965   6.630   2.393
 7994W        W74403   7.195  37.590   3.279
 7995W        W74404  21.530  19.522   2.300
 7996W        W74405  31.517  13.197   2.660
 7997W        W74406  23.269   0.643   3.754
 7998W        W74407  38.773  30.260  13.128
 7999W        W74408   1.690  11.902   4.553
 8000W        W74409  20.557  25.169  11.607
 8001W        W74410   3.926  29.638  10.635
 8002W        W74411  37.992  22.559  12.467
 8003W        W74412  44.330  16.992  13.281
 8004W        W74413  39.995   0.884  13.372
 8005W        W74414  34.471  36.655   4.617
 8006W        W74415   7.602  33.721   1.258
 8007W        W74416   4.281  34.924  11.459
 8008W        W74417  44.461  22.283  11.972
 8009W        W74418  39.388  12.708  11.750
 8010W        W74419  16.600  31.607   2.802
 8011W        W74420   5.286  39.733   2.170
 8012W        W74421  12.978  28.739  14.930
 8013W        W74422  37.204  16.719  14.408
 8014W        W74423   1.254  26.629   0.239
 8015W        W74424  12.809  34.433   1.661
 8016W        W74425  14.547  34.316  14.400
 8017W        W74426  40.818  27.613  13.088
 8018W        W74427  37.517  41.889  13.409
 8019W        W74428  42.432   2.868   1.392
 8020W        W74429  24.170  27.072  14.846
 8021W        W74430  13.900  29.697  13.033
 8022W        W74431  11.154  40.039  13.868
 8023W        W74432   0.925   1.428  14.496
 8024W        W74433  22.674  38.544   3.133
 8025W        W74434   9.300  37.773  11.561
 8026W        W74435   8.746   1.835   2.065
 8027W        W74436  32.526  38.104   3.166
 8028W        W74437   9.251   5.818  14.969
 8029W        W74438  37.582  38.510  12.910
 8030W        W74439  41.395  10.553  11.585
 8031W        W74440  41.081  25.048  14.385
 8032W        W74441  12.794  41.489  12.432
 8033W        W74442  36.018  24.584   3.086
 8034W        W74443   7.359   6.706   3.273
 8035W        W74444   8.698  37.434  10.287
 8036W        W74445  29.599  41.517  12.488
 8037W        W74446  35.874  26.059   1.845
 8038W        W74447  38.098  29.008  14.373
 8039W        W74448  39.811  32.696   4.298
 8040W        W74449  19.288   9.712  12.530
 8041W        W74450  29.485  17.268  10.176
 8042W        W74451  14.108  18.583   4.340
 8043W        W74452   1.257  19.654   1.356
 8044W        W74453  19.178  44.995  13.826
 8045W        W74454  26.082  35.845   4.423
 8046W        W74455  44.784  34.471   1.365
 8047W        W74456  27.201  28.629  11.595
 8048W        W74457  21.308  29.538  11.929
 8049W        W74458  29.092  16.807   1.566
 8050W        W74459  13.727  41.518  12.499
 8051W        W74460   9.349  19.015   3.825
 8052W        W74461  12.326  15.629  14.574
 8053W        W74462   2.544  14.257   2.858
 8054W        W74463  11.571  41.211   1.794
 8055W        W74464  40.902  15.142   4.077
 8056W        W74465  16.085  11.760  13.089
 8057W        W74466  36.927  11.577   3.243
 8058W        W74467   2.998  13.251  12.775
 8059W        W74468  12.147  37.825  13.941
 8060W        W74469  44.337  19.521   1.974
 8061W        W74470  15.555  32.376  14.029
 8062W        W74471   7.348   2.349  11.187
 8063W        W74472  23.000  16.195   4.672
 8064W        W74473  14.331  16.343   2.619
 8065W        W74474  34.011  26.611   2.156
 8066W        W74475  22.323  31.714   3.726
 8067W        W74476   2.029   0.357   1.254
 8068W        W74477  16.730   0.980   4.374
 8069W        W74478   4.411  19.728  13.008
 8070W        W74479  41.266  38.741   4.288
 8071W        W74480  44.558  18.441  12.515
 8072W        W74481  38.362   1.374  11.959
 8073W        W74482  14.633   1.165   3.964
 8074W        W74483   5.735  23.637  14.603
 8075W        W74484  31.027   0.686   2.745
 8076W        W74485  20.089  11.894  12.881
 8077W        W74486   2.890  24.144  12.383
 8078W        W74487  40.173   3.974   0.677
 8079W        W74488  18.751  16.893   3.820
 8080W        W74489  35.349  26.314   0.003
 8081W        W74490  21.974  13.553   3.321
 8082W        W74491   9.984  31.753   2.484
 8083W        W74492  33.942   6.849  10.082
 8084W        W74493  36.193  37.925   3.211
 8085W        W74494  22.203  15.818   4.794
 8086W        W74495  41.934  43.662   3.758
 8087W        W74496  28.079  32.867   0.042
 8088W        W74497   9.271  18.025  11.143
 8089W        W74498  44.164   7.817   1.020
 8090W        W74499  26.729   3.213   3.895
 8091W        W74500  22.647   0.401  11.605
 8092W        W74501  14.986  19.127  10.575
 8093W        W74502  12.381   4.285  11.450
 8094W        W74503  39.888  22.121  13.907
 8095W        W74504  10.990  35.261  11.151
 8096W        W74505  19.669  20.712  14.441
 8097W        W74506  10.107   9.726  10.640
 8098W        W74507  30.914  36.062  11.622
 8099W        W74508   9.397  25.052  10.769
 8100W        W74509  24.325  38.347   3.754
 8101W        W74510   9.495   2.342  10.268
 8102W        W74511  13.089  27.255  13.872
 8103W        W74512   5.148   1.060   4.123
 8104W        W74513  21.482  32.987   4.535
 8105W        W74514  17.519  12.564   3.462
 8106W        W74515  14.755   4.702  10.237
 8107W        W74516  44.259  25.271   4.227
 8108W        W74517  44.221  30.670   2.132
 8109W        W74518  24.675   2.855  13.856
 8110W        W74519  13.272  22.099  13.860
 8111W        W74520  41.851  32.066   1.746
 8112W        W74521  32.246  16.607   9.871
 8113W        W74522  10.038  42.434   4.619
 8114W        W74523  36.746  36.057  12.793
 8115W        W74524  11.814  27.181   0.597
 8116W        W74525  24.343  44.605   3.668
 8117W        W74526  17.293  44.323  13.868
 8118W        W74527   1.651  27.018   1.871
 8119W        W74528  27.271  39.827   2.714
 8120W        W74529  10.719  30.507  12.306
 8121W        W74530  16.226  16.982  14.964
 8122W        W74531  28.191  10.352   4.090
 8123W        W74532  33.900  35.513  14.054
 8124W        W74533  19.291  24.526  14.946
 8125W        W74534  27.432  38.575   0.534
 8126W        W74535  43.325  19.991   3.804
 8127W        W74536  44.586  32.674   0.769
 8128W        W74537  12.177   2.681  12.553
 8129W        W74538  32.642  29.540  14.354
 8130W        W74539  29.326   3.725  11.940
 8131W        W74540  32.468  29.890  12.052
 8132W        W74541   1.968   1.523   0.535
 8133W        W74542   0.200   0.640  13.288
 8134W        W74543  15.008   1.871  11.916
 8135W        W74544  29.863   5.161   0.903
 8136W        W74545  33.126  30.021   1.313
 8137W        W74546  41.374  33.309   0.729
 8138W        W74547  15.220  20.974  13.846
 8139W        W74548   1.498  20.226  11.533
 8140W        W74549  43.718  28.543   0.881
 8141W        W74550  35.297  41.424  12.584
 8142W        W74551  34.410   9.738   1.455
 8143W        W74552  38.988  21.704   2.782
 8144W        W74553  29.471  18.703   3.075
 8145W        W74554  17.930  32.513   4.668
 8146W        W74555  27.918  31.059   1.220
 8147W        W74556   2.464  10.596   2.416
 8148W        W74557  29.555  34.894  12.963
 8149W        W74558  40.143   5.013   1.107
 8150W        W74559  42.026  15.881  13.397
 8151W        W74560  37.369  26.039  11.181
 8152W        W74561   1.526  40.990  11.338
 8153W        W74562   6.851  13.023  13.502
 8154W        W74563  39.529  19.703   2.147
 8155W        W74564  25.488   5.748  12.187
 8156W        W74565  15.278  33.917   4.102
 8157W        W74566  10.815   8.366   3.244
 8158W        W74567   3.724  20.647   1.800
 8159W        W74568   1.799   3.744   2.303
 8160W        W74569  42.683  37.773   2.664
 8161W        W74570  19.196   3.429   2.025
 8162W        W74571   7.621  10.700   0.879
 8163W        W74572  10.253  12.431  12.431
 8164W        W74573  34.166  33.678   5.024
 8165W        W74574  44.759  27.880  13.064
 8166W        W74575  23.701  22.687   2.606
 8167W        W74576  40.065  19.236   0.492
 8168W        W74577  32.400  38.616   4.070
 8169W        W74578   8.696   8.802   9.739
 8170W        W74579   0.427  15.833  12.406
 8171W        W74580   5.405   3.934   0.969
 8172W        W74581   0.400  21.216  11.412
 8173W        W74582  33.564  10.219  12.289
 8174W        W74583  17.864  33.672   0.268
 8175W        W74584  26.550  32.603  10.399
 8176W        W74585  23.153  11.771  10.713
 8177W        W74586  33.547  26.819   0.813
 8178W        W74587  36.828  20.215   1.855
 8179W        W74588   7.434  29.105  12.718
 8180W        W74589  18.521  25.120  12.127
 8181W        W74590  15.400   0.751   4.542
 8182W        W74591  34.631  28.509  12.948
 8183W        W74592  16.374  27.200  12.855
 8184W        W74593   1.422  20.169  10.648
 8185W        W74594   1.017   8.912   5.031
 8186W        W74595  37.244  23.944  12.130
 8187W        W74596  12.086  43.063  14.864
 8188W        W74597   6.556  34.810  13.909
 8189W        W74598  35.511  17.991  11.970
 8190W        W74599   5.104  26.153   1.696
 8191W        W74600  43.199   1.429   2.298
 8192W        W74601   4.352  44.002  14.610
 8193W        W74602  19.014  33.134  11.971
 8194W        W74603  12.113  44.309   9.786
 8195W        W74604  16.549  30.791   4.101
 8196W        W74605  21.294  20.808   1.394
 8197W        W74606  31.070  11.258   0.847
 8198W        W74607  29.106   6.815  13.152
 8199W        W74608  20.683   5.172   3.299
 8200W        W74609   6.999  31.685  14.069
 8201W        W74610   0.257  27.907   2.335
 8202W        W74611  34.581  22.288  14.209
 8203W        W74612  20.678  10.457   3.132
 8204W        W74613   5.429  30.551   4.501
 8205W        W74614  42.996   1.822  10.593
 8206W        W74615  24.981  33.286   1.601
 8207W        W74616  17.992  31.615   4.248
 8208W        W74617  15.309  30.192   3.126
 8209W        W74618  32.432  14.937  13.402
 8210W        W74619  23.811  25.621  14.034
 8211W        W74620  39.549  43.855  12.133
 8212W        W74621  32.931   8.898   4.653
 8213W        W74622  37.969  27.116   3.557
 8214W        W74623   0.383  22.041  10.801
 8215W        W74624  29.860  18.375   0.098
 8216W        W74625  36.542  43.013   4.153
 8217W        W74626  15.954  12.200  11.237
 8218W        W74627  15.733  42.718  13.907
 8219W        W74628  42.497  17.866   0.234
 8220W        W74629   0.844  39.737  13.345
 8221W        W74630  21.051  39.491   0.535
 8222W        W74631  14.559  11.134   2.376
 8223W        W74632  30.946  21.751  11.109
 8224W        W74633  42.444  35.723   0.740
 8225W        W74634  36.880  18.037  10.303
 8226W        W74635  20.258   5.451  12.543
 8227W        W74636  33.078  25.594  11.127
 8228W        W74637   0.784   7.896   4.638
 8229W        W74638  27.623  40.447  14.554
 8230W        W74639   8.357   4.260  13.186
 8231W        W74640  32.502  22.048   4.199
 8232W        W74641   4.343  39.303  10.501
 8233W        W74642  14.850   5.445  13.545
 8234W        W74643   6.802  39.477   0.251
 8235W        W74644  17.717   7.663  13.830
 8236W        W74645  11.106  41.188   0.991
 8237W        W74646  13.792   3.265   3.791
 8238W        W74647  44.110  23.170   0.918
 8239W        W74648  37.723   8.246  12.906
 8240W        W74649  37.536  18.039  14.812
 8241W        W74650  16.046  16.673  14.584
 8242W        W74651  28.805  25.156   1.749
 8243W        W74652  13.153  14.700   3.296
 8244W        W74653  32.941   1.384   2.309
 8245W        W74654  43.029  30.156   4.340
 8246W        W74655  19.215   2.300   2.625
 8247W        W74656  30.683  27.383   4.459
 8248W        W74657   0.452   6.222  13.528
 8249W        W74658  13.802  42.809   0.464
 8250W        W74659  12.589   7.947  14.345
 8251W        W74660  19.612  24.482   1.322
 8252W        W74661   2.612  13.195  14.914
 8253W        W74662  32.169  24.447   3.564
 8254W        W74663  36.126  40.245   0.141
 8255W        W74664  18.487  43.097   2.861
 8256W        W74665  26.956  39.400  12.048
 8257W        W74666  25.446  39.398  13.396
 8258W        W74667  22.945  13.160  12.497
 8259W        W74668  15.553  20.473  14.740
 8260W        W74669  41.866  36.152   4.127
 8261W        W74670  13.789  15.795  12.580
 8262W        W74671  37.874   7.610   0.508
 8263W        W74672  35.219   4.528  12.460
 8264W        W74673  23.289   9.593  11.085
 8265W        W74674  42.054  15.644  12.107
 8266W        W74675   1.969  11.458   3.748
 8267W        W74676  15.544   6.523   4.884
 8268W        W74677  17.748  26.020   4.595
 8269W        W74678  37.324   7.958   3.459
 8270W        W74679  36.569  37.324   2.670
 8271W        W74680  29.198  20.193   2.264
 8272W        W74681  36.926  39.755   3.630
 8273W        W74682  20.149  11.099   1.851
 8274W        W74683  34.479  10.486   0.832
 8275W        W74684  27.525  40.353  13.454
 8276W        W74685   7.526   6.880   0.008
 8277W        W74686  34.404  10.777  13.766
 8278W        W74687  15.246  26.712  14.964
 8279W        W74688   6.741  13.906  14.083
 8280W        W74689  21.359  10.538  12.490
 8281W        W74690  29.460  22.790   3.688
 8282W        W74691  25.269  20.588   3.052
 8283W        W74692  19.691  17.504   2.701
 8284W        W74693  27.341  37.674   4.682
 8285W        W74694   9.878   1.237   2.368
 8286W        W74695  27.510  21.179  14.463
 8287W        W74696  25.562  29.067   1.165
 8288W        W74697  22.012   6.481   4.310
 8289W        W74698   2.359  27.626   1.966
 8290W        W74699  19.451  28.436  14.883
 8291W        W74700   3.057   9.723   4.227
 8292W        W74701  38.057  33.957   3.694
 8293W        W74702   6.839  34.425  14.073
 8294W        W74703  23.965  41.772   3.736
 8295W        W74704  22.815  41.402  14.561
 8296W        W74705  23.454  41.919  13.941
 8297W        W74706   6.759  31.750   4.678
 8298W        W74707  26.245  14.711   3.761
 8299W        W74708  15.305   2.551   1.285
 8300W        W74709  44.978  29.917  14.004
 8301W        W74710  24.004  39.083  12.535
 8302W        W74711  42.476   1.400  11.691
 8303W        W74712  25.057  22.138  12.591
 8304W        W74713  21.312   1.840  13.375
 8305W        W74714  12.043  29.481   5.080
 8306W        W74715  33.479  14.123  11.929
 8307W        W74716  35.304  39.568  14.502
 8308W        W74717  24.124  22.048  13.478
 8309W        W74718   2.465   7.728  12.842
 8310W        W74719   5.579   7.492  12.902
 8311W        W74720  24.238  23.581  13.386
 8312W        W74721  16.353   5.276   4.732
 8313W        W74722  44.401  23.227   4.145
 8314W        W74723  29.686   7.706  11.466
 8315W        W74724  15.644  14.616  13.573
 8316W        W74725  29.588  36.355   3.601
 8317W        W74726  24.561  41.977   0.213
 8318W        W74727   1.997  10.157   0.206
 8319W        W74728  10.687  33.158  14.456
 8320W        W74729  31.917  44.000   3.786
 8321W        W74730  25.220  29.345  13.497
 8322W        W74731   6.739  17.820   1.764
 8323W        W74732  38.524   7.300   0.049
 8324W        W74733  32.019   6.854   3.987
 8325W        W74734  25.865  10.803  12.499
 8326W        W74735  44.041  15.671   1.311
 8327W        W74736   3.218  11.696   4.690
 8328W        W74737   1.495   7.182  10.439
 8329W        W74738   1.387  22.731  11.742
 8330W        W74739  18.123  39.962   2.118
 8331W        W74740  27.662  37.919   0.725
 8332W        W74741  10.861  32.387  13.539
 8333W        W74742  40.397  34.133   3.423
 8334W        W74743   3.924  28.349  12.004
 8335W        W74744   2.250  12.210  13.999
 8336W        W74745  34.379   7.874   4.075
 8337W        W74746   8.251  29.618  11.916
 8338W        W74747  34.001  32.378  11.900
 8339W        W74748   3.418  14.044  12.869
 8340W        W74749  35.959  40.236  11.652
 8341W        W74750  29.628  26.177  13.875
 8342W        W74751  11.735   9.309   0.981
 8343W        W74752  34.386  31.983  10.529
 8344W        W74753  33.456  21.498  12.534
 8345W        W74754  12.320  38.366   3.716
 8346W        W74755  19.587  36.875   0.723
 8347W        W74756   4.504  41.589   4.499
 8348W        W74757  18.424   4.386   1.238
 8349W        W74758  28.897  12.253   1.760
 8350W        W74759  13.357   0.953   1.783
 8351W        W74760  22.320  23.225   3.830
 8352W        W74761  38.144  10.160   3.567
 8353W        W74762  31.359  42.520   0.035
 8354W        W74763  16.264  29.462   3.021
 8355W        W74764  38.972   7.290  12.425
 8356W        W74765  30.985  20.536  12.628
 8357W        W74766  15.442  10.897   1.391
 8358W        W74767   5.296  37.879   0.149
 8359W        W74768  30.468  13.604   2.369
 8360W        W74769   3.954  15.680  12.093
 8361W        W74770  17.982  20.951   5.446
 8362W        W74771  39.452   5.851   4.654
 8363W        W74772  20.263  27.187  12.059
 8364W        W74773  43.949  17.687  11.652
 8365W        W74774  22.636   6.864  13.941
 8366W        W74775  43.527   0.200  11.876
 8367W        W74776   3.964  40.647   0.648
 8368W        W74777  17.862  10.761  10.780
 8369W        W74778  12.384  28.633  13.577
 8370W        W74779  17.362   3.426  10.701
 8371W        W74780  18.582  19.775  12.477
 8372W        W74781  25.357  23.975   3.752
 8373W        W74782  10.395  34.557  11.928
 8374W        W74783  17.590  11.318  14.772
 8375W        W74784  16.012  38.455   2.273
 8376W        W74785  12.611  11.974   4.702
 8377W        W74786  37.015   9.166   1.816
 8378W        W74787  37.789  23.484  11.647
 8379W        W74788  41.450   4.327   1.404
 8380W        W74789   1.722   7.266  11.665
 8381W        W74790  29.251  40.697  12.236
 8382W        W74791  13.538  23.137  11.600
 8383W        W74792   6.120   9.210   4.679
 8384W        W74793  24.560  27.989   2.304
 8385W        W74794  24.180  36.681   4.575
 8386W        W74795  31.078  32.146   2.294
 8387W        W74796   1.052  34.392   2.669
 8388W        W74797   7.766  11.388  10.375
 8389W        W74798  31.894  40.986   4.232
 8390W        W74799   6.798  37.118  13.419
 8391W        W74800  43.188   8.562   1.446
 8392W        W74801  27.879   5.104  13.364
 8393W        W74802  11.130  22.571   2.772
 8394W        W74803  15.304   6.339  11.089
 8395W        W74804   1.848  32.387  11.048
 8396W        W74805  27.976  35.606   2.857
 8397W        W74806  30.053  13.907  11.992
 8398W        W74807  14.190   5.633  13.628
 8399W        W74808  12.326  10.073  12.124
 8400W        W74809  12.347  24.519   0.952
 8401W        W74810   5.985  28.577  13.055
 8402W        W74811  19.031   0.412  14.127
 8403W        W74812  26.903  27.144  10.615
 8404W        W74813   8.144  24.555   2.819
 8405W        W74814   1.972  37.046   4.118
 8406W        W74815  21.731  13.558  14.198
 8407W        W74816  13.154  32.586  12.512
 8408W        W74817  38.058  19.171  14.583
 8409W        W74818  28.712   6.856   2.276
 8410W        W74819  15.853   9.895   1.423
 8411W        W74820  37.177  17.925  11.684
 8412W        W74821   0.472  44.811  13.085
 8413W        W74822  35.858  24.642  11.525
 8414W        W74823  18.086  25.014   4.523
 8415W        W74824  15.745  16.725  10.896
 8416W        W74825  41.037  40.549  14.014
 8417W        W74826  40.240  13.535  14.414
 8418W        W74827   9.084  43.768  11.747
 8419W        W74828  19.820  42.898   4.978
 8420W        W74829   9.322  27.177   5.895
 8421W        W74830  37.803   1.259  14.083
 8422W        W74831  29.523  40.984   4.297
 8423W        W74832  40.219  16.083  12.027
 8424W        W74833   6.804  32.204  10.019
 8425W        W74834   1.449  21.096  10.666
 8426W        W74835  18.062  38.765   0.403
 8427W        W74836  14.666  30.903  14.827
 8428W        W74837  10.352  30.531  10.448
 8429W        W74838  38.945  15.650   2.894
 8430W        W74839   4.714  19.222  13.873
 8431W        W74840  30.118  25.876   0.919
 8432W        W74841  21.689  38.922   3.164
 8433W        W74842  32.352  19.645  10.651
 8434W        W74843  27.092  20.578   2.717
 8435W        W74844  18.080  36.711   1.616
 8436W        W74845  39.804  14.426  13.382
 8437W        W74846  31.460   6.252  14.912
 8438W        W74847   6.169  21.151  11.076
 8439W        W74848  33.548  37.297   1.422
 8440W        W74849  38.147  35.548   2.886
 8441W        W74850  26.880   4.919  11.299
 8442W        W74851  39.767  21.155   1.870
 8443W        W74852  36.510  40.454   0.405
 8444W        W74853   9.156  31.690   2.196
 8445W        W74854  32.300   5.481  12.160
 8446W        W74855  12.383  43.788   3.077
 8447W        W74856  34.869   3.440   1.446
 8448W        W74857  26.822  44.441   0.932
 8449W        W74858  15.917  27.901   3.236
 8450W        W74859  40.763  36.832  12.089
 8451W        W74860  24.071  44.225   1.705
 8452W        W74861   2.876  41.111  14.359
 8453W        W74862  16.122  25.616   1.761
 8454W        W74863   4.001  41.419   4.553
 8455W        W74864  14.643  23.005  13.377
 8456W        W74865  15.746  25.625   4.424
 8457W        W74866  35.573  28.062   1.837
 8458W        W74867  30.135  36.415   2.206
 8459W        W74868   3.047  39.962  11.733
 8460W        W74869  29.218  10.675   2.743
 8461W        W74870  19.270  12.234   1.921
 8462W        W74871   9.106   1.322   4.664
 8463W        W74872   6.957  14.245  13.098
 8464W        W74873   4.631   2.471  14.998
 8465W        W74874   9.837  41.832   2.413
 8466W        W74875  12.946  12.187  14.919
 8467W        W74876  37.232  36.930  10.812
 8468W        W74877   3.954  44.802   2.327
 8469W        W74878  35.437  41.321   3.881
 8470W        W74879   4.128  36.665   3.668
 8471W        W74880  15.771  25.721   5.668
 8472W        W74881  20.545   3.330   3.140
 8473W        W74882  19.303  44.945  14.829
 8474W        W74883   0.782  31.586   5.040
 8475W        W74884  13.617  11.000  11.912
 8476W        W74885  27.493  10.467  12.014
 8477W        W74886  42.736  23.932  11.148
 8478W        W74887  26.619  40.846   1.479
 8479W        W74888  40.521  37.182   2.244
 8480W        W74889   4.712   8.254   3.728
 8481W        W74890  44.315   2.728   4.947
 8482W        W74891  41.516  10.914   3.341
 8483W        W74892  18.426  42.344  13.351
 8484W        W74893  25.340  41.431  13.838
 8485W        W74894   6.304   3.184   4.823
 8486W        W74895  15.913  26.452   2.869
 8487W        W74896  29.711  43.680   0.779
 8488W        W74897  33.596   0.966  11.920
 8489W        W74898  39.984  40.900   4.580
 8490W        W74899  11.339  34.185   5.087
 8491W        W74900  13.578  27.249  14.034
 8492W        W74901  13.460  29.842   1.603
 8493W        W74902  34.292  38.424   2.305
 8494W        W74903  10.391  21.603  11.083
 8495W        W74904  13.854   5.723  14.007
 8496W        W74905  28.389  12.268   1.782
 8497W        W74906  35.639  24.207  12.565
 8498W        W74907  29.171  14.542  13.522
 8499W        W74908  38.949  15.218  13.026
 8500W        W74909  41.886  35.351  14.791
 8501W        W74910  42.309  36.625   2.420
 8502W        W74911   5.348  25.006  14.244
 8503W        W74912  34.454  27.159   0.393
 8504W        W74913  38.026  23.687  14.341
 8505W        W74914   1.288  18.577  11.164
 8506W        W74915   7.672  27.407   0.481
 8507W        W74916  43.176   0.626   3.147
 8508W        W74917  20.049  13.044   1.895
 8509W        W74918  21.098  35.265   3.126
 8510W        W74919  23.229  25.143  13.743
 8511W        W74920  35.979   8.245  11.570
 8512W        W74921  41.238  27.735   2.635
 8513W        W74922   7.697  41.305  12.475
 8514W        W74923  22.613  29.732   3.644
 8515W        W74924  40.108  34.135  12.791
 8516W        W74925   7.843   9.693   0.380
 8517W        W74926   8.890  41.221  12.934
 8518W        W74927   5.200  13.524  12.523
 8519W        W74928  26.592  23.455  13.706
 8520W        W74929  21.504   5.332  14.909
 8521W        W74930  43.268  13.602  14.462
 8522W        W74931  33.162  20.647   1.078
 8523W        W74932  39.595  30.949   3.171
 8524W        W74933  44.881  35.581  14.703
 8525W        W74934  19.095  22.741   1.336
 8526W        W74935  23.492  18.690   4.705
 8527W        W74936  31.509  28.591   4.299
 8528W        W74937  36.936  27.486   2.393
 8529W        W74938   8.869  33.426  12.821
 8530W        W74939  42.338   3.049  12.716
 8531W        W74940  25.253   2.382   1.424
 8532W        W74941  34.238  31.437   0.783
 8533W        W74942  26.511   7.528   3.863
 8534W        W74943  18.637  23.981  11.162
 8535W        W74944  28.737  33.416  13.971
 8536W        W74945   9.173  15.353   0.797
 8537W        W74946  22.598  37.982   1.749
 8538W        W74947  25.292  42.439   1.937
 8539W        W74948  17.130   8.210   0.493
 8540W        W74949   1.478  22.808   1.230
 8541W        W74950  30.459   7.582  13.325
 8542W        W74951  38.855  33.442  11.538
 8543W        W74952  37.749   6.776   0.093
 8544W        W74953  18.736  44.896   1.480
 8545W        W74954  35.116  44.422   5.063
 8546W        W74955   1.936   1.883  11.099
 8547W        W74956   4.392  13.712  13.130
 8548W        W74957  40.772   8.679   4.777
 8549W        W74958  38.883  37.403   4.957
 8550W        W74959   3.295  35.423  11.982
 8551W        W74960  39.575  39.513  13.434
 8552W        W74961  31.660  18.739   1.448
 8553W        W74962  31.642   7.388  12.334
 8554W        W74963  19.014  18.218   4.197
 8555W        W74964  41.558  27.456  10.541
 8556W        W74965  30.028  20.082   3.364
 8557W        W74966  36.924  29.113  12.633
 8558W        W74967   4.157  15.632  10.637
 8559W        W74968   0.734  32.302  12.594
 8560W        W74969   5.746  27.209   2.979
 8561W        W74970  27.236  42.405   0.802
 8562W        W74971  44.769  41.363   0.008
 8563W        W74972  12.712  35.092  13.467
 8564W        W74973  27.641  42.327  11.238
 8565W        W74974  18.157  33.963  14.016
 8566W        W74975  42.283  14.154   3.701
 8567W        W74976  30.793   3.842   4.477
 8568W        W74977   0.363  10.831   3.269
 8569W        W74978   4.416  26.751  13.351
 8570W        W74979  21.171   5.838   1.691
 8571W        W74980   7.194  34.359   3.917
 8572W        W74981   0.689  41.421  12.387
 8573W        W74982  11.624   4.933  13.966
 8574W        W74983  19.506  15.727  10.632
 8575W        W74984  27.429  33.832  13.844
 8576W        W74985  10.854   9.802  13.798
 8577W        W74986  20.518  19.134  12.618
 8578W        W74987  40.266  22.672  10.984
 8579W        W74988  44.049  30.131   3.163
 8580W        W74989  38.803  15.977   4.182
 8581W        W74990  27.081  33.947   4.283
 8582W        W74991  26.609   7.900  14.339
 8583W        W74992   5.159  10.424  11.525
 8584W        W74993  15.688  42.603   4.069
 8585W        W74994  44.193  32.029  14.380
 8586W        W74995   4.942  36.330  14.394
 8587W        W74996  24.573  11.162   4.512
 8588W        W74997  13.435  40.369  11.662
 8589W        W74998  29.473  22.090  11.494
 8590W        W74999  11.236  27.791  13.732
 8591W        W75000  27.895  12.825   0.121
 8592W        W75001   6.379  37.369   2.841
 8593W        W75002   2.442   1.798   0.623
 8594W        W75003  17.785  10.851   0.091
 8595W        W75004  40.000   9.973  14.325
 8596W        W75005  36.585  26.878   3.685
 8597W        W75006  44.047  17.460   1.346
 8598W        W75007  17.834  35.927  13.041
 8599W        W75008  42.706  36.419   1.262
 8600W        W75009  39.416  44.968  13.564
 8601W        W75010   1.488   3.381   3.670
 8602W        W75011  37.980  27.431  14.033
 8603W        W75012  35.084  32.240  12.726
 8604W        W75013  38.945  18.641  11.203
 8605W        W75014   5.327  31.153  12.664
 8606W        W75015   8.896  20.579  14.710
 8607W        W75016  36.099  29.904   1.744
 8608W        W75017  10.602   1.957  11.003
 8609W        W75018  31.424  10.742  14.319
 8610W        W75019  44.863   0.648  14.096
 8611W        W75020  44.199  44.466   0.852
 8612W        W75021  14.941   2.968  11.510
 8613W        W75022  24.463  26.093   2.416
 8614W        W75023   5.490  31.606   3.327
 8615W        W75024  43.025  23.225  14.492
 8616W        W75025  19.547  13.291  14.527
 8617W        W75026   1.820   1.310  14.351
 8618W        W75027  43.468   3.254   3.588
 8619W        W75028  26.125  43.074  10.642
 8620W        W75029  38.190  13.235  11.183
 8621W        W75030   4.831  16.225   0.748
 8622W        W75031   4.803  43.227  10.571
 8623W        W75032  12.203   9.908  11.358
 8624W        W75033  27.613  29.002  13.808
 8625W        W75034   7.178   6.385   2.769
 8626W        W75035  19.076  25.421   4.132
 8627W        W75036  24.186  11.114  11.199
 8628W        W75037  41.533  36.903   1.281
 8629W        W75038  24.913  44.112  11.170
 8630W        W75039  25.795  15.320  14.726
 8631W        W75040   7.936  30.671  13.992
 8632W        W75041  14.051  40.576  13.429
 8633W        W75042  19.158  15.066  12.080
 8634W        W75043  35.322  12.084   3.303
 8635W        W75044   3.962  44.473  12.534
 8636W        W75045  10.226   5.254  12.421
 8637W        W75046  11.183   2.822  12.697
 8638W        W75047  37.548  13.592   3.762
 8639W        W75048  36.802  13.604   1.465
 8640W        W75049  38.082   8.371  13.862
 8641W        W75050   6.789  22.837  10.826
 8642W        W75051  28.170  28.449   1.363
 8643W        W75052  39.382   8.963   9.816
 8644W        W75053   2.302  39.627  10.729
 8645W        W75054  12.441   5.008  13.057
 8646W        W75055  21.293   0.310   3.379
 8647W        W75056  26.067   0.788  10.530
 8648W        W75057  42.398  22.487   0.828
 8649W        W75058  28.863  32.505   1.848
 8650W        W75059  17.575  22.264  10.545
 8651W        W75060  14.328  11.132   2.841
 8652W        W75061  41.534   2.318  14.361
 8653W        W75062  24.245  43.754   1.901
 8654W        W75063  18.403  40.028   1.131
 8655W        W75064  34.348  22.608   3.246
 8656W        W75065  25.586  19.491   3.702
 8657W        W75066  24.316  19.759  10.680
 8658W        W75067  10.541  26.181  11.283
 8659W        W75068   8.938  34.042  13.359
 8660W        W75069   8.224   2.255  11.978
 8661W        W75070   2.729   8.795   0.060
 8662W        W75071  12.029   2.245   0.287
 8663W        W75072  36.006  19.159   1.185
 8664W        W75073   1.227  33.641  10.514
 8665W        W75074  32.182   2.464  11.580
 8666W        W75075  12.717  15.513  11.229
 8667W        W75076  25.540  18.927  14.903
 8668W        W75077  28.009  28.376   2.816
 8669W        W75078   7.788  39.043  14.930
 8670W        W75079  12.339  17.766   4.014
 8671W        W75080   3.052  37.894   0.508
 8672W        W75081  37.422   2.039  13.973
 8673W        W75082  36.844  37.514   1.929
 8674W        W75083   8.422  38.538   1.800
 8675W        W75084  11.340   5.659   3.744
 8676W        W75085  19.068   6.701   3.524
 8677W        W75086  44.102  42.990   3.376
 8678W        W75087   5.772   2.993   0.820
 8679W        W75088  44.714   0.770  14.744
 8680W        W75089  25.033   3.165  13.316
 8681W        W75090  36.147  23.112   1.017
 8682W        W75091  43.377  39.028   3.223
 8683W        W75092  31.935  29.521   1.847
 8684W        W75093  20.726   3.212   0.830
 8685W        W75094  25.005  39.945   4.765
 8686W        W75095   1.541   3.312  13.441
 8687W        W75096  40.039  42.364   3.657
 8688W        W75097  41.029  13.135  14.688
 8689W        W75098  17.251   5.212   4.849
 8690W        W75099  28.661  32.140  13.306
 8691W        W75100  31.394  14.168   3.872
 8692W        W75101  13.206  17.287   1.870
 8693W        W75102   4.725  31.459   0.280
 8694W        W75103  18.638  39.597  10.469
 8695W        W75104  37.882  22.689   2.137
 8696W        W75105   0.806  14.071   1.353
 8697W        W75106   9.877   1.053   0.375
 8698W        W75107  17.282  25.143   2.268
 8699W        W75108  18.479  28.885   3.289
 8700W        W75109  31.660   6.875   1.543
 8701W        W75110  20.927  19.405   2.640
 8702W        W75111  40.596  29.551  14.920
 8703W        W75112  20.003  18.807   0.218
 8704W        W75113  40.472  41.363  10.732
 8705W        W75114  28.289  26.458   2.833
 8706W        W75115  32.930   4.861  13.312
 8707W        W75116  12.874  38.221   5.313
 8708W        W75117   5.331  30.952  13.504
 8709W        W75118  28.764   0.421  10.603
 8710W        W75119  33.495   2.992   1.875
 8711W        W75120   5.428  10.792   4.518
 8712W        W75121  26.419  34.231  12.612
 8713W        W75122  23.001   6.434  12.312
 8714W        W75123  13.469  27.144  12.597
 8715W        W75124   1.920  10.906   1.038
 8716W        W75125  11.867  17.202  13.672
 8717W        W75126   4.292  15.582   1.655
 8718W        W75127  21.492  41.322  12.498
 8719W        W75128   8.616  18.467   0.323
 8720W        W75129   6.338  41.834   0.523
 8721W        W75130  27.574  38.704   0.040
 8722W        W75131  16.664   4.584   0.332
 8723W        W75132  29.339  27.164   0.490
 8724W        W75133   3.759  12.233  10.595
 8725W        W75134  43.055   0.489   2.308
 8726W        W75135   3.949   7.774   1.338
 8727W        W75136   5.252   0.285  13.135
 8728W        W75137  21.012  19.433  12.976
 8729W        W75138   0.844  19.124   4.019
 8730W        W75139  10.515  22.313  12.571
 8731W        W75140  41.862   1.263  14.864
 8732W        W75141  23.622  39.260  14.428
 8733W        W75142  22.128  39.264   3.184
 8734W        W75143  18.012  10.167   0.731
 8735W        W75144  30.459  18.674   3.355
 8736W        W75145  14.472  19.065  10.438
 8737W        W75146  43.842  16.895  13.422
 8738W        W75147  19.557   1.736  10.640
 8739W        W75148   3.861  28.957   1.278
 8740W        W75149  18.984  15.323   4.212
 8741W        W75150  40.935  18.707   4.710
 8742W        W75151   8.562   4.066  10.918
 8743W        W75152  43.950  26.429   1.444
 8744W        W75153  22.678  41.956  14.390
 8745W        W75154   8.451   2.844   3.304
 8746W        W75155  16.443  19.848   1.814
 8747W        W75156  28.029   2.386  13.977
 8748W        W75157  34.315  24.731   2.598
 8749W        W75158  26.919   7.895   2.607
 8750W        W75159   6.924  22.980   4.081
 8751W        W75160  15.654  34.577   0.322
 8752W        W75161  26.466  41.935   3.954
 8753W        W75162  10.704  43.754   4.096
 8754W        W75163  32.662  27.887  11.873
 8755W        W75164  11.908  21.529   0.283
 8756W        W75165  37.035  30.477  12.398
 8757W        W75166  15.183  42.468  12.909
 8758W        W75167  41.837   0.388   2.610
 8759W        W75168  29.383   5.391   4.487
 8760W        W75169  11.082  23.252  13.913
 8761W        W75170  23.242  39.824  10.767
 8762W        W75171  36.026   3.745  12.818
 8763W        W75172  19.644  30.748   4.459
 8764W        W75173  14.890  37.770   3.110
 8765W        W75174  22.139  20.954  10.886
 8766W        W75175   7.180  38.824   2.900
 8767W        W75176   0.051   1.967  10.933
 8768W        W75177   3.014  30.166   3.226
 8769W        W75178  18.959  16.550  10.655
 8770W        W75179  14.460  36.406  14.445
 8771W        W75180  40.987  26.866   1.817
 8772W        W75181  35.109  10.931   3.729
 8773W        W75182   4.844  12.350   4.727
 8774W        W75183   7.534   0.911  11.940
 8775W        W75184   9.882  17.174  14.842
 8776W        W75185  34.958   1.808   3.874
 8777W        W75186  22.279   0.029  11.389
 8778W        W75187  42.769  32.563  10.572
 8779W        W75188  12.350  25.987  14.432
 8780W        W75189  15.330  14.615   4.477
 8781W        W75190  21.514  18.054  11.208
 8782W        W75191   5.513  12.539  13.376
 8783W        W75192  13.739  16.195  12.907
 8784W        W75193  24.748  12.684  13.592
 8785W        W75194  38.332  14.821   5.025
 8786W        W75195  28.251  38.361  12.458
 8787W        W75196   9.087  10.169  12.498
 8788W        W75197  30.155  40.386   1.331
 8789W        W75198  17.575   6.279  10.444
 8790W        W75199  27.205  14.858  13.544
 8791W        W75200  40.155  27.991  12.602
 8792W        W75201  43.839   7.223  11.574
 8793W        W75202  43.102  33.751   5.032
 8794W        W75203  15.058  10.828   4.012
 8795W        W75204  25.971  30.581   2.025
 8796W        W75205  13.676  13.810   4.032
 8797W        W75206  34.477  13.780   0.354
 8798W        W75207  28.182   5.378  14.316
 8799W        W75208  39.073  13.795   5.030
 8800W        W75209  22.283  32.521   0.438
 8801W        W75210  39.659  37.235   1.819
 8802W        W75211  24.064   2.030  13.038
 8803W        W75212  28.989   1.676  11.207
 8804W        W75213   8.968  14.338   2.289
 8805W        W75214  17.050   0.939  10.132
 8806W        W75215  30.150  41.705   3.954
 8807W        W75216  42.983  20.220  13.391
 8808W        W75217  38.103  15.224   1.627
 8809W        W75218  44.813  38.590   0.730
 8810W        W75219   5.415  18.260   0.986
 8811W        W75220  32.451   9.841  14.591
 8812W        W75221  11.392  25.490  14.883
 8813W        W75222  32.989  42.000   3.573
 8814W        W75223  36.467   9.210   0.209
 8815W        W75224   5.664  27.603  10.911
 8816W        W75225   6.410   8.363  13.696
 8817W        W75226  20.007  12.210  12.434
 8818W        W75227  12.375  13.843  10.613
 8819W        W75228   6.832  12.810  11.208
 8820W        W75229  39.453  29.986   3.787
 8821W        W75230  24.700  19.724  11.020
 8822W        W75231  10.731   6.154   3.213
 8823W        W75232   9.158  20.650  14.269
 8824W        W75233   7.618   9.896   1.423
 8825W        W75234  11.391  19.777  14.522
 8826W        W75235  16.849  38.942  12.256
 8827W        W75236   8.162   7.872  11.564
 8828W        W75237  38.127  43.956  11.996
 8829W        W75238   4.718  17.712   0.900
 8830W        W75239  10.346  19.040   4.085
 8831W        W75240  15.308  14.621  13.182
 8832W        W75241  22.186   5.792  13.070
 8833W        W75242  16.743  44.900  10.299
 8834W        W75243  39.226  28.646   0.304
 8835W        W75244  34.118  29.126   0.902
 8836W        W75245  28.620  23.657   0.254
 8837W        W75246  19.396  25.069  10.998
 8838W        W75247  38.397  12.039   0.328
 8839W        W75248  25.774  29.515   0.322
 8840W        W75249  40.808  44.059   1.832
 8841W        W75250  35.576  35.609  11.515
 8842W        W75251  14.639  11.168   1.871
 8843W        W75252  38.608  17.202  12.087
 8844W        W75253  28.837   1.338  10.793
 8845W        W75254   7.676  18.660   2.460
 8846W        W75255  20.571  10.770  12.007
 8847W        W75256   0.210  23.984  11.576
 8848W        W75257  28.964   6.705   0.040
 8849W        W75258  19.311  13.782  14.505
 8850W        W75259  30.052  31.986   3.793
 8851W        W75260  38.879   8.732  12.465
 8852W        W75261  30.354   7.294  14.862
 8853W        W75262  28.056  35.994  12.151
 8854W        W75263  37.912   5.291  13.364
 8855W        W75264  34.056  31.339  12.668
 8856W        W75265  42.482  38.034  14.692
 8857W        W75266   5.896  39.751  10.637
 8858W        W75267  34.994   7.793  13.110
 8859W        W75268  21.630   0.867   2.719
 8860W        W75269  28.649  16.197   4.329
 8861W        W75270   7.822  30.677   4.574
 8862W        W75271  23.610  33.098  12.006
 8863W        W75272  18.084  41.991  13.540
 8864W        W75273  17.844  39.886   1.374
 8865W        W75274   9.694  38.596  11.208
 8866W        W75275  43.311  42.888   2.699
 8867W        W75276  28.443   2.931   3.836
 8868W        W75277  34.931  40.476   4.152
 8869W        W75278  27.783  10.702  10.683
 8870W        W75279   8.551  34.193  10.751
 8871W        W75280  38.513   0.025  14.453
 8872W        W75281   0.352  33.470   2.402
 8873W        W75282  35.391  44.694   4.150
 8874W        W75283  12.258  28.962   1.672
 8875W        W75284   5.436  23.109  13.980
 8876W        W75285  16.045   0.860   2.337
 8877W        W75286   1.877  43.198   2.855
 8878W        W75287  14.695  41.325  11.589
 8879W        W75288  18.863  43.865  12.513
 8880W        W75289  34.163  24.414  11.653
 8881W        W75290  15.207  10.956  13.523
 8882W        W75291  40.874  33.479  10.943
 8883W        W75292  36.874  10.601  10.821
 8884W        W75293   1.475   8.098   4.139
 8885W        W75294   5.201  43.839   1.074
 8886W        W75295  31.178  21.607  14.759
 8887W        W75296  40.638  27.933   3.233
 8888W        W75297   1.728  33.953  14.774
 8889W        W75298   0.963  20.750   0.724
 8890W        W75299   6.449  10.719   4.316
 8891W        W75300  43.767   4.285  12.525
 8892W        W75301  19.045  15.452  12.513
 8893W        W75302  27.631   0.002   2.217
 8894W        W75303   4.844   3.507  14.068
 8895W        W75304   6.616  20.093  13.452
 8896W        W75305  23.729  28.068   4.589
 8897W        W75306  21.036  31.853   2.729
 8898W        W75307  28.166  44.756  11.625
 8899W        W75308  24.113  23.082  13.385
 8900W        W75309  33.289  37.031   0.950
 8901W        W75310  32.053   5.722   2.716
 8902W        W75311  34.988  19.801   3.228
 8903W        W75312   9.219  44.517   2.688
 8904W        W75313  13.889  13.065  11.533
 8905W        W75314   5.264  11.494  11.181
 8906W        W75315  24.488  21.357  11.895
 8907W        W75316  16.268  22.264  11.877
 8908W        W75317   3.302  12.595  11.154
 8909W        W75318  42.592  41.979   4.267
 8910W        W75319  30.203  21.912  12.116
 8911W        W75320  25.085  32.644  14.690
 8912W        W75321  30.611  20.646   2.634
 8913W        W75322   9.859  16.106  13.002
 8914W        W75323  44.842  33.413  12.186
 8915W        W75324   5.452   4.975  10.732
 8916W        W75325   3.202  19.173   2.861
 8917W        W75326  18.064  36.070  13.473
 8918W        W75327  27.979  13.143  11.122
 8919W        W75328  21.692  30.247   4.633
 8920W        W75329  31.875  30.231  11.284
 8921W        W75330  11.939  44.714  10.846
 8922W        W75331  40.047  13.254  13.429
 8923W        W75332  40.223  44.720   0.264
 8924W        W75333  34.554  37.430   1.423
 8925W        W75334  37.852  44.099   3.174
 8926W        W75335   9.381  27.719   4.484
 8927W        W75336  20.025  24.647  12.984
 8928W        W75337   3.242   9.144   0.804
 8929W        W75338  41.848  31.594  12.004
 8930W        W75339   6.902  11.413   0.946
 8931W        W75340   2.207   4.216  11.619
 8932W        W75341  27.283  15.118   3.218
 8933W        W75342  24.912   4.310  12.525
 8934W        W75343  35.117  41.490   0.819
 8935W        W75344  28.407  26.785   4.211
 8936W        W75345  21.315   3.981  10.458
 8937W        W75346   4.188  22.147   1.780
 8938W        W75347  19.524  41.354  11.697
 8939W        W75348  32.437  42.992   2.716
 8940W        W75349  24.054  44.808  12.684
 8941W        W75350  17.831  44.534  12.521
 8942W        W75351  41.841  18.771  12.145
 8943W        W75352  23.137  12.886   2.666
 8944W        W75353   9.849  42.193  14.850
 8945W        W75354  11.280  35.335  11.573
 8946W        W75355   9.199  44.015   3.520
 8947W        W75356  25.674  44.820   4.147
 8948W        W75357  32.945  14.216  11.680
 8949W        W75358  10.021  41.299  11.523
 8950W        W75359  38.022  25.534  14.224
 8951W        W75360   1.404  35.858   4.587
 8952W        W75361  29.671  32.550  13.017
 8953W        W75362  24.341  36.396  12.011
 8954W        W75363  27.662  26.074  12.191
 8955W        W75364   6.545  32.574  13.069
 8956W        W75365  30.511   3.703   2.199
 8957W        W75366  15.779  35.472   0.031
 8958W        W75367  20.681  35.876   2.120
 8959W        W75368   3.716  35.875  14.318
 8960W        W75369  27.167  32.800   0.028
 8961W        W75370  30.857  34.485  14.413
 8962W        W75371  23.030  12.105   0.249
 8963W        W75372  32.648  14.689  14.029
 8964W        W75373  31.069  26.043   4.916
 8965W        W75374  39.358  42.387  14.761
 8966W        W75375  40.565  42.389  14.733
 8967W        W75376   9.269   9.128  14.678
 8968W        W75377  26.534   4.144  11.460
 8969W        W75378   3.429   8.389  14.337
 8970W        W75379   3.501   5.755  13.747
 8971W        W75380   0.426  25.119  14.285
 8972W        W75381  39.511  36.856   4.993
 8973W        W75382  34.175   3.791   0.799
 8974W        W75383  25.225   6.672  13.935
 8975W        W75384  41.300  34.816   0.872
 8976W        W75385  42.041  14.780   3.628
 8977W        W75386  39.919  32.009   1.731
 8978W        W75387  28.117  30.752  14.388
 8979W        W75388   1.182  18.004   0.737
 8980W        W75389  18.358  17.211   3.654
 8981W        W75390  43.321  39.438   0.859
 8982W        W75391  36.442   0.398   3.651
 8983W        W75392  20.331   2.547   4.124
 8984W        W75393  39.036  13.626   3.183
 8985W        W75394  39.361   2.390   3.376
 8986W        W75395  18.038  36.504   4.232
 8987W        W75396  34.880  44.246   3.578
 8988W        W75397  15.087  43.857  11.013
 8989W        W75398  44.114  24.556   1.355
 8990W        W75399   5.996  21.244  14.039
 8991W        W75400   2.691  20.617   2.235
 8992W        W75401  13.306   3.952  12.336
 8993W        W75402  36.098  41.297   1.013
 8994W        W75403  18.514  39.371  13.109
 8995W        W75404  26.003  33.002   4.728
 8996W        W75405  26.212  17.138  11.410
 8997W        W75406  36.423  22.677  14.871
 8998W        W75407  19.332  37.397  13.245
 8999W        W75408  30.970  11.769  11.553
 9000W        W75409  27.067  17.675   4.371
 9001W        W75410  43.807  17.527   2.751
 9002W        W75411  39.035  32.231   3.446
 9003W        W75412  20.995  25.142  12.446
 9004W        W75413  25.761  42.430  11.162
 9005W        W75414  11.845  33.679   3.796
 9006W        W75415  13.143  27.727  13.353
 9007W        W75416  22.773   4.359   2.833
 9008W        W75417  23.774  18.109   4.962
 9009W        W75418   4.215   4.562  13.346
 9010W        W75419   4.302  40.279  12.473
 9011W        W75420  12.650  17.083   1.012
 9012W        W75421   4.481   9.782  11.079
 9013W        W75422  22.592   3.389   4.802
 9014W        W75423  11.826   1.943  14.358
 9015W        W75424  23.049  28.845   0.411
 9016W        W75425  29.085  13.863  14.277
 9017W        W75426  26.560  36.418  12.414
 9018W        W75427  33.767   3.890  14.100
 9019W        W75428   6.451   7.228   5.028
 9020W        W75429  22.698  36.155  14.473
 9021W        W75430  16.085  41.504  11.459
 9022W        W75431   5.119  43.393   3.725
 9023W        W75432  20.732  10.384  11.343
 9024W        W75433  21.703  41.052  13.049
 9025W        W75434  32.585  12.427   0.889
 9026W        W75435  40.066   1.593  13.977
 9027W        W75436  17.796   1.909  12.515
 9028W        W75437  30.434   0.459   0.983
 9029W        W75438  21.159  16.264  10.909
 9030W        W75439   5.092  20.709  14.067
 9031W        W75440  23.904  44.449  14.295
 9032W        W75441  11.801  29.390   4.536
 9033W        W75442  34.851  17.225  11.209
 9034W        W75443  32.362   2.792  12.995
 9035W        W75444  30.129  40.891   1.002
 9036W        W75445   9.961   4.873   1.539
 9037W        W75446   4.569  28.156   4.275
 9038W        W75447  30.355  18.960   4.418
 9039W        W75448  34.352  11.748  13.300
 9040W        W75449  36.527   1.683   0.643
 9041W        W75450   8.476  12.754  12.792
 9042W        W75451  32.917  19.207  12.306
 9043W        W75452  42.116  37.199   4.153
 9044W        W75453  29.822  31.536   3.500
 9045W        W75454  25.557  18.665  11.825
 9046W        W75455  16.612  41.371  11.012
 9047W        W75456  32.058   5.072   4.028
 9048W        W75457   6.886   0.862   4.957
 9049W        W75458  19.658  44.221   4.500
 9050W        W75459  15.256  19.186  14.039
 9051W        W75460   1.333  33.812  13.942
 9052W        W75461  23.660   2.172  11.978
 9053W        W75462  26.461  17.907  11.074
 9054W        W75463  19.494  19.189  14.286
 9055W        W75464  39.717  40.635   0.178
 9056W        W75465  12.935  12.303  13.998
 9057W        W75466  10.248  15.690   1.531
 9058W        W75467   7.475  14.268  13.016
 9059W        W75468  13.707  42.463   4.905
 9060W        W75469  43.342  42.296   0.789
 9061W        W75470  12.796  19.609  12.969
 9062W        W75471  29.484  17.093   0.800
 9063W        W75472  28.694   8.172   3.455
 9064W        W75473  10.860  29.674  10.671
 9065W        W75474  30.689  25.290  14.729
 9066W        W75475   8.058  33.436   2.693
 9067W        W75476  10.082  18.348  12.649
 9068W        W75477   5.300  13.635   4.355
 9069W        W75478  14.681  27.590  11.617
 9070W        W75479   7.931  36.843   4.564
 9071W        W75480  36.435  11.279   4.834
 9072W        W75481   8.299  33.399  14.109
 9073W        W75482   2.199  25.853   1.872
 9074W        W75483  18.454  11.626  10.926
 9075W        W75484  17.236   4.091  12.035
 9076W        W75485  22.543  21.189   2.208
 9077W        W75486   9.960  21.089   1.744
 9078W        W75487  35.738  44.972   3.159
 9079W        W75488  16.910  30.502   0.851
 9080W        W75489  44.990   1.985  13.589
 9081W        W75490   4.761  33.660  13.826
 9082W        W75491  27.472   1.237   1.224
 9083W        W75492  21.300  10.364   2.285
 9084W        W75493   5.307  35.697  14.880
 9085W        W75494  20.991  30.145  12.065
 9086W        W75495  42.940  15.067   0.862
 9087W        W75496  41.361  41.311   1.936
 9088W        W75497  21.497   8.404   4.270
 9089W        W75498  17.031  20.041   4.914
 9090W        W75499  37.782  11.058  10.858
 9091W        W75500  39.024  43.338   1.913
 9092W        W75501  16.435  10.394  14.969
 9093W        W75502  21.756  14.193   0.349
 9094W        W75503  20.773  22.520  12.510
 9095W        W75504  20.772   9.655  11.113
 9096W        W75505  10.751  25.754  13.585
 9097W        W75506   4.919  11.654   1.649
 9098W        W75507  37.506  31.407   4.498
 9099W        W75508   5.839  27.928   1.319
 9100W        W75509  19.698  42.316   1.665
 9101W        W75510  17.525  43.869   1.270
 9102W        W75511  13.338   0.501  13.405
 9103W        W75512  33.192   3.428   3.200
 9104W        W75513  44.801   2.183  14.005
 9105W        W75514  18.009  15.079  14.791
 9106W        W75515  43.425   4.288   3.972
 9107W        W75516  23.951   8.478  14.696
 9108W        W75517  19.021  21.001   1.455
 9109W        W75518  33.516  32.154   1.136
 9110W        W75519  17.842  14.558   1.273
 9111W        W75520   9.309  41.537  12.580
 9112W        W75521  15.150  35.662  14.557
 9113W        W75522  38.120   1.341   4.570
 9114W        W75523  41.012  32.580   2.627
 9115W        W75524  26.249   6.996  11.290
 9116W        W75525  41.456   4.919   4.629
 9117W        W75526  29.559  44.938   1.327
 9118W        W75527  17.604  32.449   1.626
 9119W        W75528  26.974  23.243  12.909
 9120W        W75529  30.055   5.796   3.249
 9121W        W75530   4.728   2.926   1.301
 9122W        W75531  18.809  24.463  11.066
 9123W        W75532  13.724  43.917   3.915
 9124W        W75533  36.019   5.615  12.935
 9125W        W75534  35.985  18.322  14.409
 9126W        W75535   0.206  38.906   0.913
 9127W        W75536   2.661  34.118  13.411
 9128W        W75537  25.015  29.252   2.114
 9129W        W75538  20.977  28.095  12.432
 9130W        W75539  17.846  33.385  13.864
 9131W        W75540  31.168  15.189  11.627
 9132W        W75541  37.801  38.240   0.264
 9133W        W75542  21.315   1.761   0.510
 9134W        W75543  14.255  25.040  12.455
 9135W        W75544  21.727  20.285   3.938
 9136W        W75545  24.109  30.194   1.438
 9137W        W75546  19.089  21.051  13.853
 9138W        W75547  24.222  42.825  13.585
 9139W        W75548  37.905  11.138   1.027
 9140W        W75549   2.237  34.064  14.457
 9141W        W75550  35.844  30.101   4.031
 9142W        W75551  20.235  14.689   0.471
 9143W        W75552  15.762   3.884   0.083
 9144W        W75553  18.222   6.687  12.020
 9145W        W75554  23.315  42.861   3.131
 9146W        W75555  29.371   3.190   1.961
 9147W        W75556   4.853  29.072   3.886
 9148W        W75557   9.658  35.455  11.148
 9149W        W75558   8.840  13.814   1.117
 9150W        W75559   5.713  34.393   2.801
 9151W        W75560   0.708   4.731   3.122
 9152W        W75561  36.117   7.300  10.501
 9153W        W75562  26.189  41.915   4.470
 9154W        W75563  28.568   0.853   4.367
 9155W        W75564  34.497   0.667   9.721
 9156W        W75565  16.846  19.582   1.547
 9157W        W75566  36.735  30.584   3.409
 9158W        W75567  26.209   0.746   0.329
 9159W        W75568   7.943   8.884   3.189
 9160W        W75569  17.747   5.758  11.669
 9161W        W75570   5.897   2.685  13.426
 9162W        W75571  41.459   9.325  12.528
 9163W        W75572  26.513   3.347   3.373
 9164W        W75573   1.911  35.850  13.458
 9165W        W75574  36.366  20.582   4.680
 9166W        W75575  14.210   5.926  12.425
 9167W        W75576  41.120  42.291  12.864
 9168W        W75577  34.577   6.371   3.090
 9169W        W75578  40.963   1.785  13.481
 9170W        W75579  27.913  43.260  12.335
 9171W        W75580   8.363   2.277   0.795
 9172W        W75581   8.541  38.500  11.606
 9173W        W75582  24.929  17.481   4.169
 9174W        W75583  20.564  42.431  12.836
 9175W        W75584  17.580  14.101  14.474
 9176W        W75585  37.416   9.893  11.716
 9177W        W75586   5.028  35.398   3.297
 9178W        W75587  40.577   9.414   0.281
 9179W        W75588  41.047  20.566  14.074
 9180W        W75589  19.835  19.648  13.514
 9181W        W75590   2.295   8.231   4.711
 9182W        W75591   8.373  33.593   2.276
 9183W        W75592  23.613  20.298   1.218
 9184W        W75593  25.093   4.417   3.787
 9185W        W75594  13.051  40.427   3.657
 9186W        W75595  13.854  44.045   0.832
 9187W        W75596  29.793  21.275  10.921
 9188W        W75597  38.641   1.758  14.892
 9189W        W75598   9.555   6.110   1.741
 9190W        W75599  32.075  40.353  13.522
 9191W        W75600  38.052  13.552   2.586
 9192W        W75601  14.040  19.011   0.542
 9193W        W75602  38.692  20.565  10.077
 9194W        W75603  19.546  31.603  12.033
 9195W        W75604  12.541  16.737  12.100
 9196W        W75605  15.730   7.123  14.384
 9197W        W75606  23.582  11.569   2.917
 9198W        W75607   7.420  31.806  12.089
 9199W        W75608  41.803  29.087   3.752
 9200W        W75609  21.748   4.226  14.301
 9201W        W75610  27.097  38.890   1.875
 9202W        W75611   5.400   6.268   3.218
 9203W        W75612  29.022  40.841   4.447
 9204W        W75613  31.865  19.564  11.446
 9205W        W75614  38.074  33.090  12.997
 9206W        W75615   0.867  29.218  11.053
 9207W        W75616  34.423  33.965   1.426
 9208W        W75617  39.878  31.140  13.865
 9209W        W75618  25.188  18.632  10.579
 9210W        W75619  27.072  27.244   4.511
 9211W        W75620  42.995   3.463  11.953
 9212W        W75621  38.001   3.525  11.661
 9213W        W75622  37.539  23.327  13.757
 9214W        W75623   7.394  39.386  12.479
 9215W        W75624   4.433  37.035   0.585
 9216W        W75625  31.280   0.514  14.360
 9217W        W75626  18.873  25.835   3.812
 9218W        W75627  15.446  36.687  10.275
 9219W        W75628  12.729   1.792   2.357
 9220W        W75629  39.335  36.317   2.578
 9221W        W75630  43.848  21.761   2.764
 9222W        W75631  35.488  40.809   3.836
 9223W        W75632  20.842   7.562  14.731
 9224W        W75633  41.983  22.523   1.162
 9225W        W75634  20.702  39.049  10.937
 9226W        W75635  10.922  36.565   1.085
 9227W        W75636  35.069  23.490  11.998
 9228W        W75637  30.749  44.211  12.204
 9229W        W75638  11.709   5.795  11.208
 9230W        W75639   7.305  27.690  11.333
 9231W        W75640  29.852  35.375  12.134
 9232W        W75641  16.390  37.206   0.105
 9233W        W75642  40.962  10.182   3.207
 9234W        W75643   2.742  40.594  13.544
 9235W        W75644  42.067   2.329   2.055
 9236W        W75645   8.621   5.330   4.631
 9237W        W75646  21.606  34.716  11.962
 9238W        W75647  26.197   0.061   3.533
 9239W        W75648   4.636  13.085  14.924
 9240W        W75649   7.272   1.210  13.454
 9241W        W75650   2.916  38.139  13.462
 9242W        W75651  43.305   3.957   0.402
 9243W        W75652   8.671  30.407   3.249
 9244W        W75653  44.457  36.258   2.417
 9245W        W75654  11.136   3.853   1.321
 9246W        W75655  17.138  16.803   1.479
 9247W        W75656  29.612   1.150  11.486
 9248W        W75657  42.074  26.272   3.689
 9249W        W75658  31.960  35.621  14.518
 9250W        W75659  38.335  38.251   0.308
 9251W        W75660  40.746  16.810   1.204
 9252W        W75661  23.235   2.266   4.493
 9253W        W75662  15.204  22.189  13.321
 9254W        W75663  20.053  25.556   3.246
 9255W        W75664   2.238  12.207   4.297
 9256W        W75665  36.508  32.760   4.128
 9257W        W75666   8.948   4.457   3.677
 9258W        W75667  30.407  39.498  14.876
 9259W        W75668   3.372  28.963   0.876
 9260W        W75669  27.651  26.507  14.267
 9261W        W75670  22.682  38.401  11.543
 9262W        W75671   5.988  31.849   3.402
 9263W        W75672  28.506  24.095  11.532
 9264W        W75673  25.481   8.752   3.780
 9265W        W75674  37.939  44.986  13.791
 9266W        W75675  28.550  22.167   4.039
 9267W        W75676  39.596  41.756   4.163
 9268W        W75677   1.526  23.827  14.254
 9269W        W75678  28.323  11.116   2.395
 9270W        W75679  23.045  26.096   2.008
 9271W        W75680  17.518  27.609  12.182
 9272W        W75681   6.994  22.059   2.307
 9273W        W75682  10.744   6.442  14.266
 9274W        W75683  18.157  19.111   0.877
 9275W        W75684  28.078  33.689   4.101
 9276W        W75685  14.296   0.394  14.572
 9277W        W75686  40.561  27.915   2.379
 9278W        W75687  40.071  23.934  11.898
 9279W        W75688  35.609   4.151   1.363
 9280W        W75689  25.263  27.062   4.753
 9281W        W75690   3.652  31.959  14.521
 9282W        W75691  21.612  40.351   2.962
 9283W        W75692  17.776   8.927   4.492
 9284W        W75693  33.343  37.518  11.598
 9285W        W75694  40.503  44.389  10.346
 9286W        W75695   1.756  32.499   4.990
 9287W        W75696  22.160  10.636   4.603
 9288W        W75697  37.970  11.913  11.163
 9289W        W75698  18.635  40.774  12.714
 9290W        W75699  31.479  16.037   1.311
 9291W        W75700  31.397  42.392   4.080
 9292W        W75701   5.878  14.591  12.453
 9293W        W75702  41.202  35.217   3.561
 9294W        W75703   5.154   8.147   1.270
 9295W        W75704  11.628  21.223  10.253
 9296W        W75705  38.977  13.562  12.520
 9297W        W75706  17.803   3.277  13.323
 9298W        W75707  39.654  14.966   5.129
 9299W        W75708   9.564   0.651  11.131
 9300W        W75709  43.193  38.443  14.356
 9301W        W75710  29.422  34.825  11.016
 9302W        W75711  44.962   8.104  11.632
 9303W        W75712  44.069   2.668  14.477
 9304W        W75713  39.873  18.674  13.080
 9305W        W75714   0.679  25.584   1.231
 9306W        W75715  34.526  42.112   2.715
 9307W        W75716   0.017  22.384   3.252
 9308W        W75717  35.332   8.241   3.280
 9309W        W75718  25.006   5.881  12.353
 9310W        W75719  17.087   1.396  11.445
 9311W        W75720  37.192  30.109   4.127
 9312W        W75721  22.241   5.454  13.938
 9313W        W75722  24.394  16.378   1.882
 9314W        W75723  33.086  37.920   4.807
 9315W        W75724  28.923  16.108   1.288
 9316W        W75725  42.202  27.600  13.546
 9317W        W75726  14.819  17.127  13.100
 9318W        W75727  22.543  12.856  12.351
 9319W        W75728  22.213  16.108  11.575
 9320W        W75729  28.496  36.010   4.514
 9321W        W75730   5.852  16.806  14.865
 9322W        W75731   9.071  20.341  12.864
 9323W        W75732  28.576   0.674  11.626
 9324W        W75733  13.755  40.389   1.686
 9325W        W75734   1.910  32.297   0.450
 9326W        W75735  12.806  24.176  11.956
 9327W        W75736  18.077   8.657  14.662
 9328W        W75737  22.568  34.645  13.413
 9329W        W75738   6.145  43.415  11.652
 9330W        W75739  22.295   1.338   2.293
 9331W        W75740  42.100  20.037   2.222
 9332W        W75741   9.837  35.912  10.173
 9333W        W75742   7.825  27.012   2.595
 9334W        W75743   7.630  39.753   2.808
 9335W        W75744  30.409  21.476   1.238
 9336W        W75745  13.803  15.275  11.898
 9337W        W75746  37.611  25.342   2.327
 9338W        W75747  34.406   2.800   4.065
 9339W        W75748   4.838   3.878  14.813
 9340W        W75749  21.845   0.222   1.918
 9341W        W75750  24.984  25.106   4.454
 9342W        W75751  23.384  17.776   1.198
 9343W        W75752  22.003  28.383  14.292
 9344W        W75753  25.870  12.152  13.483
 9345W        W75754  15.983  22.278  12.868
 9346W        W75755  11.474  16.268  10.662
 9347W        W75756  40.299   6.904   0.086
 9348W        W75757  11.749  43.837   5.365
 9349W        W75758  18.075  23.297   0.303
 9350W        W75759  37.506  42.694   3.804
 9351W        W75760  37.403   2.464  14.497
 9352W        W75761  11.196   6.652   0.782
 9353W        W75762  22.833   3.557  11.441
 9354W        W75763  36.391  36.755   4.792
 9355W        W75764   6.403  37.001  11.498
 9356W        W75765  23.187  15.649  14.441
 9357W        W75766  33.004  19.592  12.956
 9358W        W75767  16.240  34.863   1.199
 9359W        W75768   7.731  32.712   3.226
 9360W        W75769  27.500   7.952   4.471
 9361W        W75770  39.922  30.039   4.075
 9362W        W75771  18.944  16.817   0.273
 9363W        W75772  36.388  44.867   0.683
 9364W        W75773   7.664  28.227   1.417
 9365W        W75774   0.091  34.136  11.664
 9366W        W75775  24.529  36.584   0.340
 9367W        W75776  20.560   5.013  14.306
 9368W        W75777   6.864  43.395   1.465
 9369W        W75778  40.710   6.717   4.138
 9370W        W75779  23.882  35.344   1.571
 9371W        W75780  21.611  22.684  10.751
 9372W        W75781   4.232   3.442   3.507
 9373W        W75782  29.634   4.146   5.011
 9374W        W75783   9.080  17.079   3.757
 9375W        W75784  34.441  22.175  12.128
 9376W        W75785  32.935  44.987   1.190
 9377W        W75786  40.665   7.048   0.894
 9378W        W75787  34.515   3.967  14.906
 9379W        W75788   0.646   3.002  12.660
 9380W        W75789   1.245  43.997  11.178
 9381W        W75790  28.173  26.204  14.902
 9382W        W75791  23.218  31.708   4.274
 9383W        W75792   5.224  22.978   1.547
 9384W        W75793  37.612  30.371  13.211
 9385W        W75794  38.762  38.569   2.767
 9386W        W75795  39.387  19.105  13.820
 9387W        W75796   8.401  44.348   1.814
 9388W        W75797  41.792  30.188   0.248
 9389W        W75798  25.092  26.441  11.926
 9390W        W75799  32.044  23.707   1.366
 9391W        W75800  44.699  37.536  13.933
 9392W        W75801  27.066  37.977  13.836
 9393W        W75802  39.757  10.606  12.925
 9394W        W75803   3.275   3.834   2.268
 9395W        W75804  41.849  21.901   4.623
 9396W        W75805  44.506  19.399  13.893
 9397W        W75806  41.812  32.044  14.485
 9398W        W75807  30.692  33.521  14.464
 9399W        W75808  10.120  24.526   2.356
 9400W        W75809  17.271  13.368   0.741
 9401W        W75810  43.744  11.172   0.262
 9402W        W75811  25.134  42.824   1.253
 9403W        W75812  26.038  13.853  10.502
 9404W        W75813  34.608   1.218  12.002
 9405W        W75814  15.072   0.433   4.295
 9406W        W75815  42.504  35.793   4.330
 9407W        W75816  29.126  29.464  12.310
 9408W        W75817  35.313  23.886  12.809
 9409W        W75818  38.584  15.257   3.731
 9410W        W75819  30.318   4.294   1.756
 9411W        W75820  38.324  42.334  12.028
 9412W        W75821  32.029  35.862  12.113
 9413W        W75822  24.672   4.804   4.318
 9414W        W75823  29.684   0.294  12.970
 9415W        W75824   0.944  29.419   3.385
 9416W        W75825  32.031  26.952  13.144
 9417W        W75826  15.133  17.248   4.269
 9418W        W75827  33.518   6.832   4.735
 9419W        W75828   9.972   4.264  11.552
 9420W        W75829   9.737  44.483   0.992
 9421W        W75830  22.544  26.101   1.316
 9422W        W75831  40.956  11.943  10.272
 9423W        W75832  21.810  10.134  13.505
 9424W        W75833  15.355  11.462  13.401
 9425W        W75834   4.952  41.007  14.486
 9426W        W75835  20.315  10.868  13.379
 9427W        W75836   5.839  26.113   3.523
 9428W        W75837  41.391   4.784  11.166
 9429W        W75838  12.878  43.773  13.372
 9430W        W75839  22.443  43.461  12.247
 9431W        W75840   1.441  35.995  10.626
 9432W        W75841  35.344  14.275  11.609
 9433W        W75842   3.026  40.549   1.208
 9434W        W75843   4.687  24.040   0.190
 9435W        W75844   7.331  19.314   2.737
 9436W        W75845  42.481   2.920  10.794
 9437W        W75846  37.886   2.175  11.868
 9438W        W75847  21.129  18.495  13.893
 9439W        W75848  24.545  17.137   4.182
 9440W        W75849  30.024  30.702   0.883
 9441W        W75850  20.527   5.698   0.305
 9442W        W75851  15.192  14.741  14.688
 9443W        W75852  42.323  42.766  14.772
 9444W        W75853  19.771  35.864   3.116
 9445W        W75854  43.690  11.774   3.332
 9446W        W75855  36.938  10.869  12.773
 9447W        W75856  41.041  22.557   4.565
 9448W        W75857  22.196  16.887   4.607
 9449W        W75858   1.422  40.585  12.072
 9450W        W75859  23.926  40.359   1.626
 9451W        W75860  10.936  30.936   3.301
 9452W        W75861  35.676  40.507  11.993
 9453W        W75862  23.497  11.807   3.384
 9454W        W75863   4.171  33.033   2.815
 9455W        W75864  38.935  21.460  14.446
 9456W        W75865  44.304  23.201  10.894
 9457W        W75866  29.129  33.902  11.429
 9458W        W75867   5.047   4.788  11.688
 9459W        W75868  40.300  22.645   2.383
 9460W        W75869  27.473  11.363   2.488
 9461W        W75870  27.116   0.406   4.604
 9462W        W75871  21.319  42.909  10.639
 9463W        W75872   7.422  25.762  14.059
 9464W        W75873   4.152  33.926  13.399
 9465W        W75874  41.428  44.845  11.154
 9466W        W75875   2.849   2.721   3.857
 9467W        W75876  12.133  37.109   9.909
 9468W        W75877  19.148   6.446  11.738
 9469W        W75878  21.710  14.570  13.509
 9470W        W75879   8.232  30.368   0.305
 9471W        W75880  13.655  43.313  10.734
 9472W        W75881  20.553  11.398   2.120
 9473W        W75882  17.514  32.743  11.949
 9474W        W75883   7.591  44.485  12.089
 9475W        W75884   6.926   5.292   3.637
 9476W        W75885  24.174  27.702  12.383
 9477W        W75886   6.182  19.875  10.768
 9478W        W75887  43.009   6.179  13.747
 9479W        W75888  29.035  15.970  10.398
 9480W        W75889  26.183  12.585   0.846
 9481W        W75890   4.409  15.080   1.653
 9482W        W75891  14.917  25.711   4.278
 9483W        W75892  27.179   3.682   0.414
 9484W        W75893   0.764  35.427   1.292
 9485W        W75894   3.459  32.991  10.916
 9486W        W75895  32.232  36.058  11.686
 9487W        W75896  20.217  28.569   1.589
 9488W        W75897   6.870  29.081  12.360
 9489W        W75898  43.362  43.732  12.073
 9490W        W75899   9.003   0.907   4.981
 9491W        W75900   2.188   6.668   3.254
 9492W        W75901  37.813   0.535  13.540
 9493W        W75902  32.859  28.372  14.231
 9494W        W75903  43.596  31.421  11.679
 9495W        W75904  34.794   1.401  10.710
 9496W        W75905  17.685  14.742  13.888
 9497W        W75906   2.578  23.605  10.640
 9498W        W75907  36.571   6.256  11.977
 9499W        W75908  34.472  44.813   1.953
 9500W        W75909  11.317  42.333  14.965
 9501W        W75910   5.770  26.910   0.454
 9502W        W75911  23.506  30.497   2.126
 9503W        W75912  19.520  10.360   4.608
 9504W        W75913  19.801  38.860  14.049
 9505W        W75914  36.330   8.264  14.390
 9506W        W75915  21.656  22.718   0.382
 9507W        W75916  11.224  30.942  12.869
 9508W        W75917  15.548  35.427   3.380
 9509W        W75918   8.427  20.676  14.958
 9510W        W75919  33.153   4.302  12.529
 9511W        W75920  16.359  29.702  12.696
 9512W        W75921  37.099  31.424  12.445
 9513W        W75922   3.826  10.248   0.504
 9514W        W75923   3.876  38.855   2.808
 9515W        W75924  27.164   1.129   2.524
 9516W        W75925   7.857  40.907   2.815
 9517W        W75926  36.646  39.559   1.857
 9518W        W75927  30.397  37.467  12.488
 9519W        W75928  11.462   4.938   4.538
 9520W        W75929   2.296   5.891   1.919
 9521W        W75930  41.901  28.188  12.139
 9522W        W75931  17.282  10.647   4.628
 9523W        W75932  37.880  30.443  11.983
 9524W        W75933  35.867  28.635   0.265
 9525W        W75934   1.573  36.490   0.933
 9526W        W75935  12.122  20.437  11.106
 9527W        W75936  31.473  18.160  12.130
 9528W        W75937   2.762  24.078   3.368
 9529W        W75938   7.896   0.386   2.126
 9530W        W75939  30.740  28.024  14.442
 9531W        W75940  17.312   1.075  10.593
 9532W        W75941  13.488  11.729   3.729
 9533W        W75942  25.654  26.237  12.003
 9534W        W75943  39.031  28.952   3.208
 9535W        W75944  43.409   1.631  11.914
 9536W        W75945   4.797  29.922  14.931
 9537W        W75946   3.523  10.036  14.808
 9538W        W75947  28.558  14.126  12.847
 9539W        W75948  40.674   6.845  12.672
 9540W        W75949  44.474  12.330  12.152
 9541W        W75950  14.789  25.178  13.362
 9542W        W75951   4.384  14.791  11.525
 9543W        W75952  31.557  28.873  13.905
 9544W        W75953   0.479  10.934  12.418
 9545W        W75954  27.509   4.203   2.626
 9546W        W75955   7.345  22.657  11.926
 9547W        W75956   3.357   1.374   0.416
 9548W        W75957  26.975  44.887   2.920
 9549W        W75958   6.184   9.391   0.446
 9550W        W75959  22.763  18.736   2.095
 9551W        W75960   5.197  21.325  12.884
 9552W        W75961  27.935  43.740   0.424
 9553W        W75962  39.388  19.024   1.817
 9554W        W75963   9.666   2.184  11.447
 9555W        W75964   4.999  39.490  14.978
 9556W        W75965  15.065  37.249   2.376
 9557W        W75966  31.181   3.666  11.998
 9558W        W75967  37.286  37.506  12.988
 9559W        W75968  33.665  16.644  14.618
 9560W        W75969   8.743   8.026   3.750
 9561W        W75970   7.770  21.090   5.039
 9562W        W75971  32.080  10.920   2.089
 9563W        W75972  16.591  33.851   4.075
 9564W        W75973   9.795   3.379   3.356
 9565W        W75974  11.384  34.942  11.235
 9566W        W75975   3.274  42.926   0.317
 9567W        W75976  34.160  43.499   4.575
 9568W        W75977  41.789  12.627   0.354
 9569W        W75978  13.265  11.862  11.624
 9570W        W75979  19.762  14.123   1.226
 9571W        W75980  24.741  35.560   4.716
 9572W        W75981  26.623  18.495   4.118
 9573W        W75982  41.601   8.585   5.059
 9574W        W75983  16.214  13.298   0.706
 9575W        W75984  17.582  22.344  11.088
 9576W        W75985  14.557  44.272   4.093
 9577W        W75986  22.610  33.044   0.276
 9578W        W75987  17.830  27.492   3.231
 9579W        W75988  14.995  34.081  13.951
 9580W        W75989  35.437   2.579  10.041
 9581W        W75990  19.380  27.262  12.508
 9582W        W75991  37.937   6.680  11.188
 9583W        W75992  31.925   8.311   3.107
 9584W        W75993  22.470  22.775  14.767
 9585W        W75994   0.478   7.771  14.070
 9586W        W75995  41.838  12.829   5.201
 9587W        W75996   1.374   2.732  11.122
 9588W        W75997  11.837  41.315   0.491
 9589W        W75998  31.901  39.271  10.734
 9590W        W75999  18.833   4.020   4.558
 9591W        W76000  18.832  22.988   3.717
 9592W        W76001  15.835  40.367  10.602
 9593W        W76002  16.807   9.431   3.106
 9594W        W76003   7.462   4.168  14.617
 9595W        W76004  12.013   2.494  13.986
 9596W        W76005  29.020  30.853   0.152
 9597W        W76006  43.774  40.052  13.975
 9598W        W76007   7.791  29.464  12.086
 9599W        W76008  41.910  31.960  12.536
 9600W        W76009  26.795  21.034   4.981
 9601W        W76010   4.927  41.423  12.956
 9602W        W76011   5.157  38.555  12.917
 9603W        W76012  44.159  24.753   2.362
 9604W        W76013  22.966  14.398   1.815
 9605W        W76014  13.248  27.467  12.927
 9606W        W76015   4.810  44.368   4.753
 9607W        W76016  42.035  32.553   1.960
 9608W        W76017  32.300  25.605   1.230
 9609W        W76018  14.115  18.698  10.626
 9610W        W76019   9.703  12.746   3.384
 9611W        W76020   9.615  19.226   0.326
 9612W        W76021  27.716   5.352   0.630
 9613W        W76022  42.974   5.277  14.477
 9614W        W76023  10.674   0.999   1.768
 9615W        W76024   7.026  33.753  14.509
 9616W        W76025  15.575  42.747   1.800
 9617W        W76026  20.680   4.975  10.576
 9618W        W76027  12.198   0.907  12.924
 9619W        W76028  41.030  36.328  11.659
 9620W        W76029  10.073  27.188   2.903
 9621W        W76030  18.032  31.315   3.862
 9622W        W76031  16.063  21.645  11.235
 9623W        W76032  14.731   8.569   4.217
 9624W        W76033  39.268  29.508  11.924
 9625W        W76034  41.520  42.834   3.116
 9626W        W76035  29.407  24.995  10.793
 9627W        W76036  38.973  15.066  12.525
 9628W        W76037   9.808  14.480  12.137
 9629W        W76038  19.346  14.100   1.810
 9630W        W76039   6.881   4.198   0.340
 9631W        W76040  11.325   8.249   4.170
 9632W        W76041  18.775  11.818  14.334
 9633W        W76042   2.095  22.261   1.601
 9634W        W76043  36.597  42.234   3.753
 9635W        W76044   5.809  29.009   4.435
 9636W        W76045  15.651  40.603   4.545
 9637W        W76046  20.108  39.872  14.797
 9638W        W76047  37.353   0.560  13.832
 9639W        W76048  11.653  20.984  13.445
 9640W        W76049   1.476   8.799   1.913
 9641W        W76050  42.878   6.458   4.570
 9642W        W76051   7.441   5.643   1.262
 9643W        W76052  17.962   9.859  14.777
 9644W        W76053   6.178   8.764  11.140
 9645W        W76054  39.388  43.540   3.868
 9646W        W76055  16.163  13.447  12.494
 9647W        W76056  24.097   5.768   2.885
 9648W        W76057  11.136  18.074   0.823
 9649W        W76058  25.394  27.474   4.200
 9650W        W76059  27.941  38.604   4.106
 9651W        W76060  20.952  39.659   1.047
 9652W        W76061  12.179  14.952   4.212
 9653W        W76062  13.317  12.719   1.885
 9654W        W76063  23.499   3.212   1.266
 9655W        W76064  23.328  16.696  13.465
 9656W        W76065  14.564  23.482  14.764
 9657W        W76066  25.073   8.339   4.561
 9658W        W76067  10.940  16.525  12.630
 9659W        W76068  28.721  12.265   4.091
 9660W        W76069  43.452  23.537  11.747
 9661W        W76070  28.941  22.488   4.290
 9662W        W76071   8.260  30.926   2.132
 9663W        W76072   9.031  22.050   2.322
 9664W        W76073  28.004  32.519   1.581
 9665W        W76074  13.742  11.335   0.199
 9666W        W76075  11.908  32.587   3.914
 9667W        W76076  17.836   6.647   2.838
 9668W        W76077  23.062   5.583   4.650
 9669W        W76078  42.370  40.730   1.891
 9670W        W76079  13.776   1.924  13.363
 9671W        W76080  37.079  29.852  13.535
 9672W        W76081  40.929   7.540   5.660
 9673W        W76082  42.793  26.955  13.071
 9674W        W76083  38.789  34.046  11.096
 9675W        W76084  30.274  26.127   4.088
 9676W        W76085   8.800   3.390  12.969
 9677W        W76086   3.868  15.972   3.199
 9678W        W76087  44.483  25.512   2.328
 9679W        W76088  31.030  14.376  13.331
 9680W        W76089  15.262  27.044  14.337
 9681W        W76090  22.037   9.377   0.392
 9682W        W76091  42.255   6.670   4.447
 9683W        W76092  17.533   6.499   4.295
 9684W        W76093  17.911  28.487   4.635
 9685W        W76094  33.194  17.645  12.439
 9686W        W76095  24.168  38.048  14.519
 9687W        W76096  27.551   1.443   2.642
 9688W        W76097  37.101  16.534  13.029
 9689W        W76098  29.978   1.746  11.926
 9690W        W76099  22.553  26.738   2.075
 9691W        W76100   6.196  31.128   1.049
 9692W        W76101   7.266  42.654   1.887
 9693W        W76102  43.392  30.610   1.783
 9694W        W76103  19.085  35.045  14.548
 9695W        W76104  41.624  23.490  14.254
 9696W        W76105  24.910  30.901  14.181
 9697W        W76106  27.402  30.058   0.827
 9698W        W76107  25.093  43.420  11.264
 9699W        W76108  22.852   0.793  13.522
 9700W        W76109  41.100  10.236   0.432
 9701W        W76110  12.885  18.290  10.420
 9702W        W76111   7.229  17.642   4.786
 9703W        W76112  19.054   0.898  13.776
 9704W        W76113  44.266  17.959   4.608
 9705W        W76114  13.181  29.261   0.416
 9706W        W76115   1.246  15.974  12.108
 9707W        W76116  43.709  18.878  12.838
 9708W        W76117  11.237  12.684  12.907
 9709W        W76118   9.081  23.181  13.471
 9710W        W76119  28.611   4.762  10.889
 9711W        W76120  13.098  22.966   3.592
 9712W        W76121   6.452   2.704  13.497
 9713W        W76122   2.145  41.872   2.443
 9714W        W76123  20.591  33.983  14.310
 9715W        W76124  36.082   2.812  10.520
 9716W        W76125  16.232  38.652   1.823
 9717W        W76126   3.889  20.289  13.490
 9718W        W76127  18.177  22.462  10.953
 9719W        W76128  43.569  27.374   4.127
 9720W        W76129  19.209  17.489  12.424
 9721W        W76130  15.837  20.167  13.789
 9722W        W76131  12.885  23.319  10.941
 9723W        W76132  29.836  25.688  13.059
 9724W        W76133  33.866  11.613   1.261
 9725W        W76134  25.398  36.417  11.129
 9726W        W76135  26.636  14.577  10.639
 9727W        W76136  41.922   5.596   2.107
 9728W        W76137  44.716  37.910  12.890
 9729W        W76138  31.461  20.081  12.073
 9730W        W76139  16.643   3.335   0.055
 9731W        W76140  39.408  14.141   1.493
 9732W        W76141  20.604   6.623   1.293
 9733W        W76142   8.354   2.030   1.271
 9734W        W76143   5.238  17.248   1.544
 9735W        W76144  10.002  22.269  14.045
 9736W        W76145   1.319  38.802  10.834
 9737W        W76146  22.115  24.508  11.548
 9738W        W76147  25.853  39.289   2.127
 9739W        W76148  30.562  10.159   3.648
 9740W        W76149  41.936  39.022   4.002
 9741W        W76150  14.576  26.504   4.166
 9742W        W76151  28.464   9.056   3.306
 9743W        W76152  43.295  26.524   3.873
 9744W        W76153  40.385  14.373  14.714
 9745W        W76154   7.040  23.604  11.983
 9746W        W76155  14.597  35.792  12.083
 9747W        W76156  15.291  30.761   1.817
 9748W        W76157   1.916  30.180   0.241
 9749W        W76158  40.561  29.842  13.144
 9750W        W76159   2.355   9.428  14.778
 9751W        W76160  15.849  38.078   0.367
 9752W        W76161  22.622  33.119  14.688
 9753W        W76162   2.044   2.553  13.762
 9754W        W76163  37.398  14.623  14.524
 9755W        W76164   7.056   6.947  11.637
 9756W        W76165   7.425  30.564   1.744
 9757W        W76166   4.544  24.952   1.475
 9758W        W76167   6.433   0.633   1.251
 9759W        W76168  14.021   3.845  10.973
 9760W        W76169  44.545  30.099   3.171
 9761W        W76170  20.027  27.991  11.577
 9762W        W76171  10.592  29.208  10.668
 9763W        W76172   9.131   4.698  10.335
 9764W        W76173  37.152  36.997  13.053
 9765W        W76174   8.187   1.893  11.232
 9766W        W76175  25.401  32.822  11.668
 9767W        W76176  30.487  27.628   4.024
 9768W        W76177  20.905  22.951  12.924
 9769W        W76178  34.529   1.723   1.619
 9770W        W76179   6.935   5.676   2.840
 9771W        W76180   4.201  28.911  11.206
 9772W        W76181   2.815  10.398   2.749
 9773W        W76182  35.652  32.672  11.495
 9774W        W76183  40.740  18.177  12.369
 9775W        W76184  43.922  37.818  11.545
 9776W        W76185  10.116   7.217   1.262
 9777W        W76186   4.301  30.579   0.573
 9778W        W76187  12.189  36.637  10.312
 9779W        W76188  14.144  13.193   3.712
 9780W        W76189  36.098  26.337   2.399
 9781W        W76190   6.692  13.737  14.611
 9782W        W76191  14.564  14.829  12.079
 9783W        W76192   0.397  38.527   2.545
 9784W        W76193   1.538  40.037  10.815
 9785W        W76194  10.174  25.787   3.748
 9786W        W76195  37.504  24.055   3.781
 9787W        W76196  28.488   7.956  11.224
 9788W        W76197   7.739   9.789  14.477
 9789W        W76198  15.110  14.679   2.702
 9790W        W76199  41.853  43.601  12.809
 9791W        W76200   4.829   6.829  12.642
 9792W        W76201  39.931  37.135  10.664
 9793W        W76202  12.123  30.332   2.913
 9794W        W76203   9.265  15.160   0.316
 9795W        W76204  43.266   4.810  10.111
 9796W        W76205  21.827  29.524   1.328
 9797W        W76206  28.684  29.290  12.507
 9798W        W76207  11.619   5.760  12.280
 9799W        W76208  33.659  11.626   0.302
 9800W        W76209  22.557  32.002   1.806
 9801W        W76210  41.000  33.362  13.089
 9802W        W76211  41.913   4.666  14.258
 9803W        W76212  10.433  21.607  13.060
 9804W        W76213   9.786  36.088  10.656
 9805W        W76214   9.448  30.922   5.283
 9806W        W76215  28.094  15.498   3.749
 9807W        W76216   2.836  44.694   4.821
 9808W        W76217  16.991  25.177  12.067
 9809W        W76218  38.322  23.090   0.347
 9810W        W76219   5.514  22.740  10.951
 9811W        W76220   0.447  42.458   3.559
 9812W        W76221   7.165  40.979  11.432
 9813W        W76222  27.876   7.840   1.327
 9814W        W76223  40.467  10.148   0.848
 9815W        W76224  10.671  13.559  13.860
 9816W        W76225  38.384  20.095   0.934
 9817W        W76226  42.001  41.473  10.668
 9818W        W76227  29.189   9.753  14.965
 9819W        W76228   9.845  15.400  10.346
 9820W        W76229  36.900  31.679  10.491
 9821W        W76230   6.463   8.377   2.817
 9822W        W76231  18.634  36.151  14.309
 9823W        W76232  21.618  34.760   0.694
 9824W        W76233  14.554  17.074  12.169
 9825W        W76234  13.797  35.124   1.734
 9826W        W76235  22.193  13.421  12.375
 9827W        W76236  16.264  14.489   2.869
 9828W        W76237   5.218   5.921  10.879
 9829W        W76238   4.860   4.911   1.001
 9830W        W76239  13.229   3.864  14.614
 9831W        W76240   5.867  20.721  13.309
 9832W        W76241  33.498   9.892   3.043
 9833W        W76242  12.693  32.163  14.762
 9834W        W76243   4.886  37.812  14.354
 9835W        W76244  24.666  23.868  13.318
 9836W        W76245  43.657   6.815  13.607
 9837W        W76246  42.363  35.504  11.203
 9838W        W76247   8.378  21.346   3.203
 9839W        W76248  34.318  32.080   4.186
 9840W        W76249  15.093  33.112   0.113
 9841W        W76250  27.571  23.452  13.844
 9842W        W76251  33.944   6.287   2.503
 9843W        W76252   7.279  32.304   9.838
 9844W        W76253  13.076  35.045   2.839
 9845W        W76254  41.923   6.893   2.689
 9846W        W76255  24.648  16.492   2.846
 9847W        W76256  14.067  14.293  11.475
 9848W        W76257  19.723  27.411  12.864
 9849W        W76258   1.192  37.531  14.449
 9850W        W76259  30.706  37.275  11.250
 9851W        W76260  16.516  36.890  14.630
 9852W        W76261  37.477   6.275  10.739
 9853W        W76262  35.910  43.506  12.617
 9854W        W76263  28.233  38.794   0.461
 9855W        W76264   1.299  23.742   3.594
 9856W        W76265   1.815  13.290  10.543
 9857W        W76266  34.443  41.134   3.479
 9858W        W76267  38.918  14.812  10.129
 9859W        W76268  15.076   1.446   4.014
 9860W        W76269   4.362  18.349   2.246
 9861W        W76270  34.596  37.990   2.150
 9862W        W76271  33.128  42.295   2.759
 9863W        W76272  25.489  31.991   3.023
 9864W        W76273  13.248  30.166   1.951
 9865W        W76274   7.878   1.012   4.132
 9866W        W76275   9.545  38.715  13.980
 9867W        W76276  39.076  11.336  11.032
 9868W        W76277  39.062  44.231   1.968
 9869W        W76278  36.441  15.189  10.512
 9870W        W76279   5.373  12.041  13.445
 9871W        W76280   4.323   6.700  12.545
 9872W        W76281  36.366   6.304   0.525
 9873W        W76282  25.992  22.986   3.590
 9874W        W76283  10.622  15.298  11.672
 9875W        W76284  27.241   3.977  13.083
 9876W        W76285  11.170  34.409   2.101
 9877W        W76286  30.989   7.444   1.628
 9878W        W76287  19.064  39.299   3.290
 9879W        W76288   2.853  18.458   0.902
 9880W        W76289  13.990  33.646  13.298
 9881W        W76290  38.906  24.570  12.987
 9882W        W76291  26.596  19.808   0.949
 9883W        W76292   1.030  18.998  14.263
 9884W        W76293   4.026  10.813  13.165
 9885W        W76294  31.110  12.195   2.166
 9886W        W76295   5.627   8.529  11.907
 9887W        W76296  33.992  40.273  12.481
 9888W        W76297  19.951  40.438   3.315
 9889W        W76298  24.315  35.370   3.723
 9890W        W76299  16.095  38.518   3.651
 9891W        W76300   3.514  12.173   2.315
 9892W        W76301  29.990  12.296  10.461
 9893W        W76302  36.906  33.494   4.127
 9894W        W76303   6.847   9.869   3.246
 9895W        W76304   1.750  30.096  10.651
 9896W        W76305  24.510   7.595  11.906
 9897W        W76306  30.200  10.743   2.653
 9898W        W76307  31.958  34.551   4.681
 9899W        W76308  44.730  31.414   2.619
 9900W        W76309  31.393  25.727  14.298
 9901W        W76310  43.025   8.611  12.062
 9902W        W76311  27.765  18.372   3.801
 9903W        W76312  32.016  34.884   3.197
 9904W        W76313  37.961  33.700  11.552
 9905W        W76314   6.714  33.126   1.099
 9906W        W76315  31.841  12.646  12.423
 9907W        W76316  43.550   1.452   1.333
 9908W        W76317  15.020  13.169  11.495
 9909W        W76318   6.398  39.766   0.408
 9910W        W76319   7.721  20.199   1.390
 9911W        W76320  22.690  44.253  13.630
 9912W        W76321   3.108   4.263  14.047
 9913W        W76322  31.606   3.368  12.117
 9914W        W76323   2.341   8.211   0.745
 9915W        W76324  28.080  33.982   4.508
 9916W        W76325  28.602  28.130   4.175
 9917W        W76326  29.642  10.416   3.982
 9918W        W76327  24.427  12.792   4.111
 9919W        W76328  37.227  29.352  13.029
 9920W        W76329   6.476  16.073  10.686
 9921W        W76330   5.490  30.990   0.294
 9922W        W76331   0.690  43.158   5.169
 9923W        W76332  44.461  15.368   3.155
 9924W        W76333  26.803  28.667  14.315
 9925W        W76334  21.448  13.335   1.437
 9926W        W76335  32.565   0.046  11.053
 9927W        W76336  41.401  44.096  11.729
 9928W        W76337  14.897  42.057  11.032
 9929W        W76338  26.916  18.745   3.350
 9930W        W76339   4.336  28.658  10.480
 9931W        W76340  38.979   9.651   4.097
 9932W        W76341  21.042  32.082   4.327
 9933W        W76342  37.849   3.809  14.507
 9934W        W76343  37.041  16.978   4.997
 9935W        W76344  15.637   4.856  14.784
 9936W        W76345  32.113  37.356   0.755
 9937W        W76346   0.244  26.977  14.381
 9938W        W76347  40.861   4.014   3.596
 9939W        W76348  11.829  28.075   0.446
 9940W        W76349   0.967   9.124  14.225
 9941W        W76350  42.433  22.033   2.690
 9942W        W76351  28.656  16.351   0.740
 9943W        W76352  43.858  37.945  10.990
 9944W        W76353  40.684  30.975   4.663
 9945W        W76354  16.759  17.526   4.161
 9946W        W76355  27.233  21.105   4.056
 9947W        W76356  17.746  43.247  12.942
 9948W        W76357   2.937   4.885   4.497
 9949W        W76358  21.063   4.473  13.906
 9950W        W76359  42.963  36.488   3.302
 9951W        W76360  21.065   7.777  11.100
 9952W        W76361  16.233  17.153   2.692
 9953W        W76362  28.544   6.163  13.413
 9954W        W76363  10.165   1.932  11.910
 9955W        W76364   2.440  40.485   9.822
 9956W        W76365   0.451   6.375   2.927
 9957W        W76366  38.580  42.117   2.768
 9958W        W76367  22.570  10.222  14.239
 9959W        W76368  14.823  30.581   1.748
 9960W        W76369   8.063  35.361   3.999
 9961W        W76370  26.722  30.002  12.045
 9962W        W76371  15.364  44.113   3.788
 9963W        W76372  42.107  36.557  13.183
 9964W        W76373  17.751  35.155  14.376
 9965W        W76374   1.735  15.435   3.481
 9966W        W76375  30.212   8.157   5.282
 9967W        W76376  19.956   7.835  13.014
 9968W        W76377  11.415  27.439  10.744
 9969W        W76378   2.241  38.426  14.098
 9970W        W76379   8.852  39.789  14.406
 9971W        W76380  38.488  20.982  12.816
 9972W        W76381   6.955  15.887   2.438
 9973W        W76382  37.790  28.681   0.479
 9974W        W76383  27.134  39.517   3.109
 9975W        W76384  32.196  23.851   2.254
 9976W        W76385  33.081  13.631   4.480
 9977W        W76386  17.558   5.656   2.975
 9978W        W76387  23.767  19.962  13.975
 9979W        W76388  35.787  35.508  13.162
 9980W        W76389  24.260  22.595   2.740
 9981W        W76390  17.213   5.740  12.071
 9982W        W76391  15.719  27.518   0.331
 9983W        W76392   7.137  25.145   1.278
 9984W        W76393  19.282   6.211  11.292
 9985W        W76394  14.297  23.725   0.528
 9986W        W76395  16.773  17.737  10.322
 9987W        W76396  11.831  26.426  10.785
 9988W        W76397   8.441  41.975  11.554
 9989W        W76398  44.154  29.102   1.719
 9990W        W76399  44.067  28.439   1.243
 9991W        W76400  42.444  20.729  11.037
 9992W        W76401  42.700   2.675  13.555
 9993W        W76402  14.695  41.518   2.322
 9994W        W76403  18.522   2.593   1.938
 9995W        W76404  40.936  30.386  12.496
 9996W        W76405   3.422  42.527   3.660
 9997W        W76406  38.627   1.321   4.567
 9998W        W76407  11.234  31.814  14.751
 9999W        W76408  19.934  34.659  13.478
10000W        W76409   5.611   0.913   4.359
10001W        W76410  12.177  19.509  10.484
10002W        W76411   7.160  40.395  13.278
10003W        W76412  38.968  33.708   2.261
10004W        W76413  23.624  41.901   1.836
10005W        W76414  32.162   4.166  12.552
10006W        W76415  38.628  26.489   3.704
10007W        W76416  12.372  33.908  12.887
10008W        W76417  28.655  26.250   3.743
10009W        W76418   1.201   6.849   1.710
10010W        W76419  38.055  44.006   0.781
10011W        W76420  29.666  22.018  12.492
10012W        W76421  18.738  21.750   1.839
10013W        W76422  31.837  42.525  11.833
10014W        W76423   4.702  43.629  10.895
10015W        W76424  23.928  10.155  11.802
10016W        W76425  26.535  29.913  14.868
10017W        W76426  13.366  20.716  13.489
10018W        W76427  12.136  15.814   1.492
10019W        W76428  11.966  43.310   4.171
10020W        W76429   9.752  42.918  14.274
10021W        W76430  40.436  43.847  12.506
10022W        W76431  25.938  14.655  12.867
10023W        W76432  11.378  37.856  13.371
10024W        W76433  10.905  32.215  14.016
10025W        W76434   7.163  32.851   2.360
10026W        W76435  28.108  33.646   3.323
10027W        W76436   5.543  28.637   1.745
10028W        W76437  38.399  39.485   4.458
10029W        W76438  11.886  12.229   0.769
10030W        W76439  14.806  17.520  13.523
10031W        W76440  33.440  26.277  10.983
10032W        W76441   6.347   4.312   3.366
10033W        W76442  35.358  38.329  10.496
10034W        W76443  11.261  35.123  10.744
10035W        W76444  25.838  40.831  12.547
10036W        W76445  14.288  23.543   3.948
10037W        W76446   7.876  11.928   1.745
10038W        W76447   2.279  41.028   0.018
10039W        W76448  31.645  28.055   0.745
10040W        W76449  42.578   7.300   1.010
10041W        W76450   2.602  26.579  12.566
10042W        W76451  40.036  26.004   1.005
10043W        W76452  21.079  42.607  12.916
10044W        W76453   8.796  39.323   2.859
10045W        W76454  23.314  11.287  10.613
10046W        W76455   8.320  31.370   3.065
10047W        W76456  20.950  17.965   0.865
10048W        W76457  43.385  23.317   4.905
10049W        W76458  42.520  20.550  14.077
10050W        W76459  35.857  34.054  12.474
10051W        W76460  16.468  36.528   4.223
10052W        W76461  14.688  31.526   4.146
10053W        W76462  11.728  43.032   2.345
10054W        W76463  33.084  28.568  11.885
10055W        W76464   7.242  12.698   1.696
10056W        W76465  27.708   6.699   4.506
10057W        W76466  19.943  11.795  12.009
10058W        W76467  19.319   4.983   2.741
10059W        W76468  14.292  28.399   1.562
10060W        W76469  27.091  31.465   3.153
10061W        W76470  43.398  10.682   0.928
10062W        W76471  23.941  32.118  12.431
10063W        W76472  12.632  18.829  11.493
10064W        W76473  43.030  27.419   2.732
10065W        W76474  21.339  13.218  13.793
10066W        W76475  32.616  20.709   3.693
10067W        W76476  11.177  17.735   2.315
10068W        W76477  24.148   4.612  10.240
10069W        W76478  39.526  20.814   0.671
10070W        W76479  27.539  23.374   4.605
10071W        W76480  17.594  41.662   2.859
10072W        W76481  41.805  10.376  12.850
10073W        W76482  17.640  40.410   4.359
10074W        W76483  44.287   8.297  14.715
10075W        W76484  20.694  34.701  11.936
10076W        W76485   8.256   3.857   0.786
10077W        W76486  29.359  17.415   2.281
10078W        W76487   5.951  30.461   4.548
10079W        W76488  15.556   5.131   1.412
10080W        W76489  26.799   9.983   2.786
10081W        W76490  40.917   0.397  14.284
10082W        W76491  34.361  36.006  10.538
10083W        W76492   4.901  35.652  13.470
10084W        W76493  33.934   1.589   0.869
10085W        W76494  43.934   1.970   0.021
10086W        W76495   1.234   7.774  14.723
10087W        W76496  17.782  38.985  14.929
10088W        W76497  42.366   9.281   2.678
10089W        W76498  12.224  11.167  12.993
10090W        W76499  23.014  25.439   4.115
10091W        W76500  43.278  36.929  10.848
10092W        W76501  35.991  14.743   2.370
10093W        W76502  15.360  13.060  14.350
10094W        W76503  36.429   5.356  10.391
10095W        W76504  29.483  43.302   4.737
10096W        W76505  12.523   1.941  13.225
10097W        W76506  38.055  41.689  11.734
10098W        W76507   9.492   1.228  12.018
10099W        W76508  29.071   4.680  13.574
10100W        W76509  20.750  30.863  14.522
10101W        W76510  44.786  34.317  12.502
10102W        W76511  29.097  37.191  13.691
10103W        W76512  37.885  11.256  12.930
10104W        W76513  40.890  10.948   2.417
10105W        W76514  24.591   9.669   0.936
10106W        W76515  35.642  34.018   3.221
10107W        W76516  24.476  41.945  12.566
10108W        W76517  40.572  32.717  10.387
10109W        W76518  26.892  10.782   4.522
10110W        W76519  30.108   9.298   3.408
10111W        W76520  40.927  25.697   4.929
10112W        W76521  29.865   6.836   4.474
10113W        W76522   4.716  34.134   0.056
10114W        W76523   1.882   2.312   1.173
10115W        W76524  37.511  33.432   5.641
10116W        W76525  14.609  18.671  10.737
10117W        W76526   8.236  17.239   3.289
10118W        W76527  22.955   6.136  13.345
10119W        W76528  44.527   5.050   0.832
10120W        W76529  31.984  43.514   1.680
10121W        W76530  23.744  21.463  10.545
10122W        W76531  34.326  43.178   4.975
10123W        W76532  40.748   7.743  10.804
10124W        W76533  38.593  15.766  11.497
10125W        W76534   5.789  27.210  13.518
10126W        W76535  35.575  30.527   1.873
10127W        W76536  30.077  23.865  11.957
10128W        W76537   7.242  18.668   4.502
10129W        W76538   5.353  17.477  14.081
10130W        W76539  43.300  37.861   0.266
10131W        W76540   0.382   9.607  13.983
10132W        W76541  40.477  39.011  14.571
10133W        W76542  42.560  23.427  10.806
10134W        W76543   5.759  22.528  12.888
10135W        W76544  43.712   6.033   0.890
10136W        W76545  21.163  44.268  10.808
10137W        W76546  18.005  32.856  14.839
10138W        W76547  40.896   4.504   0.532
10139W        W76548  17.314  13.358  14.847
10140W        W76549  14.307  11.090  13.968
10141W        W76550   7.679  32.220   0.443
10142W        W76551  39.549  25.076   1.355
10143W        W76552   0.213  31.825   2.651
10144W        W76553  10.102  23.055  13.584
10145W        W76554  38.075  13.442  14.572
10146W        W76555   9.136  38.453  13.368
10147W        W76556  11.812  38.605   2.802
10148W        W76557   5.532  15.576  13.034
10149W        W76558  41.088  17.033   0.340
10150W        W76559   8.779  42.071  12.030
10151W        W76560  25.587  14.581  12.461
10152W        W76561  10.763  37.924  12.114
10153W        W76562  43.548  37.063  12.439
10154W        W76563  36.517   0.669  12.939
10155W        W76564  14.597  40.450   4.672
10156W        W76565  43.522   2.376   3.675
10157W        W76566   5.255  19.924   3.671
10158W        W76567  41.990  43.837   4.234
10159W        W76568  32.590   1.747   2.527
10160W        W76569  29.715   6.439   0.978
10161W        W76570  33.403  37.971   1.783
10162W        W76571   9.631  23.255   0.803
10163W        W76572  19.642  36.347  11.264
10164W        W76573  24.960   2.035   1.871
10165W        W76574  19.152  13.443   3.050
10166W        W76575  12.949   3.689  13.016
10167W        W76576  33.570   1.954   1.950
10168W        W76577  43.791  15.318   0.817
10169W        W76578  28.995  10.683  13.555
10170W        W76579   0.053  30.145  12.067
10171W        W76580  33.450   3.676   1.282
10172W        W76581  37.894  33.888  14.313
10173W        W76582  37.348  20.723  11.047
10174W        W76583   5.751  30.627   0.545
10175W        W76584   2.924   6.623   4.821
10176W        W76585  14.338   5.880  11.517
10177W        W76586  28.678  43.242   0.397
10178W        W76587  42.407   8.391   5.320
10179W        W76588  18.684  15.313   1.862
10180W        W76589  38.557  39.910   3.270
10181W        W76590  42.822  17.329   0.338
10182W        W76591  25.551  25.774  14.740
10183W        W76592  32.060  12.222  11.213
10184W        W76593  10.675   8.278  10.597
10185W        W76594  24.059  13.910  11.455
10186W        W76595  14.623  21.300  14.510
10187W        W76596  21.675  33.004   0.192
10188W        W76597  41.011  20.346   2.528
10189W        W76598  31.376   2.483  14.759
10190W        W76599  11.670  38.941  14.306
10191W        W76600  25.490  20.306   3.507
10192W        W76601  15.742  33.006  13.357
10193W        W76602  16.746  43.796  12.100
10194W        W76603  44.870  30.915  13.777
10195W        W76604  12.745  20.304   0.038
10196W        W76605  27.045  31.449  12.111
10197W        W76606  32.443  10.674   0.692
10198W        W76607  25.040  16.953   4.237
10199W        W76608  28.142  39.438   1.283
10200W        W76609  25.923   1.432  13.966
10201W        W76610   3.999  36.650  11.113
10202W        W76611  37.978   2.381   3.202
10203W        W76612  15.712  25.076  10.279
10204W        W76613  38.468  33.090  13.354
10205W        W76614  20.191  21.335   1.726
10206W        W76615  18.661  39.519   1.032
10207W        W76616  32.186  26.221  10.609
10208W        W76617   4.772  43.017  11.565
10209W        W76618   6.666  41.319  14.822
10210W        W76619  34.651  23.377   2.304
10211W        W76620  37.025  39.072  13.996
10212W        W76621  20.609   2.479  11.566
10213W        W76622  41.938  32.122   2.711
10214W        W76623  33.635   7.815   5.165
10215W        W76624  25.991  34.371   4.278
10216W        W76625   2.370  11.746   1.494
10217W        W76626  26.604  43.085  14.954
10218W        W76627  43.569  15.127   3.029
10219W        W76628   4.694  10.756  14.886
10220W        W76629  40.840  36.921   2.847
10221W        W76630  11.239  43.428   2.740
10222W        W76631  13.131  39.979  11.429
10223W        W76632  21.077  27.548   2.800
10224W        W76633  14.612  39.724   1.638
10225W        W76634  22.261   1.951   2.250
10226W        W76635  11.179  18.615   2.160
10227W        W76636  12.723  20.252   3.680
10228W        W76637  37.629  19.689   1.526
10229W        W76638  37.694  41.281  13.577
10230W        W76639  30.749  25.993  13.289
10231W        W76640  36.977  41.438  10.499
10232W        W76641  14.776   5.480  11.612
10233W        W76642  15.565  26.281   3.889
10234W        W76643   3.713  21.709  12.311
10235W        W76644  25.088  15.045   0.974
10236W        W76645   6.090  37.169  13.722
10237W        W76646  32.908  39.582  12.501
10238W        W76647   7.405  16.922   1.226
10239W        W76648  42.316  27.975  11.898
10240W        W76649  16.180  24.996   1.535
10241W        W76650  40.300  40.422   3.269
10242W        W76651  41.470  10.190   2.315
10243W        W76652  35.101  13.897  10.653
10244W        W76653  20.875   1.408  10.018
10245W        W76654  18.796   8.185  14.563
10246W        W76655   8.792  10.319   0.038
10247W        W76656  18.745  20.208  12.076
10248W        W76657  20.029  37.920  12.900
10249W        W76658  26.544   3.452  12.193
10250W        W76659   1.845  32.250   4.064
10251W        W76660  23.520  29.437  13.701
10252W        W76661  20.563  33.666   2.945
10253W        W76662   1.943  30.406   3.802
10254W        W76663   7.802  20.681  12.419
10255W        W76664  28.670  39.318  12.146
10256W        W76665  23.234   3.243  11.490
10257W        W76666  34.003  31.706  10.728
10258W        W76667  24.163   6.861  13.870
10259W        W76668  25.185  41.811  11.409
10260W        W76669   6.917  35.531   3.760
10261W        W76670  15.085   6.364   1.734
10262W        W76671   6.881  19.121  13.439
10263W        W76672   7.251  20.759  10.654
10264W        W76673  28.096  20.082  11.098
10265W        W76674   4.791   6.333   1.867
10266W        W76675  42.697  16.977  11.846
10267W        W76676  25.528  19.991  13.811
10268W        W76677  18.703  20.678   3.876
10269W        W76678  23.958  10.237   1.714
10270W        W76679  14.637  36.516  13.316
10271W        W76680  32.788  17.644  13.780
10272W        W76681  41.603  37.865   3.609
10273W        W76682  38.455  12.814   2.994
10274W        W76683  12.078  26.688   0.189
10275W        W76684   6.689   4.237   4.235
10276W        W76685  26.998  39.828   4.101
10277W        W76686  25.854  10.284   1.958
10278W        W76687  40.478  24.470  14.345
10279W        W76688  10.391  40.949   0.345
10280W        W76689  37.137   1.089  12.014
10281W        W76690  19.506  22.788  13.025
10282W        W76691  26.739  11.183   0.876
10283W        W76692   1.778  39.824  11.212
10284W        W76693   2.738  31.209  13.564
10285W        W76694  35.065  15.821  12.560
10286W        W76695   5.594  44.464  14.940
10287W        W76696   0.784   2.164  13.931
10288W        W76697  36.997  38.753  14.428
10289W        W76698  27.042  41.602  13.887
10290W        W76699  29.013  24.678  14.507
10291W        W76700  41.725   4.641   2.454
10292W        W76701   4.521  43.943  14.113
10293W        W76702  43.476  23.133  11.444
10294W        W76703  26.430  10.137  13.853
10295W        W76704   7.735  17.379   3.162
10296W        W76705   2.953  13.641   4.324
10297W        W76706  41.799  20.188   1.843
10298W        W76707  19.047  24.086   0.078
10299W        W76708  26.702  21.019  14.127
10300W        W76709  37.099  19.266  13.474
10301W        W76710  39.486  17.586   1.327
10302W        W76711  13.172   8.720  11.954
10303W        W76712   4.194  20.227  13.010
10304W        W76713  11.582  24.706   3.409
10305W        W76714  26.081   6.192   1.424
10306W        W76715  19.045  26.996  12.927
10307W        W76716   9.972  44.383  13.678
10308W        W76717   9.232  38.863   3.248
10309W        W76718  37.824  12.152  14.019
10310W        W76719   3.791  20.723   0.862
10311W        W76720  38.365  19.330   1.939
10312W        W76721  13.476   8.010   3.623
10313W        W76722   6.943  42.305  11.965
10314W        W76723   2.425  36.169  10.508
10315W        W76724  24.011  34.456  10.309
10316W        W76725   8.916  26.457   2.801
10317W        W76726  12.571  23.162  11.943
10318W        W76727  34.564  29.446   2.251
10319W        W76728  40.353  42.821  10.644
10320W        W76729  42.826  22.980  14.072
10321W        W76730  36.835  27.963   1.199
10322W        W76731  32.824  27.857  14.386
10323W        W76732  36.803  16.991   3.752
10324W        W76733  19.575  35.441   3.328
10325W        W76734   4.325  22.002   4.073
10326W        W76735  34.613   5.245  11.503
10327W        W76736  10.593  18.751   4.459
10328W        W76737  41.950  43.803  11.039
10329W        W76738  42.539  15.363   4.380
10330W        W76739  30.697  29.991   2.599
10331W        W76740  12.871  13.788   3.806
10332W        W76741   9.318  14.861   0.765
10333W        W76742  39.446  37.719   1.797
10334W        W76743  37.630   9.841   2.098
10335W        W76744  10.642  26.140  12.270
10336W        W76745  36.451  40.818   1.349
10337W        W76746  33.985  15.730   2.374
10338W        W76747  14.877   9.884   2.440
10339W        W76748  23.182  16.011  12.453
10340W        W76749   4.354  20.197   5.062
10341W        W76750  40.048   1.007   0.408
10342W        W76751   3.604  44.314  11.178
10343W        W76752   4.022   9.812  13.986
10344W        W76753  43.933  27.963   1.684
10345W        W76754  17.498  26.185   3.679
10346W        W76755  12.205  20.099   3.622
10347W        W76756  26.983  37.545   2.249
10348W        W76757  28.146  37.432  14.457
10349W        W76758  37.819  26.162   2.435
10350W        W76759   9.637  34.966  14.843
10351W        W76760   5.049   5.819   1.169
10352W        W76761  29.048  26.479  12.589
10353W        W76762  11.774  41.571   3.366
10354W        W76763  22.583  32.279  14.094
10355W        W76764   9.291  34.943   3.616
10356W        W76765  23.516  23.738  14.585
10357W        W76766  23.650  39.526   0.518
10358W        W76767   4.648  12.164  12.875
10359W        W76768   3.567   3.169  11.095
10360W        W76769  22.128  42.715   0.423
10361W        W76770  29.829   8.858   0.581
10362W        W76771  16.866   1.852  11.666
10363W        W76772  35.573   1.844  12.418
10364W        W76773  24.510  33.627   1.553
10365W        W76774  30.578   8.164  10.463
10366W        W76775   4.876  34.511  14.282
10367W        W76776  29.952  10.136  13.891
10368W        W76777  25.674  28.726  11.997
10369W        W76778  22.080   0.973  13.146
10370W        W76779   6.930  35.487  13.991
10371W        W76780  15.340  34.473  14.007
10372W        W76781  19.814  35.992  10.627
10373W        W76782  41.919  15.667  14.770
10374W        W76783  15.524  27.774  11.903
10375W        W76784  41.841   7.791   0.791
10376W        W76785  27.888  13.607  14.467
10377W        W76786  39.151  43.308  13.722
10378W        W76787   5.199  33.294  13.056
10379W        W76788  39.152  40.801   0.360
10380W        W76789  40.685  18.223  10.468
10381W        W76790  12.768  41.735  14.760
10382W        W76791  44.475  16.504   1.220
10383W        W76792  18.672   5.426   0.245
10384W        W76793   3.422   6.680   2.277
10385W        W76794   8.760  43.070  13.548
10386W        W76795  16.547   4.531  12.734
10387W        W76796  30.279  39.441   1.400
10388W        W76797   4.984  42.860   1.619
10389W        W76798  21.105   2.975   2.868
10390W        W76799  10.627   3.678   4.513
10391W        W76800  17.209  31.327   3.618
10392W        W76801  13.453  33.017   2.426
10393W        W76802  34.300  27.043  12.568
10394W        W76803  29.947  20.490  14.130
10395W        W76804  27.010  42.804   1.730
10396W        W76805  27.473  42.076  12.568
10397W        W76806   9.270  16.849   4.239
10398W        W76807  37.985   2.413  14.732
10399W        W76808  31.395   9.913   4.211
10400W        W76809   5.711  38.796   1.769
10401W        W76810  30.553  20.825  10.648
10402W        W76811  36.378  16.345  13.743
10403W        W76812  41.404   0.308   3.430
10404W        W76813  12.132  16.337   3.266
10405W        W76814  11.093  15.176   2.362
10406W        W76815  13.882  38.816   0.701
10407W        W76816  27.504  32.149   4.587
10408W        W76817  30.134  32.435   5.222
10409W        W76818   2.976  21.183  11.558
10410W        W76819  16.841  27.110  11.108
10411W        W76820  30.114  17.881  14.826
10412W        W76821  44.433  33.308  11.924
10413W        W76822  11.138   3.781  12.490
10414W        W76823  25.059   6.843  12.137
10415W        W76824  14.818  24.731  12.312
10416W        W76825  15.558   2.883  12.083
10417W        W76826  10.383  14.325   3.219
10418W        W76827  35.422   6.993   2.488
10419W        W76828  28.375  27.734  11.565
10420W        W76829  14.718  32.547   4.774
10421W        W76830  19.205  16.032   3.764
10422W        W76831  40.343  22.939   1.190
10423W        W76832   7.848  10.368   2.817
10424W        W76833  30.606  17.404  14.273
10425W        W76834   0.216  31.674   0.251
10426W        W76835  30.361  27.286  11.100
10427W        W76836  27.183  38.972   2.954
10428W        W76837  28.690  25.986  13.038
10429W        W76838  21.439  17.818  13.346
10430W        W76839  23.706  24.212  10.475
10431W        W76840  14.581  37.129   0.061
10432W        W76841  35.023   8.663   5.000
10433W        W76842  32.959   7.373  11.788
10434W        W76843  15.384   7.202  10.599
10435W        W76844  20.443   1.468   0.718
10436W        W76845  43.756  17.872   3.525
10437W        W76846  27.019  26.165   1.315
10438W        W76847  27.655   8.026   3.566
10439W        W76848  33.195  43.403   2.253
10440W        W76849  30.107  32.630  13.320
10441W        W76850  24.997  13.719   2.948
10442W        W76851  11.573   4.972   1.165
10443W        W76852  18.161  41.507  13.257
10444W        W76853   9.273  42.488  11.223
10445W        W76854  10.796  28.015   0.458
10446W        W76855  18.241   6.318  11.662
10447W        W76856  16.833  22.058   3.844
10448W        W76857  29.183  21.813   0.758
10449W        W76858   7.204  34.624  12.147
10450W        W76859  26.030  28.150  14.042
10451W        W76860  23.617  12.672   4.545
10452W        W76861   8.671   7.194   3.252
10453W        W76862  38.176  22.963   3.825
10454W        W76863  28.084  10.767   1.458
10455W        W76864   4.329   6.181  13.494
10456W        W76865  11.531  37.821   3.249
10457W        W76866  28.425  12.662  10.510
10458W        W76867  13.621   9.657   1.217
10459W        W76868  37.067  18.570  10.445
10460W        W76869  12.131  24.241  12.619
10461W        W76870  10.769  20.081  14.405
10462W        W76871   2.258  35.139   0.713
10463W        W76872   0.387  17.721  14.471
10464W        W76873  18.636  23.525   0.286
10465W        W76874  18.531  14.445  10.814
10466W        W76875  10.226   0.005  12.053
10467W        W76876  10.554   1.907   3.189
10468W        W76877   9.837  37.485  10.881
10469W        W76878   7.184  14.861   0.825
10470W        W76879  42.369  19.576   2.307
10471W        W76880  35.968  10.719   3.154
10472W        W76881  44.349   6.656   0.452
10473W        W76882   1.451   8.272   0.888
10474W        W76883   8.948   8.287   2.310
10475W        W76884  30.611   2.155  12.544
10476W        W76885  36.297  25.377  10.087
10477W        W76886  23.406   9.275   1.780
10478W        W76887  23.623   6.393   4.545
10479W        W76888  42.114  14.515   4.068
10480W        W76889   9.692   8.021   2.868
10481W        W76890  21.594  10.943  12.894
10482W        W76891  17.781  33.216   2.714
10483W        W76892   1.523  24.707   4.280
10484W        W76893  33.327  23.221   2.683
10485W        W76894  37.807  43.401  14.973
10486W        W76895   2.916  43.324   4.566
10487W        W76896  44.906  21.278   2.394
10488W        W76897  23.205  36.997   1.420
10489W        W76898  41.855   1.470   4.736
10490W        W76899  42.822  42.182   0.776
10491W        W76900   6.300  27.048   3.159
10492W        W76901  40.118   8.920   0.986
10493W        W76902  19.214  28.905   4.971
10494W        W76903  19.748  36.828   2.682
10495W        W76904  43.326  32.592   3.299
10496W        W76905  37.869  42.893  12.517
10497W        W76906  37.353  14.088   0.328
10498W        W76907  35.237  16.699   2.969
10499W        W76908  32.232   6.336  10.253
10500W        W76909   4.204  25.733   2.764
10501W        W76910  18.461  15.624   1.500
10502W        W76911  39.499  37.893   2.289
10503W        W76912   8.778   1.136   1.150
10504W        W76913  20.158   6.655   1.879
10505W        W76914  29.636  19.905   2.263
10506W        W76915   6.542   9.909   5.007
10507W        W76916  21.024  29.540   1.716
10508W        W76917   2.066  41.856  11.643
10509W        W76918  11.738  30.203  14.781
10510W        W76919  38.932  38.604  12.953
10511W        W76920  34.652  43.530   1.141
10512W        W76921  19.847  24.013   3.298
10513W        W76922  29.996   0.502   1.256
10514W        W76923  35.832   1.013  13.414
10515W        W76924  10.670  14.739  11.079
10516W        W76925  19.545  27.446  14.989
10517W        W76926  40.455  14.361   4.641
10518W        W76927  19.563  43.446  14.855
10519W        W76928  24.616  36.952   0.961
10520W        W76929  10.587  35.982   1.416
10521W        W76930  35.583  37.506  14.823
10522W        W76931   7.835  29.068  11.089
10523W        W76932   7.252  38.519   4.591
10524W        W76933   7.177  12.389   0.240
10525W        W76934  28.877  12.948   2.236
10526W        W76935   9.429  25.234  13.423
10527W        W76936  33.580  12.751   4.997
10528W        W76937   3.818  17.494   4.066
10529W        W76938  25.688  40.851   0.706
10530W        W76939   6.253   6.809   4.193
10531W        W76940  16.369  40.841   0.318
10532W        W76941  17.261  27.487   3.790
10533W        W76942   6.731   7.211  14.226
10534W        W76943   0.521  26.212  13.485
10535W        W76944  30.099  36.343  11.011
10536W        W76945  34.631  18.277   0.531
10537W        W76946  23.559  28.403  10.605
10538W        W76947  16.005  39.647  13.012
10539W        W76948   6.694  43.200   0.371
10540W        W76949  10.296  10.548  13.654
10541W        W76950   2.734  24.521  11.104
10542W        W76951   4.803  18.637   3.400
10543W        W76952  16.299  38.100  12.578
10544W        W76953  23.510  13.059   4.143
10545W        W76954  27.734  12.390   4.325
10546W        W76955   1.674  39.972  13.126
10547W        W76956  11.696  39.361  14.694
10548W        W76957  30.038  27.913   0.609
10549W        W76958  38.289  38.354   1.628
10550W        W76959  39.472  26.066  13.858
10551W        W76960   2.095  31.347   3.820
10552W        W76961  32.954  21.220  11.555
10553W        W76962  24.749  28.059   3.774
10554W        W76963  21.787  12.216   4.157
10555W        W76964   7.088  43.011   1.200
10556W        W76965   0.537  23.211  14.378
10557W        W76966  29.451  22.027  12.960
10558W        W76967   1.986  39.790   3.247
10559W        W76968  26.021  16.518  13.342
10560W        W76969   5.791   3.426  13.956
10561W        W76970  25.125   3.431  11.342
10562W        W76971   5.860  32.542  10.705
10563W        W76972  23.228  14.904   4.426
10564W        W76973   4.756  39.460   4.095
10565W        W76974  33.525  44.378   4.205
10566W        W76975  17.778  36.647  12.510
10567W        W76976   1.304  13.222   3.192
10568W        W76977   7.633   8.480   3.140
10569W        W76978  43.415  12.619  11.367
10570W        W76979  19.033   2.786   4.185
10571W        W76980  30.525  14.260   4.121
10572W        W76981  37.494  20.516   4.000
10573W        W76982  34.072   8.960   4.046
10574W        W76983  22.830  19.082  11.894
10575W        W76984  20.101   8.343   0.341
10576W        W76985   2.359   2.370  12.545
10577W        W76986  28.439  36.858  13.431
10578W        W76987  30.163  10.642  14.320
10579W        W76988  28.417   0.514   4.009
10580W        W76989  43.456  20.077  10.647
10581W        W76990  15.238  26.533  13.021
10582W        W76991  37.964  36.300   4.594
10583W        W76992  38.077  31.572   0.353
10584W        W76993   2.369   9.157  10.268
10585W        W76994  26.143  23.718  13.766
10586W        W76995  11.661  29.635  14.464
10587W        W76996  30.827  37.034   4.532
10588W        W76997   9.875  10.624  11.572
10589W        W76998  23.875  21.573   0.325
10590W        W76999   4.335  10.217   0.799
10591W        W77000  16.223  40.461  10.279
10592W        W77001  16.809  27.393  10.678
10593W        W77002  10.391  33.475   2.753
10594W        W77003  21.493  21.636   3.130
10595W        W77004   6.243  24.120  11.985
10596W        W77005  20.249  34.122   0.393
10597W        W77006   6.467  31.220   0.221
10598W        W77007  10.453  32.819   3.264
10599W        W77008  29.529   3.298  13.612
10600W        W77009   5.640   7.733  10.730
10601W        W77010  36.393  21.786   3.688
10602W        W77011  43.857  31.933   2.763
10603W        W77012  12.831  43.832  11.694
10604W        W77013  44.505  19.443   5.068
10605W        W77014   6.429   2.927   0.448
10606W        W77015  25.462  17.947   3.478
10607W        W77016  17.266  16.292  11.141
10608W        W77017  18.857  14.709   4.194
10609W        W77018  18.263   3.314  12.374
10610W        W77019  25.508  17.955   2.942
10611W        W77020  19.495   1.206  13.897
10612W        W77021  41.075   8.812   2.802
10613W        W77022   5.788   6.861  13.467
10614W        W77023  21.921  37.065   0.877
10615W        W77024  30.774  25.643  10.738
10616W        W77025  40.461  33.111   1.895
10617W        W77026  18.765  21.429  12.700
10618W        W77027  15.815  40.919   4.933
10619W        W77028  10.905  38.609   2.550
10620W        W77029  40.979  19.644   0.745
10621W        W77030  18.644  41.763   1.460
10622W        W77031   5.399  35.105   0.175
10623W        W77032  19.462   1.489  13.024
10624W        W77033  23.686   9.105  14.038
10625W        W77034   3.151  14.121  14.843
10626W        W77035  34.379   6.206   0.045
10627W        W77036  14.255  35.775  11.648
10628W        W77037  22.574  30.763  14.529
10629W        W77038  21.586  13.726   4.155
10630W        W77039  11.199  18.651   1.639
10631W        W77040  43.504  42.195   1.343
10632W        W77041  35.433  35.891   0.800
10633W        W77042  15.080  34.463  13.561
10634W        W77043   4.419  44.908  13.519
10635W        W77044  41.585  22.690  11.030
10636W        W77045   9.221  42.557   2.310
10637W        W77046  32.367   1.280  12.939
10638W        W77047  40.515   2.327  12.544
10639W        W77048  24.285  16.346   4.926
10640W        W77049  40.408   5.990  14.051
10641W        W77050   4.880  23.499  14.424
10642W        W77051  35.596  36.341  11.135
10643W        W77052  10.859   8.279  13.830
10644W        W77053   0.230   0.107  11.135
10645W        W77054  19.710   8.568  13.790
10646W        W77055  38.822  16.051   0.697
10647W        W77056  28.089  43.692   1.287
10648W        W77057  12.730  14.185  11.691
10649W        W77058  27.688   9.038   3.633
10650W        W77059  21.892  16.742  13.967
10651W        W77060  24.191  35.072  13.097
10652W        W77061  37.958   7.396  13.358
10653W        W77062   0.935  18.583   3.580
10654W        W77063  29.578  30.562  12.932
10655W        W77064   5.258  23.533   0.840
10656W        W77065  14.755  18.221  11.493
10657W        W77066  37.773  36.514  12.143
10658W        W77067  39.749  27.034  10.807
10659W        W77068  32.640  33.321   1.873
10660W        W77069  31.481   2.494   1.660
10661W        W77070  29.461  39.428   2.712
10662W        W77071  24.322   2.390   1.825
10663W        W77072   0.816  29.961   4.740
10664W        W77073  12.208  11.896  13.512
10665W        W77074  27.072  23.823   2.289
10666W        W77075  15.317  15.707  11.286
10667W        W77076   0.411  28.288   4.178
10668W        W77077  10.831  26.008   4.146
10669W        W77078  22.932   4.002   2.415
10670W        W77079   6.219  41.934  10.626
10671W        W77080   1.518   4.002  10.817
10672W        W77081  22.336  29.637   1.320
10673W        W77082  16.676  19.219  12.417
10674W        W77083  34.148  33.654  11.976
10675W        W77084   4.885  38.690  11.174
10676W        W77085  42.516  31.248  12.597
10677W        W77086   4.701   4.377  13.394
10678W        W77087  34.130  29.297  13.801
10679W        W77088   9.802  12.910  14.376
10680W        W77089  28.209   3.755   4.413
10681W        W77090  39.180  33.044  11.506
10682W        W77091   2.923  29.967  11.254
10683W        W77092   6.645  31.567   1.875
10684W        W77093  34.629  12.777  11.957
10685W        W77094  27.730  38.116   1.392
10686W        W77095  29.232  39.909   2.705
10687W        W77096  20.504  24.646  11.585
10688W        W77097  38.580  10.191  12.310
10689W        W77098  20.673  26.673   0.614
10690W        W77099  28.865  31.208   2.215
10691W        W77100  39.495   4.379  13.969
10692W        W77101  19.610  11.883  12.515
10693W        W77102  14.266  32.511   3.394
10694W        W77103  10.177  26.334  12.090
10695W        W77104   1.299  36.907  14.934
10696W        W77105  20.121  35.053   4.803
10697W        W77106  43.046   7.208  13.610
10698W        W77107  19.001  34.296   1.290
10699W        W77108   1.922  14.560   3.599
10700W        W77109  10.586  26.729   0.261
10701W        W77110  43.762   3.772  13.168
10702W        W77111   7.858   3.289  13.868
10703W        W77112  42.545  15.727  10.653
10704W        W77113  17.803  19.663   1.900
10705W        W77114  11.676  34.089   1.261
10706W        W77115  16.667  22.171  11.038
10707W        W77116   8.788  22.542   0.089
10708W        W77117  27.218  20.983  14.073
10709W        W77118  41.946  16.865  14.488
10710W        W77119  11.506  21.613   1.425
10711W        W77120   9.168   2.716  14.196
10712W        W77121  44.409   8.932  11.454
10713W        W77122   4.249  27.611  12.941
10714W        W77123  10.083  35.048   0.390
10715W        W77124  24.447  27.060   0.293
10716W        W77125  42.343  23.720   4.169
10717W        W77126  16.148  22.907   4.267
10718W        W77127   7.467  31.912   0.042
10719W        W77128  36.363  24.705  10.660
10720W        W77129  11.759  10.614   1.411
10721W        W77130  23.140   6.123  11.908
10722W        W77131  36.501  27.076  11.917
10723W        W77132  28.915  19.047  14.112
10724W        W77133  28.926  13.164  13.117
10725W        W77134  35.132   7.664   4.237
10726W        W77135  16.709  23.098  13.049
10727W        W77136  35.516  36.925  13.530
10728W        W77137   7.650  11.158   4.767
10729W        W77138  24.675  41.970   1.129
10730W        W77139  31.621  30.169   2.788
10731W        W77140   2.690  15.689   4.064
10732W        W77141  25.103  44.364   1.866
10733W        W77142  29.151   1.437  11.633
10734W        W77143  32.551   4.803  12.913
10735W        W77144   6.652  41.197   1.723
10736W        W77145  18.795   2.875  12.056
10737W        W77146  22.088   3.412  13.028
10738W        W77147  30.191  34.850  13.438
10739W        W77148  39.262  19.701  10.329
10740W        W77149  29.588   6.439   4.653
10741W        W77150  44.544  35.951  12.895
10742W        W77151  44.046   7.509  11.933
10743W        W77152  38.612  26.525   2.416
10744W        W77153  13.715  33.229  14.047
10745W        W77154  35.438  21.547   1.375
10746W        W77155  16.728  24.575  13.917
10747W        W77156  10.564   6.407   1.778
10748W        W77157  10.637  10.058   0.796
10749W        W77158  21.179  10.099  13.822
10750W        W77159  26.421  12.282   4.362
10751W        W77160   0.342   2.492   1.755
10752W        W77161  18.604  32.949   4.251
10753W        W77162  26.964   7.747   3.123
10754W        W77163  17.545   4.389  12.963
10755W        W77164   2.181  18.597  12.052
10756W        W77165  10.233   4.652  13.728
10757W        W77166  25.711  24.914   4.781
10758W        W77167   0.491  39.783   0.705
10759W        W77168  13.778  29.399   3.653
10760W        W77169  21.168   1.348  14.063
10761W        W77170  23.669  41.312   3.757
10762W        W77171  11.587   7.703   2.462
10763W        W77172  21.709  33.342   1.870
10764W        W77173  22.627  40.996  13.308
10765W        W77174   4.414   2.744  13.858
10766W        W77175  25.822  41.242  13.772
10767W        W77176   1.144  30.634   1.506
10768W        W77177  13.214  19.309  14.582
10769W        W77178   6.353  17.323   2.861
10770W        W77179  36.596  19.671   0.229
10771W        W77180  30.033  27.409  10.709
10772W        W77181  18.266   3.182   3.346
10773W        W77182  37.582  36.995   0.353
10774W        W77183   9.043  17.162  11.608
10775W        W77184   1.361  13.686   4.390
10776W        W77185  19.674  32.559  13.959
10777W        W77186   0.180  32.047   3.751
10778W        W77187  17.514  44.776  10.746
10779W        W77188   5.585  10.735  11.581
10780W        W77189  37.033  27.109   0.248
10781W        W77190  21.440  16.030  11.944
10782W        W77191  41.957  33.557   0.265
10783W        W77192   4.749   5.641   3.744
10784W        W77193  37.354  28.395   0.427
10785W        W77194   2.100   1.301   4.353
10786W        W77195  32.379  30.007   4.316
10787W        W77196   3.610  16.944  13.864
10788W        W77197  23.313  36.357   0.797
10789W        W77198  14.072  19.321  13.059
10790W        W77199  38.395  11.796   1.650
10791W        W77200  26.896  40.766   2.823
10792W        W77201  36.389  44.623  14.760
10793W        W77202   7.395  15.236   4.364
10794W        W77203   6.744  42.440   1.843
10795W        W77204  37.827  41.529  14.049
10796W        W77205  28.134   7.916  11.838
10797W        W77206  27.482   9.748  13.325
10798W        W77207   0.847  41.220  11.954
10799W        W77208  12.559  17.723   4.506
10800W        W77209  20.909  22.630   1.050
10801W        W77210   1.545   4.400  11.157
10802W        W77211  17.724  32.783  12.856
10803W        W77212  39.410   5.507   3.189
10804W        W77213  25.431  38.301  12.067
10805W        W77214  15.920  24.134   4.540
10806W        W77215   9.199   0.421  10.155
10807W        W77216   3.217  22.202  10.829
10808W        W77217  39.365   7.092   1.935
10809W        W77218  28.190   6.715   3.053
10810W        W77219  36.529   8.782   0.997
10811W        W77220   2.896  21.192   3.673
10812W        W77221   0.983  38.525  12.746
10813W        W77222  31.161  10.143  13.827
10814W        W77223   7.150  23.167  14.374
10815W        W77224  22.456  44.331   4.995
10816W        W77225  38.375  24.232   1.464
10817W        W77226   8.859  40.437  11.486
10818W        W77227  34.819  15.259  14.937
10819W        W77228  14.885  14.183   2.485
10820W        W77229  41.301  23.820   1.324
10821W        W77230  16.625   7.832   3.258
10822W        W77231  14.649  34.660  11.269
10823W        W77232  36.381   6.415   3.158
10824W        W77233  29.250  29.119   0.339
10825W        W77234  11.176  28.208  13.413
10826W        W77235  35.909  44.439  14.722
10827W        W77236  28.965   0.431   0.954
10828W        W77237   3.971  41.281   2.694
10829W        W77238  38.632  43.868  11.992
10830W        W77239  21.167  38.490  11.475
10831W        W77240  23.122  24.133   4.387
10832W        W77241  20.556   0.903  14.902
10833W        W77242   2.860  25.751   1.788
10834W        W77243  22.730  34.032  14.202
10835W        W77244   1.328  33.858   4.783
10836W        W77245  14.081  27.647  14.427
10837W        W77246  29.985   0.950  14.329
10838W        W77247  33.619  33.057   1.426
10839W        W77248  42.213  38.488  14.707
10840W        W77249  34.546  37.463   1.933
10841W        W77250  26.649  16.722  14.762
10842W        W77251  18.179  41.018  12.510
10843W        W77252  24.976  20.500  12.327
10844W        W77253  37.786  10.218  10.754
10845W        W77254   8.714  35.566   3.254
10846W        W77255  30.531  21.350  10.305
10847W        W77256  24.081  39.230   4.141
10848W        W77257   2.588  22.743  13.251
10849W        W77258  40.454  23.333  12.022
10850W        W77259  10.142  19.196   2.344
10851W        W77260  36.546  10.415  13.372
10852W        W77261  23.146  26.452   3.313
10853W        W77262  11.312  34.471  12.578
10854W        W77263  12.828  44.342  11.958
10855W        W77264  26.871  16.460  12.174
10856W        W77265  44.302  44.033  11.148
10857W        W77266  23.496  21.022  10.679
10858W        W77267  27.184   8.834  12.579
10859W        W77268  13.157  37.046  14.383
10860W        W77269  19.483   0.941  11.145
10861W        W77270  42.641  16.278   3.183
10862W        W77271  37.576   2.942  10.545
10863W        W77272  24.069   1.868  14.161
10864W        W77273  35.885  19.346  11.883
10865W        W77274  36.584  19.090  11.510
10866W        W77275  22.739  35.837   0.346
10867W        W77276  13.358  24.257  11.951
10868W        W77277  18.769  39.381   3.748
10869W        W77278  43.502   1.106  13.485
10870W        W77279  20.100  17.638  14.362
10871W        W77280  42.959  15.245  12.628
10872W        W77281   8.729  27.458  14.004
10873W        W77282  19.694   5.344   3.201
10874W        W77283  14.304  16.502  14.060
10875W        W77284  29.186  10.201   1.679
10876W        W77285  32.270   4.370  11.208
10877W        W77286  15.255  14.632   2.193
10878W        W77287  35.817  38.434   2.256
10879W        W77288  37.513  18.380   5.343
10880W        W77289   2.218  26.401  11.113
10881W        W77290  20.016  24.903   2.671
10882W        W77291  31.268  23.674  12.522
10883W        W77292  30.975  19.077  12.239
10884W        W77293  41.083  32.508  12.605
10885W        W77294  36.413  24.961  11.117
10886W        W77295  11.636  37.084  12.709
10887W        W77296  27.413   7.594  10.753
10888W        W77297  37.403   8.980  13.775
10889W        W77298  28.928  29.676   3.758
10890W        W77299  21.213  18.514  14.789
10891W        W77300  39.800  38.803   4.539
10892W        W77301  33.317   0.950  12.367
10893W        W77302  17.913  30.319   1.084
10894W        W77303  13.414  31.057   4.273
10895W        W77304  24.556  24.081  12.609
10896W        W77305  24.959  19.482  13.266
10897W        W77306  28.409  20.486   1.333
10898W        W77307   1.317  26.276   3.399
10899W        W77308  11.702  31.098  12.916
10900W        W77309  14.153   7.848   4.608
10901W        W77310  33.305  16.616   4.508
10902W        W77311  25.598  43.539   3.949
10903W        W77312  23.474  21.513   1.805
10904W        W77313   4.883  28.968   4.939
10905W        W77314   3.019  25.944   1.336
10906W        W77315  10.283  31.067   1.875
10907W        W77316   0.461  15.061  12.988
10908W        W77317   1.809  42.479   1.952
10909W        W77318   0.265  18.512  11.251
10910W        W77319   5.814  34.553   1.538
10911W        W77320  44.714   0.791   0.761
10912W        W77321  23.153  24.086   2.991
10913W        W77322   3.915  24.449   5.473
10914W        W77323  39.070  28.463   4.551
10915W        W77324  41.963   3.853   4.525
10916W        W77325  16.715   6.987   4.997
10917W        W77326   0.372  44.974  14.033
10918W        W77327  18.546  17.315  10.912
10919W        W77328   2.717  20.750  14.518
10920W        W77329   6.118   6.937   4.705
10921W        W77330   2.737  41.098  13.490
10922W        W77331   1.011  32.858   0.471
10923W        W77332  39.694   5.302  12.920
10924W        W77333   2.013  19.768  12.112
10925W        W77334   4.840   8.692  11.897
10926W        W77335  33.486  22.006   4.161
10927W        W77336  23.486  40.855   0.576
10928W        W77337  14.339  17.331  13.632
10929W        W77338  15.572  12.579  11.210
10930W        W77339  22.160  10.892   4.134
10931W        W77340  41.245   6.695  12.066
10932W        W77341   9.625   7.328  14.488
10933W        W77342  11.653  27.212   1.141
10934W        W77343  15.935  13.134   2.908
10935W        W77344  20.175  35.411  11.199
10936W        W77345   4.540  26.645  14.746
10937W        W77346  14.062  34.591  14.457
10938W        W77347  11.685  16.821   1.809
10939W        W77348  38.566  30.551   2.109
10940W        W77349  26.052  28.725   4.238
10941W        W77350   1.851  31.021   0.006
10942W        W77351  36.640  19.015  14.941
10943W        W77352  22.511   2.933   4.228
10944W        W77353  32.462  24.150  12.046
10945W        W77354  19.591  38.847  10.854
10946W        W77355  21.577   3.809   3.850
10947W        W77356  43.149  29.142   4.848
10948W        W77357  36.359  14.734   4.568
10949W        W77358  13.794  25.043   4.088
10950W        W77359  35.571  24.258   3.067
10951W        W77360  40.899  37.782  12.648
10952W        W77361  19.669  35.850   3.645
10953W        W77362  14.426  40.304  14.542
10954W        W77363  22.746  40.906  14.779
10955W        W77364  27.222   6.787  11.214
10956W        W77365  39.785  35.041  13.960
10957W        W77366  26.682  11.869  13.843
10958W        W77367  36.002  25.941   2.690
10959W        W77368  26.107  13.281   4.640
10960W        W77369  36.393  23.488  13.421
10961W        W77370  36.433  34.149   2.695
10962W        W77371  24.346  28.145   1.841
10963W        W77372   5.756  11.557   0.385
10964W        W77373  37.373   5.247   3.360
10965W        W77374  36.440  30.548   2.973
10966W        W77375  23.176  34.993   4.904
10967W        W77376  36.354  15.296   1.202
10968W        W77377  34.676  42.517  10.478
10969W        W77378  40.794   7.297  12.935
10970W        W77379  26.798   2.872  12.921
10971W        W77380  38.521  22.175  14.892
10972W        W77381  35.879  29.069   0.516
10973W        W77382   3.309   6.753   0.007
10974W        W77383  32.149  40.071  11.142
10975W        W77384  40.428  43.004   4.562
10976W        W77385  16.745  28.922  14.417
10977W        W77386  10.346  29.225  14.939
10978W        W77387  37.524  15.831   1.875
10979W        W77388  16.581  12.153   1.440
10980W        W77389  16.312  31.398  13.429
10981W        W77390  15.090  14.054  12.552
10982W        W77391  18.513  29.158  14.864
10983W        W77392  27.135   7.835  13.371
10984W        W77393   0.018   4.831   1.737
10985W        W77394  24.944  32.942   2.431
10986W        W77395  40.386  26.581   4.597
10987W        W77396  17.019  18.826  12.484
10988W        W77397  24.056  39.436  14.182
10989W        W77398  43.836  42.103   3.646
10990W        W77399  37.976  27.736   0.259
10991W        W77400  14.755   1.307   4.438
10992W        W77401  30.228   9.724   1.895
10993W        W77402  22.243   5.853  14.878
10994W        W77403  22.202  26.758  10.058
10995W        W77404  13.106  38.497   4.926
10996W        W77405  18.826  36.958   3.129
10997W        W77406   7.407  17.682   0.798
10998W        W77407  17.801  13.382   0.812
10999W        W77408  33.976  20.262   4.244
11000W        W77409  18.365  13.309  11.749
11001W        W77410  18.146  35.536   3.393
11002W        W77411  21.049   2.896   1.544
11003W        W77412  30.448   3.086   0.144
11004W        W77413  18.653  35.546  11.180
11005W        W77414  28.433  10.327   3.577
11006W        W77415  35.456  22.024  14.043
11007W        W77416  11.657  19.609  11.741
11008W        W77417  36.318   4.165  14.874
11009W        W77418  32.176  23.734   4.081
11010W        W77419  35.103  24.906   4.173
11011W        W77420   1.350   7.176   4.701
11012W        W77421   2.972  17.017   2.357
11013W        W77422  40.778  43.502  12.296
11014W        W77423  12.228  37.316   4.384
11015W        W77424   5.039  16.544   3.677
11016W        W77425   2.976  32.934   2.298
11017W        W77426  35.392  42.010   0.630
11018W        W77427  38.010  22.022  13.599
11019W        W77428  28.220  14.146   1.870
11020W        W77429  28.852   6.037  10.693
11021W        W77430  36.085  17.375   2.192
11022W        W77431   0.160   7.006   1.695
11023W        W77432  19.723  33.147  11.109
11024W        W77433  25.428   8.287   9.844
11025W        W77434  42.913   6.542   2.741
11026W        W77435  30.424  19.403  12.908
11027W        W77436  12.040  36.418  13.953
11028W        W77437  33.647  43.767   2.162
11029W        W77438  21.230  17.437  11.241
11030W        W77439  19.644  34.539  14.028
11031W        W77440  33.103   9.624   3.317
11032W        W77441  37.989  16.733  10.873
11033W        W77442  36.407  18.789   4.580
11034W        W77443  16.524  23.302  11.039
11035W        W77444   2.758  19.126  13.493
11036W        W77445  17.223  16.801  11.137
11037W        W77446  13.850  31.944  12.515
11038W        W77447  29.466  37.611   1.160
11039W        W77448   8.392  38.055   3.703
11040W        W77449  26.417  44.255   2.971
11041W        W77450  42.610  34.583  11.592
11042W        W77451  28.564  23.686   2.816
11043W        W77452   8.096  43.520  11.992
11044W        W77453   9.591  31.011   1.291
11045W        W77454  13.590  12.416   4.516
11046W        W77455   3.295  27.200   0.260
11047W        W77456  42.087  15.542   4.153
11048W        W77457  15.156   4.870  14.581
11049W        W77458  34.554  24.013  14.311
11050W        W77459  26.550  31.163   0.117
11051W        W77460  40.033  14.843   3.826
11052W        W77461   7.121   2.214   3.190
11053W        W77462   3.708   4.918   5.092
11054W        W77463  29.998  26.264  11.108
11055W        W77464  20.826  38.395   4.519
11056W        W77465  28.133  28.710  12.411
11057W        W77466   9.185   3.698   2.222
11058W        W77467  19.933  28.207   2.261
11059W        W77468  32.336  17.669  14.427
11060W        W77469  38.681  18.527  13.635
11061W        W77470   6.422  36.312   3.950
11062W        W77471   3.872  23.066  14.339
11063W        W77472  20.787  22.731  13.392
11064W        W77473   8.248  32.464   0.552
11065W        W77474  28.220  30.406  14.853
11066W        W77475  38.547   5.197  11.617
11067W        W77476   9.598  14.633   0.357
11068W        W77477  40.442  29.612   2.698
11069W        W77478  40.591  26.559  10.666
11070W        W77479   9.803  21.585  11.722
11071W        W77480   3.171  43.928   4.822
11072W        W77481  21.700  25.728  12.948
11073W        W77482  21.156  31.199  14.372
11074W        W77483  43.528  22.569   1.914
11075W        W77484   6.919  26.648   3.714
11076W        W77485  31.964  14.327   4.720
11077W        W77486  41.832  19.448   1.411
11078W        W77487  10.681  18.645  14.506
11079W        W77488   7.525   4.367   2.379
11080W        W77489  42.846  32.314   1.692
11081W        W77490   3.810  21.162   1.123
11082W        W77491  32.338  19.504  14.836
11083W        W77492  37.429  36.694   3.292
11084W        W77493  44.578  24.365  12.053
11085W        W77494  17.086   6.782   2.751
11086W        W77495  28.421   4.294  12.542
11087W        W77496  30.642   4.245  11.490
11088W        W77497   6.307  35.924   1.217
11089W        W77498  29.161   0.669  14.576
11090W        W77499   3.806  32.354  14.237
11091W        W77500  13.177   8.716  10.639
11092W        W77501   0.754  23.576  12.259
11093W        W77502   9.504  32.405  11.163
11094W        W77503  43.778  13.973  11.618
11095W        W77504  37.586   2.345  12.520
11096W        W77505  28.291  12.690   2.826
11097W        W77506  38.383   2.916  13.583
11098W        W77507  30.056  34.811   2.979
11099W        W77508  16.061  13.187  11.017
11100W        W77509  25.069  12.757   0.978
11101W        W77510  11.879  44.969  11.277
11102W        W77511  27.967  21.945  14.381
11103W        W77512  17.295  15.151   0.435
11104W        W77513  38.465  13.730  13.573
11105W        W77514  13.426   2.120  13.018
11106W        W77515  18.461  37.953  11.246
11107W        W77516  42.377  15.613  12.520
11108W        W77517  10.800  11.132  14.494
11109W        W77518  30.185   7.053  12.537
11110W        W77519  42.095   1.235  12.060
11111W        W77520  23.101  23.443   4.802
11112W        W77521  43.093  20.106   4.258
11113W        W77522   0.236  31.970   1.640
11114W        W77523  36.762  26.645   3.173
11115W        W77524  41.819  39.425  12.400
11116W        W77525  22.064   7.834   2.163
11117W        W77526  21.297  11.967  13.477
11118W        W77527  17.210   8.997   0.915
11119W        W77528  29.582  25.642   3.662
11120W        W77529  33.485   3.562   2.777
11121W        W77530  15.160   3.466  12.625
11122W        W77531   0.509  11.871   5.181
11123W        W77532  40.080   3.462  12.501
11124W        W77533  22.060   2.448   2.259
11125W        W77534  40.462  29.683  10.312
11126W        W77535  14.200  41.184  12.442
11127W        W77536  22.474  22.291  11.867
11128W        W77537  24.535   3.913   2.215
11129W        W77538  11.503  28.976  12.047
11130W        W77539  34.413  16.335  12.953
11131W        W77540   1.417  26.030  12.520
11132W        W77541   1.695  25.761   2.160
11133W        W77542   0.448  13.139  14.846
11134W        W77543  25.293  22.425  11.731
11135W        W77544  43.349  34.307   4.958
11136W        W77545   2.941  22.748   1.261
11137W        W77546  29.715  11.840   2.950
11138W        W77547  37.093  44.825  13.615
11139W        W77548  27.095  21.980   0.873
11140W        W77549  11.131  10.700  11.973
11141W        W77550  37.068  42.860   4.103
11142W        W77551  17.709  44.027   1.807
11143W        W77552  13.180  41.024  10.504
11144W        W77553  31.862   7.778   4.122
11145W        W77554  22.176  17.776  12.567
11146W        W77555  20.231  30.217   2.676
11147W        W77556  11.874  36.652  14.454
11148W        W77557  42.849   5.093   1.410
11149W        W77558  43.437  21.335   3.631
11150W        W77559  37.971  31.722  11.132
11151W        W77560  18.144  27.204   4.366
11152W        W77561  36.046   0.926   1.259
11153W        W77562  13.045  44.403   0.724
11154W        W77563  41.702  28.170  10.207
11155W        W77564  21.601   8.652   0.651
11156W        W77565  35.274  33.143  13.375
11157W        W77566  11.812  15.342  12.397
11158W        W77567  36.953  30.458   2.961
11159W        W77568  34.841   4.710  14.464
11160W        W77569  18.169  15.203   2.678
11161W        W77570  12.886  28.631   1.006
11162W        W77571  38.672   9.310   2.232
11163W        W77572  26.066   3.204   5.103
11164W        W77573  17.498   3.452  12.961
11165W        W77574  25.157   3.691   0.693
11166W        W77575   6.480  19.313   3.779
11167W        W77576  37.453  44.343   4.558
11168W        W77577   2.777  31.691   1.698
11169W        W77578  13.837  31.435   2.266
11170W        W77579  44.352  24.297   0.836
11171W        W77580  30.444  15.252   0.243
11172W        W77581  21.618  44.676  12.155
11173W        W77582  11.136  16.822  13.029
11174W        W77583   2.667   4.643   4.125
11175W        W77584  17.128  20.997   2.204
11176W        W77585  44.797   0.174  13.930
11177W        W77586  13.573  23.105  10.229
11178W        W77587   4.532   7.638   2.140
11179W        W77588   2.232  21.756  10.646
11180W        W77589  39.209  42.461  13.787
11181W        W77590  42.911  31.214   4.596
11182W        W77591  15.618  34.880  13.857
11183W        W77592  40.540   3.913   4.617
11184W        W77593  25.674  24.177  13.465
11185W        W77594  26.703  37.039   4.587
11186W        W77595  28.462  32.022   2.155
11187W        W77596  42.065  10.983  13.618
11188W        W77597  23.162  14.177  14.563
11189W        W77598  28.930  31.933   3.114
11190W        W77599   6.124  10.662   1.007
11191W        W77600  36.459  30.164  11.105
11192W        W77601  29.509  10.766  11.329
11193W        W77602  23.446  15.999  12.907
11194W        W77603   6.670  10.386  14.932
11195W        W77604  28.071   9.376   2.717
11196W        W77605  26.858  12.213   2.541
11197W        W77606  42.368   3.459  14.473
11198W        W77607  15.383  42.963  12.867
11199W        W77608   1.343  31.796   0.941
11200W        W77609  10.612  22.135   3.252
11201W        W77610  18.049  16.935   0.902
11202W        W77611  15.099  44.584  13.748
11203W        W77612  16.305  35.465   0.988
11204W        W77613   3.792   4.212   1.376
11205W        W77614  22.801  32.368  12.044
11206W        W77615  27.159  40.759   1.815
11207W        W77616  41.676  43.258  11.825
11208W        W77617  27.901  10.466  14.265
11209W        W77618   6.696  14.846   3.091
11210W        W77619  40.373  29.441  11.652
11211W        W77620  40.918  42.783  11.949
11212W        W77621  30.463  30.641   0.365
11213W        W77622  25.297  38.261   0.333
11214W        W77623   3.623   7.330  12.900
11215W        W77624  31.698  43.435   2.175
11216W        W77625  16.260  25.936   4.168
11217W        W77626  39.087  40.407   2.677
11218W        W77627  40.480   5.190  11.754
11219W        W77628  20.160  34.856   1.825
11220W        W77629   5.696  35.566  12.879
11221W        W77630   4.052   8.285  12.825
11222W        W77631  43.404  23.145   0.211
11223W        W77632   5.602   0.489  14.077
11224W        W77633   3.246  42.886  11.680
11225W        W77634  26.771  25.716   1.358
11226W        W77635  25.324  26.610   5.019
11227W        W77636  35.007  43.255  12.605
11228W        W77637  34.731  19.994  13.030
11229W        W77638   1.016  35.518   1.748
11230W        W77639  14.268  21.058   3.671
11231W        W77640   1.309  13.728   0.898
11232W        W77641  23.048   8.139   3.281
11233W        W77642   5.779  43.244   0.405
11234W        W77643  34.988   7.309   4.673
11235W        W77644   9.670   4.297   1.396
11236W        W77645  21.789  25.199  12.980
11237W        W77646  21.072  42.489   1.628
11238W        W77647  39.886  11.151   2.865
11239W        W77648  41.370   9.230   2.890
11240W        W77649  25.017  36.692  11.304
11241W        W77650   0.457   1.462   3.233
11242W        W77651  24.280  25.810  11.196
11243W        W77652  25.842  26.700  13.081
11244W        W77653  18.332   3.145  14.925
11245W        W77654   4.198  31.543  10.694
11246W        W77655  38.331  36.823   0.285
11247W        W77656  42.295  43.002   4.101
11248W        W77657   0.924  40.767  13.437
11249W        W77658  35.051   9.982  13.059
11250W        W77659  34.599  44.423   4.414
11251W        W77660  42.500  19.111   2.074
11252W        W77661  19.614  36.461   2.338
11253W        W77662  14.767  14.153  12.071
11254W        W77663  17.680  43.022   2.170
11255W        W77664   1.265  28.526  13.627
11256W        W77665  34.738   9.753   5.016
11257W        W77666  23.278  12.314  14.806
11258W        W77667  21.686  29.973   3.615
11259W        W77668  43.709  30.098  10.802
11260W        W77669  15.584  41.898  13.574
11261W        W77670  36.837   8.374  13.067
11262W        W77671  21.152  34.957   0.852
11263W        W77672  18.637  25.296   3.367
11264W        W77673  21.745  40.992  14.987
11265W        W77674  43.508  42.754  13.086
11266W        W77675  37.902   7.808   4.573
11267W        W77676   7.294  14.302   3.657
11268W        W77677  32.485  36.063  10.740
11269W        W77678  12.105   1.303   1.854
11270W        W77679  26.040   8.212  12.568
11271W        W77680  31.245  26.485   3.224
11272W        W77681   4.829   6.368  13.396
11273W        W77682  23.178   2.247  11.109
11274W        W77683  30.547  41.525  12.470
11275W        W77684   1.735  35.336  12.610
11276W        W77685  43.200  18.971   4.807
11277W        W77686  30.889  42.615  11.371
11278W        W77687  32.410  28.645  11.648
11279W        W77688  19.074  42.861  11.084
11280W        W77689   5.131   7.776  14.889
11281W        W77690  13.398  31.881  14.324
11282W        W77691  18.607  18.813   0.444
11283W        W77692  21.615  11.359  11.989
11284W        W77693  27.718  26.812  11.104
11285W        W77694  16.738  29.157  11.016
11286W        W77695  42.571  44.925   4.158
11287W        W77696  17.043   2.749  12.463
11288W        W77697   2.714  37.056   4.679
11289W        W77698  13.574  22.296  12.191
11290W        W77699  15.569  16.534   4.264
11291W        W77700   5.125  25.705   5.063
11292W        W77701   5.406   3.127   0.374
11293W        W77702   3.991  41.790   1.957
11294W        W77703  21.763  11.750   0.284
11295W        W77704  44.237  31.922  12.277
11296W        W77705  34.609  19.199  13.142
11297W        W77706  41.828   2.329   1.585
11298W        W77707  14.668   0.308  11.997
11299W        W77708  35.423  37.577   2.915
11300W        W77709   3.057  14.582  13.987
11301W        W77710  15.798  39.803   3.574
11302W        W77711   4.921  24.158   3.129
11303W        W77712  34.346  39.871   4.108
11304W        W77713   4.108  24.117   3.499
11305W        W77714  25.360   7.864  11.142
11306W        W77715  10.594  10.281  14.001
11307W        W77716   0.230  42.030   2.262
11308W        W77717  39.643   1.639  14.769
11309W        W77718  15.290  19.317   1.698
11310W        W77719   7.589  34.124  11.058
11311W        W77720  15.171  18.058  12.974
11312W        W77721  38.116   9.706   0.276
11313W        W77722   0.626  21.194  13.239
11314W        W77723  24.105  36.985   0.830
11315W        W77724  40.306  39.353   1.462
11316W        W77725  42.783   1.368  10.736
11317W        W77726  16.188  27.991   1.361
11318W        W77727  28.452  22.541  12.560
11319W        W77728  37.951   5.648   2.810
11320W        W77729  39.016   0.961   2.629
11321W        W77730  25.616   6.445   1.667
11322W        W77731  17.376  19.671   3.332
11323W        W77732  25.274  39.436   4.779
11324W        W77733  30.722   1.334   4.534
11325W        W77734  11.061  11.833   0.819
11326W        W77735  37.806  14.657   0.789
11327W        W77736   1.774   1.712  13.951
11328W        W77737  25.886  11.937   2.283
11329W        W77738  21.586  12.280  12.397
11330W        W77739  19.537   1.155   1.437
11331W        W77740  42.566  32.194  12.338
11332W        W77741  39.389   1.350  13.458
11333W        W77742  27.646  39.833   1.809
11334W        W77743  14.321  35.214   4.206
11335W        W77744  22.124  10.958   0.933
11336W        W77745  31.102   7.915   4.883
11337W        W77746  37.541   6.846  11.605
11338W        W77747  23.268  42.252   0.263
11339W        W77748   8.352  42.368  13.763
11340W        W77749   3.340  23.878  12.411
11341W        W77750  44.965   9.379  11.794
11342W        W77751   1.079  41.374   0.335
11343W        W77752  38.350  20.084   3.310
11344W        W77753  39.854  13.267   2.165
11345W        W77754   7.856  38.931  12.654
11346W        W77755   6.718  34.337  12.004
11347W        W77756  33.106   5.503  13.867
11348W        W77757  26.931  33.113   1.432
11349W        W77758  26.417  31.552   1.430
11350W        W77759   6.567  20.208  12.577
11351W        W77760   6.792  25.291  12.069
11352W        W77761  27.069   3.259  12.104
11353W        W77762  30.914  24.195  13.369
11354W        W77763   1.507  37.429  14.908
11355W        W77764  35.537  24.960  10.729
11356W        W77765  21.244  41.809  13.059
11357W        W77766  39.580  24.114  12.511
11358W        W77767  13.830   1.193   1.763
11359W        W77768  15.966  15.765  13.950
11360W        W77769  37.356   0.783   3.609
11361W        W77770  18.690   6.390  14.451
11362W        W77771  34.377  14.563   3.622
11363W        W77772  41.851   1.489   3.565
11364W        W77773  11.825  23.486   3.208
11365W        W77774   3.915  24.575   2.188
11366W        W77775  26.447  44.888  10.482
11367W        W77776   6.474  19.159   1.770
11368W        W77777   1.454   0.980  14.202
11369W        W77778  25.541   5.357  11.363
11370W        W77779  13.650  37.946   1.327
11371W        W77780  31.112  27.183   2.649
11372W        W77781   5.163  44.497   2.806
11373W        W77782   6.272  13.532   4.178
11374W        W77783  22.964  31.454  12.109
11375W        W77784  31.057  10.085   3.467
11376W        W77785  23.562  36.308   3.165
11377W        W77786   0.945  41.755  11.000
11378W        W77787  24.805  41.221  13.001
11379W        W77788  35.542   2.745   2.855
11380W        W77789  33.863  34.629   4.547
11381W        W77790  30.503  32.410   0.773
11382W        W77791  24.699  32.625  13.831
11383W        W77792  16.264  20.594   0.299
11384W        W77793  42.337   9.450   1.154
11385W        W77794  42.757  30.649  13.566
11386W        W77795  19.130  38.875  13.598
11387W        W77796   9.079  36.872   1.253
11388W        W77797  19.620   1.186   3.222
11389W        W77798   2.029  34.650  13.125
11390W        W77799   8.568  17.843   3.307
11391W        W77800  22.511  21.035   1.708
11392W        W77801  34.450  31.557  11.619
11393W        W77802  39.773  21.417  11.507
11394W        W77803  33.533  44.628  12.342
11395W        W77804  17.261  21.824  11.836
11396W        W77805   9.377   6.346  14.316
11397W        W77806  38.528   0.291   1.352
11398W        W77807  22.299  14.671   3.720
11399W        W77808  35.104  41.782  11.557
11400W        W77809  38.885  16.804   2.103
11401W        W77810  17.749  18.774   3.559
11402W        W77811   8.138  34.115  10.428
11403W        W77812  34.560  13.394   2.265
11404W        W77813  42.443   1.264  14.790
11405W        W77814  40.808  21.694   2.429
11406W        W77815  25.203  28.275   0.403
11407W        W77816  40.363  35.604   3.803
11408W        W77817  14.832  36.418   2.820
11409W        W77818  11.566  27.088   3.190
11410W        W77819  31.372   6.478   1.264
11411W        W77820   9.853  24.377  12.066
11412W        W77821  40.762  18.780   3.785
11413W        W77822  34.861  10.896  12.465
11414W        W77823  25.604  11.198   3.366
11415W        W77824   2.851  23.735  11.411
11416W        W77825   1.889  14.588   0.012
11417W        W77826  23.670  23.923  13.134
11418W        W77827  36.409   9.662   1.931
11419W        W77828  35.471  21.655  14.460
11420W        W77829  11.165  27.237   2.901
11421W        W77830  43.020  28.821  13.794
11422W        W77831  13.373  40.394  12.869
11423W        W77832  12.346  41.519   2.233
11424W        W77833  21.103  18.570   5.062
11425W        W77834  29.507  30.934   4.429
11426W        W77835  41.190  14.733  13.063
11427W        W77836  18.573  10.608  14.386
11428W        W77837  16.279  27.958   3.626
11429W        W77838  31.696  31.132   4.640
11430W        W77839  27.271  17.416   0.875
11431W        W77840  22.178  14.964   4.166
11432W        W77841  29.104  31.201  12.119
11433W        W77842  19.090   5.855   2.654
11434W        W77843   7.967  16.219   0.361
11435W        W77844  19.680  41.844  12.947
11436W        W77845  40.259   4.519   2.810
11437W        W77846   3.488  10.822  14.390
11438W        W77847  34.013  30.611   0.165
11439W        W77848   6.848  10.110   1.882
11440W        W77849  40.513  20.555   2.641
11441W        W77850  29.199  20.851  13.864
11442W        W77851  41.020   6.353  14.333
11443W        W77852   6.671  31.374  14.398
11444W        W77853  15.627  22.699  12.013
11445W        W77854   9.022  29.440   5.032
11446W        W77855  40.418  41.239  13.903
11447W        W77856  18.157  11.836   0.340
11448W        W77857   6.893  17.370  13.398
11449W        W77858  19.822  12.562   1.420
11450W        W77859  30.057  39.465  12.889
11451W        W77860  21.715  22.460  11.863
11452W        W77861   2.468  24.534  13.791
11453W        W77862  30.148  24.686  13.386
11454W        W77863  34.379  14.267  11.963
11455W        W77864  20.125  37.823   3.704
11456W        W77865   3.262  44.595   3.666
11457W        W77866  20.906  10.273  14.633
11458W        W77867  32.472  36.367   2.453
11459W        W77868  14.231  13.859  14.944
11460W        W77869  13.502  28.058  14.122
11461W        W77870  18.517  40.795   4.574
11462W        W77871  18.666  31.107   4.741
11463W        W77872  12.676  17.410   1.912
11464W        W77873   1.556   2.719  12.114
11465W        W77874  23.755  39.067   1.341
11466W        W77875  17.582  39.605  12.030
11467W        W77876  21.298  17.441  12.057
11468W        W77877  38.553  17.331   3.227
11469W        W77878  29.062   7.173   1.615
11470W        W77879   4.025  24.117   2.777
11471W        W77880  29.916  12.595  14.643
11472W        W77881  32.808   1.025   9.852
11473W        W77882  36.523  11.837  12.076
11474W        W77883  36.050  14.310   1.752
11475W        W77884  10.633  15.183   3.761
11476W        W77885   7.169   3.202  11.561
11477W        W77886   3.302  31.439  10.704
11478W        W77887  41.003  21.343  11.665
11479W        W77888   9.627  27.844   0.420
11480W        W77889  20.217  38.854   3.757
11481W        W77890  11.198  41.910   2.215
11482W        W77891  20.036  34.080   3.754
11483W        W77892  20.581  11.896  14.894
11484W        W77893  29.526  26.184  12.012
11485W        W77894  28.443   7.263   3.756
11486W        W77895  39.319  35.556  13.274
11487W        W77896  32.642  32.058  13.248
11488W        W77897   0.224  31.352   2.408
11489W        W77898   2.949  35.660   3.683
11490W        W77899  34.107   9.235  13.869
11491W        W77900  14.844  33.444  13.054
11492W        W77901  25.671  43.960  12.598
11493W        W77902  39.935   0.788   1.324
11494W        W77903  36.547  22.763  14.026
11495W        W77904  31.016   1.220   4.055
11496W        W77905  25.415  21.753   1.692
11497W        W77906  44.259  14.593   2.619
11498W        W77907  33.142  22.058   5.087
11499W        W77908  32.095  31.270  13.086
11500W        W77909  43.026  38.633   0.378
11501W        W77910  21.812  18.144  12.612
11502W        W77911   5.761  34.066  13.865
11503W        W77912  10.298  31.595   0.041
11504W        W77913  26.009   9.867   2.263
11505W        W77914  11.196  31.157   1.014
11506W        W77915  33.846  29.519   2.790
11507W        W77916  44.759  39.758   2.960
11508W        W77917  25.171   8.404  12.785
11509W        W77918   2.351  28.236   3.334
11510W        W77919   0.478  30.262   0.738
11511W        W77920  19.038  23.848   1.885
11512W        W77921  18.020  44.623   2.718
11513W        W77922  13.902  43.893   2.938
11514W        W77923   9.345   4.441  10.755
11515W        W77924   3.741  10.255  13.836
11516W        W77925  24.113  23.882   4.089
11517W        W77926  31.734   5.038   3.288
11518W        W77927  15.373  30.477   3.578
11519W        W77928  31.435  44.263  14.290
11520W        W77929  33.381   9.119   1.328
11521W        W77930  44.275  15.762   1.787
11522W        W77931  12.170   6.681   1.188
11523W        W77932  26.544   5.376   0.265
11524W        W77933  31.589   8.786  14.453
11525W        W77934  35.406  16.396   1.250
11526W        W77935  19.069  30.720  11.132
11527W        W77936  17.436  32.553  13.195
11528W        W77937   3.721  11.340  10.365
11529W        W77938  23.470  25.536   2.430
11530W        W77939  20.697  41.798   2.238
11531W        W77940   7.911  34.543  12.535
11532W        W77941   3.740  10.072  10.375
11533W        W77942  39.436  21.626   4.370
11534W        W77943   9.818  31.095   3.120
11535W        W77944  32.865  43.294   2.664
11536W        W77945  32.441  11.615  14.418
11537W        W77946   5.726  11.185  12.871
11538W        W77947  16.665  27.452   1.583
11539W        W77948  24.590  11.612   0.067
11540W        W77949   9.640  20.703  11.634
11541W        W77950  32.675  41.005  13.477
11542W        W77951  38.058  44.457  10.751
11543W        W77952  11.220  11.666   0.353
11544W        W77953   4.402   6.743   2.199
11545W        W77954  22.006   9.767  14.850
11546W        W77955   9.380  37.752  11.052
11547W        W77956   2.696  42.921  12.452
11548W        W77957  43.074  18.122   4.265
11549W        W77958  12.540  35.131  14.016
11550W        W77959   7.811  17.270  12.511
11551W        W77960  36.326  19.669  14.401
11552W        W77961  18.263  38.074  14.712
11553W        W77962  15.623   2.478  10.488
11554W        W77963  20.272  10.041   1.025
11555W        W77964  42.743  22.585  13.418
11556W        W77965  41.419  26.996  11.468
11557W        W77966  15.084  28.039  13.861
11558W        W77967  40.556  18.734   2.323
11559W        W77968  13.725  44.826   0.025
11560W        W77969  33.193  44.298  12.089
11561W        W77970  35.933  28.193   2.512
11562W        W77971  23.938  22.121   2.214
11563W        W77972  43.395  18.190  12.181
11564W        W77973  11.731  14.801  12.886
11565W        W77974   4.733  39.382  14.529
11566W        W77975  23.198  24.169  12.227
11567W        W77976  25.983  27.623  14.017
11568W        W77977  20.599   6.268  14.530
11569W        W77978  41.993  36.386   4.688
11570W        W77979  32.103   7.396   2.197
11571W        W77980  16.237  12.492  11.556
11572W        W77981  10.710   3.723   2.067
11573W        W77982  33.558   5.951  12.880
11574W        W77983  27.124  44.001   3.695
11575W        W77984  26.398  21.564   0.441
11576W        W77985  27.193  15.506   3.548
11577W        W77986   6.193  37.172  11.975
11578W        W77987   5.123  20.847   5.124
11579W        W77988  30.066  38.136  13.414
11580W        W77989  27.190  10.241   2.222
11581W        W77990  33.758  10.557  14.410
11582W        W77991  16.715  40.178  14.929
11583W        W77992  24.368  38.903  14.007
11584W        W77993  14.169  21.567   3.677
11585W        W77994   6.325  43.581   3.103
11586W        W77995  24.578   0.773   0.368
11587W        W77996   9.336  18.334  13.051
11588W        W77997  23.441  39.253  12.153
11589W        W77998  33.957  11.509  13.541
11590W        W77999  13.880  43.252   4.638
11591W        W78000  11.904  14.314  11.148
11592W        W78001  12.237  29.195  11.614
11593W        W78002  10.293   6.792  12.784
11594W        W78003  17.747  18.506   0.378
11595W        W78004  42.383  18.219  13.829
11596W        W78005   1.266   4.498  11.621
11597W        W78006   5.094   9.420   4.602
11598W        W78007  43.630  16.057   2.135
11599W        W78008  41.533   3.448   1.331
11600W        W78009   6.693   8.583  12.025
11601W        W78010  34.031  33.871   0.254
11602W        W78011  23.829  15.676   4.698
11603W        W78012  40.456   2.326   1.906
11604W        W78013  41.847  24.009   1.519
11605W        W78014  14.595  34.412   2.347
11606W        W78015  39.352  19.667   2.634
11607W        W78016  38.806  40.112  14.155
11608W        W78017  35.434  13.595   0.324
11609W        W78018   1.762  41.880   0.285
11610W        W78019  28.165  25.918  12.391
11611W        W78020  30.418   8.956  12.512
11612W        W78021  24.370  30.396  11.190
11613W        W78022  22.720  29.864   0.851
11614W        W78023  38.639   3.821  13.374
11615W        W78024  27.640   9.956   2.361
11616W        W78025   9.323  34.387   3.725
11617W        W78026  37.872   6.434  12.479
11618W        W78027   6.827  21.700  12.514
11619W        W78028   2.719  39.586  14.415
11620W        W78029   0.769  27.302  10.492
11621W        W78030  41.569  31.544  13.738
11622W        W78031  11.980  34.137  11.186
11623W        W78032  20.089   6.177  11.676
11624W        W78033  43.939  44.315  10.182
11625W        W78034   1.401  27.813   2.986
11626W        W78035  26.093   6.248   3.807
11627W        W78036  31.524   4.575   0.269
11628W        W78037   3.162  37.079  11.840
11629W        W78038  11.492  44.178  14.629
11630W        W78039  36.813  34.988  13.446
11631W        W78040  13.842   0.154  11.065
11632W        W78041  33.315  35.893   3.289
11633W        W78042  35.561  24.768   4.353
11634W        W78043  14.308   6.734   2.140
11635W        W78044  38.078  26.227  13.439
11636W        W78045   7.380  16.596   1.666
11637W        W78046   9.924  28.814   2.827
11638W        W78047  24.613  19.293  11.264
11639W        W78048  34.955  32.944   4.563
11640W        W78049   5.465  25.992  13.638
11641W        W78050  19.833  33.580  14.051
11642W        W78051  13.932   0.760   0.673
11643W        W78052   7.386   9.334   2.616
11644W        W78053   5.425  17.129  11.622
11645W        W78054   8.162   5.759   0.858
11646W        W78055  35.125  32.101   3.701
11647W        W78056  33.840  21.719   2.353
11648W        W78057  12.899  39.678  12.533
11649W        W78058  33.849  40.528   3.390
11650W        W78059  31.484  36.197   1.129
11651W        W78060   2.090  21.556   0.444
11652W        W78061  16.993  22.368  14.907
11653W        W78062  21.749  30.253   0.969
11654W        W78063  20.885   8.966  12.372
11655W        W78064   7.720  17.234  13.948
11656W        W78065  39.625  36.828  13.980
11657W        W78066   5.818  26.921  11.684
11658W        W78067   0.578   8.223  13.824
11659W        W78068  18.047  40.312  12.420
11660W        W78069  23.256   5.753   2.528
11661W        W78070  31.604  40.305  11.886
11662W        W78071   4.251   5.389   5.009
11663W        W78072  19.049  34.572   3.153
11664W        W78073  14.687  42.034   2.346
11665W        W78074  20.613  33.865   1.720
11666W        W78075  22.701  34.310   3.271
11667W        W78076   2.808  21.155   0.279
11668W        W78077   2.185  31.942  12.694
11669W        W78078  24.754  39.948  13.192
11670W        W78079  26.276  19.205  10.781
11671W        W78080  41.029  25.835   2.724
11672W        W78081  35.188  25.210  14.826
11673W        W78082   5.990  24.035  11.546
11674W        W78083   6.793  28.134  13.715
11675W        W78084  42.922  38.813   3.383
11676W        W78085  15.648  13.372  12.608
11677W        W78086  16.998  40.075  10.629
11678W        W78087  19.257  38.987  12.389
11679W        W78088   5.332  40.618  14.356
11680W        W78089   6.807  28.129  13.187
11681W        W78090  43.938  15.788  11.966
11682W        W78091  17.015  19.102   3.202
11683W        W78092  10.894  25.750  14.071
11684W        W78093  19.155  24.493  13.138
11685W        W78094  18.727   3.496   4.646
11686W        W78095  24.148  20.806   1.923
11687W        W78096  29.594  29.787   2.835
11688W        W78097  20.080   6.352  12.984
11689W        W78098   1.887   2.506   4.445
11690W        W78099  19.154  10.326  14.252
11691W        W78100  21.268  42.965   0.815
11692W        W78101  43.898  41.736  11.491
11693W        W78102  19.505  20.862   1.578
11694W        W78103  15.899  43.611  14.424
11695W        W78104  18.275   3.191   2.817
11696W        W78105   8.127  42.298   2.758
11697W        W78106  44.967  13.247  11.617
11698W        W78107  40.619   6.574   2.848
11699W        W78108   9.747   6.212   1.221
11700W        W78109   7.423  28.769  13.115
11701W        W78110  23.102  13.852  14.177
11702W        W78111  17.641  10.276  11.628
11703W        W78112  37.391  33.571  12.471
11704W        W78113  36.201  18.515   4.183
11705W        W78114  26.882  42.058   0.986
11706W        W78115   8.780  42.581  12.006
11707W        W78116  15.852  10.819   3.787
11708W        W78117  35.923  28.793   4.596
11709W        W78118  24.744  42.062  13.428
11710W        W78119  37.802  39.237   1.202
11711W        W78120  31.634  39.986  11.475
11712W        W78121  26.152  11.696  11.706
11713W        W78122  41.541  36.835  13.468
11714W        W78123  23.706   1.188   0.338
11715W        W78124  16.643  27.534  13.230
11716W        W78125  27.331  32.768  13.472
11717W        W78126   2.007  26.141   2.836
11718W        W78127  14.566  18.609   3.558
11719W        W78128  11.865  19.780  12.684
11720W        W78129  27.777  31.877  11.133
11721W        W78130  35.908  12.360  11.687
11722W        W78131   5.214  44.344  13.365
11723W        W78132  39.785   7.829  11.123
11724W        W78133  25.610  29.225  12.126
11725W        W78134  38.637   3.206  11.857
11726W        W78135  10.109  17.745   1.377
11727W        W78136  38.290   1.393   1.737
11728W        W78137  15.280  36.185  10.376
11729W        W78138  39.546   6.777  11.980
11730W        W78139  35.552  34.363  13.182
11731W        W78140  13.363   6.647  13.403
11732W        W78141  13.443   4.860   4.517
11733W        W78142  22.466  39.464   3.677
11734W        W78143  20.640  16.315  10.740
11735W        W78144  35.517  39.044   1.657
11736W        W78145  17.363   2.368  12.580
11737W        W78146  19.259  41.495  12.923
11738W        W78147  43.053   7.200  11.277
11739W        W78148  19.764  27.227   3.167
11740W        W78149   6.395  40.800   0.356
11741W        W78150  41.629  37.580  14.868
11742W        W78151  15.559  16.131  13.907
11743W        W78152   4.211   5.362   4.480
11744W        W78153  42.570  39.536   1.302
11745W        W78154  20.067  39.483   4.346
11746W        W78155  20.118  23.539  12.103
11747W        W78156  22.472  36.378   2.387
11748W        W78157   1.450  42.508  10.934
11749W        W78158   7.396   3.916   0.730
11750W        W78159  24.965  40.007  11.453
11751W        W78160  37.003  10.601  11.306
11752W        W78161  20.213  17.784  14.882
11753W        W78162  19.598  31.366  13.914
11754W        W78163  26.487  38.047   4.527
11755W        W78164  11.872   3.282  11.672
11756W        W78165  14.850  11.098   3.616
11757W        W78166  31.637  18.340  14.459
11758W        W78167   4.387  44.443   1.215
11759W        W78168  27.540   8.285   4.018
11760W        W78169  28.739  40.769   2.510
11761W        W78170  40.955  43.321  14.269
11762W        W78171  38.351  24.228   2.373
11763W        W78172  25.154  33.109   2.901
11764W        W78173  36.330  21.284   4.105
11765W        W78174  38.078  10.225  14.085
11766W        W78175  17.180  41.478   3.149
11767W        W78176  41.933  37.644  10.567
11768W        W78177  34.219  24.018   1.839
11769W        W78178  31.187   8.822  10.517
11770W        W78179  10.344  29.963  14.416
11771W        W78180  20.845   4.854   4.941
11772W        W78181  44.352  34.908  13.067
11773W        W78182  16.113  37.473   3.163
11774W        W78183  23.483  34.639  14.846
11775W        W78184  16.871  14.690   1.173
11776W        W78185   2.693  14.980  12.480
11777W        W78186  30.367   3.032   5.168
11778W        W78187  27.855  39.536  12.061
11779W        W78188  10.223  44.512   1.217
11780W        W78189  14.902   9.284   4.764
11781W        W78190  33.562  17.261   3.848
11782W        W78191  31.241  36.486   1.524
11783W        W78192   1.870  43.513  12.543
11784W        W78193  13.060  27.769   1.681
11785W        W78194   3.142  33.380  11.070
11786W        W78195  18.913   0.872  12.934
11787W        W78196   4.647  35.236  13.331
11788W        W78197  10.287  19.532   3.851
11789W        W78198   1.243  18.741   2.437
11790W        W78199  20.355  16.851  12.468
11791W        W78200   6.293   6.817  14.238
11792W        W78201  27.531   0.233  13.431
11793W        W78202  43.410  10.671  13.612
11794W        W78203  39.935  42.380  12.062
11795W        W78204  39.609   3.879   0.421
11796W        W78205  15.217  21.670   0.384
11797W        W78206   3.159   4.438   4.293
11798W        W78207  15.410  10.816   2.263
11799W        W78208  36.565  42.493  11.038
11800W        W78209  23.055  38.154  10.331
11801W        W78210  13.168  39.098   1.296
11802W        W78211  34.587  15.663  13.715
11803W        W78212  39.082  40.207  11.528
11804W        W78213  22.568  33.362   0.724
11805W        W78214  13.567  15.806  14.472
11806W        W78215   5.319  15.098  12.308
11807W        W78216  18.856   0.511   3.325
11808W        W78217   3.391  21.547  13.649
11809W        W78218   5.176  22.648  14.691
11810W        W78219   9.909   8.161  10.810
11811W        W78220  35.593  39.265  10.872
11812W        W78221  35.052  35.173  13.328
11813W        W78222  32.381  11.249   3.557
11814W        W78223   3.803   5.095   0.359
11815W        W78224  11.159  44.962  14.142
11816W        W78225   2.084  30.655   0.308
11817W        W78226  16.076   4.990   1.393
11818W        W78227   9.251  38.039   2.834
11819W        W78228  41.513  23.970   0.702
11820W        W78229  43.274   5.644  14.294
11821W        W78230  44.422  14.842   3.039
11822W        W78231  10.070  22.621   3.746
11823W        W78232  32.919   4.764   3.339
11824W        W78233   5.276  36.788   1.194
11825W        W78234  12.212  22.518   0.124
11826W        W78235  44.952  12.102  11.990
11827W        W78236   6.694  17.398  12.915
11828W        W78237  35.463  37.245   1.326
11829W        W78238   8.174  44.446  14.836
11830W        W78239  27.444  15.696   0.477
11831W        W78240   3.453  42.999   1.830
11832W        W78241  24.746  34.964   4.185
11833W        W78242  19.518  35.556   2.269
11834W        W78243  38.666   1.820  12.106
11835W        W78244  14.881  39.980   1.266
11836W        W78245   5.468  18.478   0.056
11837W        W78246  21.740  28.073  12.024
11838W        W78247  16.101  34.904   4.488
11839W        W78248  36.552  15.214  11.023
11840W        W78249  18.577  19.182  13.326
11841W        W78250  27.724  26.913   3.811
11842W        W78251  10.171  14.705  10.890
11843W        W78252  15.597  13.882  12.480
11844W        W78253   0.797  34.081   3.724
11845W        W78254  30.009  29.614  12.436
11846W        W78255  15.834  14.727  10.763
11847W        W78256  15.293  21.483  13.942
11848W        W78257   8.714  18.610   3.682
11849W        W78258   7.306  17.137  10.852
11850W        W78259  42.007  29.460  10.728
11851W        W78260  17.724   6.454   1.464
11852W        W78261  14.299  29.606  11.210
11853W        W78262   0.202   0.321   2.348
11854W        W78263  16.292   8.627  12.043
11855W        W78264  37.337  35.877   3.658
11856W        W78265   5.908  21.659   5.049
11857W        W78266  26.289  28.555   2.286
11858W        W78267  10.173  26.728  14.938
11859W        W78268  25.314  43.456   1.349
11860W        W78269   1.789  16.176  13.337
11861W        W78270  39.477   2.737  12.588
11862W        W78271  19.171   9.780   4.330
11863W        W78272  14.845  28.686  11.164
11864W        W78273  36.754  43.770  14.026
11865W        W78274  26.446  24.586  11.511
11866W        W78275  18.474  32.545   3.279
11867W        W78276  38.932  26.135  13.935
11868W        W78277  25.423  29.641  14.020
11869W        W78278  23.620  31.159  13.284
11870W        W78279  42.455   5.701  11.636
11871W        W78280  35.439  21.049   0.742
11872W        W78281  19.784  33.551  14.557
11873W        W78282  20.728  31.420   1.692
11874W        W78283  44.991  39.032  12.330
11875W        W78284  30.606  32.250  12.375
11876W        W78285  11.227  29.488   2.813
11877W        W78286  31.436   9.280  14.402
11878W        W78287  36.810  17.087  11.164
11879W        W78288  24.237   0.593   1.834
11880W        W78289  33.372   4.432   4.046
11881W        W78290  20.215  20.743   4.440
11882W        W78291  30.945  18.826  13.430
11883W        W78292  28.831  31.661   2.457
11884W        W78293  10.932  39.721   1.492
11885W        W78294   5.127  32.505  14.025
11886W        W78295  13.353  17.531   1.421
11887W        W78296  20.812  22.128   0.409
11888W        W78297  37.567  43.238   0.729
11889W        W78298  19.062  29.456  14.101
11890W        W78299  44.432  16.132   5.063
11891W        W78300  12.080  20.633   3.971
11892W        W78301  41.494  21.291  14.334
11893W        W78302  13.810  34.525  11.546
11894W        W78303  38.271  15.570   2.398
11895W        W78304   2.211   4.449   0.266
11896W        W78305  13.337  40.906   1.961
11897W        W78306   1.450   1.930  10.894
11898W        W78307  32.318  42.891  13.096
11899W        W78308   7.970  14.653  11.316
11900W        W78309  36.408  19.818   1.783
11901W        W78310  14.534  33.161   0.356
11902W        W78311  30.840   6.657  13.636
11903W        W78312  41.960  16.145  14.960
11904W        W78313   8.354  22.550   4.863
11905W        W78314  31.216   9.376   4.788
11906W        W78315  35.120  40.191   4.533
11907W        W78316  34.573   5.450   4.653
11908W        W78317  25.401  33.291  11.478
11909W        W78318  31.088  43.086   1.762
11910W        W78319  30.651  44.216   5.015
11911W        W78320   4.882   9.162  10.569
11912W        W78321  16.212   5.817  14.288
11913W        W78322  34.626   0.377   0.801
11914W        W78323  40.773   5.543  11.949
11915W        W78324  27.915  34.114   3.170
11916W        W78325   2.988  43.515   2.258
11917W        W78326   0.742  29.380   0.755
11918W        W78327  29.034  22.909   4.589
11919W        W78328  13.683  29.788   2.708
11920W        W78329   5.401  34.239   4.185
11921W        W78330  14.725  26.839  11.090
11922W        W78331   9.391   4.004   4.497
11923W        W78332  17.652  20.466  12.503
11924W        W78333  13.581  19.288  12.836
11925W        W78334  36.542  35.200  11.628
11926W        W78335   1.334  10.663  10.227
11927W        W78336   4.242  35.012  14.097
11928W        W78337  19.950   1.712   2.175
11929W        W78338  22.718  39.030  12.899
11930W        W78339  33.849  42.362   3.787
11931W        W78340  25.090  31.421   3.373
11932W        W78341  17.632  31.919   4.053
11933W        W78342  16.765  41.499   1.258
11934W        W78343  17.544  18.682  13.812
11935W        W78344  37.210  18.050   3.729
11936W        W78345  40.830  22.342   3.817
11937W        W78346  26.353  12.814   4.499
11938W        W78347  17.266   0.963   3.075
11939W        W78348  29.526  38.478   0.375
11940W        W78349  35.849   3.347   2.298
11941W        W78350  23.211   7.083  10.414
11942W        W78351  38.411  15.621  11.005
11943W        W78352  23.504  14.617   3.936
11944W        W78353  15.137  41.007  14.268
11945W        W78354   9.092  16.093  14.598
11946W        W78355  22.481  25.512   4.146
11947W        W78356   8.656  26.483  11.982
11948W        W78357  27.488  35.836   2.702
11949W        W78358  34.817  26.041  11.969
11950W        W78359  40.937  41.294  11.983
11951W        W78360  44.155  12.929   5.073
11952W        W78361   9.744  21.810  13.577
11953W        W78362  39.088   4.952   2.332
11954W        W78363  40.900  24.945   0.804
11955W        W78364   0.668   2.169   4.082
11956W        W78365  13.886  35.929  14.164
11957W        W78366  42.422  25.124  12.481
11958W        W78367  17.123  43.968   3.670
11959W        W78368  31.385  42.948   2.906
11960W        W78369  10.846  25.131   2.659
11961W        W78370  41.757  14.122   3.303
11962W        W78371  39.798  18.351  13.880
11963W        W78372  36.806   4.225   0.037
11964W        W78373   3.602  36.638  12.008
11965W        W78374  15.246  42.468   1.451
11966W        W78375  30.308  36.239   3.125
11967W        W78376  18.118  40.357  10.213
11968W        W78377  22.997  27.862  13.485
11969W        W78378   9.846  30.330   4.733
11970W        W78379  31.646  10.130   0.799
11971W        W78380   3.433   5.458   3.294
11972W        W78381  29.565  42.386  11.137
11973W        W78382  17.577  29.566  12.086
11974W        W78383   4.673  40.734  11.653
11975W        W78384   3.636   6.789   1.403
11976W        W78385  14.785   1.754  13.598
11977W        W78386  36.960  42.927  13.965
11978W        W78387   8.657  36.204   1.765
11979W        W78388   3.939   4.668  12.054
11980W        W78389   9.112   7.638   4.165
11981W        W78390  40.296   2.938  14.347
11982W        W78391  34.047  34.797  12.955
11983W        W78392  36.898  25.995  11.588
11984W        W78393  41.011   6.838  13.072
11985W        W78394  29.781  16.097   1.608
11986W        W78395   0.505  28.454  14.465
11987W        W78396   0.892  20.157  10.700
11988W        W78397  28.888  36.992  13.255
11989W        W78398  12.310  37.497   5.233
11990W        W78399  43.523  40.907  10.690
11991W        W78400  29.650  37.280  14.764
11992W        W78401  34.571   3.861  11.603
11993W        W78402  32.495   4.792   4.060
11994W        W78403   5.892  17.360   3.146
11995W        W78404   4.303  24.718  13.768
11996W        W78405  29.592   0.486  10.563
11997W        W78406   0.875  30.023  13.953
11998W        W78407  18.738   5.639   3.358
11999W        W78408  30.900  30.254  12.957
12000W        W78409  36.933   9.694  14.065
12001W        W78410  13.921   5.735  12.011
12002W        W78411  37.169  10.327  11.701
12003W        W78412  33.201  22.202  13.762
12004W        W78413  24.226  42.702  13.077
12005W        W78414  40.039  22.996  12.068
12006W        W78415  25.592  32.591  10.825
12007W        W78416  23.548  43.493  10.660
12008W        W78417  14.396   9.295   4.600
12009W        W78418  19.650   8.501   3.243
12010W        W78419  22.072  30.645  10.532
12011W        W78420   8.357   6.340   3.286
12012W        W78421  28.117  31.472  14.853
12013W        W78422  16.128  12.130   1.693
12014W        W78423   6.127  13.819  13.415
12015W        W78424  11.542  42.826  14.055
12016W        W78425   2.358   3.441  11.580
12017W        W78426  36.914  31.095   4.095
12018W        W78427  30.385  17.287   5.001
12019W        W78428  26.988  30.499   2.276
12020W        W78429  33.933  44.831  14.343
12021W        W78430  32.167  27.858  12.596
12022W        W78431  42.628  23.277   0.981
12023W        W78432  31.590  19.543  11.019
12024W        W78433  23.543  13.855   4.609
12025W        W78434  13.233   2.065  12.049
12026W        W78435  40.992  15.814  13.495
12027W        W78436  13.598   8.428   0.284
12028W        W78437  30.085  43.164  12.807
12029W        W78438  33.013  21.574   1.706
12030W        W78439   8.685   8.841   0.235
12031W        W78440   4.434  26.975   0.810
12032W        W78441  43.393  16.753  10.915
12033W        W78442   6.165  39.406  11.883
12034W        W78443  39.739  12.145  12.002
12035W        W78444  14.877  41.436   0.198
12036W        W78445  19.211  19.684  11.636
12037W        W78446   8.278  22.945  12.474
12038W        W78447   7.300  16.866   3.605
12039W        W78448  10.732  25.183   3.163
12040W        W78449  43.821  35.394  11.517
12041W        W78450   9.534   4.834  14.248
12042W        W78451   7.924  43.545  11.097
12043W        W78452   6.369  41.516  12.076
12044W        W78453  10.593  34.984   0.482
12045W        W78454  36.485  43.201   2.216
12046W        W78455  15.842   6.759  11.671
12047W        W78456  38.456   1.005   0.865
12048W        W78457  18.093  38.286   3.266
12049W        W78458   6.916   6.234  12.125
12050W        W78459  18.006   1.770   3.741
12051W        W78460  32.664  32.311   4.642
12052W        W78461  16.648  16.639   1.289
12053W        W78462  32.882  27.750  13.075
12054W        W78463  25.668  26.533   2.352
12055W        W78464  22.584  10.582   4.313
12056W        W78465  29.034  10.404   3.176
12057W        W78466   1.505  25.107   0.781
12058W        W78467  40.043   3.121  10.547
12059W        W78468  38.570   0.959   1.771
12060W        W78469  32.682  32.297  11.528
12061W        W78470  26.153  35.316  13.396
12062W        W78471  44.658  29.435  10.258
12063W        W78472  41.009   5.849  11.177
12064W        W78473  40.067  33.825  11.163
12065W        W78474  21.781  34.637   3.188
12066W        W78475  16.795  21.329  12.906
12067W        W78476  13.746  26.157   4.442
12068W        W78477  28.534  41.836   4.011
12069W        W78478  28.900  16.621   2.597
12070W        W78479  24.535  35.548  14.269
12071W        W78480  25.526  44.189  14.898
12072W        W78481  36.087  28.495   3.061
12073W        W78482  44.436  15.139   2.591
12074W        W78483  26.814   8.288   2.224
12075W        W78484  14.017  30.036  11.102
12076W        W78485  29.147  17.742  11.841
12077W        W78486  13.512  21.205   2.273
12078W        W78487  38.919   6.689  13.986
12079W        W78488  31.471  29.124  11.597
12080W        W78489  26.999  11.381   1.291
12081W        W78490  37.995  38.179   4.242
12082W        W78491  22.021  23.399   5.118
12083W        W78492   9.743  11.313  14.535
12084W        W78493  37.868  22.468  10.709
12085W        W78494  22.576  13.569   1.794
12086W        W78495  12.926  17.701  11.669
12087W        W78496  26.542  36.821   1.349
12088W        W78497  22.515  29.742  14.394
12089W        W78498  36.906  11.892   4.228
12090W        W78499  10.761  27.875   1.469
12091W        W78500  21.145   6.874  12.899
12092W        W78501   3.823  25.729  12.330
12093W        W78502  40.784  21.701   3.163
12094W        W78503  17.360  13.041  13.548
12095W        W78504  42.840  42.946   4.176
12096W        W78505  35.283  12.805  10.190
12097W        W78506  22.792  20.616   1.496
12098W        W78507  23.771  42.514  14.418
12099W        W78508  25.062  21.515   5.094
12100W        W78509  39.050   9.136  11.118
12101W        W78510  17.279  35.903  11.516
12102W        W78511  18.853  12.668  14.464
12103W        W78512   5.081  18.837  13.448
12104W        W78513  18.008  16.543  10.625
12105W        W78514  43.790  23.556   4.635
12106W        W78515  20.316   7.210  14.494
12107W        W78516  27.154  16.121  12.936
12108W        W78517  18.254  18.993   1.407
12109W        W78518  28.438   6.389   3.348
12110W        W78519   9.341  14.156  11.920
12111W        W78520  27.461   9.409  10.237
12112W        W78521   7.164  19.281  11.347
12113W        W78522  33.008  18.068  13.326
12114W        W78523  12.617   0.324   1.420
12115W        W78524  17.835  38.825   3.097
12116W        W78525  25.686  38.472  12.514
12117W        W78526  44.851  26.856   2.663
12118W        W78527  23.930  18.172   1.880
12119W        W78528   6.399   1.518  11.175
12120W        W78529   4.311  11.216   2.290
12121W        W78530   4.953  25.272   1.370
12122W        W78531  27.703  44.889  14.779
12123W        W78532   7.745  41.548  10.330
12124W        W78533   5.736  44.746   0.345
12125W        W78534   0.728  17.677  14.876
12126W        W78535  27.174   9.659   4.012
12127W        W78536   0.304  26.484  14.576
12128W        W78537  10.837  38.537  11.719
12129W        W78538   6.976   2.945   0.379
12130W        W78539  35.481  23.248   3.224
12131W        W78540  24.217  11.954   4.681
12132W        W78541  23.617  38.516   0.716
12133W        W78542  20.286  41.622   2.804
12134W        W78543  27.466  39.481   0.526
12135W        W78544  27.660   0.350   0.405
12136W        W78545  24.432  13.811   3.741
12137W        W78546  34.811   7.408   0.772
12138W        W78547   4.814  13.953  13.390
12139W        W78548  34.481  31.341   2.886
12140W        W78549   3.929  30.494   4.544
12141W        W78550  17.102   6.846   3.635
12142W        W78551  14.681  11.569   3.710
12143W        W78552  44.246   3.215   0.962
12144W        W78553  13.088  41.470   2.783
12145W        W78554  15.866  27.629   3.706
12146W        W78555  23.266   2.188  13.481
12147W        W78556  16.194  39.445   3.596
12148W        W78557   3.448  37.038  11.403
12149W        W78558  28.362  19.682   3.365
12150W        W78559  25.646  41.771  10.610
12151W        W78560   3.130   8.473   2.416
12152W        W78561  13.258  35.389  11.022
12153W        W78562  30.610  42.431   0.296
12154W        W78563  16.821  40.127   4.234
12155W        W78564  44.055  13.010  11.686
12156W        W78565  42.319  29.125  13.355
12157W        W78566  16.252  37.659   1.857
12158W        W78567  31.879   9.428   2.328
12159W        W78568  13.216  32.124   0.878
12160W        W78569  37.656  34.106  13.874
12161W        W78570   6.404  34.499   1.791
12162W        W78571  17.204  22.332  14.141
12163W        W78572  22.628  22.494   0.726
12164W        W78573  12.863   9.864   0.880
12165W        W78574  33.798  10.700  12.500
12166W        W78575  27.902  19.718  12.916
12167W        W78576  23.624  11.881  13.311
12168W        W78577  40.499  29.935  11.555
12169W        W78578  13.938  23.030   3.274
12170W        W78579  41.935  35.764   3.708
12171W        W78580   8.791  24.193  12.665
12172W        W78581   6.618  35.654  14.382
12173W        W78582  40.431  42.533  13.414
12174W        W78583  32.831  34.549   1.352
12175W        W78584  44.989  30.453   3.780
12176W        W78585  12.708  42.277  14.764
12177W        W78586  33.996  16.068  10.728
12178W        W78587  14.988   4.440  12.519
12179W        W78588  44.443  18.969  12.617
12180W        W78589  29.831  17.407  14.829
12181W        W78590  17.287  43.254  13.172
12182W        W78591  27.474  41.445   4.853
12183W        W78592   9.348   6.691   3.285
12184W        W78593   3.907  42.789   1.641
12185W        W78594  10.479   5.716  12.536
12186W        W78595   8.395  31.476  10.516
12187W        W78596  29.306  12.734   2.625
12188W        W78597  14.974  13.154   0.997
12189W        W78598  33.181   1.238  10.306
12190W        W78599  22.572  13.021  10.357
12191W        W78600   8.958  13.543   4.166
12192W        W78601  37.971  33.003   4.655
12193W        W78602  19.693  41.593  12.147
12194W        W78603  32.592  24.059   0.935
12195W        W78604  26.458  17.152  13.454
12196W        W78605   9.887  38.134  13.118
12197W        W78606   8.353  39.856   4.307
12198W        W78607  12.204   8.090   1.274
12199W        W78608  30.734  11.442   4.657
12200W        W78609   1.502  10.247  10.614
12201W        W78610   5.409  15.143   1.909
12202W        W78611   9.635  39.954  12.588
12203W        W78612  42.755  42.699   0.844
12204W        W78613  41.035  22.001  11.036
12205W        W78614  29.627  19.592   0.231
12206W        W78615  29.668  40.179   2.591
12207W        W78616  33.219  26.503  13.475
12208W        W78617  44.013  19.934  12.596
12209W        W78618  14.744  40.969  13.059
12210W        W78619  16.691  31.236   0.330
12211W        W78620  26.261  23.477  12.008
12212W        W78621  33.099   9.295  13.818
12213W        W78622  34.133  18.050   0.860
12214W        W78623  44.202  23.991  11.515
12215W        W78624   6.251  27.402   4.154
12216W        W78625   6.566  34.859   3.142
12217W        W78626  43.501  26.686  13.680
12218W        W78627   3.672  37.236  10.974
12219W        W78628   6.168  33.392  14.018
12220W        W78629  27.217  39.568  14.200
12221W        W78630   4.188  19.241  13.139
12222W        W78631   4.714  34.648   0.023
12223W        W78632  30.874  37.403   0.677
12224W        W78633  11.471  30.917   3.259
12225W        W78634  28.256  37.744  13.613
12226W        W78635  38.087   7.151   2.702
12227W        W78636  36.493  17.368  13.524
12228W        W78637  13.701  31.108  12.250
12229W        W78638   3.452  35.863  11.182
12230W        W78639  10.553   4.662   2.331
12231W        W78640  39.958   9.115  12.037
12232W        W78641  34.900  10.236  12.625
12233W        W78642  30.928  27.875   0.929
12234W        W78643   7.400  21.255  11.549
12235W        W78644  26.035  26.725  11.643
12236W        W78645  29.019  41.819  13.302
12237W        W78646  23.796  35.427  11.716
12238W        W78647  44.552   3.177   2.423
12239W        W78648  25.599   2.634  11.731
12240W        W78649  24.719  22.604  13.045
12241W        W78650  32.668  37.061  10.732
12242W        W78651  23.580  23.443   0.002
12243W        W78652   9.630  16.092  14.588
12244W        W78653   2.763  21.197   1.366
12245W        W78654  39.350  36.511   4.093
12246W        W78655   6.421  28.721   5.188
12247W        W78656  20.738  18.719  12.363
12248W        W78657  43.094   0.728   1.739
12249W        W78658  41.578   5.815  13.446
12250W        W78659  32.433   7.936   0.211
12251W        W78660  36.067  29.507   0.902
12252W        W78661  13.281  34.912   0.703
12253W        W78662  38.642  18.061  13.396
12254W        W78663  39.993  22.157   2.250
12255W        W78664  25.105  13.700   3.437
12256W        W78665  35.408  40.325   3.996
12257W        W78666  39.276  27.022   3.351
12258W        W78667  40.607  34.756   5.150
12259W        W78668  11.413  39.048  12.368
12260W        W78669  37.778  22.935  11.643
12261W        W78670  32.026  39.481   4.282
12262W        W78671   0.495  18.276   0.331
12263W        W78672  16.319  27.142  12.094
12264W        W78673  43.949  17.944   1.214
12265W        W78674  39.066   9.191   0.353
12266W        W78675  24.849  15.878   0.749
12267W        W78676  44.378  30.596   2.969
12268W        W78677  13.951  31.433  12.575
12269W        W78678  35.331  25.743   3.312
12270W        W78679   6.138  43.815   0.550
12271W        W78680   4.794  13.183  12.971
12272W        W78681  23.519  12.684   0.827
12273W        W78682  36.689   0.377   1.825
12274W        W78683  18.163  18.679   3.879
12275W        W78684  36.230  22.866   4.906
12276W        W78685  42.404   6.173  11.465
12277W        W78686  19.826  31.768  13.690
12278W        W78687  36.910   6.221  13.854
12279W        W78688  42.823  40.768  12.567
12280W        W78689  11.606  13.692   9.969
12281W        W78690  39.444  34.000  10.554
12282W        W78691  16.545   3.774   1.806
12283W        W78692  35.487  12.309  14.961
12284W        W78693  28.653   0.384   0.364
12285W        W78694  20.699   3.558   0.420
12286W        W78695  30.949  15.125   0.021
12287W        W78696  30.446   6.871   0.167
12288W        W78697  24.809  12.908   0.468
12289W        W78698  13.721  22.655   0.830
12290W        W78699  19.328  43.854   1.918
12291W        W78700  21.471   5.431   1.053
12292W        W78701  28.771  44.909   0.118
12293W        W78702   9.300   2.117   0.805
12294W        W78703  35.614  26.735  14.227
12295W        W78704  18.325  34.034   2.398
12296W        W78705  31.511  30.967  13.281
12297W        W78706   2.578  28.371  14.746
12298W        W78707  26.786  37.391  13.405
12299W        W78708  40.602  40.368   3.700
12300W        W78709  19.674  14.658   1.187
12301W        W78710  11.217  35.113  14.015
12302W        W78711   3.259  18.568   0.246
12303W        W78712  18.548  23.762  13.928
12304W        W78713  33.957  40.382   3.864
12305W        W78714  44.740  33.633   0.716
12306W        W78715   7.779  33.120  10.996
12307W        W78716  42.959  40.329  12.833
12308W        W78717   3.894  35.842   1.205
12309W        W78718   1.714  35.623   2.344
12310W        W78719   0.916  22.273  14.710
12311W        W78720   5.895  17.609   1.216
12312W        W78721  22.145  20.259  13.375
12313W        W78722  23.330  33.221   4.140
12314W        W78723  15.778  27.719  14.210
12315W        W78724  10.529  28.785  12.403
12316W        W78725   4.876  28.919   3.357
12317W        W78726  33.834  12.431   2.772
12318W        W78727   1.691  33.366  11.993
12319W        W78728  41.160  16.541   4.576
12320W        W78729  28.466   0.322  14.895
12321W        W78730   8.990  17.193   0.308
12322W        W78731  35.315  37.030  13.049
12323W        W78732  10.523  29.589  11.520
12324W        W78733  28.872  33.547   3.722
12325W        W78734  38.311   4.164   2.883
12326W        W78735  35.433  26.985   4.443
12327W        W78736   3.552   2.357  12.943
12328W        W78737  31.116   8.523   4.198
12329W        W78738  13.216  33.873  13.655
12330W        W78739   6.890  33.479  10.910
12331W        W78740  15.042   9.375   1.697
12332W        W78741  41.399  15.845   1.680
12333W        W78742  44.546  42.727   0.215
12334W        W78743  22.678  28.998   4.974
12335W        W78744  24.231  20.486   4.627
12336W        W78745  25.314  23.836  12.068
12337W        W78746  19.723  37.793   1.685
12338W        W78747  31.465  34.194   2.705
12339W        W78748   6.204  28.841  13.490
12340W        W78749  25.214   1.159  13.400
12341W        W78750  43.018   1.320  11.610
12342W        W78751   8.393   6.606  11.102
12343W        W78752  39.045  40.988  13.693
12344W        W78753  41.628  20.703   3.776
12345W        W78754  21.470  20.529  12.000
12346W        W78755  21.518  34.339   4.213
12347W        W78756  34.410   2.966   2.601
12348W        W78757  13.311   4.234  11.344
12349W        W78758  31.952  14.828   1.785
12350W        W78759  28.225   7.059   2.222
12351W        W78760   8.340  42.216   1.854
12352W        W78761  43.234  33.088   3.105
12353W        W78762  38.773  28.333   1.334
12354W        W78763   3.539  31.772   2.876
12355W        W78764  40.836  42.926  13.885
12356W        W78765  11.830   5.882  13.135
12357W        W78766  12.132   3.733  12.508
12358W        W78767  31.192  14.586  13.779
12359W        W78768  36.302  32.490   4.705
12360W        W78769  31.962  10.820  13.611
12361W        W78770  40.279   1.712   3.652
12362W        W78771  20.365  22.438  13.419
12363W        W78772  26.183  38.321   3.589
12364W        W78773  33.405   9.329  10.690
12365W        W78774   7.236  28.990  13.542
12366W        W78775   7.090  33.581   1.699
12367W        W78776  10.730  38.752   4.909
12368W        W78777  15.632   0.961   1.807
12369W        W78778  30.075  16.019   3.975
12370W        W78779  39.810  26.572   4.558
12371W        W78780  33.967   0.954  13.266
12372W        W78781  43.806  43.916  11.860
12373W        W78782  37.607  18.256  13.444
12374W        W78783  28.254  34.910   2.130
12375W        W78784  12.102  23.035   4.499
12376W        W78785   8.262  42.967  10.407
12377W        W78786  21.705   3.423  14.902
12378W        W78787   1.874  22.329  11.008
12379W        W78788   7.681  19.411  11.549
12380W        W78789   2.392  21.633  12.557
12381W        W78790  40.924  20.710   3.403
12382W        W78791  38.121  14.172  11.059
12383W        W78792   3.391  27.620   0.530
12384W        W78793  19.088  11.678  14.745
12385W        W78794  40.274   2.503  14.857
12386W        W78795   0.807  33.482  14.074
12387W        W78796  15.249  14.097   2.137
12388W        W78797  31.950  17.332  13.272
12389W        W78798  28.039  29.919   1.409
12390W        W78799   9.367  17.553  14.791
12391W        W78800  34.660  28.600  11.633
12392W        W78801  23.119  44.893   1.974
12393W        W78802  22.497  42.133   4.368
12394W        W78803   8.247  17.833   2.621
12395W        W78804  40.855  34.938   4.217
12396W        W78805  29.493   4.339   3.695
12397W        W78806  30.641  17.043  10.900
12398W        W78807   1.478  11.387  13.701
12399W        W78808  39.858  18.197  12.779
12400W        W78809   7.214  14.722  12.968
12401W        W78810   8.265   3.656   4.621
12402W        W78811   6.350  43.071  14.376
12403W        W78812   7.626  32.188  11.345
12404W        W78813  28.662   9.908  13.980
12405W        W78814   5.419  28.956  11.908
12406W        W78815  37.389  28.059   2.066
12407W        W78816  19.407  25.954  14.931
12408W        W78817  37.606  25.459   1.811
12409W        W78818   5.868  26.397  11.570
12410W        W78819  17.964   6.387  14.519
12411W        W78820  44.265  44.289  14.429
12412W        W78821  20.479  19.603   4.931
12413W        W78822  35.992  27.308   4.948
12414W        W78823   8.013  23.020   2.672
12415W        W78824   2.759  12.161   3.178
12416W        W78825  12.422  34.843   0.117
12417W        W78826  12.177  17.529  14.476
12418W        W78827  15.590  31.121  11.168
12419W        W78828  22.044   8.762  13.971
12420W        W78829  34.316   6.763  10.898
12421W        W78830  34.085  43.325   0.523
12422W        W78831  10.269  25.820  12.167
12423W        W78832  33.836  30.777  14.662
12424W        W78833  30.110  20.301  10.764
12425W        W78834  24.283  42.908  12.200
12426W        W78835  35.116  17.214  11.660
12427W        W78836  35.483  34.495  13.680
12428W        W78837  34.986  25.541  12.063
12429W        W78838   0.301  42.753   1.466
12430W        W78839   3.926   2.937   1.743
12431W        W78840  30.397  44.014  13.789
12432W        W78841  44.229  12.618   2.467
12433W        W78842  39.442  16.464  12.602
12434W        W78843  25.131   6.475   1.930
12435W        W78844   7.364  41.801  13.396
12436W        W78845   6.418   8.020   3.219
12437W        W78846  11.594  25.165  11.186
12438W        W78847  23.366  36.447  13.134
12439W        W78848  22.721  29.930  11.493
12440W        W78849  11.332  22.446  11.112
12441W        W78850  13.185  37.677   2.745
12442W        W78851   9.361   4.915   3.623
12443W        W78852  12.762  20.127  12.810
12444W        W78853  12.200  17.646  11.223
12445W        W78854  33.659   5.938  11.993
12446W        W78855  31.400  21.559   0.243
12447W        W78856   0.842   3.299   3.330
12448W        W78857  36.379  27.512   4.672
12449W        W78858  12.296  20.721  11.500
12450W        W78859  26.163   5.603  14.449
12451W        W78860  22.555   3.395   0.313
12452W        W78861   6.689  37.800   4.603
12453W        W78862  20.948  41.532  13.386
12454W        W78863  16.007   9.898   2.301
12455W        W78864  30.089   4.661  14.395
12456W        W78865  19.015  44.185  11.520
12457W        W78866  31.313  22.153  10.865
12458W        W78867  41.400  23.969   2.694
12459W        W78868   1.108  15.897   0.518
12460W        W78869  33.893  40.111   3.112
12461W        W78870  39.707   5.075  11.968
12462W        W78871  21.067   6.525  14.492
12463W        W78872   6.361  44.452  12.469
12464W        W78873  11.356  24.316   3.717
12465W        W78874  39.821  19.699  12.469
12466W        W78875  39.924   7.453   3.622
12467W        W78876  43.881  33.958   1.233
12468W        W78877  37.633   9.255   5.061
12469W        W78878  31.410  33.953  13.823
12470W        W78879   0.413  31.412  10.710
12471W        W78880   4.258  22.551   9.896
12472W        W78881  19.265  21.360   3.396
12473W        W78882  33.587   6.851  14.805
12474W        W78883  30.617   1.632  12.480
12475W        W78884  10.226  19.245  14.088
12476W        W78885   0.916  20.803  13.062
12477W        W78886  24.000  20.294   3.083
12478W        W78887  31.862  23.750  13.844
12479W        W78888  29.742  41.918   3.705
12480W        W78889  18.725  12.898  14.915
12481W        W78890  17.661  26.172  12.040
12482W        W78891  15.643  43.345   4.565
12483W        W78892   2.523  12.865   4.766
12484W        W78893   1.276   4.355   2.843
12485W        W78894   8.667   4.377  13.867
12486W        W78895  32.164  39.303   1.640
12487W        W78896  40.217  22.445  14.123
12488W        W78897  36.538  10.664  11.571
12489W        W78898   6.765   0.326   0.045
12490W        W78899  36.580  20.991   4.456
12491W        W78900  24.073  41.388   4.085
12492W        W78901   9.792  28.781   3.569
12493W        W78902  16.555  38.525  13.823
12494W        W78903  39.422  44.610   2.728
12495W        W78904   6.256  35.319   4.321
12496W        W78905   9.838  35.860  13.022
12497W        W78906  35.083  34.791  12.407
12498W        W78907  18.608  19.208  14.679
12499W        W78908   0.013  33.972   4.756
12500W        W78909  41.945  40.443  11.591
12501W        W78910  14.701  16.951  13.557
12502W        W78911  12.272  35.611   4.723
12503W        W78912   6.213  22.170  10.839
12504W        W78913  21.445  25.738  13.836
12505W        W78914  21.943  27.684  12.472
12506W        W78915  19.824  13.800  13.628
12507W        W78916  41.916  24.060   2.519
12508W        W78917  10.931  20.217  14.868
12509W        W78918  19.471   7.286  14.024
12510W        W78919  44.483  38.977  12.573
12511W        W78920   4.807   7.619   0.731
12512W        W78921  32.140  35.393   3.141
12513W        W78922  10.822  44.326   0.327
12514W        W78923  37.604   1.958   4.060
12515W        W78924  26.873   6.849  14.861
12516W        W78925  18.336  42.457   4.735
12517W        W78926   4.812   3.050  12.015
12518W        W78927  34.011  28.929   3.663
12519W        W78928  25.956  44.561   1.862
12520W        W78929   8.626  22.181  14.283
12521W        W78930  31.633  36.480   4.146
12522W        W78931   7.532  37.238   3.635
12523W        W78932   4.255   2.017   1.801
12524W        W78933  20.395  35.621  11.670
12525W        W78934  23.217  39.382   0.259
12526W        W78935  19.487  21.510   4.768
12527W        W78936  26.500  16.102  12.152
12528W        W78937   7.243  11.672   0.386
12529W        W78938   1.004  21.760   3.179
12530W        W78939  32.871  44.514   1.446
12531W        W78940  42.385   7.505   1.917
12532W        W78941  21.045   2.303  12.742
12533W        W78942   0.891  16.664  14.909
12534W        W78943  35.671   1.409   2.565
12535W        W78944   8.247  30.973  14.298
12536W        W78945   2.404  19.051   1.252
12537W        W78946  21.703   7.239   3.143
12538W        W78947  31.065  16.046   4.437
12539W        W78948  41.544   1.525  13.059
12540W        W78949   5.580   1.969   0.647
12541W        W78950  44.125  19.600   2.982
12542W        W78951  39.071   7.875  12.731
12543W        W78952  16.276  36.105   0.313
12544W        W78953  17.301  43.325  10.998
12545W        W78954   0.923  25.781   0.791
12546W        W78955  41.755  18.238  11.686
12547W        W78956  10.799  37.601   0.905
12548W        W78957  43.401   5.302   3.703
12549W        W78958   1.958  42.174   1.131
12550W        W78959  40.444  36.411  14.971
12551W        W78960  39.926  19.610  14.838
12552W        W78961  38.884  39.962   4.624
12553W        W78962  41.944   6.723  13.033
12554W        W78963  34.640  10.245  14.852
12555W        W78964  27.091  10.235  11.706
12556W        W78965  11.594  41.718   1.923
12557W        W78966  32.093  42.935  12.598
12558W        W78967  34.084  44.305   4.182
12559W        W78968  32.602  27.259   3.249
12560W        W78969  43.838  10.732  13.923
12561W        W78970  26.642  32.092  10.385
12562W        W78971   9.150  38.377   2.344
12563W        W78972   3.868  33.029  11.195
12564W        W78973   5.243  33.546  11.511
12565W        W78974   6.672  17.193  13.836
12566W        W78975  11.967  42.024  13.305
12567W        W78976  13.100  23.182   4.100
12568W        W78977   6.433  17.448  11.650
12569W        W78978  21.970  33.526  12.390
12570W        W78979   4.470  15.650  12.109
12571W        W78980   1.932  15.890   0.156
12572W        W78981  43.542  42.447   2.823
12573W        W78982  31.204   2.240   0.820
12574W        W78983   4.941  30.404   3.512
12575W        W78984   9.251  29.756   4.103
12576W        W78985   1.658  43.329  14.513
12577W        W78986  34.615  35.233  14.365
12578W        W78987  27.917   4.873  12.621
12579W        W78988  34.861  41.316   2.243
12580W        W78989   8.834  18.903  12.305
12581W        W78990   6.609  33.961  14.209
12582W        W78991   6.865  34.786   2.149
12583W        W78992  29.585  43.480  12.422
12584W        W78993  35.308  18.718  13.419
12585W        W78994  40.828  31.234  10.752
12586W        W78995   7.430  40.439   1.668
12587W        W78996  30.919  22.101   0.889
12588W        W78997  36.537  41.946  14.809
12589W        W78998   3.076  17.642   0.081
12590W        W78999  23.975  40.862   0.348
12591W        W79000  30.565  11.047   0.769
12592W        W79001   0.256  12.745   2.344
12593W        W79002  22.697  35.138  12.908
12594W        W79003  41.348  43.524  12.165
12595W        W79004  19.741  21.276   0.628
12596W        W79005  24.506   5.839   1.885
12597W        W79006  28.517  11.147  12.226
12598W        W79007  21.639  18.679  13.859
12599W        W79008  34.709  38.844  12.218
12600W        W79009  33.008  30.369  10.782
12601W        W79010  21.016  42.757  12.018
12602W        W79011  32.005  38.963   2.944
12603W        W79012   0.781  18.481  11.232
12604W        W79013  18.234   9.097  14.447
12605W        W79014  43.235  22.257  11.580
12606W        W79015   9.486  29.405  12.348
12607W        W79016  11.132   3.775   2.423
12608W        W79017  25.176  14.850  11.433
12609W        W79018   7.618  40.273   2.715
12610W        W79019   5.258  16.670   2.130
12611W        W79020  16.712  16.611   3.166
12612W        W79021  23.026  43.568  10.615
12613W        W79022  41.559  37.401   4.317
12614W        W79023  11.850   4.367  14.594
12615W        W79024  20.518  29.109  11.701
12616W        W79025  43.188  27.031  12.043
12617W        W79026  33.766  16.323   0.741
12618W        W79027  37.923  38.449   4.709
12619W        W79028  31.379   9.898  11.586
12620W        W79029  34.930  15.085   1.510
12621W        W79030  22.566  20.293   3.738
12622W        W79031  20.321  31.660  12.554
12623W        W79032  20.237  14.134  12.128
12624W        W79033  37.129  28.435  14.945
12625W        W79034  14.080  38.835  14.366
12626W        W79035   8.303   9.678   4.353
12627W        W79036   8.334  37.842  12.876
12628W        W79037   3.175  24.255   0.592
12629W        W79038  11.430  36.378  10.548
12630W        W79039  32.404   5.329  10.923
12631W        W79040   9.878  21.059   1.226
12632W        W79041  34.566  33.572   0.488
12633W        W79042  26.664   7.722  12.996
12634W        W79043   8.473  14.675   1.236
12635W        W79044  27.211   4.468  12.924
12636W        W79045  26.205  22.058   1.664
12637W        W79046  26.998  33.513  10.612
12638W        W79047  19.022   8.930   3.898
12639W        W79048   6.751  34.589   4.093
12640W        W79049  28.403  12.292   3.130
12641W        W79050  39.882  37.933   4.559
12642W        W79051  27.901  32.525  12.927
12643W        W79052   1.737   1.485   2.373
12644W        W79053   4.123  24.113  12.048
12645W        W79054   5.952  19.703  13.811
12646W        W79055  37.654  10.437   1.692
12647W        W79056   4.722   5.525  14.862
12648W        W79057  17.027  42.016  10.470
12649W        W79058  23.438  38.891   3.727
12650W        W79059  26.812   8.697  12.928
12651W        W79060  22.018  25.593  10.793
12652W        W79061   0.254   5.948   1.004
12653W        W79062  41.078  39.017  10.433
12654W        W79063   0.388  12.390  12.028
12655W        W79064   1.009  20.097   1.896
12656W        W79065  33.446  13.903  13.392
12657W        W79066  20.304   4.656   1.870
12658W        W79067  26.663  10.409  12.122
12659W        W79068  19.627  22.005   1.395
12660W        W79069  10.364   8.110   4.143
12661W        W79070   3.742  20.989  12.116
12662W        W79071  26.450  44.545  12.289
12663W        W79072  18.783  34.028  13.215
12664W        W79073  12.871  17.180  11.927
12665W        W79074   6.721  20.789  10.689
12666W        W79075  32.431  22.016   0.948
12667W        W79076  33.299   8.769   0.836
12668W        W79077   2.561  13.780  13.280
12669W        W79078  44.931   5.047  13.548
12670W        W79079  21.775   6.434  11.084
12671W        W79080  16.655   3.121  11.925
12672W        W79081  10.708  36.594  12.507
12673W        W79082  31.076  28.901  10.802
12674W        W79083   9.406  17.976  10.652
12675W        W79084   8.870  40.926   3.675
12676W        W79085  26.975  12.868  14.381
12677W        W79086  40.713   0.384  13.741
12678W        W79087  10.340  19.769   4.655
12679W        W79088  32.154   1.922   0.168
12680W        W79089  44.661  37.481  14.469
12681W        W79090  25.217   2.949  13.956
12682W        W79091  27.553  19.832  11.939
12683W        W79092  26.412  15.234   3.693
12684W        W79093  19.111  11.181   3.185
12685W        W79094  41.806   1.874   1.347
12686W        W79095  35.826  43.414   3.755
12687W        W79096  37.449   7.624   4.824
12688W        W79097   4.962  21.111  13.319
12689W        W79098  17.838  20.876  10.254
12690W        W79099  29.508  15.313   3.599
12691W        W79100  22.756  37.250   2.354
12692W        W79101  21.538  42.513   1.374
12693W        W79102  27.388  32.591  13.012
12694W        W79103  26.229   3.942   0.163
12695W        W79104  13.181  10.358   3.230
12696W        W79105   9.443  14.166   3.150
12697W        W79106   1.303  28.100   0.822
12698W        W79107  19.287  43.507   3.322
12699W        W79108   7.727  15.714  12.040
12700W        W79109  21.189   5.728  12.065
12701W        W79110  31.445  41.832  13.041
12702W        W79111   1.329   1.513   0.427
12703W        W79112  16.535  14.337  12.430
12704W        W79113   2.445  39.412  12.839
12705W        W79114  21.606  11.154  13.357
12706W        W79115  43.252   5.473   1.827
12707W        W79116  26.650  18.075   2.909
12708W        W79117  40.269   6.247   3.741
12709W        W79118  15.843  29.122   0.542
12710W        W79119   1.762  18.023  13.573
12711W        W79120  40.941  35.440  14.476
12712W        W79121  12.795  11.161  10.368
12713W        W79122  24.615   8.343   9.976
12714W        W79123  22.245  30.194   2.790
12715W        W79124  25.201  23.657   5.467
12716W        W79125  40.550   9.089  13.579
12717W        W79126  42.258  18.146  11.615
12718W        W79127  16.084  23.739   0.774
12719W        W79128  36.272  27.188  14.285
12720W        W79129  26.509  37.591   3.179
12721W        W79130  34.488  31.109  12.495
12722W        W79131  40.967  33.092   2.743
12723W        W79132  20.853  24.810   2.778
12724W        W79133  39.347  28.204  14.939
12725W        W79134   0.320  40.717  10.618
12726W        W79135   8.178  44.322   4.223
12727W        W79136   1.170   2.830  12.925
12728W        W79137  35.608  37.103   2.813
12729W        W79138  20.676  35.889   4.694
12730W        W79139  20.045   9.958   3.225
12731W        W79140  19.049   1.297   4.270
12732W        W79141  14.151  41.765  13.873
12733W        W79142  16.187  16.353   1.224
12734W        W79143  11.652   0.958   3.575
12735W        W79144  14.568  14.654   4.059
12736W        W79145  36.135  13.535   0.761
12737W        W79146  42.435  18.397   0.884
12738W        W79147  10.357  11.758  14.975
12739W        W79148  28.854   4.472  11.223
12740W        W79149   7.356  17.052   3.133
12741W        W79150  22.499   2.109   5.082
12742W        W79151  40.010  36.084  14.933
12743W        W79152  32.800  11.545   2.734
12744W        W79153  40.539  15.129  10.565
12745W        W79154  34.011  38.067   4.025
12746W        W79155  16.083  28.764  14.824
12747W        W79156   8.078  32.547  13.878
12748W        W79157  38.325  26.777   3.389
12749W        W79158  35.653  33.522   3.791
12750W        W79159  33.491  39.764   3.198
12751W        W79160  33.366  31.047  12.057
12752W        W79161  21.687  28.426  12.451
12753W        W79162  40.828  12.186   3.676
12754W        W79163  34.845  13.066   4.424
12755W        W79164  39.080  20.944   2.318
12756W        W79165  14.440  24.844   2.403
12757W        W79166   8.234  10.356  12.860
12758W        W79167  34.430  28.676   4.501
12759W        W79168  23.897  33.116   4.161
12760W        W79169  24.679  36.387  14.677
12761W        W79170  38.334  25.605  13.409
12762W        W79171  13.359  20.775   4.701
12763W        W79172  22.661   3.878   4.662
12764W        W79173  44.819  11.636   1.757
12765W        W79174  27.436  15.652   4.531
12766W        W79175   0.771  20.475   4.077
12767W        W79176   9.920  30.509   0.007
12768W        W79177  16.017  44.707   3.698
12769W        W79178  31.468  22.051  13.018
12770W        W79179  38.862  37.720   3.001
12771W        W79180   0.972  26.988  13.370
12772W        W79181  38.425  30.612  12.982
12773W        W79182  28.940  25.466  13.869
12774W        W79183   2.751  15.618  11.626
12775W        W79184  17.663  10.734   3.144
12776W        W79185  22.089  16.211  10.689
12777W        W79186  18.714  15.294  12.120
12778W        W79187  30.128  13.687   3.183
12779W        W79188   9.732  31.363  11.546
12780W        W79189  40.509  32.627  10.881
12781W        W79190  34.689  13.247   1.574
12782W        W79191   3.891  35.254   3.704
12783W        W79192  25.778  18.711   0.786
12784W        W79193   2.242  25.951   3.739
12785W        W79194  26.643  23.546   0.389
12786W        W79195  44.229   4.725   2.363
12787W        W79196  26.633   6.931  14.408
12788W        W79197  27.240   8.477   0.904
12789W        W79198  29.891  32.362   4.098
12790W        W79199  22.070  10.249   1.457
12791W        W79200  18.793  17.039   4.329
12792W        W79201   1.713  22.733   2.077
12793W        W79202  18.827  23.762  11.618
12794W        W79203   8.076  42.550  13.273
12795W        W79204  31.396  42.753   4.554
12796W        W79205  30.795  32.843  14.897
12797W        W79206   8.642  31.706   0.761
12798W        W79207  14.769  42.291   0.768
12799W        W79208  15.627  40.304  12.489
12800W        W79209  30.891   3.745   1.335
12801W        W79210  32.638  30.000  13.003
12802W        W79211  29.226  39.426  14.487
12803W        W79212  44.142  12.189   4.653
12804W        W79213  30.866   9.324  11.859
12805W        W79214  12.225  26.150  13.953
12806W        W79215  37.179   5.385   4.675
12807W        W79216   2.433  27.348   1.507
12808W        W79217  36.333   7.388   9.983
12809W        W79218  43.928  24.442  11.575
12810W        W79219   1.548  38.962   4.184
12811W        W79220  34.091  35.718   1.304
12812W        W79221  27.973   2.154   3.625
12813W        W79222   4.204   3.893   3.206
12814W        W79223  31.510  39.458  11.460
12815W        W79224  13.680  24.409  10.538
12816W        W79225   9.176  23.513   4.674
12817W        W79226  40.993  19.515  12.633
12818W        W79227  33.404   4.335   4.979
12819W        W79228  18.960  33.876  13.683
12820W        W79229  33.080  38.535  10.453
12821W        W79230  12.103  35.354  12.845
12822W        W79231  19.301  44.932   2.355
12823W        W79232  16.284  40.791  11.997
12824W        W79233  18.276   1.831  12.249
12825W        W79234  35.849  36.116   2.767
12826W        W79235  10.876   7.851   1.365
12827W        W79236  34.924  26.547  12.025
12828W        W79237  41.489  12.925  12.998
12829W        W79238  43.542  38.422   2.564
12830W        W79239  40.809  31.765   0.193
12831W        W79240  35.931   9.469  12.929
12832W        W79241  29.109  14.507   0.766
12833W        W79242  41.939   3.590   1.684
12834W        W79243  18.314  42.598   2.893
12835W        W79244  24.079  14.612   4.745
12836W        W79245  19.457   0.233   1.014
12837W        W79246  34.600  41.161  11.977
12838W        W79247  28.847  30.091  13.338
12839W        W79248  32.824  24.148  13.579
12840W        W79249  22.429  13.807   3.511
12841W        W79250  44.855  17.231   4.637
12842W        W79251  21.628   7.771  14.070
12843W        W79252  13.404  23.067   1.984
12844W        W79253  21.547   0.939  11.650
12845W        W79254  31.083  40.185   1.628
12846W        W79255  24.769  31.471  12.996
12847W        W79256  26.343  12.153   2.412
12848W        W79257   2.363  19.603  14.391
12849W        W79258  41.041  43.598   1.826
12850W        W79259  42.385  22.272   4.675
12851W        W79260  22.279  23.994   2.817
12852W        W79261  18.722   6.334   2.592
12853W        W79262  19.252  18.026  12.976
12854W        W79263  16.890  43.274   9.935
12855W        W79264  38.019  26.696  14.548
12856W        W79265  14.313  12.453  11.628
12857W        W79266  27.469  41.346  11.881
12858W        W79267   8.891  16.723   1.726
12859W        W79268  21.968  40.779  13.870
12860W        W79269  33.141  15.962  12.728
12861W        W79270   4.476  39.326   2.439
12862W        W79271  21.886  24.849   4.180
12863W        W79272  31.196  39.991  11.203
12864W        W79273  15.856  23.289  13.233
12865W        W79274  13.303  14.194   3.359
12866W        W79275  10.349  43.722   1.039
12867W        W79276  20.451  11.728   1.355
12868W        W79277  30.663  43.427   4.062
12869W        W79278  22.513  38.173  14.471
12870W        W79279  34.581  30.141   2.019
12871W        W79280  16.136  34.203   0.304
12872W        W79281  11.049  35.123  12.001
12873W        W79282  33.910   9.888   3.921
12874W        W79283  44.324  34.114  12.585
12875W        W79284  43.331  34.478  12.551
12876W        W79285   5.330  37.075   0.728
12877W        W79286  43.871  38.051  10.474
12878W        W79287  18.162  29.632  10.681
12879W        W79288  16.823  37.836  12.964
12880W        W79289  13.840  27.213   0.773
12881W        W79290  32.541   5.409   5.297
12882W        W79291  20.040  20.231   2.913
12883W        W79292  20.424   8.421  11.952
12884W        W79293  25.513   0.711   1.806
12885W        W79294  42.002   2.569   0.280
12886W        W79295  42.117  43.188   3.639
12887W        W79296  27.449   2.589   3.864
12888W        W79297  12.246  13.298   2.430
12889W        W79298  37.850  12.271  13.443
12890W        W79299   7.241  23.927  13.100
12891W        W79300  12.692   9.580  12.511
12892W        W79301  10.135  20.564  13.887
12893W        W79302   2.455  20.359  11.162
12894W        W79303  29.949   2.923   1.317
12895W        W79304  17.276  25.506  11.022
12896W        W79305   0.783  28.108   0.656
12897W        W79306  10.203  15.656   1.008
12898W        W79307  22.590  42.437  10.308
12899W        W79308  20.162   6.346  14.280
12900W        W79309  30.490  22.784  11.667
12901W        W79310  23.947  15.868   1.294
12902W        W79311   4.300  36.358   4.183
12903W        W79312  24.579  12.680  12.066
12904W        W79313  27.664  26.166   3.529
12905W        W79314  13.266  21.138   2.733
12906W        W79315  21.164  41.457  10.783
12907W        W79316  20.468   5.315  11.608
12908W        W79317  13.568  21.049  14.909
12909W        W79318  28.964  37.084   3.611
12910W        W79319  26.324  42.182  13.896
12911W        W79320  37.810  22.236   1.014
12912W        W79321  13.058  23.228   1.044
12913W        W79322  40.273  36.720  11.997
12914W        W79323  23.631   3.463   3.093
12915W        W79324  36.340  29.644  11.110
12916W        W79325  36.523  28.718   2.402
12917W        W79326  41.887  26.892  11.626
12918W        W79327  16.860  36.555   1.434
12919W        W79328  35.016  32.047  11.560
12920W        W79329   7.527  40.747   5.048
12921W        W79330  29.601  27.160  12.988
12922W        W79331  21.574  35.278   0.711
12923W        W79332   8.430  25.545  11.029
12924W        W79333  35.559  35.077  11.535
12925W        W79334  44.843  20.101  11.142
12926W        W79335  10.638  34.374  13.855
12927W        W79336  37.003  28.180   0.760
12928W        W79337   2.140  17.699   2.252
12929W        W79338  22.201  26.933  10.599
12930W        W79339  28.517  15.896  12.017
12931W        W79340  12.870  21.609   0.332
12932W        W79341  23.670   2.951  10.629
12933W        W79342  26.928  26.507   3.955
12934W        W79343  15.345  15.693   0.758
12935W        W79344   3.659  43.594  12.658
12936W        W79345  20.483  18.385   9.929
12937W        W79346   9.953   3.921   1.599
12938W        W79347  10.447  32.314  11.131
12939W        W79348  31.806  15.790   0.947
12940W        W79349  20.461  14.775  13.887
12941W        W79350  13.714   9.860   4.085
12942W        W79351  37.305  27.582   1.890
12943W        W79352   2.689   0.945  13.916
12944W        W79353  43.113  10.043  13.928
12945W        W79354  37.600  12.235   0.759
12946W        W79355  13.692  20.089   1.308
12947W        W79356  19.847  30.959   3.299
12948W        W79357   6.084  42.615  14.389
12949W        W79358  38.098   8.311  10.725
12950W        W79359  19.923   5.738  12.207
12951W        W79360  30.439  14.316  13.986
12952W        W79361  10.873  40.326  10.414
12953W        W79362   3.372  25.268   4.579
12954W        W79363  32.106  18.633   2.418
12955W        W79364  25.050   1.362   0.362
12956W        W79365  11.588  14.144   4.530
12957W        W79366  21.547   0.903   2.217
12958W        W79367  22.404  10.075   4.318
12959W        W79368  41.065   1.453  11.978
12960W        W79369  33.488  25.289  13.987
12961W        W79370  28.004   0.311   3.732
12962W        W79371   1.705   2.343  13.357
12963W        W79372  38.947   0.273  11.164
12964W        W79373  31.437  44.997   0.544
12965W        W79374   0.452  42.675  11.553
12966W        W79375   9.549  41.180  11.685
12967W        W79376  31.612   8.734   2.472
12968W        W79377  18.293   3.469  13.401
12969W        W79378  11.904  16.363   0.494
12970W        W79379  15.866   0.257  12.336
12971W        W79380   0.986   0.762   0.394
12972W        W79381  39.426  18.021  13.769
12973W        W79382  44.528  27.987  12.024
12974W        W79383   8.299   9.658  12.348
12975W        W79384  26.170  21.173   1.936
12976W        W79385  44.486   4.794  13.474
12977W        W79386  27.122  30.104   1.948
12978W        W79387   5.914  13.706   1.860
12979W        W79388  36.462   6.573   5.343
12980W        W79389  28.435   4.737  11.839
12981W        W79390  32.175   8.429   2.301
12982W        W79391  16.265  25.002  12.574
12983W        W79392   0.304  20.368  11.210
12984W        W79393  30.934  31.674   2.168
12985W        W79394  42.370  18.861  10.727
12986W        W79395  29.356  41.267   1.996
12987W        W79396  24.320  27.970   0.868
12988W        W79397  30.864   9.387  14.341
12989W        W79398  14.468  23.288   0.287
12990W        W79399   4.846  23.669  10.099
12991W        W79400  25.715  29.511   3.911
12992W        W79401  19.503  27.610   4.140
12993W        W79402  32.239  17.525   3.343
12994W        W79403  36.132  20.248  10.640
12995W        W79404  36.062  12.509  11.222
12996W        W79405  36.602   1.286   4.619
12997W        W79406  19.628  42.870  12.122
12998W        W79407  14.332  10.596   0.301
12999W        W79408  40.606   9.386   1.257
13000W        W79409  30.665  16.668  13.674
13001W        W79410  12.772  22.365  11.066
13002W        W79411  24.107  12.665  14.807
13003W        W79412  23.091  23.417   2.180
13004W        W79413   3.905  13.670  12.961
13005W        W79414  29.627   2.936  12.105
13006W        W79415  14.503  15.465   2.681
13007W        W79416  41.552  17.254  13.274
13008W        W79417  38.810  26.838   3.289
13009W        W79418  38.386  25.918  11.637
13010W        W79419  38.164  33.445  14.232
13011W        W79420  17.596  12.568   5.077
13012W        W79421  43.545  29.558  13.210
13013W        W79422  19.705   2.495  13.286
13014W        W79423  30.817  17.653  13.831
13015W        W79424  30.639  33.673  11.960
13016W        W79425   0.464  35.324  13.722
13017W        W79426  28.092   9.289   0.975
13018W        W79427  24.615   0.697   3.595
13019W        W79428  30.967  32.651   1.332
13020W        W79429  23.900   9.247   4.852
13021W        W79430  32.863  19.911  13.904
13022W        W79431  43.591  14.638   0.337
13023W        W79432  37.469  37.396  10.686
13024W        W79433  12.825  10.079  11.626
13025W        W79434  43.861  43.924   0.315
13026W        W79435  41.420  19.121  13.115
13027W        W79436   7.406  25.570   1.495
13028W        W79437  42.070  39.683   1.325
13029W        W79438   1.220  24.803  13.116
13030W        W79439  15.824   4.086   0.560
13031W        W79440   6.698  19.199  11.001
13032W        W79441  17.727  21.777  13.011
13033W        W79442   9.219  16.716  12.104
13034W        W79443  33.625  12.614   2.318
13035W        W79444   2.308  31.492   2.523
13036W        W79445   1.591  13.246  14.085
13037W        W79446   1.655  39.972   4.126
13038W        W79447  10.521  19.223   1.306
13039W        W79448  41.701  16.790  11.539
13040W        W79449  14.245  15.828   3.046
13041W        W79450  40.280  28.453   3.205
13042W        W79451  29.852   8.733  13.919
13043W        W79452  41.778  32.169   3.747
13044W        W79453  39.128  17.248   3.768
13045W        W79454  30.427  44.407   2.398
13046W        W79455  38.013  15.267  14.530
13047W        W79456  38.583  37.734  14.419
13048W        W79457  34.771  44.454   1.683
13049W        W79458   2.731  14.653   2.480
13050W        W79459  30.480  12.657   1.869
13051W        W79460  13.087  13.429   5.057
13052W        W79461  36.920   9.892  11.917
13053W        W79462  36.490  41.867   2.240
13054W        W79463  27.148   9.115   0.750
13055W        W79464  17.020   1.395  12.531
13056W        W79465  32.192  41.604   2.802
13057W        W79466   4.117  32.524  14.814
13058W        W79467   5.807  39.677   2.771
13059W        W79468  40.488  24.708   1.747
13060W        W79469  32.631  29.059  13.083
13061W        W79470  11.064  18.191   1.863
13062W        W79471  15.346  38.778  14.916
13063W        W79472   3.507  31.961   1.263
13064W        W79473  23.526  10.780   1.836
13065W        W79474  19.085  44.076   1.353
13066W        W79475  21.664  30.986  11.155
13067W        W79476  30.601  29.130  10.683
13068W        W79477   6.194  14.634   2.370
13069W        W79478  27.545   8.704   0.553
13070W        W79479  43.765  29.164  11.786
13071W        W79480  22.162  17.695  12.067
13072W        W79481  31.038  29.326   1.234
13073W        W79482   6.233  42.016  11.381
13074W        W79483  43.340  20.488  12.278
13075W        W79484   7.162  38.118   3.199
13076W        W79485  38.433  40.217   0.312
13077W        W79486  44.375  18.751   4.280
13078W        W79487  12.615  15.762  10.776
13079W        W79488  10.842  28.466  14.069
13080W        W79489  11.631  22.429   1.270
13081W        W79490   5.603  34.176  14.784
13082W        W79491  13.330  44.022  13.432
13083W        W79492  33.845   0.534  14.919
13084W        W79493   4.043  28.751   3.067
13085W        W79494  40.472   2.874  11.698
13086W        W79495  20.216  29.494  11.476
13087W        W79496  23.236  28.726   3.278
13088W        W79497  37.292  12.707   3.851
13089W        W79498  10.457  22.327  10.396
13090W        W79499  12.129  19.673  11.534
13091W        W79500   0.984  40.771  14.699
13092W        W79501  16.478  39.957   1.783
13093W        W79502   0.745  40.367  14.981
13094W        W79503   6.399  30.766   4.448
13095W        W79504  20.531   6.722  14.222
13096W        W79505  35.412  41.996   4.721
13097W        W79506  21.564  36.448  12.388
13098W        W79507  44.598  44.300  11.946
13099W        W79508  18.994   2.390   2.104
13100W        W79509  14.761   4.415   1.419
13101W        W79510  37.703  38.143  12.537
13102W        W79511  34.150  11.730  13.989
13103W        W79512  40.874  38.300   2.643
13104W        W79513  23.039   8.902   1.747
13105W        W79514  16.074   2.435  12.679
13106W        W79515  10.667   1.816  12.052
13107W        W79516  21.785  36.933   2.872
13108W        W79517  39.385  18.636  14.068
13109W        W79518  30.047  34.483   4.675
13110W        W79519  32.920   6.858   4.006
13111W        W79520  37.862  27.926   2.913
13112W        W79521  41.165  30.440   0.969
13113W        W79522  19.084  41.994  11.042
13114W        W79523  38.503  27.615  13.834
13115W        W79524  17.238  17.563  12.940
13116W        W79525  32.675  42.747   4.149
13117W        W79526  23.996  17.651  11.540
13118W        W79527  11.762  31.953   2.611
13119W        W79528   6.727  17.409  11.108
13120W        W79529  31.993  23.962   0.753
13121W        W79530  41.157  17.538   0.289
13122W        W79531  37.886  22.449  13.311
13123W        W79532   5.403  28.978  13.871
13124W        W79533   0.893  42.279  14.424
13125W        W79534  40.113   8.371   4.807
13126W        W79535  40.610  11.427   2.488
13127W        W79536  21.323  22.580  13.253
13128W        W79537  26.925   2.748  13.417
13129W        W79538  26.982  12.842  13.375
13130W        W79539  17.565  38.921   0.393
13131W        W79540  18.761  11.545   1.814
13132W        W79541  20.993  17.110  13.708
13133W        W79542  44.958  42.731  14.623
13134W        W79543   4.437  22.293  13.026
13135W        W79544  28.305  40.962   2.767
13136W        W79545   8.838  40.357  12.358
13137W        W79546   9.294  38.027   1.972
13138W        W79547  11.834  18.125   2.602
13139W        W79548  36.501  31.678   1.719
13140W        W79549   2.865  28.017   1.638
13141W        W79550  33.456  19.651   2.302
13142W        W79551  18.500   9.871  14.830
13143W        W79552   6.409  29.098  14.105
13144W        W79553  12.960  34.190   2.973
13145W        W79554  19.937  28.654  14.810
13146W        W79555  34.284   6.731  13.120
13147W        W79556   9.075  15.367   4.256
13148W        W79557  22.296   9.778   0.581
13149W        W79558  33.760   9.998   4.393
13150W        W79559  37.973  13.368  12.037
13151W        W79560  31.063  11.125  14.462
13152W        W79561  34.063  33.571   1.558
13153W        W79562  38.196  41.259  13.527
13154W        W79563  20.428  38.316   1.053
13155W        W79564  39.774   7.342   4.102
13156W        W79565  44.825   5.254  12.518
13157W        W79566  21.005  38.508   2.679
13158W        W79567  19.142  18.736   2.739
13159W        W79568  21.031  27.061  12.595
13160W        W79569   9.758  24.018  14.582
13161W        W79570  37.813  24.137  12.960
13162W        W79571  18.993  29.161  10.968
13163W        W79572  29.611  43.798   4.643
13164W        W79573  41.787  12.629  13.561
13165W        W79574  10.244   3.207   3.133
13166W        W79575  39.542  13.944   0.069
13167W        W79576  15.046  22.509   0.484
13168W        W79577  25.758  30.505   3.745
13169W        W79578  43.506  16.372   1.742
13170W        W79579  32.530  23.223  14.592
13171W        W79580  24.990  11.927  14.979
13172W        W79581  24.728  23.857   0.289
13173W        W79582  29.657  26.680   4.539
13174W        W79583  20.899  31.606  13.814
13175W        W79584   3.435   1.417  11.631
13176W        W79585  17.653  29.683   1.863
13177W        W79586  36.243   9.345  10.992
13178W        W79587  10.941  30.963  14.451
13179W        W79588  24.755  42.459   3.809
13180W        W79589  14.240  13.330  14.945
13181W        W79590  32.070   8.153  13.904
13182W        W79591  43.616   8.721   3.923
13183W        W79592  24.821  12.393   0.716
13184W        W79593  38.285  37.840  14.016
13185W        W79594  37.850   0.265  11.409
13186W        W79595  15.231  23.968   0.283
13187W        W79596   2.316  38.974   3.095
13188W        W79597  44.930   8.957  14.654
13189W        W79598   2.625  22.771   1.697
13190W        W79599  36.776  31.165  14.483
13191W        W79600  24.652  16.061   3.635
13192W        W79601  30.396   2.691  11.681
13193W        W79602  12.898   4.212  12.138
13194W        W79603  23.075  34.943  12.516
13195W        W79604  40.123   1.652  14.493
13196W        W79605  40.125  27.902  14.489
13197W        W79606   8.894  25.558  10.711
13198W        W79607   8.908   1.415   3.850
13199W        W79608  43.231  13.731   0.985
13200W        W79609   4.867  15.213  12.997
13201W        W79610  20.675  13.315   4.574
13202W        W79611  41.888  30.390   2.834
13203W        W79612  26.471   6.706  13.972
13204W        W79613  14.891  31.411   0.925
13205W        W79614  30.393  34.139  11.948
13206W        W79615  23.184  11.858   2.630
13207W        W79616  25.755  26.582   1.417
13208W        W79617  33.786  32.902  13.645
13209W        W79618  38.974   4.826   3.391
13210W        W79619  39.903   1.476   2.784
13211W        W79620  13.227   0.039   2.728
13212W        W79621  19.788  44.913   3.740
13213W        W79622  36.009  28.341   1.626
13214W        W79623   1.691   2.975  12.533
13215W        W79624  43.250  14.606   1.772
13216W        W79625  25.584   3.170  14.417
13217W        W79626  34.628  20.473  12.422
13218W        W79627   7.784  19.151   3.418
13219W        W79628  24.481  30.719   1.278
13220W        W79629  41.848  38.059   4.334
13221W        W79630  39.984  27.236  11.579
13222W        W79631  23.895  27.789  13.646
13223W        W79632  44.587  30.660   2.501
13224W        W79633   9.481  42.342  12.982
13225W        W79634  29.607  27.772   4.908
13226W        W79635  39.906   5.347  12.416
13227W        W79636  19.747  39.318  14.957
13228W        W79637  23.505  19.239   2.677
13229W        W79638  39.662  41.019  10.781
13230W        W79639  23.740   5.800   1.440
13231W        W79640  28.713  41.736  11.155
13232W        W79641  16.317   4.006  12.887
13233W        W79642   2.780  14.687  10.640
13234W        W79643  12.863  24.719  12.348
13235W        W79644  24.215  24.033  11.651
13236W        W79645  12.719   9.360  14.327
13237W        W79646  27.527  11.814   5.051
13238W        W79647   5.805  44.889   2.198
13239W        W79648   3.894  22.510   2.893
13240W        W79649  22.198  30.605  14.214
13241W        W79650  37.392  21.940   0.967
13242W        W79651  35.493   5.509   1.255
13243W        W79652  14.781  33.581  13.876
13244W        W79653  21.366  18.252  10.736
13245W        W79654  14.630  34.618   3.213
13246W        W79655   2.900   4.895  14.924
13247W        W79656   7.508  38.481   3.317
13248W        W79657  43.018  32.950  13.438
13249W        W79658   2.947  20.073  13.849
13250W        W79659   7.834  22.532  11.574
13251W        W79660   9.337  38.071   3.700
13252W        W79661  17.019  35.536   3.683
13253W        W79662   0.823   8.846  11.600
13254W        W79663  18.715  31.673  11.131
13255W        W79664  17.756  31.635  13.539
13256W        W79665  32.518  26.983   3.680
13257W        W79666   0.679  33.482  12.143
13258W        W79667   9.779  29.215   1.569
13259W        W79668  30.091  15.825   4.773
13260W        W79669  42.879  37.459  11.163
13261W        W79670  20.047  27.006   4.701
13262W        W79671  20.613  44.009   1.282
13263W        W79672  12.282  25.245   4.075
13264W        W79673   3.903  25.122   4.263
13265W        W79674  13.844  31.744  11.691
13266W        W79675  22.946  28.423  12.694
13267W        W79676   9.126  17.403   9.980
13268W        W79677  33.914   3.178   3.602
13269W        W79678  14.281  41.323   0.258
13270W        W79679  13.714  10.422  10.620
13271W        W79680   8.884  33.353  11.979
13272W        W79681  43.482  19.766  14.351
13273W        W79682  20.710  39.061   2.194
13274W        W79683  35.857  19.075  11.034
13275W        W79684   2.326  44.102   4.577
13276W        W79685  18.751  15.054   2.297
13277W        W79686   2.978   6.390   1.758
13278W        W79687  18.562  16.818   1.400
13279W        W79688  40.981  41.882   1.975
13280W        W79689  11.217   6.764  11.681
13281W        W79690  30.606  23.032   2.203
13282W        W79691  18.243  22.179   2.822
13283W        W79692  19.544   3.008  12.565
13284W        W79693  10.182  28.732   0.834
13285W        W79694  30.923  16.663   3.710
13286W        W79695   7.650   0.019  11.092
13287W        W79696  21.580  21.202   2.862
13288W        W79697   3.877  37.755  13.224
13289W        W79698  34.516  41.487   0.426
13290W        W79699  43.973  26.965   1.359
13291W        W79700  42.786  38.861  14.989
13292W        W79701   0.672  26.921   1.585
13293W        W79702  32.399  28.044  10.466
13294W        W79703   9.554  39.414   2.206
13295W        W79704  20.108  30.542  14.338
13296W        W79705  32.882  36.669   1.912
13297W        W79706   4.207  34.484  10.714
13298W        W79707  35.434  27.911   4.608
13299W        W79708  30.182  27.333   0.870
13300W        W79709  33.698  20.210   1.176
13301W        W79710  22.180  21.772  12.929
13302W        W79711  15.663  26.429  13.876
13303W        W79712  44.318  41.505  13.456
13304W        W79713  32.141  18.033  12.510
13305W        W79714  36.698  30.008   4.229
13306W        W79715  25.678  32.908  14.582
13307W        W79716  13.044  42.428  11.896
13308W        W79717  25.545  39.778  12.651
13309W        W79718   9.387  25.704  14.879
13310W        W79719   4.414  41.118   4.648
13311W        W79720   2.489  12.590  11.650
13312W        W79721  44.519  21.638  11.662
13313W        W79722   2.173   1.387   3.842
13314W        W79723  13.703   2.448   1.601
13315W        W79724  37.485   4.334  10.679
13316W        W79725  15.012  42.946  11.214
13317W        W79726   8.754  36.652  10.733
13318W        W79727  19.335  20.531  10.815
13319W        W79728  31.449   4.913  12.471
13320W        W79729  18.808  28.560   1.496
13321W        W79730  19.148  38.565   1.293
13322W        W79731   1.410  11.906   1.891
13323W        W79732  33.190  32.091   1.533
13324W        W79733  18.752  19.879  10.201
13325W        W79734   8.659  27.038   4.124
13326W        W79735  28.935   0.110  11.255
13327W        W79736  17.043  33.466   1.642
13328W        W79737   9.907  28.755   1.993
13329W        W79738   9.651  38.052   3.226
13330W        W79739  16.819  25.475  12.646
13331W        W79740  35.635  31.437  13.080
13332W        W79741  39.449  15.191   0.425
13333W        W79742  39.429  40.400   0.547
13334W        W79743   6.245  20.084  11.651
13335W        W79744  40.418   2.851   1.215
13336W        W79745  34.553  12.360   0.511
13337W        W79746  20.812  16.506  11.188
13338W        W79747  27.114   4.037  14.027
13339W        W79748  14.312  40.692  12.523
13340W        W79749   8.893  22.159  14.760
13341W        W79750   1.084  17.970   2.390
13342W        W79751   4.495  18.599   3.821
13343W        W79752   2.371  23.712  13.475
13344W        W79753  18.009  44.352  14.986
13345W        W79754  29.163   5.734   2.917
13346W        W79755   3.407  32.523  12.104
13347W        W79756  30.034  35.425   3.631
13348W        W79757  34.004  10.394   4.629
13349W        W79758   5.656   7.815  14.772
13350W        W79759  11.811  22.332  12.422
13351W        W79760  35.793  13.362  11.484
13352W        W79761   8.038  38.336   4.679
13353W        W79762  18.292   8.712  13.118
13354W        W79763  28.072  16.497  12.768
13355W        W79764   7.885  39.294  13.864
13356W        W79765  25.993  28.577   2.719
13357W        W79766  35.410  11.330  13.901
13358W        W79767  29.583  25.499   2.560
13359W        W79768  44.110  18.558   4.689
13360W        W79769  35.358  11.620  12.576
13361W        W79770  11.267  37.391   0.777
13362W        W79771  33.061  33.160   2.203
13363W        W79772  36.947  14.319   2.624
13364W        W79773  17.952   8.660   1.539
13365W        W79774  13.068  28.578  12.595
13366W        W79775  17.500   3.948  10.638
13367W        W79776  25.839  31.656   0.327
13368W        W79777  26.502  20.749   0.284
13369W        W79778   9.289  24.571   4.840
13370W        W79779  24.353  36.509  13.281
13371W        W79780  21.250  11.106  14.028
13372W        W79781  36.048  16.360  14.380
13373W        W79782   9.404  23.592   2.376
13374W        W79783  38.365  17.094  14.769
13375W        W79784  17.990  22.685   1.713
13376W        W79785  33.372  27.667   2.209
13377W        W79786  39.537  20.041   5.295
13378W        W79787  22.772  30.239  10.722
13379W        W79788  22.048  17.232  13.971
13380W        W79789  30.455  34.506   5.010
13381W        W79790  33.717   5.803   2.704
13382W        W79791  10.713  11.701  10.287
13383W        W79792  23.800  21.403   4.082
13384W        W79793  14.076  19.703  10.553
13385W        W79794  27.193  18.290   3.271
13386W        W79795  31.281  10.616   1.459
13387W        W79796  13.697  12.300  11.061
13388W        W79797  26.554  37.484   0.872
13389W        W79798  22.648  15.239   2.947
13390W        W79799   4.370  33.463   3.575
13391W        W79800  39.347  41.300  12.966
13392W        W79801  44.360  26.528  11.083
13393W        W79802   0.365   4.744  13.540
13394W        W79803  23.581  20.568   4.635
13395W        W79804  25.111  35.062  14.670
13396W        W79805  31.172  30.398  10.817
13397W        W79806   5.274  41.993   0.032
13398W        W79807   1.094   4.180  12.043
13399W        W79808   9.166  37.032  14.358
13400W        W79809  31.524  19.019  13.474
13401W        W79810  33.520  34.595   5.073
13402W        W79811   4.884   5.380   2.371
13403W        W79812   0.352   1.399  13.918
13404W        W79813  36.506  44.573   2.734
13405W        W79814  30.413   4.354  11.924
13406W        W79815  17.067  21.257   3.578
13407W        W79816  44.211  26.208  11.620
13408W        W79817   7.132  35.354   4.219
13409W        W79818   7.416  44.438   3.713
13410W        W79819  32.250   1.959   0.676
13411W        W79820   3.777  15.948  13.581
13412W        W79821  23.732   9.311   0.003
13413W        W79822  14.256  21.831  13.064
13414W        W79823  43.960  41.317   4.090
13415W        W79824  34.155  29.420   0.209
13416W        W79825  36.010  15.864  10.135
13417W        W79826  35.429   2.133   1.403
13418W        W79827  19.641   8.317   4.639
13419W        W79828   5.810  31.994   2.495
13420W        W79829  34.125  25.115   3.619
13421W        W79830  18.102  35.036  14.752
13422W        W79831  40.547  18.106  13.264
13423W        W79832  20.064   8.754  14.435
13424W        W79833   2.349  19.805   3.832
13425W        W79834  40.413  29.377   2.234
13426W        W79835  19.009  26.499  11.670
13427W        W79836   2.765   3.801   2.312
13428W        W79837   5.888   8.687   0.817
13429W        W79838  40.960  32.324   3.066
13430W        W79839  17.494  13.662  12.172
13431W        W79840  19.793   9.519  11.059
13432W        W79841  11.833  36.143  14.419
13433W        W79842  15.548  40.052  13.339
13434W        W79843  32.340  29.000  13.511
13435W        W79844  41.760  19.112   4.727
13436W        W79845  30.422   0.819  13.403
13437W        W79846   6.371  10.842   2.082
13438W        W79847   2.595  30.141   1.886
13439W        W79848  22.752  41.069  10.939
13440W        W79849   9.244  32.050  12.452
13441W        W79850  40.880  15.441   0.949
13442W        W79851   8.760  16.776   4.068
13443W        W79852  19.913  14.055   4.552
13444W        W79853   0.899  27.667  11.942
13445W        W79854  19.773  15.815   0.471
13446W        W79855  25.428  26.105   4.909
13447W        W79856  36.440  14.254   4.709
13448W        W79857  42.098   8.838   2.788
13449W        W79858  16.683   7.112   2.748
13450W        W79859  28.503   7.732  14.081
13451W        W79860   9.899  17.660  14.024
13452W        W79861  28.334  28.516   3.979
13453W        W79862  16.308   6.955  13.386
13454W        W79863  18.214  41.904  11.729
13455W        W79864  22.261  28.872  11.766
13456W        W79865  42.263  38.813   0.107
13457W        W79866  34.513  30.444  10.770
13458W        W79867   9.527  13.798  11.540
13459W        W79868  39.924   4.795   4.828
13460W        W79869   3.270  14.252  13.545
13461W        W79870   1.954  32.983   4.296
13462W        W79871  32.046  32.940   3.346
13463W        W79872  19.756  22.260   0.961
13464W        W79873   4.310  28.396   3.870
13465W        W79874   5.656  17.867   2.223
13466W        W79875  44.318  25.778   4.187
13467W        W79876  19.313  30.081  14.317
13468W        W79877  43.445  29.542  13.710
13469W        W79878  36.445   4.869  10.604
13470W        W79879   7.184  24.584  13.780
13471W        W79880  10.140  11.211   4.104
13472W        W79881  39.436  33.869   4.701
13473W        W79882  43.215  36.507   1.272
13474W        W79883   4.720  32.486   2.107
13475W        W79884  34.252  33.015  13.394
13476W        W79885  19.820  28.059   0.246
13477W        W79886  17.248  21.536  13.073
13478W        W79887  30.164   2.510  10.194
13479W        W79888   8.947  38.938  13.421
13480W        W79889  33.189  27.417  13.520
13481W        W79890   0.841  36.040   2.737
13482W        W79891  24.636  10.429  11.135
13483W        W79892   0.323  14.900  11.039
13484W        W79893  23.696  25.207  13.507
13485W        W79894  30.715  13.909   0.135
13486W        W79895  21.295  15.383   0.468
13487W        W79896  18.282   8.963   0.027
13488W        W79897  39.762   5.706  14.363
13489W        W79898  39.891   3.785   3.244
13490W        W79899  30.672  29.623   0.430
13491W        W79900   6.316  32.535  12.396
13492W        W79901  19.094   8.821  12.044
13493W        W79902  11.311  10.450   4.767
13494W        W79903  44.274  37.504   3.115
13495W        W79904  11.573   8.262   1.898
13496W        W79905  25.970  26.847  10.750
13497W        W79906  19.292  23.719   4.855
13498W        W79907  23.030  17.847   3.567
13499W        W79908  30.161  43.178  11.138
13500W        W79909  40.348   5.735   1.670
13501W        W79910  29.400  27.891   2.155
13502W        W79911   3.016  41.409   1.194
13503W        W79912  31.668  31.153  11.519
13504W        W79913  27.728  19.081   4.856
13505W        W79914  24.722  35.161  11.151
13506W        W79915   4.646  43.797  12.742
13507W        W79916  12.340  17.749   2.591
13508W        W79917  25.926  18.230   1.679
13509W        W79918   5.989   8.535   1.313
13510W        W79919   8.550  27.352   4.605
13511W        W79920  26.161  40.422   4.537
13512W        W79921  25.996  22.944   1.373
13513W        W79922  31.087  20.064   2.281
13514W        W79923  29.482   5.457   0.691
13515W        W79924   2.276  41.901  12.140
13516W        W79925  44.850   8.429   1.460
13517W        W79926   4.723   7.720   1.667
13518W        W79927   4.885   5.696   2.787
13519W        W79928  43.785  31.095   4.082
13520W        W79929  16.365  18.243   0.886
13521W        W79930  10.845  14.069   2.422
13522W        W79931  43.916  18.092   2.120
13523W        W79932  24.725  18.086   4.574
13524W        W79933  30.081  22.407  14.752
13525W        W79934  12.272  15.498  13.712
13526W        W79935   0.002  43.499  12.358
13527W        W79936  29.814  29.167  11.885
13528W        W79937   7.387  22.756  14.185
13529W        W79938  25.591  37.169  13.153
13530W        W79939  16.158  39.510   4.509
13531W        W79940  32.903  17.010   2.838
13532W        W79941  39.877  35.606  14.417
13533W        W79942  28.368   1.889   0.971
13534W        W79943  37.820  38.999  12.831
13535W        W79944  20.153  12.617  10.636
13536W        W79945  29.737  22.987   4.136
13537W        W79946  13.290  37.371  12.870
13538W        W79947   0.232  41.171   1.848
13539W        W79948   7.951  31.536   4.086
13540W        W79949  10.052  28.070  11.764
13541W        W79950   0.948  16.749  14.006
13542W        W79951  16.213   4.982   2.823
13543W        W79952  12.091  32.379   4.628
13544W        W79953  32.297   8.688   1.828
13545W        W79954  19.651   8.855  12.814
13546W        W79955  23.877  31.231   0.815
13547W        W79956  15.970  12.750  11.972
13548W        W79957  31.202  31.911  11.612
13549W        W79958   3.931  41.346   1.704
13550W        W79959  23.093  19.298  12.292
13551W        W79960  37.305  14.614   3.666
13552W        W79961   7.208  43.364   2.722
13553W        W79962  43.920  26.700  13.323
13554W        W79963  34.988  37.854   4.924
13555W        W79964  19.634  37.486   4.918
13556W        W79965  21.674  34.652  14.326
13557W        W79966  38.074   0.960   2.015
13558W        W79967  26.642  11.734   2.576
13559W        W79968   5.545  14.214   1.205
13560W        W79969  37.232  28.699  12.519
13561W        W79970  40.847  16.669  13.594
13562W        W79971   5.075  25.258  10.661
13563W        W79972  30.002  13.109   3.237
13564W        W79973  13.504  26.017  13.654
13565W        W79974  36.564  16.494   4.240
13566W        W79975   4.501  26.252   4.112
13567W        W79976  43.353  37.023   0.767
13568W        W79977  22.528  12.536  14.844
13569W        W79978  23.158  24.634  11.541
13570W        W79979  35.377   0.736  13.490
13571W        W79980  14.125   9.603  11.081
13572W        W79981  37.676   3.821  12.345
13573W        W79982  40.329  15.118   2.363
13574W        W79983  12.769  26.547  13.160
13575W        W79984  19.164   5.324   0.475
13576W        W79985  33.245  39.640   3.669
13577W        W79986  22.122  19.489  11.404
13578W        W79987  38.940  21.720   4.565
13579W        W79988  17.627   0.856   0.812
13580W        W79989   3.402  10.358   0.188
13581W        W79990  26.298  26.173   5.306
13582W        W79991  11.269  36.512  12.863
13583W        W79992  14.230  30.464   3.051
13584W        W79993  30.475  35.051  13.034
13585W        W79994  14.589  23.282  12.546
13586W        W79995  15.630   5.141  14.353
13587W        W79996  21.238   8.643   4.643
13588W        W79997  17.835  29.376  11.655
13589W        W79998  18.655  16.920  13.012
13590W        W79999  21.960   3.989  13.859
13591W        W80000  28.744  35.027  14.965
13592W        W80001  42.441  27.908   0.850
13593W        W80002  38.976  32.571  10.664
13594W        W80003  20.102   1.958  12.635
13595W        W80004  37.939  27.144  13.615
13596W        W80005  23.058  32.410  14.248
13597W        W80006  31.080  21.834  12.107
13598W        W80007  31.242  13.320  10.830
13599W        W80008  15.047  29.766   4.025
13600W        W80009  35.855  43.784  10.750
13601W        W80010   2.374  21.856  13.704
13602W        W80011  14.026  30.870   1.793
13603W        W80012  36.931  11.646   3.750
13604W        W80013  41.573  32.322   0.763
13605W        W80014  14.961  19.592   4.135
13606W        W80015  38.998  43.873   3.731
13607W        W80016   0.363   2.066   3.664
13608W        W80017   7.613   9.085  13.783
13609W        W80018   2.193  16.693  14.315
13610W        W80019   5.828  41.958   4.587
13611W        W80020  41.090  11.283   1.212
13612W        W80021  34.922   7.409   3.735
13613W        W80022  38.984  27.564   1.919
13614W        W80023  23.790   3.012   4.114
13615W        W80024  10.389  25.030  10.598
13616W        W80025  16.852  12.072  11.649
13617W        W80026  41.408  44.043  12.221
13618W        W80027   5.403  20.722   0.403
13619W        W80028  44.454  18.667   2.584
13620W        W80029  17.362  40.460   1.741
13621W        W80030  40.831  26.089   0.459
13622W        W80031  18.479  29.651  10.277
13623W        W80032  23.442  19.010   3.128
13624W        W80033   4.150   0.447  10.636
13625W        W80034  21.099  13.067   3.391
13626W        W80035  41.669  19.535  14.782
13627W        W80036  32.885  32.859   1.812
13628W        W80037  19.007   8.176  11.078
13629W        W80038   6.639  22.967   0.809
13630W        W80039  34.890  28.830   3.148
13631W        W80040  19.024  25.013  11.980
13632W        W80041   2.265   3.101   1.532
13633W        W80042  10.222  19.148  10.688
13634W        W80043   5.478  22.246   2.294
13635W        W80044   2.483  15.332  14.472
13636W        W80045   0.991  15.760   0.020
13637W        W80046  19.583  24.645   2.358
13638W        W80047  44.568  38.761  14.554
13639W        W80048  16.603  20.177  13.583
13640W        W80049  27.789  30.514  11.452
13641W        W80050  16.769   4.505   1.371
13642W        W80051  40.369  13.309   2.223
13643W        W80052  30.050  23.586  12.398
13644W        W80053  22.803   5.625   2.323
13645W        W80054  36.570  34.298  13.981
13646W        W80055  39.011  28.541  11.419
13647W        W80056  28.535  44.848   2.300
13648W        W80057  42.410   6.171  13.124
13649W        W80058  24.343  43.851  10.371
13650W        W80059  24.629  17.012   2.360
13651W        W80060  43.594  38.034   1.762
13652W        W80061  28.501  14.384   4.536
13653W        W80062  35.338  37.951  12.782
13654W        W80063   3.860  32.803   3.605
13655W        W80064  25.587  12.699   4.966
13656W        W80065  13.418   0.164   0.391
13657W        W80066   5.133   6.823   1.370
13658W        W80067   4.648  15.603  10.791
13659W        W80068  39.831  14.734  11.708
13660W        W80069  38.891  23.443   4.149
13661W        W80070  36.636  41.846  10.760
13662W        W80071   9.930  19.170  14.923
13663W        W80072  12.322  27.009   0.516
13664W        W80073  44.393  38.837   3.916
13665W        W80074  18.663  42.924  14.017
13666W        W80075   7.893  10.864  14.085
13667W        W80076  26.843  39.385   1.847
13668W        W80077  36.752  36.151  11.996
13669W        W80078  34.815  25.671  10.695
13670W        W80079  22.952  38.669  10.209
13671W        W80080  44.236   2.400  11.010
13672W        W80081  25.787  12.586   1.253
13673W        W80082   9.387  24.749  13.563
13674W        W80083   1.962  33.535   0.000
13675W        W80084   5.208   9.370  12.855
13676W        W80085  22.354   0.610   1.274
13677W        W80086  43.547  18.676   3.575
13678W        W80087  36.602  35.445   1.024
13679W        W80088  19.258   0.421   0.073
13680W        W80089  42.411  15.161  12.869
13681W        W80090   2.267   1.996  10.374
13682W        W80091  22.125  24.712  13.534
13683W        W80092  27.474  31.444  11.287
13684W        W80093   6.879   5.263   4.218
13685W        W80094  38.735  23.538  12.848
13686W        W80095  34.543  27.916   1.161
13687W        W80096   4.853  38.927  11.659
13688W        W80097  27.115  13.357   3.712
13689W        W80098   3.174  10.418  14.373
13690W        W80099  41.450   2.751   3.608
13691W        W80100  21.652  24.020   2.376
13692W        W80101   3.270  36.927  14.724
13693W        W80102   2.917   7.272   3.213
13694W        W80103  41.031  14.794  14.396
13695W        W80104  40.749  27.041  10.564
13696W        W80105  20.676  31.317  12.415
13697W        W80106  19.704  25.295  11.777
13698W        W80107   0.883  25.275   2.271
13699W        W80108  20.440   1.121  12.243
13700W        W80109   4.830  30.571  13.764
13701W        W80110  31.079  30.461   3.214
13702W        W80111  12.105  35.349  10.694
13703W        W80112  28.585  19.260  10.647
13704W        W80113  14.301  18.045   3.666
13705W        W80114  31.119  16.595   2.741
13706W        W80115  13.116  17.417  14.349
13707W        W80116  14.512  19.223  14.066
13708W        W80117  29.164   2.234  13.433
13709W        W80118  31.968  41.988   4.430
13710W        W80119  20.602  25.182   0.866
13711W        W80120  33.622  36.542   2.587
13712W        W80121   7.264  18.556   3.179
13713W        W80122  10.637  26.581   3.298
13714W        W80123  35.973   8.056   3.648
13715W        W80124  24.990  22.467  14.898
13716W        W80125  18.142  19.559  12.202
13717W        W80126  34.024  44.784   2.876
13718W        W80127  25.127  31.618  14.525
13719W        W80128  42.381   0.802   0.028
13720W        W80129   7.615  44.420  13.443
13721W        W80130  41.880   2.492  11.168
13722W        W80131   6.890  33.105   1.578
13723W        W80132  30.586  29.203  13.960
13724W        W80133  13.868   9.914  10.659
13725W        W80134  34.790  18.754  13.341
13726W        W80135  31.897  44.422   4.641
13727W        W80136   0.339  28.760  14.088
13728W        W80137  25.678  13.046  10.763
13729W        W80138  15.736  39.184   2.929
13730W        W80139   4.141  23.220  12.951
13731W        W80140  33.293   1.172   0.499
13732W        W80141  19.772  44.048  10.727
13733W        W80142  31.042  12.674   0.180
13734W        W80143  35.954  13.019  11.112
13735W        W80144  41.750  29.986   3.198
13736W        W80145   0.718  44.549  14.487
13737W        W80146   4.969  12.263   0.249
13738W        W80147   7.514  42.711   1.429
13739W        W80148  27.573   5.515   0.140
13740W        W80149  44.939  34.985   1.307
13741W        W80150  35.586  19.036   3.296
13742W        W80151   6.121  37.168   1.164
13743W        W80152  11.906  15.404   4.081
13744W        W80153  11.295   4.792  10.167
13745W        W80154  43.705  13.242   0.340
13746W        W80155  10.141  40.621   3.707
13747W        W80156  34.605  10.681   3.614
13748W        W80157  12.966  22.375   1.370
13749W        W80158  20.598  21.016  10.614
13750W        W80159   6.040   0.940   4.658
13751W        W80160  15.591  41.335   2.194
13752W        W80161   6.691  12.306   2.652
13753W        W80162  43.931  27.573  14.284
13754W        W80163  35.728  40.279  13.865
13755W        W80164  12.287  32.534   3.081
13756W        W80165  37.957  29.128   3.307
13757W        W80166  44.799  24.027  14.105
13758W        W80167  31.925  29.911   3.114
13759W        W80168   5.460  42.468  10.939
13760W        W80169  15.840   2.440  13.846
13761W        W80170  39.665  24.468  13.794
13762W        W80171  14.403  35.293  11.641
13763W        W80172  24.120  16.836   4.093
13764W        W80173  13.610  25.064  14.049
13765W        W80174  24.781   9.411  12.120
13766W        W80175  21.370  22.192  10.089
13767W        W80176  16.848  26.864  13.768
13768W        W80177  43.026  43.785   4.534
13769W        W80178  30.198  29.723   5.001
13770W        W80179  31.875  37.501   3.309
13771W        W80180  36.192   0.452   0.953
13772W        W80181  40.083  43.268  10.637
13773W        W80182  38.571  28.478  11.134
13774W        W80183  39.515  33.694  13.101
13775W        W80184  21.862  20.667   0.290
13776W        W80185   7.778  21.098  14.588
13777W        W80186   4.691  10.881   3.575
13778W        W80187  44.808  35.307  14.230
13779W        W80188  41.406   4.533  10.333
13780W        W80189  29.037  12.713  12.890
13781W        W80190   8.332  31.672  13.993
13782W        W80191  16.382  43.460   2.727
13783W        W80192  33.731   5.399  11.200
13784W        W80193  36.154  29.203   2.548
13785W        W80194  20.102  15.628  14.343
13786W        W80195  17.758  42.274  13.880
13787W        W80196  12.743   4.730  13.961
13788W        W80197  15.263  15.186   0.930
13789W        W80198  11.744  13.141   1.438
13790W        W80199  42.265  40.298   0.890
13791W        W80200  15.255   3.672  12.158
13792W        W80201  33.850  24.994   2.138
13793W        W80202  43.200  28.428  13.528
13794W        W80203  33.039  37.529   3.691
13795W        W80204  14.722  39.395  12.437
13796W        W80205  28.568  21.637   2.693
13797W        W80206  22.767  37.694   3.695
13798W        W80207  17.034  30.913   4.927
13799W        W80208  39.842  27.935  13.549
13800W        W80209   5.792   2.852  12.790
13801W        W80210  27.361  15.093  11.969
13802W        W80211  16.040  16.537   1.965
13803W        W80212  26.726   1.439  14.442
13804W        W80213  43.830  18.320   3.798
13805W        W80214  11.923  11.936   2.355
13806W        W80215  44.153  36.914   3.218
13807W        W80216  35.097   8.340   4.606
13808W        W80217  39.736   4.471  12.768
13809W        W80218   8.799  42.984  13.022
13810W        W80219  37.372  30.536  11.968
13811W        W80220  30.501  29.527   4.447
13812W        W80221   8.447  44.892   0.055
13813W        W80222  23.753   9.390  12.055
13814W        W80223  36.356   0.367   0.464
13815W        W80224  34.933   1.676  13.129
13816W        W80225  41.326   1.243   3.394
13817W        W80226  21.883  33.977   4.316
13818W        W80227   1.753  15.489   3.995
13819W        W80228  10.091  40.088  13.980
13820W        W80229  38.512  44.877  12.954
13821W        W80230   9.471  12.596  11.097
13822W        W80231  13.738   8.162  12.548
13823W        W80232  37.395  44.761  14.928
13824W        W80233  16.907  22.207  12.543
13825W        W80234  16.124   2.291   2.710
13826W        W80235  39.995  12.116   1.975
13827W        W80236  10.385  18.257   0.307
13828W        W80237  17.713  13.513  11.255
13829W        W80238  18.103  41.500  14.808
13830W        W80239  35.514  10.797   0.795
13831W        W80240  34.968  29.652  13.814
13832W        W80241   0.784  26.419   0.241
13833W        W80242  21.382  20.740   0.698
13834W        W80243  26.694  44.742   2.320
13835W        W80244  15.497  37.098   1.308
13836W        W80245  19.758  42.301  14.274
13837W        W80246   4.925  18.649  10.782
13838W        W80247   2.733   7.947   4.814
13839W        W80248  22.904  18.779  13.520
13840W        W80249   8.426  21.427   4.250
13841W        W80250   9.901  42.322  10.542
13842W        W80251  40.347  19.734  11.879
13843W        W80252  35.567  44.943   0.160
13844W        W80253  16.061  42.471  12.153
13845W        W80254  37.552   7.132   0.431
13846W        W80255   7.104  32.028  12.473
13847W        W80256   2.801   9.888  11.923
13848W        W80257   2.812  43.339  12.172
13849W        W80258  30.112  15.185  11.202
13850W        W80259  10.558  20.078  12.471
13851W        W80260   6.410  15.616  11.155
13852W        W80261   2.353  38.617  10.754
13853W        W80262  40.856   5.375  10.947
13854W        W80263  20.006  30.021   3.292
13855W        W80264   5.464  28.760   1.201
13856W        W80265  17.300  20.049  11.088
13857W        W80266  35.823  39.513   2.145
13858W        W80267  11.031  24.531  13.932
13859W        W80268  36.442  42.136   1.010
13860W        W80269  35.622  39.384  12.196
13861W        W80270  35.307  34.408   1.122
13862W        W80271  39.063   4.846  14.549
13863W        W80272  40.912  18.174   0.195
13864W        W80273  18.803  33.797   1.313
13865W        W80274  24.753  27.025   4.619
13866W        W80275  29.750  33.518   1.724
13867W        W80276  42.199  22.192  10.549
13868W        W80277  19.096  19.432  11.169
13869W        W80278   5.918  23.743  13.705
13870W        W80279  39.827  30.698  11.744
13871W        W80280  36.021   0.306  12.205
13872W        W80281  33.799  36.099   3.261
13873W        W80282  26.409  35.025   2.807
13874W        W80283  31.210  19.096   3.263
13875W        W80284  42.748  22.709   4.147
13876W        W80285  21.814  27.247   2.548
13877W        W80286   3.390  39.030   1.925
13878W        W80287  36.370  35.399   4.489
13879W        W80288  42.242   7.699  11.139
13880W        W80289  29.063  31.941  12.575
13881W        W80290  27.761  35.414  11.056
13882W        W80291  40.248  34.571  10.664
13883W        W80292  34.013  17.531   0.524
13884W        W80293  21.704  12.668   0.255
13885W        W80294  12.713  36.095  13.595
13886W        W80295   5.385  27.170  10.979
13887W        W80296  42.889  31.042   4.099
13888W        W80297  32.614  30.071   1.332
13889W        W80298  11.094  18.112   4.063
13890W        W80299  15.935  41.096   3.659
13891W        W80300  25.887   5.299  12.170
13892W        W80301   2.201  36.936  11.224
13893W        W80302  18.270  15.719   2.788
13894W        W80303  43.105  12.554   1.848
13895W        W80304  43.852   0.315   1.816
13896W        W80305  27.525  23.687  11.436
13897W        W80306  24.229   1.410   4.241
13898W        W80307  42.506   5.029  14.528
13899W        W80308   7.268   5.993  11.490
13900W        W80309  27.158   2.920   2.372
13901W        W80310  29.219  17.306   1.645
13902W        W80311  18.358   4.909   4.484
13903W        W80312  36.497  36.286  12.413
13904W        W80313  21.177   4.630  11.187
13905W        W80314   3.999  24.386   4.488
13906W        W80315  41.043   8.088  12.044
13907W        W80316  24.077   6.670  13.356
13908W        W80317  29.729  33.636   4.998
13909W        W80318  12.164  24.579  12.217
13910W        W80319  23.150  25.056  10.648
13911W        W80320  19.195  11.268   1.687
13912W        W80321  11.686   5.816   2.947
13913W        W80322   3.261   9.704  12.160
13914W        W80323  38.862  35.418   4.354
13915W        W80324  35.068   5.759  14.370
13916W        W80325  43.310   9.115   2.164
13917W        W80326  40.301  29.064  13.912
13918W        W80327  22.722  19.289   3.731
13919W        W80328  17.501  15.214   3.363
13920W        W80329  22.741   1.440   0.385
13921W        W80330  19.072   3.980  11.789
13922W        W80331  29.669   0.934  13.894
13923W        W80332  32.462  18.845  14.660
13924W        W80333   8.781  34.039  12.488
13925W        W80334   3.154  12.097  11.893
13926W        W80335  43.278  14.130   2.257
13927W        W80336  43.366  14.797  11.474
13928W        W80337   5.265  41.504  14.810
13929W        W80338  20.255  23.235  14.861
13930W        W80339  16.993  22.799   1.813
13931W        W80340  29.318  11.680  10.554
13932W        W80341   8.950  35.879  11.179
13933W        W80342   5.482  39.530  11.180
13934W        W80343  35.477  14.421  12.566
13935W        W80344   0.370  36.638  12.547
13936W        W80345   4.718  30.565  11.977
13937W        W80346  29.456  16.247  10.517
13938W        W80347  17.049  12.661  12.970
13939W        W80348  12.323   0.458  12.036
13940W        W80349  22.740  23.701  11.579
13941W        W80350  12.942   3.723  12.018
13942W        W80351  26.918   0.350  14.850
13943W        W80352  28.884  39.892  12.883
13944W        W80353   6.971  25.017   1.935
13945W        W80354   4.892   4.630   3.660
13946W        W80355  35.013  18.691  10.779
13947W        W80356  41.765  23.933  14.520
13948W        W80357  41.739  41.395   3.408
13949W        W80358   3.122  27.736   3.232
13950W        W80359  27.241  32.612   4.593
13951W        W80360   2.802  39.036   3.309
13952W        W80361  10.939  24.183  10.575
13953W        W80362  21.982  14.484   4.167
13954W        W80363   1.666   2.294   0.127
13955W        W80364  21.065  33.882  12.985
13956W        W80365  43.389  15.635  14.220
13957W        W80366  41.582  37.549   0.842
13958W        W80367   3.817  22.302  10.085
13959W        W80368  17.678  18.074  10.885
13960W        W80369  39.026  14.551   2.336
13961W        W80370  40.440  28.213  14.818
13962W        W80371  30.720   3.963   1.784
13963W        W80372  11.139   9.981   4.547
13964W        W80373  28.659  41.794   4.502
13965W        W80374  10.605   3.794   0.179
13966W        W80375  29.636   9.295   0.811
13967W        W80376  32.582  21.285  14.478
13968W        W80377  27.445  33.593   0.595
13969W        W80378  24.817  38.771  12.268
13970W        W80379  17.295  36.800  11.527
13971W        W80380  12.706  11.201  14.145
13972W        W80381  30.998  32.191  13.066
13973W        W80382  19.296  26.094   1.752
13974W        W80383   9.189  25.373   4.535
13975W        W80384  19.255  39.765   0.241
13976W        W80385   7.913  42.979   3.677
13977W        W80386  31.265  34.500  10.912
13978W        W80387  37.284  24.420  11.850
13979W        W80388  39.998   5.268   2.298
13980W        W80389  34.558  25.281   1.091
13981W        W80390  26.551  41.354   2.210
13982W        W80391   5.820  18.108   0.261
13983W        W80392  40.488   8.883   0.468
13984W        W80393  40.343  38.477  14.326
13985W        W80394  39.062  42.795  11.112
13986W        W80395  14.570  21.087  12.042
13987W        W80396  40.728  13.381  11.368
13988W        W80397  39.974  29.570   2.469
13989W        W80398  20.084  25.113   1.674
13990W        W80399  21.021   2.581   2.512
13991W        W80400   8.661  31.391  11.447
13992W        W80401  15.873  41.778   3.123
13993W        W80402  24.157  23.197   3.329
13994W        W80403   1.003  26.710   3.683
13995W        W80404   9.762  38.870   4.397
13996W        W80405  13.770  11.276  11.526
13997W        W80406  42.880   3.245   3.155
13998W        W80407  32.838  33.979   3.880
13999W        W80408  39.538   1.764  12.707
14000W        W80409  16.821   9.624  11.590
14001W        W80410  10.242   7.827  11.138
14002W        W80411  44.378  26.116  12.988
14003W        W80412  17.231  27.695  10.609
14004W        W80413   0.424  12.622  13.136
14005W        W80414  35.090   9.657   2.206
14006W        W80415   3.282   6.815   3.601
14007W        W80416   5.987   8.982   4.129
14008W        W80417  36.544  17.445   3.926
14009W        W80418  12.638  39.107  11.607
14010W        W80419  19.727  23.195  14.885
14011W        W80420  21.734  44.530  13.594
14012W        W80421  32.083  30.652   4.323
14013W        W80422  38.626   2.260  11.031
14014W        W80423  15.704  26.405  14.838
14015W        W80424  17.043  20.895  13.877
14016W        W80425  35.131  28.211  14.969
14017W        W80426  28.652  37.540   2.595
14018W        W80427  43.317  36.264   1.750
14019W        W80428  31.088   3.740  14.147
14020W        W80429  42.087  29.963   2.080
14021W        W80430   9.207  12.478   4.932
14022W        W80431  43.568  36.199  12.983
14023W        W80432  19.962  20.623   1.704
14024W        W80433  18.471  23.104  10.459
14025W        W80434   1.847   3.252  11.600
14026W        W80435   8.207   5.785  13.942
14027W        W80436   8.916  44.935  14.799
14028W        W80437   9.401  35.393  11.664
14029W        W80438  19.380  10.289   0.766
14030W        W80439  26.923   5.456   2.907
14031W        W80440  27.024  12.346   0.301
14032W        W80441  24.612  17.004   2.880
14033W        W80442  33.950  35.904  14.761
14034W        W80443  37.476   1.153   2.687
14035W        W80444   8.590  23.327   3.804
14036W        W80445  27.609  30.516   0.274
14037W        W80446   2.707   1.352  13.323
14038W        W80447   4.290  22.373   2.596
14039W        W80448  39.802  30.532   4.213
14040W        W80449   4.852  10.384   0.220
14041W        W80450  32.393  20.626   4.552
14042W        W80451   4.096   6.759   0.470
14043W        W80452  43.318  14.268  13.323
14044W        W80453  14.399  15.010   2.453
14045W        W80454  10.169  23.512  11.989
14046W        W80455  26.679  19.533  10.691
14047W        W80456  26.952   5.621  13.378
14048W        W80457  33.933   4.394   4.924
14049W        W80458   5.147   2.133  10.285
14050W        W80459  19.661   9.618   2.676
14051W        W80460   5.053   3.083   3.678
14052W        W80461  43.271  16.980  13.929
14053W        W80462  41.583  27.232  11.021
14054W        W80463  31.786   6.680   2.460
14055W        W80464  30.047  29.554   2.690
14056W        W80465  10.199   1.357   3.385
14057W        W80466  19.392   9.834  11.191
14058W        W80467  17.635  10.624  12.563
14059W        W80468  24.003  25.606  10.529
14060W        W80469   5.768  42.609   3.813
14061W        W80470  30.873   6.299  12.871
14062W        W80471  29.041  41.209  10.790
14063W        W80472  13.283   5.145   4.118
14064W        W80473  15.070  43.534   2.182
14065W        W80474  15.993  42.939   4.848
14066W        W80475   0.740  33.321   3.291
14067W        W80476   9.443  30.632   2.342
14068W        W80477   8.253  11.604  12.622
14069W        W80478  31.985   0.231  12.037
14070W        W80479   3.543   0.301   1.375
14071W        W80480   4.953  32.370  10.265
14072W        W80481  25.227  12.642   0.429
14073W        W80482   2.289  16.639  12.094
14074W        W80483  37.233  44.009   1.262
14075W        W80484  24.660  17.078   1.438
14076W        W80485  17.262   0.253   1.346
14077W        W80486  12.801  41.264   0.886
14078W        W80487   1.322  34.371   4.685
14079W        W80488  40.744  34.797   0.289
14080W        W80489  28.645  42.761   2.733
14081W        W80490  20.937  31.440  11.837
14082W        W80491  41.319  25.820  13.922
14083W        W80492  32.111  40.433   4.253
14084W        W80493  33.491  29.045  12.527
14085W        W80494   5.213   4.354  13.384
14086W        W80495  10.111  44.993  12.890
14087W        W80496  20.104  24.559   4.637
14088W        W80497  33.096  37.348  11.189
14089W        W80498  41.892  14.173  14.305
14090W        W80499  18.228  10.236   0.062
14091W        W80500  41.527  44.192   0.349
14092W        W80501  39.561  23.481   4.615
14093W        W80502  40.634  20.054   2.748
14094W        W80503  41.067   7.562   4.127
14095W        W80504  18.267   6.777   3.164
14096W        W80505  18.151   3.855  13.841
14097W        W80506  38.772  30.856   5.294
14098W        W80507  35.806   9.162   1.347
14099W        W80508   3.897  23.340   4.635
14100W        W80509   5.222  18.989  11.141
14101W        W80510  28.985   8.719   3.512
14102W        W80511   5.410  22.591   4.550
14103W        W80512  26.925  32.580  14.346
14104W        W80513  22.733  42.514  14.491
14105W        W80514   2.432  28.189   4.854
14106W        W80515  41.313  14.780   4.384
14107W        W80516  43.434  44.523   2.320
14108W        W80517  11.810   6.232  12.203
14109W        W80518  30.568   5.647   4.708
14110W        W80519  21.912  41.038   3.813
14111W        W80520  31.488  24.516   4.198
14112W        W80521  20.758   8.642   2.774
14113W        W80522  27.636   7.602   4.078
14114W        W80523  14.380  25.883  13.903
14115W        W80524  18.076  13.795  14.987
14116W        W80525  26.797  41.305   2.770
14117W        W80526  15.106  24.164  13.466
14118W        W80527  18.771   4.644  13.835
14119W        W80528  43.023  32.271  11.796
14120W        W80529  21.714  21.460  12.148
14121W        W80530   8.407  29.483  14.399
14122W        W80531  37.153   4.778   4.586
14123W        W80532  39.304  19.588   4.520
14124W        W80533   9.181  28.124   0.456
14125W        W80534  31.644  14.499   2.631
14126W        W80535  17.047   0.973  12.896
14127W        W80536  23.302  43.900   2.348
14128W        W80537  11.530  17.522   4.348
14129W        W80538  43.102   5.503   4.418
14130W        W80539  18.510   4.245  14.872
14131W        W80540   3.993  39.271  12.932
14132W        W80541  11.087  11.998  11.579
14133W        W80542  28.141  36.918  11.185
14134W        W80543   0.251  25.535   2.822
14135W        W80544  10.370  16.143   0.777
14136W        W80545  21.005  41.118  12.457
14137W        W80546  38.314  12.234  14.716
14138W        W80547  37.151  20.283  10.889
14139W        W80548   1.468  36.936  10.438
14140W        W80549  39.562  20.535   1.638
14141W        W80550  39.920   4.929   3.854
14142W        W80551   5.676   1.022   0.904
14143W        W80552   6.330  18.186   0.492
14144W        W80553  43.488   7.347  12.516
14145W        W80554   5.157  36.968  12.254
14146W        W80555  31.669   0.071   3.238
14147W        W80556  15.290  21.453  11.635
14148W        W80557  35.394   1.840   2.368
14149W        W80558   5.396  33.511  12.609
14150W        W80559  15.520  30.098  11.024
14151W        W80560  19.081  12.726  12.231
14152W        W80561  13.807  21.687   0.743
14153W        W80562  25.989  11.548  13.912
14154W        W80563   8.078  44.954   4.707
14155W        W80564  33.005   5.643   9.900
14156W        W80565  31.047  30.144  14.785
14157W        W80566   4.192  17.637   2.299
14158W        W80567   3.156  21.671   1.343
14159W        W80568  10.197   8.400  10.470
14160W        W80569  15.138  28.674  14.714
14161W        W80570  15.363   3.270   0.736
14162W        W80571  22.813  38.820  13.525
14163W        W80572  33.369  33.058  10.283
14164W        W80573   1.254  32.928  14.714
14165W        W80574  32.371   3.447   3.496
14166W        W80575  14.241   5.537   4.245
14167W        W80576  32.015   2.178  14.713
14168W        W80577  41.513  35.314  12.560
14169W        W80578   1.221  15.674  14.427
14170W        W80579  32.661  10.667   4.633
14171W        W80580  16.547  22.042   2.823
14172W        W80581  42.618  11.091  11.907
14173W        W80582  42.274  43.109   2.671
14174W        W80583   6.161  32.889  12.020
14175W        W80584   0.972  39.933  12.454
14176W        W80585  28.029  44.294   0.481
14177W        W80586  19.345  14.064  11.982
14178W        W80587  21.187  41.331  12.918
14179W        W80588  28.451  15.704   2.730
14180W        W80589   7.777  24.924   3.791
14181W        W80590  15.613  34.009   4.485
14182W        W80591  16.585  36.850  10.994
14183W        W80592  20.544  34.624  13.772
14184W        W80593  38.058   5.718   1.487
14185W        W80594   9.926   2.041  14.357
14186W        W80595  22.137  11.156   3.670
14187W        W80596   4.416  35.232  14.547
14188W        W80597  34.452  31.879  13.839
14189W        W80598   9.183  25.003   2.337
14190W        W80599  37.482  16.109   0.467
14191W        W80600  16.739  20.291   5.256
14192W        W80601  21.310  14.598  12.547
14193W        W80602  39.008  25.713   3.574
14194W        W80603   9.120   7.783   0.020
14195W        W80604   8.356  42.927   0.544
14196W        W80605  40.530  11.852   1.898
14197W        W80606  36.333  37.764   2.742
14198W        W80607  24.781   8.290   1.864
14199W        W80608  42.917  15.564   1.772
14200W        W80609  39.526  21.459   2.848
14201W        W80610  22.541  38.191   0.370
14202W        W80611  30.469   0.877   1.691
14203W        W80612  31.131  13.159  12.605
14204W        W80613  27.670  27.171   2.227
14205W        W80614   8.582  23.042  13.386
14206W        W80615  41.595  11.052  13.844
14207W        W80616  24.655  14.622  14.600
14208W        W80617  38.463  34.645   1.833
14209W        W80618  19.213  31.979  12.950
14210W        W80619  10.169  17.856  13.575
14211W        W80620   6.033  14.112   1.085
14212W        W80621   9.930  31.605   3.710
14213W        W80622  43.991   4.943   2.771
14214W        W80623  30.256  24.052  12.416
14215W        W80624  35.361  18.524   0.840
14216W        W80625   0.024   7.376   1.345
14217W        W80626  41.387  41.608   4.597
14218W        W80627  31.968  32.314   0.426
14219W        W80628  39.854  29.316   1.454
14220W        W80629   0.291   4.210  13.437
14221W        W80630  32.537   9.395   2.845
14222W        W80631   7.331   3.446   4.993
14223W        W80632  42.949  33.802  11.093
14224W        W80633   1.721  10.226  12.394
14225W        W80634  42.429  44.839   4.674
14226W        W80635   4.707  43.603  13.366
14227W        W80636  29.907  32.163   2.805
14228W        W80637  38.997  12.868   4.876
14229W        W80638  13.424   6.935   4.488
14230W        W80639  16.539  16.707  13.831
14231W        W80640  14.580  31.697   2.719
14232W        W80641  41.913  12.649  13.063
14233W        W80642   0.152   4.724  14.956
14234W        W80643   0.215  30.001   3.928
14235W        W80644   6.648  42.173   0.267
14236W        W80645  41.468  43.889   3.565
14237W        W80646   1.718  34.498  10.884
14238W        W80647  37.620  22.565  11.984
14239W        W80648  12.561  29.123  13.418
14240W        W80649   4.693  13.720   1.233
14241W        W80650  33.451  18.414   4.598
14242W        W80651  39.531  41.421   4.574
14243W        W80652  37.537  20.716  11.982
14244W        W80653  36.477   8.226   1.452
14245W        W80654  21.797  21.558   1.167
14246W        W80655  26.646  27.696  13.431
14247W        W80656  16.100  23.309  14.375
14248W        W80657  25.565   3.456   0.473
14249W        W80658  13.601   2.926   1.778
14250W        W80659  24.080  31.194   3.782
14251W        W80660  21.226  34.458  10.724
14252W        W80661  43.088  21.479   2.275
14253W        W80662  41.623  30.395  10.818
14254W        W80663  34.180  20.956   1.776
14255W        W80664  24.468  38.577  11.320
14256W        W80665   6.202  25.685   1.226
14257W        W80666  37.312  30.523  14.933
14258W        W80667  28.593  27.016  11.090
14259W        W80668   9.414   8.286   1.394
14260W        W80669  11.163  18.603   2.682
14261W        W80670  16.039  17.671   4.268
14262W        W80671   2.734  39.918  12.117
14263W        W80672   9.851   7.055   4.179
14264W        W80673  44.797  39.185  14.732
14265W        W80674   5.975   6.416   2.209
14266W        W80675  43.855   0.295   4.650
14267W        W80676   5.435  13.350  11.972
14268W        W80677   4.345  30.564  13.989
14269W        W80678  11.418  28.000  11.612
14270W        W80679  27.408  11.894  12.896
14271W        W80680  10.670   2.559  11.633
14272W        W80681  14.215  27.746   2.228
14273W        W80682  12.474  43.436  13.411
14274W        W80683  35.114  35.115  10.735
14275W        W80684   7.936  11.679   0.834
14276W        W80685  12.057  19.654   1.831
14277W        W80686  27.719  16.023  10.675
14278W        W80687  24.399  25.290  11.221
14279W        W80688   2.778  30.626   3.282
14280W        W80689  42.700  24.406   1.193
14281W        W80690  40.588  34.385  13.945
14282W        W80691  14.623   3.033   2.632
14283W        W80692  28.775  23.894  11.149
14284W        W80693   9.909  13.670  13.047
14285W        W80694   6.159  41.342  12.521
14286W        W80695  30.276   9.100   9.913
14287W        W80696  19.862  40.623   4.153
14288W        W80697  24.422  16.640  12.498
14289W        W80698  31.581  29.566  14.271
14290W        W80699  38.334  19.574  14.698
14291W        W80700  14.226  24.149   0.791
14292W        W80701  27.793  41.408   9.727
14293W        W80702  16.483   1.659  10.714
14294W        W80703  30.340  14.392   2.699
14295W        W80704   6.786  37.894   2.615
14296W        W80705   0.096  23.473  13.443
14297W        W80706  23.189   9.802   4.109
14298W        W80707  43.563  44.740   3.955
14299W        W80708  13.315  19.038   2.328
14300W        W80709  36.572  32.012   2.123
14301W        W80710  15.613  41.104  13.111
14302W        W80711   6.410  12.991  12.007
14303W        W80712  28.876  17.550  13.858
14304W        W80713  17.959  28.782   3.213
14305W        W80714  23.040  10.947   1.824
14306W        W80715  15.302  27.078   2.440
14307W        W80716   3.210  40.858  13.455
14308W        W80717  29.879  33.891   3.340
14309W        W80718  25.730  23.014   2.259
14310W        W80719  39.564  27.186  12.405
14311W        W80720  18.112  38.816  10.412
14312W        W80721   8.138  19.594   4.279
14313W        W80722  23.788   9.303   4.338
14314W        W80723  41.873  42.817   2.237
14315W        W80724  13.131  11.244  10.764
14316W        W80725  31.359   4.359   2.755
14317W        W80726  25.481   0.937   2.579
14318W        W80727  28.511  36.089  11.902
14319W        W80728  18.955  17.226  13.525
14320W        W80729  18.193  26.302   4.400
14321W        W80730   0.356  33.981  14.903
14322W        W80731  10.087   7.734  14.996
14323W        W80732  15.333  23.715  14.398
14324W        W80733  27.839  20.809  11.908
14325W        W80734  34.227  28.510  14.526
14326W        W80735  40.434  38.490  10.756
14327W        W80736   1.164  11.794   3.849
14328W        W80737  37.090   5.929   1.224
14329W        W80738  11.706  18.605  10.621
14330W        W80739  26.192  40.074   1.270
14331W        W80740  11.381  29.643  13.076
14332W        W80741  10.425   4.223  11.260
14333W        W80742   6.211  12.855   0.443
14334W        W80743  23.696   2.015  11.059
14335W        W80744  38.271  22.116  12.376
14336W        W80745  13.151  26.522  14.331
14337W        W80746  22.832   8.184  13.932
14338W        W80747  29.079  25.644  13.401
14339W        W80748  42.463  43.495   0.801
14340W        W80749  10.730  28.623   0.895
14341W        W80750  40.850  11.181  14.816
14342W        W80751  18.809  13.808  12.884
14343W        W80752  41.712   3.392  11.553
14344W        W80753  22.391  39.042  13.352
14345W        W80754   0.844  29.932   0.912
14346W        W80755   9.169   0.955  10.942
14347W        W80756  44.361  36.004   9.786
14348W        W80757  40.440  25.135   1.448
14349W        W80758  39.548   2.247  13.419
14350W        W80759  39.818   7.927  11.620
14351W        W80760  33.953  19.059   2.649
14352W        W80761  34.010   8.369   3.755
14353W        W80762   2.149  23.989  13.065
14354W        W80763  22.317  18.569   1.103
14355W        W80764  26.644  24.430  13.867
14356W        W80765   4.292  36.199  14.316
14357W        W80766   4.680  17.707  13.331
14358W        W80767   7.426  44.426  13.935
14359W        W80768   7.145   6.604  13.034
14360W        W80769   5.027  32.242   2.892
14361W        W80770  31.242  11.896  13.807
14362W        W80771  44.290  14.862   4.359
14363W        W80772   1.295  38.055   4.578
14364W        W80773  26.126  44.907  13.965
14365W        W80774  18.266  21.366   4.169
14366W        W80775  13.149  35.763  13.807
14367W        W80776   8.667  18.749  14.869
14368W        W80777   0.772  42.810  12.575
14369W        W80778  33.041  15.229  14.201
14370W        W80779  44.021  16.204   1.145
14371W        W80780  26.499  11.360   3.393
14372W        W80781  14.958  27.787  10.329
14373W        W80782  39.312  36.110  14.392
14374W        W80783   0.400  36.036  10.774
14375W        W80784  27.904  42.166   3.145
14376W        W80785  28.965  15.422  12.085
14377W        W80786  20.386   0.329  11.138
14378W        W80787   9.827  25.938   0.691
14379W        W80788  42.783  42.751  11.418
14380W        W80789   8.432   6.337   4.803
14381W        W80790   2.450  27.485   0.111
14382W        W80791  14.898  12.729  13.912
14383W        W80792  39.078  13.715   0.786
14384W        W80793  10.143  12.208  14.836
14385W        W80794   5.189  19.749   4.598
14386W        W80795   9.778  44.353  10.686
14387W        W80796  38.604   8.752  12.023
14388W        W80797   7.763   3.282   1.436
14389W        W80798  40.520  44.934  13.540
14390W        W80799  29.984   1.174   0.399
14391W        W80800  38.105  27.518  14.744
14392W        W80801   3.905  11.679  13.509
14393W        W80802  30.108   7.506   1.554
14394W        W80803  10.876  38.820   1.788
14395W        W80804  29.613  17.501  13.563
14396W        W80805  21.151   0.930  14.365
14397W        W80806  39.875  32.894  13.307
14398W        W80807  44.434  19.022   3.828
14399W        W80808  23.161   1.613   2.160
14400W        W80809   4.283   1.018   4.906
14401W        W80810  29.941  21.799  12.960
14402W        W80811   5.432  22.168   1.381
14403W        W80812   6.400  33.892   2.426
14404W        W80813   0.525  36.334  13.718
14405W        W80814   1.804  18.935  11.830
14406W        W80815   1.370  31.645  12.478
14407W        W80816  38.484  24.781   4.304
14408W        W80817  22.758  37.436  10.747
14409W        W80818  13.570  20.628  14.066
14410W        W80819  22.751  28.235   0.398
14411W        W80820  15.145  18.699  10.268
14412W        W80821  44.440   1.404   1.316
14413W        W80822  10.266  12.005  13.589
14414W        W80823  11.623  12.896   2.761
14415W        W80824  20.119  15.824   5.337
14416W        W80825  20.639  15.628   4.373
14417W        W80826  43.907  30.523   1.750
14418W        W80827  44.032  18.741   0.385
14419W        W80828  12.327   3.378  11.432
14420W        W80829  27.237  20.710  11.896
14421W        W80830  25.535  30.914  11.384
14422W        W80831  38.814   8.608  13.306
14423W        W80832  14.656  30.674   4.742
14424W        W80833  13.117   7.263   3.252
14425W        W80834  32.513  34.771   4.657
14426W        W80835   6.943   9.904   4.240
14427W        W80836  22.069  38.470  14.430
14428W        W80837  11.400  30.427   1.324
14429W        W80838  43.913  21.810   1.858
14430W        W80839  23.398   9.969   2.789
14431W        W80840  37.799  34.140  11.319
14432W        W80841   7.046  20.481  11.864
14433W        W80842  31.005  41.816  12.419
14434W        W80843  12.050  11.276   2.703
14435W        W80844  10.661  18.359  13.832
14436W        W80845  26.965   7.451  11.526
14437W        W80846   9.096  41.314  10.583
14438W        W80847  11.660  11.730  10.288
14439W        W80848  34.657  30.041   2.804
14440W        W80849  39.991  25.638  10.677
14441W        W80850  10.406  34.709   3.965
14442W        W80851  22.476  13.399   2.259
14443W        W80852  10.806   0.282   2.313
14444W        W80853  17.989   4.491  13.219
14445W        W80854   8.416   1.813  12.649
14446W        W80855   2.321  34.826   4.505
14447W        W80856  14.508  20.098  13.367
14448W        W80857   5.779  41.682   1.219
14449W        W80858  24.031  11.475   2.144
14450W        W80859  37.032   0.755   0.943
14451W        W80860  14.909  41.347  10.489
14452W        W80861   3.267  44.997  11.446
14453W        W80862  42.981  34.469   1.882
14454W        W80863  35.151  24.019   3.377
14455W        W80864  41.713   3.708  11.985
14456W        W80865  22.054  10.821  11.758
14457W        W80866  18.671   2.023   1.850
14458W        W80867  23.821  28.996   3.764
14459W        W80868  44.933  29.100  10.563
14460W        W80869  20.121  25.442  10.592
14461W        W80870   5.686  36.380  13.751
14462W        W80871  18.042  37.755   4.102
14463W        W80872  30.960  10.091  10.253
14464W        W80873  30.667  20.299  10.660
14465W        W80874   4.470  31.063   0.450
14466W        W80875  29.332  15.055  13.398
14467W        W80876   5.178  34.512   2.905
14468W        W80877  29.395  15.709  12.186
14469W        W80878  42.979  25.175   4.494
14470W        W80879  29.874  22.147   4.710
14471W        W80880  31.984   5.945   1.749
14472W        W80881  32.378  36.965  14.408
14473W        W80882  43.888   8.283   2.310
14474W        W80883  42.849  18.748   2.681
14475W        W80884   5.388  31.175  14.388
14476W        W80885  43.001  38.712   2.888
14477W        W80886   4.741  40.775  14.952
14478W        W80887  10.814  30.098   0.392
14479W        W80888   5.628  29.696  14.327
14480W        W80889  35.412  14.897   1.393
14481W        W80890  31.387  12.441  11.200
14482W        W80891  11.343  20.088   0.201
14483W        W80892  20.315  27.924   0.383
14484W        W80893  20.600  40.603   3.752
14485W        W80894   7.412   5.739   4.625
14486W        W80895   9.589  12.729   4.342
14487W        W80896  26.008  14.289   2.346
14488W        W80897  38.385  21.633  10.877
14489W        W80898  11.287  29.537  10.925
14490W        W80899   2.766  21.737   2.110
14491W        W80900  30.985  37.831   1.946
14492W        W80901  30.867  11.264  11.507
14493W        W80902   9.156  44.748   0.761
14494W        W80903  31.654  37.911   4.752
14495W        W80904  38.448   5.791   2.802
14496W        W80905  34.960  17.706  11.441
14497W        W80906  40.503  27.495  10.628
14498W        W80907  39.155  13.084   3.087
14499W        W80908  41.196  36.508   4.717
14500W        W80909  11.081  21.589   1.116
14501W        W80910  29.460  38.283  14.874
14502W        W80911  35.843  20.086  12.898
14503W        W80912  26.220  12.338  10.364
14504W        W80913  40.786  12.546  10.465
14505W        W80914  34.023  30.157   1.738
14506W        W80915  22.678   9.353   3.070
14507W        W80916   4.279  11.955   4.950
14508W        W80917  35.869   7.529  12.654
14509W        W80918  39.071   8.404   3.816
14510W        W80919  22.494  15.800  13.859
14511W        W80920  13.957   7.365  12.964
14512W        W80921  28.659  41.323  13.994
14513W        W80922  11.677  25.518   1.499
14514W        W80923  15.413  30.086  12.078
14515W        W80924   8.782   5.376  14.111
14516W        W80925   2.275   7.907  11.907
14517W        W80926  26.851  37.515   4.762
14518W        W80927  22.698  37.092  11.934
14519W        W80928  27.936  39.518  11.140
14520W        W80929  35.075  20.646   0.248
14521W        W80930   5.032  24.670  14.498
14522W        W80931   6.776  38.220  13.145
14523W        W80932  31.473   7.838  12.509
14524W        W80933  35.931   9.939   1.773
14525W        W80934  43.926   0.769  10.878
14526W        W80935  35.035  17.854  12.434
14527W        W80936  25.611  44.712  14.787
14528W        W80937   4.254  40.773   1.451
14529W        W80938  30.221  21.187   2.303
14530W        W80939  22.875  12.696   4.910
14531W        W80940  16.727   8.902  12.022
14532W        W80941  19.938  15.380  13.494
14533W        W80942   9.225  19.348  14.421
14534W        W80943  29.442  38.034   4.032
14535W        W80944  13.524   7.272   2.236
14536W        W80945   9.692  10.418   0.649
14537W        W80946   5.745  20.112  11.513
14538W        W80947  11.605  27.561   3.971
14539W        W80948  34.514  12.151  13.587
14540W        W80949  37.592  41.949   4.198
14541W        W80950  18.668   7.513  11.533
14542W        W80951   2.678   1.307   3.709
14543W        W80952  31.167  39.758  14.516
14544W        W80953  29.044  12.543   4.850
14545W        W80954  32.338  34.769  14.563
14546W        W80955   2.489  13.704   1.634
14547W        W80956  11.367  40.373   4.556
14548W        W80957  36.797   1.166   1.794
14549W        W80958   9.899   2.066   3.691
14550W        W80959  14.810  34.148  11.212
14551W        W80960  43.695  26.244  13.404
14552W        W80961   6.247  41.859   2.944
14553W        W80962   0.728  22.572   3.642
14554W        W80963  28.372  37.879  14.278
14555W        W80964   0.412  41.494  11.963
14556W        W80965  32.886  32.977  14.788
14557W        W80966  29.426  20.407  14.060
14558W        W80967  27.158   0.892   4.202
14559W        W80968  32.964   2.770   2.666
14560W        W80969  29.697  39.306   2.231
14561W        W80970  36.600   1.439   2.706
14562W        W80971  16.249   1.333   2.247
14563W        W80972  35.599  36.466   4.075
14564W        W80973   1.280  11.871  13.724
14565W        W80974  41.938  10.241   0.464
14566W        W80975  41.338  12.010   2.368
14567W        W80976   4.294  18.084   3.844
14568W        W80977  16.978  13.193   1.640
14569W        W80978  14.842  36.030  11.121
14570W        W80979  12.946   5.045   0.284
14571W        W80980  17.280  11.709  13.556
14572W        W80981  38.055  12.781   5.005
14573W        W80982  38.130  15.579   9.974
14574W        W80983  28.559  41.121   0.290
14575W        W80984  41.798  16.795  12.469
14576W        W80985  40.758  27.849   1.905
14577W        W80986  21.555  32.795   3.759
14578W        W80987  23.105  37.901   2.907
14579W        W80988  43.980  16.992   3.670
14580W        W80989  36.082  32.394  11.556
14581W        W80990  42.047  17.664  12.721
14582W        W80991  19.103  28.913   2.444
14583W        W80992  35.162  38.638  12.111
14584W        W80993  16.868  11.715   3.255
14585W        W80994  44.276  23.250  10.381
14586W        W80995  10.154  34.602  13.760
14587W        W80996  25.081  38.796   2.830
14588W        W80997  10.343  11.687   4.013
14589W        W80998  44.718   6.841  12.471
14590W        W80999  43.376  41.385  14.835
14591W        W81000  34.632  31.573   2.231
14592W        W81001   0.680  33.759  12.588
14593W        W81002  30.514  37.958  11.632
14594W        W81003  40.554   7.241  13.394
14595W        W81004  18.233  28.360   3.344
14596W        W81005  35.845  25.223  13.536
14597W        W81006  31.410  16.332  12.431
14598W        W81007  32.401   3.244  13.865
14599W        W81008  41.371  20.686   2.676
14600W        W81009  11.158  19.031   3.834
14601W        W81010  10.586   6.562  13.784
14602W        W81011  35.557  25.129  11.706
14603W        W81012  27.305  13.762   4.596
14604W        W81013  23.222  23.143  14.348
14605W        W81014  21.017  41.351   4.573
14606W        W81015  21.287  17.661  14.888
14607W        W81016   9.703  13.145  12.453
14608W        W81017  32.343  41.577  14.824
14609W        W81018  27.375  28.671   0.832
14610W        W81019  15.568  38.284   2.085
14611W        W81020  27.664  15.205   4.743
14612W        W81021   1.794   0.714   0.944
14613W        W81022  11.064  37.056  11.174
14614W        W81023   9.593  14.115  12.429
14615W        W81024  15.109  18.509   2.173
14616W        W81025  31.677  34.409  14.023
14617W        W81026  31.564  11.479  12.627
14618W        W81027   2.939   5.433  12.547
14619W        W81028  38.648  37.975   3.810
14620W        W81029  37.653  20.474  11.406
14621W        W81030  18.790  44.608  10.173
14622W        W81031  10.338  14.695   0.866
14623W        W81032   4.166  34.833   3.821
14624W        W81033  38.001  24.283   0.736
14625W        W81034  43.327  14.172   3.643
14626W        W81035  35.132  30.078   4.645
14627W        W81036  41.874  26.131  11.024
14628W        W81037  38.086  25.075  13.344
14629W        W81038  27.125  33.033  14.553
14630W        W81039  13.710   8.324  13.048
14631W        W81040  30.867  33.456   3.050
14632W        W81041  34.851   4.946   3.593
14633W        W81042   7.902  34.767  13.022
14634W        W81043   2.785  15.546   0.814
14635W        W81044  38.218  14.741  10.231
14636W        W81045   4.808  43.512   4.143
14637W        W81046   0.886  10.865   4.173
14638W        W81047  34.337  34.503   0.025
14639W        W81048  39.517  38.149   2.753
14640W        W81049  41.748   9.354  12.984
14641W        W81050  43.361  10.183  13.465
14642W        W81051  38.446   4.345  14.045
14643W        W81052  17.153  39.548   0.425
14644W        W81053  20.800  12.935  12.638
14645W        W81054   4.572   9.883  13.891
14646W        W81055   8.939   4.026   4.755
14647W        W81056  20.940  22.668   2.368
14648W        W81057  28.651   2.650   1.907
14649W        W81058  11.076  43.858  11.892
14650W        W81059  33.065  19.109   3.907
14651W        W81060   1.177  30.974  10.579
14652W        W81061  38.930  17.377  14.320
14653W        W81062  10.874  31.512   0.704
14654W        W81063  35.113  40.255   1.190
14655W        W81064  17.329  18.557   4.508
14656W        W81065  41.869   3.956  13.433
14657W        W81066  18.129  11.623  12.289
14658W        W81067  23.927  16.171   0.834
14659W        W81068  31.633  30.173  10.674
14660W        W81069  18.700   2.386   3.938
14661W        W81070  13.561  33.316   3.721
14662W        W81071  26.785  28.663   2.176
14663W        W81072  37.230   3.350  12.274
14664W        W81073  15.528   5.834   4.496
14665W        W81074  42.635   5.689   4.670
14666W        W81075  44.181  39.818  12.988
14667W        W81076  31.425   7.807  10.997
14668W        W81077  35.114   5.673  12.039
14669W        W81078  20.131  15.159   3.251
14670W        W81079  44.977   2.670  14.971
14671W        W81080  29.944  15.818   0.568
14672W        W81081  43.297  24.173  12.380
14673W        W81082  43.620  32.406   2.915
14674W        W81083  16.868  14.704  13.287
14675W        W81084  35.407  22.101   0.971
14676W        W81085  16.496  33.405  11.811
14677W        W81086   1.518   4.332   2.380
14678W        W81087  29.655  33.824   0.405
14679W        W81088  41.656  22.456  12.579
14680W        W81089  39.495  15.699   0.424
14681W        W81090  26.028   9.119   1.571
14682W        W81091   4.708  28.474  12.383
14683W        W81092  25.128  17.593   3.683
14684W        W81093  27.448  42.368   3.249
14685W        W81094  35.084  39.721  12.904
14686W        W81095   9.246  44.378   1.177
14687W        W81096  11.717   0.426  11.106
14688W        W81097  42.701   0.425   1.949
14689W        W81098  40.973  27.174   1.359
14690W        W81099   7.721   3.264  11.517
14691W        W81100  21.437   7.545   4.982
14692W        W81101  19.979  17.099  13.423
14693W        W81102  19.992  27.060   2.709
14694W        W81103  40.390   0.436  10.626
14695W        W81104  15.048  21.311  14.832
14696W        W81105  24.925  10.714   3.628
14697W        W81106  41.165   3.876  11.254
14698W        W81107  40.204  29.654   1.270
14699W        W81108  27.361  44.473  12.308
14700W        W81109  17.113  41.423  12.090
14701W        W81110   3.492  21.920   0.964
14702W        W81111   7.714   2.443   4.448
14703W        W81112   4.420  42.484   3.805
14704W        W81113  40.862  30.159  11.908
14705W        W81114  38.198   3.926  12.436
14706W        W81115  42.544  14.801   3.894
14707W        W81116   5.419  13.827   3.863
14708W        W81117   7.302   0.147  12.576
14709W        W81118  24.533  37.666  10.284
14710W        W81119  44.683  22.638   2.536
14711W        W81120   4.427  23.031  12.531
14712W        W81121   8.665   6.122   1.959
14713W        W81122   6.430  14.785   1.295
14714W        W81123  27.479  41.821   3.009
14715W        W81124  13.309   2.625   3.291
14716W        W81125  15.756  29.781  14.901
14717W        W81126  40.485  37.884   2.780
14718W        W81127  28.771   3.480   3.099
14719W        W81128   1.792   8.095  12.022
14720W        W81129  28.037   5.952  11.873
14721W        W81130   1.269  15.213  10.739
14722W        W81131  25.708  40.985  11.218
14723W        W81132  43.045   5.265  12.641
14724W        W81133  39.439  25.618  13.416
14725W        W81134   0.090  39.811   3.335
14726W        W81135  40.908  32.814   4.500
14727W        W81136   5.003  23.280  13.743
14728W        W81137  28.424  44.897  13.143
14729W        W81138  15.790  40.958  11.894
14730W        W81139   0.464   2.401  12.536
14731W        W81140   6.793  44.361  11.367
14732W        W81141  39.622  36.074   0.332
14733W        W81142  38.390  18.758  14.488
14734W        W81143  17.836  33.411  11.202
14735W        W81144  34.778  35.725  10.729
14736W        W81145  39.791   2.819   1.007
14737W        W81146   5.653  34.958   3.608
14738W        W81147  34.413  43.437   3.240
14739W        W81148  20.190   6.125   1.953
14740W        W81149   1.352   1.549  14.223
14741W        W81150  26.035  31.260   2.782
14742W        W81151  20.149  18.905  14.031
14743W        W81152  30.588   6.818   0.658
14744W        W81153  15.553  30.480  10.673
14745W        W81154   2.497  33.125  13.415
14746W        W81155  28.431   0.167   1.864
14747W        W81156   4.973   9.327   1.736
14748W        W81157  35.567  28.165  12.108
14749W        W81158  19.453  15.898   0.069
14750W        W81159  24.695  34.782   2.417
14751W        W81160  27.122  26.718  11.173
14752W        W81161   3.392  19.520   4.819
14753W        W81162  17.648  12.723  11.529
14754W        W81163  24.475  15.572   2.375
14755W        W81164  35.852  26.668   2.099
14756W        W81165  23.534  28.403  11.512
14757W        W81166   6.202  41.345   3.049
14758W        W81167   2.361  33.069   3.985
14759W        W81168  10.767  38.529   3.048
14760W        W81169  12.500   8.261  11.025
14761W        W81170  24.960  11.911   0.862
14762W        W81171  21.047  20.085  11.485
14763W        W81172  22.511  12.359   2.265
14764W        W81173  15.186   6.814  11.238
14765W        W81174  29.861  14.244   4.885
14766W        W81175   9.489   5.709  11.143
14767W        W81176   6.910  29.346   3.640
14768W        W81177  38.868   8.050   4.176
14769W        W81178   4.533   2.031   2.245
14770W        W81179   4.278  44.767  11.672
14771W        W81180  25.493  23.583   3.167
14772W        W81181  34.813   8.691   3.224
14773W        W81182  33.260  22.619  11.676
14774W        W81183   2.818  32.951  13.040
14775W        W81184   4.491   3.883   1.711
14776W        W81185  38.968  13.446  10.713
14777W        W81186  22.554  27.550  10.624
14778W        W81187   2.027  16.556  13.014
14779W        W81188  32.235  38.119   3.977
14780W        W81189   7.825  36.290  10.702
14781W        W81190   7.328  29.559   0.929
14782W        W81191  38.352   1.963   3.197
14783W        W81192  36.962  34.339  14.791
14784W        W81193  19.069   9.658   4.878
14785W        W81194  44.422  25.762   3.266
14786W        W81195   1.968   3.032  12.055
14787W        W81196  29.030  40.951  12.671
14788W        W81197  43.018  43.122  12.901
14789W        W81198  30.869   9.275  14.859
14790W        W81199  22.791  21.142  11.387
14791W        W81200  18.262   6.714  14.817
14792W        W81201  42.720  13.204   0.304
14793W        W81202  42.499  41.245  10.627
14794W        W81203  42.901  14.224  10.942
14795W        W81204  38.250  39.703   0.336
14796W        W81205  29.654  10.737  10.856
14797W        W81206   5.387  16.543  11.674
14798W        W81207  44.280  11.085  14.166
14799W        W81208  29.108  14.796   2.093
14800W        W81209  34.874  31.362   3.226
14801W        W81210  15.233  32.630  13.004
14802W        W81211  18.631  22.574   2.889
14803W        W81212  26.239  39.060   0.691
14804W        W81213  29.011  25.357   4.839
14805W        W81214   3.119  22.168  12.835
14806W        W81215   5.850  43.825   3.172
14807W        W81216  23.119  29.501   4.515
14808W        W81217  22.054   3.376  11.956
14809W        W81218   8.104  42.142  12.882
14810W        W81219  44.890   5.621   3.845
14811W        W81220   1.859  23.922  11.134
14812W        W81221  27.441   3.682   1.231
14813W        W81222  11.213  22.226   1.032
14814W        W81223   9.180  16.505  12.565
14815W        W81224  30.461   8.430  12.425
14816W        W81225  19.835   2.905  11.157
14817W        W81226  40.589  31.207  13.522
14818W        W81227  40.598  12.208   2.650
14819W        W81228  19.143  41.107   0.291
14820W        W81229  41.626  23.987  14.017
14821W        W81230  36.878  30.928  14.961
14822W        W81231  18.838  19.594  13.511
14823W        W81232  18.003   5.819   4.093
14824W        W81233  24.178   8.220   1.183
14825W        W81234  32.465  34.140   2.877
14826W        W81235   5.742  19.749   3.891
14827W        W81236  33.436  37.370  12.473
14828W        W81237  44.955  37.302  10.172
14829W        W81238  44.939  25.077  14.047
14830W        W81239  25.494   6.771   3.610
14831W        W81240  28.139  12.239   2.245
14832W        W81241  14.681  28.919   2.408
14833W        W81242   3.205  18.828   0.831
14834W        W81243  34.441   8.608  12.573
14835W        W81244  11.616  32.579  13.600
14836W        W81245   0.007   1.927   2.219
14837W        W81246  23.082  35.027   2.625
14838W        W81247  36.778  32.049  11.399
14839W        W81248  17.110  22.787   2.344
14840W        W81249  28.256  30.055  12.102
14841W        W81250  14.593  13.153  13.977
14842W        W81251  35.093  15.598   4.976
14843W        W81252   1.814  41.952   3.314
14844W        W81253  29.355  23.740  10.976
14845W        W81254  38.125  28.582  10.846
14846W        W81255  35.312  10.153   3.188
14847W        W81256   4.646  17.248  11.985
14848W        W81257   5.764  15.110  14.730
14849W        W81258  37.317  18.523  13.050
14850W        W81259  37.604  17.185  14.347
14851W        W81260  26.622  20.492   4.137
14852W        W81261  16.777  44.856   4.226
14853W        W81262  34.331   8.751  13.792
14854W        W81263  37.364   5.851   4.545
14855W        W81264  23.466  32.340   1.447
14856W        W81265   6.414  44.446  14.468
14857W        W81266  17.051   0.234  11.409
14858W        W81267  14.655  15.960   2.763
14859W        W81268  30.644  29.165   2.134
14860W        W81269  42.470   0.866  12.075
14861W        W81270  12.135  41.847   1.357
14862W        W81271  26.866  15.741  10.724
14863W        W81272   4.321  27.471   3.206
14864W        W81273  38.031  29.000   1.218
14865W        W81274  17.525  21.060  11.651
14866W        W81275  40.950  28.095  10.713
14867W        W81276  38.307  34.445  10.609
14868W        W81277  20.725  25.077  13.766
14869W        W81278   7.898  26.671   4.465
14870W        W81279  11.013  19.256  11.095
14871W        W81280  23.707  23.708  10.627
14872W        W81281   5.200   9.255  12.353
14873W        W81282  43.390  40.761   4.926
14874W        W81283  21.246  12.800  12.011
14875W        W81284   5.391  43.367  14.277
14876W        W81285  34.907   0.916   1.941
14877W        W81286  11.276  23.535  12.465
14878W        W81287  17.882  12.529  11.095
14879W        W81288  30.314  19.301  14.792
14880W        W81289   5.177  23.648  11.576
14881W        W81290  31.885  31.243  11.080
14882W        W81291  13.880  40.104   2.128
14883W        W81292  30.078  17.779  12.411
14884W        W81293  25.212   3.697  10.702
14885W        W81294  28.007  11.320  12.947
14886W        W81295  21.312   2.051  10.846
14887W        W81296  35.631   3.939   5.469
14888W        W81297  16.087  39.565   3.114
14889W        W81298  23.736  29.354   2.623
14890W        W81299  40.043  20.527  14.791
14891W        W81300  28.891   2.195   0.167
14892W        W81301  29.848   0.410  14.741
14893W        W81302  18.065  29.590  14.192
14894W        W81303  18.064  11.585   4.551
14895W        W81304  44.191   3.716  11.920
14896W        W81305  12.149  19.733   3.188
14897W        W81306  32.988  11.580  12.444
14898W        W81307  40.252  35.152   2.696
14899W        W81308  24.549  20.211   3.740
14900W        W81309   4.334  14.564   1.752
14901W        W81310  29.756  41.351  11.178
14902W        W81311  27.803  39.181  14.125
14903W        W81312   9.724  29.426   4.340
14904W        W81313  43.842  26.101  10.812
14905W        W81314  32.965   9.403   4.732
14906W        W81315  37.831  17.820   0.197
14907W        W81316  10.642  42.800  11.526
14908W        W81317   1.561  36.810   5.019
14909W        W81318  10.322  38.147  12.858
14910W        W81319   8.873  43.413   0.843
14911W        W81320  29.781  11.862   3.941
14912W        W81321  27.830  26.430   1.053
14913W        W81322  27.388  17.682   3.254
14914W        W81323   8.158  28.659   1.713
14915W        W81324  18.598  18.358   5.127
14916W        W81325  37.120  22.544   3.885
14917W        W81326  42.486  28.938  10.495
14918W        W81327   2.365   0.025   3.372
14919W        W81328  31.505  43.992   0.707
14920W        W81329   8.855  26.906  11.115
14921W        W81330  15.911  29.332  11.163
14922W        W81331  37.090  17.147  10.723
14923W        W81332  22.478  42.906  13.880
14924W        W81333  26.578  20.609   3.291
14925W        W81334   6.255   9.292  14.118
14926W        W81335  31.189  30.547   4.338
14927W        W81336   8.386  38.957   1.464
14928W        W81337  35.980   8.580   0.333
14929W        W81338  21.533  41.716   1.053
14930W        W81339  26.435   2.230  12.513
14931W        W81340  12.081  11.083  12.110
14932W        W81341  33.948  37.475  12.452
14933W        W81342  28.666  10.464   0.185
14934W        W81343   6.836  42.058  10.583
14935W        W81344  34.409  36.109  14.796
14936W        W81345  35.656  21.169  10.750
14937W        W81346  42.831   2.490   0.731
14938W        W81347  44.488   9.614  14.966
14939W        W81348  38.887  18.717  12.224
14940W        W81349   4.192  39.141  14.927
14941W        W81350   5.922  41.506  10.621
14942W        W81351   4.930  29.485  13.334
14943W        W81352  22.199   5.734   1.760
14944W        W81353  31.858  27.414  11.908
14945W        W81354  43.926  23.766  12.889
14946W        W81355  15.661  42.615  13.096
14947W        W81356  35.137  18.441  10.346
14948W        W81357   3.258  44.382   4.136
14949W        W81358  44.456  10.124   3.430
14950W        W81359  18.731  23.029   2.218
14951W        W81360   6.272  23.953  14.001
14952W        W81361  35.354  29.928  14.850
14953W        W81362  42.781   0.629  13.828
14954W        W81363  10.305  22.315   1.679
14955W        W81364  32.592  18.722   1.589
14956W        W81365   3.342   6.235  10.565
14957W        W81366  33.774  25.053  12.362
14958W        W81367  33.263  28.101  14.515
14959W        W81368  17.706  11.487  11.998
14960W        W81369   8.970   6.453   3.650
14961W        W81370  11.336   8.551   0.506
14962W        W81371  18.252  30.366   4.676
14963W        W81372  35.568  28.672   2.942
14964W        W81373   8.323  20.663  12.473
14965W        W81374  29.019  25.025  13.001
14966W        W81375  21.070  12.532   3.377
14967W        W81376  30.597  41.671   0.993
14968W        W81377   8.816  43.947  12.593
14969W        W81378  34.625  40.870   0.362
14970W        W81379   9.884  12.223   0.398
14971W        W81380  29.591   1.252   0.941
14972W        W81381   9.441   4.397   3.658
14973W        W81382  11.014   9.077  11.195
14974W        W81383  30.154  27.683  12.012
14975W        W81384   4.847  17.155  13.431
14976W        W81385  33.654  36.828   1.245
14977W        W81386  26.065  33.364  12.512
14978W        W81387  12.756   7.172   0.494
14979W        W81388  11.959  31.322  10.718
14980W        W81389   5.931  37.135   3.420
14981W        W81390   2.622  16.253  12.026
14982W        W81391  21.486  15.562   0.926
14983W        W81392  35.736  44.674  14.195
14984W        W81393  28.274   1.788  12.436
14985W        W81394  16.519   1.858  13.563
14986W        W81395  37.728  41.018  12.451
14987W        W81396  11.639  32.241   4.858
14988W        W81397  27.906   6.953  14.907
14989W        W81398  14.853  18.051   2.822
14990W        W81399   5.382   3.178  14.764
14991W        W81400  41.060  38.155  10.720
14992W        W81401  24.205  14.525   3.312
14993W        W81402  43.523   4.693  13.264
14994W        W81403  12.295  14.152  13.037
14995W        W81404  10.202   3.959   3.637
14996W        W81405  21.329  16.496   9.994
14997W        W81406  11.217  24.092   0.252
14998W        W81407  42.893  44.119  12.845
14999W        W81408  18.710  15.302  13.791
15000W        W81409   0.672  25.929   4.152
15001W        W81410  42.907  10.414  13.633
15002W        W81411  15.506  30.478   5.059
15003W        W81412  29.497   4.006   0.405
15004W        W81413  33.113   8.004   2.390
15005W        W81414  24.893  39.388   1.224
15006W        W81415   7.214  15.692   4.236
15007W        W81416  41.004  44.844  12.069
15008W        W81417  41.898  24.782   4.968
15009W        W81418  19.554  43.996   3.598
15010W        W81419  14.328  30.646  14.529
15011W        W81420  28.177  14.281  14.072
15012W        W81421  11.757   8.213   0.491
15013W        W81422  32.440  42.868   0.412
15014W        W81423   4.499  15.711   4.579
15015W        W81424  22.527  37.000   4.205
15016W        W81425  44.887   1.513  10.785
15017W        W81426  38.502   9.398   3.691
15018W        W81427  41.007  19.097  10.512
15019W        W81428  26.278  40.817   4.877
15020W        W81429   3.479  44.705  10.520
15021W        W81430  34.253   4.966  10.774
15022W        W81431  36.194  44.616   4.206
15023W        W81432   3.206  19.700  10.721
15024W        W81433   4.734  11.438  13.280
15025W        W81434  13.739  14.546  13.862
15026W        W81435  15.257  10.513   3.175
15027W        W81436  39.920  13.433  11.622
15028W        W81437  44.377  33.633   2.003
15029W        W81438   6.876  21.439   1.063
15030W        W81439  14.431  15.117   4.295
15031W        W81440   2.803  35.352   1.282
15032W        W81441  34.645  36.897   3.237
15033W        W81442  43.973  22.292  14.962
15034W        W81443  10.122   8.586   4.089
15035W        W81444  13.542  11.239  12.934
15036W        W81445   0.910  29.098   4.093
15037W        W81446  18.577   2.034  13.403
15038W        W81447  22.269  19.038   2.361
15039W        W81448  24.559  24.284  13.598
15040W        W81449  27.172  14.685  14.955
15041W        W81450  14.693  38.279   3.615
15042W        W81451  19.828  22.517  11.606
15043W        W81452  20.324  44.111  11.550
15044W        W81453  22.464   9.704   4.880
15045W        W81454  26.172  23.503   3.746
15046W        W81455  43.203  36.083   4.915
15047W        W81456  14.440  32.352   1.136
15048W        W81457  10.356  40.311   3.278
15049W        W81458  31.663  21.833  14.868
15050W        W81459  29.044  19.030  11.354
15051W        W81460  32.197  44.575  10.143
15052W        W81461  41.039  13.448   4.754
15053W        W81462  26.637  20.139  11.354
15054W        W81463   6.333  40.585  12.281
15055W        W81464  38.021  22.222   0.023
15056W        W81465  11.069  19.502   1.857
15057W        W81466  32.107   2.319   1.096
15058W        W81467  23.726  25.972   3.747
15059W        W81468   9.366  17.265   3.363
15060W        W81469   8.400  31.950  11.987
15061W        W81470   9.714  21.302   5.050
15062W        W81471   6.731  23.195   3.654
15063W        W81472  20.471  16.011   4.077
15064W        W81473  33.522  15.778  13.070
15065W        W81474  38.122  17.033   3.843
15066W        W81475  40.147   8.739  13.532
15067W        W81476  16.391   6.186  13.950
15068W        W81477  33.525  17.591   4.258
15069W        W81478   9.274  11.602   2.531
15070W        W81479  21.956  18.181   1.987
15071W        W81480  38.720  29.832  10.448
15072W        W81481  21.728  22.803  12.652
15073W        W81482  31.426  27.559  12.250
15074W        W81483  24.951  43.493  13.467
15075W        W81484  41.742   7.127   2.227
15076W        W81485  34.551  11.648   3.694
15077W        W81486  41.484  39.552   4.645
15078W        W81487   7.219  28.178  10.139
15079W        W81488   3.651  38.634   2.368
15080W        W81489   7.804  43.412   3.380
15081W        W81490  16.804  20.448   4.139
15082W        W81491   8.757   3.321   1.712
15083W        W81492  22.287  38.122  10.752
15084W        W81493   0.507  30.712  12.231
15085W        W81494  36.157  23.895   0.317
15086W        W81495  10.143  31.172   2.717
15087W        W81496   4.708  35.967   1.632
15088W        W81497  26.836  36.436   0.868
15089W        W81498   8.652  10.900  12.083
15090W        W81499   0.779  10.329  13.553
15091W        W81500  37.576   7.998   0.683
15092W        W81501  29.994  11.262  12.899
15093W        W81502   6.622  38.370   0.030
15094W        W81503   3.707   6.254   1.262
15095W        W81504  15.110  12.745   4.599
15096W        W81505   8.754  17.993  11.731
15097W        W81506  33.392  39.433  12.407
15098W        W81507  35.801   9.786  12.358
15099W        W81508  39.000  20.110   4.139
15100W        W81509  33.049  41.554   0.421
15101W        W81510  28.653  10.581   4.093
15102W        W81511  23.076  29.114   4.153
15103W        W81512   8.216  19.151  11.833
15104W        W81513  16.867  13.232  11.702
15105W        W81514  40.535  36.876  11.138
15106W        W81515  44.511   7.343  12.409
15107W        W81516  33.415  28.684   4.508
15108W        W81517   0.742   4.260   2.869
15109W        W81518  39.931  38.289  11.659
15110W        W81519   0.939  29.940   3.427
15111W        W81520  34.914   5.773   3.645
15112W        W81521   4.987  35.652  10.512
15113W        W81522   3.661  31.416   4.670
15114W        W81523  26.153   9.390  13.034
15115W        W81524  24.299  36.276   1.767
15116W        W81525  30.389  21.551   0.337
15117W        W81526  39.402   7.060  10.662
15118W        W81527  24.392  10.301   1.450
15119W        W81528  19.402  32.602   3.722
15120W        W81529  41.869  34.391  10.342
15121W        W81530   0.530   9.685  12.942
15122W        W81531  26.029  44.776   3.128
15123W        W81532  43.461   2.330   2.129
15124W        W81533  22.475  21.250   3.318
15125W        W81534   0.289  43.859  14.000
15126W        W81535  40.844  39.435  10.592
15127W        W81536   0.052   1.746  12.397
15128W        W81537  33.612   1.448   1.851
15129W        W81538  10.144   3.181  12.882
15130W        W81539   7.197  21.010   2.282
15131W        W81540  19.143  21.716  12.471
15132W        W81541  28.382  44.660   1.778
15133W        W81542  28.807  30.895   3.948
15134W        W81543   9.674  31.519   2.819
15135W        W81544   3.278  23.183   1.307
15136W        W81545  32.645   4.995  10.626
15137W        W81546  36.314  23.362   3.671
15138W        W81547  18.796  37.607   3.677
15139W        W81548  14.938  22.198   3.215
15140W        W81549  17.102   6.906   0.018
15141W        W81550  40.924  40.451   4.136
15142W        W81551  41.845   9.328   2.720
15143W        W81552  26.074  34.362  13.920
15144W        W81553  15.859  32.103  14.473
15145W        W81554  34.035   0.171  12.908
15146W        W81555  43.000   3.241  12.901
15147W        W81556  17.154   9.866   3.061
15148W        W81557   6.481  28.178   4.651
15149W        W81558  38.378  27.928   3.787
15150W        W81559  41.071  35.011   3.103
15151W        W81560  26.705  20.402  14.963
15152W        W81561   5.355  39.644  12.227
15153W        W81562  30.836  21.631   1.682
15154W        W81563   6.247  44.385  11.535
15155W        W81564   5.087  32.572  14.941
15156W        W81565  29.122  34.794   1.639
15157W        W81566   8.258  16.970   2.822
15158W        W81567   7.801  28.399  13.023
15159W        W81568   1.432  41.271  12.907
15160W        W81569  29.953  10.665  13.853
15161W        W81570  28.224  20.495   4.469
15162W        W81571  30.165  28.997   1.972
15163W        W81572  28.661  38.069   1.213
15164W        W81573  30.547  12.892  14.382
15165W        W81574  10.722   2.408   3.150
15166W        W81575  39.565  10.136   0.370
15167W        W81576  37.990  43.467   3.914
15168W        W81577  32.164  24.051  11.003
15169W        W81578  44.304  42.004  11.615
15170W        W81579   1.283  23.361  13.004
15171W        W81580  14.204   6.057   4.279
15172W        W81581  25.261  20.496  11.891
15173W        W81582  23.941   9.082   2.621
15174W        W81583   8.666  37.579  13.538
15175W        W81584  32.528  37.697   2.299
15176W        W81585  19.573  35.861   4.677
15177W        W81586  37.507  27.966  12.170
15178W        W81587  32.032  26.082   1.443
15179W        W81588  19.143  13.899  11.538
15180W        W81589  18.760  39.834  13.268
15181W        W81590  40.309  39.515  12.995
15182W        W81591  37.009  26.118  12.495
15183W        W81592   8.435  41.035  10.730
15184W        W81593  43.528  15.000  11.009
15185W        W81594   2.976  10.586  10.695
15186W        W81595  43.496  11.731   5.026
15187W        W81596  23.181   1.797  10.879
15188W        W81597  39.803  20.706   0.222
15189W        W81598  20.425   4.207   1.028
15190W        W81599  25.284   8.703   0.412
15191W        W81600   7.288  38.031  12.672
15192W        W81601  11.244  25.429  13.836
15193W        W81602  32.602  31.089   2.799
15194W        W81603   1.440  34.408  14.892
15195W        W81604  23.223  18.628   0.198
15196W        W81605  43.765   5.015  14.922
15197W        W81606   4.005  41.432   0.262
15198W        W81607  26.223  32.400  10.758
15199W        W81608  25.258  25.255   2.722
15200W        W81609  26.635  21.506   1.390
15201W        W81610  14.798  44.292  12.098
15202W        W81611  37.430  34.354  11.656
15203W        W81612  42.177   5.362  10.937
15204W        W81613   1.546  28.110  13.717
15205W        W81614  28.199  12.150   0.838
15206W        W81615   5.655  34.091   0.843
15207W        W81616  41.829  23.794  12.817
15208W        W81617  41.359  34.072   4.101
15209W        W81618  42.491   9.412   0.323
15210W        W81619  32.152   7.767  12.910
15211W        W81620   9.847  11.400  11.950
15212W        W81621  35.899  38.049   2.777
15213W        W81622  20.187  31.988   3.306
15214W        W81623  23.593   1.506  10.865
15215W        W81624  27.047  17.287  10.639
15216W        W81625  44.255  39.453  12.620
15217W        W81626   7.460   3.001  14.107
15218W        W81627  40.328  23.227  10.782
15219W        W81628  34.166   3.004   3.177
15220W        W81629   3.396   0.659  14.488
15221W        W81630  13.727  32.133  12.039
15222W        W81631  41.078   1.812   0.712
15223W        W81632  25.305   2.442   1.938
15224W        W81633  32.399   4.378   2.726
15225W        W81634  35.346  27.238   2.475
15226W        W81635  32.590  24.330   0.364
15227W        W81636   7.427   3.606  12.405
15228W        W81637  30.156  32.936  12.003
15229W        W81638  16.829   1.428  13.483
15230W        W81639  38.100  39.488  11.163
15231W        W81640  19.060   6.712   4.884
15232W        W81641  11.880   8.616   1.685
15233W        W81642  22.240   9.480  12.455
15234W        W81643  16.954   5.729  10.184
15235W        W81644  10.899  44.231  13.518
15236W        W81645  30.033  33.087   1.936
15237W        W81646  20.211  12.546   1.788
15238W        W81647  39.445   3.282   3.688
15239W        W81648   3.503  15.209   4.327
15240W        W81649  17.678  16.571   3.620
15241W        W81650  24.144  31.669   2.868
15242W        W81651  29.664   2.542   0.537
15243W        W81652  16.714  22.613  12.800
15244W        W81653  41.361  11.717  13.837
15245W        W81654  14.431  18.371   2.879
15246W        W81655  27.173  16.093   0.707
15247W        W81656   5.738   1.088  13.127
15248W        W81657   4.105  27.955  10.205
15249W        W81658  29.042  23.504   2.881
15250W        W81659  33.023  41.296   4.635
15251W        W81660  15.546  24.485   0.171
15252W        W81661  18.375  32.777  12.335
15253W        W81662  11.121  36.831  14.813
15254W        W81663   7.231  32.203   2.718
15255W        W81664  40.961  30.161  12.982
15256W        W81665   1.926  41.326   4.118
15257W        W81666  21.582  34.329  12.309
15258W        W81667  25.114  43.953  14.350
15259W        W81668  20.796  42.992  13.128
15260W        W81669  21.269   4.742  11.699
15261W        W81670   3.354  11.107   1.811
15262W        W81671  37.241  40.682  11.668
15263W        W81672  42.797  30.118  10.614
15264W        W81673   5.905  36.257  12.330
15265W        W81674  32.418  12.899   0.747
15266W        W81675  20.671  31.291  13.319
15267W        W81676  28.623  27.930   0.863
15268W        W81677  17.129   4.654  14.327
15269W        W81678   6.488  29.647   1.752
15270W        W81679  27.550   1.878  11.223
15271W        W81680  33.958   3.045   2.338
15272W        W81681  33.366  26.648  14.004
15273W        W81682  28.049  34.446  12.573
15274W        W81683  23.565   9.429   0.915
15275W        W81684  13.608  15.302  14.388
15276W        W81685   3.411  30.824  10.835
15277W        W81686  26.277  38.451   1.870
15278W        W81687  23.554  25.892  11.431
15279W        W81688  35.972  26.256  11.226
15280W        W81689  24.595  17.576   3.779
15281W        W81690   3.347  41.983   2.849
15282W        W81691   8.734  36.537  12.545
15283W        W81692  37.924  19.655   4.385
15284W        W81693  23.556   8.330   2.450
15285W        W81694  42.063  37.984  13.517
15286W        W81695  22.821   5.695  12.129
15287W        W81696  34.840  33.581   2.174
15288W        W81697   0.458   9.166  13.025
15289W        W81698  39.321  38.966  10.124
15290W        W81699   8.163  33.006   0.722
15291W        W81700  22.262   5.833   4.901
15292W        W81701   1.450  40.868   2.699
15293W        W81702  18.561   8.813   4.088
15294W        W81703  12.349   1.314  14.804
15295W        W81704   2.486  37.769   1.709
15296W        W81705  17.843  29.803   0.923
15297W        W81706  24.487  25.596  10.753
15298W        W81707  40.382   6.393  11.997
15299W        W81708  31.804  32.609  11.906
15300W        W81709   1.542  32.884  11.089
15301W        W81710  20.198  42.426   1.560
15302W        W81711  10.356   2.264   3.522
15303W        W81712  11.853  33.363  11.790
15304W        W81713  22.172  38.757   3.295
15305W        W81714  25.378  38.982  14.003
15306W        W81715   3.856  33.447   4.851
15307W        W81716   8.333  22.157   3.583
15308W        W81717  22.564  24.488   3.189
15309W        W81718  22.325  28.934   3.614
15310W        W81719  44.546  34.048   4.485
15311W        W81720  41.774  20.735   2.363
15312W        W81721  31.900   1.923  11.872
15313W        W81722  13.795  32.828   0.497
15314W        W81723  15.635  43.768   0.861
15315W        W81724  28.443  28.067   2.720
15316W        W81725  40.842  34.497   3.182
15317W        W81726   5.684   1.838  11.411
15318W        W81727  23.006  44.123   0.257
15319W        W81728   6.538  43.989  11.637
15320W        W81729  20.995  30.847  14.036
15321W        W81730  29.955  14.342   0.225
15322W        W81731   7.114   4.903   2.546
15323W        W81732  10.743   9.762   3.678
15324W        W81733   6.655  16.663   0.277
15325W        W81734  31.586  29.365   1.486
15326W        W81735  35.574  28.405   4.730
15327W        W81736   7.738  14.398  11.690
15328W        W81737   2.599  42.057  10.493
15329W        W81738  22.026  42.281  13.219
15330W        W81739  32.575  10.180   1.836
15331W        W81740  44.471  10.380   3.902
15332W        W81741  29.058  40.075  11.118
15333W        W81742   6.895  15.119  13.668
15334W        W81743  24.128   4.504  14.909
15335W        W81744  11.675  22.202   0.791
15336W        W81745  42.817  23.016   0.556
15337W        W81746  31.597  42.986   0.001
15338W        W81747  28.555   7.177  13.403
15339W        W81748   7.968  22.916  12.920
15340W        W81749  30.357  24.902   2.339
15341W        W81750   1.237  13.360   0.042
15342W        W81751  24.033  27.121  11.199
15343W        W81752   9.495   2.242  12.901
15344W        W81753   7.634  39.843  12.551
15345W        W81754  18.541  27.542   1.808
15346W        W81755  25.989  11.430   2.223
15347W        W81756  17.093  37.280  11.580
15348W        W81757  24.618  20.133   4.489
15349W        W81758  36.368  28.122   3.288
15350W        W81759  44.537  12.556  12.637
15351W        W81760   8.067  20.700  11.996
15352W        W81761  38.104  13.974  14.484
15353W        W81762  36.103  12.114   1.315
15354W        W81763  30.575  39.560  10.766
15355W        W81764  11.921  14.919   0.653
15356W        W81765  12.344  20.743  12.403
15357W        W81766  24.202  35.443   2.127
15358W        W81767  26.953   6.459   2.671
15359W        W81768  12.798   1.493   3.643
15360W        W81769   7.837   5.442   1.552
15361W        W81770   8.604  17.523   5.013
15362W        W81771  34.382  31.737  12.576
15363W        W81772  16.696  25.514  10.754
15364W        W81773  21.981  15.880   1.908
15365W        W81774   8.297  19.110  10.976
15366W        W81775   4.608  15.731   0.775
15367W        W81776  34.813  26.509  13.770
15368W        W81777  39.480  25.667   4.433
15369W        W81778  32.976  10.194  14.055
15370W        W81779  30.020  10.546   3.100
15371W        W81780  21.406  24.078   0.458
15372W        W81781   3.726  37.586   1.726
15373W        W81782  39.141  24.388  13.792
15374W        W81783  34.656  16.837  10.915
15375W        W81784  38.878   6.253  11.117
15376W        W81785   5.155  11.817   2.914
15377W        W81786  11.067  34.381  13.517
15378W        W81787  25.642  24.978  13.877
15379W        W81788  11.320  28.572   1.554
15380W        W81789  22.789  28.022  11.899
15381W        W81790   2.988   4.259   2.178
15382W        W81791  20.032   6.215   4.627
15383W        W81792   8.274  20.575  11.552
15384W        W81793   1.102  31.844  10.809
15385W        W81794  40.773  16.842   0.696
15386W        W81795  15.636   2.152   2.954
15387W        W81796  25.533  44.513   2.609
15388W        W81797   4.668  18.531   0.351
15389W        W81798  14.893   7.191  14.416
15390W        W81799   4.306  43.726   4.113
15391W        W81800  43.753  35.063   3.848
15392W        W81801  15.291  26.652  13.535
15393W        W81802   2.887  20.245  11.867
15394W        W81803  38.767  13.130  13.837
15395W        W81804  35.465  43.875  13.122
15396W        W81805  14.585  43.053   1.380
15397W        W81806   4.921  13.544  14.971
15398W        W81807  20.066  24.128  12.867
15399W        W81808   4.527  24.530   0.304
15400W        W81809  18.116  32.085   2.210
15401W        W81810   8.855  18.033   0.477
15402W        W81811  34.633   1.724  11.087
15403W        W81812  40.143  38.953  10.631
15404W        W81813  41.795  25.543   4.242
15405W        W81814  31.140   5.371   1.900
15406W        W81815   7.300   9.241  13.368
15407W        W81816  30.904  22.076  14.898
15408W        W81817  15.323  29.943   0.225
15409W        W81818  23.037   3.970  12.612
15410W        W81819  21.267  10.875   2.186
15411W        W81820   1.758  40.191  14.020
15412W        W81821   8.362  13.708   1.385
15413W        W81822  40.864   0.756   1.441
15414W        W81823  30.112  39.744   0.515
15415W        W81824  13.805  23.231   2.306
15416W        W81825  13.794  26.654  11.212
15417W        W81826   0.456   0.456   1.904
15418W        W81827  12.877  38.350  13.929
15419W        W81828   8.960  10.701  12.482
15420W        W81829  33.229  25.942   3.750
15421W        W81830   4.428  23.107   0.548
15422W        W81831  21.528  17.079  11.009
15423W        W81832  43.821   8.025   4.147
15424W        W81833  13.532   2.904  11.684
15425W        W81834  12.587  24.607   2.786
15426W        W81835  31.063   8.681  12.806
15427W        W81836  28.193  16.779   1.359
15428W        W81837  38.622  31.668  13.256
15429W        W81838  18.634  21.348   4.535
15430W        W81839  23.312   2.491   2.102
15431W        W81840   3.377  24.202   0.123
15432W        W81841   3.296  36.469   4.076
15433W        W81842  41.019  35.432   1.406
15434W        W81843  29.519  39.059   3.790
15435W        W81844   0.145   2.451  12.932
15436W        W81845  35.570  33.426  12.974
15437W        W81846  14.908  23.633   2.811
15438W        W81847  15.175  18.197   3.275
15439W        W81848  29.449  15.941   1.975
15440W        W81849  14.108  22.551  14.683
15441W        W81850   4.533   5.986  13.920
15442W        W81851  25.182   2.944   3.188
15443W        W81852   2.965   7.651  12.163
15444W        W81853   0.518  10.739  13.715
15445W        W81854  13.154  35.987  14.844
15446W        W81855   6.636  26.268  12.091
15447W        W81856  31.592   8.277   1.660
15448W        W81857  13.151  22.729  14.685
15449W        W81858  20.150   7.364  13.508
15450W        W81859   6.461  23.088  12.552
15451W        W81860  12.529   6.584  12.413
15452W        W81861  11.729   0.330  11.611
15453W        W81862  11.752  28.389   3.156
15454W        W81863   3.779   5.413   4.811
15455W        W81864  14.236  20.759  11.641
15456W        W81865   8.281  30.028   4.299
15457W        W81866   8.452  44.760   4.244
15458W        W81867  41.475  36.763   2.239
15459W        W81868  17.249  43.167  14.517
15460W        W81869  34.534  34.322  13.277
15461W        W81870  27.090  15.261  10.744
15462W        W81871  12.586  25.939  14.907
15463W        W81872  31.669  41.588   2.841
15464W        W81873  10.236   2.516  12.412
15465W        W81874  20.054   6.167  10.342
15466W        W81875   5.285  23.757   1.813
15467W        W81876  21.603  34.435  13.860
15468W        W81877   8.105   5.115   4.813
15469W        W81878  25.934  10.079  12.520
15470W        W81879  35.029  16.821  13.374
15471W        W81880  32.076  19.167  14.452
15472W        W81881  43.962  41.582   0.815
15473W        W81882  38.574   2.263  12.408
15474W        W81883  20.467  32.107   0.246
15475W        W81884   0.471   1.639  14.378
15476W        W81885  10.750  37.284   3.606
15477W        W81886  44.474  16.300   1.779
15478W        W81887   9.535  28.619   3.116
15479W        W81888  42.893  28.157   0.827
15480W        W81889   1.794  24.586   2.747
15481W        W81890  32.059   8.967  14.324
15482W        W81891  42.322  23.991  11.582
15483W        W81892   5.222   0.880  12.795
15484W        W81893  32.158  21.067   0.487
15485W        W81894  40.631  38.898   1.969
15486W        W81895  20.721  39.371  13.956
15487W        W81896  22.711   3.092  10.246
15488W        W81897  19.720   1.631   1.386
15489W        W81898  41.858  38.329  12.482
15490W        W81899  31.268  20.571   3.172
15491W        W81900   2.201  30.168   2.858
15492W        W81901  15.376  26.156  11.908
15493W        W81902  12.315  16.330   2.412
15494W        W81903  16.160   8.596   1.941
15495W        W81904  38.181  43.183   1.390
15496W        W81905  22.684  18.887   0.837
15497W        W81906  36.075   5.285   2.741
15498W        W81907   3.847  28.900  12.017
15499W        W81908  42.794  19.878   4.613
15500W        W81909  27.877  31.104   3.419
15501W        W81910  26.132  21.575   3.768
15502W        W81911   7.988   9.936  13.542
15503W        W81912  41.960  37.451   2.166
15504W        W81913  35.804  11.344  10.671
15505W        W81914  28.174  17.841   2.142
15506W        W81915  12.872   9.828   4.107
15507W        W81916  23.708  15.474  13.996
15508W        W81917  16.394  40.292   0.315
15509W        W81918  29.004  30.365   2.003
15510W        W81919  42.668   4.683   2.175
15511W        W81920  13.012  13.232  13.953
15512W        W81921  40.498  24.469  13.507
15513W        W81922  32.882  32.051   1.950
15514W        W81923  32.942  21.276  12.410
15515W        W81924   4.322  31.217   4.073
15516W        W81925  36.038  34.991   1.464
15517W        W81926   1.807  21.688  13.077
15518W        W81927  11.847  19.211  12.463
15519W        W81928  12.162  11.672  13.034
15520W        W81929  11.373  14.590   3.693
15521W        W81930  11.145  44.934  11.522
15522W        W81931  20.020  17.297  14.769
15523W        W81932  31.221  11.199  11.904
15524W        W81933  36.795  10.653   1.704
15525W        W81934  12.687  10.129  12.491
15526W        W81935  23.145  15.520   0.290
15527W        W81936  18.202   6.279   2.329
15528W        W81937  15.186  22.603   1.831
15529W        W81938  44.899  32.868   3.442
15530W        W81939  22.683  10.180  11.562
15531W        W81940  26.776  11.665  10.587
15532W        W81941  17.882  44.022  14.434
15533W        W81942  21.496  17.670  14.273
15534W        W81943   1.588  22.319   1.738
15535W        W81944  15.106  35.145  14.734
15536W        W81945  25.919   9.670  13.396
15537W        W81946   2.797  11.649  11.992
15538W        W81947  29.550  26.900  14.596
15539W        W81948   9.101  30.722   0.642
15540W        W81949  34.366  36.914  12.063
15541W        W81950   9.719   5.706  11.994
15542W        W81951  37.313   1.876   3.182
15543W        W81952  20.804  11.655   4.398
15544W        W81953  33.420  15.755  13.558
15545W        W81954   5.926  15.331   4.535
15546W        W81955  37.474  17.728   3.219
15547W        W81956  39.115  15.265   3.800
15548W        W81957  31.920  36.131  14.295
15549W        W81958  24.177  39.489   4.588
15550W        W81959  35.371  21.153  13.397
15551W        W81960  18.002   4.696   0.297
15552W        W81961  36.900   7.730  13.993
15553W        W81962  29.622  13.455  11.596
15554W        W81963  26.902   6.172   1.689
15555W        W81964  40.375  22.016   3.199
15556W        W81965  40.800   9.802  13.040
15557W        W81966  22.048  43.370   4.838
15558W        W81967  12.768  13.391  12.137
15559W        W81968  34.352  20.586   4.346
15560W        W81969  22.185  12.828   2.715
15561W        W81970  12.683  23.650   2.738
15562W        W81971  42.096   6.176   1.435
15563W        W81972  19.116   1.875  13.052
15564W        W81973   1.272  15.670   2.110
15565W        W81974   2.375  17.255  13.459
15566W        W81975  42.512  22.477  14.763
15567W        W81976  29.744  40.568  10.101
15568W        W81977  14.674  27.209  14.740
15569W        W81978  10.725   0.480  14.638
15570W        W81979  40.974  35.289  14.969
15571W        W81980  13.793   8.688  12.684
15572W        W81981  35.557  42.421  14.360
15573W        W81982  12.081  23.695   9.823
15574W        W81983   3.724   2.946   0.405
15575W        W81984  26.701  32.968   3.162
15576W        W81985  18.842  23.417  14.832
15577W        W81986  38.978   1.032  11.665
15578W        W81987  21.178   3.926  12.900
15579W        W81988  39.904  37.351   3.749
15580W        W81989  31.048  40.636  11.711
15581W        W81990  41.133  41.791   2.444
15582W        W81991   9.377   7.154  13.901
15583W        W81992  29.992  41.231  12.349
15584W        W81993  17.825  18.692  13.368
15585W        W81994   0.997  35.563   3.548
15586W        W81995  13.805  11.248  13.403
15587W        W81996  31.908  37.745  10.756
15588W        W81997  20.563   4.469  13.789
15589W        W81998   5.802  43.931   2.282
15590W        W81999  14.596  27.497   1.932
15591W        W82000  19.838  34.509   0.476
15592W        W82001  21.115  28.664  14.267
15593W        W82002  13.561  13.673  14.409
15594W        W82003  40.518  27.343   4.178
15595W        W82004  20.444  11.208   4.565
15596W        W82005  41.852  21.025  11.528
15597W        W82006  18.965   7.452   4.585
15598W        W82007  18.750  23.666  10.773
15599W        W82008  25.957  34.879   4.978
15600W        W82009  20.202  36.457   4.194
15601W        W82010  29.696  33.888  13.278
15602W        W82011   6.226  15.191  14.311
15603W        W82012  28.066   9.663   3.527
15604W        W82013   8.942  43.364   2.212
15605W        W82014  15.783  21.719  10.783
15606W        W82015  25.856   5.481   0.801
15607W        W82016  34.625  27.651  11.101
15608W        W82017  11.187   0.779   0.415
15609W        W82018  40.042  40.378   2.815
15610W        W82019  19.511  15.683  13.551
15611W        W82020   8.171   7.406   1.340
15612W        W82021  31.505  42.806   1.445
15613W        W82022   6.267  12.330  11.116
15614W        W82023  25.902  15.050   1.189
15615W        W82024  30.763   9.579  10.731
15616W        W82025   8.357   8.803   2.843
15617W        W82026  16.162  22.612   1.417
15618W        W82027  31.233  30.147   1.008
15619W        W82028  34.841   8.740   0.576
15620W        W82029  22.041  26.753   3.153
15621W        W82030  24.764   8.343   5.403
15622W        W82031   1.300   7.719  13.222
15623W        W82032  23.729   2.813  12.536
15624W        W82033  35.313  21.603  13.091
15625W        W82034  29.074   4.216  10.814
15626W        W82035  15.281   7.384   2.767
15627W        W82036  16.310  11.962  11.565
15628W        W82037  41.302  42.936  13.033
15629W        W82038  10.613  43.023  11.062
15630W        W82039  10.753  20.687  10.803
15631W        W82040  11.085  14.241   4.479
15632W        W82041  15.090  15.538  12.227
15633W        W82042  19.390   3.594   3.862
15634W        W82043  42.380  31.994   1.853
15635W        W82044  33.944  23.544   1.794
15636W        W82045  30.491  40.765   2.751
15637W        W82046  18.221  24.179  11.395
15638W        W82047   2.613   0.334   2.614
15639W        W82048  31.500  28.123  14.307
15640W        W82049  28.661  14.963  12.050
15641W        W82050  39.555  38.408   1.847
15642W        W82051   1.806   9.506   0.978
15643W        W82052   3.767  34.909  10.728
15644W        W82053  27.483  38.772   3.337
15645W        W82054  42.756  35.379   0.002
15646W        W82055  13.696  21.416   2.773
15647W        W82056  27.573   8.537   3.549
15648W        W82057  34.904  23.515  12.897
15649W        W82058  21.821   3.364  14.402
15650W        W82059  13.301  15.231  10.653
15651W        W82060   6.254  26.053   3.146
15652W        W82061  20.537  31.734   2.589
15653W        W82062  43.916  34.521   4.246
15654W        W82063  21.432  18.090  13.987
15655W        W82064  41.859   1.211  13.817
15656W        W82065   8.334  12.369  14.567
15657W        W82066   0.676  22.446   0.238
15658W        W82067  20.049  29.501  14.451
15659W        W82068  25.667  25.523  14.286
15660W        W82069  21.063  17.412   2.226
15661W        W82070   6.839  22.619   5.583
15662W        W82071  38.141  37.198   1.982
15663W        W82072  14.044  29.192  13.005
15664W        W82073  38.731  10.402  10.285
15665W        W82074  22.809  17.766  14.858
15666W        W82075  33.978   4.864   2.284
15667W        W82076  18.140  20.298   0.296
15668W        W82077   4.907  21.219  13.862
15669W        W82078  11.121  30.274   4.605
15670W        W82079  22.693  20.712   0.478
15671W        W82080  13.059   7.153   1.963
15672W        W82081  30.868  44.436   3.304
15673W        W82082   1.920  43.883   4.344
15674W        W82083  39.887  32.830  11.981
15675W        W82084  36.163   3.257   0.305
15676W        W82085   4.195   8.304   0.968
15677W        W82086  35.020  40.755   1.260
15678W        W82087  43.711  42.808  11.434
15679W        W82088  32.977  20.081  12.072
15680W        W82089  10.457  20.216  10.672
15681W        W82090  22.469  28.497  14.982
15682W        W82091  23.797  14.076  13.685
15683W        W82092  32.418  25.216   0.344
15684W        W82093  15.818  20.022  12.864
15685W        W82094  26.089   1.821   1.210
15686W        W82095  24.475  14.393  12.966
15687W        W82096  30.322  35.481  11.486
15688W        W82097  14.890   4.070  12.924
15689W        W82098  38.885   3.682  13.873
15690W        W82099  14.583   9.574  11.940
15691W        W82100  39.177  22.598  10.231
15692W        W82101  36.380  19.337  12.938
15693W        W82102  38.578  27.166   4.876
15694W        W82103  41.825   7.703   3.064
15695W        W82104  32.523  35.307   4.718
15696W        W82105   3.028  39.525  11.127
15697W        W82106   9.569  44.773   3.320
15698W        W82107  20.600   6.772  12.911
15699W        W82108   6.382  21.226  12.579
15700W        W82109  10.507  25.966  12.760
15701W        W82110  35.695  33.163  11.609
15702W        W82111  44.263  39.484   3.250
15703W        W82112  10.514  44.169  11.260
15704W        W82113  11.738  42.670   0.003
15705W        W82114   9.631  42.514  13.454
15706W        W82115  25.543   3.299  14.979
15707W        W82116  26.750   6.352   0.013
15708W        W82117  16.777  33.858   2.918
15709W        W82118  32.690  26.592   2.026
15710W        W82119  31.000  11.133  11.051
15711W        W82120   5.333  29.241   1.209
15712W        W82121  16.728  29.325   1.415
15713W        W82122  37.744  18.732  13.287
15714W        W82123  23.668  29.563   0.913
15715W        W82124   8.902  24.676  11.765
15716W        W82125  42.376  31.894  11.402
15717W        W82126  34.088   1.656  13.937
15718W        W82127  40.231  10.733   4.491
15719W        W82128   5.819  15.316   3.239
15720W        W82129  18.502  24.933  10.935
15721W        W82130   6.117   5.471  12.597
15722W        W82131   5.866  16.189   4.734
15723W        W82132  17.717  11.163  13.426
15724W        W82133  17.157  39.003   1.750
15725W        W82134  14.688  23.565  10.360
15726W        W82135  39.508  15.839   4.220
15727W        W82136  40.495  40.658  12.435
15728W        W82137  22.984  18.900  12.588
15729W        W82138  26.618  17.153  10.360
15730W        W82139  36.148   0.833  13.786
15731W        W82140  10.438  39.683   4.627
15732W        W82141  38.196   8.621   0.012
15733W        W82142  18.693  36.500  10.444
15734W        W82143   6.214   4.894  11.327
15735W        W82144  16.215   9.665  12.052
15736W        W82145  32.842  37.168  14.850
15737W        W82146  11.638  15.973  11.044
15738W        W82147  11.660  26.846  10.479
15739W        W82148  40.304  32.593   0.201
15740W        W82149   0.631  19.286  12.435
15741W        W82150  24.766  33.970  13.269
15742W        W82151  11.859  27.974   2.805
15743W        W82152  18.710  28.483  14.020
15744W        W82153  20.517   3.316  14.978
15745W        W82154  22.676  42.087  11.627
15746W        W82155  18.255  11.373  13.573
15747W        W82156  31.045  11.871   0.161
15748W        W82157  22.749  35.885   2.137
15749W        W82158  17.769  42.224   1.179
15750W        W82159  26.602   0.322   4.691
15751W        W82160   6.481  44.846  11.499
15752W        W82161  36.049  17.269   1.676
15753W        W82162   7.993   6.879   1.920
15754W        W82163   3.206  40.494  12.613
15755W        W82164  29.998  23.047   4.587
15756W        W82165  26.949  18.017   4.775
15757W        W82166  42.149  16.079  12.419
15758W        W82167  11.430  43.778   1.584
15759W        W82168  22.996  24.927   4.049
15760W        W82169   9.880  10.735   4.230
15761W        W82170  34.066   8.794   1.178
15762W        W82171  10.792  43.110   2.129
15763W        W82172  37.444  24.158  14.992
15764W        W82173  43.538   5.767   4.606
15765W        W82174   9.198  36.051   2.498
15766W        W82175  34.595  32.676   0.788
15767W        W82176  29.008  30.407  14.510
15768W        W82177  41.888  44.382   2.393
15769W        W82178  12.750   3.974  14.458
15770W        W82179  21.060  26.853  13.087
15771W        W82180  34.359  30.873  14.678
15772W        W82181  40.510  12.372   0.928
15773W        W82182  17.446  38.058   4.231
15774W        W82183  42.210  33.673   1.120
15775W        W82184  27.743  33.725   0.168
15776W        W82185   1.052  32.350  10.725
15777W        W82186   6.777  17.085   3.670
15778W        W82187  10.775   7.303  11.012
15779W        W82188  36.081  43.288   4.207
15780W        W82189  11.408  28.303  10.098
15781W        W82190  20.677  21.635  12.918
15782W        W82191   8.921  31.943  12.882
15783W        W82192   7.226  30.991   4.496
15784W        W82193  37.438  40.533   4.577
15785W        W82194  24.078  13.572   4.558
15786W        W82195   7.732  27.555  12.711
15787W        W82196  13.637  16.756  14.558
15788W        W82197  31.033  37.319   4.160
15789W        W82198   8.816  32.581   0.255
15790W        W82199  29.556   5.594  10.618
15791W        W82200  34.795  43.888  14.957
15792W        W82201  17.032   5.315   2.706
15793W        W82202  22.053  31.651   1.019
15794W        W82203  19.067  27.696   1.836
15795W        W82204  21.668  36.570   3.306
15796W        W82205  11.769   9.704  13.357
15797W        W82206  34.729   4.292   2.395
15798W        W82207  16.644  32.567  13.540
15799W        W82208   8.701  16.083   0.901
15800W        W82209  17.993  24.577   2.199
15801W        W82210  24.671  38.265   4.814
15802W        W82211  31.721  32.937   4.542
15803W        W82212  19.009  22.667  11.257
15804W        W82213   7.019  23.401  10.240
15805W        W82214  15.694  40.525   1.329
15806W        W82215  39.693  37.442   3.184
15807W        W82216   5.832   0.427   3.677
15808W        W82217   3.236  42.979   4.309
15809W        W82218  44.434  19.792   0.534
15810W        W82219  25.242   6.968   2.113
15811W        W82220   7.861   8.270  10.661
15812W        W82221  43.913  27.592  11.206
15813W        W82222  11.420  18.480  11.137
15814W        W82223  19.935  29.936   2.246
15815W        W82224  14.558  32.601   2.942
15816W        W82225  37.613  19.722   2.484
15817W        W82226  30.244   8.777   0.276
15818W        W82227   9.190  19.488  10.732
15819W        W82228  34.673  26.359  11.568
15820W        W82229  19.046  20.119   2.676
15821W        W82230   8.316  40.777   1.464
15822W        W82231  12.147  38.778   2.391
15823W        W82232  27.663  10.378   3.178
15824W        W82233  16.105   5.832  12.922
15825W        W82234   1.179   3.776  12.422
15826W        W82235  42.899  29.726   4.643
15827W        W82236  34.372  33.886   3.739
15828W        W82237   3.436   8.838  13.564
15829W        W82238  13.755  21.190  11.410
15830W        W82239  16.293  39.289   2.714
15831W        W82240  29.473  40.214   3.079
15832W        W82241  20.381  42.997   2.663
15833W        W82242   8.746  34.367  10.283
15834W        W82243  12.154  38.623  12.180
15835W        W82244  27.044  17.284  11.599
15836W        W82245   1.802   6.743   1.282
15837W        W82246  10.602  10.113  12.981
15838W        W82247  40.137  31.176   4.229
15839W        W82248   1.728  15.802  11.185
15840W        W82249  32.235  16.385  13.468
15841W        W82250  10.170  15.774   0.492
15842W        W82251  34.311  14.756  10.976
15843W        W82252  15.783   7.069   0.509
15844W        W82253  24.422  20.740   5.036
15845W        W82254  28.326  29.960  10.328
15846W        W82255  13.377  11.802  14.333
15847W        W82256  27.349  31.868  12.064
15848W        W82257  41.925  21.106  12.015
15849W        W82258  35.943  11.423   1.830
15850W        W82259   1.447  20.732  13.859
15851W        W82260  22.434  14.982   2.262
15852W        W82261  34.063  31.000   0.557
15853W        W82262   3.208  32.762  11.306
15854W        W82263  14.796  25.795  14.255
15855W        W82264  34.113   4.702  13.414
15856W        W82265  12.669  41.825   1.418
15857W        W82266  27.218   7.899   4.053
15858W        W82267  11.237  17.180   1.045
15859W        W82268  24.235  32.559  10.707
15860W        W82269  29.126  38.030  11.193
15861W        W82270  17.770  15.261  14.029
15862W        W82271  16.574  38.336   9.805
15863W        W82272  35.629  29.014  13.871
15864W        W82273  20.626  22.640  11.991
15865W        W82274  31.958   9.021  13.465
15866W        W82275  23.364  12.801   5.014
15867W        W82276  30.037  30.909  14.087
15868W        W82277  32.169  11.313  12.108
15869W        W82278  43.034  16.946  11.458
15870W        W82279  22.681  30.013  12.913
15871W        W82280  39.291  15.276   1.335
15872W        W82281  36.463  24.186  10.607
15873W        W82282  37.469  38.924  13.245
15874W        W82283   1.388   2.828  14.338
15875W        W82284  12.775  36.924   2.284
15876W        W82285  26.737  31.771  11.213
15877W        W82286   7.496   8.684  10.774
15878W        W82287   9.408  35.822   1.700
15879W        W82288  44.391  16.435   4.622
15880W        W82289  18.516   1.906  10.689
15881W        W82290  21.680  42.469   0.471
15882W        W82291  12.315  30.584  12.413
15883W        W82292  21.990  19.556   3.178
15884W        W82293  21.953  20.557  12.201
15885W        W82294  43.150  18.994  12.909
15886W        W82295   0.213  29.716  12.904
15887W        W82296  32.377  35.154   0.832
15888W        W82297  16.083   4.614   3.215
15889W        W82298  19.276  24.220   1.607
15890W        W82299   6.615  21.980  14.886
15891W        W82300   0.915  41.093  13.039
15892W        W82301  27.802  39.004  13.628
15893W        W82302  32.403  29.110  12.594
15894W        W82303   6.407  33.243  13.564
15895W        W82304  44.991  27.939  10.114
15896W        W82305  39.923  27.576  13.164
15897W        W82306  11.305  14.048   3.646
15898W        W82307  22.681   0.198  11.105
15899W        W82308  32.982  37.870   2.430
15900W        W82309   7.404  22.400  12.424
15901W        W82310  28.950  18.807   4.188
15902W        W82311  16.659  44.363   4.397
15903W        W82312  39.340  42.386  10.354
15904W        W82313  12.262  42.513   1.642
15905W        W82314   8.688  23.470   0.489
15906W        W82315  16.894  23.719   2.371
15907W        W82316  12.992  41.577   4.980
15908W        W82317  43.529  44.513  13.972
15909W        W82318  37.163  38.833   3.915
15910W        W82319  34.845  21.720  14.866
15911W        W82320  41.943  23.267  14.984
15912W        W82321  34.850  10.496  13.826
15913W        W82322  38.054  37.307  10.642
15914W        W82323  30.413  35.442   4.837
15915W        W82324  42.222  13.330   0.272
15916W        W82325  40.164   8.722   9.820
15917W        W82326  32.926  25.141   0.698
15918W        W82327  19.664   3.341   0.806
15919W        W82328  18.852  43.942  14.339
15920W        W82329   7.312   3.935   0.207
15921W        W82330  14.342  13.622   3.942
15922W        W82331  30.053  31.905   1.780
15923W        W82332  15.391  24.278  11.925
15924W        W82333  20.615  16.702   4.643
15925W        W82334  29.546  25.560   4.165
15926W        W82335  31.132  18.531   2.344
15927W        W82336  27.043  18.595  11.119
15928W        W82337   3.416  24.399   2.070
15929W        W82338  20.705  41.714   3.141
15930W        W82339  40.471  33.379   1.416
15931W        W82340  40.616   8.612  13.306
15932W        W82341  25.040  16.680  11.696
15933W        W82342  32.420  44.271  12.865
15934W        W82343   8.466  23.015  11.589
15935W        W82344   9.701   6.155   0.697
15936W        W82345  22.246  24.565   3.850
15937W        W82346  14.156  32.219   2.296
15938W        W82347  17.775  35.463   0.884
15939W        W82348  25.768  14.283   5.025
15940W        W82349  35.141   3.753   1.780
15941W        W82350   5.614  22.604  13.753
15942W        W82351  39.061  32.562   4.887
15943W        W82352   6.461   3.851   4.519
15944W        W82353   8.358  36.499   2.845
15945W        W82354  17.869  11.419   0.203
15946W        W82355  17.313  27.428   3.288
15947W        W82356  18.823   5.885  14.353
15948W        W82357  32.839   9.615  11.510
15949W        W82358  31.498   0.006  10.880
15950W        W82359  32.705  13.684  12.449
15951W        W82360  36.931  34.348  10.699
15952W        W82361   6.182  16.621  12.056
15953W        W82362  35.157  37.013  10.724
15954W        W82363  20.140  38.852  14.608
15955W        W82364  25.648  29.069  13.956
15956W        W82365  15.613  10.397  14.594
15957W        W82366  11.713  10.423   2.382
15958W        W82367  21.690   8.684  12.456
15959W        W82368  32.436  40.988   1.434
15960W        W82369  25.241  10.607   0.342
15961W        W82370  41.035  13.147   4.255
15962W        W82371  33.629  21.234   2.355
15963W        W82372   9.618  44.743   2.383
15964W        W82373  19.099   3.177  12.372
15965W        W82374  12.826   5.738   2.738
15966W        W82375  36.781   4.261   2.210
15967W        W82376   9.113  42.515   1.220
15968W        W82377  19.129  11.200   2.660
15969W        W82378  37.788  35.563  11.137
15970W        W82379  40.638  40.880  11.987
15971W        W82380  40.984  15.749  12.170
15972W        W82381  15.231  35.939  12.596
15973W        W82382  11.664   6.834  12.926
15974W        W82383   5.708  13.550  13.276
15975W        W82384   6.433   6.687   5.042
15976W        W82385  10.292  31.790   4.075
15977W        W82386  12.604  29.558  11.634
15978W        W82387  24.464  21.009  14.923
15979W        W82388  42.279  43.990  10.700
15980W        W82389  27.067  14.701   1.353
15981W        W82390   1.863  21.632   2.173
15982W        W82391  35.527  43.335   1.752
15983W        W82392  15.897  24.158  12.829
15984W        W82393  35.001   6.385   3.726
15985W        W82394  42.408   9.337  13.498
15986W        W82395   9.900  21.590   0.302
15987W        W82396  20.599  38.874  12.843
15988W        W82397  42.770   2.376  14.877
15989W        W82398  27.916  17.081  13.475
15990W        W82399  40.191  14.676   1.724
15991W        W82400   4.004  43.191   3.041
15992W        W82401  32.021  26.848   2.740
15993W        W82402  24.092  39.476   0.218
15994W        W82403   3.744  16.641  10.624
15995W        W82404  25.196  40.978  13.209
15996W        W82405  24.638  11.094  14.994
15997W        W82406  38.985  36.596  11.501
15998W        W82407  33.941  21.467  13.393
15999W        W82408   4.345  36.102   1.288
16000W        W82409   7.583  24.675   3.086
16001W        W82410  16.892  21.465  13.970
16002W        W82411  20.625  17.775   3.766
16003W        W82412   5.192  14.438   0.885
16004W        W82413  10.590  21.598  13.923
16005W        W82414  16.526   1.371  14.362
16006W        W82415  17.196  14.101   1.631
16007W        W82416  37.835   0.206  14.592
16008W        W82417   2.305  29.689   2.755
16009W        W82418  37.825  38.058  14.113
16010W        W82419   2.954  30.112   2.295
16011W        W82420  23.094   0.306  13.833
16012W        W82421  21.452   1.755  14.205
16013W        W82422  21.187  24.690   1.412
16014W        W82423  28.143  22.547   1.911
16015W        W82424  43.733  19.313  11.954
16016W        W82425  19.245  44.926  10.552
16017W        W82426  22.678  29.159   4.469
16018W        W82427   8.215  39.870   1.959
16019W        W82428  20.835  19.271  14.817
16020W        W82429  30.487  19.165   2.671
16021W        W82430  25.844  14.775   3.443
16022W        W82431  42.681  16.091   3.656
16023W        W82432  42.451  30.991   1.796
16024W        W82433  20.053  21.259   3.666
16025W        W82434  42.922  34.073   2.814
16026W        W82435   1.150  26.181   0.527
16027W        W82436  42.922  41.932   2.363
16028W        W82437  41.234  31.244  14.033
16029W        W82438  10.850  23.086   3.683
16030W        W82439   1.870  11.140  13.478
16031W        W82440  25.017  10.875   4.526
16032W        W82441   2.842  35.360  10.644
16033W        W82442  22.122  41.377  13.982
16034W        W82443  32.006   6.856  12.360
16035W        W82444  23.671   9.797   1.853
16036W        W82445  31.630  30.611   4.092
16037W        W82446  12.407  43.760   3.583
16038W        W82447  32.449  43.633   2.637
16039W        W82448  15.701  18.015   1.853
16040W        W82449  26.156  42.869   4.203
16041W        W82450  35.273  40.025  11.048
16042W        W82451   5.599  37.284  12.888
16043W        W82452  30.136   4.105   0.094
16044W        W82453  39.935  20.025   4.059
16045W        W82454  19.555   9.277   1.206
16046W        W82455  37.922  43.563   0.482
16047W        W82456  43.165  21.239  11.595
16048W        W82457  10.722   8.456  13.332
16049W        W82458  34.615  25.392   2.010
16050W        W82459  29.558   2.966  14.591
16051W        W82460  39.021  34.749  11.684
16052W        W82461  10.347   1.909   4.147
16053W        W82462  31.371  15.617   3.852
16054W        W82463   6.236  37.587   3.302
16055W        W82464   0.440  20.479   2.331
16056W        W82465  24.248  12.186   2.837
16057W        W82466  39.501  32.176   1.427
16058W        W82467  43.754  35.095  11.937
16059W        W82468  10.250  38.792  11.988
16060W        W82469  30.103   6.251   1.825
16061W        W82470  36.751  20.555  13.880
16062W        W82471  27.400  22.887  13.782
16063W        W82472  23.813  29.064  11.053
16064W        W82473   1.955   8.185   1.690
16065W        W82474  41.795  29.482   3.377
16066W        W82475  33.572  40.683  13.519
16067W        W82476  42.908  42.407   0.296
16068W        W82477  10.364  14.247  10.299
16069W        W82478  42.885   6.376  13.287
16070W        W82479   9.159  19.017   3.338
16071W        W82480  36.533  22.918   0.308
16072W        W82481  13.047  25.015   0.203
16073W        W82482   3.872  18.322  13.420
16074W        W82483  27.780   5.768   4.085
16075W        W82484   8.246  43.042   1.489
16076W        W82485  44.954   6.550   0.240
16077W        W82486  31.374  24.421  10.870
16078W        W82487  13.492   8.815   9.852
16079W        W82488  33.970  15.704   3.394
16080W        W82489   9.246  21.620   0.888
16081W        W82490   5.552  34.372  11.558
16082W        W82491   2.532  40.898  11.655
16083W        W82492  18.538  42.906  12.465
16084W        W82493   3.344  38.041  12.913
16085W        W82494  19.183  41.001  14.783
16086W        W82495  20.298   3.979  12.711
16087W        W82496  31.409  31.013  11.097
16088W        W82497  11.779  11.149   1.370
16089W        W82498  27.685   3.169  12.807
16090W        W82499  28.528  23.479  10.925
16091W        W82500   1.656  25.563   1.418
16092W        W82501  21.528   6.277  14.498
16093W        W82502  11.332  39.523  11.578
16094W        W82503   8.246  28.013  11.400
16095W        W82504  19.507   2.822   1.881
16096W        W82505   2.961  16.741   1.517
16097W        W82506  18.014   1.500   2.760
16098W        W82507  20.540  12.635  11.848
16099W        W82508  28.468  20.176   0.907
16100W        W82509  24.546  39.500   0.472
16101W        W82510  13.400  44.010  12.573
16102W        W82511  21.314  25.988   1.833
16103W        W82512  29.875   6.247  10.887
16104W        W82513   5.239   2.275   4.791
16105W        W82514   1.035   4.403  11.145
16106W        W82515  20.038   1.284  13.830
16107W        W82516  36.621  36.969  14.005
16108W        W82517  16.688  30.395  10.612
16109W        W82518  30.677  21.015  14.021
16110W        W82519   0.891  10.941  14.901
16111W        W82520  20.548  14.303  13.583
16112W        W82521  40.426  42.509   4.312
16113W        W82522  12.817   8.177   4.923
16114W        W82523  39.999  15.551  11.228
16115W        W82524  39.638  37.550  13.494
16116W        W82525  10.255  10.398   3.806
16117W        W82526  29.504  26.177  12.546
16118W        W82527   0.949  27.484  13.518
16119W        W82528  24.006  21.527  11.723
16120W        W82529  40.840  20.885   0.367
16121W        W82530  26.754  16.469  13.059
16122W        W82531   1.709  39.272  14.972
16123W        W82532   8.200   4.961  10.407
16124W        W82533  31.327  29.109  14.325
16125W        W82534   4.186  32.955  13.920
16126W        W82535  32.756  23.542   0.915
16127W        W82536  43.585  30.154   1.942
16128W        W82537  21.996  41.325   3.378
16129W        W82538   7.763   0.422  14.973
16130W        W82539   5.168  13.281  11.510
16131W        W82540  27.657  41.904   4.563
16132W        W82541   6.182  14.322  11.629
16133W        W82542  30.395  15.071  12.213
16134W        W82543  21.834   9.866   0.336
16135W        W82544   8.905  24.716  12.635
16136W        W82545  35.190  26.368  11.222
16137W        W82546  29.662   6.398   3.620
16138W        W82547  42.230  16.802  11.704
16139W        W82548  27.622  33.729  13.366
16140W        W82549  11.868  13.652   1.587
16141W        W82550  17.658  44.780  12.089
16142W        W82551  22.693  41.502   3.805
16143W        W82552  21.824  30.737   4.771
16144W        W82553  28.973  26.730   3.240
16145W        W82554  30.070  33.146  11.549
16146W        W82555  40.519  28.128   3.692
16147W        W82556  31.102  16.950  11.143
16148W        W82557  21.124  25.576   4.887
16149W        W82558   5.598  10.201   3.299
16150W        W82559  30.355  42.373  14.853
16151W        W82560  12.826  11.572   2.666
16152W        W82561   8.859  17.152  13.289
16153W        W82562  19.642  33.706  13.053
16154W        W82563  21.794  24.747   2.692
16155W        W82564  36.130  44.667  13.859
16156W        W82565  16.990  17.772   1.836
16157W        W82566  26.607  19.073   2.696
16158W        W82567  35.938  40.870   1.282
16159W        W82568  32.703  28.821  13.875
16160W        W82569  40.644  28.656   2.753
16161W        W82570  21.994  27.708  14.927
16162W        W82571  22.448  27.516   3.539
16163W        W82572  35.872  10.285   4.134
16164W        W82573  11.441  15.965  14.226
16165W        W82574  38.168   1.911  14.773
16166W        W82575   1.211  14.573   3.446
16167W        W82576  35.585  39.169  11.408
16168W        W82577  18.226  26.054   4.854
16169W        W82578  11.149  39.081   4.131
16170W        W82579  18.200  33.831  14.557
16171W        W82580  43.004   2.433  12.496
16172W        W82581  21.265  35.494   4.262
16173W        W82582   5.781  35.845  14.437
16174W        W82583  37.096  13.244   1.878
16175W        W82584  15.788  24.603  14.313
16176W        W82585  13.834  39.627   1.338
16177W        W82586  32.021  33.011  10.639
16178W        W82587  19.079   0.006  11.879
16179W        W82588   9.614  44.168  11.991
16180W        W82589  18.509   7.643   0.732
16181W        W82590  34.872  24.642  14.023
16182W        W82591   1.639   0.379   3.665
16183W        W82592  31.706  32.134  13.940
16184W        W82593  44.773  15.231   4.386
16185W        W82594  38.971  19.328   3.572
16186W        W82595  11.568  31.519   4.863
16187W        W82596   6.765  10.148   2.823
16188W        W82597  14.166  16.664   1.232
16189W        W82598  14.702  12.833   2.218
16190W        W82599   3.883   7.280  11.262
16191W        W82600  26.464  38.552   4.425
16192W        W82601   9.362   3.104   0.502
16193W        W82602  21.712  18.993   4.009
16194W        W82603   0.689  15.159   0.765
16195W        W82604  34.575  22.973   0.968
16196W        W82605  36.808   7.401  14.386
16197W        W82606  24.894   5.868  14.641
16198W        W82607   8.921   0.177   1.425
16199W        W82608  16.676  11.202  14.475
16200W        W82609   3.389  16.397  14.998
16201W        W82610  15.251   7.112   1.271
16202W        W82611  14.314  36.294  12.496
16203W        W82612  10.968   3.802   3.159
16204W        W82613  21.560  34.159  13.429
16205W        W82614   2.890  12.670   3.157
16206W        W82615  23.054   8.156  12.161
16207W        W82616   7.868   6.262  14.950
16208W        W82617   9.173  30.581  14.392
16209W        W82618  12.653   5.472   0.246
16210W        W82619  25.330  41.112   0.997
16211W        W82620   8.756  32.623   2.825
16212W        W82621  36.624  18.025  11.075
16213W        W82622   4.246  13.258  12.360
16214W        W82623   5.310   7.307   1.401
16215W        W82624  37.650  43.520  13.956
16216W        W82625  31.955  44.471   0.277
16217W        W82626   7.962  16.630  14.813
16218W        W82627   9.820   6.687   4.584
16219W        W82628  11.260  17.253   0.490
16220W        W82629   6.922  33.306   2.349
16221W        W82630  28.811   5.224   1.289
16222W        W82631  29.942   9.403   2.188
16223W        W82632  17.739  11.774   1.142
16224W        W82633  37.259  35.955  14.262
16225W        W82634  20.205  34.526   1.403
16226W        W82635  11.359   6.392  14.796
16227W        W82636  18.118  29.274   3.173
16228W        W82637  17.085  11.578   2.793
16229W        W82638   4.371  21.066   1.351
16230W        W82639  26.532  35.927   4.668
16231W        W82640  26.010  20.982   4.542
16232W        W82641  10.292  29.204  12.645
16233W        W82642   8.158  18.703  13.457
16234W        W82643  31.879  24.811  12.036
16235W        W82644  38.636  25.038   2.475
16236W        W82645  39.334  10.870   3.981
16237W        W82646  36.950   1.046   2.802
16238W        W82647  18.584  19.680   2.015
16239W        W82648   8.589  12.711   0.028
16240W        W82649  28.681  44.826  12.503
16241W        W82650  40.445  29.156  14.406
16242W        W82651   2.886   1.896   4.167
16243W        W82652   7.837   8.763   5.050
16244W        W82653  42.288  42.456   2.754
16245W        W82654  16.749  29.708  14.039
16246W        W82655  42.711   6.925   4.471
16247W        W82656  28.694  29.203   3.084
16248W        W82657  33.101   7.009   2.279
16249W        W82658   1.185  36.571  12.123
16250W        W82659   4.672  42.859  10.912
16251W        W82660  31.979  17.216   0.884
16252W        W82661  40.619  10.617   4.831
16253W        W82662  41.073  22.767   3.703
16254W        W82663  12.122  13.213  13.110
16255W        W82664  34.445  32.862   1.814
16256W        W82665  23.472  40.433  13.444
16257W        W82666  42.051  27.124   1.349
16258W        W82667  12.330  40.439  11.544
16259W        W82668  32.044  20.480  10.211
16260W        W82669  11.282  31.173  14.024
16261W        W82670  23.663   1.775   1.094
16262W        W82671  24.698  10.606  12.367
16263W        W82672  10.854  28.214   2.843
16264W        W82673   6.950  26.527  11.030
16265W        W82674   2.934  16.687  10.822
16266W        W82675  36.153  28.513   3.597
16267W        W82676  17.079  19.440  13.564
16268W        W82677  40.564  32.580   0.683
16269W        W82678  39.000  17.752  10.269
16270W        W82679  37.427  37.045  14.808
16271W        W82680  44.310  28.893  11.050
16272W        W82681  35.965  20.114   0.785
16273W        W82682  42.847   3.966  14.887
16274W        W82683   5.301  33.944   3.772
16275W        W82684  18.781   3.804  13.966
16276W        W82685  34.360  14.097   3.336
16277W        W82686   1.933  19.130   2.444
16278W        W82687  34.598   7.085   1.341
16279W        W82688  38.833  39.891   2.793
16280W        W82689  17.965  26.931   1.813
16281W        W82690   3.985   8.476  11.266
16282W        W82691  36.189  36.485   2.470
16283W        W82692  28.672  38.088   3.716
16284W        W82693  36.339  21.734  13.919
16285W        W82694  10.598  42.471   0.534
16286W        W82695  33.234  22.063   1.818
16287W        W82696  17.141  33.479   3.541
16288W        W82697   4.770  13.923  12.398
16289W        W82698  19.361  41.706   0.961
16290W        W82699  34.605  12.130  13.032
16291W        W82700   6.868  35.409  11.126
16292W        W82701  34.445  20.099   3.202
16293W        W82702  44.757  22.165  11.591
16294W        W82703  40.008  43.528  11.596
16295W        W82704  36.392  24.739   3.415
16296W        W82705   9.122  31.970   2.741
16297W        W82706  13.780  22.720   2.229
16298W        W82707  42.047  23.794  14.966
16299W        W82708  34.767  43.359  14.337
16300W        W82709  28.220   0.522  13.942
16301W        W82710   6.916  33.454   0.756
16302W        W82711  36.580  32.668   1.742
16303W        W82712  43.472  40.542   2.616
16304W        W82713   8.906  40.114   3.257
16305W        W82714  35.882  18.632   3.772
16306W        W82715   6.388  11.886   0.201
16307W        W82716  42.484  34.307   1.895
16308W        W82717  28.166  33.841   4.988
16309W        W82718   7.585  36.090   0.349
16310W        W82719   8.820  37.816   1.658
16311W        W82720  38.847   7.233  11.412
16312W        W82721  17.474  14.136   0.318
16313W        W82722   4.717  22.247   1.781
16314W        W82723  22.273  35.811  14.400
16315W        W82724  26.572   5.807  14.947
16316W        W82725  41.083  12.840   1.913
16317W        W82726  43.978   7.166   2.305
16318W        W82727  11.335  15.704  13.318
16319W        W82728   3.133  36.044  12.627
16320W        W82729  23.647  29.960   2.215
16321W        W82730  14.056  11.314  12.958
16322W        W82731   6.682  35.612   4.286
16323W        W82732  21.021  32.101  13.905
16324W        W82733   7.591  22.372   3.152
16325W        W82734  15.602  34.421  13.536
16326W        W82735   6.634  16.598  10.688
16327W        W82736  22.420  16.403  10.224
16328W        W82737  30.084  11.268  14.919
16329W        W82738  38.868  20.540  11.799
16330W        W82739   3.006  22.681  14.768
16331W        W82740  30.727  33.655   1.707
16332W        W82741  13.943  25.145   2.404
16333W        W82742  10.414  17.995   3.639
16334W        W82743  19.579  34.917   5.093
16335W        W82744  42.486  21.222  13.368
16336W        W82745   5.826  15.410  11.180
16337W        W82746  31.656  36.618   1.839
16338W        W82747  38.314  39.528  14.484
16339W        W82748   2.496  33.927   3.993
16340W        W82749   2.498  36.911  11.697
16341W        W82750  35.033   1.229  14.026
16342W        W82751  36.803  18.460   4.612
16343W        W82752  24.520  35.831   1.962
16344W        W82753  16.183  31.640  11.736
16345W        W82754  21.264  39.318  14.954
16346W        W82755  24.719  19.647  11.956
16347W        W82756  17.862   4.958  14.858
16348W        W82757  11.061   4.402   4.204
16349W        W82758   6.596  24.510   4.138
16350W        W82759  41.184  23.453  13.968
16351W        W82760  33.637  24.101   3.977
16352W        W82761  24.955   9.980   4.223
16353W        W82762  28.401  34.875  13.214
16354W        W82763  44.062  23.965   4.445
16355W        W82764  26.243  17.265  12.764
16356W        W82765  16.082   0.535  10.123
16357W        W82766  28.582   9.742   3.582
16358W        W82767   6.668   2.541  14.467
16359W        W82768   8.802  19.105   4.586
16360W        W82769  15.421  22.169   1.103
16361W        W82770  31.344  29.422  12.982
16362W        W82771  44.105  32.396  14.953
16363W        W82772   6.377   0.562  13.037
16364W        W82773  13.696  18.483  14.846
16365W        W82774  35.390  24.114   2.592
16366W        W82775  21.207  19.802   2.847
16367W        W82776  17.377   8.829  13.374
16368W        W82777   5.384  21.561   2.921
16369W        W82778  34.915   2.601  12.160
16370W        W82779   1.702  26.006  12.955
16371W        W82780  40.860  13.952  13.587
16372W        W82781   3.990  15.562   4.614
16373W        W82782   3.001  30.505  13.028
16374W        W82783   5.430   8.966   0.183
16375W        W82784   0.508   2.163  14.371
16376W        W82785  21.953   2.511  11.611
16377W        W82786  32.656  11.240  11.973
16378W        W82787   0.493  25.957  13.936
16379W        W82788   6.939  30.025   1.866
16380W        W82789  35.084   9.234  12.564
16381W        W82790  35.625  41.424   0.877
16382W        W82791  10.714  23.151  13.085
16383W        W82792  43.907  13.298   1.700
16384W        W82793   1.936  28.494   1.732
16385W        W82794  43.662   9.664   2.707
16386W        W82795  34.658  19.844   2.776
16387W        W82796   4.275  15.749   2.415
16388W        W82797  33.552  15.262   4.033
16389W        W82798   4.974  39.468  11.874
16390W        W82799  17.034  13.666  11.938
16391W        W82800   8.780  31.591  14.774
16392W        W82801  30.725  37.103   1.957
16393W        W82802  40.816  40.046  13.427
16394W        W82803  26.142  42.985  11.995
16395W        W82804  37.612  38.499  13.914
16396W        W82805  23.150  23.314  11.230
16397W        W82806  38.105  12.936  14.720
16398W        W82807  38.438   9.532  14.339
16399W        W82808  22.502   8.150   4.185
16400W        W82809  25.159   0.397  11.518
16401W        W82810   1.261  30.254   2.885
16402W        W82811  23.964  24.361  11.980
16403W        W82812  20.729  24.034  11.765
16404W        W82813  16.028   5.130  14.989
16405W        W82814  37.191  29.923   2.330
16406W        W82815  42.660  36.904   2.719
16407W        W82816   4.564  33.469   4.050
16408W        W82817  19.562  34.184  12.924
16409W        W82818  38.910  19.195   1.909
16410W        W82819  31.043  14.104   5.201
16411W        W82820   9.811  35.513   2.271
16412W        W82821  34.920  16.323  14.877
16413W        W82822  15.860  30.538   2.426
16414W        W82823  18.374  23.509  13.442
16415W        W82824   2.384  40.346   3.733
16416W        W82825  35.499  12.614   2.373
16417W        W82826  44.445  13.583   0.190
16418W        W82827   3.405  19.293  10.977
16419W        W82828  21.989  40.390   1.425
16420W        W82829  19.115  15.610  11.989
16421W        W82830   7.134  26.519   0.012
16422W        W82831  23.991  39.561   2.434
16423W        W82832   8.324  26.624   1.767
16424W        W82833  44.984   6.666   4.389
16425W        W82834  31.383  42.443   3.108
16426W        W82835  27.173  38.967  14.828
16427W        W82836  43.955  32.967   1.760
16428W        W82837  21.648   1.023  13.427
16429W        W82838   8.018   8.424  14.456
16430W        W82839  34.108  10.291   2.654
16431W        W82840   2.879  24.890   0.474
16432W        W82841  19.610   7.743   1.235
16433W        W82842  19.348  34.472   4.572
16434W        W82843   7.153   0.780   0.790
16435W        W82844   6.908   3.773   1.813
16436W        W82845  24.423   5.253   1.386
16437W        W82846   1.683  37.380  10.614
16438W        W82847  11.465  40.282  10.745
16439W        W82848  44.217  31.505  14.479
16440W        W82849  21.752  21.221   4.414
16441W        W82850  36.459  39.088  12.396
16442W        W82851  32.018  18.295   4.613
16443W        W82852  12.763  40.063   2.785
16444W        W82853  19.619  32.339  11.533
16445W        W82854   4.395  12.431  12.509
16446W        W82855  35.608  38.373   4.071
16447W        W82856  13.885  38.829  12.918
16448W        W82857  15.776   5.085  11.035
16449W        W82858  34.091  41.623  13.162
16450W        W82859  22.588  11.056   2.724
16451W        W82860   2.979  44.046   1.504
16452W        W82861   0.701  10.355  14.063
16453W        W82862  13.468  22.663  10.461
16454W        W82863   3.420  42.413  10.500
16455W        W82864  14.893  42.608  13.748
16456W        W82865  35.223   4.242  10.124
16457W        W82866  38.518   3.354   0.882
16458W        W82867  27.085  19.992  14.095
16459W        W82868  44.755  16.728  11.557
16460W        W82869  28.888  19.720   0.442
16461W        W82870  37.154  25.784  12.093
16462W        W82871  30.785  18.380   2.731
16463W        W82872   3.696  29.450   0.341
16464W        W82873  18.370  26.976  12.260
16465W        W82874   5.754  21.496  13.034
16466W        W82875  28.538  13.352   4.845
16467W        W82876  42.054  18.244   2.779
16468W        W82877  16.668  31.658   2.279
16469W        W82878  38.924   4.423  12.149
16470W        W82879  41.047  24.983  12.919
16471W        W82880   3.894  31.464   4.207
16472W        W82881  20.644  30.437   3.773
16473W        W82882  43.349   6.890   0.365
16474W        W82883   0.297  36.027  13.376
16475W        W82884  36.301  18.226   3.770
16476W        W82885  41.449  37.450   1.336
16477W        W82886  15.670   8.265   2.067
16478W        W82887   5.508   9.312   1.841
16479W        W82888   3.210  24.645  14.852
16480W        W82889   0.206  24.598   3.687
16481W        W82890   3.879  29.944   0.324
16482W        W82891   6.429   2.653   4.189
16483W        W82892  22.736  24.218   2.707
16484W        W82893  32.050   1.110   5.395
16485W        W82894   5.466  43.244   4.621
16486W        W82895   3.825  36.738  13.965
16487W        W82896  41.568  27.083  13.777
16488W        W82897   3.640  35.098  13.316
16489W        W82898  13.030  41.713   2.350
16490W        W82899  44.673  19.708  12.414
16491W        W82900  24.995   3.825  13.843
16492W        W82901  35.065  10.711  10.596
16493W        W82902  13.529  36.984  14.813
16494W        W82903  23.978   3.513   1.142
16495W        W82904  21.839  23.869   5.040
16496W        W82905  41.811  34.863   4.642
16497W        W82906  25.222  42.942  12.822
16498W        W82907  23.281  12.945  13.911
16499W        W82908  17.998  24.541  11.676
16500W        W82909  16.804   3.975  14.572
16501W        W82910   8.374   0.970  12.525
16502W        W82911   3.546   6.225   3.710
16503W        W82912  21.181  16.215  13.985
16504W        W82913  17.347  31.546   2.244
16505W        W82914   4.241  21.797  14.516
16506W        W82915  36.750  30.575  12.857
16507W        W82916  43.150   5.218  10.649
16508W        W82917   9.215  29.133   1.408
16509W        W82918  34.078  34.054   3.352
16510W        W82919   0.254  14.892   0.809
16511W        W82920   4.318  33.274  11.238
16512W        W82921  33.071  10.140   4.016
16513W        W82922   0.907  43.879   1.131
16514W        W82923   8.214  40.277  11.128
16515W        W82924  13.546  38.555  11.977
16516W        W82925  44.340  22.989   3.710
16517W        W82926  25.702  10.796   1.216
16518W        W82927   8.262  31.096  12.978
16519W        W82928   6.092  21.924   0.010
16520W        W82929   4.929  17.642  12.215
16521W        W82930  25.553  34.653  13.091
16522W        W82931  34.628  27.484   3.549
16523W        W82932  38.374  37.118   0.743
16524W        W82933  19.999   3.768  11.288
16525W        W82934  42.422  23.061  13.766
16526W        W82935  37.213  17.899   2.740
16527W        W82936   6.722   1.682  10.388
16528W        W82937  41.150   5.522   3.641
16529W        W82938  27.086  17.697  13.001
16530W        W82939  44.163  16.204   0.251
16531W        W82940   5.688  39.309   4.753
16532W        W82941  34.784  34.971   2.217
16533W        W82942  32.551  17.138   0.864
16534W        W82943   3.383  28.499   3.706
16535W        W82944  29.292  25.138   1.852
16536W        W82945  37.510  43.300   4.579
16537W        W82946  44.522  42.860   2.455
16538W        W82947  26.047  26.395   5.694
16539W        W82948   0.579  29.369   3.783
16540W        W82949  10.785  17.208   1.267
16541W        W82950  43.312  35.375  13.795
16542W        W82951  24.934  24.677   5.215
16543W        W82952  29.208   5.839   4.292
16544W        W82953   3.905  28.110  10.703
16545W        W82954  22.773  34.789   0.802
16546W        W82955  23.535  29.765   0.423
16547W        W82956  16.226  31.569   1.985
16548W        W82957   1.382  30.096   0.290
16549W        W82958  41.555  18.797   0.902
16550W        W82959   4.762  41.265  11.540
16551W        W82960  35.011   6.641  11.573
16552W        W82961  21.544   5.414  10.752
16553W        W82962  35.274  20.622  10.640
16554W        W82963   7.796   8.629   4.132
16555W        W82964  10.134  18.753   0.229
16556W        W82965  34.289   6.612   1.850
16557W        W82966   6.349  25.972   2.181
16558W        W82967  38.924  18.914  14.599
16559W        W82968  14.671   0.298   3.161
16560W        W82969   2.304  24.034   2.143
16561W        W82970  20.065  41.945   1.472
16562W        W82971  23.940  10.350  12.977
16563W        W82972  33.641  42.412   4.256
16564W        W82973   5.245  25.657   1.650
16565W        W82974  37.579  19.217  13.259
16566W        W82975  31.476  44.822   0.065
16567W        W82976  15.810  38.364   2.803
16568W        W82977  38.931  15.047   2.169
16569W        W82978  16.341  44.725   3.280
16570W        W82979  26.773  12.092   4.032
16571W        W82980  42.546  15.816   4.080
16572W        W82981   9.182   6.752   0.221
16573W        W82982   0.486   7.609   3.354
16574W        W82983  33.740  44.218   3.683
16575W        W82984  38.440  40.839   3.161
16576W        W82985  21.531  37.796  12.891
16577W        W82986  39.804  20.080   1.027
16578W        W82987  14.116  44.924  13.372
16579W        W82988  33.875  42.923  13.973
16580W        W82989  28.405  11.975  13.393
16581W        W82990  28.670  28.186   1.322
16582W        W82991  26.055  33.599  11.187
16583W        W82992  44.333  31.106   2.380
16584W        W82993  18.184  36.160   0.770
16585W        W82994  32.680  29.589  13.329
16586W        W82995  34.710  22.529   0.395
16587W        W82996  28.186  44.014   3.082
16588W        W82997  43.543   7.201  11.156
16589W        W82998  37.957  23.170  12.068
16590W        W82999  38.034  32.826  13.459
16591W        W83000   8.584  18.611   1.716
16592W        W83001  15.752  38.621  11.376
16593W        W83002  14.378  15.204  10.518
16594W        W83003  11.252  16.606   4.100
16595W        W83004  24.609  28.475   2.481
16596W        W83005  20.729   4.839  11.066
16597W        W83006  23.042  19.574  11.869
16598W        W83007  12.104  38.683  12.801
16599W        W83008   7.233  32.070  11.640
16600W        W83009   6.868  40.018   0.347
16601W        W83010  29.152  20.155  14.735
16602W        W83011  20.131   4.626  11.055
16603W        W83012   9.751  22.084  11.517
16604W        W83013   6.848  13.507  13.721
16605W        W83014  30.636  18.431  11.031
16606W        W83015  36.973  33.149   1.502
16607W        W83016  13.645   0.998  11.401
16608W        W83017  31.899  26.035   4.660
16609W        W83018  29.183  16.174   4.610
16610W        W83019   8.560  33.623   3.924
16611W        W83020  20.128  15.283  13.961
16612W        W83021  40.696  33.048   4.064
16613W        W83022   6.292   1.858  10.152
16614W        W83023  32.933  16.739   1.933
16615W        W83024  28.390  19.656  10.343
16616W        W83025   2.037  33.666   1.494
16617W        W83026  11.898  19.908  14.483
16618W        W83027  19.438   4.121  14.456
16619W        W83028  22.103   0.251  10.546
16620W        W83029  36.902   5.375  11.132
16621W        W83030  38.283  12.269  12.329
16622W        W83031  14.383  40.782   5.025
16623W        W83032  21.101   9.009   0.365
16624W        W83033   6.876   0.903   3.953
16625W        W83034  35.476  22.732   2.315
16626W        W83035  31.943  15.126   3.115
16627W        W83036   7.239  36.551   1.434
16628W        W83037   5.344  34.380  13.845
16629W        W83038  32.964   8.831  13.616
16630W        W83039  28.682   2.263  13.267
16631W        W83040  28.918  33.081  10.768
16632W        W83041   4.492   6.277   1.402
16633W        W83042  29.286  24.283  14.321
16634W        W83043  15.848  19.108   0.756
16635W        W83044   1.768   1.138  12.930
16636W        W83045  42.045  40.913  10.667
16637W        W83046  28.026  27.556   2.238
16638W        W83047   2.278  29.979   3.739
16639W        W83048  14.283   6.449  14.527
16640W        W83049  35.953  42.433   4.524
16641W        W83050  18.751  13.160   3.376
16642W        W83051  34.097  33.467  11.066
16643W        W83052  25.178  39.750   4.313
16644W        W83053  31.609   0.465   0.712
16645W        W83054  41.670  44.369  10.987
16646W        W83055   1.386  29.297  13.895
16647W        W83056  30.113  34.810   3.486
16648W        W83057  40.581  22.782  13.960
16649W        W83058  40.568  35.053   3.162
16650W        W83059  16.348  23.501   1.431
16651W        W83060   8.963  35.185   0.835
16652W        W83061   9.470  34.488  12.127
16653W        W83062  30.301  36.800   0.326
16654W        W83063  34.498  29.544  13.031
16655W        W83064   3.246  32.428   0.586
16656W        W83065   2.916  11.481  12.897
16657W        W83066   9.837   6.955  13.784
16658W        W83067  39.314  28.465   2.262
16659W        W83068  25.093  29.503   1.675
16660W        W83069  43.090  40.801  12.994
16661W        W83070  17.678  14.888  12.912
16662W        W83071   3.593  37.541   4.132
16663W        W83072  18.288   6.446  14.132
16664W        W83073   6.452  11.584  12.609
16665W        W83074   6.794   3.017  12.694
16666W        W83075  15.051  24.135  14.247
16667W        W83076   6.488  10.319  13.021
16668W        W83077  19.320  21.090  11.915
16669W        W83078  23.695  44.655   0.403
16670W        W83079   6.336  30.683   1.810
16671W        W83080  22.442   8.755  12.049
16672W        W83081   5.410  12.268  11.686
16673W        W83082  36.744   2.860   1.259
16674W        W83083  42.630   3.407   4.149
16675W        W83084  44.402  34.951   2.130
16676W        W83085  20.276   7.268  13.012
16677W        W83086   1.646  36.624   2.825
16678W        W83087  11.608  39.045   1.099
16679W        W83088  13.887   5.941   0.331
16680W        W83089  24.738  21.120   4.942
16681W        W83090   6.206  14.002  10.290
16682W        W83091  10.853   6.265  10.502
16683W        W83092  17.782  39.138  10.666
16684W        W83093  39.469  11.676   4.625
16685W        W83094  12.730  35.624   0.955
16686W        W83095  40.002  23.673  10.442
16687W        W83096  32.525  20.042  11.834
16688W        W83097  29.709   8.960   1.416
16689W        W83098  30.328  23.403  14.825
16690W        W83099  12.653  18.704   2.441
16691W        W83100  33.221   9.293  14.989
16692W        W83101  34.158  25.775  13.474
16693W        W83102  16.628  36.073   2.285
16694W        W83103  27.650  23.638  14.331
16695W        W83104  24.661   6.815  12.519
16696W        W83105  33.070  44.085  13.863
16697W        W83106   7.288  25.962  14.517
16698W        W83107  17.415  34.892   1.954
16699W        W83108   2.801   0.764  11.494
16700W        W83109  25.554  11.819   1.727
16701W        W83110   1.744  24.424  11.118
16702W        W83111   1.969  18.969   3.992
16703W        W83112   7.179  24.884  12.911
16704W        W83113  35.769  32.906  14.291
16705W        W83114  15.678   7.925   3.220
16706W        W83115  39.116  25.539   4.058
16707W        W83116   3.276   7.185   1.340
16708W        W83117   7.302  15.082  11.992
16709W        W83118   3.830  44.719  12.106
16710W        W83119  21.719  22.590   4.868
16711W        W83120   0.911  38.080  10.617
16712W        W83121  27.384  21.919  14.863
16713W        W83122  21.559  35.044   2.219
16714W        W83123  15.662   0.849  12.609
16715W        W83124   3.380   7.202   0.250
16716W        W83125   5.412  23.234  10.770
16717W        W83126  35.865   6.710  13.039
16718W        W83127   4.716  30.082  10.683
16719W        W83128  12.331   3.005   1.470
16720W        W83129  14.894  29.408   0.089
16721W        W83130  29.889  38.806  10.770
16722W        W83131  29.205  25.163  14.692
16723W        W83132  20.812  20.631   1.344
16724W        W83133  40.062  23.463  11.714
16725W        W83134   6.371  15.781  10.258
16726W        W83135  33.291  40.242  12.028
16727W        W83136  30.447  21.100   2.787
16728W        W83137  19.701  34.184   2.850
16729W        W83138  12.295  19.086  10.224
16730W        W83139   8.600  40.645  11.066
16731W        W83140  39.033  37.072   3.564
16732W        W83141  19.326  37.961  13.981
16733W        W83142  17.214  41.961   1.438
16734W        W83143  21.232   8.356  12.120
16735W        W83144   8.902  40.274   0.882
16736W        W83145  20.821  11.185  13.767
16737W        W83146  23.039   3.298   0.128
16738W        W83147   6.019  29.045   9.984
16739W        W83148   7.353  21.365  10.246
16740W        W83149   0.416  42.525   2.304
16741W        W83150  41.800  33.545   1.755
16742W        W83151  14.144  43.594  10.549
16743W        W83152  24.280  19.551   2.767
16744W        W83153   8.221  13.545  13.881
16745W        W83154   1.813  29.546   1.883
16746W        W83155  12.442  32.406   1.595
16747W        W83156   7.756  40.716   4.547
16748W        W83157   8.241  29.402  11.054
16749W        W83158   1.477   1.937  11.399
16750W        W83159   5.940   0.941   2.444
16751W        W83160  38.113  15.534   2.897
16752W        W83161  28.786  26.024   1.949
16753W        W83162  41.841  38.466   1.785
16754W        W83163  18.292  38.208   4.219
16755W        W83164   9.182  19.494  13.413
16756W        W83165  37.519  43.329   3.660
16757W        W83166   7.823  40.074  14.384
16758W        W83167  33.938  42.380   1.342
16759W        W83168  15.374  13.198   4.593
16760W        W83169   0.195  31.160  12.082
16761W        W83170  15.127  24.737   0.005
16762W        W83171  14.133   6.809  14.003
16763W        W83172  44.859  19.317   3.717
16764W        W83173  21.972  42.436  11.973
16765W        W83174  21.749   4.304  14.814
16766W        W83175   1.913  35.440  12.088
16767W        W83176   2.673  19.807   0.827
16768W        W83177  18.433  36.400   0.151
16769W        W83178  15.226   7.185   2.223
16770W        W83179  32.891  38.527  13.995
16771W        W83180  21.044  11.976  12.979
16772W        W83181  20.639  30.818  13.563
16773W        W83182  18.261  28.730  13.964
16774W        W83183  37.060  37.877   2.837
16775W        W83184  10.182  20.089  12.112
16776W        W83185   2.589  41.857  11.660
16777W        W83186   9.297  37.511   2.805
16778W        W83187  14.491   4.288   0.005
16779W        W83188   6.403  13.721  12.535
16780W        W83189  35.864  17.461   5.562
16781W        W83190  44.946   3.417   2.831
16782W        W83191  10.688  12.123  14.772
16783W        W83192  43.908   4.969  14.051
16784W        W83193  38.736  39.812  14.560
16785W        W83194  33.571  17.501   3.387
16786W        W83195  23.604  44.899   4.625
16787W        W83196  26.679  23.618   3.815
16788W        W83197  13.871  33.144   2.700
16789W        W83198  21.995  33.025   4.662
16790W        W83199  28.950   5.516  11.945
16791W        W83200  40.853   8.895  11.361
16792W        W83201  30.649  39.896   1.474
16793W        W83202   5.505  14.317  12.995
16794W        W83203   6.782   2.255  14.895
16795W        W83204  43.294  34.662  13.822
16796W        W83205  23.270  20.008  13.814
16797W        W83206  33.692  17.384  14.926
16798W        W83207  24.801  40.882  13.538
16799W        W83208  41.334   5.873   2.630
16800W        W83209  32.087  41.935  14.113
16801W        W83210  14.807  11.376   4.587
16802W        W83211  32.612  10.228   4.306
16803W        W83212   6.941  16.308  13.562
16804W        W83213  29.881  43.420  11.477
16805W        W83214  38.351  24.520   3.839
16806W        W83215  14.218  35.102  14.444
16807W        W83216  16.293  14.855   3.229
16808W        W83217  42.536  17.137  13.366
16809W        W83218  32.935   5.194   3.019
16810W        W83219  23.309   7.355   3.400
16811W        W83220  20.854  22.149   3.254
16812W        W83221  26.319  31.685  10.338
16813W        W83222  30.587  30.099   3.089
16814W        W83223  40.895   7.672   3.201
16815W        W83224  19.107  16.070  11.080
16816W        W83225  33.157   3.778  11.449
16817W        W83226   3.129  31.399   0.369
16818W        W83227  35.656  26.224   4.151
16819W        W83228   4.420  33.862   2.306
16820W        W83229   2.524  23.545   0.351
16821W        W83230  24.704   9.764  12.958
16822W        W83231   7.680   6.790   2.779
16823W        W83232  32.917  29.926  12.562
16824W        W83233  25.914  25.496   9.779
16825W        W83234  39.844  29.269  11.786
16826W        W83235  31.464   0.902  11.922
16827W        W83236   3.676  14.127  11.923
16828W        W83237  36.994   6.970  11.666
16829W        W83238  39.446  24.447  10.773
16830W        W83239  21.651   1.661  14.681
16831W        W83240  11.020  23.599   5.019
16832W        W83241  14.146  32.619   3.881
16833W        W83242   9.567  20.807  13.403
16834W        W83243  15.826   8.870   0.313
16835W        W83244  15.245  35.978  11.480
16836W        W83245  42.996  17.348   2.863
16837W        W83246  35.339  25.475   1.421
16838W        W83247  29.490  15.534  13.561
16839W        W83248   2.422  29.523   0.688
16840W        W83249  28.673  39.315   1.177
16841W        W83250   3.241  20.240  14.871
16842W        W83251  39.303  26.726  12.327
16843W        W83252  24.771   2.342   4.117
16844W        W83253   6.422  16.351   3.809
16845W        W83254  34.583   8.263   0.551
16846W        W83255  19.696  30.155  10.619
16847W        W83256  28.390  39.493  10.582
16848W        W83257  29.582  23.745  12.553
16849W        W83258  35.523  25.413   3.695
16850W        W83259  20.627  29.903  13.981
16851W        W83260  11.720  40.715  14.853
16852W        W83261  24.699  17.533   2.267
16853W        W83262  37.592  35.396  13.520
16854W        W83263  44.434   6.340  10.768
16855W        W83264   5.710   8.887   4.540
16856W        W83265  18.330  29.928   4.954
16857W        W83266  31.480  39.109   4.689
16858W        W83267  27.729  25.717   0.359
16859W        W83268   6.301  17.595  13.172
16860W        W83269  32.690  25.623  14.521
16861W        W83270  38.597  24.242  10.804
16862W        W83271  10.383  30.778   5.444
16863W        W83272  31.944  41.851   3.229
16864W        W83273  28.199  13.786   0.417
16865W        W83274   7.230   2.304   3.685
16866W        W83275  17.176   9.292  11.375
16867W        W83276  38.252  32.851  10.719
16868W        W83277   2.275  19.202   4.645
16869W        W83278  23.250   9.079  11.125
16870W        W83279  27.798  19.990  14.777
16871W        W83280  23.048  24.626   3.136
16872W        W83281   2.273  31.514  11.144
16873W        W83282   4.880  41.890   1.740
16874W        W83283  42.758   7.516   1.458
16875W        W83284   6.766  28.924  14.798
16876W        W83285  32.552  40.505  13.353
16877W        W83286   6.504  30.078   2.403
16878W        W83287  37.054  40.749  13.027
16879W        W83288  10.251   2.820  11.400
16880W        W83289  29.041  29.285  10.517
16881W        W83290  35.640  32.775   0.398
16882W        W83291  15.636  16.597  10.400
16883W        W83292  30.754  20.494   3.133
16884W        W83293   8.693  25.936  13.397
16885W        W83294  22.152  22.210   2.159
16886W        W83295   1.875   5.947   4.012
16887W        W83296  12.548  22.999   1.865
16888W        W83297   2.707  32.177  13.383
16889W        W83298  44.298   8.288   0.215
16890W        W83299  34.472  18.619  12.519
16891W        W83300   9.830  37.851   0.791
16892W        W83301   0.025  12.665  14.515
16893W        W83302  17.135  14.622   2.792
16894W        W83303  35.777  27.155   2.243
16895W        W83304  23.278   5.186  13.436
16896W        W83305  25.029  20.766  13.854
16897W        W83306   2.004   0.824   4.571
16898W        W83307   2.769   5.903   3.726
16899W        W83308  17.587  12.696   1.602
16900W        W83309  39.588   8.730   1.945
16901W        W83310  24.188  14.656  12.508
16902W        W83311  16.554  18.840   2.758
16903W        W83312  28.666  35.637   1.364
16904W        W83313  29.066  31.518  10.916
16905W        W83314  21.097  25.846   4.002
16906W        W83315  31.562  35.683  12.234
16907W        W83316   2.217  20.481   2.474
16908W        W83317  25.419   2.664  14.368
16909W        W83318  25.042  24.944   2.364
16910W        W83319  23.594  36.446   0.361
16911W        W83320   0.153  24.574   1.715
16912W        W83321   0.729   0.768   4.368
16913W        W83322  27.848   9.282   1.453
16914W        W83323  19.121  37.486   1.219
16915W        W83324  39.475  26.561   3.267
16916W        W83325   9.389  25.481  11.467
16917W        W83326  33.265  42.339   3.899
16918W        W83327  26.737  43.963  13.904
16919W        W83328  38.475  22.796   3.304
16920W        W83329  41.899  39.891   0.870
16921W        W83330   0.265  24.198  14.291
16922W        W83331   3.260  20.541   3.210
16923W        W83332  43.456  25.216   4.240
16924W        W83333  21.534   1.216  11.192
16925W        W83334  20.128  18.192   2.055
16926W        W83335  27.544  42.833   0.848
16927W        W83336  43.341  28.540  11.269
16928W        W83337  27.310  34.541   1.153
16929W        W83338  41.481  20.862  11.083
16930W        W83339   3.373  14.194  12.321
16931W        W83340  26.861   4.853  10.785
16932W        W83341  27.476   8.337  12.017
16933W        W83342  17.347   2.591  11.988
16934W        W83343  26.217   9.766  14.307
16935W        W83344  32.559  40.012   1.147
16936W        W83345  27.597   8.759  11.232
16937W        W83346  35.525  39.803  14.926
16938W        W83347  18.434  12.268   0.389
16939W        W83348  44.317  26.111  10.645
16940W        W83349  26.247   1.413   2.897
16941W        W83350  11.854   3.023  11.064
16942W        W83351  10.330  35.408   1.851
16943W        W83352  23.621  22.195  12.602
16944W        W83353  22.847  17.767   1.310
16945W        W83354  38.295  32.074  13.295
16946W        W83355   1.107  42.059   2.664
16947W        W83356  22.787  33.479   2.918
16948W        W83357  36.967   0.504   3.257
16949W        W83358  27.301  36.814  12.435
16950W        W83359  34.356  20.954  12.397
16951W        W83360   4.455  14.287  10.745
16952W        W83361   8.371   6.029   1.524
16953W        W83362  38.591  35.974   2.214
16954W        W83363   7.440   1.257   1.860
16955W        W83364  22.458  37.475  12.199
16956W        W83365  10.116  38.347  11.073
16957W        W83366  37.567  10.135  14.285
16958W        W83367  26.477   6.138   4.148
16959W        W83368  15.661  13.180  13.943
16960W        W83369  33.063  36.494   3.883
16961W        W83370  11.601  41.428   2.864
16962W        W83371  16.645  10.756   2.608
16963W        W83372  10.813  11.920  13.006
16964W        W83373  41.401  26.212  10.262
16965W        W83374  12.328   0.251   3.620
16966W        W83375   7.672  35.593  11.176
16967W        W83376  24.937  29.121  14.490
16968W        W83377  25.296  40.253  11.113
16969W        W83378  40.152  40.027  11.924
16970W        W83379  35.426  18.225  12.422
16971W        W83380  24.992  21.283  13.852
16972W        W83381  43.837  32.628  13.279
16973W        W83382  17.216   8.348  13.219
16974W        W83383  13.150  29.708  14.086
16975W        W83384   5.344  10.453  14.983
16976W        W83385  16.308  20.649  13.230
16977W        W83386  27.085  14.656  11.971
16978W        W83387  25.494  18.618  13.823
16979W        W83388  42.752  34.522  10.599
16980W        W83389  12.488   2.520   2.293
16981W        W83390  39.132   0.480  12.508
16982W        W83391  16.842   2.026   0.236
16983W        W83392  41.814  14.137   4.347
16984W        W83393   2.359   8.733  10.618
16985W        W83394  43.424   7.189   5.329
16986W        W83395   6.025  28.486  11.698
16987W        W83396  19.756  15.224   4.149
16988W        W83397   6.605  27.861   3.079
16989W        W83398  20.673  38.597  14.518
16990W        W83399  30.716   4.296   4.227
16991W        W83400   4.451  29.379  13.558
16992W        W83401  37.892   1.801  13.117
16993W        W83402  25.711  15.710  13.322
16994W        W83403  37.557  13.324  12.984
16995W        W83404  26.824  17.196   0.726
16996W        W83405  27.566  10.969  12.056
16997W        W83406  10.664   4.943   4.084
16998W        W83407  39.738   0.596   3.126
16999W        W83408  34.591   1.213  11.139
17000W        W83409  44.062  32.471   0.780
17001W        W83410  12.705  18.122  11.866
17002W        W83411  13.839   3.814  11.918
17003W        W83412  17.110  30.122  13.453
17004W        W83413  18.229  17.953  14.955
17005W        W83414  34.360  15.071   0.882
17006W        W83415   3.014  28.628  14.856
17007W        W83416  22.113  26.557   3.630
17008W        W83417  36.000  16.737   3.426
17009W        W83418  32.843  24.403  14.906
17010W        W83419  34.455  11.199  10.829
17011W        W83420   1.493  15.891   3.315
17012W        W83421  18.357  31.133   3.059
17013W        W83422   0.478  34.537   3.161
17014W        W83423   7.910  24.225   0.209
17015W        W83424  12.743   1.858  13.686
17016W        W83425   4.590  26.929  11.925
17017W        W83426  39.179  37.348   3.143
17018W        W83427  18.660  38.413  11.510
17019W        W83428  22.803  22.185  11.019
17020W        W83429  24.638  13.694   4.321
17021W        W83430  28.516   4.166   4.978
17022W        W83431  24.633  42.574  13.392
17023W        W83432  17.379  30.829   4.323
17024W        W83433  34.417   1.694  14.374
17025W        W83434  32.961  39.272  11.558
17026W        W83435  37.855  25.757  13.359
17027W        W83436   4.933  13.995  11.908
17028W        W83437  37.847  27.392   1.363
17029W        W83438   4.781  41.948   0.260
17030W        W83439   2.823  42.477  11.212
17031W        W83440  39.332  11.048   3.463
17032W        W83441  21.050  26.677  13.940
17033W        W83442  14.191  34.856   3.141
17034W        W83443  43.791  22.781   0.003
17035W        W83444  20.612  27.421   3.401
17036W        W83445  31.207  21.125   2.324
17037W        W83446  21.002  39.020   2.910
17038W        W83447  25.191  29.169   3.599
17039W        W83448   0.333  14.761   2.553
17040W        W83449  19.402  33.631   3.347
17041W        W83450  33.146  22.169   3.680
17042W        W83451   0.777  19.764  12.513
17043W        W83452  36.269  40.884  11.529
17044W        W83453   4.943  20.071  14.308
17045W        W83454  41.548  44.719   1.652
17046W        W83455  32.751   4.029   0.443
17047W        W83456  42.248  34.906   3.874
17048W        W83457  23.109  26.724  13.778
17049W        W83458  33.024  43.650  12.904
17050W        W83459  23.452   5.923  11.539
17051W        W83460   6.919  35.557  13.334
17052W        W83461  44.955  33.367   3.266
17053W        W83462  39.101  41.966  13.915
17054W        W83463  33.446  26.398   3.875
17055W        W83464   4.058  14.944  12.087
17056W        W83465  24.474  14.767   0.071
17057W        W83466  16.088  21.562  14.404
17058W        W83467  24.545   4.517   2.857
17059W        W83468  12.126  36.428  11.862
17060W        W83469  23.014   4.750  10.663
17061W        W83470  32.555  29.081   0.363
17062W        W83471  44.291  21.066  13.845
17063W        W83472  38.870  14.313  10.649
17064W        W83473  26.010   1.233   0.401
17065W        W83474  33.188  32.804  12.934
17066W        W83475  41.635  21.004   1.302
17067W        W83476  10.959   2.297  14.732
17068W        W83477  43.170  19.447   1.314
17069W        W83478  29.423  32.374  11.605
17070W        W83479  18.251  29.439   2.684
17071W        W83480  24.932  24.627  14.485
17072W        W83481  41.074  26.223   1.305
17073W        W83482   6.683   0.288   2.834
17074W        W83483  43.730  36.069   3.607
17075W        W83484  21.792  29.042   1.922
17076W        W83485   7.198  19.695  12.079
17077W        W83486  32.849  37.105   0.704
17078W        W83487  25.141  41.051   2.349
17079W        W83488  12.519  35.070   2.844
17080W        W83489   1.244  14.551  12.007
17081W        W83490   7.309  13.265  10.716
17082W        W83491  31.585  34.936  14.016
17083W        W83492  31.148  41.448   2.202
17084W        W83493   9.245   5.325  12.113
17085W        W83494   6.221  19.176   3.209
17086W        W83495   6.729  35.134  12.482
17087W        W83496  23.779  38.581  10.761
17088W        W83497  40.381  24.578   3.110
17089W        W83498  38.619  15.286   0.809
17090W        W83499  44.048  25.562  14.374
17091W        W83500  44.339  22.579   1.662
17092W        W83501  35.939  35.809  14.478
17093W        W83502  14.746   7.844   0.306
17094W        W83503   0.101   0.423  14.539
17095W        W83504  19.798  35.088   3.023
17096W        W83505  21.471  19.573   4.676
17097W        W83506  23.450  38.547  11.174
17098W        W83507  38.595   9.174   1.284
17099W        W83508   2.195  31.927   3.219
17100W        W83509  26.637  25.001   2.352
17101W        W83510  34.999  24.539   1.456
17102W        W83511  30.592  37.639   2.768
17103W        W83512   7.951  35.394   0.809
17104W        W83513  13.574   0.052   4.103
17105W        W83514  15.717  23.199   4.121
17106W        W83515  40.881  41.871  13.618
17107W        W83516  19.816  12.701  11.180
17108W        W83517   4.898   8.888   2.294
17109W        W83518  38.506  14.191  14.249
17110W        W83519  16.222   9.858   0.374
17111W        W83520  26.981  24.729   3.604
17112W        W83521  28.003  44.525  14.062
17113W        W83522   5.707  40.937  14.943
17114W        W83523   3.268  32.356   2.066
17115W        W83524  25.054  33.021   0.393
17116W        W83525  23.627  39.586  14.979
17117W        W83526  30.704  40.058   3.238
17118W        W83527   9.148  14.619   3.366
17119W        W83528  32.504  44.726   3.530
17120W        W83529  22.502  40.344   4.153
17121W        W83530   0.990  11.217   2.796
17122W        W83531  21.040  36.622   4.525
17123W        W83532   7.823   0.284  10.676
17124W        W83533  27.935  11.939   4.141
17125W        W83534  28.659  20.194  14.526
17126W        W83535  38.556  15.625   5.380
17127W        W83536  36.832  31.969   3.978
17128W        W83537  25.148   7.344  11.187
17129W        W83538  18.207  15.326  14.353
17130W        W83539  22.688  12.800  14.442
17131W        W83540  30.373  13.822  14.744
17132W        W83541  14.122  13.721  10.995
17133W        W83542  17.054  24.658   4.275
17134W        W83543  35.123  25.469  11.083
17135W        W83544  14.666  26.010   2.929
17136W        W83545  34.842  41.265  14.391
17137W        W83546  19.819  10.966  13.374
17138W        W83547  37.745  31.179   1.865
17139W        W83548  10.750  37.099  14.565
17140W        W83549   9.024  20.752  12.003
17141W        W83550  34.687   5.396   3.391
17142W        W83551  33.660   1.991  13.053
17143W        W83552   4.180  18.379  12.895
17144W        W83553  36.517  15.184   0.244
17145W        W83554  28.294  11.520   3.699
17146W        W83555  16.334  19.330   1.792
17147W        W83556  17.670  22.040  13.462
17148W        W83557  11.541  10.691  14.120
17149W        W83558  41.455  18.619   3.414
17150W        W83559  33.096   1.198   5.049
17151W        W83560  42.331  13.919  11.604
17152W        W83561   5.700  36.538  14.781
17153W        W83562   9.153  21.462   1.931
17154W        W83563   3.888   7.227  14.579
17155W        W83564  33.945  38.594  12.949
17156W        W83565  20.711  21.213   3.292
17157W        W83566  28.875  42.526   2.309
17158W        W83567  25.053  34.917   2.775
17159W        W83568  41.113  33.503   0.339
17160W        W83569  40.920  28.587   3.851
17161W        W83570  44.932  43.635   3.667
17162W        W83571   7.811  10.043   5.054
17163W        W83572  33.532   4.670  14.522
17164W        W83573  18.220  18.589  13.020
17165W        W83574  42.667  21.802   3.153
17166W        W83575  41.333   8.249   2.637
17167W        W83576  41.924  44.723  11.996
17168W        W83577   8.651   1.893  14.909
17169W        W83578  21.943  44.819   3.148
17170W        W83579  28.505  18.759   3.881
17171W        W83580  23.110   2.908   1.346
17172W        W83581  15.743  18.167  11.626
17173W        W83582  30.219   8.174  11.389
17174W        W83583   0.719  21.108   2.855
17175W        W83584  21.327  29.023  11.248
17176W        W83585   3.006  14.137   2.655
17177W        W83586   5.126   8.725  14.841
17178W        W83587  28.603  11.860   4.616
17179W        W83588  18.045  14.679   1.736
17180W        W83589  26.331  37.140  12.488
17181W        W83590   7.886  18.704   0.815
17182W        W83591  23.245  30.101   1.943
17183W        W83592   2.382  44.494  11.685
17184W        W83593  36.829  20.114  12.741
17185W        W83594   6.734   9.717  10.769
17186W        W83595   5.912  41.909  14.308
17187W        W83596   2.740  20.132  12.339
17188W        W83597  24.263  42.516   2.895
17189W        W83598  40.442   1.205  11.643
17190W        W83599  17.636   1.395   1.442
17191W        W83600  44.705   5.675  14.939
17192W        W83601  16.506  39.022  11.350
17193W        W83602  43.349  29.736   2.838
17194W        W83603   8.150  21.571  12.536
17195W        W83604  37.510  11.371  11.187
17196W        W83605  33.626  37.090  11.654
17197W        W83606  16.080  43.486   3.146
17198W        W83607  40.631  21.751  14.424
17199W        W83608  29.526   4.473   1.448
17200W        W83609  37.253  29.502   3.782
17201W        W83610  28.866  43.843   1.742
17202W        W83611  40.410  27.752   1.141
17203W        W83612  30.148   1.812  12.403
17204W        W83613  20.254  35.062   1.360
17205W        W83614   6.400  34.771  10.785
17206W        W83615  34.334   6.189   0.576
17207W        W83616   7.350  41.408  13.946
17208W        W83617  27.540  33.077   0.694
17209W        W83618  18.279  20.171  13.968
17210W        W83619   3.768  16.860   0.421
17211W        W83620  11.188  26.965  10.776
17212W        W83621  28.481  32.421  10.633
17213W        W83622  42.966   5.634  11.578
17214W        W83623  36.056  33.468  13.680
17215W        W83624   0.671  18.184  12.414
17216W        W83625  36.405  22.057  12.037
17217W        W83626  17.363  31.033  14.770
17218W        W83627  18.557  27.088  12.821
17219W        W83628  37.592  29.505   2.204
17220W        W83629   3.224  23.191   2.168
17221W        W83630   4.355  36.388   3.305
17222W        W83631   4.451   8.406   4.160
17223W        W83632  20.643  19.804  13.870
17224W        W83633  10.043  41.662   3.523
17225W        W83634   6.733  20.382  14.346
17226W        W83635  37.857  25.229   3.654
17227W        W83636  43.360  38.076   3.370
17228W        W83637  43.948  16.257   4.859
17229W        W83638  24.465   5.284  10.663
17230W        W83639   4.038   2.584   4.093
17231W        W83640  16.700  20.514  11.407
17232W        W83641  43.333   1.323   1.795
17233W        W83642  11.254  24.972  14.141
17234W        W83643  39.790   8.265   0.601
17235W        W83644   6.636  44.605  12.892
17236W        W83645  42.046  24.550   0.302
17237W        W83646  34.071  27.711   1.196
17238W        W83647  20.056  18.418   0.563
17239W        W83648  33.816  11.133   1.023
17240W        W83649   9.803  41.530   4.716
17241W        W83650  28.533  39.741   1.419
17242W        W83651  30.142   2.389  11.048
17243W        W83652  38.996  16.575  10.064
17244W        W83653  25.694   5.287  13.932
17245W        W83654  23.944  31.662  13.328
17246W        W83655  25.037  20.785   0.300
17247W        W83656  41.510  11.359  14.266
17248W        W83657  23.961  11.090   3.732
17249W        W83658  33.506  14.208   4.922
17250W        W83659  14.020   4.350   0.220
17251W        W83660  25.787  37.844  11.181
17252W        W83661   4.009  27.675  13.480
17253W        W83662   7.701  29.562   3.391
17254W        W83663  26.548  27.734   2.665
17255W        W83664   2.816  40.310   4.218
17256W        W83665  37.152   0.745  10.742
17257W        W83666  44.582  18.177  11.260
17258W        W83667   2.630   7.181  14.498
17259W        W83668  19.781  40.507  10.682
17260W        W83669  16.084   1.078  12.390
17261W        W83670   2.155  29.935  12.864
17262W        W83671   4.961  23.461   2.449
17263W        W83672   9.827  27.066  14.106
17264W        W83673  24.486  14.231  14.933
17265W        W83674  34.512  17.834  11.692
17266W        W83675  21.063  44.487  13.915
17267W        W83676  28.080  29.030  10.845
17268W        W83677  22.057  29.620  14.171
17269W        W83678  36.882  16.522   3.389
17270W        W83679  30.905  29.940   4.084
17271W        W83680  40.213  27.689   2.710
17272W        W83681  20.969   0.605   4.279
17273W        W83682  41.741  30.182  12.079
17274W        W83683   3.850   3.175   1.256
17275W        W83684  15.866  44.979   4.834
17276W        W83685  22.739  11.184  12.907
17277W        W83686  23.630   1.069  11.112
17278W        W83687  23.713  25.544   4.631
17279W        W83688  38.535  24.621  11.173
17280W        W83689  41.302  19.060  12.609
17281W        W83690   0.742  23.259   0.783
17282W        W83691  43.107  35.182   4.546
17283W        W83692  35.860  35.017  14.080
17284W        W83693  10.142  42.048  13.441
17285W        W83694  37.610  19.168   1.721
17286W        W83695   3.301  44.496  11.555
17287W        W83696  11.122  13.581   0.490
17288W        W83697   3.183   6.406  11.892
17289W        W83698   5.765  36.365  10.583
17290W        W83699   4.220   6.339  11.004
17291W        W83700   1.689  37.502   4.118
17292W        W83701   5.993  14.132  14.749
17293W        W83702  39.076   8.909   3.030
17294W        W83703  36.999   0.898  13.633
17295W        W83704  38.345  35.877  11.120
17296W        W83705  38.887  18.705  11.727
17297W        W83706   7.191  21.021   1.386
17298W        W83707  34.638  13.646  12.922
17299W        W83708  17.004  30.228   1.283
17300W        W83709  25.624   1.973   4.693
17301W        W83710  28.276  37.766  11.673
17302W        W83711  13.310  29.146   3.691
17303W        W83712   8.357  27.668  10.568
17304W        W83713  32.606  17.607   3.749
17305W        W83714  20.708  12.413  14.817
17306W        W83715  22.226  28.130  14.723
17307W        W83716  34.687  39.148  10.267
17308W        W83717  36.540   1.313   1.356
17309W        W83718  36.577  35.954  11.007
17310W        W83719  20.363  29.516  11.970
17311W        W83720  39.414   5.309  12.497
17312W        W83721  33.672  19.073  11.554
17313W        W83722  39.250  26.542  13.969
17314W        W83723  16.277  19.562   4.655
17315W        W83724  44.838  15.132   2.902
17316W        W83725  11.926  44.892   4.942
17317W        W83726  41.831   3.270  12.897
17318W        W83727  30.318  31.935   1.319
17319W        W83728  33.122   3.415  10.321
17320W        W83729   0.702  41.648   1.281
17321W        W83730   5.832   1.810  10.903
17322W        W83731  30.717  30.819   1.327
17323W        W83732  37.003  42.718   2.674
17324W        W83733  20.620   8.027   4.006
17325W        W83734  23.695  29.104   4.533
17326W        W83735  37.914   5.036   4.224
17327W        W83736  29.010  34.481  13.713
17328W        W83737  36.882  18.262  14.559
17329W        W83738  24.463  12.333   2.279
17330W        W83739  32.499  25.220   1.962
17331W        W83740  27.577  25.582  11.544
17332W        W83741  25.184  23.754  12.793
17333W        W83742  24.436  10.386  11.656
17334W        W83743   5.759  40.589   4.415
17335W        W83744  15.558  19.276  11.345
17336W        W83745  39.926  34.100   4.719
17337W        W83746  38.035  23.058   4.863
17338W        W83747  41.381  27.021  14.851
17339W        W83748  15.908  23.860   5.029
17340W        W83749   1.859  25.972  10.835
17341W        W83750  22.268   2.575   2.720
17342W        W83751  22.427  30.533  12.044
17343W        W83752  20.100  32.469  11.627
17344W        W83753  42.777   8.679   4.535
17345W        W83754  44.563   2.387  12.756
17346W        W83755  26.768   4.464   1.351
17347W        W83756  42.763  14.094   1.316
17348W        W83757  20.840  12.213   2.623
17349W        W83758  32.095  25.747  13.813
17350W        W83759  39.438   3.192   2.749
17351W        W83760  24.747  18.797   0.891
17352W        W83761  28.215  19.991   4.445
17353W        W83762  39.473  10.969  13.522
17354W        W83763  41.205  28.567   2.908
17355W        W83764  37.107  15.346   4.989
17356W        W83765  24.487  39.952  11.670
17357W        W83766  40.719  16.185  12.064
17358W        W83767   8.268  36.232   3.297
17359W        W83768  32.754  14.010   4.211
17360W        W83769  42.600  41.029  11.685
17361W        W83770  32.193  38.876   5.066
17362W        W83771  29.140  38.527  11.402
17363W        W83772  31.951  22.971   0.967
17364W        W83773  33.434  30.269   9.975
17365W        W83774   0.347   2.177  13.298
17366W        W83775  27.905   9.756   0.181
17367W        W83776  28.068  19.662   1.685
17368W        W83777  35.030  42.380   0.865
17369W        W83778  23.635  36.883  12.594
17370W        W83779   8.653  24.802   0.634
17371W        W83780   3.442  25.183  13.615
17372W        W83781  11.415   9.076  13.075
17373W        W83782  32.814   7.304   0.836
17374W        W83783  13.750  33.854   9.899
17375W        W83784  29.254  37.897  13.113
17376W        W83785   6.568  19.095  12.538
17377W        W83786  30.311  37.037  11.021
17378W        W83787   7.228  17.628   1.693
17379W        W83788  36.846  10.661   3.810
17380W        W83789   6.301  23.450  13.888
17381W        W83790   0.239   1.742  14.831
17382W        W83791   9.248   0.256  12.101
17383W        W83792  35.859  16.462  10.722
17384W        W83793  39.764  40.666   1.629
17385W        W83794   9.108   2.970   3.691
17386W        W83795  33.939  31.967   0.236
17387W        W83796  23.405  10.334   4.231
17388W        W83797  38.343  32.305  10.694
17389W        W83798  23.330  41.955  11.163
17390W        W83799  30.404  29.089   4.715
17391W        W83800   3.867  27.581   1.831
17392W        W83801  34.391  34.433  12.363
17393W        W83802  39.122   8.760   1.692
17394W        W83803  37.362  41.606  13.832
17395W        W83804  36.077  20.812   2.900
17396W        W83805   0.806  37.470  14.023
17397W        W83806  23.093  40.793   1.145
17398W        W83807  25.239  23.174  10.615
17399W        W83808  14.312  40.607  14.951
17400W        W83809  39.039   1.864   0.860
17401W        W83810  13.737  19.784   3.649
17402W        W83811  16.819  21.118  12.423
17403W        W83812  20.986  21.657  12.532
17404W        W83813  41.843  38.156  10.506
17405W        W83814  11.225  19.814   3.170
17406W        W83815  22.982  21.576  11.562
17407W        W83816  13.655  26.726   0.695
17408W        W83817  28.935  43.137   4.619
17409W        W83818  42.848   7.762   9.554
17410W        W83819   3.191  33.966   4.741
17411W        W83820  23.572  33.952  10.721
17412W        W83821  16.592  18.071   4.505
17413W        W83822  26.139  15.177   2.827
17414W        W83823  26.971   8.962  14.992
17415W        W83824   6.945   2.993  13.490
17416W        W83825  16.748  33.793  12.560
17417W        W83826   5.328  23.488   9.982
17418W        W83827   6.696  13.876   4.060
17419W        W83828  20.608  43.534   1.088
17420W        W83829  38.378  40.815  13.822
17421W        W83830  29.291  31.565  10.461
17422W        W83831  19.309  35.931  10.680
17423W        W83832  15.584   1.692  13.203
17424W        W83833   9.618  14.722   3.585
17425W        W83834  37.622  21.153  11.199
17426W        W83835   9.892  12.783   3.918
17427W        W83836  33.797  35.174   2.794
17428W        W83837   1.373  29.855  11.571
17429W        W83838  38.644   3.926   3.833
17430W        W83839  27.527  33.502   2.134
17431W        W83840   7.068  14.629   2.303
17432W        W83841  32.139  38.293  13.310
17433W        W83842  31.356  25.249   4.745
17434W        W83843   7.869  33.680  11.033
17435W        W83844  23.269   0.147   4.248
17436W        W83845  17.199   9.944  13.610
17437W        W83846  36.355  18.161  11.899
17438W        W83847   5.828  42.817  11.085
17439W        W83848  42.391  12.301  12.568
17440W        W83849  36.490  17.197   1.936
17441W        W83850  15.885  23.347   4.967
17442W        W83851   2.057   7.427  12.818
17443W        W83852  17.323  43.215   4.212
17444W        W83853  12.816  13.618  10.832
17445W        W83854  22.238  25.434   1.421
17446W        W83855  18.676  10.929  12.072
17447W        W83856   6.986  38.790  11.119
17448W        W83857  25.286  11.510   3.985
17449W        W83858   6.712  36.878   3.930
17450W        W83859  32.847  42.248   4.204
17451W        W83860  31.439  36.479   2.334
17452W        W83861  23.951   1.061  13.197
17453W        W83862  16.790  28.984   1.778
17454W        W83863  21.638  40.967   4.257
17455W        W83864  31.156  35.541   2.416
17456W        W83865   4.288  34.030   2.782
17457W        W83866  36.847  44.685  11.583
17458W        W83867   7.934  22.822  11.157
17459W        W83868  10.810  11.371   0.814
17460W        W83869  28.995  19.066   4.953
17461W        W83870  14.792  15.717  12.605
17462W        W83871  18.626  22.644   0.806
17463W        W83872   2.417  16.177   2.228
17464W        W83873   8.215   2.718   1.658
17465W        W83874   0.390  35.054  12.395
17466W        W83875   6.889  32.186   5.007
17467W        W83876   7.789  21.122   2.723
17468W        W83877  26.560  36.306   1.346
17469W        W83878  26.056  33.310   4.291
17470W        W83879  16.439  15.372  14.240
17471W        W83880  43.475   3.873  12.635
17472W        W83881  12.401  23.866  10.211
17473W        W83882  26.674  20.013  10.866
17474W        W83883  34.218   9.355   2.146
17475W        W83884  14.344  24.915  11.582
17476W        W83885  10.702  13.210   1.492
17477W        W83886  21.531  10.343   4.227
17478W        W83887  12.311   6.167  10.609
17479W        W83888  24.109  33.884  10.844
17480W        W83889  10.672  43.948   3.210
17481W        W83890  23.535  11.860  12.464
17482W        W83891  40.080   1.934   4.155
17483W        W83892  21.561   3.393  11.055
17484W        W83893  30.643  12.854  11.599
17485W        W83894   3.184  27.599  13.903
17486W        W83895   4.578  15.117   3.693
17487W        W83896  19.008  22.717   4.124
17488W        W83897  11.195  44.339   2.701
17489W        W83898  42.804  20.156  13.870
17490W        W83899  26.059  42.482  14.216
17491W        W83900  15.695  38.013  11.388
17492W        W83901  12.545  37.377  13.869
17493W        W83902   0.180   6.477   3.346
17494W        W83903  24.735  10.646   0.302
17495W        W83904   0.196  33.943  11.105
17496W        W83905  25.228  41.881  13.488
17497W        W83906  24.448   9.229   2.602
17498W        W83907   6.158  40.377   2.093
17499W        W83908  38.889  21.864   9.614
17500W        W83909  38.493  32.570   1.743
17501W        W83910  26.155  43.221  14.748
17502W        W83911  11.387  43.909  12.854
17503W        W83912  20.073  34.448  12.134
17504W        W83913  40.195  20.456  12.099
17505W        W83914  18.086  27.146  12.655
17506W        W83915  23.053  18.512  14.336
17507W        W83916  26.913   3.477  12.549
17508W        W83917   6.523  25.432   3.914
17509W        W83918  14.434  34.411  14.890
17510W        W83919  33.568  21.241   5.074
17511W        W83920  23.596  14.784  10.736
17512W        W83921   9.838  31.312  12.448
17513W        W83922  12.194  39.084  11.931
17514W        W83923  21.161   8.990  11.579
17515W        W83924   3.914  19.786   1.346
17516W        W83925  26.239  32.776   4.281
17517W        W83926   2.236  10.675  14.415
17518W        W83927  11.822   2.813   3.116
17519W        W83928  13.166  37.770  11.483
17520W        W83929  15.367   4.231   4.303
17521W        W83930  34.707  40.141  13.842
17522W        W83931  29.251  33.496  13.904
17523W        W83932  25.686   9.800  10.317
17524W        W83933  42.205   2.276  12.918
17525W        W83934  43.478  13.369  14.851
17526W        W83935   9.671   1.813   1.031
17527W        W83936  22.793  32.160  14.614
17528W        W83937  11.889   3.587   4.608
17529W        W83938  22.838   2.428   1.834
17530W        W83939  20.973  15.872  11.210
17531W        W83940  13.977  22.334  13.064
17532W        W83941  26.464   4.532  10.678
17533W        W83942  13.566  33.032  12.078
17534W        W83943  23.542  32.004   0.473
17535W        W83944  10.122  28.488  10.604
17536W        W83945  32.926  18.180   0.706
17537W        W83946   0.586  40.824   1.699
17538W        W83947   4.752  27.553   0.654
17539W        W83948  40.296  24.783  12.916
17540W        W83949  32.624  28.376  12.022
17541W        W83950  23.053  18.740   4.412
17542W        W83951  18.334  11.591   4.100
17543W        W83952  42.286  33.045   2.310
17544W        W83953  19.674  32.850  11.519
17545W        W83954  11.826  10.911  14.501
17546W        W83955  32.799  20.886   1.374
17547W        W83956  43.911   7.464   3.253
17548W        W83957  42.869  16.137  14.780
17549W        W83958  32.600   4.013   5.330
17550W        W83959  28.826   4.876   3.853
17551W        W83960  41.336  26.725  11.053
17552W        W83961  20.813  21.139   4.180
17553W        W83962  21.406  20.623   3.285
17554W        W83963   4.711  11.395   4.297
17555W        W83964  29.572  27.193   3.695
17556W        W83965  23.468   0.739  11.482
17557W        W83966  21.646  12.637  10.856
17558W        W83967   5.567  14.658   4.519
17559W        W83968  34.946   3.499  14.410
17560W        W83969  12.178  36.469   3.882
17561W        W83970   0.311   3.696  14.223
17562W        W83971  19.965   9.771  11.866
17563W        W83972  33.035  36.077  11.188
17564W        W83973  21.004  36.931  12.796
17565W        W83974  36.594  23.167  10.553
17566W        W83975  36.345   2.282  12.128
17567W        W83976  26.209  36.788   2.181
17568W        W83977  29.484  15.140   0.355
17569W        W83978   9.770  28.492  11.926
17570W        W83979  30.006  15.293   2.855
17571W        W83980  10.289  38.836  11.085
17572W        W83981  44.463  38.305   4.611
17573W        W83982  17.306  12.373   4.677
17574W        W83983  35.284  33.156  10.693
17575W        W83984   4.717  28.639   4.117
17576W        W83985  10.247  25.959   0.381
17577W        W83986  32.841  26.649  13.960
17578W        W83987   3.787  10.359  11.255
17579W        W83988  13.246  18.675  14.740
17580W        W83989  24.923  16.822  14.247
17581W        W83990  31.073  18.836  14.357
17582W        W83991  19.230  19.493  13.099
17583W        W83992  20.397  24.979  10.727
17584W        W83993  43.288  33.235  11.753
17585W        W83994  19.590  28.574  10.827
17586W        W83995  20.242  13.870   4.197
17587W        W83996  29.062  42.745  13.001
17588W        W83997  22.565   8.303   3.281
17589W        W83998   2.420  38.009   2.589
17590W        W83999  42.592  25.566  10.740
17591W        W84000  13.824  34.580  12.917
17592W        W84001  12.424  37.838   2.322
17593W        W84002   4.159  24.586  11.097
17594W        W84003  16.245  22.645   0.351
17595W        W84004  10.746  36.009  11.752
17596W        W84005  16.272  17.738  14.536
17597W        W84006  33.462  15.878   2.256
17598W        W84007   6.664  27.129   0.361
17599W        W84008  15.830  24.085  11.055
17600W        W84009  23.433   9.645   1.398
17601W        W84010  18.181   5.270   1.366
17602W        W84011  24.237  15.118  13.436
17603W        W84012  33.224   5.344  10.287
17604W        W84013  34.001  17.832  11.172
17605W        W84014  42.774   3.012  11.207
17606W        W84015   4.385  29.120   3.213
17607W        W84016  33.659   4.332  12.502
17608W        W84017  14.033  10.791  11.577
17609W        W84018  33.538  43.956   0.436
17610W        W84019  24.195  28.025   0.314
17611W        W84020  34.338  19.267  14.579
17612W        W84021   8.297   3.602  13.857
17613W        W84022  20.326  22.679  14.259
17614W        W84023   6.407  32.224   4.797
17615W        W84024  16.319  16.114  13.203
17616W        W84025  30.911  27.950  14.962
17617W        W84026   5.665  32.864   2.773
17618W        W84027   9.168   5.440  13.118
17619W        W84028  27.667  36.070   0.207
17620W        W84029  37.530  32.460   1.353
17621W        W84030  37.054   9.619  11.493
17622W        W84031  29.029  30.591   3.024
17623W        W84032  29.552  14.172  11.213
17624W        W84033  33.637  38.160   3.672
17625W        W84034  42.019  41.585   2.461
17626W        W84035  19.168   9.870   2.319
17627W        W84036   3.898  18.061  14.982
17628W        W84037   7.286  16.048   3.268
17629W        W84038  40.291  36.536   4.085
17630W        W84039  27.398  38.305   0.998
17631W        W84040   5.374   2.523   2.734
17632W        W84041  11.681  42.352  12.386
17633W        W84042  29.931   0.362   3.903
17634W        W84043   5.880  41.385  14.285
17635W        W84044   4.801  31.942   5.015
17636W        W84045  23.564   8.672  13.768
17637W        W84046  12.572   8.229  12.199
17638W        W84047  20.346  13.833  13.641
17639W        W84048  33.371  38.347   3.258
17640W        W84049  37.516  35.904   0.841
17641W        W84050  28.951  35.139   0.930
17642W        W84051  38.291  19.602  11.990
17643W        W84052   7.822  10.064   3.682
17644W        W84053  13.810  39.533  12.415
17645W        W84054   2.438   7.247  13.558
17646W        W84055   7.449  18.698  13.860
17647W        W84056  34.472  17.363   0.303
17648W        W84057  40.886  36.939   4.615
17649W        W84058   5.827  21.651   1.859
17650W        W84059   2.796  28.073  10.949
17651W        W84060  11.394  20.272  13.756
17652W        W84061  30.906  34.979   0.852
17653W        W84062   1.101   0.458  14.100
17654W        W84063  19.519  16.187  13.333
17655W        W84064  21.759  23.031   0.878
17656W        W84065   3.324  12.547   0.269
17657W        W84066  12.289   1.035  12.128
17658W        W84067  21.541  14.754   4.180
17659W        W84068  25.171   4.161   1.008
17660W        W84069   7.216  31.932  14.481
17661W        W84070  27.178   0.956  11.109
17662W        W84071   2.258  42.232  14.115
17663W        W84072   7.857   8.643   0.771
17664W        W84073  33.384  25.028  11.562
17665W        W84074  19.112  26.636   2.623
17666W        W84075  29.513   8.198  11.964
17667W        W84076   7.318   7.291  11.925
17668W        W84077  15.196  40.320  14.985
17669W        W84078  10.922  43.867   2.757
17670W        W84079  20.703  23.605  11.435
17671W        W84080  15.200  44.598   3.663
17672W        W84081  40.214   6.321   4.629
17673W        W84082  35.565  15.774   4.893
17674W        W84083  36.889  36.042  14.649
17675W        W84084  31.088  34.085   0.474
17676W        W84085  19.812   8.760  10.947
17677W        W84086  36.397  15.710   2.070
17678W        W84087  29.722  41.647   0.867
17679W        W84088  10.697  24.163   4.121
17680W        W84089  28.204  22.052  12.139
17681W        W84090  11.403  10.761  11.535
17682W        W84091  27.572  31.410  12.287
17683W        W84092  16.777   2.495   0.457
17684W        W84093  12.543  28.248  14.407
17685W        W84094  33.651  13.125   0.692
17686W        W84095  44.372  11.298   4.297
17687W        W84096   7.518  23.828  11.796
17688W        W84097   6.909  12.701   4.886
17689W        W84098  25.745   2.266   2.823
17690W        W84099   8.494  37.374  11.161
17691W        W84100  18.120  35.658  13.818
17692W        W84101  10.667   4.611   0.349
17693W        W84102  14.881  11.684   4.159
17694W        W84103   0.332  34.835   2.756
17695W        W84104   7.232   0.424   2.902
17696W        W84105  41.569   5.250   3.825
17697W        W84106   2.253   5.884   3.663
17698W        W84107   3.736  27.601   0.909
17699W        W84108  26.866  43.380   2.405
17700W        W84109  12.850  18.998  14.802
17701W        W84110  40.686  30.035  14.480
17702W        W84111  44.782  23.504  14.048
17703W        W84112  32.349  10.865  12.435
17704W        W84113  11.635  18.185  14.845
17705W        W84114  12.733   8.434   1.880
17706W        W84115  34.320  25.198  11.220
17707W        W84116  28.053  22.135   4.675
17708W        W84117  21.168  25.936  11.593
17709W        W84118   9.454  22.505  13.070
17710W        W84119  42.249   7.033   2.282
17711W        W84120  10.133  15.843  10.480
17712W        W84121  28.888  16.750   5.011
17713W        W84122   0.377  38.110   4.301
17714W        W84123   3.372  20.409   0.793
17715W        W84124  31.873  15.318  13.125
17716W        W84125  15.748  36.920  13.856
17717W        W84126  17.034  14.112  14.338
17718W        W84127  27.461  35.492  12.052
17719W        W84128  26.118  13.633   0.808
17720W        W84129   4.694  31.220   3.681
17721W        W84130  23.184  32.059  13.008
17722W        W84131   7.689  23.827   1.648
17723W        W84132  28.104   0.891   4.127
17724W        W84133  27.993  40.558  11.901
17725W        W84134  18.519  40.061  10.771
17726W        W84135  23.481  37.536   0.221
17727W        W84136  21.283  15.287  14.501
17728W        W84137  16.240  36.865   3.284
17729W        W84138   8.982  11.706  14.493
17730W        W84139  29.581  15.943  11.530
17731W        W84140  35.533  44.114   2.318
17732W        W84141   0.447  33.779  13.853
17733W        W84142  36.981   3.129   0.872
17734W        W84143   5.204  27.086   2.840
17735W        W84144   6.865   2.771  14.907
17736W        W84145  44.715   7.443   1.757
17737W        W84146   8.890  30.649   9.931
17738W        W84147  26.684  11.461  13.478
17739W        W84148  27.078  24.753  13.938
17740W        W84149  40.431  41.309   4.017
17741W        W84150  12.678   0.191  13.765
17742W        W84151  26.177  24.293   4.111
17743W        W84152  11.925  44.037  11.522
17744W        W84153   3.399  33.306   5.074
17745W        W84154  33.475  16.221  12.382
17746W        W84155  44.840  16.320  13.622
17747W        W84156  40.570   5.738  13.633
17748W        W84157  13.119   4.667   4.121
17749W        W84158  21.277  10.784   4.725
17750W        W84159   8.173  42.112   4.496
17751W        W84160  29.232   2.828   0.376
17752W        W84161  12.251  14.359   4.231
17753W        W84162  23.166  42.163  11.906
17754W        W84163  34.626  33.444  11.125
17755W        W84164   9.415   5.920   3.693
17756W        W84165  35.863  15.204   2.619
17757W        W84166  12.344   1.746  11.150
17758W        W84167   2.510  21.375  13.830
17759W        W84168  39.011  11.174  13.413
17760W        W84169  40.451  37.752   5.195
17761W        W84170  30.054  30.661  11.119
17762W        W84171  23.564   7.307   4.816
17763W        W84172   0.700  12.828   3.283
17764W        W84173  42.679  43.029  14.487
17765W        W84174  10.916   6.478  12.045
17766W        W84175  17.205  42.302   0.317
17767W        W84176  41.751  16.085   2.423
17768W        W84177  41.814  25.634   2.306
17769W        W84178   6.897   5.327  10.298
17770W        W84179   0.149   8.694  13.034
17771W        W84180   8.163   4.176   4.575
17772W        W84181  18.023   3.598  12.962
17773W        W84182  26.960  26.614  10.688
17774W        W84183  40.393  14.214  11.641
17775W        W84184   1.308  37.911  14.808
17776W        W84185  31.998   0.507  13.484
17777W        W84186  40.845  12.917   4.691
17778W        W84187  19.554   4.485  11.421
17779W        W84188  15.818  14.476   3.155
17780W        W84189  10.769  21.463   1.689
17781W        W84190  25.049  12.352  13.908
17782W        W84191   8.518  28.791  14.917
17783W        W84192  14.755   1.860   5.007
17784W        W84193  11.859  23.592  13.842
17785W        W84194  25.034  40.859  10.714
17786W        W84195  40.292   8.719   3.372
17787W        W84196  38.955  18.676  10.181
17788W        W84197  20.988  25.788   3.507
17789W        W84198  42.779  26.210   4.823
17790W        W84199  44.869  22.024  12.099
17791W        W84200  29.045  26.743  13.047
17792W        W84201  42.504  22.560  13.883
17793W        W84202   7.883  27.637  14.588
17794W        W84203  11.375  20.828  11.612
17795W        W84204  14.815   8.707   5.075
17796W        W84205   6.889  33.408  13.398
17797W        W84206  24.246  28.706  14.314
17798W        W84207   4.119  17.752   1.430
17799W        W84208   4.348  34.309   0.450
17800W        W84209  32.899  22.255  11.605
17801W        W84210  33.180   0.101  13.833
17802W        W84211  18.909   5.898  12.135
17803W        W84212   4.928  26.895   0.026
17804W        W84213  41.797  32.232   4.629
17805W        W84214  34.891  30.408   4.316
17806W        W84215   3.943  12.777  10.373
17807W        W84216  30.833  36.998   1.415
17808W        W84217  33.116  42.247  13.124
17809W        W84218  33.945  43.823  12.494
17810W        W84219   4.693   8.758   3.629
17811W        W84220  17.959   6.261  12.127
17812W        W84221   9.810   8.721   3.620
17813W        W84222  31.674  35.873   1.522
17814W        W84223  35.349  40.929  12.436
17815W        W84224  30.921  17.692  10.633
17816W        W84225  35.028  22.571  14.976
17817W        W84226  33.106   2.217   3.712
17818W        W84227  10.325   1.772   3.657
17819W        W84228   4.828  13.093   2.331
17820W        W84229  10.567  35.036  11.865
17821W        W84230   4.589  31.773  10.402
17822W        W84231  22.694   3.239  14.729
17823W        W84232  23.543  37.166  13.429
17824W        W84233  41.271  24.542   0.862
17825W        W84234  43.467   5.690  11.039
17826W        W84235   6.736  21.778  11.964
17827W        W84236  16.082  33.056  14.027
17828W        W84237  10.235  16.715   4.511
17829W        W84238   0.434  13.221  13.135
17830W        W84239  30.476  31.779   4.587
17831W        W84240  10.270  21.628   1.826
17832W        W84241   5.895  34.984   4.568
17833W        W84242  28.645  20.665  10.664
17834W        W84243  23.785  15.651   0.829
17835W        W84244  10.249  29.209  13.151
17836W        W84245  41.911  17.748  11.682
17837W        W84246  40.565  16.663  10.750
17838W        W84247  15.338   1.495   3.555
17839W        W84248  21.970  21.601  13.393
17840W        W84249  30.918   3.553  12.464
17841W        W84250   1.880  18.757  12.420
17842W        W84251  39.020  44.876   1.068
17843W        W84252  39.620  13.170  12.017
17844W        W84253  35.113  19.596   2.751
17845W        W84254   0.005  27.516   2.127
17846W        W84255   5.425  40.751   3.922
17847W        W84256   3.421  14.283   4.436
17848W        W84257  43.901  29.553   4.858
17849W        W84258   9.220  36.020   4.102
17850W        W84259  29.600  12.643   1.633
17851W        W84260  39.901  10.158  13.628
17852W        W84261  15.068  26.580   0.450
17853W        W84262  17.576  34.471   4.078
17854W        W84263  37.245   7.994  12.877
17855W        W84264  28.987  27.606  14.710
17856W        W84265  26.085  44.063   1.952
17857W        W84266  43.210  18.839  13.506
17858W        W84267   0.265  29.541   2.903
17859W        W84268  43.657  31.121  10.559
17860W        W84269  39.062   6.369  14.379
17861W        W84270   8.187  21.129  12.272
17862W        W84271  35.888  42.284  13.988
17863W        W84272  15.666   4.624   1.467
17864W        W84273  14.740   9.908   0.895
17865W        W84274   5.531   1.881  11.886
17866W        W84275  35.085   5.452   4.925
17867W        W84276  28.587  18.598   2.910
17868W        W84277   2.289  36.147   1.665
17869W        W84278   8.276   7.798   3.577
17870W        W84279   1.980  34.440  11.731
17871W        W84280  25.758   2.463   1.682
17872W        W84281   3.891  21.694   3.813
17873W        W84282   1.410  14.207  10.699
17874W        W84283   6.742   4.386   3.702
17875W        W84284  24.686   0.407   0.007
17876W        W84285  19.816  13.873   1.694
17877W        W84286  43.861  10.436  13.483
17878W        W84287  36.168  32.913  11.611
17879W        W84288  37.267  17.779  13.368
17880W        W84289  18.013   8.875   3.259
17881W        W84290  14.666  19.477   3.221
17882W        W84291  29.473   2.466   2.253
17883W        W84292   5.638  25.996  14.347
17884W        W84293  22.569  24.843  11.108
17885W        W84294  41.311  35.552  13.020
17886W        W84295  40.986  31.736  10.810
17887W        W84296  39.747  23.755   2.431
17888W        W84297  18.080  20.680   2.546
17889W        W84298  37.423  27.534  11.052
17890W        W84299  29.995  41.277   4.225
17891W        W84300  36.029  21.531  12.557
17892W        W84301  15.778  34.551  12.084
17893W        W84302  30.156  16.016  12.796
17894W        W84303  30.539   4.867  14.577
17895W        W84304  23.412  14.193   1.371
17896W        W84305  22.290  33.519  11.974
17897W        W84306   5.394  37.829   3.777
17898W        W84307   1.980   6.672  11.050
17899W        W84308  35.515  30.619  12.430
17900W        W84309  29.543  28.279   1.224
17901W        W84310  17.111   8.149   1.866
17902W        W84311  10.578  27.594   0.301
17903W        W84312  22.914  19.864   0.992
17904W        W84313  33.849  36.983   1.956
17905W        W84314  27.194  39.018   0.371
17906W        W84315  13.821  39.951  12.119
17907W        W84316  39.223   4.320  14.427
17908W        W84317   9.439  17.629  13.767
17909W        W84318  31.198  41.048   1.873
17910W        W84319   8.207   5.945   4.187
17911W        W84320  40.542  37.928  14.938
17912W        W84321  30.804  14.022  13.028
17913W        W84322  21.324   4.859   2.692
17914W        W84323   4.046   4.087  11.348
17915W        W84324  12.467  13.090  14.086
17916W        W84325  21.471  21.638   3.647
17917W        W84326  17.627   3.873   0.855
17918W        W84327  38.869  28.067  11.193
17919W        W84328  33.169  31.349  12.994
17920W        W84329   0.030  14.598  10.736
17921W        W84330  28.575   3.343  13.844
17922W        W84331   8.726  19.759   2.364
17923W        W84332   9.113  34.850  11.953
17924W        W84333  23.696  21.069   0.358
17925W        W84334  21.040   9.883   4.297
17926W        W84335  27.917  42.393  11.670
17927W        W84336  30.159  41.750   4.449
17928W        W84337  15.965  32.649  11.846
17929W        W84338   4.910  13.650  13.918
17930W        W84339   3.169  30.949   2.658
17931W        W84340  23.984  14.358  11.228
17932W        W84341  18.416  25.239   2.895
17933W        W84342  30.166  43.522  10.762
17934W        W84343  25.182  42.781  13.820
17935W        W84344  30.406  27.797   3.536
17936W        W84345  33.404   9.726   2.153
17937W        W84346  27.276  25.336  13.567
17938W        W84347  15.699  18.038   4.573
17939W        W84348  13.185  26.678  10.657
17940W        W84349   2.578  14.451  12.415
17941W        W84350  30.807  32.827   0.830
17942W        W84351  22.596  41.989   0.766
17943W        W84352  31.386  14.128   2.849
17944W        W84353  24.738   8.314  13.063
17945W        W84354  16.201  28.212   1.837
17946W        W84355   6.232   7.732   4.234
17947W        W84356   9.614   2.741   4.530
17948W        W84357   7.752  27.798   2.687
17949W        W84358   2.000  15.025   3.093
17950W        W84359  36.343  29.654   3.440
17951W        W84360  10.831  41.427  13.368
17952W        W84361  30.445   3.774   3.074
17953W        W84362  13.806  39.992   2.636
17954W        W84363  22.691  39.343  13.787
17955W        W84364  36.488  31.905  10.262
17956W        W84365  21.485   9.719  14.958
17957W        W84366  13.654  42.684   1.862
17958W        W84367   1.951  32.896  12.034
17959W        W84368   3.991   4.077  13.893
17960W        W84369  42.371  28.148  12.870
17961W        W84370  12.742  41.401  11.416
17962W        W84371  10.585   6.680  13.211
17963W        W84372  37.919  13.671  12.458
17964W        W84373  36.938  22.131   3.264
17965W        W84374   4.867  22.260   0.058
17966W        W84375  31.407  35.673   0.272
17967W        W84376  14.388  40.560  13.026
17968W        W84377  17.076  14.619  13.811
17969W        W84378  44.574  10.583   0.045
17970W        W84379  32.021  29.606   0.818
17971W        W84380  44.214  35.354   1.177
17972W        W84381  23.606   2.553  11.006
17973W        W84382  30.589  12.004   0.905
17974W        W84383   9.528  28.044  11.877
17975W        W84384  21.749  14.850  10.362
17976W        W84385   6.690  35.103   4.529
17977W        W84386  36.378  22.124   1.847
17978W        W84387  43.340  18.708   4.068
17979W        W84388  33.946   4.036   3.306
17980W        W84389  14.281  21.397   1.474
17981W        W84390  36.410  18.832  13.011
17982W        W84391  38.303  23.487   2.878
17983W        W84392  33.484   9.302   0.830
17984W        W84393  20.288  26.912  13.465
17985W        W84394  19.597  20.821   0.813
17986W        W84395  15.333  35.780  13.998
17987W        W84396  38.475   2.829  11.543
17988W        W84397  38.193   0.535   1.752
17989W        W84398  33.538  18.936   4.534
17990W        W84399  14.222   8.429  13.913
17991W        W84400  23.205  40.531  12.977
17992W        W84401  38.011  44.461   3.973
17993W        W84402  42.000  30.940   4.185
17994W        W84403  44.990  35.608  13.787
17995W        W84404  43.066   6.757   3.183
17996W        W84405  31.201  42.730  12.114
17997W        W84406  12.631  14.177  12.600
17998W        W84407   8.765  12.172  14.279
17999W        W84408  11.441  31.590  12.231
18000W        W84409  28.705   0.226  11.949
18001W        W84410  26.102  41.772   1.040
18002W        W84411  23.883   4.441  11.537
18003W        W84412  15.007  13.722  12.025
18004W        W84413  29.199  33.529   4.271
18005W        W84414  12.058  43.696   1.363
18006W        W84415  42.051  21.581  12.161
18007W        W84416  13.621   0.135   1.912
18008W        W84417  38.917  40.718   1.808
18009W        W84418   0.785  40.475  13.860
18010W        W84419  13.169   0.570  14.481
18011W        W84420  19.199  38.098  12.396
18012W        W84421  39.846   9.372  14.280
18013W        W84422  28.756  23.091   4.979
18014W        W84423  22.772  31.042  10.926
18015W        W84424  42.912  26.005  12.760
18016W        W84425  12.921   7.299  12.925
18017W        W84426  17.001  30.531   1.698
18018W        W84427  42.431  28.816  14.800
18019W        W84428   6.265   7.276   3.997
18020W        W84429  31.457  20.295  12.572
18021W        W84430   8.224  33.892   0.831
18022W        W84431  44.804  36.360  13.372
18023W        W84432  23.689  41.503  14.388
18024W        W84433  17.831  36.906   3.243
18025W        W84434  34.890  35.443  12.926
18026W        W84435  31.822  29.073  14.481
18027W        W84436  17.623  16.828  14.780
18028W        W84437   2.917  21.228   0.831
18029W        W84438  22.881  38.894  14.052
18030W        W84439  35.585  19.391   2.874
18031W        W84440   0.924  40.530   0.429
18032W        W84441  40.899   4.138   2.219
18033W        W84442  13.369  24.963   2.233
18034W        W84443   7.185  11.808  13.774
18035W        W84444  41.321   5.379  13.438
18036W        W84445  15.782  27.199  14.301
18037W        W84446   2.056  35.165   4.138
18038W        W84447  27.002   4.620  13.385
18039W        W84448  22.962   5.688  11.620
18040W        W84449  10.853  24.649  12.144
18041W        W84450   6.391  10.384  13.984
18042W        W84451   9.078  12.874  13.935
18043W        W84452  44.451  24.188   1.682
18044W        W84453  43.062  15.290   2.675
18045W        W84454   8.941  31.252   1.994
18046W        W84455  26.506   5.361  13.501
18047W        W84456  29.883  17.914  13.827
18048W        W84457   1.730  11.402  13.026
18049W        W84458  22.703   1.936   1.968
18050W        W84459  41.924  13.639  14.344
18051W        W84460  12.813  22.938   1.395
18052W        W84461   3.140  25.439  13.282
18053W        W84462   5.143   5.254  13.887
18054W        W84463  12.929  27.378   4.156
18055W        W84464  23.791  16.183  10.738
18056W        W84465   4.096  32.347  11.028
18057W        W84466  12.578  36.509  13.935
18058W        W84467   1.977   5.750  11.940
18059W        W84468   6.403   3.583   3.575
18060W        W84469  28.164  25.992   3.645
18061W        W84470  20.644  19.805  11.191
18062W        W84471  20.714  44.602  14.302
18063W        W84472  31.552  11.888  12.311
18064W        W84473  30.420  11.926  14.273
18065W        W84474  34.376  30.586  12.559
18066W        W84475   7.884  31.139   3.202
18067W        W84476  33.692  44.719   2.478
18068W        W84477  36.454  32.083  12.679
18069W        W84478  33.111  34.363  12.070
18070W        W84479  27.009  42.719  12.196
18071W        W84480  23.294  23.651   0.412
18072W        W84481  27.911   7.638  10.078
18073W        W84482  27.219  41.351  14.863
18074W        W84483  27.520  39.481  10.565
18075W        W84484  35.975  25.182  10.939
18076W        W84485   7.914  20.760   0.036
18077W        W84486   3.689  11.923   1.652
18078W        W84487  37.744  36.992  10.920
18079W        W84488   0.054   4.284   3.591
18080W        W84489  14.071  21.795   2.792
18081W        W84490  44.381  33.128   2.122
18082W        W84491  24.099  18.492   0.488
18083W        W84492  38.020  22.707   1.654
18084W        W84493   5.080  18.718  12.541
18085W        W84494  17.378  12.567   2.958
18086W        W84495  15.082  10.621  13.919
18087W        W84496  34.420  26.625   0.832
18088W        W84497  19.312  41.615  11.291
18089W        W84498   8.233  38.343   0.895
18090W        W84499   5.826  32.136  13.580
18091W        W84500  12.675  44.303   3.027
18092W        W84501  33.502   0.880  14.688
18093W        W84502  30.023  29.343   4.080
18094W        W84503  35.523  44.788   4.707
18095W        W84504  38.576  19.035   4.445
18096W        W84505   2.748  42.955   4.073
18097W        W84506  16.582   9.425   2.639
18098W        W84507  44.800  15.593  14.819
18099W        W84508   1.383   5.428   0.768
18100W        W84509  35.655  19.792  12.487
18101W        W84510  17.588  25.154  14.743
18102W        W84511  35.981  15.983  10.633
18103W        W84512   3.282  26.248  11.883
18104W        W84513  20.592  24.267  13.392
18105W        W84514  19.747  40.893  11.631
18106W        W84515  25.680  22.366  10.782
18107W        W84516  11.264  38.076   3.654
18108W        W84517  11.349  16.124   4.630
18109W        W84518   4.303   5.878   1.667
18110W        W84519  39.844  32.985  12.471
18111W        W84520  19.385   1.956  11.092
18112W        W84521   2.318  30.389   0.727
18113W        W84522  44.557  38.930  12.058
18114W        W84523  35.541  15.380   2.259
18115W        W84524  29.388  31.496  14.372
18116W        W84525  10.712  15.497   2.241
18117W        W84526  36.873   2.452   0.287
18118W        W84527  16.275  41.541   2.857
18119W        W84528  10.814  14.801   1.672
18120W        W84529  17.415  26.523  11.374
18121W        W84530  37.192  24.350   4.703
18122W        W84531  32.468   1.910  14.711
18123W        W84532  37.700  16.505  12.332
18124W        W84533  33.885  20.271  11.994
18125W        W84534  15.020  36.267  13.067
18126W        W84535  15.670  34.559  10.170
18127W        W84536  42.977  37.827  11.517
18128W        W84537  14.112  14.064   4.059
18129W        W84538  42.730  38.040   1.296
18130W        W84539  20.123  25.718   1.038
18131W        W84540  17.284  26.691  13.973
18132W        W84541  30.441   3.780   3.580
18133W        W84542  32.991   5.571   4.583
18134W        W84543  16.375  25.425  12.956
18135W        W84544  16.352  39.151  13.921
18136W        W84545  17.514  28.364  13.268
18137W        W84546  22.579  28.532   5.196
18138W        W84547  23.189   5.703   0.241
18139W        W84548  17.110  41.915   3.390
18140W        W84549  16.713  32.480  12.600
18141W        W84550   8.553   8.746  13.251
18142W        W84551  12.511  38.352   3.205
18143W        W84552   3.233  30.353  10.069
18144W        W84553  39.494  34.994   2.891
18145W        W84554  43.539  10.080   3.545
18146W        W84555  28.899  13.134  11.123
18147W        W84556   0.121  32.629   0.659
18148W        W84557  19.133   5.810   0.674
18149W        W84558  40.313  26.084  10.555
18150W        W84559  27.657  32.356   4.151
18151W        W84560   1.962   0.693   1.888
18152W        W84561   2.815  28.142   3.132
18153W        W84562  17.770  20.233   4.533
18154W        W84563  12.193  19.983   1.436
18155W        W84564   3.123   4.763  12.993
18156W        W84565  10.564  43.292   1.705
18157W        W84566  18.588  17.783  10.668
18158W        W84567  22.535  43.865  11.497
18159W        W84568   8.676   3.075  10.566
18160W        W84569  12.603  12.722  13.281
18161W        W84570  30.975  30.146   5.084
18162W        W84571  34.026  21.081   4.802
18163W        W84572  17.125  11.398   5.222
18164W        W84573  42.625  22.210   0.386
18165W        W84574   8.350  27.586  12.169
18166W        W84575   4.324  34.643  12.934
18167W        W84576  17.997  26.766   3.800
18168W        W84577  35.318  15.624   4.482
18169W        W84578   5.978  38.957   1.349
18170W        W84579  38.817  27.039  10.864
18171W        W84580   3.574  25.162  12.864
18172W        W84581  20.812  22.499   4.460
18173W        W84582  16.649  28.053  13.159
18174W        W84583  12.920  37.904   2.375
18175W        W84584  19.582  27.731  12.491
18176W        W84585   6.368  13.519   3.267
18177W        W84586  16.510  16.628   4.434
18178W        W84587  13.171   0.197  11.542
18179W        W84588   1.792  32.958  11.537
18180W        W84589  37.316  25.682  10.803
18181W        W84590   6.378  38.893   1.748
18182W        W84591  30.251  11.761  12.561
18183W        W84592  24.120  25.453   1.920
18184W        W84593  38.363  14.412  12.852
18185W        W84594  22.671  43.509  14.503
18186W        W84595  24.200  16.349   3.873
18187W        W84596   4.239  33.884  12.552
18188W        W84597  44.196  39.709   0.368
18189W        W84598  21.490  31.221   0.982
18190W        W84599  22.480  19.626  13.893
18191W        W84600  28.619  39.084  13.031
18192W        W84601  14.587   0.826  14.426
18193W        W84602  44.279  21.714   0.808
18194W        W84603  38.406  17.188  13.401
18195W        W84604  29.483  25.907  10.683
18196W        W84605  28.931   6.263  14.764
18197W        W84606  20.085  31.983   4.226
18198W        W84607  21.808  24.542   3.576
18199W        W84608  16.242  21.330   3.085
18200W        W84609   6.523  30.753  12.121
18201W        W84610  24.621   8.221   2.705
18202W        W84611  16.101  18.738  14.349
18203W        W84612  16.889  21.469   2.039
18204W        W84613  39.719  33.621  10.835
18205W        W84614  20.485  33.271  13.379
18206W        W84615   7.302  24.221  12.045
18207W        W84616  12.483   9.083   4.493
18208W        W84617  35.958  21.089   0.351
18209W        W84618   2.510  28.426   0.255
18210W        W84619  39.385  14.695  11.134
18211W        W84620  26.748  30.133  11.135
18212W        W84621   5.278  41.535   1.767
18213W        W84622  22.766   2.431  13.423
18214W        W84623  44.668  38.390   1.424
18215W        W84624   8.964  24.573   3.842
18216W        W84625  24.104  37.382   2.776
18217W        W84626   9.480  19.625   0.708
18218W        W84627  38.447   3.705  11.042
18219W        W84628  27.015   9.172  12.994
18220W        W84629  40.409  15.769   3.144
18221W        W84630   1.990  35.471  13.090
18222W        W84631  22.722  20.146   1.703
18223W        W84632  21.536   3.268  12.058
18224W        W84633  17.643  23.712  13.900
18225W        W84634  30.955  36.860   2.862
18226W        W84635  22.022   1.388  11.166
18227W        W84636  15.061  14.388   3.684
18228W        W84637  34.577  14.658  13.849
18229W        W84638  32.127   9.363   4.241
18230W        W84639   2.422  12.158  14.500
18231W        W84640  26.074  26.244   4.440
18232W        W84641  42.481  11.169   2.677
18233W        W84642  15.382  11.258  11.282
18234W        W84643  24.234   0.241   2.344
18235W        W84644  21.963  31.878   1.475
18236W        W84645   0.286  36.544  13.278
18237W        W84646  31.983  19.716  14.310
18238W        W84647  13.798   2.284   4.468
18239W        W84648  24.469  25.261   4.119
18240W        W84649  24.771  19.323   4.725
18241W        W84650  22.830   3.793  12.163
18242W        W84651   0.646  31.175   3.640
18243W        W84652  20.720   3.379  13.660
18244W        W84653   6.339  36.360   0.423
18245W        W84654  37.938   8.874   4.922
18246W        W84655  17.766  29.896   4.255
18247W        W84656  30.980   6.677  12.087
18248W        W84657   4.189  26.426   2.287
18249W        W84658   6.455  43.293   1.194
18250W        W84659  25.145  34.910   4.512
18251W        W84660  39.688  18.745  13.569
18252W        W84661  28.958  26.186  13.470
18253W        W84662  41.444  29.459   0.229
18254W        W84663  27.411  17.769  11.103
18255W        W84664  31.978   6.977   4.989
18256W        W84665  31.930  44.727  14.491
18257W        W84666  39.824  13.842   2.776
18258W        W84667  43.618  20.989  10.835
18259W        W84668   3.145  23.668  11.985
18260W        W84669  10.846  12.434   3.295
18261W        W84670  21.357   9.160   3.275
18262W        W84671  39.304  23.503   5.068
18263W        W84672  39.962  38.778  11.505
18264W        W84673   8.633   7.376  13.486
18265W        W84674  29.637  18.751  12.821
18266W        W84675  36.120  27.448   3.282
18267W        W84676   7.909  14.215  10.823
18268W        W84677   0.497  34.406  11.424
18269W        W84678   3.022  28.639   3.267
18270W        W84679   0.382  32.496   3.413
18271W        W84680  37.044   9.295  14.387
18272W        W84681  10.951  18.215   2.382
18273W        W84682  24.463   5.509   2.606
18274W        W84683  31.932  41.058  10.824
18275W        W84684  17.454  12.115   3.225
18276W        W84685  30.448   1.688   3.697
18277W        W84686  32.172  35.750  12.904
18278W        W84687  42.791  35.920   1.152
18279W        W84688  19.299  37.659   0.758
18280W        W84689   0.450   8.735   3.651
18281W        W84690  36.642  20.266  10.784
18282W        W84691   8.311  36.524   0.195
18283W        W84692  11.359  28.416  13.872
18284W        W84693  24.742  43.704   1.779
18285W        W84694  21.474   2.637  14.888
18286W        W84695  38.889  24.159   0.452
18287W        W84696   4.453   0.122  13.018
18288W        W84697  37.404  42.670  10.561
18289W        W84698  38.819  40.009   0.021
18290W        W84699   1.912   7.859   2.707
18291W        W84700   8.960   5.414   0.920
18292W        W84701  34.430  12.930   0.235
18293W        W84702  21.608   8.688  14.264
18294W        W84703  36.210  19.632  10.253
18295W        W84704  18.229  26.697  12.983
18296W        W84705   5.808   0.771  13.558
18297W        W84706  16.021  23.678   1.821
18298W        W84707  35.609   5.931   3.279
18299W        W84708  13.338  23.265  13.925
18300W        W84709  42.210  20.138  11.618
18301W        W84710   9.751  40.823   2.371
18302W        W84711  14.726  13.319  12.683
18303W        W84712   2.846   8.776  11.521
18304W        W84713  19.444  38.930   3.269
18305W        W84714  20.599  20.826  11.956
18306W        W84715  36.598  11.864   0.001
18307W        W84716  24.012   6.480  10.785
18308W        W84717  27.214  10.550   1.687
18309W        W84718   5.924   9.904   1.345
18310W        W84719  18.267  24.122   1.392
18311W        W84720  16.599   6.296   3.370
18312W        W84721  16.348   1.801  11.626
18313W        W84722  13.292  39.072   0.460
18314W        W84723  31.843  42.051   1.765
18315W        W84724  18.326  24.017   2.858
18316W        W84725  19.808  24.554   1.865
18317W        W84726   0.975   8.944  10.685
18318W        W84727  21.585  24.557   3.127
18319W        W84728  33.126  32.523  10.908
18320W        W84729  10.263   3.538   1.782
18321W        W84730  19.284  27.683   1.367
18322W        W84731  10.797  41.057   4.527
18323W        W84732  17.631  24.781  12.037
18324W        W84733  37.870  36.481   1.812
18325W        W84734  13.463  12.635   1.356
18326W        W84735  10.111  42.243  11.935
18327W        W84736  39.610  30.947  12.130
18328W        W84737  21.271  26.176   3.204
18329W        W84738  44.224  37.310   1.822
18330W        W84739  36.056  39.075   0.319
18331W        W84740   1.756   3.162   1.779
18332W        W84741  36.407  31.738   4.189
18333W        W84742  10.193  31.715  13.142
18334W        W84743  25.691  18.691   1.725
18335W        W84744  22.584  28.969   1.652
18336W        W84745  31.111   1.704  11.020
18337W        W84746  20.112   7.855   2.074
18338W        W84747  43.368   6.856   2.707
18339W        W84748   4.887  35.861  13.948
18340W        W84749   3.232  31.514   2.501
18341W        W84750  21.621  14.369   2.250
18342W        W84751   7.870  19.148   2.830
18343W        W84752  21.162   0.178  13.643
18344W        W84753  35.254  21.591   0.881
18345W        W84754  20.641  20.951   3.733
18346W        W84755  21.779  32.544  12.897
18347W        W84756   2.473  24.373   1.793
18348W        W84757  14.234   4.706  11.229
18349W        W84758  17.094  30.477   2.683
18350W        W84759   0.378  41.084   0.831
18351W        W84760  30.997  13.329   0.916
18352W        W84761  26.124  16.148   1.395
18353W        W84762  22.070  26.353   4.099
18354W        W84763  37.968   3.744   0.400
18355W        W84764  44.247  12.370  10.689
18356W        W84765  14.656  13.571   0.176
18357W        W84766  23.508  28.809   4.154
18358W        W84767  17.199  20.759   0.410
18359W        W84768  24.754  40.061   2.379
18360W        W84769  15.834  22.399  12.381
18361W        W84770  12.429  24.770  12.622
18362W        W84771  12.812   5.907   4.102
18363W        W84772  26.068   4.070   3.753
18364W        W84773  24.489  41.342  11.580
18365W        W84774  40.888  41.959  14.120
18366W        W84775  16.763   5.734  10.668
18367W        W84776  20.967   7.369  10.748
18368W        W84777  32.960  24.499   3.460
18369W        W84778  36.536  43.936  14.484
18370W        W84779  35.025   0.663   3.841
18371W        W84780   8.900  22.201   4.184
18372W        W84781  34.411  29.179  13.390
18373W        W84782  16.694   3.023   0.464
18374W        W84783  40.379   0.455   1.375
18375W        W84784  25.396  14.608  11.065
18376W        W84785  25.848  10.247   5.144
18377W        W84786  34.508   9.624   2.823
18378W        W84787  17.250  33.062   1.415
18379W        W84788  31.522  25.944  11.637
18380W        W84789  21.080  33.884   1.479
18381W        W84790  16.611  39.143  11.842
18382W        W84791   5.469  42.608   0.978
18383W        W84792  35.569  35.387  14.501
18384W        W84793  13.232  20.807   0.834
18385W        W84794  14.179  24.023   4.126
18386W        W84795   0.021  27.181  13.531
18387W        W84796  42.403  40.746   3.237
18388W        W84797  12.536  40.093  12.467
18389W        W84798  16.657   7.336  13.392
18390W        W84799   8.732  13.099   0.914
18391W        W84800  39.949   0.154   0.164
18392W        W84801  16.033  27.015  10.717
18393W        W84802  44.197  24.661   1.844
18394W        W84803   2.115  13.311  14.834
18395W        W84804  13.799  23.660   4.151
18396W        W84805  40.405  34.844   4.020
18397W        W84806  10.737  39.709   2.692
18398W        W84807  20.159  35.272   4.317
18399W        W84808   0.608   0.922   2.130
18400W        W84809  37.864  14.292  13.077
18401W        W84810  42.617   0.394   4.341
18402W        W84811   6.103  23.675   4.036
18403W        W84812   7.473  37.084  11.051
18404W        W84813  33.603  15.726  12.564
18405W        W84814  15.305   6.719  13.824
18406W        W84815   2.306   0.462   0.794
18407W        W84816  33.218   3.071  13.947
18408W        W84817  23.044   2.901   1.860
18409W        W84818   1.365  28.682  14.546
18410W        W84819  36.397  36.144   4.037
18411W        W84820  42.305  23.321   3.085
18412W        W84821  35.303  21.180   3.447
18413W        W84822  26.880   0.771   9.865
18414W        W84823  28.527  12.804   3.308
18415W        W84824  32.131  34.800   4.262
18416W        W84825  37.544  16.545  13.281
18417W        W84826   9.914  12.696   1.277
18418W        W84827  43.465  43.497  10.729
18419W        W84828   1.756  32.540   4.472
18420W        W84829  36.555  30.736   4.218
18421W        W84830  38.333  37.807   4.172
18422W        W84831  23.898  19.282   3.036
18423W        W84832  32.766  44.142  11.886
18424W        W84833   2.469   5.167  11.617
18425W        W84834  33.154  22.101  11.116
18426W        W84835  34.458  40.994   2.919
18427W        W84836  43.262  34.503   1.378
18428W        W84837  42.862   6.104  12.844
18429W        W84838  29.108  24.553  10.691
18430W        W84839  17.867  32.902   1.740
18431W        W84840  42.423   8.460   2.062
18432W        W84841  31.090  29.695  11.253
18433W        W84842   2.533   0.740  13.427
18434W        W84843  20.060  17.863  11.081
18435W        W84844   4.238  32.356   2.187
18436W        W84845  38.571  12.654  14.504
18437W        W84846   6.175   1.196  14.433
18438W        W84847   1.331  40.611   3.222
18439W        W84848  15.164  37.805  14.896
18440W        W84849  44.621  17.051  12.431
18441W        W84850   3.944  38.324   0.460
18442W        W84851  20.592  13.750  14.099
18443W        W84852  12.102  25.003   1.878
18444W        W84853  21.981  25.523   0.331
18445W        W84854   6.951  10.107  12.875
18446W        W84855  31.478  31.990  13.046
18447W        W84856   1.620  17.230   4.557
18448W        W84857  38.542   2.433   1.340
18449W        W84858  33.353  37.418   3.269
18450W        W84859  29.455  16.075  11.011
18451W        W84860  23.685   9.742   2.387
18452W        W84861  35.619  43.266  10.797
18453W        W84862  12.198   3.161   4.606
18454W        W84863  18.650   9.178   2.720
18455W        W84864  33.550  14.585   0.629
18456W        W84865  20.105  16.605  12.081
18457W        W84866  20.806   2.370   1.667
18458W        W84867   4.203   6.769  11.464
18459W        W84868  33.559   3.560   3.539
18460W        W84869  43.056   9.778   1.660
18461W        W84870  19.673  28.101  11.181
18462W        W84871   0.860   4.660   3.635
18463W        W84872  32.347  12.610  14.562
18464W        W84873  29.419  15.249   2.674
18465W        W84874  18.061   7.432   2.938
18466W        W84875   1.505  33.428  12.486
18467W        W84876  31.665  20.216  10.679
18468W        W84877  35.035  16.638   1.971
18469W        W84878  38.609  14.740  10.568
18470W        W84879  32.657  42.902  12.169
18471W        W84880  31.978  15.618  14.997
18472W        W84881   8.633  21.754   4.612
18473W        W84882  27.924  24.037  14.827
18474W        W84883   0.817  36.337  12.505
18475W        W84884  21.476  22.135   4.758
18476W        W84885   3.256   3.916   4.195
18477W        W84886  44.267  12.852  10.869
18478W        W84887   4.857   2.016  14.094
18479W        W84888  35.897  16.904   2.019
18480W        W84889  18.345  11.829   3.199
18481W        W84890   3.993  13.482  13.440
18482W        W84891  37.433   4.264  12.011
18483W        W84892  20.274  12.987  12.838
18484W        W84893  13.700  10.072  11.985
18485W        W84894  20.464  33.157   2.893
18486W        W84895  32.740  25.935   2.831
18487W        W84896  19.614   2.044  12.891
18488W        W84897  40.956   9.345  13.261
18489W        W84898   0.931  28.724  11.071
18490W        W84899  12.307  25.082  13.973
18491W        W84900  41.119  20.118  10.722
18492W        W84901  41.533  29.186  14.704
18493W        W84902  10.300  33.364   4.918
18494W        W84903   8.455  38.756  11.155
18495W        W84904   4.803  38.842  10.535
18496W        W84905   4.669  19.750   4.424
18497W        W84906  21.926  27.486   3.608
18498W        W84907  40.050  39.370  14.864
18499W        W84908  25.575  40.355   0.596
18500W        W84909  20.314  12.064  13.803
18501W        W84910  21.732  31.749   3.722
18502W        W84911  44.897   0.589   4.212
18503W        W84912   0.634   6.747  12.047
18504W        W84913  44.137  35.002  12.257
18505W        W84914   1.529  13.514   0.441
18506W        W84915  16.068   8.906  11.678
18507W        W84916  22.412   7.659   2.525
18508W        W84917  38.056   6.371  10.760
18509W        W84918  25.157  19.972  13.406
18510W        W84919  44.729  42.206   2.306
18511W        W84920  27.927  28.934  14.208
18512W        W84921  29.516   3.821   3.652
18513W        W84922  37.559  15.657  11.847
18514W        W84923  21.679  33.387  13.735
18515W        W84924  35.106  33.061   2.533
18516W        W84925   3.898  33.110   0.807
18517W        W84926  12.244  32.145   2.717
18518W        W84927   6.877   3.685   4.886
18519W        W84928  16.499   9.306   0.614
18520W        W84929  12.879  15.582   0.251
18521W        W84930   1.043  10.363  10.831
18522W        W84931  12.611  31.414  11.059
18523W        W84932  38.610  42.933  14.996
18524W        W84933  28.602  44.957   1.407
18525W        W84934  10.783   2.218   4.979
18526W        W84935   9.623  40.375  13.362
18527W        W84936  41.020  37.491   2.187
18528W        W84937   2.746  35.667  12.767
18529W        W84938  36.039  27.630   4.274
18530W        W84939  12.282  38.957  13.596
18531W        W84940   0.023  36.874   3.114
18532W        W84941  11.230  43.992   4.982
18533W        W84942  42.816  22.649   0.197
18534W        W84943  40.322  40.254  14.289
18535W        W84944  11.214  33.587   0.512
18536W        W84945   3.002  22.531   4.068
18537W        W84946  30.390  44.618   4.751
18538W        W84947  42.748   5.598  12.035
18539W        W84948  33.035  39.775   1.178
18540W        W84949  32.501   1.880  10.343
18541W        W84950  14.429  44.019  14.932
18542W        W84951  38.671  38.127  10.693
18543W        W84952  24.725   0.871   4.857
18544W        W84953  21.466  33.121   3.328
18545W        W84954  24.971  37.439  11.622
18546W        W84955  19.315  19.009   3.582
18547W        W84956  28.550  11.112  14.381
18548W        W84957  14.217   8.492  12.422
18549W        W84958  19.308  23.063  11.001
18550W        W84959  12.997  42.028  13.470
18551W        W84960  40.913  16.541  14.170
18552W        W84961  42.885  17.843   2.585
18553W        W84962  14.300  32.052   3.659
18554W        W84963  31.540  22.724   2.731
18555W        W84964  23.212  12.757  14.384
18556W        W84965  15.457  13.560   2.821
18557W        W84966  42.016  33.157   3.665
18558W        W84967  43.860  30.412   0.453
18559W        W84968   8.391  32.957  12.093
18560W        W84969  12.269   7.491  12.374
18561W        W84970  13.297  34.886  11.181
18562W        W84971  35.104   5.690  13.089
18563W        W84972  22.761  20.837  10.168
18564W        W84973  30.584  32.517  11.275
18565W        W84974  30.535  28.603   3.965
18566W        W84975  34.527  21.567   4.637
18567W        W84976  17.413  38.496   4.646
18568W        W84977  28.218  18.564  13.673
18569W        W84978  17.217  10.237   0.364
18570W        W84979  29.028  15.850   0.329
18571W        W84980  16.945  36.404  14.213
18572W        W84981   9.648  23.451  12.910
18573W        W84982  17.781  19.210  13.771
18574W        W84983   7.264  21.391  12.428
18575W        W84984  32.437  33.018   3.014
18576W        W84985  28.475  36.484  11.588
18577W        W84986  16.007  29.692   0.875
18578W        W84987  39.049  27.664   4.112
18579W        W84988   3.250  44.532   0.329
18580W        W84989   5.188  20.480  12.495
18581W        W84990  34.283  25.583   1.625
18582W        W84991  28.586  24.769   1.446
18583W        W84992  28.404   3.264   4.502
18584W        W84993   0.283   3.782   0.136
18585W        W84994  23.581  21.647   3.697
18586W        W84995  34.896   5.942   4.948
18587W        W84996  25.658  19.161  12.610
18588W        W84997  29.025  11.156  12.393
18589W        W84998  14.361  29.034  14.059
18590W        W84999  25.548   6.393   5.102
18591W        W85000  20.200  39.305  13.324
18592W        W85001  17.831  30.570  10.676
18593W        W85002  18.853   2.065  11.047
18594W        W85003  40.034   8.281  13.828
18595W        W85004  34.652  32.481  12.181
18596W        W85005   3.942  36.129  14.700
18597W        W85006   6.508  29.094   4.406
18598W        W85007   2.809  39.248  14.792
18599W        W85008  10.689  36.570  14.741
18600W        W85009  21.152  22.156  12.464
18601W        W85010  17.837  39.258   2.728
18602W        W85011   9.329  38.280  13.831
18603W        W85012  35.419  31.691  11.664
18604W        W85013  21.140   5.729  13.522
18605W        W85014  44.331  21.433  13.494
18606W        W85015  32.051  30.753   1.272
18607W        W85016  11.194  22.068   2.907
18608W        W85017  12.524   6.162   2.894
18609W        W85018  17.451   7.645  12.916
18610W        W85019  33.259  28.729  12.862
18611W        W85020  10.662  41.056   2.248
18612W        W85021   7.283   1.719  13.667
18613W        W85022  22.543  34.973   2.612
18614W        W85023  40.996  12.790  14.298
18615W        W85024  16.109  10.449   1.861
18616W        W85025  13.788   7.826  13.057
18617W        W85026  42.146  12.687   4.776
18618W        W85027  19.189  21.205   2.485
18619W        W85028  42.829  39.455   2.426
18620W        W85029   7.386   2.219   2.303
18621W        W85030  25.174   1.345   1.328
18622W        W85031  41.658  33.504  10.299
18623W        W85032  34.101   7.345   1.385
18624W        W85033  14.866  29.747   0.473
18625W        W85034  33.884  37.940  14.571
18626W        W85035  31.648  22.435   0.405
18627W        W85036  25.858   9.560   1.376
18628W        W85037  25.744  12.327  10.154
18629W        W85038  14.930  29.941  12.064
18630W        W85039  38.566  37.066   1.705
18631W        W85040   7.032  10.734  10.593
18632W        W85041   7.267  12.627  12.375
18633W        W85042  24.536  40.500   2.216
18634W        W85043  22.782  44.436   4.574
18635W        W85044   2.345  15.928  11.707
18636W        W85045   2.352   2.229   1.429
18637W        W85046  26.089  35.387   0.238
18638W        W85047  19.605  23.941   1.322
18639W        W85048  39.016  33.544   3.199
18640W        W85049  41.039  17.245   1.169
18641W        W85050  12.794   5.352  13.490
18642W        W85051  24.493  18.810  13.562
18643W        W85052  10.645  40.104   1.259
18644W        W85053   5.711  26.451  12.863
18645W        W85054  38.228  15.209   5.375
18646W        W85055  18.499  21.910   1.412
18647W        W85056  18.241  24.975  11.718
18648W        W85057   5.226  36.070   2.833
18649W        W85058  27.211  17.707  12.466
18650W        W85059  17.232  11.030   3.764
18651W        W85060  30.603  33.007  10.691
18652W        W85061  11.146  29.660  14.353
18653W        W85062  11.727  24.068  13.946
18654W        W85063  10.313  36.388  11.894
18655W        W85064   3.739  20.805  10.337
18656W        W85065  10.907   9.887  11.572
18657W        W85066  12.332  24.710   3.611
18658W        W85067  20.185   6.588   0.955
18659W        W85068  28.301  13.283  12.454
18660W        W85069   4.077  23.247   1.984
18661W        W85070  41.936  23.704  13.301
18662W        W85071  35.808  31.362  11.503
18663W        W85072   5.164  22.619   0.721
18664W        W85073   4.424  33.791   1.429
18665W        W85074  39.039   8.901   4.711
18666W        W85075  27.853  39.047   2.265
18667W        W85076   9.795  12.163  12.541
18668W        W85077  32.941   7.285  14.257
18669W        W85078   6.443  32.533   1.852
18670W        W85079   2.467  28.138   1.946
18671W        W85080  42.498  21.705   0.386
18672W        W85081  43.784  42.903   4.850
18673W        W85082   4.436  32.887   1.031
18674W        W85083   7.953  10.250  14.341
18675W        W85084  36.422   5.252   1.433
18676W        W85085  39.421  17.493  12.306
18677W        W85086   7.671  34.093   1.630
18678W        W85087  16.616  37.110   2.509
18679W        W85088   0.043  27.026  14.835
18680W        W85089   3.156   9.081  11.189
18681W        W85090  10.264  25.258  11.066
18682W        W85091  34.020   1.070   0.890
18683W        W85092  36.896  12.925  10.833
18684W        W85093  34.019  17.908   3.568
18685W        W85094  26.617   8.422  11.953
18686W        W85095   2.883   7.928  12.586
18687W        W85096  12.666  31.522   3.537
18688W        W85097  21.959   8.969  11.140
18689W        W85098  17.740  22.296   3.421
18690W        W85099  39.000  30.855  14.271
18691W        W85100   2.172   8.927   3.953
18692W        W85101  11.849  13.336   3.696
18693W        W85102   7.670   3.203   0.451
18694W        W85103   1.972  21.551  13.560
18695W        W85104  22.761  38.935  11.049
18696W        W85105  32.935  30.078  13.460
18697W        W85106  17.095   8.679   1.877
18698W        W85107  40.005   2.375   1.174
18699W        W85108  14.675  27.717   4.502
18700W        W85109  13.620  18.469   3.154
18701W        W85110  36.110  10.773  12.424
18702W        W85111  22.675  15.564  14.360
18703W        W85112   0.952  16.164   1.717
18704W        W85113  26.221   0.601  10.993
18705W        W85114  28.533   5.854   0.918
18706W        W85115  38.519   7.928   1.743
18707W        W85116  39.302  38.594   3.706
18708W        W85117   7.970  19.214   1.866
18709W        W85118  15.509  24.520  13.477
18710W        W85119   5.949   6.073  11.364
18711W        W85120  27.317  40.521   3.084
18712W        W85121  41.108  32.925  11.941
18713W        W85122  26.660  12.200   2.020
18714W        W85123   6.456   4.384  11.204
18715W        W85124  33.881  30.684  13.368
18716W        W85125   2.673   5.896  12.605
18717W        W85126  26.387  27.120  12.572
18718W        W85127   4.672  28.069  14.034
18719W        W85128  20.023   3.757   0.867
18720W        W85129  17.090   2.818   3.399
18721W        W85130  38.054  36.553  11.620
18722W        W85131  11.573  35.968   4.118
18723W        W85132   0.380  19.939   3.240
18724W        W85133   5.776  11.874   4.810
18725W        W85134  38.787  33.028  12.543
18726W        W85135  14.936  16.671  11.432
18727W        W85136  32.107  31.439  10.666
18728W        W85137  28.667  14.253  11.506
18729W        W85138  38.390  42.959   2.421
18730W        W85139  42.877  25.416  12.087
18731W        W85140  19.053  36.936  11.541
18732W        W85141  20.082  28.677   2.615
18733W        W85142  42.456   5.621  12.452
18734W        W85143   0.408  29.061   4.196
18735W        W85144  12.169  32.254  11.033
18736W        W85145  40.324  24.282  13.016
18737W        W85146  40.890  29.469   4.838
18738W        W85147  23.124  35.618  14.107
18739W        W85148  30.592  32.109   3.588
18740W        W85149  29.485  32.028  14.381
18741W        W85150  17.759  19.030   0.448
18742W        W85151  22.134  22.494  12.682
18743W        W85152  18.427  20.285  12.500
18744W        W85153  20.263  27.715  13.446
18745W        W85154  40.622  27.531   0.417
18746W        W85155  16.763  31.147   3.815
18747W        W85156  35.500  16.557  13.370
18748W        W85157  14.309  21.984   2.209
18749W        W85158  13.609  27.438   4.007
18750W        W85159  23.916  16.738  12.477
18751W        W85160  24.395  25.565   2.396
18752W        W85161  43.827  24.524  13.370
18753W        W85162  38.013  12.050  11.669
18754W        W85163  16.509  18.736   0.968
18755W        W85164   8.348  23.989  12.490
18756W        W85165  26.735  35.936   0.237
18757W        W85166   9.292   7.325   1.884
18758W        W85167   8.798  40.771  14.524
18759W        W85168  39.430   6.524  13.993
18760W        W85169  25.187   3.818  12.151
18761W        W85170  10.815  31.213   2.252
18762W        W85171  40.934  15.664  11.653
18763W        W85172   6.610  14.866   4.206
18764W        W85173  17.377  19.335   3.723
18765W        W85174  10.069   8.058  14.585
18766W        W85175  27.850  42.809   0.426
18767W        W85176   8.085  33.841   1.838
18768W        W85177   0.910  30.646   2.757
18769W        W85178   1.068  23.656  10.829
18770W        W85179  40.398  21.947  13.348
18771W        W85180  14.612  22.744  11.950
18772W        W85181   8.059  12.543   3.258
18773W        W85182  20.193   1.916  11.598
18774W        W85183  19.848  34.519   0.998
18775W        W85184  20.209   5.319  14.605
18776W        W85185  15.137  28.649   0.607
18777W        W85186  29.080  39.116   1.825
18778W        W85187  25.585   3.926  13.033
18779W        W85188   4.700   4.572   0.080
18780W        W85189   8.399   4.207   0.457
18781W        W85190  26.922  40.026   2.304
18782W        W85191   1.829  19.313   0.287
18783W        W85192  34.378  18.301   1.387
18784W        W85193   2.684  14.080  11.636
18785W        W85194  18.641  20.279   1.789
18786W        W85195   1.334  30.364  11.690
18787W        W85196   5.735   9.647   0.415
18788W        W85197   6.305  37.023  13.284
18789W        W85198  40.565  22.798   3.687
18790W        W85199  38.287  11.239   2.362
18791W        W85200   9.690  40.312   0.209
18792W        W85201  10.103  41.861   4.430
18793W        W85202   6.809  30.662  11.691
18794W        W85203  36.067  11.842   4.171
18795W        W85204  32.651   8.246  11.473
18796W        W85205  26.639  37.456   1.857
18797W        W85206   7.349  28.409   3.240
18798W        W85207  13.577  10.051  12.589
18799W        W85208  23.107  34.478   3.569
18800W        W85209  29.514  44.444   1.205
18801W        W85210   8.798  11.358   1.729
18802W        W85211  22.672  44.705  11.191
18803W        W85212  19.371   4.939  12.106
18804W        W85213   1.028  12.041   2.485
18805W        W85214  13.660   8.944   1.822
18806W        W85215  17.862  38.658  14.173
18807W        W85216   9.741  15.868  12.330
18808W        W85217  24.191  12.964   0.543
18809W        W85218  21.849  24.289  11.159
18810W        W85219  25.759  24.132   1.211
18811W        W85220  12.517   4.813  10.523
18812W        W85221  42.796   7.350   4.729
18813W        W85222  39.103  24.194  11.611
18814W        W85223  14.408  21.143   1.920
18815W        W85224  30.870  40.059  10.808
18816W        W85225  10.399   6.363  12.064
18817W        W85226  23.614  15.879   3.325
18818W        W85227  24.201  16.864  12.064
18819W        W85228  15.818  24.174   1.768
18820W        W85229  15.268  36.052   5.409
18821W        W85230   6.954  24.959  12.451
18822W        W85231   3.909  14.620   2.692
18823W        W85232   5.970  38.540   0.221
18824W        W85233  17.461   8.245   3.687
18825W        W85234  21.810  12.844   3.828
18826W        W85235  10.149  43.352   0.309
18827W        W85236  36.868  34.510   4.286
18828W        W85237   6.244  38.791   0.739
18829W        W85238  24.541  39.825   3.719
18830W        W85239  21.378  16.679  13.841
18831W        W85240  39.928  25.155  12.981
18832W        W85241  18.168   4.456  11.019
18833W        W85242  38.775  34.505   2.918
18834W        W85243  17.627  35.120   1.251
18835W        W85244  21.192  28.593   4.717
18836W        W85245  20.601  40.372  11.120
18837W        W85246   5.855  28.453   1.332
18838W        W85247  15.862   2.912  10.637
18839W        W85248  43.770  33.603   3.784
18840W        W85249  30.913   7.748   0.493
18841W        W85250   2.449  13.230   5.132
18842W        W85251  22.263   1.767  10.443
18843W        W85252   2.452  33.645   2.858
18844W        W85253  21.642   5.603   1.543
18845W        W85254   1.840   6.226  12.705
18846W        W85255   8.316   9.374  14.274
18847W        W85256  16.547   0.916   1.969
18848W        W85257  17.240  29.926  12.573
18849W        W85258  34.036  18.360  12.528
18850W        W85259  23.170  24.096   1.325
18851W        W85260  14.582  41.471  14.772
18852W        W85261  42.827  29.904  11.610
18853W        W85262  33.348  31.690  13.372
18854W        W85263   8.907   9.862  13.336
18855W        W85264  35.327  30.012  11.946
18856W        W85265  10.371  17.324  14.420
18857W        W85266  25.627  11.162   3.869
18858W        W85267  36.074  33.505  13.163
18859W        W85268  22.530  26.608   4.526
18860W        W85269  21.986   6.055  14.401
18861W        W85270  13.531  24.169  13.270
18862W        W85271  38.385  11.423   4.515
18863W        W85272  13.542  21.123  13.220
18864W        W85273   2.917  43.325  11.680
18865W        W85274  22.413  24.928  10.234
18866W        W85275   9.600  33.373  12.486
18867W        W85276  27.542  10.376  11.021
18868W        W85277  38.892  42.861  13.911
18869W        W85278  34.147  16.561   0.481
18870W        W85279  43.370  16.364   0.420
18871W        W85280  30.488  21.094   3.799
18872W        W85281  19.197  25.734  14.511
18873W        W85282  19.076   1.678   0.898
18874W        W85283  44.436  18.989   4.766
18875W        W85284  17.727  37.125  11.550
18876W        W85285  40.274   9.063   3.787
18877W        W85286  43.608  30.718   1.321
18878W        W85287  40.585  39.181   4.223
18879W        W85288  21.780  12.997  10.041
18880W        W85289  31.140  35.143  13.320
18881W        W85290  40.129  15.208  10.873
18882W        W85291   6.365  18.779  12.179
18883W        W85292   6.578  44.246  13.846
18884W        W85293  44.162  42.923   0.544
18885W        W85294   7.812  22.090  12.520
18886W        W85295  22.592  39.017   3.435
18887W        W85296  21.550  41.198  10.568
18888W        W85297  11.761  27.454   2.874
18889W        W85298  12.597  30.693  14.840
18890W        W85299  33.467  20.716  14.332
18891W        W85300  30.405  32.052  11.945
18892W        W85301   7.806  42.725  12.859
18893W        W85302   7.868  36.526   0.468
18894W        W85303  25.691   8.368  14.436
18895W        W85304  25.276  13.771  12.924
18896W        W85305  30.898  31.178  14.568
18897W        W85306  42.700  34.998   2.680
18898W        W85307   8.315  23.474  12.457
18899W        W85308  28.447  22.145   0.679
18900W        W85309  31.390   6.956  13.061
18901W        W85310   0.147  11.141  13.657
18902W        W85311  35.174  14.727   2.753
18903W        W85312  19.146  12.930   3.123
18904W        W85313  26.480  32.002   3.168
18905W        W85314  24.074  19.680   2.302
18906W        W85315  38.494  19.688   1.258
18907W        W85316  16.252   7.348   1.406
18908W        W85317  32.438  13.919  10.988
18909W        W85318  17.209  39.338  14.880
18910W        W85319  17.080  32.489  11.721
18911W        W85320  13.416   2.512   2.385
18912W        W85321  35.069  33.267  14.691
18913W        W85322  27.681   2.930  14.565
18914W        W85323  25.238  19.632  11.923
18915W        W85324  24.082   8.883  12.063
18916W        W85325   7.322  12.121   0.643
18917W        W85326  14.595  29.070   1.933
18918W        W85327   0.523  28.610  14.940
18919W        W85328  26.599  44.344  10.785
18920W        W85329  19.591  11.746  13.927
18921W        W85330  18.014  25.459   0.974
18922W        W85331  13.641  44.694  13.073
18923W        W85332  15.743  28.541  12.942
18924W        W85333  14.075  41.515   4.566
18925W        W85334  30.136  35.453   1.674
18926W        W85335  41.425  28.694   3.932
18927W        W85336  41.088  41.427  13.453
18928W        W85337   2.815   1.110  10.506
18929W        W85338  10.941  28.399  14.895
18930W        W85339  38.768   7.567   0.456
18931W        W85340  15.710  28.120   1.653
18932W        W85341  17.861  13.855   2.729
18933W        W85342  44.464   3.485  14.243
18934W        W85343  35.378  41.022  10.730
18935W        W85344   7.762  25.585   1.874
18936W        W85345  44.069  37.665  10.174
18937W        W85346  13.162  26.914  12.951
18938W        W85347   4.451   1.812  10.777
18939W        W85348  24.781  14.213   2.121
18940W        W85349  30.607  44.619  13.815
18941W        W85350  39.880  21.872   3.620
18942W        W85351  36.003  27.162  13.614
18943W        W85352  41.683  35.642   4.144
18944W        W85353  30.900  37.468  12.467
18945W        W85354  20.772   8.280  12.865
18946W        W85355  37.381  24.882   9.944
18947W        W85356   7.632  18.693  14.378
18948W        W85357   1.582  39.049  13.527
18949W        W85358  22.175  12.581  11.046
18950W        W85359  34.741  13.613   0.976
18951W        W85360  43.328   2.373  11.171
18952W        W85361  30.891  26.485   0.871
18953W        W85362  16.742   8.991   4.565
18954W        W85363  44.234  37.912  13.832
18955W        W85364  15.894   7.941   2.449
18956W        W85365   1.953  19.797   1.654
18957W        W85366  37.814  20.759  14.414
18958W        W85367   7.945  15.294   3.219
18959W        W85368   4.456   7.249   4.328
18960W        W85369  20.986  12.061   3.096
18961W        W85370  22.215  41.083   2.770
18962W        W85371  44.155  42.617  11.620
18963W        W85372  12.352  39.589  11.640
18964W        W85373  16.151  10.353  14.528
18965W        W85374  35.011  34.211  13.488
18966W        W85375  31.137  36.858  14.936
18967W        W85376  21.585  39.830   2.804
18968W        W85377  44.430  33.771  12.188
18969W        W85378  15.323  32.484   1.317
18970W        W85379  10.699  41.655   1.428
18971W        W85380  30.576  24.751   1.893
18972W        W85381  21.311  24.099  11.719
18973W        W85382  14.241  43.455   1.790
18974W        W85383  30.400  36.973  13.886
18975W        W85384  16.213  11.454  11.466
18976W        W85385  44.851  38.732   3.200
18977W        W85386  39.229  37.310  13.297
18978W        W85387   5.963  36.030  12.850
18979W        W85388  42.114  12.781   1.881
18980W        W85389  13.671  31.915  10.176
18981W        W85390  28.035   5.262   0.232
18982W        W85391  33.915  25.127  14.336
18983W        W85392  24.472   8.321   0.553
18984W        W85393   6.838   6.544   3.287
18985W        W85394   4.051  14.214  14.165
18986W        W85395  14.959  26.510   3.013
18987W        W85396  15.066  42.889   0.033
18988W        W85397   3.903  21.428  11.923
18989W        W85398  34.522  24.595   1.697
18990W        W85399  22.020  34.398  12.004
18991W        W85400   1.373  26.147  10.772
18992W        W85401  30.549  24.270   2.783
18993W        W85402  24.770  28.032  11.142
18994W        W85403  37.162  31.198   1.833
18995W        W85404  41.724  21.327  13.883
18996W        W85405   6.379  43.049   2.962
18997W        W85406  26.739  27.227   3.647
18998W        W85407  21.044  11.153   3.770
18999W        W85408  19.475  38.522  12.251
19000W        W85409  39.510  18.088   1.145
19001W        W85410  35.275  36.135  14.836
19002W        W85411   4.462  38.323   1.295
19003W        W85412  15.840  37.028   0.411
19004W        W85413  18.089   5.766   1.639
19005W        W85414  17.741  37.367  12.002
19006W        W85415   7.749  42.944   0.618
19007W        W85416   8.768  28.017  14.840
19008W        W85417  15.755   2.641   1.536
19009W        W85418  12.799   6.440  14.497
19010W        W85419  20.450  14.105   0.810
19011W        W85420  11.634  27.065  14.778
19012W        W85421  42.530  21.668  13.998
19013W        W85422  21.083  20.137   4.588
19014W        W85423  38.088   9.252   1.305
19015W        W85424  33.555  12.190   4.583
19016W        W85425  25.886  37.986  10.696
19017W        W85426  17.667  14.383  13.012
19018W        W85427  10.357   9.859  11.657
19019W        W85428   1.535  29.092  12.784
19020W        W85429  18.215  22.967  10.875
19021W        W85430  19.917   1.972  14.626
19022W        W85431  18.026  22.158  14.767
19023W        W85432   9.577  36.502  13.502
19024W        W85433  10.827   7.332  11.526
19025W        W85434  12.262  35.871   0.870
19026W        W85435  14.867   1.057  13.098
19027W        W85436  15.334  17.144  12.999
19028W        W85437   3.690  31.870  12.998
19029W        W85438  39.264  32.927  10.893
19030W        W85439  23.508  30.463   1.211
19031W        W85440  27.058  35.914   1.805
19032W        W85441  22.991  17.503  11.651
19033W        W85442  17.098  34.100   4.747
19034W        W85443   8.272  34.028   3.802
19035W        W85444  12.772   0.649   3.270
19036W        W85445  24.470  39.584   4.168
19037W        W85446  38.920  38.400  11.135
19038W        W85447   8.773   1.801   5.031
19039W        W85448   1.638  20.287  13.636
19040W        W85449  35.939  24.502  14.712
19041W        W85450  17.094  12.796   1.982
19042W        W85451  18.387  37.808  13.031
19043W        W85452  17.304  26.587  10.895
19044W        W85453   0.748  14.717  14.266
19045W        W85454  40.910   7.692   1.391
19046W        W85455  31.960  10.657   3.298
19047W        W85456  30.184  23.713  11.492
19048W        W85457  21.666   1.746   3.592
19049W        W85458   6.856  26.731   2.837
19050W        W85459  39.320  16.546   4.504
19051W        W85460  33.615  34.972  11.636
19052W        W85461  21.522  10.714   1.224
19053W        W85462   6.660  18.148   4.818
19054W        W85463  24.731  11.196  12.103
19055W        W85464   2.911  27.262   3.370
19056W        W85465  19.179   1.240   0.008
19057W        W85466  36.459   1.393  11.194
19058W        W85467  20.595  33.891  13.318
19059W        W85468  32.747   4.830  11.555
19060W        W85469  41.546   8.187   4.721
19061W        W85470  11.643  31.115   0.210
19062W        W85471  20.318  44.430  11.141
19063W        W85472  35.313   1.064   2.887
19064W        W85473  13.382  31.013  11.444
19065W        W85474  34.130  31.567  11.212
19066W        W85475  34.941  14.354  14.443
19067W        W85476  17.826  27.627  12.591
19068W        W85477   9.891  28.116   0.012
19069W        W85478  25.145   7.421   3.664
19070W        W85479  21.204  23.467  10.611
19071W        W85480  24.484  41.498   1.421
19072W        W85481  30.492  13.403   0.453
19073W        W85482   1.020   3.356  13.527
19074W        W85483  23.524  12.806  13.474
19075W        W85484  17.168  28.040   1.766
19076W        W85485   2.203   5.359  13.814
19077W        W85486  44.516  32.989  13.465
19078W        W85487  43.245  32.644  11.511
19079W        W85488  16.104   2.501  14.975
19080W        W85489  22.900   4.361   1.289
19081W        W85490  10.263  34.265  10.632
19082W        W85491  13.516   1.198   1.311
19083W        W85492  16.234   5.841   3.889
19084W        W85493  33.642   4.365   1.292
19085W        W85494  26.071  35.964   2.529
19086W        W85495   9.093  43.256  14.433
19087W        W85496  27.631  42.864  13.154
19088W        W85497  32.314  15.771   3.605
19089W        W85498  18.583   7.451   1.759
19090W        W85499  27.651  25.587   1.263
19091W        W85500  37.675  30.145  13.998
19092W        W85501  40.507   9.715  14.389
19093W        W85502   6.696  23.449   1.875
19094W        W85503  16.712   4.234  13.706
19095W        W85504  35.947  18.842  14.481
19096W        W85505   4.988  15.226   4.004
19097W        W85506   2.742  40.561   0.756
19098W        W85507  30.418  15.721   0.452
19099W        W85508  26.003  17.846  10.801
19100W        W85509  30.333  33.012   0.473
19101W        W85510  17.233  13.676   0.292
19102W        W85511  25.122   4.696   5.107
19103W        W85512  22.284   2.491  12.007
19104W        W85513   0.758   8.262  11.878
19105W        W85514   1.958  31.113   2.459
19106W        W85515  40.090   4.770   2.240
19107W        W85516  27.218   9.875  10.393
19108W        W85517  27.938  24.518  13.392
19109W        W85518  38.497  36.307   3.324
19110W        W85519  22.536  39.865   2.770
19111W        W85520  36.675  18.550  12.212
19112W        W85521  15.815  35.892  10.201
19113W        W85522  29.938  12.070  13.927
19114W        W85523  28.897  37.731   3.199
19115W        W85524  31.588  34.679   0.477
19116W        W85525  34.341  20.018   1.834
19117W        W85526   8.246   3.904   3.198
19118W        W85527  28.896   0.103  13.279
19119W        W85528  26.631   2.859   0.763
19120W        W85529  20.580   7.009  13.369
19121W        W85530  43.583  19.080   1.320
19122W        W85531  25.455  18.292  10.288
19123W        W85532  34.134   9.744  10.521
19124W        W85533   0.660   8.671   2.257
19125W        W85534  16.125   5.935  13.436
19126W        W85535  13.502   8.163  10.686
19127W        W85536  32.907   0.883  13.560
19128W        W85537  25.762  28.123   2.829
19129W        W85538  27.976  39.851   3.478
19130W        W85539  38.491  15.079  13.768
19131W        W85540  14.273  41.371   3.176
19132W        W85541  44.848  28.662  11.955
19133W        W85542  21.289  34.540   1.416
19134W        W85543  35.077  12.320   1.305
19135W        W85544   2.780   8.150   1.589
19136W        W85545  33.948  31.881   3.259
19137W        W85546   1.258   5.841   3.368
19138W        W85547  26.508  43.383  11.256
19139W        W85548  27.520  39.260   0.054
19140W        W85549  36.006  18.646   0.378
19141W        W85550  36.412   8.684  12.941
19142W        W85551  14.332   8.763  10.767
19143W        W85552  33.879  29.571   4.636
19144W        W85553  29.865  16.685   0.891
19145W        W85554  20.642  33.361  10.687
19146W        W85555  25.158  22.576   3.679
19147W        W85556  36.374  10.823  14.176
19148W        W85557  42.338  19.737   4.418
19149W        W85558  30.431  13.889   1.357
19150W        W85559  30.615   5.821  10.682
19151W        W85560  39.777  40.231  12.698
19152W        W85561  20.455   2.178  11.955
19153W        W85562  13.925  42.776  12.177
19154W        W85563  25.745  26.926   4.913
19155W        W85564   6.381  19.448  14.014
19156W        W85565  14.673  10.350   0.637
19157W        W85566  41.393  18.325   0.131
19158W        W85567  36.667  23.920   0.274
19159W        W85568   0.990   2.028  11.620
19160W        W85569  18.568  12.461  13.596
19161W        W85570   2.422   4.867   4.568
19162W        W85571   0.764  27.968  13.448
19163W        W85572  33.643  27.863   1.776
19164W        W85573  41.663  37.333  13.485
19165W        W85574  22.145  23.788  12.854
19166W        W85575  34.656  16.135   3.910
19167W        W85576  43.657  39.681   0.265
19168W        W85577  43.459   3.235  10.378
19169W        W85578   5.843  29.918   4.535
19170W        W85579  32.119  44.692   0.683
19171W        W85580  14.340   3.222  14.322
19172W        W85581  11.277   0.977   2.320
19173W        W85582   3.805  13.684   0.648
19174W        W85583  30.186   0.400  12.081
19175W        W85584  44.263   7.215   2.882
19176W        W85585  39.933   3.232   4.745
19177W        W85586  29.469  15.584  11.182
19178W        W85587   2.926   5.718   2.697
19179W        W85588  44.452  38.885  14.061
19180W        W85589  35.860  40.366  12.972
19181W        W85590  30.514   1.928  12.070
19182W        W85591  13.716  19.259  14.361
19183W        W85592  22.208  38.367   2.949
19184W        W85593  35.080   7.696  12.633
19185W        W85594   9.646  29.298  13.773
19186W        W85595  42.400  18.679  14.302
19187W        W85596  23.426   1.178   3.887
19188W        W85597  36.840  17.142  13.847
19189W        W85598  24.479  40.479   1.332
19190W        W85599   4.969  21.448   1.682
19191W        W85600  10.757  18.170  14.303
19192W        W85601   1.805  40.276   0.929
19193W        W85602   5.318   2.707  10.399
19194W        W85603  21.534  17.033   3.061
19195W        W85604  32.293   4.882  12.451
19196W        W85605  35.585  12.867  11.981
19197W        W85606  42.560  20.593   0.939
19198W        W85607  16.094   0.867  10.542
19199W        W85608  25.010  15.573   3.652
19200W        W85609  32.134  14.258  14.551
19201W        W85610  29.725  19.101   3.283
19202W        W85611  39.959  11.302  14.001
19203W        W85612  16.058  11.729   4.856
19204W        W85613  44.817  11.683   2.823
19205W        W85614  12.283  10.601  12.110
19206W        W85615  37.511  18.691  11.246
19207W        W85616  25.988  41.855  14.804
19208W        W85617  36.007   2.544   3.933
19209W        W85618   6.484  40.707   1.851
19210W        W85619  30.711  35.747  14.478
19211W        W85620  42.965  27.558   3.314
19212W        W85621  26.120  22.490   2.707
19213W        W85622   2.277   8.925  14.774
19214W        W85623   3.211  35.795   1.843
19215W        W85624  33.554  29.535  13.099
19216W        W85625  29.839  42.990  12.377
19217W        W85626  30.150  13.254  10.818
19218W        W85627  32.807   0.297   2.785
19219W        W85628  27.079   9.947  14.779
19220W        W85629  27.052  15.812  11.576
19221W        W85630   5.427   8.723  11.473
19222W        W85631  30.195   5.779   4.110
19223W        W85632  21.600  12.903   2.190
19224W        W85633  43.556  34.605   2.721
19225W        W85634  42.785  43.225  11.228
19226W        W85635   2.257  33.431   4.831
19227W        W85636   9.388  24.830   3.136
19228W        W85637  21.659  31.993   0.993
19229W        W85638   4.794  29.230  12.325
19230W        W85639  44.569   9.111   0.045
19231W        W85640  16.817  15.777  12.480
19232W        W85641  42.960  14.166   1.813
19233W        W85642   0.627  16.068  14.772
19234W        W85643  15.185   9.354  12.644
19235W        W85644  17.562  33.270  12.983
19236W        W85645  20.691   9.220  13.555
19237W        W85646  39.370  42.002  11.587
19238W        W85647   4.544   7.182   4.848
19239W        W85648   7.724  44.700   0.510
19240W        W85649  32.353  24.663  12.147
19241W        W85650  19.492  44.372  14.954
19242W        W85651  36.775  26.205  12.041
19243W        W85652   7.929  35.613  14.309
19244W        W85653  20.849  31.034   3.023
19245W        W85654  18.257  11.888  11.360
19246W        W85655  43.219   1.441   0.463
19247W        W85656  44.246   6.749   2.141
19248W        W85657  29.512  36.869   3.345
19249W        W85658  38.940  34.007  14.942
19250W        W85659   3.954   9.598   2.427
19251W        W85660  39.763  10.522   4.635
19252W        W85661  34.061  34.309  13.088
19253W        W85662   8.099  26.503   1.294
19254W        W85663  29.856  27.169  11.137
19255W        W85664  27.679  24.524  14.873
19256W        W85665  37.431  29.223  12.497
19257W        W85666  29.751  19.616   3.447
19258W        W85667   0.798  30.337   3.141
19259W        W85668  10.827  34.395  12.430
19260W        W85669  38.655  14.589   3.182
19261W        W85670  44.889   6.687   2.966
19262W        W85671  26.960  23.507   0.919
19263W        W85672  37.077   1.851  13.606
19264W        W85673  17.200  24.728  12.859
19265W        W85674  14.886  37.778  13.361
19266W        W85675  38.489   1.002   2.334
19267W        W85676  34.619   5.225  12.473
19268W        W85677   8.190  43.130  10.896
19269W        W85678  13.003  10.883  13.878
19270W        W85679  26.022  15.982   4.283
19271W        W85680  16.821   6.225   0.428
19272W        W85681  33.045   4.799  12.814
19273W        W85682  33.959  40.526   2.113
19274W        W85683  26.494  44.008  10.399
19275W        W85684  27.391  39.838  13.259
19276W        W85685  19.985   6.762  11.821
19277W        W85686   4.928  24.210  14.276
19278W        W85687   9.463  17.287   0.519
19279W        W85688  21.601  23.540  10.924
19280W        W85689  29.465   6.878   2.692
19281W        W85690  28.823  29.828   2.322
19282W        W85691  21.100  13.741  12.513
19283W        W85692  36.666   0.884  12.084
19284W        W85693  29.079  38.897  10.354
19285W        W85694  33.457   0.726   4.531
19286W        W85695  33.289  21.623  11.448
19287W        W85696  41.401  35.603  14.895
19288W        W85697  39.340  31.876   3.231
19289W        W85698  17.629   6.003   4.386
19290W        W85699  40.333  20.175  13.080
19291W        W85700  20.098   9.350  14.349
19292W        W85701  20.199  29.915   0.873
19293W        W85702  37.085  36.131   0.104
19294W        W85703   1.300  16.022   4.461
19295W        W85704  26.595  37.690  14.004
19296W        W85705  15.025  21.692  14.374
19297W        W85706  15.093  24.437   0.440
19298W        W85707  12.760   0.335  12.380
19299W        W85708  23.088  41.039   2.671
19300W        W85709  22.379  29.110  12.210
19301W        W85710  28.899  22.133  10.470
19302W        W85711  29.151   4.916  13.106
19303W        W85712  40.282  10.067   3.635
19304W        W85713  15.295  16.476   1.255
19305W        W85714  43.841  32.053   1.663
19306W        W85715  42.510  39.438   4.610
19307W        W85716  41.447   6.691   4.322
19308W        W85717  28.316  33.558   2.846
19309W        W85718  28.066  36.392   1.413
19310W        W85719  44.929  22.582   0.727
19311W        W85720   4.956  38.324   1.131
19312W        W85721   1.680  37.477   1.834
19313W        W85722  18.199   8.661  14.163
19314W        W85723  35.402  40.614  11.073
19315W        W85724   6.676  32.852  12.631
19316W        W85725   8.078  21.917  12.104
19317W        W85726  42.875  38.429  13.935
19318W        W85727   5.649   8.809  13.382
19319W        W85728  32.530  30.435   4.058
19320W        W85729  27.180  44.724   1.396
19321W        W85730   8.914   0.693   1.394
19322W        W85731   4.644  31.320  11.227
19323W        W85732   7.796  36.010   2.154
19324W        W85733  10.371  40.472  13.785
19325W        W85734  19.278   7.659   0.283
19326W        W85735  34.619  38.973  13.482
19327W        W85736  11.145  30.428   1.770
19328W        W85737  34.077  12.668  13.569
19329W        W85738  26.650   6.920   5.390
19330W        W85739  18.019   2.409   2.652
19331W        W85740  11.836  40.746   1.742
19332W        W85741  28.031  22.895  11.516
19333W        W85742  27.745  37.118   1.190
19334W        W85743  19.517  38.992   0.366
19335W        W85744  20.620  41.742  11.678
19336W        W85745  22.712  25.775   2.850
19337W        W85746   9.601  39.948   1.950
19338W        W85747   5.171   9.807  12.099
19339W        W85748  18.246  17.663   1.919
19340W        W85749  41.222  21.507   4.244
19341W        W85750   4.598   5.067   0.063
19342W        W85751  11.336  29.973   1.942
19343W        W85752  31.549  12.770   4.030
19344W        W85753  16.941  30.960   2.851
19345W        W85754  34.876  17.072   1.715
19346W        W85755  19.479  43.091   3.590
19347W        W85756  10.807  34.521   5.617
19348W        W85757   8.320  31.947  14.440
19349W        W85758  20.234   6.576  11.406
19350W        W85759  15.799  35.506  10.936
19351W        W85760  13.085  30.675   1.932
19352W        W85761  21.636  37.025  11.616
19353W        W85762  41.616  33.030  11.937
19354W        W85763  17.892  41.925   2.173
19355W        W85764   4.973   0.459   3.250
19356W        W85765  31.560   0.022  11.841
19357W        W85766  16.215  41.540  13.809
19358W        W85767  31.130  13.780   3.122
19359W        W85768  11.747  20.728   2.357
19360W        W85769  36.416  19.001  12.467
19361W        W85770  27.544   0.798  13.427
19362W        W85771  11.819  37.097   3.389
19363W        W85772  22.213   5.432   0.196
19364W        W85773  19.705  10.772   0.880
19365W        W85774  15.692  21.956   1.892
19366W        W85775  30.165   7.716   2.373
19367W        W85776  43.265  12.356   1.373
19368W        W85777  11.908  27.690  11.973
19369W        W85778  25.630  16.557  12.470
19370W        W85779  30.576  11.224  14.718
19371W        W85780   6.841  21.006   1.895
19372W        W85781  24.688  15.732   4.400
19373W        W85782  17.291  32.041  10.478
19374W        W85783   9.742  44.056  14.004
19375W        W85784  39.991  15.671  12.239
19376W        W85785  25.122   0.787   3.646
19377W        W85786  29.304  24.206   1.735
19378W        W85787  39.498  14.799  13.595
19379W        W85788  17.169   5.361  10.601
19380W        W85789  19.217  40.851   3.433
19381W        W85790   0.826  35.571  11.095
19382W        W85791   4.320  36.519  10.700
19383W        W85792  19.063  34.552  11.954
19384W        W85793   9.835   2.324  12.036
19385W        W85794   4.698   3.301   3.320
19386W        W85795  41.769  18.075  12.581
19387W        W85796  26.134  12.029  14.910
19388W        W85797  44.279  30.039  11.669
19389W        W85798  25.024  43.335   3.181
19390W        W85799  39.631   4.758   0.238
19391W        W85800  24.496  23.548   2.411
19392W        W85801  31.590  10.374  11.531
19393W        W85802   1.824  26.306   3.578
19394W        W85803  24.687  35.403   1.195
19395W        W85804  35.884   3.454   1.355
19396W        W85805  23.706   0.696   0.141
19397W        W85806  11.756  37.360   4.611
19398W        W85807  14.773  29.595  12.426
19399W        W85808  19.582   3.193   2.279
19400W        W85809  12.352  41.378   1.301
19401W        W85810  31.951  38.716  10.571
19402W        W85811  28.467  12.658  11.695
19403W        W85812  21.597  22.005   0.982
19404W        W85813   0.378  39.902   2.240
19405W        W85814   3.420  42.449  11.462
19406W        W85815  26.672  24.729  12.964
19407W        W85816  19.813   4.759  12.999
19408W        W85817  23.444   3.035   3.270
19409W        W85818  20.626   0.398  11.589
19410W        W85819  35.362  15.413  12.690
19411W        W85820  15.823   9.431  12.384
19412W        W85821   7.335  11.032  11.170
19413W        W85822  14.863  23.719  13.321
19414W        W85823   8.697  44.033  11.043
19415W        W85824  40.079   6.721  10.520
19416W        W85825  32.727  44.378   3.828
19417W        W85826  21.096   2.310   1.236
19418W        W85827  42.658  41.540   1.382
19419W        W85828  29.786  34.493  14.441
19420W        W85829  20.395  10.104  11.663
19421W        W85830  21.228  12.669   4.675
19422W        W85831   0.101  18.615   1.931
19423W        W85832  44.337  33.162  11.128
19424W        W85833   3.766  33.313   4.356
19425W        W85834  31.218   8.421  14.610
19426W        W85835   0.861  44.378   4.426
19427W        W85836  17.162   6.713  12.881
19428W        W85837   2.333  41.938   1.401
19429W        W85838   7.741  28.129  10.132
19430W        W85839  24.143   6.538   4.577
19431W        W85840  24.260  28.030  11.162
19432W        W85841  11.425  14.302   0.013
19433W        W85842  14.325  35.365  10.777
19434W        W85843   1.438  32.558   0.322
19435W        W85844   0.467  21.967  12.525
19436W        W85845  35.417  37.499  10.630
19437W        W85846  19.000  19.274  12.404
19438W        W85847  17.391   9.992  14.931
19439W        W85848   2.657  42.476  14.317
19440W        W85849  42.860  28.058   3.195
19441W        W85850  26.601  40.286   2.897
19442W        W85851  18.989  23.157   0.275
19443W        W85852  42.340  20.822  11.961
19444W        W85853   5.070  37.342  14.446
19445W        W85854  28.130  38.137   2.510
19446W        W85855  39.909  38.508   1.467
19447W        W85856  15.394  30.786   2.334
19448W        W85857  20.727  14.921  12.052
19449W        W85858  10.884  38.801  11.137
19450W        W85859  21.758  43.371  14.635
19451W        W85860  29.984  27.945   0.070
19452W        W85861  31.400  14.854  14.949
19453W        W85862  25.555  39.993  14.125
19454W        W85863   5.653   0.550  10.597
19455W        W85864  22.425  41.818  13.910
19456W        W85865   2.411   7.752   2.575
19457W        W85866  38.272  15.684   1.443
19458W        W85867  18.139  15.843   4.190
19459W        W85868   8.109  32.919  14.250
19460W        W85869   4.674  10.147   2.990
19461W        W85870  27.167  35.890  12.119
19462W        W85871  22.898  21.632   9.687
19463W        W85872   3.507  31.061   0.254
19464W        W85873  38.136  36.256   2.205
19465W        W85874  10.406  30.885   2.344
19466W        W85875  20.353  11.740   4.645
19467W        W85876  22.150  20.784  14.829
19468W        W85877  17.650   4.115  14.004
19469W        W85878  16.234  27.065   3.146
19470W        W85879   9.157  22.761  10.825
19471W        W85880  20.563  33.391   3.382
19472W        W85881   0.005  38.691  11.147
19473W        W85882  30.347  38.017  14.054
19474W        W85883  21.455  19.440  14.809
19475W        W85884  19.200  37.877   4.179
19476W        W85885  36.777   1.860   2.933
19477W        W85886  12.150  34.137  12.463
19478W        W85887  43.075  18.285   1.890
19479W        W85888   4.134  31.010  14.060
19480W        W85889   8.694  28.123  11.658
19481W        W85890  19.811   3.010   4.600
19482W        W85891  35.218   3.349   2.096
19483W        W85892  33.831  42.528   0.063
19484W        W85893  23.893  25.757   3.291
19485W        W85894  35.883  38.067  14.097
19486W        W85895   4.009  12.778  10.876
19487W        W85896  12.899  11.159   0.590
19488W        W85897  30.211  36.352   0.019
19489W        W85898  32.973  16.691   2.434
19490W        W85899  26.234  30.202  11.103
19491W        W85900  41.973  40.195   1.306
19492W        W85901   6.383  31.092  12.619
19493W        W85902  25.907  34.507  10.992
19494W        W85903  41.262  21.612   3.341
19495W        W85904  31.413  15.426  10.372
19496W        W85905  13.431   2.005   2.594
19497W        W85906  43.476  36.683  13.122
19498W        W85907  29.428  42.588  11.584
19499W        W85908   4.272   9.083   3.665
19500W        W85909  17.898  39.940  10.014
19501W        W85910   5.229   7.779   1.671
19502W        W85911  20.914  40.406   2.476
19503W        W85912  16.900  17.046   3.421
19504W        W85913   4.616  21.005  14.273
19505W        W85914  34.571   4.877  14.879
19506W        W85915   3.440  14.850   2.613
19507W        W85916  40.075   7.834   1.722
19508W        W85917  23.947  21.684  14.462
19509W        W85918  27.878  11.225  13.880
19510W        W85919  17.682  14.526  12.034
19511W        W85920  16.499  35.657   0.443
19512W        W85921  44.989   9.671   1.689
19513W        W85922  39.728   4.307  11.061
19514W        W85923   6.245   4.919   2.610
19515W        W85924  22.023  31.406   4.021
19516W        W85925  43.719  34.429   1.071
19517W        W85926  18.534  24.137  14.523
19518W        W85927  11.601  23.114  11.224
19519W        W85928  40.827   8.402   2.619
19520W        W85929  42.018  38.310   3.222
19521W        W85930  38.078   1.844   1.923
19522W        W85931   5.938  22.542   1.237
19523W        W85932  26.674  15.756  13.490
19524W        W85933   6.274  38.353   1.021
19525W        W85934  18.189  27.169  13.776
19526W        W85935  10.682  26.934  10.706
19527W        W85936  42.338  25.699   2.344
19528W        W85937  20.289  33.813  11.610
19529W        W85938   9.986  33.507  12.158
19530W        W85939  25.621  24.963   1.118
19531W        W85940  20.210   9.181   3.182
19532W        W85941   8.221  19.240  13.892
19533W        W85942  35.541   2.315   3.187
19534W        W85943  23.705  16.959  11.349
19535W        W85944  27.499  31.612  10.793
19536W        W85945  31.210   2.458   3.663
19537W        W85946  16.814  33.064   2.645
19538W        W85947   4.007   8.069  11.601
19539W        W85948  27.895  20.412  13.985
19540W        W85949   5.247   0.431   0.825
19541W        W85950  24.001  12.996   3.318
19542W        W85951  34.350  20.715  14.280
19543W        W85952  44.131  36.431  12.063
19544W        W85953  27.002  38.550   3.201
19545W        W85954  18.984  19.594   1.487
19546W        W85955  22.018  34.313  11.132
19547W        W85956  22.513  36.995  10.015
19548W        W85957   5.173  24.713   0.710
19549W        W85958   7.648  18.825  12.507
19550W        W85959  43.147  13.060  11.261
19551W        W85960  25.263   3.746   1.699
19552W        W85961   5.366  42.496  13.046
19553W        W85962  32.718  28.065   4.852
19554W        W85963  13.397  35.034  10.698
19555W        W85964  14.141  36.812  11.633
19556W        W85965   0.337  22.484  13.461
19557W        W85966  11.048  20.340   3.243
19558W        W85967  41.733  23.631   0.355
19559W        W85968  26.565  38.905   1.849
19560W        W85969  27.080  43.454   3.741
19561W        W85970  40.784   2.679  13.695
19562W        W85971  33.255  12.499   1.459
19563W        W85972  23.231   9.296  14.250
19564W        W85973   0.135  16.563  12.881
19565W        W85974   7.224   7.437   4.048
19566W        W85975  26.441  42.780   1.161
19567W        W85976  20.295  18.500  13.738
19568W        W85977   2.333   3.316   2.895
19569W        W85978   4.439  44.822  12.577
19570W        W85979  29.468  32.785   0.976
19571W        W85980  41.125  44.400  12.575
19572W        W85981   7.168  27.983   1.410
19573W        W85982  35.020  16.033  12.078
19574W        W85983  29.699  32.555   0.092
19575W        W85984   7.395  36.923   4.578
19576W        W85985  19.429   9.616  10.328
19577W        W85986   9.709  18.610   4.585
19578W        W85987  12.452  30.563   3.228
19579W        W85988  19.067  21.816  11.524
19580W        W85989   9.277  34.602   1.345
19581W        W85990   1.217  39.709  13.020
19582W        W85991  16.824  43.717   2.734
19583W        W85992  16.861  40.974  12.913
19584W        W85993   9.134  40.378  13.208
19585W        W85994   7.786  23.596  10.488
19586W        W85995  43.609  34.402  11.567
19587W        W85996  20.845  18.435  14.411
19588W        W85997  17.758   2.342   4.784
19589W        W85998  44.070  42.430   2.801
19590W        W85999  14.763  25.177  14.282
19591W        W86000  29.482  20.191   4.715
19592W        W86001  10.794  33.893   1.282
19593W        W86002  14.597  15.726  10.217
19594W        W86003  38.110   2.206   1.161
19595W        W86004  34.193  17.091   0.732
19596W        W86005  32.117  30.455   2.286
19597W        W86006  28.512  28.664   0.183
19598W        W86007   6.386   6.449  13.833
19599W        W86008  19.161   9.396  11.348
19600W        W86009   7.651  28.836  10.673
19601W        W86010  20.070  16.896   3.625
19602W        W86011   3.462  27.658  14.337
19603W        W86012  28.533  27.335   2.148
19604W        W86013   5.942  37.026   4.712
19605W        W86014  36.953  32.838  11.199
19606W        W86015  10.162  34.830   2.761
19607W        W86016   8.460  20.937   1.421
19608W        W86017  37.055  12.710  13.539
19609W        W86018   5.614   0.292  13.550
19610W        W86019  43.061  16.075  14.277
19611W        W86020  11.101  21.079   2.733
19612W        W86021  18.716  32.419   1.750
19613W        W86022   0.684  37.735   4.115
19614W        W86023   2.355  12.182   1.769
19615W        W86024  11.041  23.328   1.341
19616W        W86025  14.311  39.882   0.354
19617W        W86026  39.063   5.774  11.001
19618W        W86027  23.492   3.789  14.761
19619W        W86028  40.322  18.622  13.948
19620W        W86029  40.934  33.990   3.776
19621W        W86030   1.360   6.167  14.526
19622W        W86031  17.997  33.361  11.684
19623W        W86032  39.709  40.727  12.894
19624W        W86033   5.757  20.315   0.193
19625W        W86034  16.713  44.255  10.862
19626W        W86035  19.334  43.401   4.165
19627W        W86036  36.067  10.285  14.323
19628W        W86037  21.051  42.264   4.746
19629W        W86038  14.672  41.833  11.485
19630W        W86039  27.927  33.488  12.807
19631W        W86040  19.092  33.539  14.361
19632W        W86041  34.970  43.420   1.867
19633W        W86042   3.380  24.501  14.372
19634W        W86043  43.054  40.912   3.633
19635W        W86044  12.771  33.748  13.882
19636W        W86045  37.439  40.784   2.657
19637W        W86046  28.892   5.423   2.591
19638W        W86047  42.699  44.805  11.590
19639W        W86048   3.475  18.731   2.895
19640W        W86049  22.743  10.879  12.394
19641W        W86050  40.583   0.564   0.855
19642W        W86051   8.759  32.327  12.018
19643W        W86052  42.240  14.226   3.152
19644W        W86053  40.087   2.838   3.933
19645W        W86054  33.116  24.754   1.424
19646W        W86055  14.510  28.094  13.419
19647W        W86056  43.793  14.562  14.549
19648W        W86057  35.520  20.217   4.237
19649W        W86058  23.767  14.542  14.228
19650W        W86059  24.048  10.628  13.374
19651W        W86060  16.298   1.467  14.840
19652W        W86061  36.779  25.963  12.937
19653W        W86062  25.439  19.128   2.019
19654W        W86063  26.502   1.203   2.241
19655W        W86064  38.490  16.582   9.871
19656W        W86065  19.338  11.096  11.567
19657W        W86066  19.825  11.720   3.220
19658W        W86067  19.506  15.398  12.261
19659W        W86068  43.121  30.541  11.221
19660W        W86069  14.633  24.111  12.461
19661W        W86070  24.045   2.395  14.051
19662W        W86071  19.137  29.510  12.642
19663W        W86072  31.554  14.413  11.999
19664W        W86073  36.513  17.187   9.843
19665W        W86074  33.464   2.541   2.794
19666W        W86075  18.386  24.321  12.864
19667W        W86076   2.767  29.689   2.510
19668W        W86077  24.841  21.521  11.548
19669W        W86078   4.279   1.159  12.999
19670W        W86079  26.712  20.073   2.714
19671W        W86080  11.528   2.660   1.688
19672W        W86081  28.849  44.319  12.634
19673W        W86082   2.869  21.496   2.599
19674W        W86083  36.704  17.686   1.276
19675W        W86084  43.702  38.123   4.245
19676W        W86085  22.700  44.457   0.544
19677W        W86086  34.323  27.382   2.299
19678W        W86087  30.612  12.274   2.286
19679W        W86088  25.717   0.573   0.446
19680W        W86089  38.350  19.910   4.141
19681W        W86090  41.740  30.238   3.667
19682W        W86091   1.608   9.739   2.412
19683W        W86092   8.265   5.333  14.231
19684W        W86093  24.488   4.372   0.737
19685W        W86094  27.603   3.810  13.903
19686W        W86095  24.289  13.293   0.930
19687W        W86096  26.389  30.699  11.164
19688W        W86097  17.745   1.349   0.942
19689W        W86098  29.452  18.283  11.925
19690W        W86099  23.464  30.306   2.607
19691W        W86100  19.722  23.737  10.676
19692W        W86101  23.385  19.783   9.417
19693W        W86102  23.479  39.015   0.898
19694W        W86103   3.942  25.799  10.964
19695W        W86104  28.703  40.929   3.099
19696W        W86105   8.153  15.131   2.787
19697W        W86106   3.381  20.983   3.822
19698W        W86107  15.662  25.541   2.726
19699W        W86108  11.635  33.117  14.374
19700W        W86109  44.323  21.010   1.756
19701W        W86110  22.302  19.956   0.775
19702W        W86111   0.454  28.246   3.296
19703W        W86112  22.116  40.325   0.903
19704W        W86113  14.260   3.479   5.020
19705W        W86114  24.705   1.426   4.048
19706W        W86115  33.094  33.238  14.295
19707W        W86116   0.842  22.487  13.841
19708W        W86117  20.267  20.688   2.742
19709W        W86118  14.168  17.491   3.660
19710W        W86119  37.100   2.051   4.159
19711W        W86120  12.777  30.165   3.195
19712W        W86121  23.633  12.813  14.991
19713W        W86122  34.814  40.508  11.688
19714W        W86123  37.025   5.867   1.764
19715W        W86124  22.023  27.672   1.232
19716W        W86125  42.439  36.561   3.386
19717W        W86126   5.697  16.090   2.753
19718W        W86127  32.398  39.522   4.662
19719W        W86128  36.069  21.384   3.648
19720W        W86129  36.131  10.096  11.055
19721W        W86130  43.372   8.193   2.246
19722W        W86131  12.431  31.115  10.701
19723W        W86132  31.964  16.379  14.295
19724W        W86133  25.770  39.092  14.346
19725W        W86134  25.688  13.210   1.737
19726W        W86135  36.083  17.241  11.952
19727W        W86136   1.934  20.074   2.622
19728W        W86137  21.819  21.244  11.279
19729W        W86138  11.323   3.965   4.170
19730W        W86139  29.542  29.615   4.204
19731W        W86140  41.515  18.015  12.075
19732W        W86141  27.087  33.962   1.848
19733W        W86142  32.114  41.642   3.670
19734W        W86143  37.745  36.007   1.960
19735W        W86144  29.135  13.521   3.283
19736W        W86145  39.833   1.219  14.988
19737W        W86146   3.597  33.027  12.585
19738W        W86147  44.884   1.002  13.455
19739W        W86148  20.515  36.860  14.337
19740W        W86149  33.507  41.901  10.900
19741W        W86150  10.911  44.312  12.193
19742W        W86151  41.102   5.012   3.713
19743W        W86152  15.213  20.101  14.996
19744W        W86153  31.602  19.241   4.183
19745W        W86154  18.574   5.172  10.490
19746W        W86155   0.898  18.682  13.118
19747W        W86156   1.216  27.958  14.337
19748W        W86157   3.520  15.160  11.395
19749W        W86158  12.271  18.169   2.871
19750W        W86159  28.786  27.194  10.635
19751W        W86160   6.439  27.379   0.752
19752W        W86161   2.360  31.006   4.102
19753W        W86162  38.955  39.486  10.752
19754W        W86163  33.443  21.838   0.041
19755W        W86164  12.662  14.708  11.658
19756W        W86165  11.285  37.363   4.794
19757W        W86166  30.760  26.588  10.661
19758W        W86167  12.777  34.250  14.055
19759W        W86168  11.267  30.604   4.978
19760W        W86169   1.677   2.337  11.138
19761W        W86170  17.620   6.739  13.124
19762W        W86171  11.783  37.093  11.451
19763W        W86172   3.414  35.359  13.981
19764W        W86173   4.900  34.341   4.908
19765W        W86174   3.926  13.618  14.763
19766W        W86175  18.667   2.353   3.427
19767W        W86176  23.512  34.716  11.949
19768W        W86177  29.508   3.720   3.113
19769W        W86178  23.013  13.225  14.589
19770W        W86179   7.734  36.657  12.529
19771W        W86180  33.583   9.356  11.612
19772W        W86181  33.136   9.498   1.757
19773W        W86182  41.543  18.529  12.478
19774W        W86183   0.989  38.001  14.391
19775W        W86184  38.796  42.865   1.774
19776W        W86185  12.122  32.885   0.863
19777W        W86186   7.983  33.686   4.059
19778W        W86187  28.045   1.029   1.866
19779W        W86188  37.028  27.558  13.943
19780W        W86189  26.685   3.369  13.011
19781W        W86190  26.950  41.882  12.500
19782W        W86191   0.072  22.044  13.456
19783W        W86192  16.988  36.791   5.094
19784W        W86193  32.957  17.008  11.935
19785W        W86194  29.307  43.056  12.477
19786W        W86195  24.510  39.947   4.549
19787W        W86196  20.695   9.962   1.383
19788W        W86197  39.631  25.114  12.058
19789W        W86198  10.697  38.969   3.321
19790W        W86199  39.068  39.827   3.268
19791W        W86200   2.734  14.762  12.017
19792W        W86201  21.111   3.796  13.860
19793W        W86202  24.073  44.232  13.376
19794W        W86203  43.259   0.228   1.812
19795W        W86204   7.987  13.859   0.088
19796W        W86205   6.065  18.583  11.805
19797W        W86206  16.053  28.283   0.905
19798W        W86207   7.228  37.128   4.117
19799W        W86208  22.295  43.886  13.495
19800W        W86209  34.243  28.795  13.890
19801W        W86210  24.068   9.005  14.419
19802W        W86211  43.916   1.083   3.144
19803W        W86212  35.544  20.663  14.416
19804W        W86213  23.605  30.507   3.493
19805W        W86214  38.494  20.887   5.431
19806W        W86215  32.674   7.807  11.751
19807W        W86216  21.391   4.672  12.195
19808W        W86217  33.868  11.860  13.144
19809W        W86218  42.843   1.870  13.360
19810W        W86219  36.553  21.203   9.889
19811W        W86220   5.496   5.992   1.385
19812W        W86221  38.521  29.615   1.739
19813W        W86222  31.129  33.694  11.735
19814W        W86223  12.746  13.676  12.856
19815W        W86224   5.840  20.818   2.988
19816W        W86225   3.865  12.177   1.262
19817W        W86226  41.911  14.188  11.687
19818W        W86227  11.135  35.739  11.291
19819W        W86228  24.751  37.559  14.859
19820W        W86229  31.381  13.622  12.516
19821W        W86230  24.441  33.430   5.009
19822W        W86231  21.707  18.849   1.404
19823W        W86232  31.938  11.669  14.702
19824W        W86233  20.079  13.215  12.419
19825W        W86234  26.076   5.491   4.275
19826W        W86235  38.456   7.127  12.517
19827W        W86236  29.192   6.831   3.532
19828W        W86237  26.346  16.627   5.033
19829W        W86238  32.635  22.285   3.756
19830W        W86239   3.935   2.522   2.674
19831W        W86240   9.031  38.748  13.924
19832W        W86241   4.887   7.941  11.138
19833W        W86242  33.904  20.659  14.634
19834W        W86243   8.276   8.648  14.039
19835W        W86244  29.669  19.320   2.413
19836W        W86245   9.874  20.989  13.773
19837W        W86246  33.836   3.096  12.953
19838W        W86247  12.474  38.774  11.193
19839W        W86248  12.594  37.362  10.619
19840W        W86249  29.650   4.152  13.573
19841W        W86250  40.852  29.502   0.871
19842W        W86251  41.085  11.103  13.880
19843W        W86252  40.044   9.692  13.458
19844W        W86253  34.930  20.646   1.355
19845W        W86254  19.561  27.928  14.812
19846W        W86255  24.978   5.191  10.622
19847W        W86256  15.041   3.859  14.996
19848W        W86257  10.050  39.455  11.129
19849W        W86258  31.850  32.949  12.304
19850W        W86259  41.455   0.711   0.263
19851W        W86260  42.359  33.926   4.199
19852W        W86261  38.383  20.782  11.075
19853W        W86262  43.830  41.994   4.539
19854W        W86263   3.924  29.931  14.401
19855W        W86264  25.350   6.634   1.245
19856W        W86265  28.892   7.078  10.783
19857W        W86266   1.219  32.168   2.928
19858W        W86267  16.107  26.590   3.359
19859W        W86268  34.912   0.291   1.243
19860W        W86269  12.160  26.512   0.692
19861W        W86270  44.357  41.270  13.009
19862W        W86271  22.426  10.694  11.420
19863W        W86272  17.279  15.044  14.033
19864W        W86273  20.551  11.609  13.969
19865W        W86274   9.537  10.640  13.295
19866W        W86275   5.229  14.372  14.675
19867W        W86276  11.899  15.165   0.185
19868W        W86277   4.009  27.301   4.649
19869W        W86278  24.992  38.970   4.685
19870W        W86279  36.566  26.869  13.930
19871W        W86280  38.883  24.598   0.817
19872W        W86281  42.782  39.699   4.228
19873W        W86282  22.069  14.570  12.168
19874W        W86283  11.350  29.612  13.593
19875W        W86284   9.828  35.081   3.700
19876W        W86285  40.976   0.223   2.312
19877W        W86286   2.415  40.954   2.636
19878W        W86287   8.399  40.341   0.734
19879W        W86288  21.144  19.338   0.362
19880W        W86289   2.830  12.583  12.026
19881W        W86290   7.941  23.019   0.463
19882W        W86291   7.857   6.264  10.680
19883W        W86292  39.829  21.583   2.178
19884W        W86293   1.357  23.148  10.630
19885W        W86294  23.085  31.933   0.825
19886W        W86295  23.516   8.652  10.029
19887W        W86296  44.522   6.683  14.029
19888W        W86297  25.835   8.789   0.752
19889W        W86298  16.272  24.750  11.575
19890W        W86299  25.615   7.600  11.517
19891W        W86300  20.296  19.601  12.557
19892W        W86301   0.623  29.631  11.180
19893W        W86302  27.690  30.939  12.068
19894W        W86303  17.185  17.153   4.235
19895W        W86304   1.395  10.760   2.009
19896W        W86305   5.808   3.388   4.968
19897W        W86306  31.004  12.123   4.008
19898W        W86307  41.911  12.246   4.567
19899W        W86308  24.154  27.923  14.293
19900W        W86309  17.165  20.401  13.906
19901W        W86310  22.633  22.913  10.542
19902W        W86311  43.232   4.264  13.394
19903W        W86312  30.347   6.410   0.420
19904W        W86313   1.561  14.193   4.173
19905W        W86314  35.573   5.041  11.116
19906W        W86315  32.836  33.215   0.244
19907W        W86316  23.299  16.601   4.748
19908W        W86317  22.709  31.928   2.301
19909W        W86318  30.139  11.432   2.276
19910W        W86319   5.358  28.236  14.504
19911W        W86320  42.573  17.394   1.870
19912W        W86321  42.467  38.913  13.364
19913W        W86322  14.028  23.035  11.083
19914W        W86323  15.285  21.209   2.616
19915W        W86324  19.711  31.661  14.776
19916W        W86325  33.032  43.951  12.451
19917W        W86326  32.123  20.166   4.127
19918W        W86327   1.948   8.987   2.101
19919W        W86328  21.484  36.548  11.871
19920W        W86329  11.650   4.495  12.083
19921W        W86330  14.810   9.421   0.785
19922W        W86331  36.547   2.866   1.920
19923W        W86332  26.719  20.134   1.913
19924W        W86333  31.195   7.556   1.165
19925W        W86334  38.554  24.101  12.466
19926W        W86335  37.638  29.385  13.365
19927W        W86336  30.629  17.243  12.398
19928W        W86337  34.390  28.178   4.309
19929W        W86338  22.727  18.134   4.877
19930W        W86339  32.132   4.734   0.961
19931W        W86340  16.362  44.813  11.555
19932W        W86341  30.888   8.303  13.146
19933W        W86342  13.239   9.824   3.380
19934W        W86343  14.948  40.601   5.083
19935W        W86344  19.285  21.715  14.793
19936W        W86345  42.058  22.201   4.253
19937W        W86346   0.433  25.026  13.775
19938W        W86347  41.384  44.938  13.989
19939W        W86348  13.130  35.885   1.848
19940W        W86349  27.128  33.619  13.481
19941W        W86350  21.401  20.446   0.253
19942W        W86351  13.760   8.396   0.791
19943W        W86352  19.630  23.463   1.129
19944W        W86353  23.691  43.861  10.998
19945W        W86354  13.803  31.806  10.686
19946W        W86355  30.400  40.952   4.930
19947W        W86356  35.449  32.344   4.105
19948W        W86357  27.624  27.627  11.930
19949W        W86358  41.437  24.008  11.094
19950W        W86359  30.493  19.943   4.645
19951W        W86360  41.471  17.272   3.142
19952W        W86361  20.169  27.565   1.785
19953W        W86362  26.189   4.221  12.058
19954W        W86363  22.300  41.584   1.775
19955W        W86364  18.012   6.747  13.455
19956W        W86365  11.113  13.801   1.605
19957W        W86366  11.205  22.942  12.384
19958W        W86367  12.629  24.965   1.142
19959W        W86368  36.082  34.453  11.694
19960W        W86369  11.612   3.434  13.127
19961W        W86370   4.518   2.516  10.563
19962W        W86371  20.540  19.916  14.687
19963W        W86372  44.869  34.114  14.780
19964W        W86373  35.134  11.711  12.099
19965W        W86374  33.624  21.025  10.178
19966W        W86375  39.394  30.602  11.452
19967W        W86376  43.972  40.237  14.452
19968W        W86377  29.394   7.609   0.323
19969W        W86378  34.639   9.820  10.471
19970W        W86379  20.242  17.721   1.836
19971W        W86380  21.761  12.668  11.346
19972W        W86381  13.608  41.010   4.104
19973W        W86382  26.612  24.904   4.634
19974W        W86383   4.816   5.702  11.110
19975W        W86384  30.852  24.616  11.617
19976W        W86385  14.132   0.720  10.695
19977W        W86386  36.640  22.173   2.729
19978W        W86387  39.622  37.515  11.434
19979W        W86388  13.543   9.664  13.835
19980W        W86389  36.310  36.475  13.837
19981W        W86390  18.532  16.310   1.484
19982W        W86391  11.799   3.171  14.900
19983W        W86392  20.274  29.304  13.435
19984W        W86393   6.651   3.213   2.388
19985W        W86394  13.868   2.330   2.598
19986W        W86395  10.410  31.257   1.051
19987W        W86396  34.451  21.988   0.654
19988W        W86397  16.125  37.394  11.756
19989W        W86398  12.603   6.782  13.950
19990W        W86399  40.556  35.682   4.648
19991W        W86400  29.683  35.880  11.124
19992W        W86401  19.805   9.055   4.101
19993W        W86402  11.176  16.189  13.376
19994W        W86403  32.582  37.783  13.879
19995W        W86404  40.349   8.095   2.639
19996W        W86405  18.761   8.362   1.477
19997W        W86406   6.432  43.531  11.221
19998W        W86407  17.255  39.767   2.217
19999W        W86408   5.295  31.859   2.670
20000W        W86409  17.298  20.914   4.659
20001W        W86410  36.253   1.284   0.872
20002W        W86411  34.548   2.490  13.033
20003W        W86412   4.976   3.284   0.070
20004W        W86413  19.401  10.215  12.472
20005W        W86414  10.661  34.346   4.306
20006W        W86415   8.243  23.104   4.587
20007W        W86416  36.058  31.628  11.101
20008W        W86417  20.161  10.062   1.934
20009W        W86418  38.001  29.910  12.004
20010W        W86419  36.056  31.834  12.414
20011W        W86420  22.427  38.020  12.597
20012W        W86421  21.734  35.030   0.261
20013W        W86422  17.782  33.705  14.291
20014W        W86423  35.442   2.621  11.920
20015W        W86424  44.117  19.756  13.855
20016W        W86425  25.055   2.639   4.586
20017W        W86426  16.203  27.213   1.635
20018W        W86427  37.578  20.947  13.948
20019W        W86428   2.212   7.698   2.109
20020W        W86429  29.030  41.650  12.833
20021W        W86430  10.835  18.322   3.675
20022W        W86431  28.180   6.778   3.563
20023W        W86432  30.181  31.721  11.574
20024W        W86433  17.301  37.363   1.799
20025W        W86434  31.685  30.868  14.971
20026W        W86435  22.612  11.082   1.037
20027W        W86436  19.741  40.537  13.365
20028W        W86437  38.164  15.669   0.027
20029W        W86438  23.040  39.294  12.559
20030W        W86439   7.451  37.229  13.925
20031W        W86440  44.242  17.660   4.174
20032W        W86441  10.217  22.557   2.702
20033W        W86442  20.689  41.502  12.955
20034W        W86443  35.477  13.379   2.745
20035W        W86444  40.731  42.768  11.035
20036W        W86445  15.848   2.337   1.128
20037W        W86446  34.892  39.316   2.257
20038W        W86447  12.885  28.783   0.495
20039W        W86448  44.805   6.359  13.607
20040W        W86449  32.145  27.560  10.477
20041W        W86450   6.089   7.377  12.785
20042W        W86451   3.201  21.295  12.933
20043W        W86452  38.552   3.193  12.351
20044W        W86453   8.174   4.438   0.053
20045W        W86454  36.823  14.617  12.007
20046W        W86455  22.745   2.905   0.362
20047W        W86456  23.641   2.323  13.027
20048W        W86457  12.693  14.704   4.410
20049W        W86458  24.225  16.180   3.370
20050W        W86459  26.270   6.626  13.271
20051W        W86460  30.794  15.619  12.148
20052W        W86461  20.419  44.728  13.332
20053W        W86462  24.968  39.207  11.653
20054W        W86463  44.498   5.715   4.150
20055W        W86464  13.896  41.014   3.670
20056W        W86465  36.653  35.026  10.758
20057W        W86466   9.808   3.746   0.715
20058W        W86467   4.716  38.536   3.884
20059W        W86468   6.300  42.393  10.352
20060W        W86469  30.163  44.841   2.237
20061W        W86470  19.656  39.232   4.569
20062W        W86471   5.459  40.357   2.994
20063W        W86472  43.733  12.729   2.454
20064W        W86473  11.758  17.028  14.921
20065W        W86474   0.362   2.173   2.720
20066W        W86475  15.391  38.469   2.522
20067W        W86476  13.707  24.981   0.946
20068W        W86477  23.970   1.221  14.873
20069W        W86478  14.345  44.042   3.691
20070W        W86479  31.850   8.260  12.147
20071W        W86480  24.524   7.514  14.921
20072W        W86481  13.382  13.204  14.327
20073W        W86482  40.437  23.949  10.287
20074W        W86483   5.763   3.445   4.109
20075W        W86484  19.262  17.698   0.398
20076W        W86485  18.312  15.236  11.240
20077W        W86486  35.812  10.891   1.842
20078W        W86487  37.027  36.740   4.262
20079W        W86488  41.234   7.775   2.387
20080W        W86489  26.564  17.829  12.855
20081W        W86490  29.551   8.175  13.519
20082W        W86491  31.515   8.168  10.656
20083W        W86492  41.915  22.564   0.639
20084W        W86493  20.711   0.850  11.351
20085W        W86494  14.712   0.452  12.881
20086W        W86495  18.257  30.859   4.565
20087W        W86496  36.792  16.404  14.364
20088W        W86497   7.600  18.351   1.695
20089W        W86498  37.261   8.796   1.482
20090W        W86499   6.814  26.221  12.971
20091W        W86500  19.812  28.995   3.590
20092W        W86501   1.363  24.702   3.422
20093W        W86502  20.009  28.260  10.608
20094W        W86503  11.706   3.965  10.973
20095W        W86504  44.634  25.487   1.403
20096W        W86505   6.882  20.727  13.956
20097W        W86506   7.937   8.406   1.272
20098W        W86507   4.341  35.662   0.955
20099W        W86508  25.512  27.657  10.780
20100W        W86509  44.627  17.666  11.176
20101W        W86510  21.236   2.019   3.629
20102W        W86511   4.214  26.593  13.810
20103W        W86512  27.981  22.713  13.421
20104W        W86513  37.549  17.717  12.587
20105W        W86514  34.787  44.977  14.139
20106W        W86515  25.097  31.322  13.395
20107W        W86516  10.835  17.757  13.071
20108W        W86517  36.166  22.415  10.740
20109W        W86518  31.592  32.541   0.133
20110W        W86519  38.372   8.434   2.730
20111W        W86520  30.822  40.356  11.310
20112W        W86521  34.076  40.354   0.722
20113W        W86522  31.460  18.990   2.828
20114W        W86523  32.568  26.306  11.275
20115W        W86524  40.066  11.824  13.803
20116W        W86525   4.209  16.593   0.369
20117W        W86526  26.921  23.144   1.378
20118W        W86527  41.297  14.667  12.020
20119W        W86528  23.752  24.881  10.695
20120W        W86529  12.793  18.490   0.542
20121W        W86530  40.268  20.644   1.149
20122W        W86531  40.965  13.186  12.323
20123W        W86532  27.448  25.357   3.051
20124W        W86533  37.886  36.155   1.349
20125W        W86534  44.204  40.611  11.187
20126W        W86535   4.786  41.307  14.902
20127W        W86536  37.041   1.890  10.495
20128W        W86537  22.473  43.897  13.981
20129W        W86538  16.509  11.698   0.363
20130W        W86539  35.927  16.025   3.221
20131W        W86540  28.871  18.080  11.103
20132W        W86541  44.483  20.755   1.337
20133W        W86542  15.736  22.618   0.194
20134W        W86543   4.738  20.315   3.744
20135W        W86544  44.510  17.549  13.409
20136W        W86545   5.217  16.763   1.232
20137W        W86546  10.857   6.106   2.265
20138W        W86547  34.606  11.252   4.940
20139W        W86548  31.268  29.639  13.442
20140W        W86549  14.104  16.935  14.389
20141W        W86550  21.066   4.740   4.077
20142W        W86551  33.545  30.677   4.913
20143W        W86552  34.501  15.890   1.219
20144W        W86553  31.379   3.399  14.811
20145W        W86554   1.195  31.685   2.794
20146W        W86555  28.586  26.537  10.772
20147W        W86556  40.817  13.875   1.852
20148W        W86557  14.421  43.916  12.209
20149W        W86558  35.913  13.413   0.322
20150W        W86559   6.627   0.867   1.695
20151W        W86560   4.091  10.087  10.948
20152W        W86561  40.097  26.168  13.004
20153W        W86562  34.429   4.371   1.924
20154W        W86563   6.444  15.272   4.513
20155W        W86564  24.012   6.696  14.385
20156W        W86565   7.597  22.529   2.258
20157W        W86566  20.588  31.060  11.972
20158W        W86567  16.761  44.882   0.348
20159W        W86568  42.678  26.595   0.015
20160W        W86569  11.654  13.452  13.136
20161W        W86570   1.432   4.018   3.196
20162W        W86571   9.286  26.645   0.945
20163W        W86572  23.971  14.869   0.244
20164W        W86573   6.244  21.626   2.437
20165W        W86574  16.746  10.357  10.226
20166W        W86575  30.460  31.519   2.344
20167W        W86576  31.857  42.470   4.266
20168W        W86577  27.186  21.636  12.901
20169W        W86578  10.991  24.083   4.554
20170W        W86579  27.423   6.292   1.699
20171W        W86580   4.096  12.792  14.480
20172W        W86581  13.318  39.023  12.054
20173W        W86582  36.127   5.966   3.242
20174W        W86583   2.197  12.359  12.088
20175W        W86584   0.494  10.606  12.003
20176W        W86585  44.893   7.023  14.334
20177W        W86586   0.983  36.832   4.089
20178W        W86587   5.972  15.587   0.572
20179W        W86588   2.243  26.626  13.852
20180W        W86589  23.913  39.991  11.758
20181W        W86590   6.705  23.061   2.237
20182W        W86591  23.574  26.324   2.832
20183W        W86592  35.998  17.231   1.156
20184W        W86593  29.496  28.121  13.354
20185W        W86594  40.273  36.411  11.119
20186W        W86595  43.376  36.867   4.331
20187W        W86596   4.764  16.961   4.918
20188W        W86597  34.563  39.610  12.849
20189W        W86598  12.763  36.638  14.469
20190W        W86599  26.186  27.479  13.324
20191W        W86600  14.522  38.432   1.228
20192W        W86601   0.831  18.022  10.542
20193W        W86602   7.045  25.072  13.515
20194W        W86603  22.583  44.178   1.895
20195W        W86604  18.337   9.904  12.597
20196W        W86605  26.659  33.211  13.840
20197W        W86606  28.714  35.499  11.533
20198W        W86607  35.298   4.803   3.376
20199W        W86608  33.182  39.499  11.957
20200W        W86609   9.824  13.810   4.180
20201W        W86610  22.176  25.046   3.638
20202W        W86611  40.194  32.989  11.584
20203W        W86612  24.877   3.323  13.773
20204W        W86613  26.101  10.441  12.965
20205W        W86614   9.207   0.027   2.688
20206W        W86615  11.652  44.166   9.593
20207W        W86616  40.148  36.005  14.046
20208W        W86617   3.296  26.228   5.124
20209W        W86618  42.432  11.585  13.930
20210W        W86619  16.796  26.429  12.484
20211W        W86620  19.355  11.616   4.148
20212W        W86621  39.995  25.681   3.657
20213W        W86622  26.542  36.402   0.431
20214W        W86623  36.993  40.467  10.816
20215W        W86624  19.189  24.152   0.572
20216W        W86625   4.373  38.669   3.507
20217W        W86626   0.269  26.116  10.792
20218W        W86627  12.285  14.550   1.688
20219W        W86628  14.536  12.431   1.910
20220W        W86629  11.286  20.483  12.856
20221W        W86630  14.978   6.335  14.092
20222W        W86631  27.541  39.913   0.926
20223W        W86632   0.845   2.465   4.476
20224W        W86633  22.601  38.578  13.108
20225W        W86634  12.209  14.617   3.445
20226W        W86635  30.292  32.490  14.505
20227W        W86636  24.696  30.516   3.722
20228W        W86637  23.151  41.024   3.714
20229W        W86638  43.413  44.332  11.200
20230W        W86639   6.387   5.962   4.560
20231W        W86640  33.908   4.339   1.952
20232W        W86641  29.243  40.804  14.478
20233W        W86642   8.161  42.518   1.444
20234W        W86643  31.631  16.082  12.798
20235W        W86644   8.862  28.561   0.548
20236W        W86645  32.130  43.756   2.203
20237W        W86646  42.781  30.148  13.421
20238W        W86647  10.769  16.662  11.421
20239W        W86648   5.353  41.902  14.489
20240W        W86649   2.736   4.636  14.031
20241W        W86650   0.422   2.767  10.851
20242W        W86651  25.333  40.358   4.835
20243W        W86652  37.856  39.991   0.982
20244W        W86653  17.650   0.713  14.005
20245W        W86654  28.094   2.934  10.865
20246W        W86655  12.334  25.577  11.101
20247W        W86656  13.397   8.370  13.647
20248W        W86657   1.098   2.840  11.941
20249W        W86658   9.617   6.838  14.260
20250W        W86659  11.900  30.233   4.067
20251W        W86660   4.852   7.902  12.829
20252W        W86661  41.508   4.279  11.195
20253W        W86662  16.795   8.688   0.387
20254W        W86663  27.076   0.249   0.334
20255W        W86664  34.311   9.244  10.504
20256W        W86665  16.524  33.495   2.662
20257W        W86666   9.459  23.199  14.362
20258W        W86667   9.051  25.121   1.504
20259W        W86668  27.521  23.702   3.059
20260W        W86669   6.338  29.620  11.198
20261W        W86670  29.021  21.469   1.757
20262W        W86671  39.924   4.587  12.083
20263W        W86672  32.468  26.907   4.560
20264W        W86673  38.813  19.699  14.867
20265W        W86674  12.391   0.793  11.133
20266W        W86675  31.147  34.563  11.410
20267W        W86676  22.602  11.768  13.071
20268W        W86677  12.557  19.218  10.684
20269W        W86678  34.469  24.398   2.179
20270W        W86679   2.676  41.921  13.938
20271W        W86680   8.138   2.367   4.138
20272W        W86681  11.683  17.178   0.815
20273W        W86682  27.460  11.957  11.861
20274W        W86683   5.349  29.358  10.290
20275W        W86684  13.754  10.967  10.596
20276W        W86685  10.010  20.080  11.596
20277W        W86686  30.956  22.674  13.344
20278W        W86687  22.863   9.500  13.480
20279W        W86688  36.584  44.031   4.088
20280W        W86689  10.195   7.131  12.347
20281W        W86690  26.554  39.858   0.355
20282W        W86691  44.487  35.462  13.024
20283W        W86692  17.804  28.995  10.681
20284W        W86693  17.664   9.321  10.687
20285W        W86694  23.965  32.437  12.020
20286W        W86695  22.625  41.571  11.644
20287W        W86696   7.976  42.058  11.773
20288W        W86697  18.941   8.391   2.119
20289W        W86698   3.356   7.917   3.770
20290W        W86699  20.063  34.575   3.860
20291W        W86700   5.759  16.369  11.974
20292W        W86701  39.082  36.041   0.338
20293W        W86702  36.362  22.947   2.316
20294W        W86703  10.427  20.150   2.801
20295W        W86704  16.991  41.390   4.546
20296W        W86705  17.043  31.472   0.702
20297W        W86706  19.786   1.684   0.526
20298W        W86707   5.490  19.287   2.119
20299W        W86708  29.619  15.127  11.052
20300W        W86709  12.443  30.958   4.050
20301W        W86710  10.104  32.480  14.920
20302W        W86711   0.270   4.253   2.628
20303W        W86712  11.391  12.046  14.350
20304W        W86713   0.786  30.582  13.137
20305W        W86714  24.715  19.515  14.882
20306W        W86715  13.695  42.293  12.980
20307W        W86716   0.072  41.824  11.072
20308W        W86717  18.787  21.085  11.949
20309W        W86718  24.648  20.110  11.584
20310W        W86719  43.909  35.983  11.890
20311W        W86720   0.528  26.955   3.677
20312W        W86721  18.041  20.083  14.431
20313W        W86722  39.048  33.806   1.740
20314W        W86723  30.397  30.446   3.406
20315W        W86724   0.908  11.501   5.090
20316W        W86725  29.422  10.299  12.081
20317W        W86726  10.650  17.707   4.583
20318W        W86727  21.607  40.969  13.550
20319W        W86728  35.440  32.094  13.989
20320W        W86729  34.449   6.784   4.019
20321W        W86730  27.113  18.550  13.890
20322W        W86731   4.411  21.493  14.930
20323W        W86732  20.222  17.368   2.220
20324W        W86733  33.662  22.690   1.247
20325W        W86734   1.348  25.365   4.903
20326W        W86735   5.920  21.286  10.648
20327W        W86736  11.292  32.329  13.275
20328W        W86737  35.113   5.131  11.535
20329W        W86738  41.343  34.049   1.299
20330W        W86739  18.211  10.214  14.476
20331W        W86740  25.493   6.753   2.532
20332W        W86741  19.199  42.028  12.880
20333W        W86742  17.255   4.403   2.176
20334W        W86743  44.305   7.221   0.476
20335W        W86744   1.028  10.813  11.120
20336W        W86745   7.110  37.388  13.082
20337W        W86746   0.269   4.707  12.101
20338W        W86747  34.642  32.474  11.657
20339W        W86748   6.845  27.628   1.638
20340W        W86749   7.937   5.679  12.786
20341W        W86750  22.988  41.547   4.974
20342W        W86751  27.277  27.139   3.547
20343W        W86752   4.349  43.900  13.621
20344W        W86753  19.116  37.451   3.218
20345W        W86754  33.614   9.320   1.758
20346W        W86755  33.073  34.122   3.450
20347W        W86756  18.631  30.441   0.557
20348W        W86757  38.044  33.107  13.880
20349W        W86758  43.842  36.409  10.472
20350W        W86759  39.999  32.254   2.184
20351W        W86760  11.941  39.056  12.367
20352W        W86761  26.963  23.525  14.974
20353W        W86762   4.862  32.447  12.165
20354W        W86763   2.885   2.808   1.392
20355W        W86764  29.143   2.516   1.752
20356W        W86765  15.287   2.330  11.707
20357W        W86766   8.748  10.982  13.818
20358W        W86767   6.453  27.159  13.837
20359W        W86768  21.366  38.726   4.184
20360W        W86769   1.944  38.932   0.297
20361W        W86770  10.447  11.866   3.532
20362W        W86771  12.925   4.684   5.642
20363W        W86772   6.476  17.010   0.832
20364W        W86773  15.075  35.342  14.164
20365W        W86774  12.437  12.183  14.036
20366W        W86775  22.282  43.859  11.940
20367W        W86776   7.972   3.521   2.921
20368W        W86777   2.880  31.381  11.682
20369W        W86778  40.873  23.277  13.317
20370W        W86779  11.621  42.856   5.432
20371W        W86780  28.156   7.439   4.145
20372W        W86781   2.245  29.498  11.212
20373W        W86782   6.151   0.841   0.864
20374W        W86783  24.238  11.865  10.716
20375W        W86784  24.743  11.557   1.377
20376W        W86785   9.124   8.151   3.305
20377W        W86786   0.033  30.661  12.040
20378W        W86787  11.984  40.395  10.694
20379W        W86788  17.769  17.568   3.541
20380W        W86789  15.907  38.480  11.854
20381W        W86790  25.225  11.709   1.299
20382W        W86791  27.592  34.890   1.382
20383W        W86792   0.351  16.708   2.156
20384W        W86793  25.048  28.441  11.252
20385W        W86794  26.755  23.164   4.027
20386W        W86795  33.424  29.753   9.990
20387W        W86796  33.681  21.230  11.067
20388W        W86797  27.998  24.431  11.555
20389W        W86798   8.150   5.831  10.679
20390W        W86799   3.424  22.652   1.416
20391W        W86800  15.838  43.278  14.837
20392W        W86801  12.606  33.894  12.377
20393W        W86802  14.181  28.096  14.943
20394W        W86803  15.705  19.518  10.086
20395W        W86804  30.196  19.165  11.546
20396W        W86805   3.173  22.679  14.236
20397W        W86806  30.481   6.678  12.829
20398W        W86807  26.266  11.072  12.353
20399W        W86808  27.860   2.305  11.547
20400W        W86809  42.343  10.124  14.780
20401W        W86810  28.454   1.398   2.299
20402W        W86811  21.338   6.474  14.030
20403W        W86812  21.744  23.615  14.249
20404W        W86813  41.727  41.922   3.282
20405W        W86814  33.874  32.646  10.380
20406W        W86815  15.990  12.938  11.477
20407W        W86816  40.817  19.101  12.424
20408W        W86817  33.394  18.686  10.253
20409W        W86818  23.581   2.662  14.376
20410W        W86819  32.853  39.151  14.976
20411W        W86820  18.748  38.881  11.896
20412W        W86821  25.567  11.128   2.342
20413W        W86822  13.666   8.576  11.700
20414W        W86823  27.160  37.981   2.920
20415W        W86824  14.225   8.373   2.493
20416W        W86825  23.101   0.868  11.896
20417W        W86826  16.192   5.323   0.470
20418W        W86827   8.397  26.435   2.835
20419W        W86828   6.898  22.482   3.834
20420W        W86829  41.891  25.769   3.677
20421W        W86830  38.117  17.677  12.634
20422W        W86831   3.900   3.807   0.773
20423W        W86832   3.543  40.455   0.280
20424W        W86833  40.323  35.479  11.092
20425W        W86834  36.303   7.444   0.744
20426W        W86835  23.576   0.793  13.004
20427W        W86836  39.462  14.041  14.526
20428W        W86837  28.641   3.268   0.821
20429W        W86838  17.647  14.342   2.841
20430W        W86839  23.433  31.347   4.591
20431W        W86840  38.470   3.349  13.329
20432W        W86841  33.026  28.934   2.728
20433W        W86842  14.725  44.732   3.836
20434W        W86843  19.085  15.510   3.747
20435W        W86844  16.345  34.440  12.117
20436W        W86845   6.609  35.994   1.781
20437W        W86846   4.809  41.308  13.921
20438W        W86847  40.496   8.113   3.987
20439W        W86848  29.927  28.137   3.308
20440W        W86849  40.874  17.342   0.700
20441W        W86850  13.532  23.293  11.118
20442W        W86851   4.003  16.006  11.269
20443W        W86852   4.733  33.610   0.081
20444W        W86853   0.280  13.255   0.310
20445W        W86854  42.367  36.536  14.396
20446W        W86855  12.561  19.739  10.728
20447W        W86856  26.612  38.887  13.350
20448W        W86857  32.810  12.156   2.792
20449W        W86858  29.900  22.125  10.669
20450W        W86859  33.505  30.650  11.643
20451W        W86860  41.870  44.396  14.324
20452W        W86861  31.292  12.889  14.323
20453W        W86862  21.536  39.170  13.484
20454W        W86863  31.550  44.808   4.163
20455W        W86864  24.476  22.411  14.776
20456W        W86865  37.959  17.833   0.715
20457W        W86866  24.702  25.687   3.657
20458W        W86867  28.796  43.337   4.125
20459W        W86868  36.805  21.796   1.056
20460W        W86869   8.779  41.543  13.768
20461W        W86870   5.845  21.335   2.858
20462W        W86871  27.629  36.815   3.236
20463W        W86872  21.749  17.146   1.735
20464W        W86873  32.483   1.766   9.842
20465W        W86874  21.237   1.238   0.395
20466W        W86875  16.742  38.008   3.485
20467W        W86876  41.439   2.234  11.116
20468W        W86877  32.515  12.188   1.971
20469W        W86878  13.219  26.572   2.860
20470W        W86879   1.665  11.904   3.726
20471W        W86880  41.398   8.409   1.777
20472W        W86881  25.622  42.273  12.076
20473W        W86882  32.138  39.429   3.154
20474W        W86883  21.518  36.920  12.597
20475W        W86884  15.476   0.473   1.918
20476W        W86885  42.796  12.226  11.730
20477W        W86886  30.191   8.730  12.091
20478W        W86887  37.016  22.520   0.040
20479W        W86888  38.007  24.666  12.824
20480W        W86889   0.872  24.646   4.826
20481W        W86890   6.923   9.912  12.269
20482W        W86891  42.713  41.025   0.392
20483W        W86892   0.913  15.669  12.404
20484W        W86893   3.219  26.929  14.828
20485W        W86894  10.881   0.859  14.311
20486W        W86895  26.162  36.910  11.184
20487W        W86896  20.801  39.416  14.731
20488W        W86897  25.280  35.278  12.393
20489W        W86898  29.659  19.772   4.963
20490W        W86899   6.769   2.790  12.221
20491W        W86900   4.413  28.227  13.619
20492W        W86901  27.162   9.777   2.457
20493W        W86902  33.645   8.449  12.598
20494W        W86903  41.165   3.228   4.214
20495W        W86904  32.203   6.791   9.860
20496W        W86905  12.454  20.536   1.768
20497W        W86906  30.052   6.808  14.503
20498W        W86907  25.251  10.605   2.813
20499W        W86908  37.854  10.628  12.016
20500W        W86909  18.321  13.366   1.674
20501W        W86910  43.222   3.481  14.026
20502W        W86911  15.849   3.364   3.994
20503W        W86912  38.502   0.539  11.062
20504W        W86913   7.454  31.495   3.142
20505W        W86914  40.045   5.668  13.872
20506W        W86915  19.714  17.627   0.098
20507W        W86916  10.905  24.173  11.832
20508W        W86917  15.840  16.625  12.356
20509W        W86918   3.186  19.362  12.760
20510W        W86919  19.616  28.950   4.064
20511W        W86920  21.440  23.440   3.668
20512W        W86921  30.289  15.097   4.343
20513W        W86922  30.885   5.130   1.008
20514W        W86923  19.734   6.368   1.742
20515W        W86924   0.254  11.445   2.617
20516W        W86925  35.921  25.061   2.869
20517W        W86926  42.097  32.320   0.840
20518W        W86927  27.977  25.454  12.472
20519W        W86928  13.433  13.025  13.354
20520W        W86929  36.993   5.207  14.119
20521W        W86930   3.763   2.288   3.691
20522W        W86931  25.736  34.297   2.652
20523W        W86932  21.188  14.692  12.050
20524W        W86933  36.609  13.121   1.447
20525W        W86934  41.674   9.171  11.596
20526W        W86935  37.170  34.268  12.965
20527W        W86936  31.008   0.737  13.998
20528W        W86937  36.797   6.695  12.058
20529W        W86938  42.384  40.365  10.365
20530W        W86939  13.810  44.370   2.209
20531W        W86940  16.730  43.407   1.792
20532W        W86941  39.813   1.254  14.441
20533W        W86942  37.268  19.498  14.532
20534W        W86943   2.252  40.540  14.847
20535W        W86944  23.934  12.064  12.909
20536W        W86945  37.880   5.516   1.023
20537W        W86946   0.423  43.444   3.586
20538W        W86947   8.990   1.979  11.547
20539W        W86948  18.282  19.279  13.753
20540W        W86949  30.699   2.437   2.824
20541W        W86950  42.619  21.856   2.216
20542W        W86951   7.678  37.984   4.497
20543W        W86952   7.796  17.027   3.519
20544W        W86953  10.903  17.872   2.765
20545W        W86954  18.254  17.301  12.216
20546W        W86955  44.450  19.477   9.793
20547W        W86956  12.389  19.209  14.875
20548W        W86957   0.333  34.698   2.255
20549W        W86958  23.514  21.513   4.502
20550W        W86959  20.051  41.619   0.315
20551W        W86960  31.251   5.744   2.928
20552W        W86961   5.136  17.953   2.335
20553W        W86962  23.198  34.093   3.248
20554W        W86963  25.510  25.195   4.388
20555W        W86964  33.042   0.728   0.476
20556W        W86965  27.529   8.255   0.330
20557W        W86966  41.592  18.138  13.450
20558W        W86967  31.176  15.723   4.858
20559W        W86968  21.477  40.414  12.061
20560W        W86969  33.364  28.992  11.672
20561W        W86970  35.008  22.460   2.232
20562W        W86971  17.163   9.677  12.104
20563W        W86972  38.503  36.978   2.264
20564W        W86973  16.204  13.203  12.036
20565W        W86974  14.821   4.334   2.339
20566W        W86975  15.546  17.275   2.151
20567W        W86976   0.813  25.483  11.270
20568W        W86977  16.377  10.359   4.946
20569W        W86978  20.313  11.822  13.343
20570W        W86979   6.412  28.246  12.106
20571W        W86980  43.711   9.041  12.918
20572W        W86981  24.658   1.730   0.248
20573W        W86982  40.458   5.225   1.468
20574W        W86983  16.775  25.690   0.365
20575W        W86984  41.505  18.265   1.781
20576W        W86985  26.534   1.005  10.484
20577W        W86986  14.350  23.454   3.424
20578W        W86987  26.516  41.786   4.857
20579W        W86988  15.355  36.130  14.425
20580W        W86989  25.970   1.944   1.688
20581W        W86990  41.533  31.615  14.250
20582W        W86991  21.097   6.400   0.439
20583W        W86992  17.079  12.695  10.695
20584W        W86993  33.311  12.159   2.162
20585W        W86994  42.963   5.042   1.919
20586W        W86995  43.711   6.757   5.418
20587W        W86996   6.461  42.497   0.733
20588W        W86997  35.924   1.581   3.940
20589W        W86998   4.708   5.384   4.758
20590W        W86999   7.393  18.731  12.936
20591W        W87000  16.102  29.293  12.917
20592W        W87001   1.496  19.940   1.841
20593W        W87002  15.722   0.176  10.977
20594W        W87003   2.737  23.312  11.886
20595W        W87004  41.272  40.460  14.470
20596W        W87005   3.234  25.751   0.335
20597W        W87006  22.185  24.990   1.725
20598W        W87007  32.528  27.210  14.832
20599W        W87008  16.767  17.747   2.324
20600W        W87009   2.676  10.858   4.530
20601W        W87010   5.372  29.264  14.487
20602W        W87011  29.153  21.639  10.829
20603W        W87012  35.770   2.881   4.387
20604W        W87013  16.845  35.986  13.931
20605W        W87014   4.790  15.325  13.826
20606W        W87015  30.496  21.486  11.160
20607W        W87016  21.117  44.481   0.765
20608W        W87017  12.512  28.435  11.617
20609W        W87018  25.040  38.681   0.502
20610W        W87019  25.497  21.182   3.625
20611W        W87020  39.105  27.148   1.659
20612W        W87021  25.874  27.492   1.295
20613W        W87022   2.512  37.455  13.151
20614W        W87023  26.101  30.560  14.490
20615W        W87024  39.946  28.637  11.024
20616W        W87025   7.344  38.811  14.779
20617W        W87026  27.777  32.604   4.596
20618W        W87027  22.777  39.181   0.453
20619W        W87028  16.294   9.847   2.732
20620W        W87029  43.983  22.034   2.339
20621W        W87030  24.709  27.257  13.087
20622W        W87031  21.092  32.896   3.607
20623W        W87032  38.827   4.480   2.235
20624W        W87033  15.302  20.551  13.521
20625W        W87034  41.416  19.387   3.784
20626W        W87035  23.517  39.065   1.837
20627W        W87036   4.864  22.074  12.829
20628W        W87037  29.528   2.744   5.227
20629W        W87038  26.122  12.061  12.121
20630W        W87039  26.200  40.442   2.630
20631W        W87040   8.145  18.685   2.720
20632W        W87041  17.166   2.089  14.826
20633W        W87042  30.654  37.576  14.912
20634W        W87043  17.344  20.789   1.401
20635W        W87044   3.947  22.176   2.241
20636W        W87045  11.744  12.065   4.489
20637W        W87046   7.070   5.553  12.852
20638W        W87047  27.129  26.224   3.424
20639W        W87048  31.585   5.165   1.580
20640W        W87049  32.303  23.095   0.056
20641W        W87050  41.040   9.730   1.267
20642W        W87051  18.668  14.885  11.081
20643W        W87052  40.043  13.801   3.709
20644W        W87053  38.020  35.440  10.695
20645W        W87054  21.752  44.184   2.797
20646W        W87055  35.323  38.320   2.345
20647W        W87056   6.843  18.132  12.370
20648W        W87057   9.907   6.778  10.955
20649W        W87058  11.760  10.908   0.480
20650W        W87059   5.853  20.082  12.887
20651W        W87060   6.172  38.865  10.846
20652W        W87061  42.850  30.997  11.216
20653W        W87062   7.158  34.493   1.266
20654W        W87063  17.040  44.577  10.594
20655W        W87064  27.681  20.753  10.509
20656W        W87065  30.654   3.738  11.571
20657W        W87066  20.561  11.282   1.612
20658W        W87067   7.256  35.991  14.550
20659W        W87068  14.136   2.715  12.485
20660W        W87069   0.592   2.858   3.308
20661W        W87070  16.989  11.805   0.540
20662W        W87071  16.348  16.697  12.441
20663W        W87072   8.095  31.968   4.442
20664W        W87073  12.075  11.774   0.976
20665W        W87074  43.787  14.782   0.806
20666W        W87075  17.805  43.527  10.948
20667W        W87076  43.128   0.332   4.369
20668W        W87077  22.958  38.797   2.767
20669W        W87078   0.237  33.048   2.685
20670W        W87079  21.771  43.826  12.817
20671W        W87080  43.449  18.050   1.237
20672W        W87081   5.298  17.320   4.628
20673W        W87082   1.747  29.943   3.766
20674W        W87083   4.733  25.882  11.284
20675W        W87084  40.221   6.400  13.814
20676W        W87085   4.551  20.559   1.505
20677W        W87086   7.329  35.329  10.898
20678W        W87087  34.314  27.589  11.939
20679W        W87088  16.037   1.870  13.404
20680W        W87089   7.656   3.334   4.092
20681W        W87090  35.482   5.453  12.568
20682W        W87091   9.105   8.685   4.223
20683W        W87092  21.242  33.064  11.238
20684W        W87093   5.402   6.199   4.143
20685W        W87094   1.902   8.490   0.701
20686W        W87095  40.318  26.367   4.141
20687W        W87096  29.204  40.014  13.690
20688W        W87097  37.979  24.771  11.902
20689W        W87098  14.206  20.520   2.505
20690W        W87099  26.087  41.715   3.121
20691W        W87100  24.737  43.811  13.107
20692W        W87101  14.577  29.163  11.197
20693W        W87102  34.152   6.348   3.863
20694W        W87103  24.303  13.141  12.017
20695W        W87104   1.325  29.633   4.680
20696W        W87105  37.433  34.364  10.847
20697W        W87106  16.017   5.690   0.783
20698W        W87107   6.012   4.995  10.744
20699W        W87108  10.806  39.859  13.466
20700W        W87109   8.401  31.564  11.041
20701W        W87110  33.058  24.728   1.942
20702W        W87111  43.549  33.616  13.050
20703W        W87112  19.561   3.177   4.151
20704W        W87113  32.909   2.253  13.437
20705W        W87114  42.623   1.905  11.602
20706W        W87115  26.729   5.322  11.042
20707W        W87116   8.843  24.413  12.203
20708W        W87117   1.957  30.419   4.670
20709W        W87118   6.839   8.249   0.707
20710W        W87119  19.599  26.071  14.449
20711W        W87120  34.962   7.842   4.697
20712W        W87121   0.710  27.908  11.513
20713W        W87122   8.695  19.336  11.897
20714W        W87123  16.018   2.816   3.401
20715W        W87124  23.840  44.625  11.745
20716W        W87125  41.246  22.261  12.862
20717W        W87126  11.072  18.206  11.880
20718W        W87127  18.622  25.539   2.226
20719W        W87128  20.117  17.294   3.991
20720W        W87129  34.836  34.856   3.570
20721W        W87130   2.785  36.545   4.593
20722W        W87131  24.907  30.009  14.187
20723W        W87132  44.261  39.023  11.392
20724W        W87133  35.756  43.939  12.372
20725W        W87134  35.852  43.523  12.065
20726W        W87135  41.960  18.195   3.284
20727W        W87136  13.315  26.784  13.915
20728W        W87137   9.110  21.204   0.607
20729W        W87138   4.288  17.874  14.203
20730W        W87139  13.186  14.683   4.768
20731W        W87140   1.388  42.352   1.677
20732W        W87141  31.954  36.111   3.730
20733W        W87142  39.525  28.650  10.678
20734W        W87143  10.294  25.770  11.138
20735W        W87144  34.977  23.019  13.078
20736W        W87145   0.310  39.293  10.488
20737W        W87146  38.042  42.420  13.957
20738W        W87147  17.320  27.225  13.085
20739W        W87148  16.404  17.893   2.744
20740W        W87149  28.386  36.361   1.893
20741W        W87150   5.392  17.256   3.308
20742W        W87151  24.157  26.963  12.126
20743W        W87152  20.733  27.783   4.717
20744W        W87153   0.816   9.820   1.407
20745W        W87154  35.942   8.432  14.065
20746W        W87155  28.816   4.233   4.556
20747W        W87156  10.737  26.500  13.038
20748W        W87157  34.614  25.212  11.916
20749W        W87158  43.888  32.661   3.398
20750W        W87159  40.833   5.490   1.726
20751W        W87160  13.257  24.174  11.182
20752W        W87161  41.321  36.443  11.245
20753W        W87162  43.935  26.000  13.793
20754W        W87163  17.475  32.940  14.858
20755W        W87164  41.009  35.992   1.909
20756W        W87165  23.412  33.569  13.829
20757W        W87166  36.231  42.412  13.385
20758W        W87167  18.611  12.261  12.601
20759W        W87168  25.245  21.039   4.990
20760W        W87169  21.557  39.374   1.834
20761W        W87170  33.035  20.266  12.584
20762W        W87171  36.120   5.861   4.204
20763W        W87172  42.740  27.087   3.390
20764W        W87173  19.062  41.911  14.676
20765W        W87174  30.580  37.952  12.494
20766W        W87175  13.622  11.098  14.763
20767W        W87176  38.607   4.973   4.771
20768W        W87177   0.049  15.657   0.297
20769W        W87178  38.200  23.909   1.096
20770W        W87179  39.879  18.191  10.926
20771W        W87180  44.933  26.532  14.969
20772W        W87181  34.361  37.843  14.439
20773W        W87182  43.962  39.916   3.403
20774W        W87183  41.253  37.591  14.489
20775W        W87184  13.437  22.069  11.726
20776W        W87185  21.936   3.198   4.324
20777W        W87186  13.557  16.568   1.039
20778W        W87187  12.434  44.365  12.304
20779W        W87188  31.800  34.971  12.544
20780W        W87189  36.808  18.277   1.864
20781W        W87190   8.081  41.755   3.149
20782W        W87191  12.744   8.935  13.949
20783W        W87192  39.624  16.751   1.345
20784W        W87193   6.626   0.919  12.078
20785W        W87194   9.310  27.804  11.144
20786W        W87195  43.807  43.310  11.109
20787W        W87196  41.813   4.723  12.039
20788W        W87197  17.396   0.567  13.309
20789W        W87198  25.928  27.687   2.649
20790W        W87199  42.473  10.895   0.252
20791W        W87200   2.770  12.809  14.561
20792W        W87201  41.212  30.583   2.317
20793W        W87202   6.451  31.642   3.294
20794W        W87203  32.477  21.858   2.278
20795W        W87204  16.635  25.454   4.590
20796W        W87205  26.596  44.468   0.447
20797W        W87206  35.285  13.726  14.857
20798W        W87207  10.634  20.700   4.919
20799W        W87208  39.326  21.304  11.257
20800W        W87209  12.663   3.782   3.649
20801W        W87210  38.946  40.042  13.122
20802W        W87211  14.252  27.204   2.189
20803W        W87212   2.975  18.968   4.180
20804W        W87213  37.770  23.293   3.836
20805W        W87214  35.594  16.150   0.318
20806W        W87215  28.171  28.977   1.188
20807W        W87216  25.359  24.082  11.173
20808W        W87217  25.951   8.859  13.943
20809W        W87218  41.334   9.678  13.920
20810W        W87219  28.516  31.109   2.619
20811W        W87220  32.406  16.681  10.603
20812W        W87221   5.936  33.384  10.626
20813W        W87222   4.472  38.441  10.677
20814W        W87223  37.035   9.769  10.465
20815W        W87224  31.623   5.980  12.747
20816W        W87225  38.357  42.811   4.736
20817W        W87226   5.366  20.726   3.234
20818W        W87227  27.919  12.412  12.292
20819W        W87228  10.939  41.426  13.875
20820W        W87229  41.175  18.670   5.167
20821W        W87230  43.398  37.929  10.672
20822W        W87231   4.434  38.881  11.390
20823W        W87232  39.272   3.424  10.829
20824W        W87233  22.071  38.906  14.713
20825W        W87234  34.956  27.452   1.758
20826W        W87235   4.404  16.835  14.912
20827W        W87236  16.035  35.545   3.481
20828W        W87237  12.777  15.942  11.512
20829W        W87238  18.813  17.786   3.931
20830W        W87239  10.446  11.303  12.475
20831W        W87240  44.370  17.471  12.520
20832W        W87241  36.802  40.252   4.232
20833W        W87242  17.690  24.721   0.957
20834W        W87243  33.043  32.075  10.628
20835W        W87244  23.114  26.725   3.806
20836W        W87245   3.799  43.926   4.190
20837W        W87246  35.089  13.212   0.769
20838W        W87247   8.179  36.111   0.492
20839W        W87248   2.816  29.105   4.803
20840W        W87249  32.499  11.184   4.560
20841W        W87250   3.361   0.073   3.512
20842W        W87251  39.395  22.468   3.025
20843W        W87252  29.547  15.803   3.781
20844W        W87253   2.287  22.970  12.800
20845W        W87254  23.245   4.410   3.241
20846W        W87255   5.421  12.724   0.777
20847W        W87256  35.165   1.170  11.972
20848W        W87257  28.646   5.749   2.233
20849W        W87258  41.814   3.051   0.861
20850W        W87259  29.397  25.918   3.247
20851W        W87260  12.366   7.640  14.721
20852W        W87261  36.979   5.507  12.162
20853W        W87262   2.133   2.496  12.109
20854W        W87263  18.315  29.454   1.069
20855W        W87264  41.121  21.148   4.663
20856W        W87265  23.133  44.238   3.295
20857W        W87266   5.739   1.929  14.409
20858W        W87267  16.325   2.472   3.725
20859W        W87268  18.342  13.628  12.936
20860W        W87269  15.402   2.274   0.845
20861W        W87270  33.081  28.082  12.172
20862W        W87271  27.104  20.194  10.292
20863W        W87272   1.240  14.066  12.159
20864W        W87273   2.323   6.854   3.739
20865W        W87274   7.091   4.551   2.108
20866W        W87275  44.777  20.151   0.703
20867W        W87276  36.328  12.582   2.373
20868W        W87277   0.092   9.816  10.072
20869W        W87278  24.677  33.805   2.530
20870W        W87279   8.091  23.516   3.825
20871W        W87280  27.384  29.475   3.251
20872W        W87281   3.199  24.773   4.590
20873W        W87282  20.735  29.500  11.452
20874W        W87283  21.055   6.639   3.735
20875W        W87284   6.478  25.966   2.681
20876W        W87285  35.951  21.134  12.062
20877W        W87286  35.338  15.022  14.900
20878W        W87287  37.838   9.285  12.941
20879W        W87288  37.584  39.005  12.351
20880W        W87289  36.834  17.602   9.976
20881W        W87290  13.204  13.875   2.780
20882W        W87291  36.460  13.693  12.298
20883W        W87292   4.408  10.914   0.305
20884W        W87293  34.642  33.436   3.683
20885W        W87294  34.399  18.209   4.472
20886W        W87295  29.612   1.948  13.591
20887W        W87296  14.327  17.098  14.809
20888W        W87297  24.223   6.502   1.897
20889W        W87298  17.330   3.756  14.510
20890W        W87299   7.817  26.540   1.879
20891W        W87300  19.763  21.962   0.525
20892W        W87301  26.230  23.872   1.329
20893W        W87302  29.193  18.529  12.952
20894W        W87303  38.117  20.204   3.743
20895W        W87304  27.133   8.999  11.233
20896W        W87305  24.052  36.503   3.122
20897W        W87306  10.456  16.165  10.720
20898W        W87307   2.444  11.220  13.597
20899W        W87308  25.545  43.209   0.836
20900W        W87309  37.086  33.773   2.345
20901W        W87310   8.693   6.205  14.603
20902W        W87311   4.419  41.921  14.461
20903W        W87312  38.270  22.346   1.949
20904W        W87313  14.144  22.538  11.079
20905W        W87314  23.637  31.845   4.543
20906W        W87315  13.526  12.893  10.096
20907W        W87316   5.196  12.314  12.956
20908W        W87317  21.444   1.399   0.924
20909W        W87318  11.861  32.825  13.989
20910W        W87319  24.144   6.228  11.222
20911W        W87320  35.159  44.975   2.319
20912W        W87321  29.681  39.004   4.269
20913W        W87322   5.782   7.014  12.952
20914W        W87323  25.134  40.582  14.884
20915W        W87324  17.736   5.835   0.240
20916W        W87325  10.409  28.821   2.183
20917W        W87326  17.466   9.229   0.344
20918W        W87327  28.489   4.843   1.547
20919W        W87328  19.254  40.542  14.076
20920W        W87329  39.201  15.778   1.380
20921W        W87330  21.121  32.372   1.759
20922W        W87331  18.206  17.630   2.804
20923W        W87332  15.554  17.687  12.928
20924W        W87333  39.366  21.093   3.220
20925W        W87334  40.461   3.404  10.771
20926W        W87335  22.527  22.619  12.277
20927W        W87336  41.030  33.861  13.122
20928W        W87337  33.499  16.073   4.946
20929W        W87338  28.038  40.973  12.166
20930W        W87339  15.730   6.769  11.129
20931W        W87340   6.687  40.270   2.829
20932W        W87341  40.567  31.400   4.394
20933W        W87342   8.261  10.465  10.419
20934W        W87343   8.800  19.875   3.279
20935W        W87344  34.579  34.789   1.753
20936W        W87345  24.606   3.938   4.467
20937W        W87346   4.232  12.296  12.016
20938W        W87347   0.672  40.736  14.286
20939W        W87348  43.021  12.208  10.771
20940W        W87349  32.226  17.801   4.554
20941W        W87350  16.596  29.824   2.824
20942W        W87351  17.372  36.430  11.902
20943W        W87352  20.246  40.788  14.920
20944W        W87353  42.298  22.104   3.722
20945W        W87354  36.372   0.789  14.774
20946W        W87355  12.193  11.181   2.153
20947W        W87356  28.751  23.895   4.533
20948W        W87357  43.828  18.734   1.711
20949W        W87358  18.217  35.518  14.955
20950W        W87359  18.831  21.684   3.567
20951W        W87360  44.010  11.874   5.073
20952W        W87361  34.490   0.470  11.565
20953W        W87362  23.716  10.868  11.183
20954W        W87363  37.902  27.680  12.937
20955W        W87364  21.166  34.618   0.435
20956W        W87365  31.104  32.058  13.578
20957W        W87366  21.319   2.413   1.700
20958W        W87367  43.447  39.824   4.621
20959W        W87368   6.591   5.825  12.107
20960W        W87369  15.726   2.070  14.216
20961W        W87370  19.174  39.821   2.435
20962W        W87371  10.754  40.601  10.832
20963W        W87372  25.522  40.147  14.608
20964W        W87373   8.943  34.373  12.094
20965W        W87374  40.875   1.238  13.522
20966W        W87375  32.431  10.789  13.822
20967W        W87376   1.468  36.112   0.345
20968W        W87377   1.715  40.541  11.582
20969W        W87378  38.086   1.000  10.275
20970W        W87379   8.939  11.111   3.324
20971W        W87380  44.690   7.749   0.802
20972W        W87381  33.196  36.800  14.784
20973W        W87382  26.276  26.153   1.806
20974W        W87383   3.920  36.061   3.308
20975W        W87384  18.289  37.081   4.989
20976W        W87385  17.175  25.551   1.985
20977W        W87386   3.379   9.349   4.021
20978W        W87387  23.455   4.830  11.435
20979W        W87388   0.348  22.206   3.625
20980W        W87389  12.863  37.695   5.359
20981W        W87390  34.377  14.090  12.937
20982W        W87391  30.058  24.485   4.783
20983W        W87392   1.987   6.364   4.664
20984W        W87393  23.318  39.060   4.233
20985W        W87394  32.980  13.117   1.913
20986W        W87395  44.913  15.826  13.441
20987W        W87396  23.252  28.076  14.841
20988W        W87397  42.321   2.417  13.830
20989W        W87398  41.826   2.905   3.943
20990W        W87399   6.397  43.221  12.051
20991W        W87400  33.499  40.034   2.273
20992W        W87401  31.106  13.267   2.365
20993W        W87402  16.065  18.611   1.248
20994W        W87403  43.549  38.512   0.812
20995W        W87404  38.606  31.594  12.476
20996W        W87405  36.349  36.044  14.952
20997W        W87406  44.138  36.471   9.997
20998W        W87407  42.827  18.639   4.953
20999W        W87408  33.459  36.633   0.296
21000W        W87409   6.254   6.505   0.557
21001W        W87410  15.219   7.709   3.177
21002W        W87411  30.013  28.105   4.863
21003W        W87412   2.985  18.570   1.797
21004W        W87413  21.782  14.696   3.736
21005W        W87414  17.328   1.800   0.250
21006W        W87415   5.908  42.720   2.243
21007W        W87416  23.040  32.107   0.338
21008W        W87417   8.423   0.054   5.076
21009W        W87418  22.277  37.516   3.792
21010W        W87419  17.247  42.923   3.741
21011W        W87420  27.540  31.362  13.436
21012W        W87421   2.999  24.238   3.795
21013W        W87422  37.814   4.914   1.107
21014W        W87423  34.067   8.342   1.426
21015W        W87424  15.914   8.259   1.622
21016W        W87425  11.203  31.645   0.260
21017W        W87426  17.103  37.394  13.466
21018W        W87427   0.368  20.742  14.696
21019W        W87428  20.004  25.756   4.131
21020W        W87429  33.598  31.088  12.563
21021W        W87430   7.925  28.361   2.743
21022W        W87431  32.264  28.331  14.854
21023W        W87432  33.776  15.572   4.358
21024W        W87433  28.038   8.723   3.368
21025W        W87434   1.714  33.512   1.859
21026W        W87435  14.145  29.355   4.464
21027W        W87436  17.975  38.006  11.088
21028W        W87437   2.168  35.693   4.191
21029W        W87438  12.055  21.273   3.853
21030W        W87439  39.583  11.927   3.290
21031W        W87440  36.164   6.229   4.845
21032W        W87441   8.227  16.613  12.130
21033W        W87442  17.962  43.851   4.600
21034W        W87443  39.992  42.864   4.829
21035W        W87444  38.984  43.968   1.509
21036W        W87445  41.083   7.305  11.559
21037W        W87446  44.258  40.036  14.963
21038W        W87447   8.345  19.069   1.439
21039W        W87448  33.858  12.958   2.680
21040W        W87449  38.972  41.212   3.117
21041W        W87450   3.248  42.312  10.990
21042W        W87451  15.948   7.550   4.065
21043W        W87452   9.286  24.603   2.660
21044W        W87453  34.636  31.131   1.388
21045W        W87454  41.557  18.720  11.693
21046W        W87455  27.445  34.067   2.889
21047W        W87456  15.728  42.127   2.743
21048W        W87457  12.691  39.001  14.273
21049W        W87458  42.073  36.987  14.325
21050W        W87459  31.960  35.470  12.462
21051W        W87460  11.260  27.101  13.517
21052W        W87461  22.087  43.999   1.256
21053W        W87462  16.948  11.383   0.276
21054W        W87463  33.634  24.525  12.391
21055W        W87464   9.791  30.968   0.432
21056W        W87465  36.548  33.151   1.926
21057W        W87466  12.356  22.926   3.116
21058W        W87467  43.494  37.619  13.295
21059W        W87468  17.297  20.429   2.287
21060W        W87469  39.299  16.744  11.777
21061W        W87470  16.254  18.566  13.473
21062W        W87471   6.821  14.577  12.392
21063W        W87472   1.403  10.749   4.208
21064W        W87473  18.159  21.482  13.023
21065W        W87474  32.124  19.630  12.270
21066W        W87475  34.061  39.501  14.976
21067W        W87476  36.556  23.286  13.887
21068W        W87477  19.103  36.493   2.319
21069W        W87478   9.936  34.485   3.775
21070W        W87479  33.600  28.154   2.200
21071W        W87480  12.920  19.475   4.993
21072W        W87481   0.972   1.860  12.126
21073W        W87482  19.617  28.282   1.854
21074W        W87483  19.810  25.482   3.695
21075W        W87484  34.886   6.267   4.542
21076W        W87485  25.891  24.697   0.411
21077W        W87486  21.092  44.329   5.026
21078W        W87487   8.548  20.519   3.685
21079W        W87488  43.906  23.005  11.701
21080W        W87489  39.612  44.964   3.309
21081W        W87490  40.883  17.734  13.359
21082W        W87491  19.265  20.621  11.573
21083W        W87492  10.741  21.237   5.001
21084W        W87493   2.487   1.033   4.531
21085W        W87494  17.278  15.650  14.702
21086W        W87495  37.433  23.017  10.965
21087W        W87496  34.224  29.119   4.751
21088W        W87497  38.909  22.914  13.959
21089W        W87498   6.650  29.018   3.921
21090W        W87499   8.716   8.204   0.908
21091W        W87500  10.287  36.813   9.859
21092W        W87501  36.586  35.515  13.456
21093W        W87502  34.670  37.985  14.820
21094W        W87503  10.141  42.630  13.516
21095W        W87504  39.019  25.578  14.357
21096W        W87505  12.648  39.874   0.788
21097W        W87506   2.654  39.912   1.381
21098W        W87507  36.813   4.912   2.716
21099W        W87508  36.329  14.338   3.315
21100W        W87509  25.785  22.481  11.621
21101W        W87510  16.304  34.619  13.138
21102W        W87511  31.328  29.980  13.044
21103W        W87512  30.972  28.800  14.551
21104W        W87513  39.619  44.738  11.950
21105W        W87514   8.565  18.074   1.725
21106W        W87515  27.937  26.080  14.454
21107W        W87516  16.340   8.463  11.078
21108W        W87517  11.062  37.928   1.753
21109W        W87518  24.185  15.267   3.817
21110W        W87519   1.242   1.834  13.026
21111W        W87520  36.347   1.716   4.466
21112W        W87521  38.862  10.829  13.770
21113W        W87522  43.672  42.284   4.134
21114W        W87523  14.980  17.730   3.204
21115W        W87524  21.176   7.705  13.509
21116W        W87525  16.385  15.886  12.037
21117W        W87526  30.252  11.918  10.695
21118W        W87527  13.864   9.210   2.310
21119W        W87528  22.867  11.070   2.287
21120W        W87529   9.047  31.292  12.162
21121W        W87530  23.899  20.477  11.358
21122W        W87531   4.746  44.804   2.764
21123W        W87532  20.089  36.407   2.082
21124W        W87533  18.060  23.697  12.118
21125W        W87534  37.696  10.235   3.274
21126W        W87535   4.850  37.876   3.833
21127W        W87536   2.938   5.784   4.203
21128W        W87537  31.019  25.504   3.611
21129W        W87538  21.286  31.781  11.608
21130W        W87539  29.018  17.355   0.216
21131W        W87540   7.760  38.049   3.979
21132W        W87541  24.213   2.941  12.432
21133W        W87542  31.517  21.728   3.713
21134W        W87543  27.074  39.276   0.799
21135W        W87544  28.466  23.777   2.252
21136W        W87545  25.696  11.737  11.979
21137W        W87546  19.789   7.909   4.942
21138W        W87547  44.373  11.349   2.685
21139W        W87548  13.160  41.401  14.637
21140W        W87549  25.195  15.318  13.943
21141W        W87550  22.909   2.744   2.332
21142W        W87551  30.469  24.241   1.900
21143W        W87552  41.062  23.088   4.415
21144W        W87553   7.440   3.457  11.927
21145W        W87554  37.308  24.449   0.847
21146W        W87555   0.462  16.834  12.567
21147W        W87556  30.046  24.642  14.895
21148W        W87557  32.456  18.948  14.097
21149W        W87558  16.366  12.288  12.386
21150W        W87559  43.295  40.565  12.479
21151W        W87560  40.231  26.467   1.680
21152W        W87561   5.445  31.702  14.975
21153W        W87562  30.167   9.429  10.293
21154W        W87563  16.243  37.778  12.106
21155W        W87564  41.479  21.284  13.435
21156W        W87565   8.076   5.219   0.550
21157W        W87566  38.737   8.853  13.788
21158W        W87567  39.470  12.407  13.507
21159W        W87568  38.930  37.039  14.574
21160W        W87569  37.450   7.530  12.934
21161W        W87570  31.503  19.759  14.069
21162W        W87571  38.270  11.911  13.430
21163W        W87572  10.106  32.724   2.913
21164W        W87573  15.625  21.757   1.392
21165W        W87574  30.112  33.981   4.274
21166W        W87575  10.417  30.972   3.148
21167W        W87576   9.354  11.720   2.040
21168W        W87577  12.102  25.131   4.541
21169W        W87578  16.616  23.620  13.051
21170W        W87579  27.723  40.457   2.259
21171W        W87580  42.863  32.888  12.427
21172W        W87581  34.974  20.688   1.871
21173W        W87582  18.227   4.394   2.277
21174W        W87583  10.200   0.874   0.907
21175W        W87584   6.206  41.305   3.561
21176W        W87585  10.790   7.783  11.244
21177W        W87586  44.615  20.541   3.619
21178W        W87587  35.728   1.694   9.759
21179W        W87588   8.798  38.013   4.983
21180W        W87589  13.223  42.919  11.979
21181W        W87590   9.401  14.033  14.800
21182W        W87591  15.025  12.818  11.990
21183W        W87592  10.407  13.783  12.439
21184W        W87593   5.258  34.652  11.218
21185W        W87594  35.400  19.138   4.444
21186W        W87595  38.119  30.543   0.385
21187W        W87596  29.842  34.433   2.714
21188W        W87597   3.694  21.661   0.414
21189W        W87598  22.933   5.318   1.147
21190W        W87599  29.140  17.746  12.358
21191W        W87600  16.161  35.503  12.613
21192W        W87601  14.753   7.762  10.718
21193W        W87602  44.312  41.108   2.838
21194W        W87603  39.358  27.688  14.974
21195W        W87604  15.575   6.250   1.646
21196W        W87605  35.709  38.075  12.366
21197W        W87606  20.648  31.531   3.065
21198W        W87607  31.259  40.028   3.766
21199W        W87608   0.122   5.324  14.448
21200W        W87609  42.892  10.254   0.926
21201W        W87610  14.123  44.188  11.697
21202W        W87611   9.628   9.595   0.272
21203W        W87612  31.503  26.774  14.507
21204W        W87613  25.623  30.177  13.354
21205W        W87614  37.531  29.458   4.775
21206W        W87615  13.215  27.728   3.395
21207W        W87616  30.880  41.938   1.940
21208W        W87617  38.250   9.346   3.066
21209W        W87618  23.295  12.326   4.803
21210W        W87619  18.182  38.053  12.098
21211W        W87620   5.380  41.354   4.141
21212W        W87621   6.340  21.076   4.130
21213W        W87622   4.795  20.460   5.023
21214W        W87623   5.714  32.292   3.402
21215W        W87624  43.195  23.007   3.028
21216W        W87625  27.168  30.877   1.946
21217W        W87626  28.516  22.151   2.659
21218W        W87627  16.816  25.992   2.681
21219W        W87628  18.092  16.099  14.732
21220W        W87629  43.804   8.879  13.404
21221W        W87630  10.812  31.921  11.047
21222W        W87631  33.876  28.193   0.317
21223W        W87632  11.607  15.960   1.422
21224W        W87633  35.537  38.966  11.860
21225W        W87634  37.103   3.517   3.169
21226W        W87635  34.042  15.735   3.937
21227W        W87636   2.961  16.327  12.405
21228W        W87637  30.964  23.572   2.875
21229W        W87638  44.479  30.097  14.855
21230W        W87639  21.635  41.276  11.552
21231W        W87640   2.020  43.950  14.780
21232W        W87641   1.545  32.498  12.223
21233W        W87642  31.423  12.321  13.469
21234W        W87643   0.754  13.634  11.435
21235W        W87644   9.986   4.047  11.079
21236W        W87645  38.845   6.893  12.109
21237W        W87646   9.336  39.974  10.643
21238W        W87647  29.600  22.514  11.231
21239W        W87648  14.903   9.179  11.998
21240W        W87649  37.389  20.031  11.297
21241W        W87650  32.348   2.061  12.107
21242W        W87651  39.139  17.169  12.017
21243W        W87652  43.574  37.292   2.377
21244W        W87653  35.514  23.093  10.659
21245W        W87654  10.793  18.894   2.887
21246W        W87655  29.209   5.428  13.113
21247W        W87656  41.816  17.786   2.693
21248W        W87657  29.216  15.060  14.874
21249W        W87658   0.327  30.618   1.690
21250W        W87659  18.826   2.528  13.388
21251W        W87660  43.533   7.957  13.775
21252W        W87661   9.308   4.661   2.297
21253W        W87662  10.748   8.448   2.313
21254W        W87663   6.749  11.298   0.076
21255W        W87664  38.550  16.002  13.740
21256W        W87665  32.435  33.467   9.913
21257W        W87666  14.279  29.939   3.749
21258W        W87667  12.656  19.632   4.561
21259W        W87668  39.015  42.244  14.337
21260W        W87669   2.488  39.071  12.450
21261W        W87670  23.949   4.956  11.475
21262W        W87671  17.403  19.961   2.059
21263W        W87672  20.540   8.401   3.177
21264W        W87673  24.966  21.185   3.591
21265W        W87674  30.117   8.866  13.506
21266W        W87675   6.038  13.724   0.756
21267W        W87676  42.849  11.633   0.458
21268W        W87677  22.121   1.646   2.667
21269W        W87678  39.042  14.329   3.668
21270W        W87679   9.915  43.052  13.777
21271W        W87680   5.268   4.772  10.236
21272W        W87681   3.481   2.317   5.209
21273W        W87682  13.582  18.116  13.597
21274W        W87683  25.216   8.951   2.898
21275W        W87684  22.081  25.843   4.116
21276W        W87685  21.516  11.356  14.417
21277W        W87686   6.232  28.611   2.274
21278W        W87687  20.798  25.930   1.781
21279W        W87688  14.215  13.449   3.264
21280W        W87689  12.007  20.719   0.513
21281W        W87690   7.181  12.396  11.535
21282W        W87691   6.270  24.160   2.836
21283W        W87692  14.739  19.223  12.469
21284W        W87693  22.329   9.486   4.348
21285W        W87694  37.629   7.842  12.544
21286W        W87695  15.537  27.847  11.122
21287W        W87696  20.052   0.020  13.066
21288W        W87697  22.148   6.167  12.252
21289W        W87698  23.523  14.497  12.038
21290W        W87699   7.191   0.910  12.816
21291W        W87700   7.931  42.783   2.802
21292W        W87701  43.516  25.370  10.598
21293W        W87702   0.042  40.061   0.708
21294W        W87703  42.746  37.505  14.486
21295W        W87704  13.874  19.973   4.142
21296W        W87705  42.294   6.511  12.179
21297W        W87706  41.328  20.517   4.205
21298W        W87707  30.615  16.314  12.814
21299W        W87708  18.513  32.128  11.245
21300W        W87709   7.913  42.866   1.110
21301W        W87710  40.407  20.920   5.390
21302W        W87711  32.897   9.529  14.244
21303W        W87712  43.793  34.759   0.022
21304W        W87713   7.438  19.315  12.365
21305W        W87714  34.661  21.279  11.957
21306W        W87715  18.645   7.355   1.182
21307W        W87716  28.163   6.441   4.607
21308W        W87717  30.127   9.360   3.909
21309W        W87718   3.474  37.889  12.447
21310W        W87719  21.663  38.054  13.310
21311W        W87720  27.226  32.140  14.285
21312W        W87721  19.272  23.022   1.737
21313W        W87722   4.128  21.550   4.273
21314W        W87723   7.080  11.873   4.320
21315W        W87724  20.966  42.777  13.959
21316W        W87725  19.581  18.302  13.272
21317W        W87726  29.304  37.012   2.794
21318W        W87727   7.481   0.404   2.424
21319W        W87728   4.872   7.150   0.490
21320W        W87729  43.401   9.810   3.131
21321W        W87730  24.116  33.742  11.341
21322W        W87731  15.205  32.911  12.132
21323W        W87732  13.198  42.499  13.535
21324W        W87733  34.408  10.749   1.625
21325W        W87734  41.446  16.312  12.937
21326W        W87735  10.053  12.452   1.721
21327W        W87736  35.162  43.927  11.613
21328W        W87737   5.709  21.707  13.505
21329W        W87738  14.054   9.270   1.844
21330W        W87739  40.513  10.638   2.179
21331W        W87740  27.634  35.982   4.178
21332W        W87741  36.417  33.011  12.082
21333W        W87742   1.299   3.411   1.732
21334W        W87743  35.113  25.429  12.943
21335W        W87744  19.307  26.739   1.724
21336W        W87745  42.350  26.323   0.309
21337W        W87746   4.512   3.957  14.322
21338W        W87747  29.665  16.339  14.891
21339W        W87748  38.654  23.163   3.752
21340W        W87749  16.534  29.394  14.367
21341W        W87750  22.521  16.783  11.907
21342W        W87751  10.262  40.955   1.154
21343W        W87752   1.682   6.999  14.494
21344W        W87753  37.242  26.037  14.324
21345W        W87754  31.317  27.387  13.073
21346W        W87755  29.930   9.369   1.662
21347W        W87756  32.594   8.152  10.501
21348W        W87757  38.076  25.878   1.596
21349W        W87758  25.701  39.899   3.721
21350W        W87759  12.905  34.356   4.720
21351W        W87760  33.478  35.477  12.847
21352W        W87761  40.294  40.015   0.465
21353W        W87762  31.487  17.772   1.008
21354W        W87763  17.333  17.064  12.981
21355W        W87764  22.751  35.110   3.610
21356W        W87765  37.879  25.057  14.112
21357W        W87766  29.027  29.368  14.530
21358W        W87767  36.896  19.494  12.095
21359W        W87768   7.186  18.316  11.031
21360W        W87769  18.743  39.303   2.845
21361W        W87770  25.117  30.874  13.668
21362W        W87771  38.791  27.565  11.059
21363W        W87772  28.396  44.487  12.823
21364W        W87773  35.685  37.813   0.696
21365W        W87774  22.800  31.044  13.787
21366W        W87775  12.406   6.355  14.848
21367W        W87776  13.208  28.475  14.512
21368W        W87777  41.899  35.573  10.517
21369W        W87778   9.654   4.411  11.174
21370W        W87779  19.012  18.853  12.086
21371W        W87780  35.841   8.819   3.171
21372W        W87781   2.758  36.390  14.356
21373W        W87782  22.250  23.044   4.316
21374W        W87783  41.492  17.661   4.513
21375W        W87784  41.955  10.076   3.105
21376W        W87785   5.734  30.869   3.394
21377W        W87786  44.270  23.576   1.402
21378W        W87787  30.962  30.856   3.996
21379W        W87788   0.700  21.041  12.129
21380W        W87789  33.666  38.604   0.373
21381W        W87790  12.501  36.846  10.665
21382W        W87791  17.607  11.343   3.905
21383W        W87792  12.653  27.010   4.386
21384W        W87793  27.123  10.669  12.965
21385W        W87794  34.356  36.131   2.000
21386W        W87795  12.467  42.376   2.635
21387W        W87796  15.299   6.973   3.612
21388W        W87797  25.189  19.405  10.196
21389W        W87798  17.262   5.895   3.723
21390W        W87799  36.132  15.063  12.952
21391W        W87800  28.920  22.380   4.810
21392W        W87801   2.326  32.383   0.756
21393W        W87802  38.917  37.038   0.075
21394W        W87803  37.698  26.430   0.976
21395W        W87804  43.234  33.217  13.037
21396W        W87805  23.246   4.660   0.100
21397W        W87806  31.553  28.638  10.687
21398W        W87807  11.625  28.046   3.797
21399W        W87808  39.893  37.056   4.662
21400W        W87809   4.935   9.509  13.915
21401W        W87810   0.996  35.970   1.323
21402W        W87811  32.457  31.152  14.347
21403W        W87812  34.585  24.068   4.175
21404W        W87813  18.289  38.322  10.223
21405W        W87814   1.766  12.892  14.928
21406W        W87815   3.840  30.575  13.861
21407W        W87816   1.874  43.388   4.559
21408W        W87817  31.034  39.956  14.042
21409W        W87818  40.908  40.717   0.709
21410W        W87819  36.078   9.749  14.380
21411W        W87820  12.016  10.457  13.442
21412W        W87821  38.866   8.345  13.766
21413W        W87822  43.451  28.980  10.490
21414W        W87823   1.237  27.078  14.191
21415W        W87824  10.756  26.036   0.832
21416W        W87825  10.573  26.085   4.602
21417W        W87826  25.563  41.677   4.560
21418W        W87827  23.370  16.119   2.056
21419W        W87828  32.161  43.608   0.439
21420W        W87829   1.344  15.238  11.591
21421W        W87830  35.738  26.654  12.465
21422W        W87831  39.919  11.679  13.282
21423W        W87832  21.355  44.200  13.583
21424W        W87833  27.391   0.546  12.982
21425W        W87834  34.103  10.149   1.748
21426W        W87835  24.004  20.472  11.883
21427W        W87836  27.723  42.672   2.925
21428W        W87837  21.651  21.713  13.003
21429W        W87838  34.399  41.241   2.453
21430W        W87839  42.515  25.747  12.997
21431W        W87840  37.345  25.685  13.414
21432W        W87841  17.173  23.982   0.195
21433W        W87842  43.553  21.622  13.887
21434W        W87843  15.006  30.760  12.371
21435W        W87844  21.019  13.775  11.668
21436W        W87845  19.501  37.554  11.912
21437W        W87846  41.012  11.824  14.254
21438W        W87847  42.841  25.097  13.884
21439W        W87848  41.307  39.596  12.422
21440W        W87849   5.360   3.701  14.591
21441W        W87850  11.576  10.885   0.963
21442W        W87851  16.014  27.575   2.459
21443W        W87852   3.709  19.727  10.676
21444W        W87853  12.153  24.440  11.717
21445W        W87854  29.969  15.826   2.018
21446W        W87855   2.202  37.479   4.228
21447W        W87856  36.128   7.148  12.878
21448W        W87857  12.275   8.808   2.730
21449W        W87858   4.440  33.007  14.425
21450W        W87859   3.447  34.194   0.475
21451W        W87860  21.837  17.355   0.610
21452W        W87861  12.733  21.680   0.922
21453W        W87862   5.192  36.077   1.786
21454W        W87863  24.545  13.305  12.439
21455W        W87864   0.135  24.620   4.908
21456W        W87865  19.524  22.011   2.275
21457W        W87866  32.067  31.472   0.790
21458W        W87867  13.579  33.589   0.320
21459W        W87868   3.570  17.734  10.958
21460W        W87869  15.827  13.768  10.756
21461W        W87870  12.133  35.510   0.425
21462W        W87871  39.571  36.576  14.430
21463W        W87872  38.269  26.435  12.417
21464W        W87873   0.481  35.410   3.468
21465W        W87874   0.375  13.292   3.401
21466W        W87875   5.960  34.554   3.741
21467W        W87876  21.538  35.816  14.039
21468W        W87877  11.101   4.727  11.815
21469W        W87878  37.095  26.480  14.569
21470W        W87879  18.248  20.613   1.146
21471W        W87880   4.191  27.978   1.074
21472W        W87881  25.080   2.234  11.662
21473W        W87882  44.042   1.537   3.469
21474W        W87883  26.828  37.256  11.582
21475W        W87884  36.847  35.306  13.054
21476W        W87885  44.935  31.509  13.345
21477W        W87886  20.469  16.817   2.829
21478W        W87887   6.186  21.624  11.868
21479W        W87888   2.859  25.921  14.062
21480W        W87889  27.225   7.584   5.392
21481W        W87890   6.980  10.603   1.843
21482W        W87891   3.680  42.567  11.009
21483W        W87892  16.231  13.099   3.333
21484W        W87893  38.097   2.959   2.454
21485W        W87894  31.583  44.835   1.868
21486W        W87895  16.291  29.441   3.564
21487W        W87896  29.551  30.919  12.348
21488W        W87897  16.175  32.177  13.789
21489W        W87898  25.173  37.960  14.933
21490W        W87899  11.383   8.474   3.316
21491W        W87900   7.373  10.157  12.312
21492W        W87901  16.039  23.521   5.437
21493W        W87902  10.174  12.795   3.153
21494W        W87903  40.667  44.745  14.956
21495W        W87904  19.698   4.261  12.923
21496W        W87905  36.220   7.924  14.807
21497W        W87906   0.894  31.229   1.461
21498W        W87907   4.719  16.973   0.375
21499W        W87908   9.291  25.789  10.446
21500W        W87909  29.681  25.920   2.817
21501W        W87910  26.443  14.069   1.644
21502W        W87911  19.912  33.275   4.006
21503W        W87912  23.548  27.452   0.725
21504W        W87913  31.049   4.505  10.127
21505W        W87914  30.356  41.827   1.880
21506W        W87915  28.415  42.805  14.501
21507W        W87916  38.251  30.459   0.895
21508W        W87917  35.221   7.453  10.308
21509W        W87918  33.449  13.390   2.666
21510W        W87919  37.710  32.218   5.032
21511W        W87920  26.999  37.274   0.197
21512W        W87921   9.273  20.693   0.562
21513W        W87922  11.346  23.546   4.056
21514W        W87923  10.933  35.595   3.826
21515W        W87924  18.644   6.193   0.724
21516W        W87925  10.159  42.338   0.281
21517W        W87926  20.631  10.817   0.819
21518W        W87927  23.010  24.380   0.893
21519W        W87928  29.177  32.174  11.154
21520W        W87929  41.568  19.233  11.897
21521W        W87930   9.808   8.993   4.083
21522W        W87931  34.132   4.369   1.485
21523W        W87932  37.297  39.056  11.068
21524W        W87933   1.239  20.618  10.839
21525W        W87934  33.541   7.785   4.657
21526W        W87935   5.013   3.980  14.332
21527W        W87936  35.925  43.118   3.120
21528W        W87937  10.243   0.141  11.071
21529W        W87938  10.684  29.407   1.426
21530W        W87939  29.026  18.454   2.683
21531W        W87940   9.383  37.476   4.751
21532W        W87941   7.234  30.527  14.311
21533W        W87942  14.154  14.791   0.970
21534W        W87943   8.128   8.392   3.294
21535W        W87944   2.442  43.956  13.395
21536W        W87945  18.449  37.373  13.286
21537W        W87946   5.177  23.601  12.413
21538W        W87947  28.063  24.245  13.819
21539W        W87948  31.429  41.112   0.246
21540W        W87949  34.631   1.501  14.820
21541W        W87950  36.558   8.695  14.937
21542W        W87951   5.212  17.875  14.376
21543W        W87952  39.139  25.451   0.928
21544W        W87953   5.110  14.016  14.311
21545W        W87954  40.010  18.247   0.322
21546W        W87955   1.255  34.592   1.247
21547W        W87956  44.833  42.834  13.606
21548W        W87957   2.784   6.572   2.210
21549W        W87958   2.191  44.948   0.579
21550W        W87959  26.433   4.908   1.894
21551W        W87960  21.525  16.587   2.834
21552W        W87961  23.544  27.659   2.625
21553W        W87962  18.201  16.027   0.716
21554W        W87963   7.305  40.072  12.891
21555W        W87964  33.528  24.214   0.719
21556W        W87965  20.919  28.703  11.923
21557W        W87966  44.431  19.341   3.395
21558W        W87967  34.979  33.419  13.047
21559W        W87968   4.729  16.716   2.204
21560W        W87969  34.648  34.742  14.196
21561W        W87970   3.208  28.606   4.574
21562W        W87971  33.732   4.853  10.735
21563W        W87972  32.032  36.278  10.488
21564W        W87973  11.661  28.142  14.375
21565W        W87974  22.662  18.586   4.069
21566W        W87975  35.878  30.703  14.775
21567W        W87976  16.242   7.386   3.671
21568W        W87977  38.554  36.599   2.898
21569W        W87978   4.246  25.902   2.167
21570W        W87979  31.606  25.556  13.840
21571W        W87980   5.028  19.569   0.325
21572W        W87981  33.132  41.491   3.706
21573W        W87982  27.656  23.612   3.843
21574W        W87983  32.820   3.271  12.542
21575W        W87984  19.037  40.458  12.555
21576W        W87985  44.897  38.019  12.406
21577W        W87986  15.919   7.175   1.822
21578W        W87987  42.512   6.499   1.424
21579W        W87988   4.841   3.718   0.320
21580W        W87989  18.244   1.353   0.417
21581W        W87990  35.820  21.647  14.065
21582W        W87991  33.131  41.476  13.888
21583W        W87992  14.705   3.965  11.558
21584W        W87993  37.987  40.825  11.091
21585W        W87994  38.071   7.845   3.699
21586W        W87995  16.306  24.227  13.883
21587W        W87996  25.694   6.175  10.659
21588W        W87997  15.835  37.556   0.417
21589W        W87998   6.393  18.918   2.791
21590W        W87999  27.869  14.686  13.994
21591W        W88000  32.070   0.984   1.750
21592W        W88001   5.825   6.504  12.990
21593W        W88002   9.323  34.914  11.485
21594W        W88003  35.173  44.371   2.610
21595W        W88004  19.705  29.957   3.782
21596W        W88005  31.283  38.322  14.066
21597W        W88006  41.217  29.883   4.795
21598W        W88007  37.031  18.754  14.713
21599W        W88008  34.207  44.517  14.950
21600W        W88009  32.926   6.371  12.103
21601W        W88010  33.058  18.730   4.736
21602W        W88011  28.108  23.282  11.159
21603W        W88012  23.137  28.961   4.648
21604W        W88013  17.759   8.815   0.236
21605W        W88014  35.182   9.195  13.462
21606W        W88015  14.339  32.074   0.294
21607W        W88016  20.687  42.138  14.931
21608W        W88017  42.070  36.061  13.258
21609W        W88018  42.058  31.099  12.045
21610W        W88019  27.649  11.626   1.336
21611W        W88020   1.216  36.148   0.816
21612W        W88021  20.172   6.426   2.380
21613W        W88022  44.333   7.802   4.556
21614W        W88023  31.109  22.201   3.335
21615W        W88024  36.539   5.782  12.173
21616W        W88025   6.129  40.339  11.863
21617W        W88026   1.331  35.854   2.628
21618W        W88027  17.620  33.835  12.941
21619W        W88028  24.557  25.300   2.816
21620W        W88029   8.397  37.005   2.877
21621W        W88030  26.679  29.584  11.719
21622W        W88031  30.561  25.671   3.465
21623W        W88032  10.129   5.736   2.439
21624W        W88033  28.368  43.484  12.327
21625W        W88034  43.282  32.485  14.456
21626W        W88035  27.019  38.044   3.411
21627W        W88036  11.668  31.463  11.113
21628W        W88037  22.047   3.203  11.072
21629W        W88038   2.813  37.662   0.900
21630W        W88039  32.833  29.610   1.485
21631W        W88040   3.816  13.232   0.329
21632W        W88041   8.694  42.896  10.737
21633W        W88042   6.801   1.935  12.482
21634W        W88043  41.462  13.549   0.490
21635W        W88044  35.538  32.915  12.986
21636W        W88045   7.420  27.991   0.968
21637W        W88046  17.718  34.632  12.561
21638W        W88047   5.723  13.329  13.774
21639W        W88048  28.143  37.626   4.590
21640W        W88049  23.675  40.973  11.203
21641W        W88050  30.137  27.116  12.868
21642W        W88051  12.401  24.103   2.742
21643W        W88052  42.830  14.001  11.398
21644W        W88053  34.870  25.500   0.478
21645W        W88054  16.673  22.570   1.244
21646W        W88055  29.393  24.332   2.659
21647W        W88056  27.383   8.202  12.506
21648W        W88057  12.568   3.017   2.010
21649W        W88058   4.192  24.860   4.634
21650W        W88059  39.806  33.152   2.143
21651W        W88060   5.745  40.593   1.830
21652W        W88061  34.331  35.036  13.838
21653W        W88062   4.858  33.901  10.980
21654W        W88063  16.544  11.709   4.653
21655W        W88064   7.843   2.544   2.861
21656W        W88065  43.639  29.134   4.678
21657W        W88066  10.159  28.553  11.579
21658W        W88067  16.326  36.035  13.862
21659W        W88068  42.843  11.779   3.265
21660W        W88069  17.808  16.235   4.335
21661W        W88070  26.662  43.781   3.681
21662W        W88071  40.097   2.984   2.511
21663W        W88072  11.236  32.846   1.028
21664W        W88073  37.885   5.971  12.258
21665W        W88074  42.974  31.802   1.710
21666W        W88075   3.409  42.930  13.767
21667W        W88076   6.829  34.249  14.559
21668W        W88077   7.492  30.094  13.495
21669W        W88078  12.600  36.031   1.791
21670W        W88079  22.247  37.431   2.454
21671W        W88080  12.517   2.935  11.617
21672W        W88081  18.161  24.712  12.139
21673W        W88082   7.309  32.426  14.570
21674W        W88083  31.384  26.413  12.950
21675W        W88084  20.059  21.248   4.545
21676W        W88085  35.548  39.436   4.459
21677W        W88086   7.446  40.499  11.568
21678W        W88087  43.781  43.334   3.137
21679W        W88088  20.685   5.851  14.843
21680W        W88089   6.886  15.587   3.715
21681W        W88090  17.818  37.858  13.910
21682W        W88091   6.823   3.182   4.955
21683W        W88092   8.233   8.889   0.509
21684W        W88093  35.444  23.684  11.444
21685W        W88094  25.897  33.317   1.480
21686W        W88095  18.328   0.188  14.951
21687W        W88096  14.616  21.840   3.528
21688W        W88097  28.643  41.434   3.189
21689W        W88098  27.979  23.934   1.463
21690W        W88099   3.382  39.553   1.794
21691W        W88100  30.077  29.491   2.140
21692W        W88101  16.694   1.744  12.149
21693W        W88102  34.044  19.097   4.614
21694W        W88103  17.807  13.561  13.006
21695W        W88104  16.817  11.153   2.889
21696W        W88105  27.483   1.378  11.116
21697W        W88106   4.724  26.457   2.341
21698W        W88107  26.064   4.288   1.492
21699W        W88108   9.869  17.783  10.966
21700W        W88109  32.944  39.921   2.108
21701W        W88110  30.631  29.136  12.436
21702W        W88111  37.981   3.283   0.903
21703W        W88112  35.589  28.146   2.896
21704W        W88113  14.904   5.807   1.248
21705W        W88114  28.022  33.378   0.458
21706W        W88115  39.903  22.441  10.711
21707W        W88116  30.741   2.663   1.498
21708W        W88117   8.817  15.106   3.597
21709W        W88118  39.589  18.139   0.623
21710W        W88119  11.299   2.975  14.891
21711W        W88120  39.373  22.285   0.884
21712W        W88121  43.328  24.054  10.499
21713W        W88122   0.885  40.595   3.638
21714W        W88123  14.443  18.789  11.683
21715W        W88124  43.180   4.345   1.756
21716W        W88125  41.175  11.799   1.199
21717W        W88126  15.571  36.281   5.029
21718W        W88127  19.066  23.660   4.400
21719W        W88128  12.623  10.576   3.688
21720W        W88129  18.324  29.136  11.876
21721W        W88130  39.304  20.512  11.542
21722W        W88131  21.268  40.577  10.429
21723W        W88132   4.436  37.967  11.999
21724W        W88133  14.823  43.272   4.024
21725W        W88134  43.529   9.161   2.650
21726W        W88135  15.632  11.676   0.903
21727W        W88136   7.334  25.210   3.748
21728W        W88137   9.811  34.599   0.513
21729W        W88138  14.745  26.655   3.717
21730W        W88139  25.449  26.593   3.627
21731W        W88140  34.627  40.769   3.830
21732W        W88141  16.637  33.359  12.803
21733W        W88142   0.578   9.607   3.252
21734W        W88143  30.174  35.922   2.383
21735W        W88144  15.765  43.329  11.414
21736W        W88145  16.179  40.485   1.154
21737W        W88146  20.294  22.727   3.603
21738W        W88147   4.052  22.474  10.914
21739W        W88148  14.171  23.642   0.047
21740W        W88149   4.523  18.708   1.256
21741W        W88150  11.163   7.937   4.547
21742W        W88151  22.140   5.440   0.717
21743W        W88152  35.686  43.702   1.269
21744W        W88153  26.475  22.072  12.468
21745W        W88154  27.468  42.530   1.709
21746W        W88155  10.378   1.742  14.249
21747W        W88156  14.079   0.386   1.944
21748W        W88157  38.427  31.790   4.617
21749W        W88158   7.412  14.983   4.802
21750W        W88159   9.284  12.409   3.391
21751W        W88160  42.084  41.120   3.112
21752W        W88161  37.018   9.185   2.623
21753W        W88162  33.941   6.315  12.839
21754W        W88163  17.307  42.362   3.626
21755W        W88164  20.769  42.036  10.784
21756W        W88165  33.039  28.582   3.144
21757W        W88166  11.409   3.986   3.365
21758W        W88167  35.359  31.849  12.949
21759W        W88168  19.251  18.915  11.207
21760W        W88169  37.995  13.776   4.204
21761W        W88170  42.058  18.502  12.568
21762W        W88171   5.212   2.174  13.007
21763W        W88172  41.145   5.765  11.679
21764W        W88173  44.331  24.211   3.237
21765W        W88174   4.734  13.117   3.264
21766W        W88175  17.171   9.220  11.867
21767W        W88176  17.538  19.179   3.250
21768W        W88177  34.146  41.836  14.818
21769W        W88178  27.973  20.549  14.474
21770W        W88179  32.136  16.893  13.427
21771W        W88180  11.907  19.033   2.646
21772W        W88181   3.861  33.793  13.795
21773W        W88182   2.902  28.102  12.890
21774W        W88183   6.116  24.680   2.736
21775W        W88184  26.326  23.784   4.193
21776W        W88185   3.263   9.629   1.759
21777W        W88186  25.642  39.820  13.653
21778W        W88187  35.107  40.538   0.744
21779W        W88188  38.296  42.549   2.793
21780W        W88189  29.070  42.478   3.699
21781W        W88190  42.488   6.896   0.187
21782W        W88191   9.907   8.985  13.964
21783W        W88192  33.203  15.173  10.933
21784W        W88193  41.626  37.001   0.758
21785W        W88194  13.516  44.788   2.359
21786W        W88195  31.887  21.264   2.889
21787W        W88196  36.406  24.541  12.028
21788W        W88197   5.656  43.213   2.419
21789W        W88198  27.604  19.081   0.907
21790W        W88199  15.292  22.158   1.594
21791W        W88200  16.042  27.170   4.854
21792W        W88201   8.244  33.218   4.016
21793W        W88202  28.161   5.558  12.244
21794W        W88203   5.396  38.388   2.856
21795W        W88204  24.997  27.406  12.129
21796W        W88205   8.227  29.140   0.656
21797W        W88206  30.805  22.373   4.647
21798W        W88207   9.869  22.927  12.936
21799W        W88208  40.742  10.058  11.086
21800W        W88209  35.394   2.252  13.440
21801W        W88210  34.930  41.551  13.550
21802W        W88211  41.738  14.836   1.752
21803W        W88212   6.242   2.509  13.064
21804W        W88213  29.250  36.148  10.988
21805W        W88214  37.935  10.377  14.554
21806W        W88215   0.435  17.339  12.521
21807W        W88216   1.389  39.012  12.159
21808W        W88217  14.740  27.492   3.033
21809W        W88218  43.512  36.196   2.236
21810W        W88219  39.181  18.653  13.606
21811W        W88220  44.919  34.423   4.488
21812W        W88221  41.573  31.170  11.923
21813W        W88222  37.957  21.583   3.623
21814W        W88223  35.609  23.498  12.983
21815W        W88224  29.270   9.755  10.681
21816W        W88225  25.006  10.432   0.756
21817W        W88226   6.181  18.068  13.022
21818W        W88227  43.807  17.388  11.286
21819W        W88228   9.621  15.485   3.274
21820W        W88229  13.281  28.464  11.137
21821W        W88230   6.311  16.856  13.985
21822W        W88231  28.426  10.848   3.689
21823W        W88232   4.281  34.666   1.819
21824W        W88233  43.654  24.244   1.272
21825W        W88234   3.270   7.229  10.628
21826W        W88235  25.671  20.466  10.769
21827W        W88236  37.904  23.285   0.595
21828W        W88237   7.648  40.022   0.508
21829W        W88238  27.538   6.193  10.610
21830W        W88239  12.511  34.414  14.545
21831W        W88240   7.784   4.790   1.261
21832W        W88241   0.641  44.055   4.817
21833W        W88242  22.751  13.111   0.945
21834W        W88243   2.813  19.967  12.826
21835W        W88244  35.320  22.609  10.656
21836W        W88245   2.401  28.089  13.197
21837W        W88246  25.048  31.311   3.911
21838W        W88247  13.816  12.390   2.729
21839W        W88248   3.525   8.214  11.474
21840W        W88249  40.422  10.583   3.591
21841W        W88250   0.170  24.995  12.343
21842W        W88251  28.661  44.196   3.781
21843W        W88252  38.544   8.332   1.440
21844W        W88253  39.590   2.713   3.738
21845W        W88254  10.129  33.056  14.733
21846W        W88255  44.399  41.666   4.054
21847W        W88256  24.700  30.330   0.303
21848W        W88257  20.981  15.278   4.555
21849W        W88258  21.122   3.980  14.826
21850W        W88259  41.391  40.255  12.675
21851W        W88260  16.884   0.511  13.370
21852W        W88261  18.057  38.350   2.376
21853W        W88262  38.428  32.453   3.747
21854W        W88263  16.089  20.600  14.803
21855W        W88264  13.318   2.578  14.241
21856W        W88265  35.323  24.108   1.487
21857W        W88266  13.812  44.241  12.832
21858W        W88267  21.334   8.905   2.447
21859W        W88268  18.126  19.307   2.262
21860W        W88269   4.967  42.413  10.808
21861W        W88270  44.523  28.637  14.319
21862W        W88271  37.593  44.770  11.953
21863W        W88272  44.337   0.423   4.840
21864W        W88273  23.501  37.360   4.093
21865W        W88274  23.958   8.380  12.046
21866W        W88275  23.634  27.366  11.519
21867W        W88276  24.029  19.239  10.712
21868W        W88277  24.518  30.616   3.245
21869W        W88278  24.021  20.951   0.778
21870W        W88279   0.760   3.780  12.045
21871W        W88280   7.643   5.806  13.753
21872W        W88281  30.943  36.850  12.060
21873W        W88282   4.814  21.202   0.870
21874W        W88283  32.463  12.123  13.059
21875W        W88284  13.251  35.850  11.862
21876W        W88285  24.794  28.450   1.463
21877W        W88286   4.431  34.385   2.282
21878W        W88287  39.837  40.164   1.782
21879W        W88288  44.629   9.031   2.251
21880W        W88289  34.459  14.323   4.543
21881W        W88290  40.935   8.298  14.013
21882W        W88291  11.733  11.673   1.362
21883W        W88292   0.681  34.908  12.841
21884W        W88293  11.695  29.613   1.394
21885W        W88294   7.201   7.720  13.113
21886W        W88295   0.312   2.402  13.890
21887W        W88296  25.138  40.481  11.560
21888W        W88297  27.950   0.328  14.894
21889W        W88298   6.829  25.160   4.495
21890W        W88299  20.257  18.299   1.556
21891W        W88300  11.750  27.515   4.854
21892W        W88301  42.880  31.446  11.973
21893W        W88302  26.618  43.799   4.545
21894W        W88303  25.877  15.618   2.899
21895W        W88304   2.337  34.567  14.320
21896W        W88305  37.832  25.218  12.091
21897W        W88306  23.443  14.232  11.588
21898W        W88307  40.848  38.842  11.284
21899W        W88308   7.884  43.817  11.632
21900W        W88309  30.500  36.643   3.966
21901W        W88310  35.903  43.975  12.864
21902W        W88311  20.520   9.602   1.047
21903W        W88312  37.424   9.994   1.647
21904W        W88313  43.350   4.161  14.868
21905W        W88314  12.358  44.882   1.355
21906W        W88315   9.741  37.920   4.884
21907W        W88316   4.400  40.370   2.360
21908W        W88317  28.988  18.945   2.840
21909W        W88318  20.397  18.651  12.761
21910W        W88319  35.511  39.542   3.428
21911W        W88320  28.180   3.217  11.919
21912W        W88321  18.605   4.205  11.688
21913W        W88322  15.792  16.734   0.197
21914W        W88323   6.182  28.852   4.094
21915W        W88324  19.630  31.121  12.148
21916W        W88325   2.263  28.018   3.853
21917W        W88326  13.499  38.575   0.472
21918W        W88327  40.283   6.809  14.568
21919W        W88328   0.262  32.088  11.901
21920W        W88329  42.374  44.950  13.601
21921W        W88330   5.126  10.273  10.756
21922W        W88331  33.452  15.266   4.684
21923W        W88332   6.748   0.375   4.699
21924W        W88333  36.438  12.817  13.490
21925W        W88334   5.797  22.174   3.630
21926W        W88335   1.993  22.685   4.138
21927W        W88336  24.349  36.764  14.541
21928W        W88337  30.731  35.032   4.778
21929W        W88338  30.489  12.413   4.602
21930W        W88339  39.915  40.489   4.212
21931W        W88340  11.196  15.687   4.394
21932W        W88341  29.219   8.209   3.561
21933W        W88342  41.223   0.196  10.848
21934W        W88343   1.458  35.756  11.971
21935W        W88344  39.145   6.884   0.674
21936W        W88345  42.577  10.383  11.229
21937W        W88346  32.069  10.363   5.018
21938W        W88347  36.173   7.621   4.165
21939W        W88348  33.120   1.566   4.589
21940W        W88349  32.917  22.800   2.182
21941W        W88350  13.742  32.472   3.251
21942W        W88351  10.362  24.447   3.805
21943W        W88352  27.487   4.739  12.089
21944W        W88353  44.002   2.869  13.504
21945W        W88354   0.863  19.451   5.299
21946W        W88355  30.939  38.868   3.394
21947W        W88356  35.065  22.740   2.673
21948W        W88357  31.526  30.507  14.600
21949W        W88358  33.990   0.762  11.447
21950W        W88359  28.265  10.641  11.570
21951W        W88360   6.034   1.356  12.469
21952W        W88361  21.594  18.669   4.868
21953W        W88362  25.941  22.048   1.211
21954W        W88363   6.845  43.017   4.499
21955W        W88364   9.538   9.224  12.461
21956W        W88365  24.274  44.376  11.953
21957W        W88366  43.302  22.110  13.049
21958W        W88367  15.343  32.541   3.378
21959W        W88368  34.676  32.490   3.840
21960W        W88369  14.167  28.570   3.821
21961W        W88370  35.453   4.747  11.505
21962W        W88371  24.226  34.596  12.909
21963W        W88372  36.109   1.846  12.446
21964W        W88373  25.141  41.765   4.201
21965W        W88374  10.194   5.815   1.186
21966W        W88375  44.715  38.241   3.223
21967W        W88376   4.169  18.902   0.898
21968W        W88377   9.103   0.521   2.583
21969W        W88378  21.612  44.676  13.115
21970W        W88379  32.807  33.060   2.642
21971W        W88380   8.088  32.026   2.898
21972W        W88381  35.122  29.682   3.626
21973W        W88382   7.776  11.028   1.863
21974W        W88383   8.394  12.946   3.282
21975W        W88384  38.132  23.466   4.551
21976W        W88385  43.432  35.370   4.178
21977W        W88386   5.876   2.665  10.867
21978W        W88387  40.462   6.346   0.968
21979W        W88388  35.950  28.608   4.084
21980W        W88389  41.999   0.593   9.996
21981W        W88390   6.244   7.555   3.123
21982W        W88391   7.132  27.422  10.500
21983W        W88392  15.266  40.784   4.212
21984W        W88393  12.891   5.445   4.308
21985W        W88394  37.228  24.809  13.909
21986W        W88395  25.947  39.577  10.700
21987W        W88396  27.155  18.308   0.726
21988W        W88397  20.196  28.171  11.101
21989W        W88398  35.545   6.224  14.014
21990W        W88399  23.016   6.622  11.832
21991W        W88400  13.142  24.989  14.273
21992W        W88401  28.409  32.596   3.730
21993W        W88402   5.232  43.049  13.893
21994W        W88403   4.425  28.868   3.674
21995W        W88404  19.168  30.339   4.801
21996W        W88405  21.495  26.968  12.398
21997W        W88406  41.787   6.147   1.010
21998W        W88407  10.138  16.094  13.473
21999W        W88408  42.889  30.366  14.882
22000W        W88409   8.584  10.226   3.480
22001W        W88410  35.600  26.701  11.140
22002W        W88411  18.067  42.999  12.302
22003W        W88412  30.180  38.442   2.435
22004W        W88413  34.567   3.070   0.292
22005W        W88414  40.280  14.133   0.491
22006W        W88415  43.725   6.121   4.103
22007W        W88416  25.792   2.920   1.406
22008W        W88417   3.190  41.677   3.276
22009W        W88418   8.289  27.968  14.579
22010W        W88419  35.046  34.481  13.957
22011W        W88420  17.990  19.949  13.046
22012W        W88421  42.287  39.118  12.575
22013W        W88422  12.859  28.747  12.135
22014W        W88423   4.301  13.273   2.223
22015W        W88424  12.614  28.695   4.147
22016W        W88425  35.162  25.535   2.818
22017W        W88426  29.587  17.699   1.530
22018W        W88427  31.808  30.889   2.211
22019W        W88428  39.822  37.600  12.239
22020W        W88429  38.087  12.755   3.344
22021W        W88430  43.936   1.948   0.876
22022W        W88431  17.623  43.475   4.785
22023W        W88432   2.239  23.111  11.416
22024W        W88433  29.366  12.536  11.580
22025W        W88434   8.432  27.578   2.354
22026W        W88435  40.991  34.226   0.911
22027W        W88436  36.382  42.364   1.494
22028W        W88437   8.616  40.870   4.119
22029W        W88438  43.458   7.339   3.587
22030W        W88439  15.091  32.085  14.758
22031W        W88440  42.031  26.600   4.616
22032W        W88441  37.386  32.442  10.322
22033W        W88442  13.743  28.447   2.476
22034W        W88443   0.372  29.733   0.692
22035W        W88444  15.834  30.935  12.540
22036W        W88445  40.882  12.382   4.647
22037W        W88446  41.467  27.005   1.748
22038W        W88447   3.789  13.990   4.722
22039W        W88448  12.026  32.514  11.533
22040W        W88449  34.702   7.468  12.390
22041W        W88450  37.667  29.902  13.415
22042W        W88451  38.774  38.475  13.448
22043W        W88452  28.870  35.015  12.995
22044W        W88453  31.706   9.223   0.250
22045W        W88454   9.864  14.754   2.098
22046W        W88455  30.060  40.235  12.525
22047W        W88456  28.021  36.697   2.790
22048W        W88457   5.207   1.976   4.368
22049W        W88458   7.471   4.120  11.189
22050W        W88459  26.471  26.563   0.094
22051W        W88460  32.566  33.623   2.881
22052W        W88461  12.047   8.177  12.274
22053W        W88462  42.581  34.506   3.882
22054W        W88463  40.117   8.622  11.953
22055W        W88464   0.762  36.949   0.758
22056W        W88465  35.711   8.065  11.184
22057W        W88466  29.575  23.686  12.047
22058W        W88467  39.865  23.695   1.370
22059W        W88468  43.038   8.464   2.825
22060W        W88469  39.025  37.873   0.993
22061W        W88470  19.306  26.210  11.141
22062W        W88471   7.850  29.992  14.870
22063W        W88472  25.374   3.190   4.637
22064W        W88473  32.571  13.795   3.087
22065W        W88474  19.287   6.769   3.065
22066W        W88475  37.948  16.307  10.574
22067W        W88476  24.182  36.030   2.287
22068W        W88477  18.274  21.524  10.920
22069W        W88478  40.937  42.390   2.034
22070W        W88479  28.610  21.690  12.179
22071W        W88480  17.291  25.596  12.421
22072W        W88481  29.155  30.929  12.647
22073W        W88482  17.235   5.730   4.545
22074W        W88483  35.707  10.662   2.312
22075W        W88484   9.932  37.999  14.489
22076W        W88485   1.209  15.788  13.181
22077W        W88486  26.587  10.758   1.137
22078W        W88487  17.409   9.794  10.740
22079W        W88488  39.367  12.845  13.238
22080W        W88489  39.553  27.270  13.366
22081W        W88490  16.083  18.530  14.860
22082W        W88491  35.412   0.324  13.863
22083W        W88492  30.626  37.448   1.224
22084W        W88493  27.152  29.005   3.953
22085W        W88494   5.633   9.185   2.804
22086W        W88495  22.460   4.914  12.503
22087W        W88496   3.883  40.464   1.224
22088W        W88497  34.591  40.026   4.556
22089W        W88498   7.763  42.349   1.127
22090W        W88499  17.605  21.266   1.575
22091W        W88500   7.263   7.376  11.423
22092W        W88501  25.540  29.738  12.291
22093W        W88502  18.794   5.819   1.495
22094W        W88503  15.733  30.157   4.524
22095W        W88504  31.114  11.675   2.133
22096W        W88505  13.726  17.063  11.583
22097W        W88506   0.790   9.415  10.717
22098W        W88507   4.826   1.757  14.556
22099W        W88508  10.858  39.433   4.489
22100W        W88509  29.939  30.565  14.474
22101W        W88510  36.354  43.509  13.389
22102W        W88511   4.903  11.864   4.623
22103W        W88512  36.141  38.333  12.095
22104W        W88513  26.453  29.144   1.245
22105W        W88514   7.917   2.079   3.715
22106W        W88515  24.192  23.360   4.156
22107W        W88516  16.756  21.079   1.306
22108W        W88517  42.819  28.506  10.723
22109W        W88518   3.904  18.076   2.238
22110W        W88519  33.694   5.801  13.897
22111W        W88520  16.919  19.064  14.297
22112W        W88521  23.956  42.413   4.753
22113W        W88522  39.995  22.749  13.107
22114W        W88523  17.882  24.691  10.741
22115W        W88524  15.675  24.590   4.557
22116W        W88525  16.860  15.519  12.036
22117W        W88526  40.926  28.103  13.006
22118W        W88527  36.848  18.986  11.949
22119W        W88528  36.532  35.796  12.300
22120W        W88529   0.236  14.138   0.045
22121W        W88530  18.752  11.681  11.361
22122W        W88531  40.590   8.350  11.977
22123W        W88532  29.731  26.357  10.680
22124W        W88533  11.764  22.751  13.821
22125W        W88534  23.603  24.878  11.568
22126W        W88535  15.179  16.188  14.800
22127W        W88536  42.994  20.048  10.914
22128W        W88537  14.649  33.029   4.491
22129W        W88538  21.034   2.479   3.004
22130W        W88539   7.063  24.572   1.703
22131W        W88540  30.454  24.148  11.503
22132W        W88541  35.651  32.554   3.668
22133W        W88542   1.690  18.025   3.662
22134W        W88543  20.613  28.131  13.955
22135W        W88544  36.516  17.349  12.994
22136W        W88545  17.493  43.454   0.846
22137W        W88546   7.175  34.509  13.087
22138W        W88547  18.253  17.663  11.171
22139W        W88548  41.290  22.997  13.386
22140W        W88549  12.557  35.925   2.702
22141W        W88550  17.517  38.621  12.387
22142W        W88551  16.153  34.557  14.457
22143W        W88552  36.934  24.183   2.414
22144W        W88553   8.971  13.656  12.551
22145W        W88554   9.835  28.220  13.746
22146W        W88555   8.883  31.397  10.355
22147W        W88556  31.447  24.142  14.564
22148W        W88557  29.963  35.241  13.004
22149W        W88558  34.089  22.529  14.327
22150W        W88559   0.216  23.712  11.117
22151W        W88560  38.222   1.718  13.548
22152W        W88561  21.277  44.278   0.311
22153W        W88562  15.354  25.002  11.087
22154W        W88563  39.388   2.608   4.212
22155W        W88564  30.187  39.881  14.060
22156W        W88565  24.436  28.078  12.645
22157W        W88566   1.510  43.761   4.629
22158W        W88567   7.747   0.297   1.300
22159W        W88568  25.147  32.613   2.807
22160W        W88569   3.439  14.239   3.393
22161W        W88570   3.474  25.700   1.376
22162W        W88571  42.676  42.374  13.341
22163W        W88572  28.518  37.261   0.890
22164W        W88573  35.333  35.892  11.128
22165W        W88574  34.417   5.396  12.943
22166W        W88575  13.713  13.759   4.529
22167W        W88576  26.278  28.692  14.313
22168W        W88577  12.899  17.997   0.398
22169W        W88578   2.984  39.459  11.978
22170W        W88579  25.234   7.156   1.247
22171W        W88580  28.051  26.044   2.215
22172W        W88581  13.105  23.587  10.507
22173W        W88582  27.002   7.369   1.757
22174W        W88583  11.045  19.008  14.461
22175W        W88584  38.817   2.138  14.008
22176W        W88585  29.085  43.362  13.633
22177W        W88586   1.099  17.265   4.564
22178W        W88587  40.574  39.050  10.246
22179W        W88588  24.939  10.666  13.325
22180W        W88589  33.919  36.624   0.025
22181W        W88590  34.060  19.833  11.128
22182W        W88591  42.283   1.810   0.373
22183W        W88592  39.581   3.364  10.418
22184W        W88593  11.921  34.234  12.010
22185W        W88594   3.080   3.681  12.502
22186W        W88595  14.393  24.367   4.488
22187W        W88596  40.026  22.929  14.791
22188W        W88597   1.520  33.559   0.307
22189W        W88598  21.109  32.597  14.052
22190W        W88599  26.170  18.097  11.471
22191W        W88600  10.307  40.749  12.905
22192W        W88601   4.314  10.275  11.392
22193W        W88602  40.887  12.945  13.310
22194W        W88603  12.536  38.322  12.040
22195W        W88604   7.822  24.661   0.993
22196W        W88605  39.384  21.038  10.576
22197W        W88606  15.780  10.088  10.491
22198W        W88607  18.656   1.527  12.481
22199W        W88608  39.584  20.962  13.439
22200W        W88609  25.472  14.226  10.733
22201W        W88610  21.542   7.215   4.535
22202W        W88611   0.493  38.570   1.199
22203W        W88612  22.641   4.805   1.899
22204W        W88613  16.973  25.160  13.027
22205W        W88614  41.533  31.609  12.422
22206W        W88615  10.370  39.279  11.917
22207W        W88616  10.456  37.623  14.680
22208W        W88617   4.319  35.505   2.935
22209W        W88618  26.121  24.504  11.910
22210W        W88619  23.941  15.395  11.096
22211W        W88620  23.403  21.528   5.396
22212W        W88621  19.999  12.682   2.245
22213W        W88622  12.742  11.607   1.329
22214W        W88623  22.573  33.108  12.082
22215W        W88624   3.800   8.605  11.710
22216W        W88625  16.898  23.218   0.716
22217W        W88626   8.194  27.628   3.676
22218W        W88627  34.964   3.044  13.590
22219W        W88628  42.994  21.247   5.010
22220W        W88629  13.024   7.773   1.486
22221W        W88630  21.330  20.407  10.710
22222W        W88631  43.997  11.626   1.345
22223W        W88632  16.040  42.308  11.652
22224W        W88633   6.626   5.295   1.638
22225W        W88634  43.299  44.384   2.821
22226W        W88635  10.174  20.094   2.338
22227W        W88636  44.943  25.153  14.561
22228W        W88637  27.949  43.743  14.331
22229W        W88638  19.082  30.213   2.403
22230W        W88639   9.271  27.153   0.858
22231W        W88640  42.890   8.832   2.249
22232W        W88641  14.543  13.892   4.781
22233W        W88642   7.445  30.585  11.710
22234W        W88643  30.625  41.794  11.232
22235W        W88644  30.330  43.094  13.287
22236W        W88645  10.147   8.688   0.375
22237W        W88646  17.781   4.229   3.725
22238W        W88647   8.667   9.122   2.568
22239W        W88648  28.999  33.383   0.392
22240W        W88649  24.266  19.139  13.037
22241W        W88650  21.044  31.119   4.747
22242W        W88651  37.091  30.930  12.138
22243W        W88652  44.927  30.933  14.961
22244W        W88653  14.660  36.929   0.978
22245W        W88654   2.982  24.395  10.680
22246W        W88655  31.227  43.645   2.253
22247W        W88656  27.727  23.694   2.574
22248W        W88657  12.901   3.911   4.580
22249W        W88658  29.966  12.279  12.573
22250W        W88659  38.246  38.535   0.737
22251W        W88660  17.525  14.791  11.594
22252W        W88661  23.217  42.227   1.673
22253W        W88662   4.220  42.299  13.602
22254W        W88663  15.854   4.191   3.509
22255W        W88664  22.938  40.351  12.398
22256W        W88665  14.670  39.863   0.810
22257W        W88666  29.262  43.953   0.769
22258W        W88667   4.109   8.755   2.771
22259W        W88668  11.810   6.315  13.842
22260W        W88669  10.798  41.584   2.300
22261W        W88670  41.059  21.375   3.758
22262W        W88671  25.418  42.064   2.302
22263W        W88672  10.915   4.850  10.573
22264W        W88673  12.226  40.067   4.038
22265W        W88674  31.047  44.052   3.636
22266W        W88675  33.004  28.570   2.158
22267W        W88676  39.273  24.939  10.675
22268W        W88677   1.414  43.247   2.342
22269W        W88678  12.668  21.868  11.048
22270W        W88679   3.256  24.715   9.852
22271W        W88680  19.619  37.195   3.337
22272W        W88681  42.055   4.871  13.403
22273W        W88682  31.565  26.516  11.116
22274W        W88683  27.067  23.269   4.438
22275W        W88684  17.634  25.679   3.783
22276W        W88685  14.264  33.616   0.063
22277W        W88686  18.670  27.067  10.609
22278W        W88687  10.390  26.510  10.626
22279W        W88688   9.633  10.151  11.621
22280W        W88689  39.133  29.866   4.755
22281W        W88690  13.238  18.031  12.962
22282W        W88691  16.724   9.394  11.129
22283W        W88692   1.183  13.589  12.862
22284W        W88693   7.497  29.561   1.797
22285W        W88694   4.123  33.477  10.811
22286W        W88695  26.507  16.148   4.210
22287W        W88696  33.147  10.986  13.303
22288W        W88697   2.376  16.958  14.971
22289W        W88698  32.415  44.586  14.472
22290W        W88699  34.651  12.066  14.651
22291W        W88700  28.343  10.306  14.033
22292W        W88701   2.060  35.411   3.302
22293W        W88702  33.412  28.953  11.088
22294W        W88703  32.355  35.290  14.637
22295W        W88704   6.349  39.259   0.496
22296W        W88705  29.838   9.693   0.539
22297W        W88706  24.194  25.046   4.994
22298W        W88707  23.148   5.974   3.827
22299W        W88708  41.712  40.321  13.085
22300W        W88709   9.389   6.173   3.266
22301W        W88710  36.933  27.137   0.789
22302W        W88711  29.009  17.943   2.682
22303W        W88712  10.880  10.851   4.144
22304W        W88713  24.111  25.002   2.769
22305W        W88714  44.971  32.701  14.520
22306W        W88715  35.981  21.505   1.289
22307W        W88716  13.376  16.061   0.336
22308W        W88717  24.218   6.403   3.678
22309W        W88718  33.061  23.421  14.818
22310W        W88719  12.074  20.216   2.426
22311W        W88720  33.150   8.337  11.380
22312W        W88721   3.508   8.910   5.093
22313W        W88722  14.361  12.006  14.030
22314W        W88723  20.649  17.199   2.449
22315W        W88724  34.968   5.732   4.485
22316W        W88725   1.683  14.189   0.922
22317W        W88726  43.386   2.988   1.397
22318W        W88727  40.480  13.729  10.484
22319W        W88728  39.500  15.842   0.938
22320W        W88729  35.961   9.920   0.867
22321W        W88730  28.471   0.645   4.971
22322W        W88731  38.584  18.538   0.918
22323W        W88732  21.310  27.682  11.167
22324W        W88733  13.812   1.641   0.054
22325W        W88734   0.697  25.823  10.899
22326W        W88735  43.938  41.065   4.566
22327W        W88736   6.464  44.053  11.129
22328W        W88737  26.369  27.427   0.534
22329W        W88738  37.279  27.457  14.404
22330W        W88739  10.794   4.441   4.840
22331W        W88740   4.228  36.568   0.595
22332W        W88741  11.260  26.089   0.985
22333W        W88742  11.088  29.507   3.912
22334W        W88743  33.881   2.549   0.687
22335W        W88744  44.832  32.876   0.332
22336W        W88745  44.756   2.740  13.099
22337W        W88746  18.198  43.519   2.707
22338W        W88747   8.637   7.433   4.163
22339W        W88748  12.844  37.593  11.030
22340W        W88749  34.231  44.932   3.333
22341W        W88750   1.294  36.912   0.915
22342W        W88751  44.849  37.031  14.667
22343W        W88752  43.913   8.567  14.459
22344W        W88753  11.168  32.641  13.884
22345W        W88754   3.318  34.100   4.223
22346W        W88755  33.824  31.977  11.124
22347W        W88756  33.485  32.185   3.337
22348W        W88757   8.826  29.434  12.928
22349W        W88758  34.113  23.206  10.719
22350W        W88759  18.798  28.223  14.446
22351W        W88760   3.679  29.946  12.864
22352W        W88761   4.720   4.802  14.614
22353W        W88762  13.942  31.523   1.325
22354W        W88763  23.206   3.091   0.833
22355W        W88764  37.621  15.465   2.810
22356W        W88765   7.815  19.777  14.323
22357W        W88766   0.617  44.875   4.276
22358W        W88767  34.518  36.502   1.388
22359W        W88768  32.007  20.627  10.713
22360W        W88769  44.301   9.830  12.883
22361W        W88770  21.672  27.185  11.632
22362W        W88771   1.060  24.435  13.910
22363W        W88772  15.590  11.666   5.203
22364W        W88773  43.836   8.658  11.621
22365W        W88774  16.564  20.827   2.808
22366W        W88775  31.464   6.893  10.906
22367W        W88776  14.270  27.119  14.386
22368W        W88777  30.578  16.889  14.811
22369W        W88778  22.649  12.432  12.082
22370W        W88779  19.529   4.769  13.435
22371W        W88780  13.349   7.400   2.811
22372W        W88781  42.805  39.825   0.037
22373W        W88782   3.814  43.173  13.964
22374W        W88783  35.939  14.129   4.581
22375W        W88784  29.183   3.585  12.437
22376W        W88785  30.546   2.915   0.620
22377W        W88786   0.547  14.550  10.643
22378W        W88787   8.940   6.328  11.982
22379W        W88788  17.749  21.653   9.791
22380W        W88789   9.971  16.849  12.702
22381W        W88790  17.188  39.627  13.286
22382W        W88791  12.273  40.495   0.544
22383W        W88792   0.835  27.111  13.863
22384W        W88793  19.267  34.186  13.951
22385W        W88794  27.798  36.454  14.880
22386W        W88795  30.918  35.595  10.684
22387W        W88796  31.554  35.833   3.565
22388W        W88797  27.259  30.181  11.161
22389W        W88798  36.038  43.349   4.712
22390W        W88799  32.782   8.984  14.089
22391W        W88800  44.233   7.816  14.501
22392W        W88801   2.458  22.824   9.970
22393W        W88802   0.001  21.787  13.009
22394W        W88803   1.771  26.467  10.770
22395W        W88804  29.737  33.626  10.728
22396W        W88805   5.654  38.413   2.372
22397W        W88806  39.984   7.077  12.007
22398W        W88807  31.112  30.936  10.696
22399W        W88808  41.334  16.623   3.642
22400W        W88809  35.643  15.105   1.824
22401W        W88810  37.482  36.182   3.254
22402W        W88811  34.045   8.277  11.379
22403W        W88812  39.515  23.105  14.707
22404W        W88813  30.181  14.995  12.957
22405W        W88814  25.049   6.116   3.245
22406W        W88815  36.137  41.051  14.307
22407W        W88816   5.163   7.303   2.852
22408W        W88817   1.206  12.717   2.279
22409W        W88818  11.642  38.349  11.168
22410W        W88819  23.280  38.398  10.716
22411W        W88820  39.048  38.290  13.879
22412W        W88821   9.995  15.212   4.255
22413W        W88822   6.241  19.798   2.271
22414W        W88823  28.187  15.853  10.560
22415W        W88824  19.924   1.232  11.059
22416W        W88825   7.378  44.895   0.169
22417W        W88826  27.632   2.433  14.345
22418W        W88827   5.390   4.373   1.881
22419W        W88828  26.070  31.502   2.318
22420W        W88829   5.728   4.930   3.273
22421W        W88830  12.702  35.829   0.499
22422W        W88831  11.903  32.353  12.060
22423W        W88832  36.865   5.670   3.723
22424W        W88833   1.674  16.682  14.296
22425W        W88834  44.466  22.536   4.653
22426W        W88835  11.864  24.692   0.190
22427W        W88836  22.415   7.594  14.515
22428W        W88837  16.270  23.261   2.628
22429W        W88838  40.111  31.566  11.229
22430W        W88839  15.828   8.598   0.758
22431W        W88840  10.440  42.722   3.988
22432W        W88841  41.508  30.535   1.902
22433W        W88842  40.497  11.788  14.107
22434W        W88843  16.277  41.905   0.305
22435W        W88844  34.601   6.126   2.636
22436W        W88845  17.204  39.216   4.036
22437W        W88846   5.173  27.601   2.162
22438W        W88847   5.659  30.014  14.774
22439W        W88848  23.664  11.335  12.429
22440W        W88849  34.424  23.827   5.085
22441W        W88850  11.153   9.615   0.396
22442W        W88851  42.875  27.099   0.341
22443W        W88852  31.044   6.699   3.642
22444W        W88853  38.506  38.583   4.626
22445W        W88854  44.558  32.394  14.463
22446W        W88855  19.619  16.578   4.905
22447W        W88856  13.554   9.330   2.701
22448W        W88857  22.213  29.976   0.964
22449W        W88858  14.464  32.534  12.015
22450W        W88859  32.955   7.292  12.311
22451W        W88860  19.167  22.555  10.792
22452W        W88861  37.330  33.381  10.640
22453W        W88862  25.287   8.303   1.827
22454W        W88863  35.518  17.273   5.050
22455W        W88864  24.680  21.466   2.510
22456W        W88865  32.709   6.114  11.111
22457W        W88866  19.296  14.322  14.455
22458W        W88867  30.802  15.862  11.693
22459W        W88868  26.176  38.207  11.075
22460W        W88869   1.625   1.338   4.617
22461W        W88870  12.284  33.010  11.610
22462W        W88871  26.155  35.033  11.596
22463W        W88872   8.826  36.657  14.391
22464W        W88873  30.418  23.256   3.687
22465W        W88874   4.987  31.128   1.217
22466W        W88875  36.642  34.755  14.276
22467W        W88876  27.040   7.895   1.714
22468W        W88877  26.476  16.296   1.000
22469W        W88878  35.784  41.556  13.384
22470W        W88879  44.520   0.799   4.533
22471W        W88880  38.776  10.788   0.607
22472W        W88881  35.621  33.020   2.350
22473W        W88882  27.627   4.306   3.134
22474W        W88883  30.311  35.625  14.780
22475W        W88884  25.902  43.890   1.501
22476W        W88885  37.807  28.654   4.083
22477W        W88886  38.447  33.607  13.396
22478W        W88887  35.446  32.393  13.051
22479W        W88888  35.361  11.287  10.938
22480W        W88889   2.748  24.640   4.437
22481W        W88890  34.514  13.602  13.433
22482W        W88891   1.208  11.306   0.474
22483W        W88892   6.771  26.960   0.852
22484W        W88893   4.758  10.111  11.677
22485W        W88894   0.512  40.069  14.182
22486W        W88895  11.225  20.988  12.992
22487W        W88896  38.757  23.668   3.648
22488W        W88897   3.271  30.402  10.596
22489W        W88898  32.932  42.310  10.992
22490W        W88899  16.732   6.713   0.322
22491W        W88900   4.991  13.572   3.309
22492W        W88901   3.363  25.890  13.358
22493W        W88902  31.390  42.120   2.695
22494W        W88903   7.279  11.084   1.716
22495W        W88904   0.835  29.882  11.554
22496W        W88905  33.888  33.167   1.895
22497W        W88906  17.397  15.098  14.542
22498W        W88907  10.334  24.064   0.663
22499W        W88908  15.423  12.214  12.533
22500W        W88909  18.519   5.426   2.816
22501W        W88910  24.095  36.331  11.067
22502W        W88911  25.480  21.124  14.863
22503W        W88912  17.647  44.492  11.658
22504W        W88913   5.206   0.428   0.021
22505W        W88914  13.094  19.680  12.043
22506W        W88915  21.165  39.935   2.397
22507W        W88916  26.071   9.709  12.087
22508W        W88917   3.202  24.023   2.399
22509W        W88918  33.149  15.697  10.771
22510W        W88919  29.525  43.524  13.400
22511W        W88920  38.882  42.991   4.695
22512W        W88921   1.426   3.157   1.235
22513W        W88922   1.821  25.266   2.332
22514W        W88923  39.001  13.847  14.407
22515W        W88924  38.322  38.071  11.665
22516W        W88925  24.490  44.305   3.182
22517W        W88926  12.217  30.949  12.015
22518W        W88927  29.554  30.433   0.758
22519W        W88928   6.123  33.494  11.107
22520W        W88929  36.014  26.686  11.515
22521W        W88930  28.495  19.143   2.741
22522W        W88931  31.524  33.554  11.041
22523W        W88932  33.162  21.233  11.087
22524W        W88933  32.398  43.780  12.183
22525W        W88934  10.279  32.493  13.015
22526W        W88935  27.508  11.033   9.848
22527W        W88936  13.758  17.251   1.666
22528W        W88937   4.638  40.500  14.527
22529W        W88938   5.674   6.827   2.206
22530W        W88939  26.999   8.075   4.548
22531W        W88940  10.904  31.408  11.270
22532W        W88941  25.959  16.748  11.653
22533W        W88942  43.633   1.146  11.084
22534W        W88943  17.217  19.818  14.658
22535W        W88944  18.405  18.239   3.734
22536W        W88945  36.868  25.101  13.132
22537W        W88946   6.854  44.541  10.899
22538W        W88947  31.923  33.809   4.457
22539W        W88948  40.192  21.237  10.656
22540W        W88949   5.863  44.334  12.668
22541W        W88950  24.975   5.276  11.626
22542W        W88951  28.007  24.952  14.933
22543W        W88952  19.721  37.538  14.425
22544W        W88953  35.410  25.048   2.666
22545W        W88954  10.023  26.228  11.531
22546W        W88955  25.388   0.807   4.218
22547W        W88956   7.250   5.146  13.130
22548W        W88957  35.760  35.918  12.432
22549W        W88958  26.519  27.075   0.174
22550W        W88959  36.386  25.670   3.235
22551W        W88960  15.968  42.315  14.540
22552W        W88961  23.667  13.248  13.755
22553W        W88962   1.853  18.178  14.108
22554W        W88963  38.085  35.944  12.780
22555W        W88964  17.459  17.824   0.534
22556W        W88965  39.888  43.349  11.121
22557W        W88966  42.543  27.477  10.736
22558W        W88967  40.641   4.865   0.228
22559W        W88968  44.009  13.783   3.188
22560W        W88969  10.742   9.355  13.552
22561W        W88970  28.345  33.290   3.647
22562W        W88971  19.666  10.468  13.383
22563W        W88972  28.972  23.557  13.948
22564W        W88973  16.903  29.760   2.176
22565W        W88974  29.666   7.639  10.603
22566W        W88975  20.967  34.133   4.070
22567W        W88976  27.417  21.196  13.449
22568W        W88977  38.078  32.410  14.278
22569W        W88978  12.545   1.471   3.177
22570W        W88979  42.480  19.558   4.918
22571W        W88980  10.320   0.236   0.302
22572W        W88981  30.653  44.033  10.032
22573W        W88982  40.036   8.227  14.696
22574W        W88983  16.079  14.741  11.338
22575W        W88984  24.965  12.648  11.158
22576W        W88985  20.276   1.357  13.349
22577W        W88986  24.444  25.170  12.925
22578W        W88987  15.190   2.719  13.964
22579W        W88988  25.158  14.099   0.708
22580W        W88989  21.549   3.823   1.855
22581W        W88990  13.575   8.661   2.255
22582W        W88991  24.728   7.081   1.204
22583W        W88992  31.150  34.379  14.851
22584W        W88993  13.843   1.361   3.553
22585W        W88994  13.708   9.070  11.858
22586W        W88995   6.236   5.469   0.325
22587W        W88996  33.076  32.117   4.960
22588W        W88997  12.184  27.700  13.809
22589W        W88998  41.280   1.440  10.746
22590W        W88999  24.687   4.889  10.959
22591W        W89000  13.265  19.573   0.466
22592W        W89001  32.126  40.260   3.762
22593W        W89002  33.932  13.654  14.107
22594W        W89003  14.695  16.180  12.814
22595W        W89004   6.314  32.083   4.274
22596W        W89005  39.547  10.433  13.367
22597W        W89006  39.784  17.779   2.787
22598W        W89007   2.164  43.672  13.785
22599W        W89008  13.855  20.231   0.812
22600W        W89009  38.589  35.039   4.547
22601W        W89010  37.885  13.256   0.567
22602W        W89011  14.074  32.339  11.720
22603W        W89012  28.322  29.659   2.339
22604W        W89013  40.466  14.665   2.192
22605W        W89014  29.805  33.129  11.095
22606W        W89015   6.454  38.362  13.908
22607W        W89016  31.118  38.327   1.581
22608W        W89017   1.372  17.207  12.077
22609W        W89018  32.891  20.079  13.082
22610W        W89019  37.945  29.167   1.968
22611W        W89020  37.542  37.902  12.118
22612W        W89021  40.532  14.220  13.922
22613W        W89022  13.915  25.192  11.486
22614W        W89023  34.078  28.004   2.050
22615W        W89024  37.842  20.206   3.291
22616W        W89025  37.076  12.283   2.612
22617W        W89026  31.502   7.232   4.619
22618W        W89027   7.406  33.025   1.506
22619W        W89028  13.099   0.962   2.797
22620W        W89029  18.281   8.920   3.683
22621W        W89030  28.069  40.521  13.860
22622W        W89031  43.530   6.584   3.302
22623W        W89032  15.487  23.672   9.930
22624W        W89033  18.587  29.064   2.327
22625W        W89034   3.736  28.663   4.535
22626W        W89035  28.188  35.036   4.496
22627W        W89036   9.754  29.906  10.355
22628W        W89037   4.787   9.761  13.000
22629W        W89038  22.195  23.251   0.677
22630W        W89039  20.961  32.590   2.213
22631W        W89040  37.235  18.925   0.957
22632W        W89041  10.721   3.734  13.386
22633W        W89042  36.479   6.405  12.461
22634W        W89043  20.905   3.615   1.257
22635W        W89044  34.448  19.374   3.727
22636W        W89045  44.877  36.066   5.046
22637W        W89046  20.275   9.780  12.263
22638W        W89047   6.242   2.255  14.322
22639W        W89048  35.095  29.681  11.597
22640W        W89049  30.372  25.147  13.399
22641W        W89050  12.056   1.340   3.124
22642W        W89051  20.262   0.973  10.680
22643W        W89052  19.438  39.973  11.478
22644W        W89053  27.082  23.414  11.595
22645W        W89054  40.030  31.130   3.362
22646W        W89055  28.381  28.316   5.016
22647W        W89056  20.339  31.780   5.203
22648W        W89057  38.859   8.800   2.142
22649W        W89058  29.488  31.685  13.885
22650W        W89059  39.383   4.301   3.579
22651W        W89060  29.188  28.657  12.967
22652W        W89061  42.113   1.357   1.132
22653W        W89062  27.175   4.264  12.003
22654W        W89063  35.790  10.577   0.373
22655W        W89064  14.406  36.535   0.723
22656W        W89065  34.199   2.408  12.616
22657W        W89066   1.455  38.445   4.280
22658W        W89067  44.899  44.941   1.270
22659W        W89068   5.828   3.165  11.009
22660W        W89069  14.195  36.432   4.662
22661W        W89070  16.735  24.479   3.253
22662W        W89071  20.129  11.811  14.243
22663W        W89072  21.443  42.821   2.783
22664W        W89073   7.264  33.954  11.404
22665W        W89074  14.594  30.983   0.904
22666W        W89075  37.712  29.493  12.860
22667W        W89076  34.916   8.270   2.353
22668W        W89077  10.055   7.581  12.550
22669W        W89078   8.509  41.901  14.054
22670W        W89079   4.645   4.178   4.107
22671W        W89080  34.387  41.493  14.502
22672W        W89081  33.700  32.451   3.711
22673W        W89082  13.271   4.926  14.845
22674W        W89083  41.448  21.166   0.376
22675W        W89084  36.395  12.174  11.710
22676W        W89085  19.446   8.368   2.367
22677W        W89086  13.677  24.029   0.718
22678W        W89087  34.318  38.476   3.957
22679W        W89088  17.351  19.190  10.701
22680W        W89089   8.093  31.050  10.522
22681W        W89090  44.647  12.195  11.579
22682W        W89091  23.487  31.615   0.862
22683W        W89092   6.469  11.951  13.834
22684W        W89093  31.073  23.171  14.271
22685W        W89094  30.425  40.563   1.861
22686W        W89095  36.857  21.695   2.723
22687W        W89096  21.723  18.824  11.987
22688W        W89097  30.568  21.261  12.416
22689W        W89098  27.793  25.175   1.626
22690W        W89099  40.291  38.790   4.389
22691W        W89100   1.880  31.732   3.564
22692W        W89101   1.333   2.480  14.738
22693W        W89102   7.643   9.058   2.262
22694W        W89103  20.225  35.942   1.837
22695W        W89104   0.774   5.507  12.490
22696W        W89105  44.497   6.763   2.607
22697W        W89106  21.736  16.834  13.492
22698W        W89107   4.644  24.059   5.196
22699W        W89108  33.599  12.101   0.531
22700W        W89109  41.950  29.567  14.433
22701W        W89110  39.550   0.004   4.228
22702W        W89111   9.663  39.994   2.885
22703W        W89112  40.012   5.751  10.706
22704W        W89113  20.669  27.552   0.951
22705W        W89114  12.635  16.775  14.621
22706W        W89115   5.707  18.970  11.841
22707W        W89116  25.266  28.017   0.874
22708W        W89117  25.788  11.829  12.486
22709W        W89118  26.226   2.466   4.306
22710W        W89119   9.904   9.611  12.452
22711W        W89120  11.623  23.944  11.309
22712W        W89121   6.692  44.065  12.989
22713W        W89122  44.479  28.647  12.815
22714W        W89123   9.622  37.520   3.216
22715W        W89124   7.331  22.110  12.877
22716W        W89125   5.916  23.634   1.209
22717W        W89126   5.246  18.425  13.690
22718W        W89127  27.413   5.369  13.307
22719W        W89128  30.365  37.153   1.591
22720W        W89129  14.802  32.708  12.413
22721W        W89130  39.803  18.639  11.770
22722W        W89131  34.990  27.426   2.762
22723W        W89132  32.510  39.788  14.445
22724W        W89133  29.127  32.280  13.488
22725W        W89134  20.851  29.117   0.931
22726W        W89135  40.562  21.016   1.349
22727W        W89136  34.135  14.588   2.730
22728W        W89137   5.416  32.361   1.864
22729W        W89138  13.184  42.151  13.963
22730W        W89139  27.952  39.242  10.723
22731W        W89140  35.552  41.252  13.015
22732W        W89141  25.994  15.344  11.520
22733W        W89142  42.405   7.246  14.825
22734W        W89143  25.530  27.970   4.165
22735W        W89144   0.236  24.262   3.284
22736W        W89145  12.973  12.011   5.066
22737W        W89146  11.277  22.751   1.058
22738W        W89147  37.276   8.680  12.353
22739W        W89148  34.373  39.953  13.428
22740W        W89149  21.068  12.187   4.530
22741W        W89150   3.928  23.034  12.440
22742W        W89151  13.716  37.057   1.696
22743W        W89152  24.679   4.766   1.282
22744W        W89153   2.760  20.518  10.765
22745W        W89154   6.247   4.459   2.377
22746W        W89155   6.944  32.575   1.661
22747W        W89156  19.230  37.527  10.716
22748W        W89157  10.017  38.656   2.791
22749W        W89158  33.595  44.437   1.359
22750W        W89159  22.224   6.707  14.943
22751W        W89160  27.264  43.031  10.296
22752W        W89161   6.943  25.601   3.597
22753W        W89162  42.195   5.720  12.960
22754W        W89163  14.644   8.181  12.480
22755W        W89164  21.004  14.769  12.942
22756W        W89165  24.604  26.451  10.643
22757W        W89166  10.310  12.205  12.921
22758W        W89167  16.060   6.324   3.325
22759W        W89168  33.897  33.804  11.480
22760W        W89169  31.910   9.721  12.450
22761W        W89170  44.676  13.234   2.663
22762W        W89171  43.819  25.508   1.709
22763W        W89172  41.194   9.699   0.615
22764W        W89173  16.279  26.185   0.852
22765W        W89174  28.529   9.787   2.241
22766W        W89175  42.069  22.785  12.486
22767W        W89176  33.795  10.249   1.334
22768W        W89177  29.058  24.986   1.333
22769W        W89178  31.138  17.153  12.417
22770W        W89179  24.247  22.807  12.972
22771W        W89180  37.320  17.063  14.767
22772W        W89181  38.349  29.129   0.309
22773W        W89182  21.184  13.704   3.380
22774W        W89183  36.855   1.884   2.412
22775W        W89184  18.100  41.793  10.724
22776W        W89185  28.686  36.484   2.325
22777W        W89186   1.478   1.926   2.224
22778W        W89187  22.911   9.371   4.069
22779W        W89188  20.998   0.869   4.723
22780W        W89189  39.576  21.123   4.545
22781W        W89190   0.397  36.951  12.027
22782W        W89191  22.186   8.843  11.597
22783W        W89192  26.525  31.408  14.635
22784W        W89193  13.553  27.064   1.189
22785W        W89194  25.707  42.781   3.568
22786W        W89195  32.329  37.890   1.856
22787W        W89196  39.284   7.673  13.293
22788W        W89197  37.908  42.995   3.722
22789W        W89198  17.683   0.294  10.693
22790W        W89199  43.211  13.247   3.181
22791W        W89200  27.796  34.023  12.394
22792W        W89201  23.387  26.530  11.098
22793W        W89202  16.176   9.857  10.763
22794W        W89203   7.584  25.138  13.504
22795W        W89204  44.798  25.314   2.993
22796W        W89205  29.276   5.117  14.956
22797W        W89206  41.800  15.650  10.762
22798W        W89207  15.996  19.047  11.175
22799W        W89208  29.390  35.837  12.359
22800W        W89209  41.390   0.437   4.399
22801W        W89210  43.322  22.659   3.415
22802W        W89211  33.645   7.096   1.235
22803W        W89212   5.258  20.263   4.795
22804W        W89213  44.464   2.397   3.665
22805W        W89214  13.756  31.733   1.834
22806W        W89215  39.933  23.208   3.136
22807W        W89216  21.958  31.433  12.014
22808W        W89217  18.654  24.634  13.195
22809W        W89218  20.167  17.807   3.992
22810W        W89219  37.134   9.206  13.408
22811W        W89220  43.793  15.811   3.622
22812W        W89221  10.842   5.769  10.315
22813W        W89222  37.871  36.050   2.851
22814W        W89223  44.506   0.311   4.369
22815W        W89224  12.187  26.572   5.047
22816W        W89225   7.786  14.619   4.716
22817W        W89226   4.347  30.232  14.360
22818W        W89227  36.044  21.696   1.774
22819W        W89228  23.099  36.682   4.204
22820W        W89229  13.458  30.634   1.126
22821W        W89230  27.712  22.651   2.529
22822W        W89231  33.973  23.531  12.803
22823W        W89232  20.292  22.025   0.509
22824W        W89233   1.915   1.672   1.355
22825W        W89234   8.771  24.804  14.220
22826W        W89235  39.537  25.161   5.067
22827W        W89236  20.005  41.433   4.448
22828W        W89237  17.409  42.295  10.706
22829W        W89238   9.899  16.125  13.932
22830W        W89239   1.712  24.630  14.944
22831W        W89240  20.235  14.270   1.408
22832W        W89241  14.811  29.262   4.628
22833W        W89242   7.234  38.572   1.069
22834W        W89243  13.107  21.055   5.074
22835W        W89244   1.238  42.771  12.895
22836W        W89245   1.287   3.915   0.858
22837W        W89246  25.780  37.473   4.580
22838W        W89247  44.393  39.037   4.959
22839W        W89248  12.805  12.282  13.096
22840W        W89249  42.095  17.174   1.801
22841W        W89250  22.497  35.834  14.874
22842W        W89251  17.076  27.539   4.250
22843W        W89252  29.616   9.382  11.341
22844W        W89253  12.046   9.116   3.660
22845W        W89254  31.966  18.887   3.671
22846W        W89255  16.636   6.215  12.362
22847W        W89256   6.824  10.384   4.133
22848W        W89257  16.288   9.054  14.012
22849W        W89258  12.159  27.974   1.712
22850W        W89259  20.679  30.516   1.319
22851W        W89260  25.132  23.312  10.127
22852W        W89261  21.933  43.506   1.392
22853W        W89262   5.448  17.511  10.781
22854W        W89263  31.892  29.391  11.696
22855W        W89264  37.623  31.839   0.509
22856W        W89265  34.015  20.839   0.423
22857W        W89266  10.126   5.416  11.781
22858W        W89267   8.023  29.528  13.122
22859W        W89268  39.087  42.934  10.618
22860W        W89269  43.033   8.276  12.466
22861W        W89270  40.189   4.762  13.516
22862W        W89271  30.537  41.424  10.875
22863W        W89272  18.117  10.700   3.398
22864W        W89273  22.312   4.878   3.577
22865W        W89274  12.568  11.467   4.626
22866W        W89275  15.268  17.471  12.517
22867W        W89276  13.603  32.149   4.165
22868W        W89277  13.697  43.919  11.584
22869W        W89278  27.811   3.398   3.246
22870W        W89279  32.834  42.820  14.439
22871W        W89280   3.371  20.185   2.529
22872W        W89281  23.253  13.138   4.604
22873W        W89282  11.998   1.662  10.779
22874W        W89283  25.639  23.250  13.456
22875W        W89284  19.762  27.441   1.452
22876W        W89285  25.342  16.236  11.677
22877W        W89286  35.964  23.707  11.188
22878W        W89287  13.501  34.390  11.929
22879W        W89288  34.094  42.332  12.909
22880W        W89289  28.817  15.298   3.419
22881W        W89290  33.532  36.385  12.763
22882W        W89291   3.979   0.616   3.101
22883W        W89292  17.604   9.371  12.128
22884W        W89293  15.741   0.289  14.845
22885W        W89294   8.968  43.297   3.237
22886W        W89295  33.558  38.092  13.533
22887W        W89296  13.381   5.854   0.331
22888W        W89297  13.681   9.657   3.083
22889W        W89298  37.907  29.477   2.919
22890W        W89299  38.342  28.965  11.875
22891W        W89300  29.894  42.005  14.304
22892W        W89301   7.228  26.581   0.908
22893W        W89302  24.968  41.687   2.859
22894W        W89303  10.782   7.330   0.534
22895W        W89304  18.655   0.570   2.458
22896W        W89305  35.598  18.882   0.579
22897W        W89306  25.685  42.020   3.174
22898W        W89307   3.420  24.403  11.552
22899W        W89308  21.278  29.099  13.988
22900W        W89309  20.689   9.667   3.730
22901W        W89310  21.093  31.961  12.051
22902W        W89311  39.331  30.932   2.295
22903W        W89312  27.643  36.594   2.313
22904W        W89313   9.050  22.075  13.939
22905W        W89314  12.126   2.209  13.487
22906W        W89315   7.118  41.530  11.686
22907W        W89316  18.506  38.537  10.631
22908W        W89317  11.389  17.401  11.928
22909W        W89318  41.855  19.570  10.682
22910W        W89319  26.371  15.603   3.038
22911W        W89320  43.865  14.697  13.583
22912W        W89321  21.894   4.616   1.209
22913W        W89322  42.977  18.256   1.384
22914W        W89323  24.604  21.618   3.452
22915W        W89324   7.426  18.152  10.604
22916W        W89325  28.519  23.252  13.101
22917W        W89326  26.383  41.560  14.556
22918W        W89327   3.362  28.277  13.101
22919W        W89328  22.537   0.295   3.543
22920W        W89329  32.949  25.505   3.659
22921W        W89330   4.996  31.436  10.288
22922W        W89331  22.248  40.165   4.550
22923W        W89332  33.597  44.366  10.584
22924W        W89333  33.341  42.009   3.155
22925W        W89334   0.869  34.776  12.380
22926W        W89335  19.749   1.601  12.617
22927W        W89336  27.216  10.697  10.752
22928W        W89337   7.687  17.659   3.890
22929W        W89338   9.413  24.647  11.929
22930W        W89339   0.521   5.165  12.078
22931W        W89340  44.420  20.995   3.770
22932W        W89341  35.982  12.413   0.076
22933W        W89342  43.270  14.201   3.129
22934W        W89343   3.540  38.032  14.326
22935W        W89344   5.986   4.202  12.933
22936W        W89345  39.336  26.267  12.555
22937W        W89346  23.462   3.627  13.472
22938W        W89347  36.169  24.096   3.196
22939W        W89348   9.575  21.124   0.340
22940W        W89349  20.063   1.209  11.890
22941W        W89350  40.027  40.959   4.059
22942W        W89351  19.479  40.477   3.176
22943W        W89352   9.785   3.590   5.252
22944W        W89353  14.306   0.964   5.328
22945W        W89354   6.674  34.139   4.375
22946W        W89355   4.075   4.835  10.656
22947W        W89356  40.532   6.327  12.507
22948W        W89357  29.888  37.616   0.878
22949W        W89358  26.047  31.484  14.427
22950W        W89359  15.842  17.278  11.065
22951W        W89360  44.472  34.556   4.260
22952W        W89361  36.393  31.218   4.195
22953W        W89362  25.563  41.456   4.104
22954W        W89363  18.775  41.380  13.997
22955W        W89364  35.621  32.182  13.511
22956W        W89365   0.372  19.324   0.361
22957W        W89366  18.782  29.459   1.274
22958W        W89367  15.719   3.792  10.908
22959W        W89368  23.735  10.128   0.354
22960W        W89369  41.342  19.633  10.649
22961W        W89370  15.210  28.624   4.165
22962W        W89371  18.658  35.673  13.454
22963W        W89372   8.874   1.235   3.341
22964W        W89373  20.309  34.304   0.872
22965W        W89374   2.244   6.697   0.301
22966W        W89375  26.151  14.593   4.248
22967W        W89376  28.213  40.449   4.643
22968W        W89377  44.273  22.690   3.305
22969W        W89378  42.232  13.427   2.227
22970W        W89379  16.717   9.218  10.644
22971W        W89380   4.644  24.838  12.053
22972W        W89381  40.853   3.225  11.681
22973W        W89382   6.899  10.661   4.556
22974W        W89383  33.417  37.792   1.297
22975W        W89384  22.213  25.699  13.096
22976W        W89385  22.012  42.329   0.078
22977W        W89386  17.852  42.741   1.204
22978W        W89387   2.830   8.625   1.370
22979W        W89388  42.465  27.052  12.612
22980W        W89389   9.707   7.832  14.271
22981W        W89390   9.761  13.544   0.217
22982W        W89391  28.952   5.870  14.407
22983W        W89392   5.799  17.799   4.396
22984W        W89393  14.834  36.410   5.461
22985W        W89394  41.628  12.646   4.755
22986W        W89395  28.155   6.034   1.234
22987W        W89396  16.373  38.268  12.041
22988W        W89397  42.296  28.805   0.641
22989W        W89398   8.695  15.337   1.400
22990W        W89399   0.437  44.935   1.279
22991W        W89400  30.066  30.944   1.609
22992W        W89401  34.389  20.987   2.957
22993W        W89402  40.440  23.082   2.682
22994W        W89403  26.751  34.987   1.084
22995W        W89404  17.774  16.389   0.025
22996W        W89405  34.339  43.504  11.181
22997W        W89406  43.210  40.886   0.461
22998W        W89407  13.603  32.166  11.518
22999W        W89408   8.338  14.537  11.680
23000W        W89409  13.123   2.427  13.376
23001W        W89410  31.320  13.194  13.898
23002W        W89411  29.949  42.593   3.044
23003W        W89412  38.842  27.527   1.413
23004W        W89413  42.517  33.630  14.039
23005W        W89414  36.095  39.831  14.827
23006W        W89415  37.560  26.167  13.418
23007W        W89416   7.623  30.212  10.723
23008W        W89417  43.349  43.980  11.612
23009W        W89418  15.066   2.722  11.960
23010W        W89419   4.080  19.431   0.990
23011W        W89420  15.655  35.510   3.861
23012W        W89421  24.201  14.369  11.705
23013W        W89422  14.056  19.654  13.465
23014W        W89423  39.381  27.751  13.405
23015W        W89424   4.199  41.781  11.031
23016W        W89425  33.063  17.405   4.092
23017W        W89426   5.775  35.274   3.217
23018W        W89427  24.481  23.326   3.709
23019W        W89428  38.696   5.804  12.391
23020W        W89429   2.766  23.733   2.683
23021W        W89430  25.297   3.759   0.149
23022W        W89431  24.312  19.203   4.146
23023W        W89432  34.064  35.970  14.272
23024W        W89433  22.765   8.674   0.231
23025W        W89434  25.190  10.387  12.929
23026W        W89435  42.755   1.679  13.840
23027W        W89436  34.594   6.660   2.660
23028W        W89437  31.483  10.746   2.437
23029W        W89438  39.129  37.748  10.507
23030W        W89439  29.171  34.872   2.306
23031W        W89440  16.502  22.517  14.748
23032W        W89441  34.004  14.184  14.800
23033W        W89442  13.345  12.611  13.702
23034W        W89443   5.786  19.694   1.978
23035W        W89444  16.894   5.197   3.913
23036W        W89445  27.545  24.992  10.848
23037W        W89446  30.250   6.833  11.542
23038W        W89447  21.939  29.657   4.182
23039W        W89448   9.091  36.728  11.455
23040W        W89449   8.390   6.350  13.384
23041W        W89450  29.673  27.116  12.472
23042W        W89451  34.419   2.427   0.672
23043W        W89452  19.778   0.785  10.765
23044W        W89453  21.254  16.682   2.393
23045W        W89454  34.506  37.285   2.906
23046W        W89455  32.598  20.104  13.510
23047W        W89456   4.121  23.318   2.648
23048W        W89457  34.637  13.116   1.077
23049W        W89458  36.514  34.968   1.240
23050W        W89459  22.412  41.041  12.290
23051W        W89460  43.332  36.094  12.531
23052W        W89461   2.809  31.025   4.729
23053W        W89462  23.908  35.830  13.437
23054W        W89463  39.366   9.679  11.874
23055W        W89464   0.096  27.492  13.095
23056W        W89465  35.606  19.337  12.737
23057W        W89466  25.149  39.790  14.428
23058W        W89467   4.360   7.174   0.352
23059W        W89468  37.314  24.269  13.987
23060W        W89469   9.152  20.153  14.540
23061W        W89470  34.484  14.769   4.820
23062W        W89471  37.451   7.329  13.429
23063W        W89472  10.846  19.741   4.703
23064W        W89473  11.607  15.858   4.981
23065W        W89474   0.049   5.799  10.542
23066W        W89475   9.323  35.047  13.367
23067W        W89476  33.883  27.158   3.417
23068W        W89477   1.518  39.206   0.473
23069W        W89478  25.776  40.735  13.867
23070W        W89479  36.068  20.749   1.982
23071W        W89480  17.686   1.060   4.032
23072W        W89481  41.251  16.182  14.408
23073W        W89482  39.437  40.274   4.291
23074W        W89483  22.907  44.296  12.351
23075W        W89484  32.759  34.803   0.837
23076W        W89485  40.990  42.549   1.420
23077W        W89486   1.920  16.003   1.894
23078W        W89487   3.859   5.690  12.104
23079W        W89488  12.219  21.903  11.799
23080W        W89489  43.907  44.228  12.971
23081W        W89490  37.133  36.121   1.111
23082W        W89491   5.478  29.089  12.399
23083W        W89492  34.690  24.489  14.497
23084W        W89493  44.951  40.534   3.584
23085W        W89494  15.657  42.328  10.384
23086W        W89495  35.876   0.532   0.366
23087W        W89496  23.808   0.450  13.374
23088W        W89497  22.256  27.086  14.043
23089W        W89498   8.670   2.382   4.196
23090W        W89499  13.404  41.064   0.322
23091W        W89500   8.293   3.244  13.461
23092W        W89501  31.259  10.928   3.724
23093W        W89502   2.051  25.441  12.397
23094W        W89503  22.085   3.681  13.465
23095W        W89504  36.118  24.177   4.526
23096W        W89505  36.475  18.127   1.473
23097W        W89506  28.914  25.618  10.919
23098W        W89507  13.532  36.884   4.732
23099W        W89508  42.938  22.198   1.824
23100W        W89509  40.381  34.131  14.373
23101W        W89510  12.990  11.866   3.678
23102W        W89511  26.598  41.931  13.043
23103W        W89512  28.203  22.671   1.421
23104W        W89513  30.109  39.241   4.069
23105W        W89514   7.941   7.689   4.855
23106W        W89515  24.002  13.442   0.481
23107W        W89516   0.278   9.869   0.347
23108W        W89517  42.457  26.679  13.511
23109W        W89518   5.803   9.007  12.014
23110W        W89519  25.261  30.028   3.190
23111W        W89520  22.485  39.007   1.902
23112W        W89521  14.191  22.595   0.624
23113W        W89522  25.105  38.578  14.976
23114W        W89523  44.689  38.820   0.081
23115W        W89524  35.029  11.820  14.409
23116W        W89525  22.244   3.314   2.508
23117W        W89526  10.106  10.087  13.910
23118W        W89527  39.580  42.444   1.907
23119W        W89528  38.841   1.424   1.774
23120W        W89529  37.881   6.692  12.933
23121W        W89530  23.598  28.605   2.661
23122W        W89531  33.244  33.960  14.893
23123W        W89532  11.646  35.041   3.148
23124W        W89533  13.756  25.595  13.291
23125W        W89534  29.741  39.792   2.932
23126W        W89535  31.689   7.174  10.512
23127W        W89536  43.793  27.433   4.590
23128W        W89537  27.993  17.174   3.283
23129W        W89538  27.934  40.795   3.662
23130W        W89539   8.513  34.882   2.007
23131W        W89540  43.562  44.710   9.618
23132W        W89541  20.635  36.987  11.923
23133W        W89542  31.123  14.088  10.177
23134W        W89543  43.805  33.897  11.444
23135W        W89544   0.231  38.120  13.853
23136W        W89545   6.400   5.069  13.487
23137W        W89546  21.906  36.863  12.928
23138W        W89547   7.441  41.277  13.452
23139W        W89548  21.000   1.230  11.087
23140W        W89549   1.618  17.848   2.391
23141W        W89550  15.043  35.912   0.822
23142W        W89551   8.165  12.661  14.174
23143W        W89552  13.437  16.157  12.502
23144W        W89553  43.792  11.088  14.321
23145W        W89554  37.362  23.802   2.345
23146W        W89555  13.814   2.589  13.924
23147W        W89556  33.482  31.654   3.288
23148W        W89557  12.741  42.773   1.875
23149W        W89558  28.726  12.304  14.632
23150W        W89559  44.214  17.308   0.758
23151W        W89560   6.342  43.363   0.712
23152W        W89561   4.313  24.856  13.277
23153W        W89562   5.381  18.253   1.995
23154W        W89563  26.070  25.729  12.639
23155W        W89564  43.507  34.880   1.609
23156W        W89565   4.752  16.763   4.059
23157W        W89566  26.267   2.717  12.411
23158W        W89567   1.379  20.645  12.829
23159W        W89568  10.405  30.943  14.332
23160W        W89569   6.162   5.392  13.868
23161W        W89570  19.014  36.440  13.630
23162W        W89571  28.670  38.022   2.757
23163W        W89572   3.740  35.082  14.959
23164W        W89573  14.444  39.481  13.824
23165W        W89574  36.120  44.897  13.395
23166W        W89575  19.482  43.992   2.617
23167W        W89576  19.483  32.879   2.780
23168W        W89577   3.751  19.209  12.019
23169W        W89578  43.298  39.167  12.454
23170W        W89579  37.239  30.487  11.048
23171W        W89580  35.629  43.604   2.208
23172W        W89581  27.195  23.605   1.389
23173W        W89582  34.701  23.651  13.905
23174W        W89583  11.370  14.911   0.743
23175W        W89584  40.353   7.086   4.114
23176W        W89585  27.589  27.915  12.501
23177W        W89586  15.595  24.975   3.600
23178W        W89587  33.495  10.674  12.071
23179W        W89588   5.812  21.124   1.904
23180W        W89589   9.598   8.296  11.625
23181W        W89590  42.711   4.839  11.502
23182W        W89591  35.981  17.331   9.841
23183W        W89592  34.906  30.978  12.936
23184W        W89593  38.632  22.676   0.981
23185W        W89594  29.181  18.567  14.016
23186W        W89595  44.737  24.650   0.898
23187W        W89596  44.915   7.111   4.056
23188W        W89597   6.464  17.022   1.611
23189W        W89598  28.638  21.603  11.038
23190W        W89599   2.791  13.102  12.008
23191W        W89600  21.990  40.248   0.380
23192W        W89601  20.149  31.364   0.323
23193W        W89602  33.829  30.517  12.582
23194W        W89603  21.099  37.014  14.860
23195W        W89604  15.305  43.445   4.970
23196W        W89605   5.243   9.116  13.308
23197W        W89606  44.723   0.552   2.319
23198W        W89607  26.461   0.497   1.528
23199W        W89608  42.921  24.160  13.336
23200W        W89609  32.960  40.911  11.655
23201W        W89610   3.739  35.147  12.066
23202W        W89611  16.064  33.169   4.420
23203W        W89612  39.436  14.583  14.506
23204W        W89613  42.941  40.252  11.528
23205W        W89614  43.328   7.394   0.299
23206W        W89615  44.358  13.341   3.101
23207W        W89616  26.026  23.795   2.276
23208W        W89617  21.934   0.763  11.958
23209W        W89618   5.788  21.825   2.751
23210W        W89619  40.866  19.209   4.550
23211W        W89620  42.318  10.593  13.860
23212W        W89621  21.757   7.999  12.244
23213W        W89622  14.832  39.658   5.070
23214W        W89623  31.390   1.789   5.101
23215W        W89624   2.476  20.867  13.846
23216W        W89625  33.933  22.545  14.895
23217W        W89626  10.747   4.718  13.575
23218W        W89627  11.103   7.432   4.509
23219W        W89628  15.779  31.538  14.380
23220W        W89629  18.330  37.639   1.947
23221W        W89630   2.496  25.058   4.168
23222W        W89631  37.044  34.988   4.114
23223W        W89632  14.766  44.297   0.949
23224W        W89633  19.724   5.418  11.075
23225W        W89634  11.119  14.306  13.477
23226W        W89635  35.007  18.838   2.359
23227W        W89636  35.840  42.488  14.788
23228W        W89637  38.305  41.349  14.025
23229W        W89638   1.056  29.989  14.889
23230W        W89639   9.995  16.508  14.242
23231W        W89640  15.790   7.605   2.832
23232W        W89641  23.198  21.127  10.257
23233W        W89642  31.188  22.143  12.548
23234W        W89643   2.747   1.665  11.393
23235W        W89644  41.892  41.181  11.078
23236W        W89645  43.235  24.994  12.973
23237W        W89646  36.478   9.174   1.742
23238W        W89647  41.732  18.972   0.409
23239W        W89648  19.743  25.651  12.183
23240W        W89649  33.488  16.051   0.406
23241W        W89650   2.055  35.686   1.921
23242W        W89651  44.715  18.068   0.685
23243W        W89652   5.104   2.667   2.271
23244W        W89653   9.275  18.047  14.902
23245W        W89654  25.456   3.388   3.365
23246W        W89655  37.468  18.647   0.012
23247W        W89656  19.087   9.163  12.846
23248W        W89657   2.600  38.794  14.736
23249W        W89658   3.469  22.225  11.976
23250W        W89659  10.670  43.538  11.133
23251W        W89660   2.411  28.422   2.396
23252W        W89661  12.716  23.536   4.120
23253W        W89662   4.420  33.343  12.622
23254W        W89663   7.653  30.963  14.997
23255W        W89664  38.513  14.681   1.471
23256W        W89665  33.433  27.347  14.768
23257W        W89666  29.495  39.817  11.176
23258W        W89667  40.091  41.124   0.735
23259W        W89668  36.879  22.186  11.889
23260W        W89669  21.609  37.355   4.971
23261W        W89670  15.674   4.903   4.087
23262W        W89671  13.398  36.024  12.796
23263W        W89672  29.691   5.356  14.743
23264W        W89673  33.182   4.985  10.681
23265W        W89674  41.556  39.877   1.334
23266W        W89675  43.782  11.871  14.598
23267W        W89676  42.041  41.791  12.870
23268W        W89677  19.021  23.633   0.885
23269W        W89678  38.262  14.018   2.433
23270W        W89679   0.961  17.697  14.398
23271W        W89680  24.248   7.679   2.670
23272W        W89681  15.076  40.946   0.999
23273W        W89682  38.439  10.769  14.923
23274W        W89683  25.967  40.331   3.647
23275W        W89684   8.094  31.999  10.233
23276W        W89685  25.227   1.075   4.657
23277W        W89686  35.273  38.595   3.706
23278W        W89687  17.739  34.369  12.136
23279W        W89688  41.444   1.332   3.876
23280W        W89689   9.293  26.402   1.854
23281W        W89690  36.603  11.744  10.016
23282W        W89691  31.045   3.188   0.519
23283W        W89692  40.067   6.114  14.396
23284W        W89693  40.742  14.647   0.385
23285W        W89694  27.585  26.714   5.145
23286W        W89695  18.412   4.172   3.096
23287W        W89696   7.080   5.729  11.923
23288W        W89697  16.040   1.440   2.716
23289W        W89698  27.929   0.430   4.287
23290W        W89699  35.323  36.565   3.656
23291W        W89700   3.684  33.451  12.119
23292W        W89701  38.603  17.389   1.829
23293W        W89702  31.433  16.517  12.997
23294W        W89703  40.986  22.681  14.318
23295W        W89704  23.679  33.119  13.884
23296W        W89705  35.881  15.081   1.135
23297W        W89706  43.047  10.750   2.318
23298W        W89707  39.293   8.484  13.508
23299W        W89708   8.980  24.624   0.294
23300W        W89709  36.442  11.242  13.007
23301W        W89710   8.736  13.196   0.303
23302W        W89711   3.854  40.885   3.093
23303W        W89712  20.974  18.106   0.007
23304W        W89713  43.495  34.836   2.179
23305W        W89714  12.037  27.150   1.510
23306W        W89715  13.154  43.861  11.038
23307W        W89716  39.027  26.964  14.803
23308W        W89717  15.773  24.093   9.875
23309W        W89718   0.699  43.230  11.173
23310W        W89719  29.237  13.858   3.673
23311W        W89720  44.959  16.173   1.906
23312W        W89721   4.458  17.704  11.332
23313W        W89722  20.804  38.412   3.145
23314W        W89723  12.234  36.381   3.384
23315W        W89724   4.796   1.753   4.619
23316W        W89725  41.962  33.896  10.491
23317W        W89726   6.686   4.799   2.858
23318W        W89727  17.530  13.183  14.388
23319W        W89728  10.933   3.333   1.297
23320W        W89729   8.231  25.768   3.716
23321W        W89730   5.572  26.888  13.145
23322W        W89731  20.454  18.788   0.686
23323W        W89732   0.484  27.786  10.057
23324W        W89733  10.763   3.026   0.437
23325W        W89734  33.481  43.494   1.340
23326W        W89735  41.431  44.800  12.569
23327W        W89736  22.981  28.445   0.823
23328W        W89737  30.710  35.601   4.417
23329W        W89738  41.812  23.026   1.448
23330W        W89739   2.331   6.203   9.610
23331W        W89740  11.938  27.294  10.671
23332W        W89741   3.439  27.477   4.008
23333W        W89742  22.504   2.273   1.002
23334W        W89743  39.420  25.061   0.226
23335W        W89744  36.765  39.394   1.272
23336W        W89745  20.620  40.832  13.924
23337W        W89746  11.229   9.564   3.702
23338W        W89747   7.626   2.355  13.991
23339W        W89748  38.778  23.176   0.889
23340W        W89749  29.673   9.127  13.627
23341W        W89750   1.879  17.236   4.097
23342W        W89751  27.033  38.579   0.156
23343W        W89752   6.392  26.915  10.747
23344W        W89753  17.626  20.464   2.696
23345W        W89754  19.467   3.813  14.892
23346W        W89755   4.979  26.912  11.189
23347W        W89756  21.702  23.570   2.164
23348W        W89757  34.113  42.060  11.485
23349W        W89758  15.151  29.486  14.294
23350W        W89759  29.707  17.017   2.338
23351W        W89760  26.069  12.590  13.936
23352W        W89761  13.540  32.956  14.453
23353W        W89762  38.675  11.365  13.070
23354W        W89763  38.383  31.052  12.493
23355W        W89764  35.606  40.510  13.415
23356W        W89765  17.741  41.245  10.265
23357W        W89766  32.678   6.809  14.253
23358W        W89767  44.059  26.411  14.974
23359W        W89768   9.730  35.306  13.947
23360W        W89769  37.839   1.726   0.476
23361W        W89770  27.955  30.559   5.069
23362W        W89771  28.208  25.637   4.642
23363W        W89772  32.219  42.473  12.791
23364W        W89773  39.882  21.574   4.083
23365W        W89774   2.491   3.447  10.854
23366W        W89775  32.071  14.858   5.358
23367W        W89776  15.563  36.364   3.646
23368W        W89777  32.914  42.482  12.712
23369W        W89778   1.875  40.320  12.038
23370W        W89779   1.790  33.508   5.075
23371W        W89780  38.332   8.737  13.457
23372W        W89781  44.899  30.236   2.404
23373W        W89782  41.733  28.633   3.522
23374W        W89783  19.221  38.269   1.769
23375W        W89784   8.155  12.952  13.149
23376W        W89785  41.343  19.501  12.276
23377W        W89786   3.779   5.217   4.210
23378W        W89787   3.309   0.784   4.189
23379W        W89788  13.683   1.779  11.943
23380W        W89789  30.483  13.022  11.128
23381W        W89790  25.237   3.511   3.825
23382W        W89791   1.877  19.652   3.704
23383W        W89792  22.463  12.672   1.828
23384W        W89793  42.918  14.709  11.853
23385W        W89794   7.943  14.670  14.468
23386W        W89795   0.957  32.126  13.917
23387W        W89796  43.481  33.957   2.170
23388W        W89797  26.588   6.930  12.099
23389W        W89798  44.976  31.904  13.980
23390W        W89799   8.792  10.767  11.052
23391W        W89800  11.307   6.160   0.657
23392W        W89801  39.131   2.109   0.410
23393W        W89802  10.310  34.903   1.849
23394W        W89803  28.593  20.745  12.173
23395W        W89804   7.208  33.882  10.831
23396W        W89805   7.245  26.947   2.134
23397W        W89806  26.029  32.490   0.965
23398W        W89807  24.740  14.745   2.101
23399W        W89808  22.670  12.612   2.702
23400W        W89809  31.110   9.763  12.003
23401W        W89810   3.503   0.380   2.284
23402W        W89811  32.415  26.601   0.555
23403W        W89812  28.142  21.633   9.387
23404W        W89813  28.019   2.987   2.853
23405W        W89814   6.106  20.601   4.110
23406W        W89815  14.802  37.019   3.570
23407W        W89816  33.565  42.559   4.739
23408W        W89817  20.192   7.826   0.376
23409W        W89818  25.814  44.325   1.189
23410W        W89819  32.931  38.650   2.884
23411W        W89820  30.664  36.462  12.543
23412W        W89821   6.349  16.217  14.381
23413W        W89822  20.989  44.958   4.962
23414W        W89823  22.049  25.518   4.517
23415W        W89824   0.838  17.296  12.867
23416W        W89825  22.544  18.981  14.370
23417W        W89826  42.184  42.977  14.308
23418W        W89827  28.952  21.618   2.284
23419W        W89828   9.093  15.249   1.748
23420W        W89829  21.101  24.104  14.667
23421W        W89830   6.955  36.828   4.938
23422W        W89831  40.799  37.384   2.627
23423W        W89832  37.988   8.423  11.634
23424W        W89833  39.505  41.841  12.074
23425W        W89834  39.506   1.518  11.061
23426W        W89835  22.002  43.399   3.170
23427W        W89836  19.993  40.984  10.737
23428W        W89837  15.043  41.407   3.892
23429W        W89838  30.683  42.301   2.723
23430W        W89839   6.800  30.015   0.051
23431W        W89840   6.225  37.980  10.556
23432W        W89841  25.610   9.235   0.628
23433W        W89842  17.337  19.524  12.041
23434W        W89843   2.986  34.634  11.203
23435W        W89844   6.723  30.579  11.138
23436W        W89845  35.580  12.642  11.147
23437W        W89846   9.007  35.112  10.667
23438W        W89847  12.141  38.518  13.338
23439W        W89848   4.227   8.412  14.055
23440W        W89849  19.599  23.228   2.095
23441W        W89850  16.022   1.226  14.438
23442W        W89851  36.042   4.410  10.645
23443W        W89852   8.472   4.906  11.417
23444W        W89853  22.711  37.891   0.770
23445W        W89854  41.406  20.013  13.619
23446W        W89855  44.466  13.728   2.734
23447W        W89856  21.072  39.891   0.212
23448W        W89857  35.127   9.701   4.089
23449W        W89858  12.690   8.660  14.959
23450W        W89859  17.035  38.420  12.168
23451W        W89860  19.022  29.033   3.267
23452W        W89861  27.958  30.841  10.174
23453W        W89862  22.235  38.454   4.747
23454W        W89863  12.727  10.673  14.979
23455W        W89864   6.335   4.694  10.437
23456W        W89865  29.437  34.784  13.734
23457W        W89866  43.950  10.918  12.484
23458W        W89867  10.359  40.916  11.632
23459W        W89868  44.087  32.184   1.222
23460W        W89869  27.610  12.329  11.505
23461W        W89870   0.332   7.660   4.749
23462W        W89871  44.224  41.378  11.231
23463W        W89872   9.879   9.999  10.983
23464W        W89873  26.162   4.961   3.028
23465W        W89874  37.352   6.360  14.805
23466W        W89875  24.896  33.089  14.892
23467W        W89876  37.865  37.510  12.082
23468W        W89877  14.250  23.068   4.703
23469W        W89878  44.519  41.422  12.222
23470W        W89879  16.864  44.988  13.458
23471W        W89880  14.158  42.927  13.417
23472W        W89881  10.550  12.112   4.206
23473W        W89882   2.278  26.083  14.604
23474W        W89883  10.001   0.299  12.457
23475W        W89884   4.456  12.698   2.227
23476W        W89885  37.650  35.012   4.168
23477W        W89886   4.363  43.109   1.718
23478W        W89887  40.923  41.749   0.663
23479W        W89888   8.020   7.114  13.062
23480W        W89889  28.807   3.487   1.837
23481W        W89890   1.740   7.861   0.780
23482W        W89891   7.634  30.685  12.635
23483W        W89892   6.962   7.842   3.825
23484W        W89893  41.000   2.800   1.396
23485W        W89894   3.561   4.162  11.289
23486W        W89895  20.990  14.622   3.315
23487W        W89896  13.595   0.961   2.712
23488W        W89897  18.254  27.637   3.595
23489W        W89898  11.515   9.220   4.917
23490W        W89899  29.567  34.453  14.902
23491W        W89900  15.295  37.333  13.032
23492W        W89901  24.167  12.518  10.245
23493W        W89902  11.171  30.867   2.834
23494W        W89903  20.010  21.787  10.998
23495W        W89904  29.347  44.980   1.791
23496W        W89905  27.872  25.080   3.156
23497W        W89906  18.426  39.105   4.157
23498W        W89907   8.342  13.646   3.638
23499W        W89908  31.071  37.567   3.705
23500W        W89909  20.756  18.742  14.853
23501W        W89910   9.628   5.293   4.570
23502W        W89911   9.640  38.424   4.128
23503W        W89912  21.154   7.606   2.233
23504W        W89913  14.054   7.337   2.316
23505W        W89914  22.547  22.044   9.641
23506W        W89915  32.434  15.079   2.867
23507W        W89916  30.669  13.720  14.329
23508W        W89917  33.883  30.622   2.630
23509W        W89918  27.870  23.735   0.737
23510W        W89919   7.180  21.021  11.104
23511W        W89920   5.294  44.514  10.610
23512W        W89921  22.965  32.991  10.730
23513W        W89922   0.386  19.727   0.689
23514W        W89923  40.557  17.356   1.969
23515W        W89924  39.726  30.213  11.588
23516W        W89925   1.283  13.673   2.364
23517W        W89926  44.256  14.663  13.933
23518W        W89927  22.278  21.179  13.403
23519W        W89928  44.625  32.849   1.268
23520W        W89929   7.433   7.103   1.723
23521W        W89930   2.451  39.831   3.655
23522W        W89931  25.073  28.638   2.706
23523W        W89932  15.667  27.675   2.837
23524W        W89933  44.833  20.623  11.132
23525W        W89934  10.756   9.562   0.870
23526W        W89935  37.136  30.756  14.506
23527W        W89936  20.557  30.953   0.818
23528W        W89937  14.792   6.510   2.114
23529W        W89938  32.310   4.030  10.812
23530W        W89939  30.433   3.879   4.088
23531W        W89940  18.069  32.245   1.721
23532W        W89941   6.767  23.136  11.227
23533W        W89942  43.595  21.954   4.114
23534W        W89943  16.665  32.169  13.967
23535W        W89944  22.279   5.027   2.664
23536W        W89945  40.373  12.270  13.552
23537W        W89946  23.775  42.974   1.232
23538W        W89947  14.835  24.091   2.115
23539W        W89948  29.033   3.613  14.752
23540W        W89949   9.929  17.483   2.807
23541W        W89950  12.863  43.889   3.297
23542W        W89951  39.083   0.506   4.872
23543W        W89952  13.165  11.526   2.251
23544W        W89953  34.628  37.922   3.187
23545W        W89954  41.492  37.383  10.562
23546W        W89955  18.125  23.081   2.905
23547W        W89956   2.144  34.890  10.057
23548W        W89957  18.984  11.227   4.178
23549W        W89958  13.875  14.076   3.207
23550W        W89959  23.160  26.477  13.323
23551W        W89960  43.095  32.892  14.911
23552W        W89961  24.148  23.206  11.974
23553W        W89962  30.050  18.815  12.513
23554W        W89963   6.955   1.856   3.621
23555W        W89964  37.940  41.903  12.696
23556W        W89965  10.055  39.393  12.325
23557W        W89966  16.206  16.596  11.546
23558W        W89967  31.505   8.136   4.207
23559W        W89968  14.136  32.009   0.800
23560W        W89969  37.388   1.945   2.462
23561W        W89970   2.930  31.865   2.209
23562W        W89971   1.672  26.972   0.915
23563W        W89972  26.726  37.922  12.599
23564W        W89973   9.845  24.146   0.500
23565W        W89974   1.946  11.705  11.541
23566W        W89975  17.312   7.158  13.078
23567W        W89976  17.545  36.577   2.370
23568W        W89977  23.360  29.034   2.830
23569W        W89978  17.967  34.885   4.156
23570W        W89979  26.471   8.516   3.352
23571W        W89980  27.102  13.668  12.938
23572W        W89981  13.861  31.864   0.170
23573W        W89982   9.945  21.076  11.837
23574W        W89983  15.104  36.492  11.263
23575W        W89984  27.985  43.329   1.767
23576W        W89985  34.541  22.783  14.396
23577W        W89986  31.000  36.937   0.888
23578W        W89987   4.729  28.159   1.866
23579W        W89988  11.489  18.213  12.442
23580W        W89989  26.973  33.074   4.580
23581W        W89990   0.286   6.425  11.308
23582W        W89991  36.644  18.205   4.184
23583W        W89992  29.687   7.404  11.058
23584W        W89993  10.863  13.135   0.365
23585W        W89994  35.860  44.188  14.014
23586W        W89995   6.926  24.516   1.199
23587W        W89996  19.997  23.040  14.455
23588W        W89997  18.560  39.177   3.318
23589W        W89998  20.566  29.124  14.994
23590W        W89999   5.188   1.558   3.967
23591W        W90000  14.605  32.343  14.922
23592W        W90001  15.283  22.459  14.064
23593W        W90002  29.653   4.283  14.997
23594W        W90003  19.229  32.690   4.826
23595W        W90004  14.274  35.081   5.090
23596W        W90005  40.363  36.793   0.458
23597W        W90006  19.776  29.102  13.549
23598W        W90007   5.067  33.585   4.100
23599W        W90008  28.257  38.072   1.541
23600W        W90009  34.453   4.388  12.932
23601W        W90010  30.240  22.114   1.805
23602W        W90011   5.324  23.079   2.421
23603W        W90012  32.724  38.188   4.036
23604W        W90013  25.440   6.648  10.669
23605W        W90014  24.775  21.544   3.928
23606W        W90015  17.691  40.372  14.695
23607W        W90016  27.708  25.121  14.366
23608W        W90017   8.002  12.327  11.979
23609W        W90018  21.799  13.773  12.412
23610W        W90019  19.802  17.798  12.002
23611W        W90020  37.026  10.082  11.287
23612W        W90021  44.407   6.166  12.456
23613W        W90022  24.049   2.444  12.727
23614W        W90023   6.230  39.246   0.999
23615W        W90024   8.642   3.525  14.430
23616W        W90025  12.494  30.374   3.977
23617W        W90026  10.610  13.852   1.736
23618W        W90027  12.278   5.387   4.631
23619W        W90028  36.624  23.158   1.896
23620W        W90029   9.588   3.910  11.530
23621W        W90030   1.113  44.493   2.835
23622W        W90031  23.482  33.206   1.123
23623W        W90032   1.379  17.158   3.546
23624W        W90033  11.259  34.918   2.206
23625W        W90034   2.752  28.139  14.311
23626W        W90035   7.879   0.470   2.784
23627W        W90036  19.548  40.529   2.251
23628W        W90037  13.651  10.551  12.528
23629W        W90038  38.571  12.494   0.896
23630W        W90039  33.655  39.930   1.387
23631W        W90040  11.656  38.361  14.905
23632W        W90041  21.484   5.695  11.615
23633W        W90042  32.680  29.186  10.120
23634W        W90043  26.990  35.837   4.431
23635W        W90044   4.403   5.825   4.627
23636W        W90045  20.706  37.486   4.278
23637W        W90046  28.605   4.839   4.820
23638W        W90047  44.142  24.052   1.256
23639W        W90048  20.132  37.964  13.490
23640W        W90049  41.290  15.714   4.483
23641W        W90050  29.650  33.874  13.796
23642W        W90051  31.419  34.050  12.824
23643W        W90052  28.183  39.779  13.359
23644W        W90053  16.061  22.645   0.864
23645W        W90054  28.067   6.590  11.084
23646W        W90055  23.346  37.948   4.824
23647W        W90056   5.980  28.160  13.382
23648W        W90057  31.441  41.489   0.996
23649W        W90058  34.395  24.536  14.956
23650W        W90059  42.813  10.288  14.954
23651W        W90060  28.165  27.060   2.368
23652W        W90061  28.000  14.061  10.131
23653W        W90062  25.070  11.643   1.815
23654W        W90063  18.565  38.579   0.492
23655W        W90064  29.692  39.972   1.767
23656W        W90065  14.019  17.929   3.241
23657W        W90066  33.380  14.061  12.879
23658W        W90067   9.293  20.170  12.408
23659W        W90068  17.541  17.286   3.899
23660W        W90069  44.007   8.476  12.110
23661W        W90070  37.709  32.732   5.084
23662W        W90071   2.627  41.318  14.770
23663W        W90072   5.938  35.385  12.076
23664W        W90073  27.191   9.993   4.985
23665W        W90074  34.757  11.235   4.456
23666W        W90075  10.834  35.124  14.378
23667W        W90076  32.590  41.417   0.243
23668W        W90077  30.865  16.559  14.532
23669W        W90078   6.828  28.124   4.042
23670W        W90079  23.755  27.976  14.964
23671W        W90080  30.854   1.894  12.954
23672W        W90081  34.859  30.114  14.934
23673W        W90082  25.077  39.018   0.896
23674W        W90083  34.333  30.224  11.225
23675W        W90084  26.643   4.708   0.493
23676W        W90085  17.488  21.545  14.394
23677W        W90086  43.445  30.604  13.925
23678W        W90087  25.012  20.173  14.723
23679W        W90088  27.619  14.888  11.580
23680W        W90089  28.175  39.948  13.892
23681W        W90090  28.622  21.546  13.036
23682W        W90091   8.829  35.124   2.999
23683W        W90092  27.905  12.738  10.276
23684W        W90093  41.767  38.500  14.416
23685W        W90094  20.424  39.045  11.380
23686W        W90095  39.100  39.086  13.401
23687W        W90096  14.204  42.495   2.160
23688W        W90097  43.888  22.995   4.196
23689W        W90098  43.694  13.794   3.645
23690W        W90099  34.742   6.531  12.870
23691W        W90100  31.274   5.936   1.274
23692W        W90101  36.539  13.130   4.126
23693W        W90102  17.440  27.920  14.623
23694W        W90103   0.295  22.295  12.173
23695W        W90104  30.333  34.458  14.426
23696W        W90105   4.742  31.954   3.274
23697W        W90106   4.470  24.385  13.383
23698W        W90107  16.657  17.217   2.342
23699W        W90108  16.315  14.577   4.336
23700W        W90109  12.980  38.517   0.615
23701W        W90110  26.479  21.664  11.142
23702W        W90111   0.956  44.939   1.209
23703W        W90112  41.399   5.188   0.906
23704W        W90113  43.842   3.622  10.607
23705W        W90114  44.033   7.264   1.406
23706W        W90115  27.105  16.808   3.198
23707W        W90116  16.170  12.383  14.847
23708W        W90117  44.071  38.532   0.725
23709W        W90118  27.744  34.921   2.289
23710W        W90119   5.870  13.817  13.896
23711W        W90120  36.874  11.312  11.536
23712W        W90121  19.294   7.870   2.657
23713W        W90122  24.555  21.749   2.093
23714W        W90123  33.916   8.195   2.366
23715W        W90124  32.889  29.000  11.065
23716W        W90125  38.371  43.787  13.888
23717W        W90126  36.831  36.506  13.805
23718W        W90127  43.754  27.763   3.819
23719W        W90128  27.429  16.146   3.264
23720W        W90129  39.164  11.681  13.804
23721W        W90130  12.317  25.472  13.301
23722W        W90131  27.186  37.116   3.932
23723W        W90132  26.111   3.729  12.214
23724W        W90133   8.387  19.265  12.818
23725W        W90134   8.379  40.349   4.124
23726W        W90135   2.547   8.854   4.283
23727W        W90136  25.207  38.743   4.256
23728W        W90137  39.426  20.042   0.248
23729W        W90138  16.583  30.972  13.315
23730W        W90139  30.006  15.161   3.385
23731W        W90140  24.996   5.185   1.428
23732W        W90141   5.332  30.160  11.494
23733W        W90142  41.086  35.775  13.921
23734W        W90143  31.236   5.000   3.153
23735W        W90144  38.168  42.094   0.833
23736W        W90145  20.661  35.612   1.683
23737W        W90146  40.423   7.842  13.077
23738W        W90147  30.521  14.784   3.747
23739W        W90148  41.911  15.697   0.730
23740W        W90149  27.967  40.062  12.017
23741W        W90150   4.161  26.979   3.043
23742W        W90151  39.034  20.484  13.752
23743W        W90152  41.554  33.107   1.165
23744W        W90153  20.781  22.073   4.177
23745W        W90154  36.483  23.668   1.855
23746W        W90155  15.393   6.575  13.304
23747W        W90156  33.381   0.748  10.513
23748W        W90157  13.048  23.261  12.165
23749W        W90158  39.408  20.087  13.743
23750W        W90159  33.298  17.611   1.019
23751W        W90160  41.485   2.439   0.263
23752W        W90161  19.819   4.354  13.403
23753W        W90162  26.092  41.803  10.955
23754W        W90163  30.205  40.058   3.123
23755W        W90164  22.050   0.986   3.718
23756W        W90165   7.015  39.576  11.517
23757W        W90166  35.823  39.574  14.441
23758W        W90167   2.802   9.344   0.008
23759W        W90168  12.959  42.430   0.540
23760W        W90169  42.465  35.208   3.221
23761W        W90170  15.793  11.162   1.701
23762W        W90171  20.664  26.169  11.515
23763W        W90172  37.604  21.590  12.856
23764W        W90173  19.565  43.098  14.473
23765W        W90174  30.205  44.966   3.145
23766W        W90175  11.664   8.100  10.473
23767W        W90176  12.595  32.928  12.076
23768W        W90177  44.473  15.780  13.109
23769W        W90178   2.433   0.007  11.844
23770W        W90179  29.302  23.075   0.790
23771W        W90180  35.371  38.216   0.567
23772W        W90181  28.951  20.436  12.399
23773W        W90182   0.562  42.968   1.062
23774W        W90183  16.306  12.714   1.991
23775W        W90184  29.401  19.721   1.781
23776W        W90185  18.171  30.648   0.729
23777W        W90186  31.622  30.617   4.611
23778W        W90187   9.781  38.059   0.307
23779W        W90188  11.175  35.099   1.328
23780W        W90189   2.676  24.449   1.326
23781W        W90190  11.741  11.374  13.029
23782W        W90191  14.188  35.612  14.644
23783W        W90192  32.323  24.272  11.563
23784W        W90193  35.606  30.359   0.465
23785W        W90194  32.029   8.124   3.700
23786W        W90195  22.509  23.024  13.439
23787W        W90196  20.609  24.164  14.815
23788W        W90197  40.551  25.622   2.684
23789W        W90198  34.150  15.266   4.155
23790W        W90199  21.584  44.446   3.208
23791W        W90200  21.543  25.647  11.134
23792W        W90201  44.087  29.259  12.157
23793W        W90202  19.151  40.368   3.602
23794W        W90203  19.987  14.734  11.199
23795W        W90204  27.435  27.474   1.310
23796W        W90205  24.364  40.345  14.507
23797W        W90206  24.736  41.258  13.903
23798W        W90207   2.216  37.101   0.915
23799W        W90208  18.946  28.648  12.743
23800W        W90209  22.055  33.327   2.249
23801W        W90210  21.973   1.431   0.907
23802W        W90211  37.446  10.784   4.563
23803W        W90212  11.500  16.040   0.117
23804W        W90213  30.379  14.375  12.899
23805W        W90214  25.157  36.321  11.631
23806W        W90215  28.443  29.484   0.118
23807W        W90216   2.474   6.760   4.240
23808W        W90217  44.045  39.514   3.743
23809W        W90218  24.695   6.895   0.456
23810W        W90219  34.929  38.436  10.790
23811W        W90220  14.178  36.536  12.065
23812W        W90221  40.991  41.347  12.941
23813W        W90222  24.737  43.940  12.064
23814W        W90223  22.193  16.396   4.381
23815W        W90224  12.308   4.937  10.066
23816W        W90225  21.549   9.418  13.008
23817W        W90226  18.795  14.071   3.718
23818W        W90227  32.419   5.233   4.353
23819W        W90228  24.060   7.337  12.043
23820W        W90229  42.375  28.700   2.815
23821W        W90230  26.671  14.751  11.609
23822W        W90231  17.757  40.464  11.987
23823W        W90232  28.312  36.023   9.975
23824W        W90233  37.840   7.412  11.635
23825W        W90234  37.695  19.269  10.632
23826W        W90235  24.540   5.671   3.825
23827W        W90236  26.105  44.399  11.017
23828W        W90237   5.256  40.123   0.709
23829W        W90238  15.040  11.169  10.916
23830W        W90239  40.885  27.164  11.495
23831W        W90240  32.925  43.939   3.651
23832W        W90241   9.153  13.661   2.453
23833W        W90242   6.862   0.773   0.329
23834W        W90243  21.864   2.846  12.036
23835W        W90244  19.350  44.586   3.728
23836W        W90245  20.540  24.913   3.850
23837W        W90246  15.967  40.144   1.777
23838W        W90247   1.295  24.387  14.391
23839W        W90248  15.147  24.639  10.750
23840W        W90249  20.096  23.606   2.705
23841W        W90250  11.899  38.758  11.308
23842W        W90251  36.721  10.030  12.396
23843W        W90252   2.372  11.752   0.966
23844W        W90253  34.090  25.180  11.945
23845W        W90254  28.439  42.325  11.639
23846W        W90255   9.837  17.261  11.145
23847W        W90256  25.010  37.434   3.140
23848W        W90257  11.643  20.296   1.402
23849W        W90258  22.860  36.341   0.425
23850W        W90259   9.078  41.571   2.919
23851W        W90260  13.801  42.943   3.203
23852W        W90261  29.473   9.001  12.386
23853W        W90262  21.363   0.421   2.070
23854W        W90263  21.310   6.727  12.404
23855W        W90264  41.915  41.250  13.292
23856W        W90265   7.802  32.932   1.141
23857W        W90266  19.953  35.367  12.134
23858W        W90267  20.198  36.184  12.364
23859W        W90268  34.197  37.161   4.153
23860W        W90269  44.506  30.184  13.032
23861W        W90270   0.455  11.571  13.526
23862W        W90271  23.118  36.894   0.844
23863W        W90272  36.064  20.678  14.573
23864W        W90273  22.562  37.137  11.427
23865W        W90274   2.320  14.887  11.748
23866W        W90275  28.737   6.572  10.813
23867W        W90276   3.344  20.947   4.650
23868W        W90277  33.845   7.649  12.649
23869W        W90278   9.674  22.816  13.421
23870W        W90279  44.406   3.775   3.955
23871W        W90280  40.803   9.165   9.644
23872W        W90281   6.699  24.211   1.609
23873W        W90282   2.991   9.356  13.170
23874W        W90283  15.977  18.677  10.805
23875W        W90284   9.549  41.011  14.027
23876W        W90285  41.295  43.466   1.285
23877W        W90286  12.657  42.355  10.973
23878W        W90287   4.902  19.171  14.850
23879W        W90288  41.958  34.904  13.945
23880W        W90289   5.909  42.921   4.674
23881W        W90290  24.606   7.236   1.690
23882W        W90291  11.118  41.961   1.249
23883W        W90292   2.939   8.940   2.260
23884W        W90293  21.697  12.773  14.755
23885W        W90294  24.122  31.931   4.677
23886W        W90295   3.873   1.536   4.177
23887W        W90296  36.837   6.252  14.739
23888W        W90297  16.794   2.675   3.780
23889W        W90298   8.716  23.371   2.248
23890W        W90299  32.451   6.326  11.891
23891W        W90300  44.905  21.243   4.547
23892W        W90301  32.521  34.950  14.128
23893W        W90302  33.571  42.451   2.956
23894W        W90303   0.909  15.519  11.527
23895W        W90304  17.231  26.450   1.199
23896W        W90305  44.632  17.616   3.828
23897W        W90306  33.978  14.453   3.242
23898W        W90307  13.314  34.841   0.179
23899W        W90308  38.099  33.620  13.017
23900W        W90309  23.902  35.336  12.504
23901W        W90310   7.987  23.990  13.536
23902W        W90311  41.298   4.733  12.944
23903W        W90312  11.136   8.930   3.241
23904W        W90313  13.801  30.636   4.372
23905W        W90314  37.553  28.715  10.759
23906W        W90315   2.573  36.506  12.059
23907W        W90316  40.960   7.415   2.717
23908W        W90317  21.914  33.880   4.824
23909W        W90318   0.518   5.133   2.305
23910W        W90319  42.959   3.871  12.613
23911W        W90320  10.956  20.039  10.710
23912W        W90321  18.630  37.794  13.522
23913W        W90322   9.402  25.328   3.252
23914W        W90323  25.637  19.161  12.104
23915W        W90324   3.625  23.887  11.979
23916W        W90325  41.269   2.716  14.885
23917W        W90326  38.352  43.797   4.515
23918W        W90327  29.847   3.332   2.231
23919W        W90328   5.959   7.366  14.962
23920W        W90329  31.844   7.282  12.932
23921W        W90330   8.037  22.636   0.846
23922W        W90331   7.083  44.977   4.588
23923W        W90332   0.006  36.518   1.844
23924W        W90333  42.510  14.128  12.076
23925W        W90334  10.169  14.968   3.838
23926W        W90335  19.698   5.251   4.991
23927W        W90336  40.903  37.815  12.115
23928W        W90337   4.887   8.671  11.411
23929W        W90338  33.476  21.795  13.450
23930W        W90339   1.642  36.852  11.337
23931W        W90340  34.874  34.591   1.379
23932W        W90341  13.572  22.279  13.434
23933W        W90342  20.206  14.614  11.933
23934W        W90343  36.696  38.618   4.743
23935W        W90344  33.966  22.255   4.138
23936W        W90345   4.476  42.651  14.923
23937W        W90346   2.505  41.578  10.778
23938W        W90347  32.068   5.242  11.772
23939W        W90348  24.428  20.964   4.540
23940W        W90349  30.104  20.265   0.058
23941W        W90350  33.516   0.804   0.211
23942W        W90351  13.123  23.940   2.211
23943W        W90352  11.688  35.023   1.391
23944W        W90353  32.148  13.112   2.164
23945W        W90354   6.208  42.055   0.001
23946W        W90355   3.288  29.977  14.517
23947W        W90356  36.782  15.108   3.098
23948W        W90357  22.282  16.047   3.974
23949W        W90358  39.099  44.951  10.199
23950W        W90359  27.011  25.237  12.135
23951W        W90360  17.611  31.996  12.379
23952W        W90361  31.055   7.487   4.572
23953W        W90362  11.441   4.963  12.146
23954W        W90363  36.282  10.694   0.489
23955W        W90364  41.649  18.861   5.156
23956W        W90365  43.579  17.129  12.503
23957W        W90366   5.938  25.338   1.833
23958W        W90367  26.894  22.262   1.253
23959W        W90368   4.737  36.162  12.059
23960W        W90369  37.006  32.507  11.609
23961W        W90370  24.466  36.022  11.235
23962W        W90371   6.897  15.149  12.803
23963W        W90372  14.363   8.258  14.865
23964W        W90373  20.150  36.415  10.946
23965W        W90374  18.785  20.166   0.646
23966W        W90375   8.576   9.161   0.830
23967W        W90376  16.152  12.815   0.922
23968W        W90377  38.270  42.428  13.423
23969W        W90378  10.542  27.145   0.656
23970W        W90379  36.480   3.823  10.727
23971W        W90380   1.979   2.337   3.565
23972W        W90381   5.315  28.225   0.515
23973W        W90382  23.646  15.546  11.895
23974W        W90383  37.941  42.937   0.897
23975W        W90384   5.455  19.518   2.591
23976W        W90385  30.508  34.660   4.466
23977W        W90386  12.532  44.387  14.855
23978W        W90387  32.398  32.806   1.665
23979W        W90388  44.667  39.068   0.903
23980W        W90389  17.268  28.141   0.428
23981W        W90390  21.714  42.980   3.280
23982W        W90391   3.178  15.804  10.813
23983W        W90392   4.296   4.067  10.750
23984W        W90393  31.284  38.361   0.786
23985W        W90394  24.077  25.523   2.839
23986W        W90395  13.710  41.050   3.165
23987W        W90396  12.926   8.572  12.379
23988W        W90397  19.739  18.192   3.307
23989W        W90398   9.271  29.234  11.137
23990W        W90399  29.153   7.815   0.815
23991W        W90400  38.549   8.223   4.534
23992W        W90401  13.628  11.787  11.215
23993W        W90402  24.792  32.864  12.350
23994W        W90403  28.930  21.124   3.385
23995W        W90404  26.097   0.836  12.810
23996W        W90405   8.291   6.855   3.077
23997W        W90406  32.922   4.382  13.091
23998W        W90407  13.861   9.306   0.896
23999W        W90408   9.833  25.760  11.418
24000W        W90409  32.662  22.056  12.052
24001W        W90410  16.366  24.665  14.308
24002W        W90411   2.035   5.212   3.448
24003W        W90412   3.762  29.710   3.271
24004W        W90413  44.424  10.054  12.417
24005W        W90414   8.960  33.394   0.856
24006W        W90415   7.706  35.080   0.190
24007W        W90416   5.793  12.248  10.339
24008W        W90417   1.817  17.772   3.215
24009W        W90418  35.120  18.125   0.608
24010W        W90419  42.053  25.954   1.112
24011W        W90420   5.010  34.448  11.598
24012W        W90421   3.087  10.620  13.100
24013W        W90422  15.048  17.574  13.041
24014W        W90423   8.074  33.946   4.552
24015W        W90424   0.724  20.597  10.931
24016W        W90425   9.871  33.935   1.607
24017W        W90426   4.798  25.548   3.677
24018W        W90427  32.455  40.499  11.879
24019W        W90428  40.090  38.864   4.972
24020W        W90429   7.544  28.068  13.899
24021W        W90430  35.312  30.615   4.555
24022W        W90431  15.600  15.744   5.028
24023W        W90432  13.395   8.900   3.634
24024W        W90433   0.298   4.710   0.458
24025W        W90434  17.868  27.036  11.929
24026W        W90435  31.627  23.270   4.508
24027W        W90436  24.005  23.708  12.008
24028W        W90437   5.960   1.386   0.241
24029W        W90438   0.239  42.682  12.432
24030W        W90439  20.037  40.573   0.384
24031W        W90440  37.879  39.387   4.512
24032W        W90441   2.353   7.952  11.408
24033W        W90442   6.571  26.482   0.711
24034W        W90443  25.618  24.347  10.203
24035W        W90444  16.755  32.301   0.499
24036W        W90445  38.095  33.734  11.069
24037W        W90446  15.046  39.953   1.800
24038W        W90447  33.556  25.601   4.710
24039W        W90448  27.584  41.003   1.136
24040W        W90449  32.426  24.156   3.915
24041W        W90450  32.207   9.251   0.223
24042W        W90451   8.169  33.505   3.586
24043W        W90452  16.566  25.570  11.252
24044W        W90453  29.534  44.121  11.048
24045W        W90454   2.465  30.436   4.112
24046W        W90455   3.967  13.522   4.950
24047W        W90456   5.892  25.003  14.389
24048W        W90457  18.826  43.987   1.822
24049W        W90458  29.505  26.635  12.841
24050W        W90459  33.945  31.454  11.680
24051W        W90460  26.000  23.165  11.690
24052W        W90461   6.818  39.422  12.430
24053W        W90462  27.711   3.821   4.627
24054W        W90463  33.654  39.615  12.808
24055W        W90464  40.497  22.089  14.781
24056W        W90465  43.550  30.861  13.496
24057W        W90466   8.764  21.253  10.520
24058W        W90467   6.058  27.117  13.048
24059W        W90468  34.203  12.183  14.895
24060W        W90469  40.395  44.736  14.002
24061W        W90470  30.027  28.428  12.452
24062W        W90471   5.421   1.680   3.526
24063W        W90472   0.951  33.930  12.116
24064W        W90473  17.727  44.472  11.155
24065W        W90474  12.746  21.304  11.160
24066W        W90475  32.659  34.980  10.809
24067W        W90476  34.988   5.204   0.785
24068W        W90477  25.452  10.135   2.932
24069W        W90478  21.037   0.455  14.526
24070W        W90479  22.345  44.440  13.965
24071W        W90480  26.800  36.367   3.944
24072W        W90481   0.485  35.645   0.806
24073W        W90482  18.346  14.197  12.009
24074W        W90483  41.551  33.594   4.016
24075W        W90484   2.403  24.407  12.886
24076W        W90485  40.604  18.731   1.810
24077W        W90486  32.141   5.925  11.930
24078W        W90487  38.572  35.415   3.170
24079W        W90488  28.852  37.068   5.026
24080W        W90489  38.755  42.566   2.543
24081W        W90490  31.557  33.228  10.626
24082W        W90491  22.141  21.546  12.410
24083W        W90492  28.404  24.230  14.560
24084W        W90493  21.718   6.268   3.425
24085W        W90494  43.251   4.405  11.441
24086W        W90495   2.547  30.357  14.547
24087W        W90496  13.310  29.147  10.554
24088W        W90497   6.776  28.624   4.211
24089W        W90498  18.978   6.342  13.045
24090W        W90499  37.047  16.029  13.048
24091W        W90500  20.406   1.975  13.067
24092W        W90501  30.160  12.864  13.426
24093W        W90502  19.538   1.242  11.989
24094W        W90503  34.025  11.119  10.508
24095W        W90504  35.478  37.903   0.172
24096W        W90505  11.645   6.372   1.722
24097W        W90506  15.654   1.565  14.318
24098W        W90507  19.730  37.669   3.440
24099W        W90508  29.170  29.608   4.617
24100W        W90509  27.167   8.229   3.647
24101W        W90510  30.619  36.079  14.056
24102W        W90511  38.052  24.505  12.342
24103W        W90512  16.120  20.162  13.281
24104W        W90513  25.226  31.020   2.134
24105W        W90514  40.629   1.668  11.476
24106W        W90515  23.601  37.024   0.970
24107W        W90516  35.787  22.806   4.613
24108W        W90517  23.753  11.243   1.757
24109W        W90518  15.031   3.422   5.133
24110W        W90519  18.146   9.852  13.487
24111W        W90520  42.222  14.938   0.807
24112W        W90521  40.074   9.082   5.445
24113W        W90522   9.266  29.643   1.337
24114W        W90523  15.206  17.212  13.487
24115W        W90524  31.121  16.007   0.325
24116W        W90525   4.874  33.109   1.359
24117W        W90526  44.700  25.274  10.570
24118W        W90527   6.451  18.579  13.946
24119W        W90528   2.764   0.530   1.739
24120W        W90529  30.033   1.707   0.429
24121W        W90530   7.180  40.020  11.073
24122W        W90531  25.606  31.138  11.853
24123W        W90532  10.715  24.204  12.326
24124W        W90533   3.748  29.027  13.018
24125W        W90534  26.684  28.961  13.898
24126W        W90535   7.636  30.593   4.108
24127W        W90536  43.096  20.453  10.526
24128W        W90537  10.230   9.275  13.443
24129W        W90538  37.587   1.774  11.720
24130W        W90539  13.128   7.830   0.530
24131W        W90540   8.422  37.588  10.699
24132W        W90541  41.601  32.903  13.386
24133W        W90542   1.802   0.076  12.622
24134W        W90543  23.543  44.511  13.342
24135W        W90544  22.134   5.538  10.515
24136W        W90545  10.704   6.724   0.510
24137W        W90546  28.228  39.246  13.343
24138W        W90547  34.617  30.047   1.496
24139W        W90548  30.616   9.294   3.273
24140W        W90549   0.447   6.886   3.161
24141W        W90550   8.244  22.611   3.325
24142W        W90551  33.579   0.209   2.404
24143W        W90552  17.784  41.769  12.849
24144W        W90553  44.561  16.758  12.846
24145W        W90554   0.534  14.041   4.969
24146W        W90555   0.824  22.836   1.818
24147W        W90556  32.536  14.353   1.832
24148W        W90557  21.195  15.282  14.004
24149W        W90558  22.058  28.704  11.086
24150W        W90559  23.059  44.000   1.902
24151W        W90560  13.281   3.347  11.576
24152W        W90561  13.445  40.944  12.062
24153W        W90562  21.367  11.750  10.724
24154W        W90563   7.325  20.471  13.599
24155W        W90564   3.398  25.451  12.398
24156W        W90565  14.157  37.773   2.328
24157W        W90566  19.697  38.463   3.230
24158W        W90567  44.013  11.218  11.648
24159W        W90568   2.652   9.199  11.263
24160W        W90569   7.645  23.278  11.226
24161W        W90570   3.485  32.346  13.056
24162W        W90571  11.188   9.460   4.586
24163W        W90572  28.110  36.794   3.562
24164W        W90573  11.908  44.293  12.383
24165W        W90574  24.497  33.126   1.380
24166W        W90575  31.629  11.486   3.139
24167W        W90576  13.292  38.610   3.632
24168W        W90577  44.142  27.511   3.588
24169W        W90578  40.090  34.914   4.936
24170W        W90579  41.253  11.750  12.399
24171W        W90580   4.192  24.962   1.077
24172W        W90581  24.898  15.859   4.902
24173W        W90582  17.067  14.517  11.502
24174W        W90583  44.412  30.674  13.686
24175W        W90584  19.792  22.709   0.680
24176W        W90585   3.056  36.113  11.358
24177W        W90586  16.252  21.134   1.572
24178W        W90587  34.079  29.573  13.352
24179W        W90588   0.706  27.604  13.990
24180W        W90589  32.719  30.660   1.939
24181W        W90590  22.538  13.205   0.486
24182W        W90591  17.336  36.514  14.521
24183W        W90592  25.947   0.870  11.830
24184W        W90593   1.720  19.594  12.600
24185W        W90594  37.740  13.765  14.802
24186W        W90595   0.898  29.384   1.774
24187W        W90596  39.763  43.899   0.748
24188W        W90597  29.721  10.580   0.335
24189W        W90598  29.467  25.163  13.849
24190W        W90599  19.132   1.765   1.832
24191W        W90600  39.710  30.359  14.401
24192W        W90601  21.733  19.701   1.825
24193W        W90602  16.355  38.812   5.401
24194W        W90603   4.749  36.136  13.486
24195W        W90604  42.472  34.691  12.098
24196W        W90605  33.331   8.799  11.484
24197W        W90606   8.862  18.502  14.445
24198W        W90607  43.759  36.819  14.962
24199W        W90608  22.764   8.565   1.464
24200W        W90609  18.647  32.168   2.261
24201W        W90610   0.491  40.929  12.325
24202W        W90611  41.027  31.445  12.408
24203W        W90612  27.580  14.831   3.616
24204W        W90613  26.161  10.535   4.201
24205W        W90614  38.084  19.741  12.462
24206W        W90615  21.622   0.270   3.792
24207W        W90616   2.814   8.482   1.995
24208W        W90617  15.743   9.643   0.010
24209W        W90618   7.781  22.397  12.062
24210W        W90619  44.778   9.552   2.139
24211W        W90620  30.548  32.739   2.787
24212W        W90621  19.656  19.280  12.901
24213W        W90622  27.715  10.881   4.112
24214W        W90623  40.017   3.812  13.331
24215W        W90624  12.498  15.931  10.298
24216W        W90625  12.853   5.808   1.841
24217W        W90626   9.554   4.815  12.521
24218W        W90627  20.163   1.539   3.207
24219W        W90628   2.340   8.743  11.587
24220W        W90629  42.183   8.295  13.757
24221W        W90630  37.609  30.395  11.483
24222W        W90631  14.815  32.616   3.396
24223W        W90632  15.016  35.995  14.936
24224W        W90633   2.002  18.241   3.311
24225W        W90634  40.924   4.989   1.643
24226W        W90635  38.782  12.109   2.349
24227W        W90636  21.764  43.825  10.687
24228W        W90637   9.753  43.926  14.503
24229W        W90638  29.058  34.361  14.906
24230W        W90639  26.441  28.505  13.842
24231W        W90640  41.877  13.105  13.321
24232W        W90641  44.724  35.075  14.700
24233W        W90642  28.905  38.325  12.086
24234W        W90643  17.539  23.812   4.692
24235W        W90644  34.398  13.283   4.857
24236W        W90645  44.765  43.014   4.523
24237W        W90646   6.013  30.192  13.845
24238W        W90647  17.118  29.185   1.121
24239W        W90648  16.795  37.842  12.071
24240W        W90649   6.123  26.536   3.267
24241W        W90650  27.513  34.478   3.187
24242W        W90651  33.456  20.767   3.040
24243W        W90652  17.374  15.590   1.265
24244W        W90653   1.436  35.435   3.796
24245W        W90654  42.461   2.084  12.510
24246W        W90655   4.291  15.834  14.881
24247W        W90656  19.214  32.891  14.994
24248W        W90657  14.029   7.685   1.395
24249W        W90658  33.008  23.605  11.359
24250W        W90659  40.486  17.859  11.660
24251W        W90660  44.924  29.198   4.059
24252W        W90661  34.674  34.372   3.658
24253W        W90662  23.510  26.050   2.248
24254W        W90663   5.417  43.038   2.850
24255W        W90664   5.977  22.679   3.662
24256W        W90665  25.632  33.559  12.748
24257W        W90666   8.866  24.130  13.631
24258W        W90667  41.068   6.321  11.407
24259W        W90668  38.577   5.931   3.280
24260W        W90669  44.295   6.786  11.585
24261W        W90670  36.959  28.294  14.432
24262W        W90671   5.056  34.893  14.649
24263W        W90672   7.130  30.671   4.104
24264W        W90673  43.505  21.488   0.009
24265W        W90674  15.371  14.244   2.618
24266W        W90675   1.254  35.552  11.521
24267W        W90676  38.610  23.813  13.291
24268W        W90677  32.538  33.911  13.650
24269W        W90678  33.927  26.382  12.873
24270W        W90679  26.594  39.772   1.484
24271W        W90680  42.715  33.969   0.462
24272W        W90681  34.389  35.755   2.969
24273W        W90682  44.969  35.955   3.613
24274W        W90683  27.595  36.837   3.757
24275W        W90684  26.925  44.639  12.026
24276W        W90685   1.160  37.508   1.837
24277W        W90686  31.527  33.403   3.737
24278W        W90687  42.671   8.889  12.991
24279W        W90688  37.857  38.604  12.474
24280W        W90689  19.115   1.374  11.710
24281W        W90690  43.278  26.684   2.860
24282W        W90691  32.990   8.214  11.870
24283W        W90692  43.442  11.096  12.531
24284W        W90693  12.186   8.596  14.841
24285W        W90694  23.657   0.012   0.759
24286W        W90695  19.339  25.573   2.744
24287W        W90696  29.405   3.271  11.210
24288W        W90697   3.480  16.821   0.874
24289W        W90698  22.863  16.225   2.118
24290W        W90699  39.023  44.730  13.002
24291W        W90700  37.748  26.843   1.339
24292W        W90701   3.883  27.774  12.587
24293W        W90702  44.813  16.688  13.273
24294W        W90703   8.326  28.607   0.397
24295W        W90704  15.222  33.606   1.531
24296W        W90705   2.311  36.870   3.747
24297W        W90706  24.463  34.872  12.084
24298W        W90707  21.725  15.778  12.292
24299W        W90708  12.149  25.114   0.139
24300W        W90709  29.007  19.462   2.739
24301W        W90710  25.994   5.229  13.534
24302W        W90711  44.217  33.807   2.894
24303W        W90712   1.739  42.245  11.571
24304W        W90713  17.250  28.591  10.948
24305W        W90714  29.855  33.118   1.099
24306W        W90715  10.348  38.016  12.382
24307W        W90716   4.293  20.260  12.094
24308W        W90717  28.357   5.145   3.945
24309W        W90718  19.239  27.050   3.536
24310W        W90719  30.300  11.308   1.429
24311W        W90720  41.284  37.428  12.129
24312W        W90721  39.941  28.420  12.426
24313W        W90722  26.330  26.646  12.861
24314W        W90723  28.009  18.891   1.151
24315W        W90724   5.171  12.011  11.252
24316W        W90725  17.679  15.986   1.439
24317W        W90726  26.550  33.573  14.190
24318W        W90727  13.568  11.756  12.953
24319W        W90728  13.315   7.415  13.798
24320W        W90729  24.018  25.180  11.708
24321W        W90730  30.443  43.341   0.117
24322W        W90731   4.940  20.117   3.288
24323W        W90732   0.797  43.386   3.239
24324W        W90733  10.431  28.266  14.939
24325W        W90734  26.581  37.206  12.959
24326W        W90735  28.114  37.071  10.673
24327W        W90736  12.642  19.056  13.329
24328W        W90737   3.865  20.396   3.343
24329W        W90738  38.082  36.735  14.416
24330W        W90739  23.593   2.466  10.496
24331W        W90740  20.118   8.727  13.045
24332W        W90741   5.364  32.382  13.556
24333W        W90742  40.713  35.498   1.846
24334W        W90743  22.856   6.870  12.611
24335W        W90744  37.286  40.430   4.106
24336W        W90745  25.622  14.664   4.212
24337W        W90746  37.888  33.239  11.742
24338W        W90747   6.290  22.669  11.607
24339W        W90748  32.391   9.293   1.137
24340W        W90749  15.677   6.934   2.300
24341W        W90750   3.912  33.109  13.013
24342W        W90751  31.958  36.168   1.856
24343W        W90752  24.555  10.245   0.579
24344W        W90753   9.816  31.346   4.644
24345W        W90754  24.966   0.891   2.642
24346W        W90755   8.122  29.798  12.419
24347W        W90756  34.836   6.493  11.068
24348W        W90757  34.406   5.166   3.738
24349W        W90758  26.531  13.120   0.458
24350W        W90759  24.429  36.458   4.138
24351W        W90760  14.157   5.927  10.648
24352W        W90761   5.010  35.195  12.928
24353W        W90762   3.377  19.755   4.128
24354W        W90763  23.731  44.051   4.066
24355W        W90764  34.341   5.391   4.192
24356W        W90765  11.903  23.961  10.284
24357W        W90766   5.116  24.880   1.657
24358W        W90767  43.546  11.887  11.066
24359W        W90768  29.019  38.934  11.052
24360W        W90769  36.317  35.304  13.838
24361W        W90770  27.007   9.317   3.170
24362W        W90771   5.289  34.670  13.396
24363W        W90772  24.068  17.505   0.250
24364W        W90773  27.170   7.962   0.879
24365W        W90774  28.128  29.381   1.542
24366W        W90775  41.736  41.643   5.030
24367W        W90776  24.513  11.311   2.228
24368W        W90777  28.228   2.038  13.318
24369W        W90778   1.971  28.449   0.885
24370W        W90779  15.852  40.152  12.932
24371W        W90780  20.073  30.591  13.314
24372W        W90781  25.695   6.857  14.118
24373W        W90782   9.634  19.285   2.313
24374W        W90783   0.310  20.654  12.017
24375W        W90784  17.177   3.858   3.597
24376W        W90785   3.437  23.765  13.574
24377W        W90786  26.336   9.187  14.023
24378W        W90787  41.361  37.812   0.466
24379W        W90788   0.455  24.243  11.960
24380W        W90789  39.104   3.520  12.664
24381W        W90790  14.253  24.568  13.544
24382W        W90791  15.283   0.927  13.861
24383W        W90792  22.668  34.370  11.607
24384W        W90793  17.071   2.686  13.994
24385W        W90794  37.789  40.357  11.145
24386W        W90795  35.637  13.426  12.343
24387W        W90796  38.285  34.831  14.118
24388W        W90797  23.365  33.478   0.120
24389W        W90798  13.785  30.211  11.525
24390W        W90799  41.803  12.308  14.028
24391W        W90800  30.085  18.095   4.495
24392W        W90801  16.654  20.947   1.874
24393W        W90802  22.522  25.509   3.244
24394W        W90803  14.740  31.189  11.260
24395W        W90804  13.376  23.119  13.050
24396W        W90805  22.151  16.538  13.535
24397W        W90806  40.303  36.939   2.774
24398W        W90807  29.978  12.844  11.124
24399W        W90808  10.853   4.228  14.434
24400W        W90809  25.235  17.613   2.166
24401W        W90810  33.956   5.379   2.065
24402W        W90811  14.422  22.697   4.125
24403W        W90812  41.342   5.294   1.915
24404W        W90813   8.787  24.847  14.860
24405W        W90814  32.830  23.617   4.916
24406W        W90815  15.078  18.599   2.676
24407W        W90816  34.876  39.902   4.145
24408W        W90817   1.928  37.599  13.471
24409W        W90818  16.115  13.766  13.400
24410W        W90819  16.305  12.370   2.738
24411W        W90820   5.063  12.788   4.588
24412W        W90821   7.364  36.192  13.896
24413W        W90822  11.243  22.697  10.595
24414W        W90823  41.349   4.281   1.939
24415W        W90824   9.098  17.296  12.859
24416W        W90825  19.051  43.778   2.850
24417W        W90826   6.218  42.905   0.939
24418W        W90827  42.402  22.299  13.004
24419W        W90828  18.852  24.542  14.166
24420W        W90829   9.419   6.417   2.417
24421W        W90830   8.809  42.994  10.217
24422W        W90831   9.785   9.286   4.533
24423W        W90832   4.656   2.740   3.839
24424W        W90833  42.488  34.850   1.818
24425W        W90834   3.499   3.939  13.930
24426W        W90835  30.793  43.173   1.363
24427W        W90836  15.495   5.700  12.913
24428W        W90837  17.133   5.181  11.157
24429W        W90838  37.488  31.864  11.170
24430W        W90839  43.593  16.357  12.075
24431W        W90840  39.328  25.539   1.398
24432W        W90841  33.664   3.766   0.824
24433W        W90842  18.550   0.232  14.109
24434W        W90843  20.530  26.170   2.747
24435W        W90844  14.110  11.113  11.187
24436W        W90845  40.943  17.690  12.477
24437W        W90846  13.411  10.142   3.748
24438W        W90847   8.188  13.159  12.625
24439W        W90848  33.497   1.190   2.282
24440W        W90849  30.621  20.801  13.539
24441W        W90850   9.844  25.091   3.098
24442W        W90851  18.100  12.699   2.226
24443W        W90852  25.549  15.900   1.412
24444W        W90853  37.040  37.524  12.529
24445W        W90854  18.173   8.813   1.993
24446W        W90855  33.488  16.279  14.927
24447W        W90856  33.953   2.105   5.186
24448W        W90857  27.891  19.483   0.692
24449W        W90858  43.155  22.397   3.838
24450W        W90859  33.057  41.261   2.765
24451W        W90860  22.056  27.142  13.210
24452W        W90861  26.234  29.632  14.436
24453W        W90862  42.348  17.134   0.496
24454W        W90863  18.762  20.035  13.827
24455W        W90864  19.762  36.015   2.137
24456W        W90865  44.677  26.155  11.462
24457W        W90866  40.652  38.399   1.870
24458W        W90867  35.123   9.958   2.666
24459W        W90868   2.335  43.745  12.573
24460W        W90869  31.514  10.772  11.848
24461W        W90870  33.878  34.007   3.854
24462W        W90871  38.803  31.825   3.207
24463W        W90872  31.197  18.469   1.496
24464W        W90873  33.353  36.581   2.160
24465W        W90874  13.724  36.717  10.210
24466W        W90875  17.977  35.688   1.651
24467W        W90876  15.162  41.603  11.534
24468W        W90877  40.876  42.278  11.987
24469W        W90878  41.541  12.763   0.791
24470W        W90879  18.938   1.295   2.680
24471W        W90880  14.780  17.826   1.177
24472W        W90881   6.973  12.768  14.896
24473W        W90882  26.215   4.177  14.326
24474W        W90883  24.646  23.053   0.963
24475W        W90884  10.163  27.283  14.672
24476W        W90885  36.741  16.743  10.051
24477W        W90886   5.480  15.434   0.965
24478W        W90887  32.539   5.559   2.918
24479W        W90888   0.796  40.767   0.884
24480W        W90889  23.623  40.407  11.844
24481W        W90890   2.419  13.063   1.193
24482W        W90891  14.092  39.772  11.409
24483W        W90892  27.699  40.855   3.194
24484W        W90893   1.001   5.355   0.361
24485W        W90894  35.545  35.606   0.344
24486W        W90895  39.026  31.991  13.059
24487W        W90896   6.884  21.011  11.559
24488W        W90897  11.776  43.247  12.121
24489W        W90898   6.211  12.572   2.757
24490W        W90899  13.291  33.468  12.799
24491W        W90900  12.696  21.533  10.672
24492W        W90901   3.448   4.116   4.634
24493W        W90902  37.347  13.552  13.965
24494W        W90903  33.154  38.399  11.830
24495W        W90904  34.801  11.852  12.487
24496W        W90905  24.552  14.190   4.526
24497W        W90906  14.817  15.552   0.069
24498W        W90907   2.663  43.503  13.571
24499W        W90908  22.116  31.054   4.459
24500W        W90909  31.111  35.313   0.019
24501W        W90910  29.172   7.619   3.129
24502W        W90911  27.121   7.108  14.443
24503W        W90912   0.341  43.780   1.716
24504W        W90913  34.585  13.983  13.843
24505W        W90914  13.609   2.134  14.904
24506W        W90915   1.177  26.431   4.609
24507W        W90916  23.826  17.214  12.271
24508W        W90917   8.141  26.670  11.894
24509W        W90918  34.630  27.613   3.051
24510W        W90919  19.822  23.522   3.129
24511W        W90920   0.985  36.787   3.299
24512W        W90921  19.851  36.284  14.553
24513W        W90922  19.256  14.607   0.875
24514W        W90923  15.732  22.230  11.747
24515W        W90924   9.387  41.722   3.324
24516W        W90925  44.555   9.942   1.717
24517W        W90926   4.028  22.180  13.298
24518W        W90927  37.878  42.248   4.595
24519W        W90928  16.698  32.315  12.100
24520W        W90929  42.197  43.090  12.593
24521W        W90930  12.646  30.730  13.476
24522W        W90931  18.019  33.952   1.054
24523W        W90932   8.446  30.199   5.113
24524W        W90933  19.115  42.021  11.550
24525W        W90934  22.062  15.698  13.098
24526W        W90935  25.103   4.133  12.997
24527W        W90936  11.523  44.744   2.643
24528W        W90937  22.066  26.730   2.267
24529W        W90938  23.512  13.725   2.341
24530W        W90939  30.464   2.542   4.079
24531W        W90940  24.513  37.236  14.524
24532W        W90941  10.321   8.128   3.249
24533W        W90942  32.879  13.160  11.643
24534W        W90943  33.373  31.472   0.333
24535W        W90944  34.085   6.804   3.184
24536W        W90945  35.097  17.057   9.807
24537W        W90946  33.597  36.478  11.278
24538W        W90947  24.687   1.268  11.508
24539W        W90948  20.118   1.985   2.946
24540W        W90949   1.423  35.899   3.578
24541W        W90950   1.837   8.629  12.297
24542W        W90951  15.790   6.052   0.394
24543W        W90952  28.569   3.241  11.528
24544W        W90953  26.695  32.575   3.905
24545W        W90954  19.681  24.427  14.300
24546W        W90955   3.140  31.616   3.861
24547W        W90956  31.584  23.092  13.911
24548W        W90957   5.768  30.423  13.022
24549W        W90958   0.953   9.418   5.012
24550W        W90959  19.313  31.038  13.055
24551W        W90960  31.693  35.005   1.371
24552W        W90961   8.842  27.173  14.506
24553W        W90962  30.496  41.802   2.723
24554W        W90963  33.960   8.258  10.381
24555W        W90964   4.371   9.352  11.346
24556W        W90965   0.473  34.206   4.106
24557W        W90966  14.746  16.533  10.561
24558W        W90967  24.024   4.778   4.152
24559W        W90968  10.967  42.333   0.908
24560W        W90969  27.265  17.760   2.388
24561W        W90970   7.823   4.507  13.857
24562W        W90971  16.720  44.223   2.771
24563W        W90972  22.136  23.010  10.649
24564W        W90973  12.403  19.966  11.173
24565W        W90974   3.776  37.565  14.304
24566W        W90975  25.646  27.037   0.159
24567W        W90976  44.891  19.267  12.593
24568W        W90977  17.162  27.103   0.293
24569W        W90978  15.342   8.292   4.413
24570W        W90979  15.771  12.756   1.287
24571W        W90980  13.268  35.006   3.381
24572W        W90981  22.795   0.259  12.091
24573W        W90982   0.456  41.447  13.802
24574W        W90983  22.045  14.306  14.896
24575W        W90984  36.056  14.373  11.272
24576W        W90985  41.651  38.725  11.599
24577W        W90986  35.530  17.348   2.260
24578W        W90987  34.606  25.571  13.649
24579W        W90988  37.060   7.166  12.172
24580W        W90989  11.365  17.037   3.804
24581W        W90990  11.969  31.577  13.471
24582W        W90991  12.663  23.998  13.942
24583W        W90992  24.668  21.609   0.796
24584W        W90993  29.020  22.022  13.930
24585W        W90994   7.373  37.393   4.843
24586W        W90995  12.527  26.054  11.198
24587W        W90996  26.450  36.878  11.612
24588W        W90997   3.124  18.730   5.214
24589W        W90998  31.481  26.747   2.656
24590W        W90999   9.822  12.202  14.412
24591W        W91000  15.084  30.395   2.168
24592W        W91001  36.562  18.776   3.243
24593W        W91002   3.759  18.016  10.568
24594W        W91003  14.183  36.766   1.455
24595W        W91004  23.729   6.779   4.091
24596W        W91005  35.826   0.791  12.438
24597W        W91006  29.817  34.501  11.200
24598W        W91007  10.852   1.185  13.885
24599W        W91008  23.851  27.286  12.399
24600W        W91009  30.031  12.245  11.021
24601W        W91010  35.053  44.760   1.350
24602W        W91011  40.535  37.487   4.529
24603W        W91012   0.970  21.029   2.397
24604W        W91013  24.259  27.902  14.801
24605W        W91014  23.392   7.437   0.762
24606W        W91015  24.569  44.211  10.038
24607W        W91016  22.254  33.394   3.121
24608W        W91017  19.156  37.993   3.663
24609W        W91018   1.750   0.847  13.776
24610W        W91019  20.143  17.013  14.332
24611W        W91020  16.353  19.084   3.752
24612W        W91021  26.239  27.308  14.363
24613W        W91022   0.343  36.489   0.242
24614W        W91023  41.610  42.535  12.898
24615W        W91024  40.936  34.851  12.878
24616W        W91025  38.089  23.670  12.072
24617W        W91026  31.260  42.316   3.580
24618W        W91027  18.650  11.079   2.773
24619W        W91028  15.367  21.920   3.113
24620W        W91029  21.224  39.988   1.330
24621W        W91030  15.257   9.608   2.112
24622W        W91031  13.903  12.049  13.861
24623W        W91032  39.493  36.381   0.955
24624W        W91033  12.860  36.599  10.249
24625W        W91034  23.307  18.014  12.441
24626W        W91035  40.368  12.157  11.565
24627W        W91036  32.518   3.798   2.231
24628W        W91037  44.502  33.134   0.032
24629W        W91038  31.578  40.380  13.869
24630W        W91039  37.821  16.544   2.615
24631W        W91040   4.878   4.382  10.299
24632W        W91041  17.484  24.522   1.413
24633W        W91042  25.877  36.305  10.249
24634W        W91043  29.395  22.289   4.600
24635W        W91044   1.666   6.825  13.436
24636W        W91045  26.064  10.346  11.616
24637W        W91046  23.716  35.851  12.597
24638W        W91047  22.400  20.557   1.907
24639W        W91048  43.089  28.926   4.133
24640W        W91049  40.339  33.475   0.091
24641W        W91050  39.688   9.729  11.449
24642W        W91051  24.186  34.490   3.147
24643W        W91052  17.666  33.213  12.063
24644W        W91053  44.363  29.048  13.597
24645W        W91054  25.157  24.199   4.585
24646W        W91055  20.288  13.703  12.382
24647W        W91056   3.447  16.223   2.228
24648W        W91057   5.878  26.720   2.863
24649W        W91058  28.962  32.598  10.567
24650W        W91059  16.046  36.003  10.800
24651W        W91060  18.645   8.799   4.938
24652W        W91061  22.016  31.929  11.182
24653W        W91062   1.407   2.880   3.769
24654W        W91063   3.491  15.925  10.413
24655W        W91064  29.337  36.868   4.334
24656W        W91065   8.672  40.018  13.972
24657W        W91066   8.142  39.958  13.973
24658W        W91067  33.534  38.337  12.171
24659W        W91068  28.899  38.527   2.711
24660W        W91069  26.992  43.353   3.238
24661W        W91070   0.066   8.970   9.853
24662W        W91071  12.613  30.609  11.980
24663W        W91072  41.357  23.966   0.201
24664W        W91073  26.607  24.638   1.987
24665W        W91074  38.525  28.382   0.884
24666W        W91075  22.957   8.856   3.938
24667W        W91076  11.981  40.022   4.526
24668W        W91077  18.379  35.891   0.289
24669W        W91078  42.532  31.148  13.512
24670W        W91079   8.359  27.458  14.673
24671W        W91080  42.231  13.584   3.804
24672W        W91081  28.944  14.454  10.713
24673W        W91082   0.831   7.147   2.307
24674W        W91083  21.645  37.634   0.222
24675W        W91084  26.633  28.745  13.391
24676W        W91085  38.494   7.900  11.313
24677W        W91086  11.828  27.167  14.301
24678W        W91087   6.277  32.741  13.474
24679W        W91088   5.893  23.163   0.466
24680W        W91089  30.274  41.255  14.747
24681W        W91090   4.283   1.019   1.388
24682W        W91091  22.750  37.969  12.113
24683W        W91092  14.192  19.498   2.072
24684W        W91093  29.652   7.818   4.568
24685W        W91094  34.410  26.061   4.489
24686W        W91095  24.264  11.128   1.784
24687W        W91096  36.326  42.062  11.197
24688W        W91097   1.063  19.027  12.311
24689W        W91098  12.671  21.972  13.090
24690W        W91099  43.425  31.584   2.868
24691W        W91100  30.692   0.884   3.178
24692W        W91101  41.465  30.303   4.538
24693W        W91102   0.195   3.252  12.536
24694W        W91103  24.431  38.352  12.128
24695W        W91104  41.843   0.089   3.562
24696W        W91105  41.243   4.452   2.448
24697W        W91106  13.659  24.684  11.789
24698W        W91107  16.888  30.972   4.429
24699W        W91108  41.464   5.463   0.411
24700W        W91109   5.467  34.845   1.205
24701W        W91110  21.012  11.790  14.482
24702W        W91111   1.555  21.491   3.704
24703W        W91112  28.865  17.333   2.385
24704W        W91113  35.103  39.936   1.622
24705W        W91114  16.609  35.756  12.454
24706W        W91115  32.532  43.527   3.575
24707W        W91116  28.077  28.434  14.402
24708W        W91117  34.646  24.506  13.552
24709W        W91118   9.869  13.080  12.967
24710W        W91119  28.845  11.285  14.912
24711W        W91120   3.917  12.120  14.409
24712W        W91121  35.075  15.803   0.785
24713W        W91122   2.313  32.081   4.144
24714W        W91123   6.335  32.212  11.240
24715W        W91124  44.693  32.498  13.631
24716W        W91125   1.464  42.289  13.911
24717W        W91126  32.484   6.580   1.731
24718W        W91127   2.672  17.459   0.927
24719W        W91128  35.763   9.969  14.030
24720W        W91129  23.611  19.996  14.987
24721W        W91130   8.167  37.291   3.269
24722W        W91131   0.866  24.495  12.125
24723W        W91132   8.276  37.139   1.990
24724W        W91133   1.893  29.021   1.723
24725W        W91134  29.063   8.759  12.942
24726W        W91135  24.228  33.345   4.537
24727W        W91136  20.798  28.132  11.092
24728W        W91137  12.215  40.219  12.875
24729W        W91138  26.166  21.230  11.223
24730W        W91139  20.847  44.167   3.850
24731W        W91140  23.520  21.154   1.356
24732W        W91141  37.837  23.740  11.165
24733W        W91142  36.840  28.564   4.099
24734W        W91143  33.335  30.597  11.156
24735W        W91144   1.273  41.009  10.863
24736W        W91145  37.062  21.230   2.816
24737W        W91146  28.691   6.849   3.637
24738W        W91147   0.381  38.876   3.841
24739W        W91148  32.853   9.235   1.412
24740W        W91149  32.388   5.085   0.652
24741W        W91150  15.662   9.150  10.927
24742W        W91151   8.296   3.657   0.286
24743W        W91152  23.503  24.418  13.089
24744W        W91153  37.090  34.815   1.945
24745W        W91154  31.646  14.360  11.219
24746W        W91155   2.188  43.760  10.994
24747W        W91156   9.209  35.073   4.502
24748W        W91157  34.422   1.023  10.660
24749W        W91158   5.841  12.187   2.786
24750W        W91159  12.369  11.108   0.690
24751W        W91160  40.261  17.917  14.430
24752W        W91161  22.146  32.112   0.800
24753W        W91162  11.230   6.942  12.652
24754W        W91163  39.722  34.964  13.054
24755W        W91164  40.005  40.925  13.868
24756W        W91165  43.208  42.052   2.809
24757W        W91166  33.182   6.304  11.189
24758W        W91167   2.689   9.427   4.557
24759W        W91168   2.703  23.221   3.929
24760W        W91169   1.552   3.440  12.447
24761W        W91170  12.059  28.681  11.617
24762W        W91171  25.545   6.905  13.604
24763W        W91172  15.814  25.196  11.203
24764W        W91173  43.803   6.946   1.809
24765W        W91174  34.980  11.405   2.794
24766W        W91175   7.675  32.715   2.349
24767W        W91176  33.703  11.929   2.735
24768W        W91177   4.372  21.785  10.682
24769W        W91178  31.502  12.526   2.729
24770W        W91179   1.542  32.933   4.692
24771W        W91180  31.568   5.362   2.942
24772W        W91181  41.522   9.419   0.264
24773W        W91182  22.296   1.338  10.728
24774W        W91183  33.119  19.232  14.629
24775W        W91184  15.643  22.630   1.167
24776W        W91185  16.327  38.043   0.161
24777W        W91186  27.753   7.109  14.077
24778W        W91187  37.415  13.181  14.324
24779W        W91188  29.125   3.984   4.925
24780W        W91189   5.651  11.728   1.372
24781W        W91190  39.420  44.488  11.169
24782W        W91191   6.433   6.286   3.038
24783W        W91192  10.785  42.092  14.081
24784W        W91193  30.706  44.954   3.269
24785W        W91194   7.860   7.164  13.987
24786W        W91195   8.074  40.254   4.549
24787W        W91196  27.479  11.414  10.185
24788W        W91197  15.187  43.460   0.921
24789W        W91198  19.847  27.886  13.000
24790W        W91199  23.778  12.300  14.985
24791W        W91200  15.058  14.188  13.053
24792W        W91201  18.893  20.016   4.227
24793W        W91202  15.255   3.020   0.304
24794W        W91203  22.072  19.145  12.389
24795W        W91204  42.914  17.575  12.464
24796W        W91205  10.814  16.190  12.238
24797W        W91206   0.268  41.493   2.262
24798W        W91207  18.174  20.470   1.638
24799W        W91208  23.754   2.404   2.402
24800W        W91209  24.791   3.967  13.393
24801W        W91210  35.396  42.257  13.851
24802W        W91211  13.868  19.986   2.903
24803W        W91212  38.898   1.978  10.679
24804W        W91213  14.539   4.199  12.538
24805W        W91214   4.455  37.478  11.329
24806W        W91215  15.336  13.143   0.625
24807W        W91216  36.525  22.255   1.332
24808W        W91217  16.194  44.306  10.722
24809W        W91218  13.558  11.663  13.823
24810W        W91219  35.768  20.826   4.629
24811W        W91220   7.436  22.198   4.136
24812W        W91221   2.519  29.654  11.600
24813W        W91222  16.514  30.796   3.162
24814W        W91223  42.301   0.483   2.864
24815W        W91224  22.146  16.018  13.510
24816W        W91225  28.018  21.741  13.871
24817W        W91226  11.683   7.872  11.342
24818W        W91227   5.728  36.059   0.479
24819W        W91228  24.566  37.340  12.428
24820W        W91229  29.629  15.100  13.863
24821W        W91230  24.773  24.356   0.329
24822W        W91231  39.941  27.530   3.545
24823W        W91232  35.963  28.548  14.331
24824W        W91233  35.084   4.424   2.781
24825W        W91234  33.632  22.757  12.007
24826W        W91235  17.633  31.120   2.310
24827W        W91236  38.854  38.753  10.165
24828W        W91237  27.610  22.507  14.044
24829W        W91238  25.112   2.228   3.730
24830W        W91239   7.951  40.744  12.989
24831W        W91240  38.664  16.439  14.051
24832W        W91241   7.737  37.039   4.132
24833W        W91242   7.322   0.475  12.154
24834W        W91243  32.603  22.308   1.352
24835W        W91244  19.955  19.152  10.624
24836W        W91245  13.523  28.727   4.163
24837W        W91246  19.046  42.542  12.928
24838W        W91247  26.902  26.314   2.612
24839W        W91248  32.925  21.005  13.509
24840W        W91249  40.198  32.566   1.067
24841W        W91250  15.099  22.732  11.177
24842W        W91251  16.147   3.516  11.994
24843W        W91252   9.713  23.124   0.060
24844W        W91253  19.711   8.199   2.812
24845W        W91254  27.174  24.551  14.801
24846W        W91255   1.972  38.335  11.205
24847W        W91256   2.171  33.551   3.763
24848W        W91257  31.580  15.868  10.624
24849W        W91258  38.179  12.829   2.398
24850W        W91259  20.095  11.221   1.341
24851W        W91260  42.545  28.936   3.241
24852W        W91261   8.339  19.332   4.666
24853W        W91262   1.671  21.147  13.430
24854W        W91263  24.097   8.361   2.353
24855W        W91264  23.388  33.998   3.704
24856W        W91265  18.884  16.273  12.107
24857W        W91266  27.037  40.010   1.342
24858W        W91267  28.421  30.729  13.964
24859W        W91268  24.101  37.104  12.447
24860W        W91269  19.696  38.777  12.635
24861W        W91270   7.837   3.017  12.905
24862W        W91271  18.564   5.331   3.759
24863W        W91272  19.132  11.517  12.888
24864W        W91273  39.429  16.384  14.063
24865W        W91274  22.779   9.425  14.884
24866W        W91275  40.421  38.189   2.344
24867W        W91276  17.674   8.636  11.473
24868W        W91277   8.854  17.905  12.215
24869W        W91278  32.693  21.087  13.071
24870W        W91279   6.010  13.096   2.898
24871W        W91280  16.417  43.690  14.502
24872W        W91281  38.789  42.429  13.458
24873W        W91282   5.885   4.313   0.056
24874W        W91283  23.014  23.091   3.181
24875W        W91284  36.753  17.112   5.408
24876W        W91285  20.720  43.293   3.691
24877W        W91286  26.451  44.598   5.208
24878W        W91287  12.868  25.657   4.592
24879W        W91288   5.594   1.371  10.798
24880W        W91289  10.390   3.024  14.716
24881W        W91290  33.426  13.342   1.760
24882W        W91291  38.740  12.062  12.535
24883W        W91292  32.927  16.469   2.890
24884W        W91293  15.225  36.455   9.838
24885W        W91294   8.631  42.292   1.296
24886W        W91295  40.389  42.017  13.444
24887W        W91296  20.905  26.178  11.998
24888W        W91297   5.971  29.210  12.426
24889W        W91298   9.166  17.569  12.439
24890W        W91299  24.683  23.989   2.235
24891W        W91300  28.080  28.942  14.707
24892W        W91301  28.461  33.328  12.164
24893W        W91302  30.056  38.731   3.981
24894W        W91303  36.190  38.422  13.888
24895W        W91304   7.449  17.285  12.153
24896W        W91305  23.037  28.607   4.241
24897W        W91306  27.581  39.244   3.160
24898W        W91307  37.850  35.182   1.746
24899W        W91308  20.191   2.450   2.730
24900W        W91309  37.165   6.164   2.736
24901W        W91310   6.317  33.368  12.093
24902W        W91311  41.370   5.200  13.946
24903W        W91312  24.288  44.840  13.976
24904W        W91313  13.813   8.360  14.457
24905W        W91314  15.419  24.689  11.621
24906W        W91315  17.307   8.826  14.098
24907W        W91316  23.070  36.689  10.819
24908W        W91317  42.828  21.718  10.610
24909W        W91318   5.403  33.142   3.136
24910W        W91319  20.257  40.988   1.348
24911W        W91320   7.867  33.428  10.569
24912W        W91321   4.968  28.165  13.620
24913W        W91322  39.134  26.029  13.453
24914W        W91323   7.862  32.062   0.887
24915W        W91324  35.119  21.019  13.837
24916W        W91325  15.298  24.525  14.504
24917W        W91326   5.744  29.431   2.214
24918W        W91327   1.389  41.761  13.894
24919W        W91328  40.957  25.224   0.319
24920W        W91329  18.219   0.589   1.309
24921W        W91330  12.760  26.622   5.014
24922W        W91331  26.652  41.354   1.685
24923W        W91332  22.494  42.712   4.260
24924W        W91333  37.716   2.220   0.729
24925W        W91334   9.382  38.829   1.360
24926W        W91335  39.531  28.942   2.286
24927W        W91336   8.741   3.701  14.957
24928W        W91337  11.145  37.718  11.847
24929W        W91338  32.524   8.836   4.990
24930W        W91339  13.591   6.558   1.730
24931W        W91340   9.916  33.193   2.812
24932W        W91341  19.203  36.898   3.961
24933W        W91342  20.032   4.191   3.693
24934W        W91343  26.921  16.263  10.717
24935W        W91344   5.476   2.327  11.602
24936W        W91345  26.692  26.557  11.390
24937W        W91346  31.690  14.642   3.146
24938W        W91347  13.789  13.613   1.324
24939W        W91348  33.966  43.988  13.831
24940W        W91349  10.685  38.771   3.834
24941W        W91350  28.036  13.205   3.261
24942W        W91351  24.940  27.000   0.172
24943W        W91352  17.290  11.290  14.332
24944W        W91353  23.623   4.682   1.927
24945W        W91354   7.433  25.092   2.847
24946W        W91355  38.346  13.124   0.360
24947W        W91356  40.406  30.664   1.371
24948W        W91357  20.648  23.659   1.825
24949W        W91358  35.617  11.769  14.901
24950W        W91359   4.232  21.027   0.836
24951W        W91360  23.263  30.359   4.698
24952W        W91361   2.759   7.854   0.775
24953W        W91362  37.467  31.621   1.835
24954W        W91363   2.492   5.188   2.349
24955W        W91364  23.675  42.978   0.742
24956W        W91365  18.793  39.479   2.342
24957W        W91366  18.974  26.125  13.127
24958W        W91367  15.052   5.625  12.115
24959W        W91368  40.892  36.904  14.713
24960W        W91369  13.207   8.317  13.158
24961W        W91370  42.485  26.168  13.674
24962W        W91371  39.345  43.267   2.410
24963W        W91372   6.922  28.850   1.135
24964W        W91373  12.098  41.609  14.707
24965W        W91374  34.969  37.983  10.546
24966W        W91375  29.099  10.672  11.640
24967W        W91376  31.583  20.799   2.794
24968W        W91377   6.215  38.382  11.404
24969W        W91378  32.057  41.822   4.910
24970W        W91379   8.715  35.302  13.899
24971W        W91380  35.585   9.322  14.782
24972W        W91381  14.679  32.517  11.560
24973W        W91382   4.541  41.468   0.332
24974W        W91383  40.323  43.636  11.194
24975W        W91384  11.869  44.378   4.034
24976W        W91385  32.358  31.923   4.475
24977W        W91386  16.130  18.229  14.448
24978W        W91387  21.110   6.371   2.699
24979W        W91388  32.278  38.370   1.669
24980W        W91389  30.512   3.921  12.457
24981W        W91390  11.695  20.042   1.848
24982W        W91391  21.263   6.418   3.227
24983W        W91392  26.433  23.184   1.161
24984W        W91393  18.478  27.623  13.654
24985W        W91394   2.127   5.864   1.434
24986W        W91395   3.773  22.263   3.329
24987W        W91396   3.221   8.283   1.318
24988W        W91397   4.411  27.230  10.678
24989W        W91398  29.970   2.359   1.880
24990W        W91399  15.260  43.831   1.742
24991W        W91400  42.574  44.425  10.818
24992W        W91401  13.624   4.733   4.065
24993W        W91402  24.903  35.609  13.813
24994W        W91403  15.306   1.938   2.619
24995W        W91404   3.158   4.923  13.902
24996W        W91405  26.210  18.947  13.284
24997W        W91406  28.583  41.840  13.981
24998W        W91407  37.989   9.644   4.962
24999W        W91408  25.807  40.774   1.755
25000W        W91409  31.679   9.181   4.522
25001W        W91410  10.392  44.303  10.757
25002W        W91411  33.891  25.136  10.960
25003W        W91412   6.333  24.479   2.313
25004W        W91413  32.869  18.671  11.138
25005W        W91414  11.372  33.459  11.992
25006W        W91415   2.257  38.595  12.548
25007W        W91416  15.995   4.714  11.597
25008W        W91417  30.011  37.292  13.681
25009W        W91418   9.729  39.051  14.451
25010W        W91419  37.066  31.125   2.726
25011W        W91420   8.764  39.108   3.362
25012W        W91421  19.050   7.281  14.922
25013W        W91422  14.878  39.338  11.657
25014W        W91423   2.742  37.180   3.710
25015W        W91424  26.442  38.818  10.729
25016W        W91425   9.140  11.549   1.314
25017W        W91426  32.115  44.809   4.322
25018W        W91427  41.210  11.496   4.913
25019W        W91428  21.574   3.893   0.078
25020W        W91429   1.698  33.551  10.684
25021W        W91430  29.055  35.214   1.922
25022W        W91431  18.223  22.437   5.065
25023W        W91432  10.159   0.903   3.618
25024W        W91433  20.679  32.645   3.843
25025W        W91434  39.084  31.442   1.940
25026W        W91435  39.235  16.260   4.053
25027W        W91436  10.422  31.652   1.423
25028W        W91437  22.616  35.984  13.583
25029W        W91438  11.227  31.591   4.133
25030W        W91439  36.163   0.942   0.260
25031W        W91440   0.893  38.231   4.168
25032W        W91441  24.207  37.829  11.045
25033W        W91442  19.387  29.468  13.646
25034W        W91443  42.850  14.057  13.351
25035W        W91444  37.969  16.227  11.651
25036W        W91445  22.265  28.135   1.330
25037W        W91446  23.963  11.583  11.104
25038W        W91447  36.254  12.640  13.038
25039W        W91448   6.066  20.528  11.431
25040W        W91449   1.802   6.833   3.885
25041W        W91450  28.111  33.179   4.129
25042W        W91451   6.429  30.592  14.757
25043W        W91452  27.163  33.650  11.618
25044W        W91453  28.114  35.928   3.241
25045W        W91454   7.900  13.788   0.600
25046W        W91455  44.684  25.140   1.029
25047W        W91456  27.884  31.562   0.307
25048W        W91457  39.020  40.020  11.991
25049W        W91458  20.480   7.115  13.871
25050W        W91459  43.103  42.780   3.749
25051W        W91460  21.591  10.163  11.163
25052W        W91461   4.054  14.580   5.170
25053W        W91462  37.317  43.499   1.175
25054W        W91463  13.281  13.814  11.464
25055W        W91464   1.512   7.650  12.358
25056W        W91465  29.601  16.456   1.980
25057W        W91466   4.802  22.011  11.824
25058W        W91467  18.788  33.921  10.674
25059W        W91468  35.430  37.624   4.738
25060W        W91469  37.914   3.436   5.004
25061W        W91470  30.471  12.212  12.388
25062W        W91471  13.321  40.253   3.244
25063W        W91472  23.155  43.691  14.397
25064W        W91473  25.128  22.525   1.429
25065W        W91474  32.670  41.024  14.413
25066W        W91475  32.046   1.552   1.740
25067W        W91476  21.653  24.258  10.315
25068W        W91477  33.837   9.165  14.349
25069W        W91478   3.771  13.921   1.574
25070W        W91479   1.920   1.790   2.776
25071W        W91480  31.463   5.404  14.065
25072W        W91481  10.748  22.537   1.800
25073W        W91482   0.258  11.192   4.101
25074W        W91483  39.442  34.521   3.760
25075W        W91484   7.566  21.507  14.269
25076W        W91485   9.248  13.848   0.781
25077W        W91486  43.669  32.556   1.515
25078W        W91487  36.968  36.450  12.424
25079W        W91488  25.096  32.650  13.485
25080W        W91489  24.700  24.685  13.018
25081W        W91490  25.479  23.022  13.939
25082W        W91491  16.613  10.343  12.889
25083W        W91492  25.978  23.825   0.834
25084W        W91493  34.284  40.596  13.045
25085W        W91494  21.632  43.466   4.524
25086W        W91495  25.116  20.181   1.112
25087W        W91496  38.440   8.236  13.460
25088W        W91497  11.284  13.538   3.227
25089W        W91498   8.935  27.709   2.397
25090W        W91499   1.290   8.674  14.698
25091W        W91500  44.819  28.924  13.917
25092W        W91501  21.149  20.251   2.578
25093W        W91502  32.269  21.058  10.809
25094W        W91503  29.717  12.997   0.826
25095W        W91504  10.807   1.114   2.697
25096W        W91505  29.556  21.697   4.625
25097W        W91506   1.810  22.845  11.511
25098W        W91507   7.619  33.568  11.470
25099W        W91508   5.941  35.204   2.414
25100W        W91509  15.857  37.998  12.863
25101W        W91510  13.506  43.337   2.313
25102W        W91511  25.684  15.615   1.822
25103W        W91512  30.990  10.604  14.050
25104W        W91513  27.164   7.619   9.954
25105W        W91514   7.766  13.237  12.925
25106W        W91515  10.276  18.814   2.693
25107W        W91516  13.908  15.797  10.773
25108W        W91517  41.643  18.689   4.149
25109W        W91518  37.174  27.523  13.446
25110W        W91519  25.426  11.218   1.399
25111W        W91520  19.862  40.789   4.907
25112W        W91521  23.699  35.921  11.680
25113W        W91522  23.154   1.960  13.939
25114W        W91523  31.701  35.914  13.088
25115W        W91524  17.822   9.763   4.723
25116W        W91525  13.306  44.768   5.427
25117W        W91526  23.257  30.098  10.616
25118W        W91527  25.161  39.678  13.016
25119W        W91528  10.939  38.298   4.467
25120W        W91529  35.852  25.025  14.035
25121W        W91530  18.313  24.998  13.379
25122W        W91531  17.662  31.094   3.598
25123W        W91532  42.016  16.626   3.242
25124W        W91533  42.447  31.682  13.389
25125W        W91534  16.918  17.539   3.267
25126W        W91535  30.998  26.446  11.119
25127W        W91536   5.171  19.235   0.705
25128W        W91537  26.288  11.854  12.596
25129W        W91538  16.545  14.786   3.692
25130W        W91539   2.394  44.610   4.569
25131W        W91540  28.793  29.328  13.711
25132W        W91541  20.242  26.205  11.124
25133W        W91542   6.016  20.018   1.570
25134W        W91543  44.481  30.020   2.151
25135W        W91544  31.694   0.695   4.187
25136W        W91545   0.959  35.891  13.056
25137W        W91546  35.682  15.572   3.318
25138W        W91547  26.970   9.444  14.789
25139W        W91548  31.999  30.931  13.455
25140W        W91549  17.552  42.255   4.510
25141W        W91550   9.693  14.380  14.523
25142W        W91551  14.929  42.105   4.625
25143W        W91552  32.627  35.437   2.839
25144W        W91553  42.850   7.765   1.903
25145W        W91554  21.413  18.528  14.317
25146W        W91555  34.839  22.538  12.915
25147W        W91556  25.897  22.109  14.867
25148W        W91557  21.083  39.419  12.377
25149W        W91558   0.025   8.267  11.134
25150W        W91559  16.608  42.281  13.141
25151W        W91560   1.161  22.737   4.561
25152W        W91561  15.390  13.525   1.024
25153W        W91562  23.993  41.702   1.509
25154W        W91563  44.935  28.427  14.010
25155W        W91564  12.126   2.302   4.594
25156W        W91565  21.538   6.629  11.508
25157W        W91566  11.222  30.045  13.353
25158W        W91567  40.264  10.638   0.865
25159W        W91568   1.969  37.225  14.779
25160W        W91569  33.888  15.284   0.766
25161W        W91570   3.526  30.582  11.530
25162W        W91571  41.002  13.999  14.071
25163W        W91572  29.432  22.276   3.701
25164W        W91573  16.675  12.744  11.248
25165W        W91574  19.079  28.099  13.998
25166W        W91575  43.022  29.189  12.094
25167W        W91576  35.615  24.073  14.395
25168W        W91577  22.384  24.178   0.185
25169W        W91578  39.763  28.469   3.188
25170W        W91579  12.893  42.077   2.718
25171W        W91580  21.625  23.699  12.942
25172W        W91581  37.116  31.010  11.251
25173W        W91582  12.562  39.816  13.879
25174W        W91583   7.192  13.837  14.449
25175W        W91584   3.325  38.327  14.730
25176W        W91585  22.810  12.276   4.000
25177W        W91586  37.870  19.047   2.164
25178W        W91587   9.154  24.224   5.213
25179W        W91588  17.202  21.689  14.997
25180W        W91589  10.870  10.095  10.967
25181W        W91590  17.685  33.041  13.465
25182W        W91591  20.193  28.902   0.300
25183W        W91592  41.890   2.392   3.053
25184W        W91593  16.103  18.149   0.461
25185W        W91594  20.615  16.560  12.046
25186W        W91595  21.967  19.665  14.824
25187W        W91596  10.745  32.526   1.790
25188W        W91597  12.747  40.024   3.676
25189W        W91598  19.306  13.295  12.968
25190W        W91599  19.174  31.085  14.027
25191W        W91600  23.613  10.891  13.500
25192W        W91601  37.545  35.977  12.177
25193W        W91602   5.266  37.342  11.931
25194W        W91603  33.534  35.905   9.990
25195W        W91604  44.025   3.741   0.425
25196W        W91605  23.334  34.816  14.318
25197W        W91606  14.350   7.401   2.793
25198W        W91607  15.089  44.548  11.548
25199W        W91608  23.264   6.512   1.819
25200W        W91609  31.208  11.389   4.977
25201W        W91610  26.705  38.818   0.484
25202W        W91611  24.501  42.345  11.539
25203W        W91612  40.326  40.818   2.898
25204W        W91613  12.160   9.422  14.364
25205W        W91614  34.283   3.958  14.005
25206W        W91615   0.017   4.245  12.939
25207W        W91616  41.029  23.963   0.896
25208W        W91617   3.479  24.252   1.434
25209W        W91618   6.346  10.616  11.701
25210W        W91619  20.122  25.857   2.394
25211W        W91620  14.170   6.348   3.779
25212W        W91621  17.757  15.282  10.720
25213W        W91622  25.965  26.641   0.029
25214W        W91623  38.855  16.432   1.701
25215W        W91624  41.509  21.609   0.706
25216W        W91625  17.685  19.699  14.401
25217W        W91626  36.844  32.469  13.043
25218W        W91627  15.013  38.098   4.389
25219W        W91628   3.734  16.330   0.400
25220W        W91629  21.992  38.925  14.198
25221W        W91630   8.608  43.839   1.078
25222W        W91631  36.574  42.787   5.012
25223W        W91632  19.916   0.419   0.868
25224W        W91633  34.061  29.834  11.554
25225W        W91634  28.431  34.893   0.348
25226W        W91635  40.522  20.552  14.005
25227W        W91636  11.648  30.540  13.361
25228W        W91637   5.893   1.906   3.659
25229W        W91638  14.099  22.711   3.692
25230W        W91639  42.848  12.814  13.002
25231W        W91640  26.399  14.141  10.761
25232W        W91641  33.921  40.988   3.167
25233W        W91642  31.464  36.945  10.707
25234W        W91643  38.314   0.490  13.883
25235W        W91644  39.506   2.662  13.099
25236W        W91645  18.046  36.572   3.594
25237W        W91646  34.601  22.200   1.425
25238W        W91647  16.205  39.249   4.057
25239W        W91648  35.969  21.472  14.526
25240W        W91649  40.846  13.857   4.496
25241W        W91650   4.702  30.676   1.389
25242W        W91651  30.521  37.866   3.240
25243W        W91652  22.739  17.651   3.165
25244W        W91653  24.008  24.156   4.517
25245W        W91654  16.847  27.503  12.355
25246W        W91655  33.791  27.626  12.089
25247W        W91656   5.849  42.395  13.938
25248W        W91657   5.212  14.306   3.722
25249W        W91658  16.789  30.894  10.631
25250W        W91659  29.872   6.949  10.701
25251W        W91660   8.166   7.175   5.052
25252W        W91661  23.710  35.900  10.709
25253W        W91662  36.849   2.623  12.959
25254W        W91663  30.424  23.744  13.971
25255W        W91664  20.510  31.145  14.904
25256W        W91665  11.247   7.613  11.396
25257W        W91666  36.474  24.760   4.902
25258W        W91667  29.286  33.197   0.764
25259W        W91668   7.113  43.411  11.508
25260W        W91669  28.474  18.552   1.832
25261W        W91670  29.425  38.414  12.072
25262W        W91671   7.090   5.075   1.900
25263W        W91672   9.715  28.142  11.386
25264W        W91673  37.676  29.456  11.239
25265W        W91674   4.785  17.544   4.505
25266W        W91675  34.012  25.022  12.830
25267W        W91676  17.293  23.713   1.460
25268W        W91677  16.094  40.783  10.692
25269W        W91678  14.046  20.145   3.398
25270W        W91679  19.922  39.892  12.850
25271W        W91680  13.417  21.037   5.491
25272W        W91681  20.776  28.961  14.557
25273W        W91682   5.349  15.151  12.807
25274W        W91683  12.578   5.834   4.570
25275W        W91684  28.350  38.964   1.347
25276W        W91685   5.367  44.375  14.451
25277W        W91686  39.819  21.116  14.414
25278W        W91687   8.514  26.833   4.625
25279W        W91688   5.035  19.772  12.154
25280W        W91689  32.070  24.156   4.929
25281W        W91690  14.273  26.652  12.817
25282W        W91691  30.648   3.320   2.957
25283W        W91692  42.136  32.834  11.915
25284W        W91693  14.293  34.014   2.614
25285W        W91694  21.047  24.042   3.655
25286W        W91695  30.830  28.194  13.271
25287W        W91696   9.861  36.992   5.323
25288W        W91697  39.836   8.781   3.641
25289W        W91698  26.487  16.252  13.457
25290W        W91699  36.637   0.908  11.172
25291W        W91700  39.408  40.273  14.996
25292W        W91701   1.328   1.963  10.387
25293W        W91702  35.461  44.390  11.468
25294W        W91703  27.942  29.479   4.106
25295W        W91704  30.987  44.484   1.309
25296W        W91705  17.477  29.001   4.041
25297W        W91706   2.779   9.392   2.506
25298W        W91707  38.296  43.855   1.837
25299W        W91708   8.812  26.306  12.448
25300W        W91709  34.366  40.503   4.653
25301W        W91710  26.489   3.244  14.518
25302W        W91711  16.663  27.952   1.747
25303W        W91712  38.479  25.983  12.584
25304W        W91713  31.355   4.792   3.615
25305W        W91714  11.734  34.376   3.846
25306W        W91715  23.426  40.702  12.533
25307W        W91716   0.795  43.466  11.709
25308W        W91717  27.450  18.306   2.738
25309W        W91718  32.098   2.910   0.276
25310W        W91719  42.269   7.340   1.446
25311W        W91720   8.434  10.602  12.450
25312W        W91721  14.058   8.826   0.712
25313W        W91722  22.523  17.642   3.683
25314W        W91723  12.796   1.792  11.915
25315W        W91724   3.272  16.495   4.740
25316W        W91725  17.707  10.307  12.968
25317W        W91726  10.517  32.389   0.256
25318W        W91727  41.278  22.852   1.190
25319W        W91728  33.069  42.163   1.806
25320W        W91729  40.539  36.575   3.602
25321W        W91730  16.118  20.274   2.933
25322W        W91731  36.030  42.251  11.642
25323W        W91732  36.988  42.266   2.933
25324W        W91733  18.852  35.049   3.228
25325W        W91734   9.260  18.857   4.558
25326W        W91735  16.883  15.585  10.344
25327W        W91736  15.200  23.830   1.244
25328W        W91737  21.681  40.990   0.491
25329W        W91738  18.786  19.271  12.873
25330W        W91739  29.662  17.957  13.329
25331W        W91740   8.439  39.783  12.987
25332W        W91741  27.446  10.179   0.058
25333W        W91742  37.553  42.984   0.192
25334W        W91743  34.169  30.479   0.661
25335W        W91744  29.586  23.282   1.898
25336W        W91745  41.315  14.067   3.703
25337W        W91746  34.875  20.551  10.983
25338W        W91747  15.158   0.279   2.869
25339W        W91748  12.831  23.542   4.627
25340W        W91749  30.439  20.040  14.246
25341W        W91750   7.475   2.849   0.030
25342W        W91751  10.220  30.103  10.228
25343W        W91752   2.837  13.398  11.028
25344W        W91753  31.180  37.859  11.958
25345W        W91754  18.033  32.848  11.096
25346W        W91755   1.322  36.991  13.446
25347W        W91756   9.255  16.100  11.378
25348W        W91757  36.504  14.292   1.466
25349W        W91758  43.772  29.686   3.120
25350W        W91759  29.144  13.272  11.572
25351W        W91760   3.364   5.932  10.974
25352W        W91761  26.977  35.881  10.865
25353W        W91762  33.650   5.905   4.075
25354W        W91763  43.642   2.429  12.366
25355W        W91764  24.625  32.818  14.514
25356W        W91765  19.546  44.977  13.402
25357W        W91766  11.810  13.654   4.629
25358W        W91767  40.534  26.780   5.048
25359W        W91768  20.557  11.831   3.310
25360W        W91769  26.033  10.010   1.516
25361W        W91770  22.011   6.273   4.769
25362W        W91771  24.737  37.752   0.683
25363W        W91772  28.222  25.111  14.405
25364W        W91773  14.344  13.321  12.327
25365W        W91774  22.166   4.006   4.656
25366W        W91775  14.015  21.180   2.271
25367W        W91776  35.502  33.567   4.894
25368W        W91777   0.786  13.394  12.570
25369W        W91778  21.809  26.246   3.203
25370W        W91779  44.641  42.207   0.902
25371W        W91780  30.888  20.625  11.402
25372W        W91781  27.866  44.587   0.892
25373W        W91782  40.276  26.592  12.524
25374W        W91783  27.911   5.294   4.306
25375W        W91784  42.499  17.109  11.385
25376W        W91785  15.870  16.021  13.501
25377W        W91786  14.803  11.281  12.647
25378W        W91787  16.484  11.208   2.434
25379W        W91788  18.927  12.610   1.735
25380W        W91789  26.597  41.268  12.006
25381W        W91790  38.758  29.967   2.661
25382W        W91791   0.585  18.736  13.541
25383W        W91792  16.396  17.646   0.374
25384W        W91793  25.239   0.414   0.149
25385W        W91794  41.311  36.631  14.909
25386W        W91795  20.557  20.221   0.652
25387W        W91796   5.170  38.295   3.757
25388W        W91797  22.563  36.186  11.181
25389W        W91798  38.347   8.773  10.741
25390W        W91799  17.681  15.603  13.419
25391W        W91800  26.757   4.454  11.099
25392W        W91801  44.708  22.244  14.462
25393W        W91802  20.386  36.372  14.469
25394W        W91803   3.410   5.266   3.771
25395W        W91804  26.783  34.030  13.452
25396W        W91805   8.738  23.364   1.037
25397W        W91806  18.840  13.577   0.410
25398W        W91807  34.940  34.923  12.885
25399W        W91808  31.453  21.609  11.001
25400W        W91809  10.028  15.237  13.431
25401W        W91810  44.206  12.097   1.206
25402W        W91811  18.107   3.777  12.464
25403W        W91812  41.882  32.614   4.230
25404W        W91813  23.063   8.634  14.007
25405W        W91814  38.879   7.923  10.461
25406W        W91815  39.004  27.185  14.068
25407W        W91816  27.455  37.759   3.292
25408W        W91817   3.945   5.451   3.318
25409W        W91818  23.750   9.928   0.852
25410W        W91819  15.653  15.530   3.259
25411W        W91820  25.480  13.276   2.348
25412W        W91821  14.432  31.633  13.471
25413W        W91822  23.927  44.374  12.397
25414W        W91823  29.025  43.975   2.245
25415W        W91824  36.010  11.091  12.019
25416W        W91825  18.044   9.642  12.244
25417W        W91826   7.668  44.991  13.429
25418W        W91827   4.197  37.892  11.546
25419W        W91828  24.429  22.217   2.325
25420W        W91829  12.835  42.360  12.353
25421W        W91830   1.444  16.711   3.872
25422W        W91831  25.223  26.974   4.243
25423W        W91832  29.073  21.655  11.359
25424W        W91833   2.369   6.123  11.957
25425W        W91834   6.389   5.170   3.485
25426W        W91835  24.120  14.148  12.695
25427W        W91836   3.447   8.286   3.269
25428W        W91837   9.928  21.555  13.113
25429W        W91838  12.197   2.852  12.042
25430W        W91839   9.535  23.984  12.980
25431W        W91840  28.704   7.050   4.715
25432W        W91841  35.719   4.450  12.225
25433W        W91842  20.764  36.025  11.508
25434W        W91843  24.718  16.281  11.573
25435W        W91844  30.662  16.870   2.709
25436W        W91845   9.510  22.686  14.306
25437W        W91846   7.638  14.694  14.906
25438W        W91847  24.921  37.727  11.016
25439W        W91848  31.542  31.993   4.072
25440W        W91849  29.149  34.320   1.309
25441W        W91850  20.562  21.087  13.578
25442W        W91851  38.450   9.304   5.228
25443W        W91852  40.955   2.701  11.748
25444W        W91853   2.676   6.689  14.302
25445W        W91854  43.748  25.054   2.406
25446W        W91855  15.078  20.325  14.505
25447W        W91856  21.145  40.530   0.530
25448W        W91857  16.706  11.235   3.884
25449W        W91858   1.022  34.543   3.678
25450W        W91859  24.524   4.022   2.737
25451W        W91860   1.505  36.005  11.516
25452W        W91861  41.667  29.775   1.470
25453W        W91862   3.904  40.302  14.662
25454W        W91863   9.293  26.391  12.618
25455W        W91864  40.533  10.855  13.443
25456W        W91865   7.104  18.799  14.296
25457W        W91866  39.321  27.656  12.453
25458W        W91867  21.482  33.307  12.367
25459W        W91868  38.393  36.089  10.649
25460W        W91869   3.271  42.520   2.867
25461W        W91870  38.897   6.256  14.887
25462W        W91871  21.614  28.170  10.707
25463W        W91872  43.957  16.159  12.374
25464W        W91873  10.150  10.306  12.801
25465W        W91874  41.877   9.169   1.377
25466W        W91875   9.085  28.094   4.710
25467W        W91876  30.327   9.977  12.527
25468W        W91877  35.890   3.463  10.565
25469W        W91878  23.044   2.943  12.850
25470W        W91879   3.294  38.716   1.008
25471W        W91880  22.089  38.315   2.424
25472W        W91881  43.053   5.023   4.625
25473W        W91882  18.750  38.287  12.688
25474W        W91883   6.213  27.220   3.669
25475W        W91884  44.808   6.136  13.124
25476W        W91885  22.152  19.261  13.531
25477W        W91886  28.166  28.199   4.535
25478W        W91887  24.040  18.420   1.014
25479W        W91888  36.227   4.686  12.929
25480W        W91889   6.878  29.638   0.421
25481W        W91890  36.421  44.282   4.522
25482W        W91891  37.363  33.593   1.512
25483W        W91892  20.291   4.231   3.243
25484W        W91893  23.614  41.945  14.958
25485W        W91894  40.599  28.912   2.300
25486W        W91895  34.937  43.387   3.327
25487W        W91896  24.257   4.788   4.628
25488W        W91897  40.519  38.077   0.975
25489W        W91898  32.727   3.902  11.743
25490W        W91899  21.077   5.284   2.854
25491W        W91900  37.370  31.035  14.885
25492W        W91901  11.843   6.236   4.185
25493W        W91902  19.586  19.719  14.999
25494W        W91903   5.208  25.699  11.057
25495W        W91904  44.485  30.593  10.852
25496W        W91905   2.986  35.008  13.119
25497W        W91906  12.989   5.927  11.087
25498W        W91907   7.920  27.493   2.275
25499W        W91908  17.872  29.937  12.801
25500W        W91909  14.745  29.356  12.924
25501W        W91910  43.735  15.817   0.901
25502W        W91911  14.078  40.595   4.642
25503W        W91912   4.675  13.115  12.125
25504W        W91913   8.203  22.573   3.868
25505W        W91914   1.341  17.360  10.637
25506W        W91915  41.499  37.614   1.986
25507W        W91916   3.413  32.631  13.481
25508W        W91917  15.113  18.359   0.370
25509W        W91918   7.909  37.323   0.011
25510W        W91919  33.073  28.431   1.270
25511W        W91920  44.801  23.582  11.394
25512W        W91921  40.768  22.079   2.794
25513W        W91922  32.831  36.902  11.213
25514W        W91923  17.638  20.166  10.683
25515W        W91924  13.587  10.619   3.483
25516W        W91925  33.574   2.211   0.442
25517W        W91926  43.131  32.604   2.825
25518W        W91927  19.016  11.328   1.214
25519W        W91928  16.169  24.943   4.142
25520W        W91929  34.400   3.258   3.817
25521W        W91930  33.350  19.516  11.605
25522W        W91931   9.163  31.043  10.097
25523W        W91932  32.188  27.095  11.175
25524W        W91933  31.258   1.476   5.492
25525W        W91934  32.592  42.263  13.103
25526W        W91935  31.350  17.759   2.212
25527W        W91936  21.227   2.510   3.460
25528W        W91937  31.400  17.682   1.570
25529W        W91938  39.798  41.498   1.939
25530W        W91939   4.811  10.398  10.370
25531W        W91940   7.395   7.117  10.693
25532W        W91941  33.450  34.636  14.719
25533W        W91942  40.752  16.567   3.340
25534W        W91943  14.092  33.326   3.823
25535W        W91944  35.619   0.710  11.147
25536W        W91945  27.078  30.621  14.430
25537W        W91946   4.153  22.078   3.018
25538W        W91947   8.741  43.187   3.692
25539W        W91948  29.676  16.961   5.095
25540W        W91949  28.059  23.688  12.101
25541W        W91950   3.867   3.048   2.618
25542W        W91951  19.760  29.217   0.281
25543W        W91952  29.483  32.520  14.604
25544W        W91953  43.758  39.407   3.316
25545W        W91954  28.122   4.108   0.910
25546W        W91955   4.721  44.975  11.944
25547W        W91956  37.838  15.723  13.333
25548W        W91957  30.005  16.144  14.262
25549W        W91958   1.658  44.954   4.193
25550W        W91959  29.926  20.437   4.314
25551W        W91960  25.939  23.567  14.720
25552W        W91961  34.152   2.683  13.863
25553W        W91962  39.559  10.457  12.461
25554W        W91963  22.991  34.536  14.017
25555W        W91964  20.617   7.839  14.336
25556W        W91965  16.303  44.024  11.934
25557W        W91966  25.900  39.872  11.644
25558W        W91967  13.231  12.119  11.194
25559W        W91968  19.006   0.680  11.222
25560W        W91969  41.584  40.058   3.661
25561W        W91970  29.055  35.414  14.119
25562W        W91971  38.536   8.824   0.849
25563W        W91972  18.316  37.042   2.231
25564W        W91973  26.450  18.816  13.802
25565W        W91974  11.718  29.691   2.710
25566W        W91975  17.790  22.408   0.311
25567W        W91976   7.973  31.000   4.096
25568W        W91977  21.879  11.788  10.822
25569W        W91978  24.080  14.096  14.631
25570W        W91979  35.952  19.766   2.945
25571W        W91980  10.062  38.098   2.480
25572W        W91981  22.723  24.742   2.748
25573W        W91982  10.825   9.252   3.846
25574W        W91983  41.896   9.106   2.279
25575W        W91984  36.806  13.572   3.234
25576W        W91985  31.802   6.923   3.127
25577W        W91986  40.108  16.053   4.810
25578W        W91987  35.291   3.289  11.262
25579W        W91988  22.245  19.730   2.753
25580W        W91989  33.883  11.304  12.387
25581W        W91990   1.356  36.628  14.443
25582W        W91991  36.119  28.498  14.825
25583W        W91992  12.332  33.091   2.750
25584W        W91993   8.657  44.431  13.453
25585W        W91994  32.682   9.370   4.226
25586W        W91995  30.389   5.339   0.887
25587W        W91996  12.722  36.589  11.062
25588W        W91997  24.476   3.491   4.675
25589W        W91998  30.642  33.976  13.494
25590W        W91999   0.695  22.505   2.776
25591W        W92000   3.670  12.920   1.772
25592W        W92001   6.075  23.162   1.885
25593W        W92002  25.642  35.064  14.393
25594W        W92003   1.790  16.233   2.323
25595W        W92004  15.377  25.962   4.242
25596W        W92005  35.009   6.124   3.255
25597W        W92006  31.571  16.758   3.109
25598W        W92007  15.608  12.412   2.403
25599W        W92008  18.288  18.953   1.921
25600W        W92009  18.287  39.579   3.639
25601W        W92010  12.885  42.822  11.146
25602W        W92011   7.296  26.442  13.312
25603W        W92012   5.813  15.683  13.887
25604W        W92013  21.736  37.542  13.311
25605W        W92014  39.444  36.450  13.379
25606W        W92015  44.421  24.250   4.204
25607W        W92016  13.644  34.340   3.729
25608W        W92017  42.842  35.858  12.525
25609W        W92018  36.325  42.349  12.451
25610W        W92019  23.521  34.532  13.751
25611W        W92020  34.579   9.042   4.785
25612W        W92021  40.994   2.352   4.208
25613W        W92022  16.546  42.750  10.656
25614W        W92023  39.272  31.354   3.189
25615W        W92024  37.429   2.981  14.238
25616W        W92025   8.762  26.984  13.058
25617W        W92026  12.632  36.349   4.094
25618W        W92027  39.974  44.858   4.770
25619W        W92028  22.701  17.878  12.639
25620W        W92029   6.294  34.984   3.762
25621W        W92030   3.292  27.932  12.583
25622W        W92031   0.942  39.277   2.453
25623W        W92032  41.757  34.008  14.456
25624W        W92033  39.063  18.371  10.630
25625W        W92034  41.188  38.271   0.349
25626W        W92035  22.091  31.921  14.771
25627W        W92036  13.279  33.438  14.913
25628W        W92037  28.162  18.038   3.682
25629W        W92038  31.792  16.846  14.463
25630W        W92039  18.799   7.377  10.246
25631W        W92040   3.717  42.790   2.261
25632W        W92041  15.040  41.214   4.369
25633W        W92042   0.455  38.973  12.537
25634W        W92043  11.120  24.592  14.927
25635W        W92044  34.295  20.134   0.408
25636W        W92045  17.497   7.458   3.105
25637W        W92046  12.244  30.753   0.222
25638W        W92047  16.560   3.417  11.078
25639W        W92048  41.719  10.321   3.493
25640W        W92049  27.447  35.144  11.683
25641W        W92050  36.277  27.198   2.320
25642W        W92051  20.193  41.895   4.343
25643W        W92052   8.563  33.643   1.753
25644W        W92053  26.479  29.918  10.750
25645W        W92054  18.734   7.631  12.452
25646W        W92055   0.422  43.418  12.054
25647W        W92056  17.618  29.443   3.269
25648W        W92057  12.396  13.740   1.617
25649W        W92058  13.058  34.988   4.246
25650W        W92059  41.127  12.119   5.041
25651W        W92060   2.420  31.927   2.243
25652W        W92061  11.834   0.177  10.665
25653W        W92062  32.383  21.241   3.766
25654W        W92063  17.237  28.564  10.443
25655W        W92064  40.892  23.541  12.150
25656W        W92065  36.959   9.159  11.659
25657W        W92066   7.473  33.565   4.066
25658W        W92067  13.357  19.153   2.814
25659W        W92068   3.533   2.776  14.954
25660W        W92069   3.791  16.774   2.668
25661W        W92070  36.302   3.143  14.793
25662W        W92071   6.144   0.363  12.623
25663W        W92072  21.348  23.251  10.154
25664W        W92073  38.100  39.028  12.392
25665W        W92074  11.491  17.952  11.742
25666W        W92075  42.176  19.593  14.920
25667W        W92076  39.821  35.996   0.992
25668W        W92077   8.712  11.309  11.374
25669W        W92078   5.292  19.605   4.102
25670W        W92079  36.928  11.575  13.868
25671W        W92080  25.063  13.161  12.900
25672W        W92081  35.905   8.910  14.877
25673W        W92082  14.636  43.781  10.716
25674W        W92083  35.583  15.738  10.886
25675W        W92084  15.707   3.212  13.528
25676W        W92085  25.650  24.319   4.633
25677W        W92086  26.944  10.853  14.284
25678W        W92087   0.529  43.481   0.336
25679W        W92088  20.099   5.387   1.428
25680W        W92089  42.927  20.144  11.440
25681W        W92090   6.307  16.457   2.896
25682W        W92091  20.016  16.697  11.556
25683W        W92092   8.266   0.477  11.607
25684W        W92093   2.752  44.476   1.758
25685W        W92094  19.452   7.783  12.970
25686W        W92095   0.427  20.976  10.563
25687W        W92096   3.390   7.268   4.544
25688W        W92097  22.220  11.130   1.851
25689W        W92098  14.169  30.775   2.634
25690W        W92099  36.202   4.303  13.536
25691W        W92100  10.311  40.009  13.522
25692W        W92101  27.521  39.991  11.717
25693W        W92102   2.131   8.269  14.447
25694W        W92103  30.127  19.392   4.218
25695W        W92104  25.132  11.154  14.481
25696W        W92105   3.779  21.600  12.805
25697W        W92106  22.577  30.136   0.373
25698W        W92107  32.236  31.768   3.496
25699W        W92108  22.487  30.647   0.415
25700W        W92109  44.570   7.622   1.289
25701W        W92110   2.198  40.092   1.212
25702W        W92111  10.608  14.098  13.363
25703W        W92112   2.700  32.030   0.825
25704W        W92113  17.718  37.866  11.944
25705W        W92114  42.959  35.385   2.443
25706W        W92115   8.851  26.064  10.516
25707W        W92116  21.064  34.964  13.052
25708W        W92117  34.873  44.071   4.759
25709W        W92118  27.094  20.322  14.508
25710W        W92119   1.445   8.400  12.911
25711W        W92120  28.892  25.089   3.209
25712W        W92121  14.079  15.259   0.705
25713W        W92122  33.439  10.520  10.407
25714W        W92123  34.245  10.311  14.460
25715W        W92124  22.599  39.423  10.995
25716W        W92125  29.413   0.142   0.889
25717W        W92126  26.134  32.519  13.363
25718W        W92127  42.409  34.498   1.434
25719W        W92128  43.921  18.618   2.590
25720W        W92129  30.422  19.979  11.916
25721W        W92130  15.938   2.461   4.605
25722W        W92131  38.854   4.884  13.339
25723W        W92132  11.487  37.355   1.291
25724W        W92133   6.018   3.661  12.956
25725W        W92134   3.808  14.222   0.542
25726W        W92135  20.510   7.416   1.782
25727W        W92136   1.020  20.451   3.640
25728W        W92137  23.855  43.905  10.514
25729W        W92138  17.796  18.543  12.315
25730W        W92139  16.465  32.464   4.236
25731W        W92140  39.447  10.861   1.722
25732W        W92141  27.705   7.086   2.268
25733W        W92142  15.179  24.210  11.051
25734W        W92143  31.029  14.238  14.863
25735W        W92144  43.660  32.606  14.807
25736W        W92145  42.962  40.773  11.463
25737W        W92146  13.140  40.074   1.848
25738W        W92147  34.563   2.993  13.941
25739W        W92148   5.626  18.300   3.185
25740W        W92149  17.146   2.933  10.649
25741W        W92150  18.103  43.850   2.284
25742W        W92151  11.883   0.754  14.264
25743W        W92152  13.211  15.952   3.882
25744W        W92153  25.204  33.394   0.730
25745W        W92154  12.537  40.332  13.288
25746W        W92155  39.065  20.208  10.273
25747W        W92156  16.733  24.174   1.252
25748W        W92157  13.377   3.046  14.573
25749W        W92158  26.951  15.324  13.707
25750W        W92159  12.251   4.375  10.549
25751W        W92160  13.281  41.870  14.809
25752W        W92161   6.424  32.265  11.943
25753W        W92162  10.749  18.489  10.649
25754W        W92163   5.576  26.545  11.969
25755W        W92164  25.980  41.409   0.075
25756W        W92165   6.929  42.422  13.115
25757W        W92166  43.258  33.417  13.518
25758W        W92167  18.054  16.189  11.608
25759W        W92168  18.847  15.341   0.314
25760W        W92169   8.581  44.822  10.723
25761W        W92170  41.863  39.868   1.782
25762W        W92171  28.022   1.878   1.815
25763W        W92172  35.534   2.118  11.907
25764W        W92173  39.382  26.955  14.346
25765W        W92174  11.824  21.269  14.861
25766W        W92175  18.651  38.563   4.129
25767W        W92176   9.253  29.213  13.165
25768W        W92177   6.651  12.014   2.172
25769W        W92178  14.112  18.305  10.248
25770W        W92179  25.053  38.878  10.368
25771W        W92180  36.823  44.265   3.613
25772W        W92181  20.307  16.255  11.721
25773W        W92182  42.930  41.441   3.628
25774W        W92183  13.847  27.894   0.337
25775W        W92184  29.481  18.241   2.847
25776W        W92185  24.259  42.871   3.465
25777W        W92186  35.906  10.667   1.391
25778W        W92187  41.427  24.958   1.851
25779W        W92188  39.729   4.701  11.588
25780W        W92189  41.556  34.913  13.519
25781W        W92190   4.634   0.309   1.929
25782W        W92191  14.736  17.321  10.224
25783W        W92192  11.305  36.968  13.125
25784W        W92193  39.931  34.209   0.271
25785W        W92194  20.115  39.059  12.787
25786W        W92195  20.799  18.083   2.876
25787W        W92196  42.872  14.654   3.033
25788W        W92197  20.518   5.397  13.955
25789W        W92198   8.801   9.070  12.940
25790W        W92199  17.090   0.970  11.066
25791W        W92200   7.458   9.133  14.946
25792W        W92201  27.258  24.347   2.058
25793W        W92202  30.630  41.739   3.772
25794W        W92203  39.617  35.911   2.330
25795W        W92204  34.689   5.914  10.643
25796W        W92205  39.580  37.490  10.549
25797W        W92206  16.386  30.522  13.482
25798W        W92207  16.219  31.885   0.685
25799W        W92208  36.253  17.809  13.329
25800W        W92209  16.595  21.214  14.323
25801W        W92210   2.742  41.361   4.453
25802W        W92211  44.152  33.397  10.597
25803W        W92212  25.555  40.008  10.247
25804W        W92213  25.125   8.234  13.761
25805W        W92214   2.361  29.486   2.255
25806W        W92215  34.649   0.879  10.202
25807W        W92216  17.791   5.597  13.865
25808W        W92217  12.643  22.786  10.054
25809W        W92218  10.490  10.634   5.182
25810W        W92219  42.975  34.585  11.946
25811W        W92220  37.364  11.068  13.004
25812W        W92221  41.039   7.274  14.481
25813W        W92222   1.236  32.509   4.579
25814W        W92223  44.654   4.619   0.013
25815W        W92224  35.474  20.512  14.917
25816W        W92225  21.167  35.031   4.565
25817W        W92226  33.462  36.426   4.718
25818W        W92227  37.118  44.505  12.876
25819W        W92228   8.277  11.162   1.721
25820W        W92229  21.736  16.211   3.604
25821W        W92230  40.713  30.320   2.314
25822W        W92231  23.606  23.528  14.125
25823W        W92232   3.829  13.048   1.292
25824W        W92233   3.413  30.586   1.002
25825W        W92234  16.923  38.820   3.809
25826W        W92235  13.248  15.809  14.903
25827W        W92236  41.690  32.144  11.086
25828W        W92237  19.173  39.417  13.742
25829W        W92238  29.971  43.240   1.789
25830W        W92239  24.098  29.712   2.757
25831W        W92240  23.527  27.243   4.213
25832W        W92241   2.946   1.484   3.170
25833W        W92242  13.615  39.079   2.201
25834W        W92243   5.369  22.117  14.263
25835W        W92244   5.862  29.218  13.397
25836W        W92245  30.663  40.295  13.164
25837W        W92246   5.093   3.002  10.020
25838W        W92247  38.950  26.048   1.635
25839W        W92248   0.451  19.162   4.345
25840W        W92249  42.007  18.262  12.116
25841W        W92250  29.588   1.849   2.308
25842W        W92251  19.724  42.702   2.226
25843W        W92252  12.810   4.371   4.841
25844W        W92253  21.592  30.018  13.021
25845W        W92254  25.009   6.647   3.228
25846W        W92255  39.810  33.086   2.653
25847W        W92256   6.364  39.050   2.277
25848W        W92257  11.268   2.576   2.142
25849W        W92258  37.461  17.706   2.259
25850W        W92259  22.319  31.456   1.421
25851W        W92260  19.293  22.239  12.456
25852W        W92261  10.126  33.988  14.445
25853W        W92262  26.261   5.854   0.369
25854W        W92263  16.211   6.331   4.349
25855W        W92264  43.058   9.837  12.934
25856W        W92265  38.958   3.387   0.060
25857W        W92266  19.257  16.555  11.078
25858W        W92267  43.968   4.819   1.779
25859W        W92268  39.799  22.643  11.192
25860W        W92269   6.323  37.870   3.764
25861W        W92270  18.656  37.285   1.390
25862W        W92271  14.425  20.451  14.454
25863W        W92272  11.243  11.890  13.337
25864W        W92273  15.256   3.827   2.743
25865W        W92274  44.743  37.876   0.219
25866W        W92275  10.662  12.312   3.756
25867W        W92276  34.734  19.031   1.816
25868W        W92277   4.193   8.085   4.480
25869W        W92278  22.785  12.078  14.779
25870W        W92279  30.201  24.054   3.139
25871W        W92280  44.159  11.803  14.953
25872W        W92281  26.075  24.752   2.263
25873W        W92282   2.794  31.723  13.603
25874W        W92283   9.681  25.124  13.872
25875W        W92284  24.085  11.344  14.090
25876W        W92285  20.896  20.646  10.875
25877W        W92286  39.682  30.956  13.115
25878W        W92287  28.660  37.957  13.352
25879W        W92288  33.019  25.926   3.271
25880W        W92289  22.075  44.858  13.336
25881W        W92290  12.188  18.444  12.302
25882W        W92291  14.232  40.996   1.723
25883W        W92292  41.314  41.364   1.408
25884W        W92293  30.309  14.108   2.224
25885W        W92294  35.068  22.982   3.129
25886W        W92295   5.948   9.697  12.374
25887W        W92296   0.871  28.170  11.921
25888W        W92297  19.894  29.353  13.079
25889W        W92298  28.744  36.119  10.941
25890W        W92299   1.927   3.647   2.896
25891W        W92300   9.202  36.471  14.091
25892W        W92301   6.303  16.924  11.646
25893W        W92302   8.424  42.760  11.161
25894W        W92303  17.961  28.608   0.316
25895W        W92304  10.874  39.787  14.965
25896W        W92305  33.488  35.449  12.334
25897W        W92306  38.339   3.369  13.840
25898W        W92307  27.185  41.768  10.384
25899W        W92308  26.481  40.845  13.091
25900W        W92309   0.770   5.340  10.771
25901W        W92310   9.689   2.658  14.059
25902W        W92311  38.083  26.518  12.976
25903W        W92312   8.820   9.322  14.486
25904W        W92313  23.609  14.844  14.621
25905W        W92314   3.795  11.404   0.290
25906W        W92315  43.545  43.244   3.580
25907W        W92316  25.141  17.345   0.892
25908W        W92317   1.636  16.362  12.099
25909W        W92318  12.907  25.513  10.434
25910W        W92319  11.679  14.934   2.273
25911W        W92320   4.622  41.866  10.667
25912W        W92321  43.448  11.419   2.610
25913W        W92322  44.449  31.384   1.950
25914W        W92323  43.029  39.394   4.625
25915W        W92324  38.443  32.574   0.280
25916W        W92325  18.799  31.628   0.721
25917W        W92326  42.611   8.768   2.842
25918W        W92327  37.391  41.582   2.306
25919W        W92328   2.464  26.253  12.062
25920W        W92329   1.665  26.232  11.222
25921W        W92330  16.565  29.152  13.928
25922W        W92331   5.231   7.663  12.539
25923W        W92332  24.024  42.535   1.238
25924W        W92333  11.325  26.666  14.760
25925W        W92334  40.018   1.958  12.522
25926W        W92335   7.734  32.534  12.284
25927W        W92336   2.906  32.071   3.677
25928W        W92337   8.714   3.172   1.202
25929W        W92338   4.131  15.372   3.761
25930W        W92339  19.825   2.738   2.324
25931W        W92340  36.803  13.262   4.572
25932W        W92341  32.823  11.102  12.476
25933W        W92342  19.281  24.271   2.116
25934W        W92343   3.974  40.404  12.116
25935W        W92344   8.340  19.427   0.461
25936W        W92345  12.553  44.030  13.041
25937W        W92346  39.951  40.820  13.347
25938W        W92347  12.754  15.362   1.861
25939W        W92348  23.504  21.969   0.356
25940W        W92349  29.879  12.344   0.330
25941W        W92350  28.095  21.551   4.163
25942W        W92351  34.988  20.546   0.777
25943W        W92352  43.224  38.658  12.450
25944W        W92353   8.368  32.988  13.788
25945W        W92354  40.753  27.997  13.470
25946W        W92355  34.512  37.433   0.915
25947W        W92356  15.798  25.137   0.891
25948W        W92357  18.059  31.672  13.944
25949W        W92358  27.137  13.114  14.815
25950W        W92359  42.713  13.724   0.945
25951W        W92360   2.841  43.001   0.012
25952W        W92361  21.905  42.401   1.755
25953W        W92362  39.327   6.158   4.157
25954W        W92363  11.801   4.819   9.935
25955W        W92364   2.424  30.396  14.028
25956W        W92365  19.557  33.486  11.465
25957W        W92366   3.433  27.128   4.753
25958W        W92367  38.534  10.304   1.739
25959W        W92368  28.557  24.185   3.167
25960W        W92369   9.681  19.968  11.962
25961W        W92370  26.991  16.313   4.122
25962W        W92371  10.131  18.935   0.726
25963W        W92372   5.178  42.746  13.468
25964W        W92373  44.993  17.316   1.867
25965W        W92374  14.072  14.394   1.828
25966W        W92375  13.059  34.144  11.839
25967W        W92376   8.711  30.950   2.371
25968W        W92377   5.822  35.523  14.940
25969W        W92378   6.381  30.881   0.618
25970W        W92379  32.406   5.716   3.673
25971W        W92380  42.347  35.100  14.851
25972W        W92381   1.855  13.500  14.439
25973W        W92382   8.389  24.535  12.524
25974W        W92383   2.486  43.813  11.614
25975W        W92384  22.031  14.174   1.766
25976W        W92385   6.867  19.061   4.644
25977W        W92386  44.885  16.015  14.465
25978W        W92387   6.783   8.629   3.177
25979W        W92388   5.689  35.475   0.845
25980W        W92389  31.243   0.824   3.223
25981W        W92390  10.128   2.870  14.254
25982W        W92391  27.520  15.861  11.393
25983W        W92392  38.402   9.707  11.569
25984W        W92393  14.294  35.258   2.321
25985W        W92394  11.879   6.384  13.051
25986W        W92395  14.811  44.906   2.825
25987W        W92396   4.275  38.338  12.555
25988W        W92397  36.591  15.657   4.161
25989W        W92398  35.293  32.198  10.231
25990W        W92399  39.511   1.313   1.948
25991W        W92400  19.393  35.963   4.084
25992W        W92401  38.562  15.703  10.219
25993W        W92402  35.114  39.418   4.161
25994W        W92403   2.391  41.474   2.695
25995W        W92404   1.981  17.228  11.003
25996W        W92405  33.674  20.062   2.552
25997W        W92406  25.876   3.597  12.734
25998W        W92407  41.425  43.162  14.428
25999W        W92408  17.719  39.050   4.091
26000W        W92409  36.874  23.121   1.304
26001W        W92410  34.557  33.603  12.813
26002W        W92411  41.961   5.501   0.239
26003W        W92412  21.946  41.841  13.742
26004W        W92413  15.538  29.615  13.991
26005W        W92414  17.055  36.408   3.263
26006W        W92415  11.862  41.868   3.804
26007W        W92416  21.678  37.369  14.775
26008W        W92417  38.852  16.260   9.668
26009W        W92418   9.015  39.568  12.301
26010W        W92419  28.219  19.755  12.511
26011W        W92420  22.018  27.653  11.960
26012W        W92421  20.526   9.772   4.231
26013W        W92422  35.641  34.415   3.825
26014W        W92423  23.172  18.778  12.126
26015W        W92424  20.703  32.870  14.207
26016W        W92425  33.658  44.378   2.857
26017W        W92426   5.657  44.342  13.654
26018W        W92427  12.474  38.026   9.775
26019W        W92428  42.352  19.777  12.921
26020W        W92429   6.635   3.764   0.228
26021W        W92430   8.657   1.300   4.930
26022W        W92431   1.449  28.685   1.710
26023W        W92432  10.024  27.649  13.545
26024W        W92433  24.189  30.915   4.187
26025W        W92434   6.827  12.743   4.303
26026W        W92435  22.446  14.610   9.948
26027W        W92436   2.483  19.096  10.622
26028W        W92437  43.245   7.786   3.682
26029W        W92438  35.936  13.537  11.035
26030W        W92439   5.946  23.545  12.903
26031W        W92440  27.834  15.987  13.737
26032W        W92441  42.252  41.177   4.123
26033W        W92442  38.330   6.630  12.601
26034W        W92443  23.596  15.542   2.348
26035W        W92444   9.128  17.682  11.488
26036W        W92445  32.073   8.942   2.310
26037W        W92446  37.598  12.215   1.279
26038W        W92447  29.699  15.642  12.606
26039W        W92448  41.736  42.771  13.339
26040W        W92449  24.633  42.316   0.719
26041W        W92450  31.565  38.225  12.680
26042W        W92451   9.132   6.434  14.810
26043W        W92452  25.922  31.778   2.773
26044W        W92453  33.262  15.407  12.809
26045W        W92454  22.675  41.872   3.317
26046W        W92455  21.174  19.454   0.889
26047W        W92456  17.809   0.440  13.580
26048W        W92457   1.463  41.475  11.159
26049W        W92458   9.128  19.766   0.335
26050W        W92459  33.106  32.577   4.685
26051W        W92460   3.634  43.465   2.818
26052W        W92461  33.987   6.495   0.815
26053W        W92462   3.930  14.445   0.008
26054W        W92463  18.022  14.339  11.633
26055W        W92464  41.101  32.894  13.294
26056W        W92465  39.062  16.418   3.313
26057W        W92466  25.047  18.334  13.893
26058W        W92467  43.478   2.594  11.593
26059W        W92468  40.335  38.928  14.085
26060W        W92469  19.348  17.015  12.605
26061W        W92470  36.330  34.550   4.340
26062W        W92471  40.873  20.841   2.382
26063W        W92472  42.739  34.432   2.328
26064W        W92473  21.226  13.698  13.597
26065W        W92474  42.398  27.556   2.540
26066W        W92475  20.964  36.379  11.935
26067W        W92476  18.486  16.851  10.589
26068W        W92477  42.960  22.756  12.557
26069W        W92478  11.127  30.643   0.938
26070W        W92479  37.964  31.018   3.637
26071W        W92480  10.870  40.483  13.860
26072W        W92481  32.793  27.581   0.766
26073W        W92482  32.720  31.671  10.841
26074W        W92483  42.776  43.443   0.334
26075W        W92484   3.161   8.414   3.687
26076W        W92485  36.188  16.673   5.185
26077W        W92486  28.520   6.956   2.751
26078W        W92487  34.852  42.069  13.461
26079W        W92488  35.882  22.797   0.685
26080W        W92489  34.360  34.438   3.207
26081W        W92490  33.903  28.565   3.282
26082W        W92491  33.398  14.053  10.937
26083W        W92492  18.547  20.275   3.148
26084W        W92493  43.562  43.424  12.430
26085W        W92494  44.578  29.177   4.478
26086W        W92495  25.422   0.841  11.403
26087W        W92496  14.144   5.933   0.816
26088W        W92497  36.344  22.628   3.900
26089W        W92498  21.089  12.121  12.463
26090W        W92499  18.256  20.045  10.212
26091W        W92500  39.497  30.536  10.943
26092W        W92501  32.533  28.093  13.394
26093W        W92502  12.386  20.041  13.746
26094W        W92503  28.170  43.281   0.349
26095W        W92504   7.002   6.733   0.039
26096W        W92505  23.623  13.196  11.489
26097W        W92506  19.604  19.295   3.257
26098W        W92507  12.496  18.726  13.991
26099W        W92508  22.666  35.890  11.590
26100W        W92509  25.457  29.174  14.432
26101W        W92510  20.493   7.203   3.654
26102W        W92511  10.593  16.870   3.625
26103W        W92512  36.540   1.406  12.473
26104W        W92513  39.024   7.347  11.895
26105W        W92514  22.190  20.072   2.087
26106W        W92515  25.665  10.163  12.974
26107W        W92516  42.641  22.484   3.680
26108W        W92517  35.005  26.025  13.777
26109W        W92518  32.201  28.714   0.247
26110W        W92519  28.218  16.496   3.694
26111W        W92520  36.590  43.938  13.536
26112W        W92521  29.654   3.238   3.235
26113W        W92522  40.090   8.357  10.238
26114W        W92523  19.131  36.573  12.911
26115W        W92524  24.054  41.082   3.264
26116W        W92525  12.117  12.280   4.155
26117W        W92526  20.353   2.747   2.340
26118W        W92527  30.948  23.942   4.679
26119W        W92528  33.991  19.750   1.218
26120W        W92529   5.460  16.758  11.222
26121W        W92530   4.236  26.220  14.702
26122W        W92531  14.365  28.775  12.922
26123W        W92532  28.602  32.143  14.249
26124W        W92533  42.157   8.182  10.237
26125W        W92534  22.679  13.716  11.526
26126W        W92535  36.635  26.709  14.426
26127W        W92536  17.275   4.684  11.192
26128W        W92537  25.764  27.503  14.489
26129W        W92538  33.501  19.709   1.329
26130W        W92539  28.536   4.470   3.379
26131W        W92540   2.343  10.909  11.147
26132W        W92541  23.045  10.022  11.919
26133W        W92542  36.375  20.109  11.975
26134W        W92543  20.619  29.934   3.584
26135W        W92544  44.448   7.600   3.210
26136W        W92545   4.781  33.920   4.585
26137W        W92546   1.865  38.834   1.758
26138W        W92547  41.917   6.218   3.350
26139W        W92548  33.053  43.207   1.362
26140W        W92549  44.187  14.899  14.395
26141W        W92550  39.500   9.957  12.280
26142W        W92551  31.530   5.670  10.553
26143W        W92552  29.637  28.755  13.967
26144W        W92553  24.193  32.228   3.725
26145W        W92554  30.383  24.589  10.725
26146W        W92555  27.925  43.656   2.217
26147W        W92556  20.517  11.230   2.643
26148W        W92557  33.510  23.659   2.895
26149W        W92558  14.276  32.700   0.253
26150W        W92559   1.393  31.176   4.554
26151W        W92560  43.376   4.706  14.753
26152W        W92561  14.392  20.027   2.564
26153W        W92562  23.290  37.876   1.446
26154W        W92563  27.211  38.883  11.931
26155W        W92564  30.404  14.800   1.898
26156W        W92565   2.251  20.209  11.976
26157W        W92566   4.110  13.637   0.257
26158W        W92567  20.047   7.403  14.914
26159W        W92568  18.650  41.349  13.437
26160W        W92569  36.339  44.371  11.221
26161W        W92570  30.948  12.847  13.925
26162W        W92571  41.047  40.106   1.367
26163W        W92572  43.956  31.480  11.336
26164W        W92573  32.280  12.565  13.464
26165W        W92574   5.187  21.321   1.233
26166W        W92575  17.768  20.740   4.616
26167W        W92576  31.579  38.313   2.919
26168W        W92577  26.805  18.967   0.662
26169W        W92578   7.221   8.426   2.340
26170W        W92579  41.888  25.014  13.832
26171W        W92580  35.114  17.857   2.370
26172W        W92581  37.068  44.487  11.159
26173W        W92582  15.698  42.079  12.177
26174W        W92583  39.317  21.507  14.082
26175W        W92584  35.062  44.399  14.261
26176W        W92585   4.809  12.365  11.150
26177W        W92586   1.951   2.844  13.360
26178W        W92587   7.168   4.738  11.546
26179W        W92588  34.844   0.412   0.281
26180W        W92589  30.305  32.747  14.969
26181W        W92590  30.458  33.004   4.163
26182W        W92591  33.271  13.974   4.100
26183W        W92592   0.884   0.718  12.546
26184W        W92593  23.649   3.973  11.489
26185W        W92594  43.997   7.692   2.301
26186W        W92595   8.281  32.835   5.439
26187W        W92596   6.865  21.629  10.942
26188W        W92597  14.834  28.158   1.718
26189W        W92598  41.993   5.254  12.814
26190W        W92599  20.210  10.301   1.456
26191W        W92600  41.130  31.779  13.953
26192W        W92601  27.125  17.037  11.069
26193W        W92602  37.096  28.463  11.927
26194W        W92603  29.452  18.745   2.592
26195W        W92604  36.469  40.467  11.725
26196W        W92605  19.259  44.526  14.520
26197W        W92606  24.028  40.558   3.492
26198W        W92607  22.064  35.372   3.789
26199W        W92608   3.039  37.340   0.386
26200W        W92609  16.250  42.064   2.806
26201W        W92610   1.808   2.356   0.639
26202W        W92611  23.549  15.658  11.398
26203W        W92612  34.939  12.174   4.144
26204W        W92613  28.879  31.387  11.387
26205W        W92614  33.949   4.257   0.872
26206W        W92615  25.322  27.099  12.439
26207W        W92616  35.758   6.838   4.521
26208W        W92617  40.259  39.595   2.347
26209W        W92618   2.345  23.492   3.593
26210W        W92619  28.468   9.754   0.390
26211W        W92620   5.193  38.123  11.510
26212W        W92621  23.936  18.669  12.371
26213W        W92622  34.201  37.937   0.700
26214W        W92623  37.630   3.851  13.259
26215W        W92624  25.056  38.775  11.389
26216W        W92625  37.441   4.314   4.567
26217W        W92626   1.722  42.505  12.043
26218W        W92627   3.281  29.584  11.225
26219W        W92628  25.581  24.794   0.017
26220W        W92629  36.187  29.115  11.817
26221W        W92630  12.592  25.121  12.134
26222W        W92631  14.748  43.780   1.844
26223W        W92632  32.867  27.546  12.226
26224W        W92633  19.486  19.278  11.510
26225W        W92634  26.891  13.738  13.422
26226W        W92635  36.576  15.533   1.613
26227W        W92636   5.204   0.934   0.752
26228W        W92637  12.190  31.026   1.520
26229W        W92638  32.580  44.364  10.511
26230W        W92639  31.414  21.731   1.157
26231W        W92640  31.963  17.731   0.812
26232W        W92641  16.507   7.147   2.266
26233W        W92642   9.925  10.046   0.298
26234W        W92643  29.123   4.842  12.606
26235W        W92644   8.691   2.430   1.898
26236W        W92645   0.058  10.580   1.924
26237W        W92646  16.430  10.781   2.129
26238W        W92647  43.186  26.575   1.912
26239W        W92648  17.855  40.014   4.081
26240W        W92649   7.379  14.123   1.150
26241W        W92650  31.017  38.827   3.994
26242W        W92651  40.636  41.850  10.759
26243W        W92652   6.765  14.325   3.097
26244W        W92653   9.994  29.027   0.271
26245W        W92654   7.398   6.016   3.114
26246W        W92655  19.550   3.488   3.117
26247W        W92656  35.383  23.239  13.579
26248W        W92657  22.538   6.189  13.020
26249W        W92658   3.894   4.580   0.628
26250W        W92659  30.073  42.302  12.449
26251W        W92660  11.810  38.645   5.017
26252W        W92661  23.374  43.761   0.386
26253W        W92662  16.087  35.834   1.322
26254W        W92663   9.200  13.619   1.920
26255W        W92664  16.928  27.672   4.731
26256W        W92665  39.524  15.109   5.605
26257W        W92666  15.335  19.142   0.837
26258W        W92667  14.257  14.708   5.195
26259W        W92668  38.459  26.777   2.869
26260W        W92669   1.910  15.682  10.731
26261W        W92670  38.980  10.893   0.123
26262W        W92671  43.956  38.546  10.303
26263W        W92672  13.753   3.758  10.521
26264W        W92673  13.564  18.611  12.586
26265W        W92674  36.161   2.337   0.042
26266W        W92675   4.357  21.513   2.242
26267W        W92676  23.003   1.793  11.360
26268W        W92677  32.479  28.169  11.477
26269W        W92678   5.773  14.227  12.012
26270W        W92679  27.500   4.712   2.747
26271W        W92680  41.878  35.583  11.026
26272W        W92681  38.937  13.522  13.435
26273W        W92682  12.185   6.667  10.596
26274W        W92683  10.830  35.953   0.405
26275W        W92684  44.322  16.641  14.912
26276W        W92685  34.961  35.458  13.858
26277W        W92686  41.940  31.720   4.654
26278W        W92687  39.384  38.721   4.900
26279W        W92688  37.325   7.307  14.464
26280W        W92689  16.988   7.427   3.212
26281W        W92690  18.790  34.436   0.826
26282W        W92691   7.923  25.172   0.228
26283W        W92692  33.029  15.355   4.403
26284W        W92693  22.643   5.913   4.523
26285W        W92694   9.223  28.480  12.795
26286W        W92695  38.437  15.566  14.005
26287W        W92696  40.162  43.000  14.671
26288W        W92697  30.002  29.888  10.611
26289W        W92698  16.163  28.564   4.280
26290W        W92699   0.171  30.950  10.802
26291W        W92700  24.988  21.014   4.502
26292W        W92701  35.039  22.308  13.350
26293W        W92702  31.371  27.992   0.190
26294W        W92703  19.663  36.240  11.765
26295W        W92704  28.704   7.208   0.259
26296W        W92705  32.019  42.959   1.456
26297W        W92706  39.734  12.857  10.798
26298W        W92707   0.937   9.148   5.473
26299W        W92708  10.662  36.874   1.399
26300W        W92709  30.385  36.750  12.870
26301W        W92710  30.537  42.324  13.001
26302W        W92711   1.688  10.180  14.781
26303W        W92712  19.203  23.968  10.871
26304W        W92713  33.601  18.268   2.871
26305W        W92714   6.160  17.316  13.802
26306W        W92715  38.934  40.510   0.003
26307W        W92716  41.097  35.672   0.941
26308W        W92717   8.710  23.307   4.767
26309W        W92718  31.218  24.997  10.071
26310W        W92719   7.699  24.280   2.271
26311W        W92720   0.474  19.558  12.014
26312W        W92721  42.855  17.032  10.522
26313W        W92722  44.519  21.108  11.292
26314W        W92723  27.996   8.529   3.860
26315W        W92724  40.495  33.556  12.152
26316W        W92725  18.093  10.147  12.158
26317W        W92726  27.967  28.014  11.567
26318W        W92727  27.072   5.708   4.198
26319W        W92728   4.929  29.673  10.427
26320W        W92729  37.500   9.132  10.724
26321W        W92730  15.728  40.290  14.254
26322W        W92731  42.050  30.657   4.605
26323W        W92732   0.331  44.691  11.478
26324W        W92733   0.837  10.394  14.908
26325W        W92734  25.624  10.368   1.517
26326W        W92735  42.276   3.179  11.204
26327W        W92736  11.344  39.311   4.557
26328W        W92737  41.956  12.172   1.257
26329W        W92738  27.527  24.525   0.842
26330W        W92739   0.288   6.114   4.450
26331W        W92740  37.037  13.732   3.679
26332W        W92741  42.586  34.650  12.964
26333W        W92742  40.354  15.314  13.291
26334W        W92743  38.122  39.039  11.442
26335W        W92744  38.264  12.934   1.399
26336W        W92745  30.590  11.226  10.726
26337W        W92746   3.859  18.286   4.513
26338W        W92747  31.613  32.413   3.693
26339W        W92748  30.430  37.944   1.299
26340W        W92749  30.870  27.390  11.082
26341W        W92750   1.605  10.269   4.323
26342W        W92751  41.822  23.152   0.492
26343W        W92752  25.905  29.596  12.706
26344W        W92753  18.019  17.125  14.900
26345W        W92754  38.917  28.003  12.524
26346W        W92755  41.021   0.757   4.595
26347W        W92756  15.320   7.741  12.027
26348W        W92757  19.589  38.235   2.780
26349W        W92758  44.519   9.694  12.007
26350W        W92759   9.437  41.695  11.649
26351W        W92760  38.817  35.303   0.850
26352W        W92761  21.458  38.898  12.162
26353W        W92762  43.100  18.954   1.359
26354W        W92763  21.944   9.768   4.868
26355W        W92764  31.461   0.392   2.556
26356W        W92765  27.245  27.175   0.896
26357W        W92766   8.036  39.687  10.610
26358W        W92767  31.082   4.788   2.675
26359W        W92768  11.283   6.072  11.057
26360W        W92769  27.178  28.054   3.488
26361W        W92770  39.398  20.183   1.302
26362W        W92771  23.973  41.957  13.880
26363W        W92772  41.461   1.490  11.630
26364W        W92773   5.236   3.655   2.344
26365W        W92774  13.991   4.806  13.432
26366W        W92775  36.003  23.335   2.430
26367W        W92776  17.228  31.851  13.613
26368W        W92777  21.742  42.791   0.046
26369W        W92778  35.432  43.290   0.339
26370W        W92779  15.449  26.173   1.592
26371W        W92780  31.175  20.316  10.754
26372W        W92781  36.047  17.619  12.371
26373W        W92782  22.771  27.537   3.926
26374W        W92783  38.022  36.919   1.589
26375W        W92784  39.978  38.865   3.503
26376W        W92785  33.125  18.188  11.542
26377W        W92786  19.700   0.978   3.714
26378W        W92787   4.722   7.473  10.955
26379W        W92788  12.882   7.149   1.009
26380W        W92789  17.189   8.297  11.762
26381W        W92790  18.090  19.484   1.245
26382W        W92791  28.541  23.003  10.070
26383W        W92792  15.611  24.080  13.269
26384W        W92793   5.529  36.591  11.854
26385W        W92794  15.753   5.270  11.973
26386W        W92795  31.106   2.409  11.593
26387W        W92796  40.432   6.891  11.866
26388W        W92797  14.715  20.364   2.322
26389W        W92798  37.859   7.248   3.678
26390W        W92799  15.840  34.396  13.035
26391W        W92800  15.238  27.942   2.924
26392W        W92801  41.237  27.505   0.016
26393W        W92802  16.967  37.968   1.221
26394W        W92803  24.668  23.980   4.523
26395W        W92804  29.598  43.731   3.603
26396W        W92805  41.033  18.852   1.548
26397W        W92806   7.123  44.241  13.545
26398W        W92807   4.762   4.380  11.518
26399W        W92808   0.696  28.508   2.910
26400W        W92809   4.531   4.523  10.678
26401W        W92810  27.534  40.345   4.070
26402W        W92811   7.085  14.329  14.476
26403W        W92812  15.432  20.238   0.458
26404W        W92813  22.025  24.604   0.855
26405W        W92814   3.176   8.933   3.811
26406W        W92815  20.740  31.289   4.068
26407W        W92816  21.618  36.972  11.071
26408W        W92817  42.747  32.559   3.202
26409W        W92818  38.215  32.136   4.989
26410W        W92819  23.077   7.653  13.472
26411W        W92820   4.773  44.532  11.671
26412W        W92821  24.016   4.199   0.509
26413W        W92822   4.988   0.968  14.916
26414W        W92823  14.330  21.274  13.896
26415W        W92824  20.693  15.988  12.080
26416W        W92825  23.089  44.863   4.674
26417W        W92826  34.050  30.995  14.234
26418W        W92827  10.739   6.358   3.863
26419W        W92828  34.411   8.390  10.618
26420W        W92829  42.409  17.383   0.031
26421W        W92830  13.524  11.153   2.195
26422W        W92831  35.369  14.168   0.997
26423W        W92832   0.300  29.382   1.077
26424W        W92833  15.778   3.230  11.748
26425W        W92834  34.656  18.747   1.380
26426W        W92835  43.075  19.398  14.291
26427W        W92836   0.936  10.954  13.488
26428W        W92837  25.696  31.462  12.815
26429W        W92838  12.396  19.329   0.396
26430W        W92839  10.746  21.293  12.083
26431W        W92840  36.957  27.050  11.654
26432W        W92841   9.850  29.921  14.298
26433W        W92842   8.872   4.468  14.328
26434W        W92843   5.408   8.340  12.629
26435W        W92844  22.673  38.544  12.496
26436W        W92845  28.411  19.972  13.485
26437W        W92846  25.220  25.223  12.467
26438W        W92847  23.090   4.527   4.578
26439W        W92848  17.115  21.139   1.701
26440W        W92849   1.468  29.135   1.076
26441W        W92850   1.096  30.493  12.282
26442W        W92851  41.434  44.140  14.429
26443W        W92852  37.921  19.313  14.106
26444W        W92853  35.887   1.913  12.899
26445W        W92854  33.483  42.822   2.216
26446W        W92855  39.498  15.255   4.175
26447W        W92856  11.834  32.476  14.941
26448W        W92857  23.498   1.707  11.407
26449W        W92858  37.511  19.676  14.105
26450W        W92859  12.690  31.599  14.807
26451W        W92860  30.256   8.137  14.255
26452W        W92861  21.128   9.386   2.390
26453W        W92862  10.674  25.545  13.059
26454W        W92863  13.262  35.656  12.390
26455W        W92864  16.543  21.044  13.808
26456W        W92865  34.312  17.991   4.000
26457W        W92866   0.520  31.895  12.932
26458W        W92867  41.358  40.067   2.784
26459W        W92868  14.958  34.347   4.006
26460W        W92869  24.078  40.967   3.782
26461W        W92870  33.279  37.716  12.922
26462W        W92871  37.503  33.447  13.453
26463W        W92872   0.221  21.137  13.573
26464W        W92873  39.293   8.332   2.781
26465W        W92874  16.067  30.929  13.422
26466W        W92875  23.944   5.443  10.702
26467W        W92876  25.731  22.293  13.541
26468W        W92877  34.952  18.263   4.093
26469W        W92878  23.504  12.648  10.640
26470W        W92879  28.548   9.258   2.839
26471W        W92880  26.582  33.159   2.203
26472W        W92881  11.791  19.393  13.056
26473W        W92882  23.504   1.156  12.057
26474W        W92883   7.919   0.309  12.439
26475W        W92884  28.743   8.302   2.116
26476W        W92885  19.825  18.136   1.347
26477W        W92886  30.373  35.552  12.964
26478W        W92887   3.239  39.317  12.395
26479W        W92888  40.929   5.394  13.785
26480W        W92889  22.226   1.140   1.246
26481W        W92890  14.140  31.345  12.083
26482W        W92891   0.853  43.354   4.571
26483W        W92892  37.376  29.936   3.545
26484W        W92893  29.005  21.479  12.555
26485W        W92894  31.434   6.313   2.381
26486W        W92895  21.812   8.260  14.017
26487W        W92896  25.163  26.066  10.728
26488W        W92897  43.521  20.096  12.566
26489W        W92898  34.099  13.647   1.115
26490W        W92899  28.551  41.273   1.352
26491W        W92900  29.161  27.563   0.217
26492W        W92901  18.212  44.217   1.799
26493W        W92902  33.551  25.726  10.969
26494W        W92903  13.693  19.309  11.917
26495W        W92904  34.518  12.121  10.613
26496W        W92905  32.182  16.144  11.277
26497W        W92906   5.203  14.319   4.671
26498W        W92907  22.965  40.139   2.757
26499W        W92908  27.518  26.353   3.066
26500W        W92909  29.476  10.786   1.364
26501W        W92910   8.849  38.343   3.653
26502W        W92911  20.535  12.183  12.442
26503W        W92912  21.267  19.370  14.311
26504W        W92913  11.354  24.692   1.432
26505W        W92914   7.362  14.557  12.081
26506W        W92915  28.855  36.737  13.738
26507W        W92916  31.333   4.228   1.940
26508W        W92917  44.485  15.061   4.798
26509W        W92918  21.359  23.160   4.177
26510W        W92919  14.933  23.675  12.438
26511W        W92920  44.243  18.251   2.807
26512W        W92921  40.854  17.026  11.683
26513W        W92922  39.132  34.683  13.599
26514W        W92923   2.861  11.458   3.726
26515W        W92924  40.745   7.236   4.413
26516W        W92925  21.443   4.314   0.344
26517W        W92926  28.467  31.381  12.127
26518W        W92927  12.710  36.461   2.067
26519W        W92928  17.811  25.676  11.949
26520W        W92929  11.175  18.073  13.426
26521W        W92930   2.511  35.088   0.244
26522W        W92931  12.981  23.291   1.759
26523W        W92932  43.911  44.733  11.515
26524W        W92933  33.159  27.565  12.689
26525W        W92934   0.219  12.087  10.693
26526W        W92935  25.478  19.560  13.290
26527W        W92936  21.515  16.723  14.347
26528W        W92937   6.410  41.951   2.442
26529W        W92938   0.883  19.979   3.388
26530W        W92939  41.480  12.886  14.505
26531W        W92940   6.633  38.428   1.418
26532W        W92941  24.171  42.378  12.093
26533W        W92942  44.281   2.486  13.184
26534W        W92943  40.056  40.350   1.339
26535W        W92944   0.177   4.221  14.048
26536W        W92945  12.364  44.754  11.148
26537W        W92946  29.221   3.240  12.071
26538W        W92947  40.530   8.348   4.465
26539W        W92948   7.244  22.262  14.288
26540W        W92949  38.803  36.014   3.627
26541W        W92950  37.765  30.591  13.764
26542W        W92951   5.452  31.024  12.192
26543W        W92952  23.089  34.092  11.542
26544W        W92953  39.180  22.149   1.810
26545W        W92954  36.554   1.140  13.842
26546W        W92955   0.616  15.625   0.523
26547W        W92956  18.383   2.298  11.000
26548W        W92957  12.508  29.066   0.289
26549W        W92958  14.513  20.059   4.922
26550W        W92959  23.678  31.009   0.327
26551W        W92960   7.142   6.059   0.371
26552W        W92961  18.918   7.687  11.126
26553W        W92962  36.018   2.437  10.879
26554W        W92963  32.038  44.177  12.007
26555W        W92964  22.473   5.832  14.404
26556W        W92965   7.171  16.761   0.314
26557W        W92966  30.071  23.950   4.011
26558W        W92967  27.889   6.994   1.207
26559W        W92968  11.750   0.058  14.814
26560W        W92969  12.612  12.355   4.359
26561W        W92970  13.787  32.847   1.023
26562W        W92971   4.359  20.709   0.188
26563W        W92972  23.618  30.978   1.180
26564W        W92973   2.710  15.582   3.183
26565W        W92974  38.973  35.992  13.249
26566W        W92975  25.083   9.725  11.118
26567W        W92976  39.590  23.920  10.689
26568W        W92977  23.200  32.384   3.132
26569W        W92978  41.560  40.295  14.849
26570W        W92979  24.254   0.979  12.352
26571W        W92980  36.909  43.447   1.958
26572W        W92981   5.219  30.653  11.940
26573W        W92982  21.169  22.990   3.733
26574W        W92983  21.987  15.362  14.942
26575W        W92984   4.184  20.204   1.427
26576W        W92985  18.037  21.855   0.237
26577W        W92986  25.601  41.955  11.667
26578W        W92987  18.996  14.850  11.482
26579W        W92988  30.958  21.383   4.509
26580W        W92989   5.337  18.917  14.690
26581W        W92990  22.156  33.113  14.937
26582W        W92991   9.175  19.225   0.577
26583W        W92992  16.254  27.123   2.616
26584W        W92993  35.736  42.441  13.483
26585W        W92994   2.798  14.799   3.966
26586W        W92995  17.315  28.504   1.590
26587W        W92996  31.493  23.938  12.130
26588W        W92997  15.361  35.585  11.821
26589W        W92998  33.423  38.699   5.015
26590W        W92999  43.949   7.333  14.806
26591W        W93000  30.647  13.059  12.509
26592W        W93001  41.565  20.788  14.884
26593W        W93002  35.576  14.091   1.914
26594W        W93003  40.223  19.506  13.726
26595W        W93004  23.447  11.363  14.419
26596W        W93005  34.108  40.687  12.143
26597W        W93006  43.961  22.855   1.913
26598W        W93007  16.691  37.840  13.913
26599W        W93008  39.284  10.346  12.940
26600W        W93009   5.192   1.418   4.491
26601W        W93010  34.916  36.456  11.462
26602W        W93011  22.564   8.576   0.711
26603W        W93012  33.602  29.176  10.668
26604W        W93013  41.836  26.775  11.114
26605W        W93014  43.805  23.043   4.754
26606W        W93015  37.408  44.818   1.728
26607W        W93016  26.169   9.881   1.010
26608W        W93017  35.877  31.134   4.092
26609W        W93018  27.445  23.141  10.687
26610W        W93019  39.345  32.669   1.394
26611W        W93020  17.783  25.150  11.624
26612W        W93021  12.155  38.356   1.678
26613W        W93022  38.648  21.212  11.198
26614W        W93023   1.071  14.076   3.597
26615W        W93024  35.812  27.496   0.437
26616W        W93025  30.950  13.699  11.026
26617W        W93026  27.467  27.028   1.737
26618W        W93027  34.115   7.297   2.413
26619W        W93028  30.063  41.492   2.739
26620W        W93029  21.521  40.521  13.804
26621W        W93030   4.872  26.862  12.440
26622W        W93031   5.470  20.211   3.187
26623W        W93032  17.530  38.333  11.964
26624W        W93033  22.830  30.592   4.595
26625W        W93034  14.773   0.855  13.928
26626W        W93035  11.479  16.636  13.377
26627W        W93036   1.930  10.738  11.990
26628W        W93037  12.938  36.441  14.937
26629W        W93038   0.486  32.585   2.892
26630W        W93039  14.197  30.308  12.090
26631W        W93040  41.902   3.793  10.730
26632W        W93041  26.993  10.224  14.100
26633W        W93042  42.438  37.631   2.223
26634W        W93043  44.084  22.616  11.993
26635W        W93044  29.734  10.906   2.825
26636W        W93045  32.855  29.910   2.192
26637W        W93046  27.989   3.301   1.862
26638W        W93047  38.804  26.006   4.249
26639W        W93048  28.443  20.994  13.466
26640W        W93049   5.122  36.297  10.578
26641W        W93050  36.067  24.033   0.845
26642W        W93051  42.996   7.295  10.772
26643W        W93052  21.554  16.557  11.081
26644W        W93053  10.441   7.698  11.614
26645W        W93054   7.776  42.603   2.332
26646W        W93055  24.150  21.757   1.180
26647W        W93056  44.301  41.841   1.149
26648W        W93057  41.454  12.639  14.955
26649W        W93058   8.864  42.412   3.237
26650W        W93059  14.816  32.921  13.066
26651W        W93060  24.756  18.054   2.342
26652W        W93061  40.430  31.189   0.251
26653W        W93062  11.750  30.079   1.177
26654W        W93063  32.658   2.459   1.909
26655W        W93064  26.688  18.664   0.259
26656W        W93065   7.541  39.493  14.672
26657W        W93066  27.427   9.147  14.803
26658W        W93067  11.760  28.501   2.140
26659W        W93068   7.255   9.384   2.111
26660W        W93069   2.812   7.657   1.448
26661W        W93070  25.205  33.438   4.543
26662W        W93071  39.490   7.322  12.503
26663W        W93072  39.546  33.386   0.410
26664W        W93073  10.379  12.377   0.745
26665W        W93074   7.391   3.922   3.613
26666W        W93075   4.329  27.106  13.819
26667W        W93076  28.717  15.028  14.981
26668W        W93077  44.816  19.444  13.473
26669W        W93078   1.688  24.632   1.455
26670W        W93079  13.053  16.701  12.040
26671W        W93080  38.191  13.254   3.324
26672W        W93081  30.563  14.364   0.386
26673W        W93082  30.436   7.260   0.849
26674W        W93083  23.097  11.590  11.197
26675W        W93084  32.087  19.257   0.834
26676W        W93085  19.314  15.204  11.116
26677W        W93086   0.865  31.710   4.204
26678W        W93087   9.022  24.926  12.193
26679W        W93088  10.335  18.985   1.704
26680W        W93089   3.863  29.707  12.439
26681W        W93090   9.312  36.326   1.909
26682W        W93091  16.709   5.266  10.872
26683W        W93092  31.043   7.733   3.740
26684W        W93093   8.004  13.745  10.609
26685W        W93094  34.841  18.559   3.690
26686W        W93095  22.781  10.627   3.005
26687W        W93096  13.595  16.125  12.004
26688W        W93097  25.017   8.783   4.329
26689W        W93098  21.933  24.664  12.024
26690W        W93099  39.337  40.166   4.814
26691W        W93100   8.445  18.111   1.203
26692W        W93101  41.472  18.275   5.000
26693W        W93102  40.904  26.960   0.027
26694W        W93103  41.045   1.426  13.063
26695W        W93104   3.221  22.720  10.652
26696W        W93105  12.234  36.065   0.399
26697W        W93106  35.224  21.054   1.474
26698W        W93107  34.613  17.321  11.646
26699W        W93108   4.148  34.357   3.215
26700W        W93109  25.756  43.820  12.117
26701W        W93110   8.778  20.170   4.350
26702W        W93111  37.332  28.024   1.153
26703W        W93112  17.705  38.542  14.641
26704W        W93113  44.626  35.408   2.779
26705W        W93114  23.702  36.361  11.389
26706W        W93115  38.269  24.432  11.628
26707W        W93116   4.771  22.495  13.495
26708W        W93117  13.713  31.933   2.329
26709W        W93118  43.277  12.450   0.300
26710W        W93119  12.756  24.596   0.259
26711W        W93120  31.850  37.923   2.068
26712W        W93121  29.323   2.310  10.255
26713W        W93122  28.529   2.110   4.414
26714W        W93123  39.216  22.181   9.899
26715W        W93124  33.586  12.087  12.019
26716W        W93125  42.286   0.269   3.352
26717W        W93126  25.978  19.253  11.201
26718W        W93127   7.007  37.682  12.380
26719W        W93128  26.590  17.589  11.446
26720W        W93129  36.841  30.242   2.108
26721W        W93130  20.739  33.105  11.114
26722W        W93131  11.663   2.028  12.509
26723W        W93132   0.268  33.334   1.908
26724W        W93133  14.657  30.723   0.378
26725W        W93134   2.838   5.742   0.430
26726W        W93135   8.162   8.897  13.589
26727W        W93136  18.011  39.629  14.352
26728W        W93137  29.592   0.331  13.857
26729W        W93138  13.288  18.431   3.549
26730W        W93139  10.941  13.885  13.061
26731W        W93140  18.646  26.198   0.319
26732W        W93141  25.515  32.601   1.220
26733W        W93142  23.749  42.274   0.413
26734W        W93143  19.056   4.364  11.469
26735W        W93144  40.098  28.595  14.885
26736W        W93145  38.076  14.658   4.084
26737W        W93146   8.988  42.049  14.099
26738W        W93147  13.405  29.040  14.413
26739W        W93148  42.419  26.373   4.103
26740W        W93149  26.058  32.788  13.802
26741W        W93150  24.672   6.266   2.154
26742W        W93151  23.077  13.572  12.205
26743W        W93152  41.972  38.151   3.834
26744W        W93153  34.782  28.259  10.317
26745W        W93154  22.020   3.837  14.824
26746W        W93155  30.106   4.043   2.185
26747W        W93156   8.280   1.346   1.250
26748W        W93157   9.139   4.176  13.964
26749W        W93158   3.037  12.569   1.359
26750W        W93159   0.102  32.581   0.011
26751W        W93160  43.829  14.193   2.339
26752W        W93161  20.889  29.653  12.838
26753W        W93162  18.580   5.666  10.600
26754W        W93163  11.474  42.439  13.203
26755W        W93164  24.433  26.173   0.247
26756W        W93165  16.037  21.401  11.970
26757W        W93166  39.615  15.733  11.507
26758W        W93167   7.319  32.815   5.127
26759W        W93168   8.141  12.192  10.730
26760W        W93169  44.274  14.802   1.743
26761W        W93170  16.979  15.609   3.035
26762W        W93171  37.615   3.344  12.608
26763W        W93172   8.877  41.803  12.495
26764W        W93173  23.934   8.702  12.860
26765W        W93174  31.951  40.260  12.608
26766W        W93175  10.482   3.997  14.716
26767W        W93176  37.327  15.724  13.348
26768W        W93177  17.687   2.738  11.164
26769W        W93178   3.548  39.130   3.189
26770W        W93179   8.444  35.434   2.831
26771W        W93180   0.708  22.215   3.239
26772W        W93181   9.697  41.076  11.180
26773W        W93182  30.430  42.736   3.758
26774W        W93183  16.621  16.289  11.590
26775W        W93184  17.757   6.762  14.819
26776W        W93185   8.349  42.593   4.568
26777W        W93186  15.095  32.254  10.827
26778W        W93187  35.716  30.573  12.905
26779W        W93188   8.785  10.483  13.662
26780W        W93189  21.051   6.459  11.470
26781W        W93190  37.402  27.498   0.347
26782W        W93191   2.024  37.497   3.718
26783W        W93192   9.690  25.580   2.875
26784W        W93193   7.852  22.866  13.866
26785W        W93194  27.197  26.163  11.989
26786W        W93195   9.055  36.482  13.514
26787W        W93196  26.150  27.304   2.400
26788W        W93197  18.190  27.509   0.934
26789W        W93198  38.122  14.005   5.140
26790W        W93199  19.797  29.076  14.366
26791W        W93200  29.871  10.303   4.826
26792W        W93201  43.546   1.461   3.179
26793W        W93202   2.933  15.677   2.733
26794W        W93203  22.278   3.323   1.963
26795W        W93204   2.400  35.752  10.193
26796W        W93205  12.166  19.038  11.195
26797W        W93206  21.667  33.511  12.831
26798W        W93207  24.152  19.327   3.682
26799W        W93208  22.373  33.453   2.627
26800W        W93209  25.206  13.708  14.931
26801W        W93210  34.090  23.391   1.317
26802W        W93211  42.327  17.155   2.260
26803W        W93212   5.884  44.964   3.160
26804W        W93213   7.101  14.145   2.131
26805W        W93214  32.983  43.537   1.775
26806W        W93215  17.665  20.684   1.792
26807W        W93216  30.732  33.281   5.100
26808W        W93217  12.673  27.668  13.574
26809W        W93218  34.068  19.665   0.327
26810W        W93219  15.427  26.452   4.504
26811W        W93220  43.924  20.105  10.355
26812W        W93221   2.023  15.054  14.792
26813W        W93222  15.569  18.947   4.581
26814W        W93223   3.439   6.413  13.290
26815W        W93224  34.450  43.081   4.470
26816W        W93225  23.656   6.218  12.520
26817W        W93226  21.220  19.880  14.172
26818W        W93227  35.761  21.077   5.121
26819W        W93228  25.635  21.593   3.958
26820W        W93229  25.462   7.815   3.747
26821W        W93230   2.775   9.840   1.767
26822W        W93231  29.478  19.773  11.119
26823W        W93232  13.292  11.028   3.934
26824W        W93233  30.167  22.837  12.833
26825W        W93234  33.154  31.598   1.768
26826W        W93235  25.813  20.705  10.335
26827W        W93236  38.867   2.845  14.965
26828W        W93237  41.800  32.133  10.521
26829W        W93238   7.365   6.384  14.849
26830W        W93239  25.765  23.596  11.942
26831W        W93240  31.806  28.228   2.813
26832W        W93241  30.591   8.560   5.065
26833W        W93242  12.411  31.675   2.834
26834W        W93243  38.497  43.580  12.447
26835W        W93244   5.204  16.318   2.871
26836W        W93245   8.708  41.090  11.984
26837W        W93246   7.905   2.729   0.322
26838W        W93247  16.549  17.173  12.411
26839W        W93248  22.492   6.419   4.518
26840W        W93249  11.572   4.431   4.237
26841W        W93250   7.467  16.658  14.906
26842W        W93251   8.288  35.110  14.923
26843W        W93252  20.597   0.872   2.362
26844W        W93253   6.303  16.113  12.992
26845W        W93254  27.811  31.139  14.508
26846W        W93255  16.313  27.503   3.417
26847W        W93256   4.742  14.072   2.429
26848W        W93257  10.089  39.469   2.160
26849W        W93258  41.922  21.497   4.950
26850W        W93259  19.444  13.738   0.845
26851W        W93260   5.333  10.605  11.085
26852W        W93261   0.831   6.091   2.154
26853W        W93262   8.764   7.834   0.531
26854W        W93263  11.367   5.469   2.754
26855W        W93264  37.113   3.314  11.770
26856W        W93265  23.566   8.940  11.927
26857W        W93266  15.134  20.868  12.028
26858W        W93267  27.045  30.384   4.622
26859W        W93268  24.257  31.625  10.759
26860W        W93269  16.037  41.057  13.869
26861W        W93270  29.463  26.819   2.848
26862W        W93271  34.261  25.488  14.911
26863W        W93272  42.982  33.964   2.317
26864W        W93273  11.569  23.849   3.723
26865W        W93274  44.392  43.049  12.476
26866W        W93275   1.279  20.962   1.052
26867W        W93276  43.277  28.646   1.151
26868W        W93277   6.975  12.401   2.192
26869W        W93278   3.413  36.141  12.161
26870W        W93279  24.476  25.725  14.530
26871W        W93280  25.097   8.733  10.969
26872W        W93281  42.948  15.646  14.547
26873W        W93282  33.503  25.872  12.344
26874W        W93283  36.873   5.185  10.633
26875W        W93284  18.578  34.627   1.303
26876W        W93285  27.327  14.214  11.130
26877W        W93286  28.944   6.367  14.229
26878W        W93287  37.434  40.870  13.824
26879W        W93288  18.604  11.962  13.692
26880W        W93289   9.929  25.214  13.349
26881W        W93290  21.593  37.255   1.651
26882W        W93291  16.449  23.923  11.963
26883W        W93292  34.402  43.719   0.724
26884W        W93293   1.416  28.291  12.857
26885W        W93294  27.179  19.160   3.573
26886W        W93295  13.638  19.671   1.738
26887W        W93296  11.259  27.981   1.244
26888W        W93297  38.743  16.046  11.102
26889W        W93298  38.604  37.666  11.435
26890W        W93299  23.523  11.863  11.080
26891W        W93300  11.099  20.898   4.802
26892W        W93301  27.081  20.289  13.645
26893W        W93302   1.000  35.378  10.635
26894W        W93303  36.811   3.867  14.325
26895W        W93304  10.762  24.557   4.480
26896W        W93305   4.475  14.070  11.703
26897W        W93306  22.215  43.625  14.803
26898W        W93307  26.077  43.744  11.719
26899W        W93308  25.558  29.857   2.779
26900W        W93309   2.305  14.520  10.809
26901W        W93310   4.244  32.585  10.556
26902W        W93311  21.982  36.574   0.074
26903W        W93312  27.318   3.366   3.339
26904W        W93313  10.229  33.381   1.862
26905W        W93314   5.002  17.936   1.770
26906W        W93315  20.755  24.469   3.683
26907W        W93316  39.532  16.838  13.640
26908W        W93317  44.979  23.529   3.145
26909W        W93318   4.238  24.977   2.291
26910W        W93319  19.121  18.570   1.717
26911W        W93320  34.674  19.059   3.232
26912W        W93321  13.090  30.157  11.161
26913W        W93322   7.023  27.716   3.736
26914W        W93323  36.268  44.110  14.915
26915W        W93324  34.321  24.906  10.769
26916W        W93325  16.415   8.958   2.786
26917W        W93326  23.522  27.553   4.635
26918W        W93327  26.423   2.960  13.265
26919W        W93328   7.707  33.938   0.782
26920W        W93329  38.149  38.566   3.159
26921W        W93330   0.407  40.631   4.291
26922W        W93331  37.319  22.055  12.702
26923W        W93332   1.947   2.816   3.781
26924W        W93333  31.751  33.994   4.015
26925W        W93334  23.570  23.724   0.866
26926W        W93335   0.982  12.650   0.424
26927W        W93336  35.915  43.439  14.523
26928W        W93337  39.707  15.619   1.370
26929W        W93338  41.123   6.734  13.962
26930W        W93339  41.720  39.389   0.727
26931W        W93340  19.204  42.292  14.298
26932W        W93341  27.799  26.098   1.759
26933W        W93342  15.169   1.871   3.122
26934W        W93343   1.974  13.544  11.514
26935W        W93344  26.974   4.725  10.268
26936W        W93345   2.524  20.600   0.490
26937W        W93346  13.154   4.003   0.098
26938W        W93347  23.157  31.207   2.363
26939W        W93348   9.319  21.095   1.134
26940W        W93349   1.363  33.103  10.639
26941W        W93350  25.645  25.968  10.546
26942W        W93351   4.878  26.445  14.330
26943W        W93352  10.887  15.163   0.319
26944W        W93353   8.753   6.651   4.570
26945W        W93354   3.898   6.282  13.848
26946W        W93355  43.624   7.258  14.358
26947W        W93356  11.658  43.515   3.725
26948W        W93357  21.667   8.799  11.563
26949W        W93358  41.981   1.739  12.889
26950W        W93359  35.584  41.778   2.730
26951W        W93360  15.771  30.388  12.882
26952W        W93361  29.468  18.189  13.737
26953W        W93362   5.085  26.590   3.348
26954W        W93363  35.554  30.409   2.402
26955W        W93364  13.461  33.575   3.274
26956W        W93365  35.441  28.951   0.294
26957W        W93366  24.334  25.983  11.918
26958W        W93367  19.866  10.347   3.545
26959W        W93368  42.073  10.118  13.844
26960W        W93369   5.741  32.643   3.767
26961W        W93370  24.946  11.854   4.169
26962W        W93371   5.619  10.133  14.658
26963W        W93372  14.415  17.947  14.816
26964W        W93373  32.749   7.819   2.745
26965W        W93374  23.191  37.603  14.534
26966W        W93375  34.032  40.016  11.646
26967W        W93376  21.127  44.449  12.606
26968W        W93377  10.302  42.931  12.798
26969W        W93378  14.333  43.334   4.866
26970W        W93379  32.655  28.570  10.570
26971W        W93380  42.494  40.480   2.711
26972W        W93381  13.010  30.837   0.853
26973W        W93382  32.977   2.729   3.534
26974W        W93383  37.355  39.749  14.501
26975W        W93384  39.432   0.365  14.928
26976W        W93385   1.430  19.336  11.078
26977W        W93386   1.008   5.631   2.689
26978W        W93387  11.718  31.956   2.101
26979W        W93388  30.893  41.323  11.210
26980W        W93389  20.833  41.477   4.126
26981W        W93390   1.039  23.703  12.665
26982W        W93391   9.841  23.749   1.697
26983W        W93392   4.523  31.956   0.378
26984W        W93393   5.692   6.276  10.949
26985W        W93394  10.151  35.522  11.109
26986W        W93395   4.073  21.282   3.126
26987W        W93396   2.510  27.165  11.727
26988W        W93397  18.610   7.638  10.693
26989W        W93398  32.707  23.726   2.204
26990W        W93399  13.727  32.751   5.003
26991W        W93400  39.463   4.981  13.859
26992W        W93401  12.821  32.459  10.293
26993W        W93402  30.967   8.764   2.353
26994W        W93403  26.423  38.665   2.329
26995W        W93404  20.798  16.716  13.390
26996W        W93405  13.310  31.758  13.073
26997W        W93406  14.332  21.991  12.005
26998W        W93407   0.907  13.823   3.150
26999W        W93408  39.294  24.876  13.821
27000W        W93409  32.974  17.680   0.559
27001W        W93410  39.567  15.190   2.869
27002W        W93411  17.286  37.901   3.396
27003W        W93412   1.352   1.906   1.717
27004W        W93413   3.263  37.862   1.462
27005W        W93414  14.196   2.449  14.936
27006W        W93415  13.804   5.926  11.555
27007W        W93416  24.310  23.063   2.458
27008W        W93417   3.162  43.337  13.576
27009W        W93418   2.473  39.428  11.995
27010W        W93419  24.567   2.103   3.703
27011W        W93420   4.364  31.642   3.131
27012W        W93421  37.663  25.048   5.101
27013W        W93422   6.579  38.554  10.474
27014W        W93423  41.909  37.953   4.847
27015W        W93424  29.685  14.474   4.181
27016W        W93425  38.892   1.463  13.394
27017W        W93426  23.559  17.013   2.304
27018W        W93427  38.315  26.464   0.562
27019W        W93428  27.287  25.153   1.749
27020W        W93429  15.875  44.683   0.782
27021W        W93430  21.614  44.330  12.713
27022W        W93431   2.949  11.910  14.499
27023W        W93432  18.995  24.989   0.776
27024W        W93433   7.848  44.958  11.983
27025W        W93434   5.002  10.288   2.113
27026W        W93435   3.356  24.992   5.010
27027W        W93436  36.494  33.846  14.761
27028W        W93437  13.772  33.069  11.598
27029W        W93438  14.810  31.053   4.385
27030W        W93439   3.755  33.280  13.879
27031W        W93440  31.139  15.290   1.695
27032W        W93441  25.810  26.425   4.841
27033W        W93442  15.324   2.896  10.581
27034W        W93443  26.463  30.948  10.710
27035W        W93444   8.150  36.457   4.305
27036W        W93445  36.063  27.517  10.526
27037W        W93446   9.237   8.793  12.696
27038W        W93447  18.965   2.413  11.885
27039W        W93448  27.271  14.400  12.407
27040W        W93449  32.627  19.264  13.135
27041W        W93450   9.555  36.346  10.262
27042W        W93451   1.924   0.921   3.721
27043W        W93452  23.989  24.534  14.828
27044W        W93453   0.989   8.637   3.594
27045W        W93454  28.137   3.655  13.908
27046W        W93455  39.933  37.242  13.902
27047W        W93456  36.619   9.586  10.736
27048W        W93457   0.251   3.816   2.307
27049W        W93458   5.362  10.311   3.753
27050W        W93459  22.016  27.141  12.022
27051W        W93460  26.690   3.159   2.295
27052W        W93461  18.285  21.138  10.149
27053W        W93462  18.675   1.834  14.882
27054W        W93463  19.362  13.573   3.931
27055W        W93464  22.209  12.912  11.417
27056W        W93465   5.396  44.574   1.965
27057W        W93466  42.911   5.225   2.937
27058W        W93467  19.685  38.054  14.401
27059W        W93468  35.895  37.523   4.504
27060W        W93469  35.684   0.389   0.810
27061W        W93470   9.496  32.998   1.823
27062W        W93471  40.416  14.307   3.210
27063W        W93472  26.654  16.612   2.289
27064W        W93473  37.802  16.291  11.093
27065W        W93474  23.688  33.929  12.933
27066W        W93475   9.407  17.689  14.287
27067W        W93476  31.088   6.016  10.510
27068W        W93477  15.109  24.756   3.484
27069W        W93478  29.689  33.113   2.908
27070W        W93479   2.622  30.478   1.212
27071W        W93480  31.641  32.171   2.354
27072W        W93481  43.435  14.657   3.804
27073W        W93482  36.482   4.461   0.964
27074W        W93483  18.596   7.772  14.286
27075W        W93484  22.056  20.669   2.302
27076W        W93485  38.044  11.377   1.465
27077W        W93486   6.667  44.412  14.910
27078W        W93487  11.690   5.755   0.543
27079W        W93488  15.976  40.540   0.157
27080W        W93489  18.267  21.670  10.431
27081W        W93490  40.102  25.128  12.497
27082W        W93491  29.586  17.557  12.600
27083W        W93492  17.562  13.759  11.679
27084W        W93493  28.065   6.585  10.200
27085W        W93494  18.323  17.610   0.354
27086W        W93495  17.210   8.497  13.708
27087W        W93496   3.832  26.149  12.612
27088W        W93497   5.998  18.244  12.166
27089W        W93498  33.438   9.747  12.436
27090W        W93499  36.455  21.982   3.180
27091W        W93500  23.586   6.879   0.412
27092W        W93501  35.575  34.078   2.323
27093W        W93502  40.432  41.128   4.852
27094W        W93503   7.471   4.886   2.172
27095W        W93504  18.586  10.420   0.419
27096W        W93505  44.030  43.418   0.238
27097W        W93506  43.945  20.448  12.618
27098W        W93507  15.237  26.468  12.481
27099W        W93508  40.829  13.662   2.734
27100W        W93509   7.212   2.954  10.746
27101W        W93510  19.780  10.177  12.948
27102W        W93511  27.863  40.212  12.538
27103W        W93512  25.768  25.201  10.188
27104W        W93513  23.589  24.674   1.734
27105W        W93514  35.364  35.399   3.124
27106W        W93515  36.528  24.718   1.195
27107W        W93516  32.901   7.113   4.497
27108W        W93517  25.528  11.161   4.369
27109W        W93518  21.709  34.958  13.888
27110W        W93519   6.437  23.233   0.329
27111W        W93520  28.982  31.052   4.405
27112W        W93521  20.103  36.888   0.764
27113W        W93522  17.772  15.516  11.182
27114W        W93523  34.896  35.977  13.830
27115W        W93524   1.365  17.154  13.063
27116W        W93525  28.573  36.842   2.837
27117W        W93526  31.640  27.632  13.379
27118W        W93527   7.845  37.490  14.177
27119W        W93528  24.238  27.044   0.782
27120W        W93529  13.060  16.587  12.885
27121W        W93530  26.906  14.672  13.948
27122W        W93531  13.880   3.299   0.450
27123W        W93532   1.896  42.455   3.348
27124W        W93533  12.986   4.911  12.563
27125W        W93534  11.761  29.116   0.939
27126W        W93535   7.396  35.690  14.096
27127W        W93536   9.771  39.509   1.739
27128W        W93537  28.758  22.294  13.467
27129W        W93538  26.951  15.636   4.754
27130W        W93539  28.948  28.288  10.603
27131W        W93540  31.293  17.554   3.732
27132W        W93541   8.710  12.304   1.273
27133W        W93542   1.712   4.958   3.129
27134W        W93543  43.444  27.596   2.463
27135W        W93544   0.465  15.800   2.202
27136W        W93545  35.783  17.733   4.224
27137W        W93546  28.694  27.235  13.404
27138W        W93547  42.342   0.353   4.784
27139W        W93548  13.316  32.625   1.008
27140W        W93549   7.411  43.462  11.087
27141W        W93550  38.781  32.295  11.242
27142W        W93551  30.572   6.362   0.909
27143W        W93552  17.643  23.060   1.217
27144W        W93553   0.485  11.859   2.409
27145W        W93554  40.057  41.026   0.203
27146W        W93555   6.236  16.382  11.598
27147W        W93556  34.487   1.124   4.549
27148W        W93557   5.925  12.102   3.844
27149W        W93558   5.333   3.887  11.901
27150W        W93559  43.580  11.296  12.027
27151W        W93560  15.207  31.732  10.656
27152W        W93561  40.481  19.644   1.879
27153W        W93562  42.423  19.115   2.602
27154W        W93563  44.870  33.461   4.664
27155W        W93564  25.737  33.034  12.873
27156W        W93565  11.240  43.789   0.781
27157W        W93566  20.522  11.290   3.643
27158W        W93567  24.085  24.678  11.563
27159W        W93568  40.297   8.919  14.025
27160W        W93569  34.717  41.610   2.688
27161W        W93570  11.698  27.993  13.871
27162W        W93571   8.348   9.348  11.088
27163W        W93572  21.740  31.500   1.798
27164W        W93573  23.484  27.787   3.289
27165W        W93574  27.172  13.321  13.494
27166W        W93575  32.117  29.621   0.221
27167W        W93576   7.424   1.494  11.037
27168W        W93577  34.955  36.571  10.949
27169W        W93578  37.959  24.601   0.315
27170W        W93579  28.441  18.750   4.385
27171W        W93580  10.866   3.371  10.987
27172W        W93581  19.270  44.461   0.433
27173W        W93582  16.463  13.201   1.702
27174W        W93583  20.638   0.723  14.395
27175W        W93584  30.922  32.379   2.735
27176W        W93585  25.796  10.893  10.783
27177W        W93586  35.032  40.272   5.030
27178W        W93587   5.706   0.984  11.509
27179W        W93588  22.604  23.478   3.289
27180W        W93589  34.869  23.152  13.613
27181W        W93590  33.134  32.729  13.770
27182W        W93591  11.425  19.022   2.779
27183W        W93592  25.413  35.514  14.420
27184W        W93593  41.418  16.222   2.813
27185W        W93594   4.218  11.349   4.490
27186W        W93595   9.776   0.371   4.944
27187W        W93596   3.409  20.740  12.410
27188W        W93597  18.845  18.369   0.243
27189W        W93598  41.338  13.948  11.604
27190W        W93599  44.886  17.712  11.634
27191W        W93600  10.562  11.237  11.469
27192W        W93601   0.940   6.387   1.744
27193W        W93602  32.099  41.485  10.586
27194W        W93603  19.481   7.259   1.855
27195W        W93604  12.690   3.870  10.601
27196W        W93605  29.714  11.860  10.862
27197W        W93606  11.082   9.832   3.287
27198W        W93607  37.357  34.984   3.717
27199W        W93608   8.569  14.515  13.822
27200W        W93609  43.410  27.679  11.040
27201W        W93610  38.534  16.183   0.247
27202W        W93611   5.953  33.722  12.083
27203W        W93612  34.604  16.003  13.320
27204W        W93613  30.526  38.125  13.130
27205W        W93614   4.334  20.289  11.033
27206W        W93615  26.410  15.523  13.065
27207W        W93616  30.396  31.471  14.543
27208W        W93617  22.460  21.547  11.397
27209W        W93618  22.082  44.156   4.093
27210W        W93619  31.602  30.672  10.767
27211W        W93620   9.643  29.109  10.755
27212W        W93621  35.485  34.557   2.045
27213W        W93622   2.207  41.423  14.479
27214W        W93623   6.661   4.668  11.573
27215W        W93624  20.584  15.323  14.952
27216W        W93625  31.828  19.687  10.571
27217W        W93626   1.487  20.730   0.228
27218W        W93627  15.711   4.687  12.876
27219W        W93628  35.101  30.222   0.371
27220W        W93629  16.448  14.384   3.347
27221W        W93630   8.715  25.923  12.125
27222W        W93631  24.166  31.082  11.588
27223W        W93632  28.221  26.069  14.007
27224W        W93633  18.624  15.335  14.743
27225W        W93634  31.250  40.942  13.389
27226W        W93635   9.285  24.180  14.357
27227W        W93636  27.715   5.913   1.448
27228W        W93637  26.508  23.332   4.437
27229W        W93638  41.994   3.908  11.581
27230W        W93639  33.133  29.219  13.092
27231W        W93640  11.353  16.360  12.919
27232W        W93641  31.420  15.078   3.236
27233W        W93642   3.674  15.663   4.169
27234W        W93643  35.679  37.927   3.227
27235W        W93644  41.322  31.082   2.401
27236W        W93645   1.359   9.243   0.921
27237W        W93646  38.431  10.446  10.991
27238W        W93647  30.489  15.625  13.536
27239W        W93648  32.539  21.748   3.741
27240W        W93649  27.447   5.784   3.684
27241W        W93650  28.258  31.207  10.484
27242W        W93651   8.145  25.437  11.453
27243W        W93652  10.131  31.261  14.646
27244W        W93653  35.476  38.602  14.593
27245W        W93654  15.277   0.492   3.834
27246W        W93655  42.803  35.608  10.840
27247W        W93656  18.445   4.729  12.515
27248W        W93657  26.852  35.964  12.507
27249W        W93658  27.059   2.756  14.740
27250W        W93659  35.165  10.640  11.546
27251W        W93660  39.514  44.049  13.370
27252W        W93661  16.976  28.047   4.325
27253W        W93662  37.004  33.745   0.682
27254W        W93663  24.602  22.114   0.197
27255W        W93664  30.418  24.517   3.272
27256W        W93665   1.679  13.477  12.684
27257W        W93666  16.538  18.432   4.102
27258W        W93667   9.697  26.610  11.937
27259W        W93668  15.425   0.555  14.539
27260W        W93669  26.494  17.567  14.245
27261W        W93670  27.442  34.971   1.872
27262W        W93671  24.497  27.872  10.724
27263W        W93672   8.405  34.484  13.872
27264W        W93673  18.107  31.425  10.728
27265W        W93674  21.658  32.134   4.985
27266W        W93675   6.920  27.640   4.990
27267W        W93676  25.756  17.178   4.297
27268W        W93677  15.820  41.402  14.814
27269W        W93678  13.408  21.688  12.078
27270W        W93679   5.694  27.002  12.658
27271W        W93680  36.466  22.066   4.559
27272W        W93681  29.473  27.640   3.900
27273W        W93682  24.806  28.160  12.280
27274W        W93683  12.682  40.296   1.965
27275W        W93684  30.487  43.608   4.526
27276W        W93685  15.623  27.667   4.179
27277W        W93686  38.256  39.247  13.047
27278W        W93687   0.936  27.420   0.321
27279W        W93688   3.774  18.852  12.599
27280W        W93689  11.772  43.137   3.354
27281W        W93690  27.163  34.075   2.379
27282W        W93691  16.367  12.834  13.942
27283W        W93692   3.306  21.501   3.803
27284W        W93693  22.299  28.140  11.936
27285W        W93694  31.043   1.497  13.289
27286W        W93695   5.357   3.443   1.759
27287W        W93696  10.840   4.206   9.963
27288W        W93697  41.551  24.231   1.161
27289W        W93698   8.980  37.512  11.256
27290W        W93699  43.957   1.225  11.717
27291W        W93700  25.184   8.467   2.692
27292W        W93701   0.295  23.954   0.878
27293W        W93702  28.549  25.932  12.043
27294W        W93703  13.356  30.896   3.131
27295W        W93704  36.829  28.038   4.107
27296W        W93705  15.515  17.629  14.961
27297W        W93706  14.426   0.778   4.838
27298W        W93707  31.179   2.016  14.887
27299W        W93708   1.321  12.898  12.120
27300W        W93709  36.820   0.576  14.610
27301W        W93710  32.372  16.833  11.491
27302W        W93711   3.874  33.543  11.272
27303W        W93712  33.519  10.730   3.311
27304W        W93713  21.578  23.950  13.489
27305W        W93714  35.007   7.848  12.173
27306W        W93715  42.530  37.887  14.203
27307W        W93716   8.999   2.345  12.451
27308W        W93717  22.633  33.506   1.626
27309W        W93718  35.221  26.601  13.450
27310W        W93719  30.756  38.325  14.077
27311W        W93720  27.537  12.079  12.397
27312W        W93721  34.939  29.359   3.239
27313W        W93722   1.898  24.375   1.863
27314W        W93723  33.689  39.803  14.000
27315W        W93724  20.085   7.806   3.712
27316W        W93725   7.779  44.036  11.172
27317W        W93726  28.185  13.774  12.316
27318W        W93727  30.577  23.953   1.468
27319W        W93728  34.889  38.963  10.730
27320W        W93729  22.384  30.697  13.239
27321W        W93730  18.752   8.392   0.332
27322W        W93731   3.417  29.397  14.899
27323W        W93732  26.792  35.317  10.715
27324W        W93733  36.639  16.146   0.263
27325W        W93734   5.343  42.529  13.898
27326W        W93735   6.218  14.562   1.819
27327W        W93736   2.057   8.305   2.896
27328W        W93737  15.981   1.588  12.462
27329W        W93738  16.592  28.110  10.966
27330W        W93739  37.557  28.002   0.161
27331W        W93740   1.354  33.558  12.973
27332W        W93741  30.628  39.513  12.961
27333W        W93742  12.634   3.260   4.308
27334W        W93743   0.994  34.461   3.174
27335W        W93744  44.768  23.048  14.932
27336W        W93745  36.417  39.232  10.409
27337W        W93746   7.857  29.503   3.873
27338W        W93747   7.398  28.864   4.611
27339W        W93748  19.852  20.115   3.831
27340W        W93749  38.599  17.717   1.422
27341W        W93750   2.981  38.420   2.727
27342W        W93751   6.211  22.757   0.354
27343W        W93752   2.680  35.701   4.133
27344W        W93753   2.819  24.715   2.817
27345W        W93754  40.426  38.562   3.435
27346W        W93755  42.355   9.308  12.929
27347W        W93756  35.363  13.902   3.245
27348W        W93757   8.495  17.125  14.301
27349W        W93758  11.831  23.452   1.380
27350W        W93759  29.621  28.160   0.350
27351W        W93760  14.723  44.576   1.409
27352W        W93761  17.748   5.768  12.179
27353W        W93762  26.804  10.269   1.852
27354W        W93763  20.147   4.907  12.447
27355W        W93764  11.816   7.753  14.758
27356W        W93765  40.521  28.407   4.140
27357W        W93766  39.992  42.216   2.885
27358W        W93767  25.474  32.972   3.291
27359W        W93768  14.570  25.247   4.616
27360W        W93769  30.118  27.387  12.431
27361W        W93770   6.317  37.895   2.866
27362W        W93771  41.937  18.505   4.925
27363W        W93772  35.152  20.855  14.714
27364W        W93773   3.731  13.957   0.104
27365W        W93774  34.012  10.227  12.542
27366W        W93775  13.080  18.281   3.074
27367W        W93776   9.702  20.126   1.131
27368W        W93777  21.956  33.894  11.978
27369W        W93778  16.888  21.539   3.984
27370W        W93779   5.640   1.868  13.028
27371W        W93780   5.724  41.483   3.356
27372W        W93781  13.731  32.303  10.508
27373W        W93782  34.685   3.884   4.485
27374W        W93783  14.993  33.967  14.460
27375W        W93784  14.277   9.811   4.615
27376W        W93785  21.366  40.798  10.883
27377W        W93786   4.135  44.004   0.509
27378W        W93787  38.334  18.731   1.322
27379W        W93788  26.271  10.591   1.905
27380W        W93789  20.810   4.847   2.722
27381W        W93790   7.170  41.306   1.630
27382W        W93791   8.708   4.941  10.547
27383W        W93792  14.472  20.975   2.414
27384W        W93793   6.625  21.013   0.892
27385W        W93794  16.159  19.566  11.024
27386W        W93795  32.124  29.442  14.281
27387W        W93796  10.927  21.632   0.404
27388W        W93797   3.617   9.767   3.326
27389W        W93798  20.297  11.353  11.523
27390W        W93799  19.521  36.560  13.623
27391W        W93800   3.339  21.475   4.681
27392W        W93801  13.335  27.540   1.292
27393W        W93802  23.210   5.458  12.449
27394W        W93803   1.472  40.444  11.139
27395W        W93804  24.569  24.781   2.606
27396W        W93805   9.319  10.101   2.342
27397W        W93806  12.597  40.375  11.985
27398W        W93807  23.540  42.955  14.247
27399W        W93808   0.043   0.797   1.233
27400W        W93809   0.849   0.749   1.714
27401W        W93810  15.629  37.277   0.835
27402W        W93811  15.033  13.855  14.517
27403W        W93812  38.451  26.593   4.182
27404W        W93813  39.605  34.085  11.039
27405W        W93814  17.442  30.989   2.771
27406W        W93815  15.619  16.756   2.207
27407W        W93816  25.682  42.659  14.986
27408W        W93817  31.555   1.057   5.537
27409W        W93818  11.701  37.489  14.851
27410W        W93819   7.706  39.759   3.748
27411W        W93820  20.340   9.570   1.925
27412W        W93821  16.041   0.496   2.725
27413W        W93822   1.171   6.628  12.620
27414W        W93823  20.606  21.980   2.210
27415W        W93824  35.774  30.234  14.972
27416W        W93825  34.494  11.454   0.420
27417W        W93826  41.361  34.646  13.047
27418W        W93827   2.306  18.033   0.343
27419W        W93828  43.211   8.939  14.993
27420W        W93829   9.293  41.766  10.725
27421W        W93830  12.305  43.264  14.406
27422W        W93831  44.691  38.353  13.401
27423W        W93832  18.254   1.231   0.912
27424W        W93833   7.213  15.872  11.547
27425W        W93834  35.026  24.763  11.496
27426W        W93835  36.761  34.607   0.388
27427W        W93836  28.195  29.054   3.160
27428W        W93837   3.549  29.643  11.652
27429W        W93838  39.817  17.709   0.932
27430W        W93839   3.250  39.869  12.189
27431W        W93840  37.754  24.401  11.618
27432W        W93841  35.712   9.743   0.221
27433W        W93842  30.353  31.005   2.201
27434W        W93843   3.831  23.429  10.702
27435W        W93844  35.519  36.130   0.331
27436W        W93845  17.921   0.225   2.780
27437W        W93846   4.318   0.884  12.562
27438W        W93847  13.757  41.004  11.236
27439W        W93848  41.531  32.159  12.926
27440W        W93849   6.947   8.367  12.426
27441W        W93850  11.616  14.159  10.226
27442W        W93851  41.787  36.958  14.775
27443W        W93852   2.573  13.140   0.701
27444W        W93853  44.818  24.126   0.976
27445W        W93854  38.086  38.816  10.620
27446W        W93855   9.219  33.827   0.797
27447W        W93856  39.261  19.279   2.306
27448W        W93857  42.964  32.401   5.049
27449W        W93858  16.234   9.373  14.419
27450W        W93859  10.368  27.736  13.132
27451W        W93860   2.287  33.868  13.884
27452W        W93861  36.129  40.786  12.003
27453W        W93862   4.522  37.442   1.370
27454W        W93863  40.786  24.447  12.144
27455W        W93864   4.928  36.890  13.162
27456W        W93865  24.062  43.096  10.104
27457W        W93866   5.057  40.356   3.282
27458W        W93867   0.812  35.088   4.485
27459W        W93868  24.769  41.051   4.542
27460W        W93869  43.928  40.151   1.275
27461W        W93870  43.345  32.165   1.643
27462W        W93871   6.647  32.446   3.122
27463W        W93872  17.694  44.492  14.444
27464W        W93873  23.983  37.146  14.529
27465W        W93874   9.088   8.420  14.397
27466W        W93875  26.667  11.347   1.866
27467W        W93876  31.722  38.447   1.703
27468W        W93877  19.330   9.599  13.513
27469W        W93878  14.876  11.734   5.010
27470W        W93879  34.668  15.138   2.275
27471W        W93880   9.672  32.442  13.989
27472W        W93881  16.618  11.602  10.770
27473W        W93882  41.735  22.739  13.424
27474W        W93883  34.922   0.909  10.640
27475W        W93884  40.071  11.242   4.145
27476W        W93885  14.568  43.286  10.579
27477W        W93886  21.318  38.289   3.057
27478W        W93887  30.799  21.708   4.888
27479W        W93888   2.960  24.674  12.420
27480W        W93889  19.084  40.250  12.079
27481W        W93890  20.063  36.906   3.373
27482W        W93891  34.228  31.922   2.387
27483W        W93892   6.889  44.734   0.258
27484W        W93893  31.668   2.614   1.163
27485W        W93894  33.909  25.235   0.278
27486W        W93895  15.275  39.920  10.190
27487W        W93896  16.240   6.995  10.309
27488W        W93897  13.201  11.522  11.218
27489W        W93898  25.428   7.110  12.365
27490W        W93899  11.995   9.114   4.743
27491W        W93900  34.019  10.146  11.994
27492W        W93901  11.287  26.377  13.056
27493W        W93902  29.976   3.855   4.302
27494W        W93903  16.231   9.930  14.837
27495W        W93904   6.844  42.926   1.680
27496W        W93905  12.020  24.678  13.826
27497W        W93906   2.998  37.851  14.794
27498W        W93907   6.071  24.644   0.533
27499W        W93908  30.947  28.717  11.267
27500W        W93909  23.545   1.474  10.349
27501W        W93910  35.210  32.979   1.428
27502W        W93911  43.567   0.660   4.384
27503W        W93912  10.077   1.170  14.899
27504W        W93913  30.083  42.424   0.289
27505W        W93914   3.480  21.949   3.628
27506W        W93915  16.547  10.676   0.660
27507W        W93916  22.704  31.478   1.813
27508W        W93917  42.332  20.330  10.249
27509W        W93918  35.367  16.378  12.871
27510W        W93919  12.772   3.875   3.166
27511W        W93920  35.573  26.425  11.584
27512W        W93921  25.559  14.840   0.856
27513W        W93922  30.199  38.794  11.621
27514W        W93923  34.124   1.025   4.175
27515W        W93924  12.133  14.695   0.208
27516W        W93925  20.329  13.359  13.843
27517W        W93926  32.528  13.381   1.934
27518W        W93927  13.078  34.780   2.353
27519W        W93928  36.483  33.354  13.950
27520W        W93929  10.201  18.423   0.756
27521W        W93930  43.034  36.931  12.526
27522W        W93931  37.412  43.863   3.256
27523W        W93932  29.107  22.584  12.153
27524W        W93933  36.904   0.776  11.615
27525W        W93934  17.519  42.090  14.433
27526W        W93935  11.864  27.652   1.415
27527W        W93936  24.642   4.537  10.494
27528W        W93937  20.801  11.718  12.331
27529W        W93938  24.517   1.039   1.800
27530W        W93939  27.611  27.789  10.987
27531W        W93940  38.150  13.377  12.877
27532W        W93941  33.678  32.194   0.646
27533W        W93942  30.936  34.555   4.818
27534W        W93943  39.529  35.846   1.814
27535W        W93944  42.264  34.634   2.230
27536W        W93945   7.770   0.982  13.722
27537W        W93946  25.477  31.386   1.714
27538W        W93947  32.574  41.694  10.548
27539W        W93948  41.046   9.373   5.524
27540W        W93949  19.146   5.347  11.890
27541W        W93950  15.053  19.008   4.603
27542W        W93951   6.493  36.007  12.874
27543W        W93952  29.118  26.160  11.640
27544W        W93953  26.105  29.017  12.041
27545W        W93954  18.569  42.840  11.093
27546W        W93955  15.251  26.895  11.163
27547W        W93956   1.911  44.768   4.623
27548W        W93957  18.778  40.438  10.531
27549W        W93958  31.510  38.324   3.441
27550W        W93959   0.745  38.371  13.223
27551W        W93960  17.967  35.549  12.385
27552W        W93961  18.590  23.644  12.987
27553W        W93962  11.259  25.030  14.648
27554W        W93963  16.319  37.282  12.241
27555W        W93964  35.925  23.118   3.405
27556W        W93965  15.102  31.189   3.198
27557W        W93966  13.748   2.184   2.106
27558W        W93967  22.183  34.144   0.881
27559W        W93968  20.853   0.847   0.366
27560W        W93969   8.038  37.151  11.055
27561W        W93970  36.565   5.806  10.658
27562W        W93971  11.568   1.910   0.440
27563W        W93972  23.738  39.672  12.107
27564W        W93973  40.928  29.893   1.918
27565W        W93974  27.912  38.307  10.716
27566W        W93975  29.203  40.093   0.969
27567W        W93976  18.715   8.159  12.805
27568W        W93977  10.614   2.603  14.510
27569W        W93978  18.484  31.388   4.317
27570W        W93979  42.044  42.975   0.206
27571W        W93980  30.512  42.085  11.667
27572W        W93981  41.460   7.248   2.783
27573W        W93982   8.929  20.837  12.783
27574W        W93983  27.968  23.105   4.572
27575W        W93984   7.938  17.509  11.982
27576W        W93985   8.699   0.505   5.130
27577W        W93986   8.090  44.447  12.002
27578W        W93987  22.730   6.569  14.888
27579W        W93988  34.545   5.682  14.407
27580W        W93989  33.002  26.660   0.783
27581W        W93990  25.994  40.963  13.013
27582W        W93991  44.400  10.878   5.061
27583W        W93992  32.541  20.562  11.904
27584W        W93993  18.671  16.383  12.979
27585W        W93994  25.650   3.873  12.364
27586W        W93995   5.582  35.860  10.591
27587W        W93996  19.143  11.286  13.873
27588W        W93997   0.434  34.298  13.890
27589W        W93998  16.638   8.898  12.922
27590W        W93999  21.712  13.269  12.563
27591W        W94000  44.873  26.667  11.072
27592W        W94001  14.732  16.038   1.004
27593W        W94002   0.585   8.423   4.419
27594W        W94003   1.766  35.005   1.796
27595W        W94004  23.514  24.007   2.288
27596W        W94005  25.833  30.492  12.558
27597W        W94006  17.278  28.431   3.414
27598W        W94007  28.948  14.443  13.002
27599W        W94008  40.052  19.754   2.730
27600W        W94009  10.194  24.292   4.262
27601W        W94010  14.834   3.097  14.388
27602W        W94011  38.083   7.508   1.737
27603W        W94012  44.015  35.958  12.837
27604W        W94013  39.156   4.522  13.575
27605W        W94014  37.922  34.290   4.075
27606W        W94015  44.594  27.459   4.310
27607W        W94016   6.899  12.169  14.024
27608W        W94017   1.769  20.801  14.794
27609W        W94018  13.760  16.138  13.918
27610W        W94019  19.522  19.706   4.599
27611W        W94020  14.080   5.884   2.374
27612W        W94021  29.206  28.496   2.915
27613W        W94022  23.403  18.205   3.470
27614W        W94023  13.536  15.752   2.815
27615W        W94024   9.240   7.806   2.793
27616W        W94025   7.034  34.784  12.663
27617W        W94026   3.305  34.715   2.843
27618W        W94027   2.064  26.913  11.679
27619W        W94028  12.265  13.738   0.669
27620W        W94029   3.866  27.487  12.152
27621W        W94030  33.158  18.652   2.440
27622W        W94031  22.922   0.480   0.417
27623W        W94032  33.441  33.833  10.699
27624W        W94033  34.486  21.874  12.561
27625W        W94034  11.215  44.933   2.207
27626W        W94035  37.778  27.487  10.655
27627W        W94036   8.516  32.036  11.193
27628W        W94037   6.800   8.472   1.214
27629W        W94038   4.213   4.342   1.752
27630W        W94039  11.235   4.669  11.297
27631W        W94040  33.551  16.659  13.625
27632W        W94041  28.079   3.622  13.360
27633W        W94042  20.581  12.295   0.704
27634W        W94043   8.764  13.932   2.672
27635W        W94044  33.381  39.135   3.671
27636W        W94045  23.168  15.799   4.970
27637W        W94046  11.266  20.188  14.246
27638W        W94047  42.951  26.241   0.713
27639W        W94048  40.352  33.942   2.251
27640W        W94049  31.219  15.602   3.159
27641W        W94050  12.184  16.769  12.857
27642W        W94051  44.009  37.109   2.779
27643W        W94052  10.706  14.029   1.242
27644W        W94053  19.013   5.952  10.771
27645W        W94054  37.888   1.278   4.124
27646W        W94055   7.735   0.347  11.511
27647W        W94056   7.592  40.906   3.278
27648W        W94057   6.571  44.002   2.823
27649W        W94058  43.218  36.125   3.642
27650W        W94059  31.331   4.938   4.496
27651W        W94060   9.071  26.659   1.436
27652W        W94061  10.678  11.129  13.101
27653W        W94062  34.692  40.025   9.996
27654W        W94063  36.892  41.661  14.057
27655W        W94064  35.487  13.251  13.137
27656W        W94065  16.972  34.357  10.765
27657W        W94066   1.960  28.177  14.062
27658W        W94067   8.894   5.946   3.718
27659W        W94068   3.325   5.803   0.600
27660W        W94069   6.759   7.645   3.358
27661W        W94070  20.010  17.645  11.552
27662W        W94071  39.079  35.996  12.199
27663W        W94072   5.378   1.037   1.695
27664W        W94073  19.083   9.083   1.266
27665W        W94074  22.607  43.388  13.986
27666W        W94075  33.122  28.598  10.278
27667W        W94076  11.850  18.544   0.711
27668W        W94077  11.386  12.279   0.719
27669W        W94078   7.254  44.493   3.229
27670W        W94079  41.761  19.124  14.497
27671W        W94080  21.609  13.838   3.644
27672W        W94081  32.613  13.834   2.583
27673W        W94082  36.910  43.781  10.777
27674W        W94083   2.084  32.246   3.611
27675W        W94084  33.885  16.292  11.169
27676W        W94085  43.792  33.827   4.555
27677W        W94086   8.572  18.373  11.068
27678W        W94087   9.033  18.601  13.944
27679W        W94088  28.380  38.881   2.231
27680W        W94089  19.685  44.570   4.118
27681W        W94090  12.085  26.975   4.549
27682W        W94091  26.825  25.917  11.724
27683W        W94092  24.093   2.647  14.512
27684W        W94093  37.072  24.671   2.110
27685W        W94094   3.945   0.022   4.228
27686W        W94095   3.446  31.131   3.059
27687W        W94096  13.075   5.175  13.027
27688W        W94097   2.944  30.674   0.811
27689W        W94098  16.908   7.435  12.917
27690W        W94099  27.787  12.354   4.883
27691W        W94100  31.526   1.355   0.567
27692W        W94101  37.047  35.855   1.830
27693W        W94102  17.009  29.541  10.825
27694W        W94103  29.430  21.753   3.718
27695W        W94104  17.748  43.059   4.473
27696W        W94105  21.079  37.391   1.881
27697W        W94106   9.694   0.287   3.262
27698W        W94107  23.198  14.336   0.926
27699W        W94108   3.981  13.634   1.936
27700W        W94109  30.704  39.279   2.349
27701W        W94110  19.589   6.876  13.107
27702W        W94111  11.600  14.342  12.108
27703W        W94112   4.372  26.374  14.243
27704W        W94113  14.772  20.110   0.372
27705W        W94114  36.034   2.132  11.745
27706W        W94115   4.767  35.287   0.770
27707W        W94116  28.095  13.049  11.619
27708W        W94117  22.432   4.435  13.206
27709W        W94118  40.439   8.008  10.442
27710W        W94119   1.017  42.852   4.658
27711W        W94120  10.345  34.605   2.290
27712W        W94121  35.586  24.100   4.307
27713W        W94122   7.329  26.030   0.030
27714W        W94123  41.392   1.824   4.696
27715W        W94124  34.986  31.615   2.727
27716W        W94125  20.519  17.590  13.227
27717W        W94126   4.258  14.770   4.440
27718W        W94127  36.183  41.440   2.796
27719W        W94128  22.622  23.959  14.324
27720W        W94129  13.690   6.130   3.589
27721W        W94130   0.285  14.038  13.087
27722W        W94131  40.328  29.668  14.477
27723W        W94132  10.294  34.191  12.931
27724W        W94133  25.118  26.470   2.280
27725W        W94134  13.400  25.416   1.013
27726W        W94135   8.766  32.951  14.882
27727W        W94136   9.266   3.527   0.221
27728W        W94137  42.592  41.804   3.424
27729W        W94138  41.322  34.334  12.567
27730W        W94139  20.234   8.166  10.617
27731W        W94140   3.346   2.543   4.628
27732W        W94141   0.790  30.120   2.253
27733W        W94142  11.065  21.156  12.523
27734W        W94143  19.231  36.693  11.119
27735W        W94144  16.062  39.994  11.637
27736W        W94145   3.223  38.414  11.556
27737W        W94146  21.360  23.088  11.004
27738W        W94147  13.094   6.714   1.682
27739W        W94148  20.503  20.874  11.118
27740W        W94149  30.836  27.191   0.457
27741W        W94150  19.677   2.195  13.770
27742W        W94151  33.016  33.612  12.532
27743W        W94152  22.156  13.828  11.512
27744W        W94153  19.761  23.552  13.470
27745W        W94154  13.288   1.960  13.509
27746W        W94155  22.554  41.857  11.193
27747W        W94156  36.343  18.141  14.760
27748W        W94157   1.768  13.096  11.583
27749W        W94158  28.139  21.228  13.093
27750W        W94159  39.428  11.386  13.214
27751W        W94160  35.931  33.913  13.446
27752W        W94161  42.409  11.898   0.328
27753W        W94162  33.564  37.846   4.634
27754W        W94163  42.656   8.139  10.283
27755W        W94164  25.968   4.614  14.345
27756W        W94165  41.166  16.278   3.298
27757W        W94166  35.874  29.982   2.214
27758W        W94167  43.515  10.228   0.691
27759W        W94168  19.463  31.019   2.679
27760W        W94169  22.723  19.100   4.755
27761W        W94170   7.353  23.377  10.686
27762W        W94171  19.561  11.282   2.384
27763W        W94172  21.757  44.225   0.546
27764W        W94173  33.265  23.619  10.480
27765W        W94174  12.104  30.975  10.329
27766W        W94175  32.373  15.416   3.244
27767W        W94176  19.561  26.598  14.319
27768W        W94177  33.426   4.231   0.831
27769W        W94178  36.898  43.554  14.498
27770W        W94179  43.024  27.447  14.766
27771W        W94180   9.880  40.417   3.143
27772W        W94181  34.792  40.015   2.837
27773W        W94182  41.289  34.201   3.217
27774W        W94183  34.616  38.685  12.848
27775W        W94184  18.818  23.166  10.854
27776W        W94185   1.059  24.174  12.482
27777W        W94186  21.323   6.185   3.800
27778W        W94187   5.879  38.445   4.923
27779W        W94188  25.906   0.055   1.720
27780W        W94189  23.116  39.495  11.156
27781W        W94190  20.537  12.218  11.511
27782W        W94191  25.446   7.287  12.848
27783W        W94192  13.678  14.195   0.422
27784W        W94193  26.978   5.226   3.903
27785W        W94194   3.025   0.978  13.513
27786W        W94195  22.768  12.573   3.560
27787W        W94196  11.147   6.335   3.549
27788W        W94197  35.655  29.171   0.959
27789W        W94198  25.886   0.468  13.847
27790W        W94199  37.914   7.003   4.171
27791W        W94200  30.355  25.661  11.778
27792W        W94201  32.997  37.827   4.279
27793W        W94202  11.718   3.934  10.456
27794W        W94203   0.895   2.532  10.658
27795W        W94204  19.097  34.745  14.985
27796W        W94205  34.714  30.646   3.449
27797W        W94206   6.251  31.736   4.664
27798W        W94207   4.261   7.099   1.414
27799W        W94208   6.171  37.003  10.521
27800W        W94209  24.721  41.034  11.139
27801W        W94210  37.815  12.872  13.007
27802W        W94211  15.706   5.357  11.458
27803W        W94212  22.523   4.265  12.197
27804W        W94213  40.465  43.577  11.916
27805W        W94214  19.542  23.599  11.126
27806W        W94215  37.792   4.355  11.149
27807W        W94216  38.787  33.579  10.672
27808W        W94217  25.124  36.844  10.828
27809W        W94218   7.699  37.890  10.441
27810W        W94219  25.571  32.261   0.854
27811W        W94220  36.498  33.780   4.036
27812W        W94221  42.911  36.773   0.907
27813W        W94222  15.645   7.673  12.493
27814W        W94223  12.177   5.033   4.999
27815W        W94224  24.117   3.356  14.280
27816W        W94225   7.533  24.672  11.968
27817W        W94226  27.432  29.364  13.492
27818W        W94227  37.775  26.433  12.554
27819W        W94228  14.184  40.078   0.811
27820W        W94229   1.551  25.072   1.696
27821W        W94230  35.353  21.715  14.993
27822W        W94231  26.026  22.615  14.833
27823W        W94232  11.792  24.087  12.972
27824W        W94233  23.044  12.089  11.105
27825W        W94234  11.706  26.679  14.401
27826W        W94235   7.918  19.823  12.490
27827W        W94236   8.636   4.220   4.354
27828W        W94237  40.908  19.624  14.828
27829W        W94238  16.772   5.663   1.163
27830W        W94239   5.439   5.251   4.114
27831W        W94240   0.410  28.303  11.650
27832W        W94241  22.137  28.440  11.536
27833W        W94242   8.597   5.733   3.286
27834W        W94243   0.847  10.203   3.685
27835W        W94244  15.043  10.578   1.368
27836W        W94245  36.875  41.460   1.726
27837W        W94246  14.429  28.195   0.982
27838W        W94247   0.751  36.467   2.411
27839W        W94248  22.619   3.396  11.895
27840W        W94249  13.555  17.522  13.503
27841W        W94250  29.653  17.888  11.648
27842W        W94251  36.344  38.658  14.884
27843W        W94252  23.868  43.246  12.323
27844W        W94253  17.596  14.854   2.793
27845W        W94254  39.468  28.617  11.178
27846W        W94255  41.073  24.024   4.113
27847W        W94256   3.440  35.981  14.768
27848W        W94257  21.586   5.484  13.430
27849W        W94258  25.445  42.015  13.950
27850W        W94259  23.032  21.296   4.522
27851W        W94260  24.194   5.342  14.501
27852W        W94261  33.329   7.686   0.420
27853W        W94262  10.505  15.218   0.915
27854W        W94263   9.787  12.625  12.305
27855W        W94264  44.437  40.066  12.051
27856W        W94265  41.443  20.510  13.747
27857W        W94266  20.022  42.753  14.349
27858W        W94267  41.843  20.480  10.380
27859W        W94268  28.108  41.978   4.275
27860W        W94269  33.674  21.248  12.933
27861W        W94270   2.718   2.851   3.360
27862W        W94271  43.036  24.206  13.857
27863W        W94272  31.289  25.658  10.873
27864W        W94273   9.114   1.438  13.398
27865W        W94274  28.898  10.626   3.638
27866W        W94275  17.537  19.305  13.337
27867W        W94276  25.982  42.273   0.174
27868W        W94277  36.890  19.814  10.749
27869W        W94278  23.468  23.733  12.361
27870W        W94279  13.971   6.219  14.096
27871W        W94280  33.702  25.581   1.253
27872W        W94281   3.532  18.408   4.104
27873W        W94282   2.943  25.498  12.099
27874W        W94283  12.206  44.047   2.662
27875W        W94284  16.598  40.603   0.743
27876W        W94285  23.270   2.868   0.321
27877W        W94286   7.106  36.124   1.809
27878W        W94287  17.603  14.770  14.932
27879W        W94288   4.499  13.639   5.084
27880W        W94289  44.340  40.235  14.030
27881W        W94290   1.698  37.865  13.860
27882W        W94291   8.354   4.897  10.897
27883W        W94292   6.177  23.609   2.732
27884W        W94293  28.612  16.550  12.883
27885W        W94294  11.226   0.430   1.279
27886W        W94295  36.917   9.432  12.114
27887W        W94296   5.834  31.135   2.428
27888W        W94297  24.764  29.578  13.283
27889W        W94298  17.865  39.916  14.921
27890W        W94299  22.682  25.517  12.966
27891W        W94300   1.692  12.324  12.734
27892W        W94301   6.259  35.450  12.574
27893W        W94302   7.449  39.371  14.175
27894W        W94303  36.590  18.196  13.539
27895W        W94304  17.639  34.706  11.196
27896W        W94305  31.807  14.985  14.051
27897W        W94306   7.695  11.292  10.889
27898W        W94307  18.126   9.296  10.935
27899W        W94308  12.662  15.336  14.320
27900W        W94309  24.414  26.334  10.182
27901W        W94310  31.117  19.673  11.189
27902W        W94311  36.005  44.727   2.772
27903W        W94312  15.357  38.500   3.029
27904W        W94313  40.477  33.849  13.886
27905W        W94314  31.630  40.805   0.700
27906W        W94315  14.234  24.070  14.773
27907W        W94316  44.175   9.017   1.976
27908W        W94317   3.288   3.020   2.287
27909W        W94318  37.977  29.198   2.467
27910W        W94319  20.325  36.303  13.499
27911W        W94320   5.135   7.671  11.612
27912W        W94321  19.159  34.694  13.930
27913W        W94322  17.898  35.474   4.727
27914W        W94323  20.556  41.275   1.739
27915W        W94324  16.618  14.221  11.592
27916W        W94325   9.098  37.106  10.551
27917W        W94326  19.377  31.621  14.345
27918W        W94327   3.007  44.474  12.029
27919W        W94328  19.843  34.999   0.681
27920W        W94329  34.530   0.706  14.395
27921W        W94330  19.456  29.870  10.986
27922W        W94331   4.775   5.753  12.120
27923W        W94332   9.181   3.025   4.543
27924W        W94333   7.842  40.807  11.558
27925W        W94334  43.887   9.478  12.044
27926W        W94335  28.101   3.447  10.646
27927W        W94336  15.557  42.337   2.157
27928W        W94337  30.572  37.495   3.604
27929W        W94338  15.092  41.261  14.739
27930W        W94339  29.920  21.077  13.532
27931W        W94340  26.652  33.034  11.439
27932W        W94341  32.133   4.318   4.603
27933W        W94342   8.387  34.920   3.394
27934W        W94343   8.719  44.463  14.872
27935W        W94344  26.478   7.209  14.958
27936W        W94345  32.103  32.499  10.700
27937W        W94346  31.888   6.489   5.193
27938W        W94347  13.128  12.187   2.021
27939W        W94348  43.221  31.722   3.598
27940W        W94349  39.708  44.788   2.324
27941W        W94350  10.310  14.695  11.901
27942W        W94351  40.210  30.687   0.835
27943W        W94352  34.416  41.076  14.072
27944W        W94353  29.192  36.269  12.561
27945W        W94354  32.034   9.946  13.858
27946W        W94355  42.071   4.886  10.732
27947W        W94356  20.125  32.634   2.143
27948W        W94357   1.483   7.617   2.864
27949W        W94358  24.398   7.338  13.828
27950W        W94359   8.291  30.427  14.270
27951W        W94360   7.915  38.307   0.481
27952W        W94361   9.688   4.244  13.470
27953W        W94362  17.208  35.740   1.846
27954W        W94363   5.088  29.685   0.528
27955W        W94364  20.342   6.039  12.117
27956W        W94365  20.499  16.095  11.207
27957W        W94366  33.352   2.488  12.984
27958W        W94367  41.975  19.320  12.943
27959W        W94368  22.926  23.795   3.572
27960W        W94369  11.598  42.356   0.414
27961W        W94370  30.624  38.873  12.487
27962W        W94371  27.240   4.269   1.279
27963W        W94372  24.129  23.720   3.269
27964W        W94373   1.801  34.076   3.271
27965W        W94374  32.244  10.701   1.175
27966W        W94375  27.418  23.447   2.162
27967W        W94376  12.030  32.857  12.018
27968W        W94377  15.176  39.563  12.571
27969W        W94378   8.656   7.053  11.114
27970W        W94379   6.195  33.011   1.093
27971W        W94380   8.172   9.214   2.475
27972W        W94381   9.419  12.607  14.218
27973W        W94382  11.633   4.442   3.276
27974W        W94383  17.770  24.115  11.146
27975W        W94384   5.627  39.294   1.591
27976W        W94385  25.524  15.818   3.655
27977W        W94386  41.795  22.212   3.791
27978W        W94387  37.061  24.291   0.357
27979W        W94388  12.870  32.556   0.737
27980W        W94389  12.907  32.867   1.202
27981W        W94390  32.635  24.088  11.184
27982W        W94391  25.945  30.700  14.959
27983W        W94392  35.601   4.690  10.726
27984W        W94393  17.608  41.807  14.892
27985W        W94394   0.233  31.552  14.368
27986W        W94395  29.573  31.029   3.569
27987W        W94396  21.692  11.959   1.804
27988W        W94397  39.344   4.239   2.727
27989W        W94398  40.488  27.146  13.726
27990W        W94399  16.303  32.265  10.105
27991W        W94400  31.428   4.559  12.854
27992W        W94401  24.549  23.061  14.033
27993W        W94402  15.166  19.519   4.630
27994W        W94403  23.618  12.306   3.168
27995W        W94404  28.555  44.836  11.047
27996W        W94405  12.605  17.221  14.327
27997W        W94406  32.741  35.076  12.702
27998W        W94407  10.027  31.760   5.433
27999W        W94408  40.619  26.753   1.474
28000W        W94409  12.226  25.812   3.261
28001W        W94410   1.542  21.274  13.930
28002W        W94411  35.101  38.495   2.791
28003W        W94412   7.408  43.856   4.041
28004W        W94413  39.339   4.340   0.316
28005W        W94414   3.460  34.838  11.153
28006W        W94415   1.426  35.979  13.295
28007W        W94416   0.964  21.493   2.140
28008W        W94417   7.362  40.887  11.891
28009W        W94418  26.682  37.433  14.824
28010W        W94419  44.062  32.677   2.908
28011W        W94420  13.358   7.584   1.853
28012W        W94421  32.675  15.847   3.248
28013W        W94422   7.300  44.129  10.486
28014W        W94423  25.203  22.551  14.426
28015W        W94424   8.212  23.754  12.027
28016W        W94425  36.279  41.472  12.517
28017W        W94426   7.638  21.670   2.605
28018W        W94427  35.820  44.858  12.367
28019W        W94428   5.896  35.007   0.681
28020W        W94429  10.750   3.948   5.009
28021W        W94430  20.562   0.415   0.908
28022W        W94431  35.050  15.498  13.958
28023W        W94432  41.376  28.206   4.272
28024W        W94433  31.635  29.014  12.970
28025W        W94434  37.858   4.308  12.395
28026W        W94435  13.318   8.115   0.924
28027W        W94436  26.026  19.581  13.358
28028W        W94437  42.737  14.079   4.528
28029W        W94438  26.969  43.567  11.100
28030W        W94439  20.225  16.223  14.044
28031W        W94440  33.856  39.416   4.542
28032W        W94441   5.992   3.289  12.573
28033W        W94442  40.679  33.540  12.627
28034W        W94443   0.048   7.610   4.102
28035W        W94444  24.780  15.852   2.084
28036W        W94445  30.060  40.098   0.893
28037W        W94446  17.375  38.280   3.756
28038W        W94447  12.834  14.721  10.806
28039W        W94448  37.403  30.746   2.797
28040W        W94449  19.571  37.775   1.192
28041W        W94450   1.188  18.120   3.705
28042W        W94451  43.389  42.990   4.538
28043W        W94452  12.791  26.484   2.597
28044W        W94453  22.954  19.499   3.293
28045W        W94454  29.182  22.536  13.659
28046W        W94455  28.399   5.340   4.440
28047W        W94456  17.703  12.656  13.484
28048W        W94457  27.167   9.425  13.948
28049W        W94458  14.298  24.109  12.005
28050W        W94459  20.094  18.657  10.690
28051W        W94460   0.063  30.990  13.311
28052W        W94461   5.583  28.146   3.151
28053W        W94462  40.532  11.719  12.893
28054W        W94463   4.671   4.920   1.475
28055W        W94464  29.958   1.283  13.535
28056W        W94465  26.141  42.528   3.795
28057W        W94466  35.306  13.777  12.072
28058W        W94467  42.374  36.295   4.344
28059W        W94468   9.321  28.684  14.753
28060W        W94469  33.657  29.751   3.650
28061W        W94470  28.882  30.327   2.604
28062W        W94471  15.746  10.273  13.562
28063W        W94472  13.895   4.433   1.385
28064W        W94473  35.639  14.604   1.045
28065W        W94474  27.552  21.789   0.740
28066W        W94475  13.330  23.605   0.008
28067W        W94476  22.289  16.700   3.316
28068W        W94477  12.321  24.398   3.188
28069W        W94478   4.700  30.464  11.065
28070W        W94479  22.756   4.559  14.938
28071W        W94480   7.369  21.423  13.333
28072W        W94481  44.234  36.078  10.339
28073W        W94482  22.261  30.343  12.869
28074W        W94483  17.557  25.538  13.391
28075W        W94484  35.278  30.672  10.404
28076W        W94485  22.630   8.499  13.493
28077W        W94486  27.015   6.919  13.598
28078W        W94487  22.365   6.444  14.026
28079W        W94488  31.453  21.552   4.599
28080W        W94489  29.975  32.305   1.353
28081W        W94490   4.376  15.519   5.083
28082W        W94491  12.217  16.237   0.904
28083W        W94492   0.280   9.915  14.408
28084W        W94493   5.448   3.974   3.727
28085W        W94494  40.270   8.930  10.786
28086W        W94495  24.243  11.004   3.236
28087W        W94496   6.670  39.195   4.841
28088W        W94497   0.987  20.220  11.596
28089W        W94498  16.082  35.094  13.919
28090W        W94499   2.435  34.356   4.328
28091W        W94500  34.511  21.325  14.810
28092W        W94501  40.780  13.537  12.665
28093W        W94502  41.940  21.347   3.689
28094W        W94503  12.971  20.967  10.289
28095W        W94504   3.791  38.474  10.701
28096W        W94505  37.415  16.918  11.656
28097W        W94506  28.471  35.614   4.186
28098W        W94507  30.522  31.163   1.698
28099W        W94508  25.096  40.381   0.343
28100W        W94509   6.443  40.297   0.295
28101W        W94510  40.539  39.359  11.063
28102W        W94511  34.271  29.665   0.882
28103W        W94512  28.512   5.613   4.870
28104W        W94513  29.861  30.416  10.693
28105W        W94514  42.185   8.181   0.632
28106W        W94515  22.831  25.930  11.880
28107W        W94516  40.421  23.738  10.756
28108W        W94517  28.245   0.737   0.107
28109W        W94518  26.208  24.430  14.478
28110W        W94519  12.392  17.645  11.698
28111W        W94520  12.616  39.043   1.236
28112W        W94521  42.345  44.949  14.105
28113W        W94522   6.875  19.549  13.831
28114W        W94523  22.422  40.974  13.825
28115W        W94524  18.049   2.515   2.152
28116W        W94525   1.137   1.310   3.755
28117W        W94526  15.630  18.491  10.070
28118W        W94527  24.770   8.812   2.699
28119W        W94528  29.323  37.061   4.813
28120W        W94529  34.490  17.580  13.499
28121W        W94530  10.787  11.750  10.808
28122W        W94531  22.973  35.971   0.787
28123W        W94532  38.490  13.411  11.560
28124W        W94533  16.850  34.172   3.748
28125W        W94534  13.631   1.673   2.241
28126W        W94535   2.768  22.665   0.227
28127W        W94536  13.786  35.017   0.825
28128W        W94537  17.280  30.406   3.558
28129W        W94538  37.045  42.732  12.542
28130W        W94539  16.280  40.746   3.863
28131W        W94540  11.366  23.735   1.257
28132W        W94541  39.201  16.724   0.801
28133W        W94542  20.480  17.647   2.726
28134W        W94543  23.983  39.493   1.522
28135W        W94544  36.058  43.060  12.027
28136W        W94545   4.601   4.285   9.721
28137W        W94546  42.843  22.662   3.199
28138W        W94547  17.959  41.491  11.487
28139W        W94548  20.590  40.366   4.972
28140W        W94549  27.485  11.216  12.492
28141W        W94550  23.581  19.868  11.167
28142W        W94551  33.625   3.272  13.424
28143W        W94552  15.289  27.912  12.955
28144W        W94553  39.579  30.106  13.412
28145W        W94554  10.205  31.913   0.456
28146W        W94555   1.990  18.133  11.968
28147W        W94556  17.273   0.084  13.129
28148W        W94557  41.841  39.492   2.224
28149W        W94558  41.662  27.585   0.321
28150W        W94559  13.240  35.882   4.757
28151W        W94560  35.100   0.290   3.046
28152W        W94561  44.975  44.841  12.982
28153W        W94562  26.275  18.845  11.174
28154W        W94563   4.411  28.992   4.700
28155W        W94564   2.459  38.089  12.841
28156W        W94565  27.918  10.154   3.659
28157W        W94566  30.097  31.181   0.735
28158W        W94567  20.103  18.431   2.528
28159W        W94568  40.910  38.459   3.659
28160W        W94569  26.431  31.139   3.773
28161W        W94570  40.193   6.150  11.589
28162W        W94571  39.813  35.326  11.029
28163W        W94572  32.472  35.804   2.104
28164W        W94573  10.232  18.720   2.144
28165W        W94574  39.885  38.747   3.999
28166W        W94575  37.466   1.399   0.367
28167W        W94576  10.837  14.360   0.755
28168W        W94577  36.443   3.509  12.534
28169W        W94578   0.220  35.602   3.905
28170W        W94579   3.740   5.127  11.372
28171W        W94580  18.770  10.497   3.237
28172W        W94581  22.954  31.009  14.277
28173W        W94582  23.176  27.238   3.820
28174W        W94583  43.866   4.824  11.878
28175W        W94584  34.393  29.995  12.767
28176W        W94585  30.551  11.265   3.277
28177W        W94586  43.956  16.680   0.928
28178W        W94587  26.693  41.865   1.876
28179W        W94588   5.830  18.732  12.271
28180W        W94589  11.855  20.427  10.643
28181W        W94590  41.806  14.180   1.194
28182W        W94591  22.326  31.724  11.539
28183W        W94592   5.536  15.704  14.323
28184W        W94593  39.295  40.278   3.344
28185W        W94594  24.355  42.957   0.097
28186W        W94595  33.539  11.412  14.782
28187W        W94596  16.483  31.668   4.690
28188W        W94597   3.768  32.515   0.396
28189W        W94598   5.245  22.149   0.895
28190W        W94599  36.910   5.339  13.616
28191W        W94600  33.873  15.262   1.766
28192W        W94601  36.488  19.010   1.322
28193W        W94602  42.886  21.467  14.325
28194W        W94603  32.375  19.263   0.359
28195W        W94604  24.949  18.850   4.531
28196W        W94605  39.707   6.334   2.876
28197W        W94606  19.288  36.018  14.324
28198W        W94607  18.349  16.499   0.885
28199W        W94608  24.331   5.835   3.371
28200W        W94609  33.780  30.179  14.080
28201W        W94610   7.186  26.083   3.271
28202W        W94611  22.331  34.340  10.292
28203W        W94612  32.781  24.057   4.378
28204W        W94613  21.068  34.020  14.525
28205W        W94614   6.395   0.415  12.153
28206W        W94615  37.469  36.083  11.005
28207W        W94616  14.516   0.286   1.046
28208W        W94617  24.241  26.354   1.708
28209W        W94618  21.621  25.485   2.289
28210W        W94619  38.608  15.778   3.738
28211W        W94620   7.944  29.315  11.564
28212W        W94621  28.012  38.089  13.913
28213W        W94622  26.070  36.687  14.546
28214W        W94623  24.627  43.999  14.546
28215W        W94624   3.651  17.841  12.167
28216W        W94625   8.576  13.862   4.043
28217W        W94626  41.015  43.923   3.860
28218W        W94627  42.832  38.624  10.354
28219W        W94628  40.468   0.780  13.070
28220W        W94629   2.353  27.395   2.490
28221W        W94630  43.093  19.546  14.781
28222W        W94631  27.065  27.966  14.335
28223W        W94632  38.871  12.165   4.114
28224W        W94633  32.760  40.819   2.886
28225W        W94634  23.312   7.909  13.065
28226W        W94635   6.519  24.551  12.015
28227W        W94636  44.081   5.856   2.684
28228W        W94637  34.945  16.580   1.449
28229W        W94638  40.076  25.362  12.028
28230W        W94639  32.434  38.913  12.755
28231W        W94640  42.351  26.434   5.062
28232W        W94641  41.437  12.203  12.149
28233W        W94642  15.350  37.832   0.389
28234W        W94643  41.084   8.564   5.154
28235W        W94644   9.051  19.774  10.328
28236W        W94645  37.956   2.729   4.571
28237W        W94646  19.356  31.941  10.709
28238W        W94647   1.729  44.962   0.328
28239W        W94648  23.996  23.015   2.883
28240W        W94649  17.741  30.878  11.646
28241W        W94650  22.014  28.948   2.401
28242W        W94651   5.425  41.072  11.162
28243W        W94652   9.261  26.996   3.259
28244W        W94653  28.992   0.348  14.956
28245W        W94654  37.348   7.319  11.560
28246W        W94655   1.253  27.766   3.474
28247W        W94656  44.872  34.120   0.889
28248W        W94657   6.184  35.629  13.079
28249W        W94658  36.828  17.258  14.738
28250W        W94659  43.448  42.974  14.048
28251W        W94660  17.780  32.971  10.668
28252W        W94661   6.832  30.329  12.138
28253W        W94662  32.199  31.542  14.791
28254W        W94663  18.255  13.097  14.890
28255W        W94664  41.595  40.962  13.820
28256W        W94665   1.906   4.172   3.068
28257W        W94666  24.166  31.590  11.634
28258W        W94667  34.308  33.859   2.872
28259W        W94668  20.796  31.044  11.517
28260W        W94669  42.883  27.713   1.725
28261W        W94670  11.048  24.956   1.770
28262W        W94671  32.563  35.820  13.859
28263W        W94672   8.940   1.485  14.758
28264W        W94673   9.927  41.992   3.915
28265W        W94674   6.675  41.240   2.695
28266W        W94675  20.956  27.685  13.989
28267W        W94676   2.672  38.973   2.246
28268W        W94677  12.177  31.609   3.329
28269W        W94678  44.962  13.663   0.374
28270W        W94679  29.412  28.786   1.241
28271W        W94680  20.276  10.296  13.992
28272W        W94681   4.470  10.352  13.570
28273W        W94682  24.804  35.437  13.324
28274W        W94683  18.788  18.232  12.874
28275W        W94684  30.554  28.664   1.957
28276W        W94685  30.173  31.364  11.934
28277W        W94686  24.555  35.044   1.992
28278W        W94687  24.946  25.403   4.004
28279W        W94688  31.406  13.376   3.397
28280W        W94689   8.568   3.621  12.570
28281W        W94690  12.380   1.720   2.753
28282W        W94691   5.325   6.299  10.555
28283W        W94692  37.452  14.721   0.027
28284W        W94693  25.254  32.887   0.866
28285W        W94694  18.055  14.046  12.939
28286W        W94695  11.970  43.629   3.326
28287W        W94696  29.486  25.409  14.297
28288W        W94697  31.168   6.842   4.604
28289W        W94698  12.892  35.630  11.321
28290W        W94699  24.125   2.835   3.719
28291W        W94700  21.571   3.167  13.971
28292W        W94701  42.567   2.387   1.157
28293W        W94702   6.704  24.252   3.114
28294W        W94703  11.113  39.282  11.195
28295W        W94704  43.946  33.381   2.239
28296W        W94705  12.913  37.004   2.811
28297W        W94706  30.579   4.486  13.304
28298W        W94707  35.078  31.598  14.991
28299W        W94708  34.416  33.011  10.967
28300W        W94709  36.950  36.907  14.466
28301W        W94710  21.692  11.172  14.889
28302W        W94711  41.002  24.804   2.625
28303W        W94712  13.854  25.133   3.587
28304W        W94713  28.203  41.287  13.370
28305W        W94714   8.207  28.545  10.618
28306W        W94715  22.066  14.146   4.628
28307W        W94716  26.981   2.751   3.923
28308W        W94717   0.491  40.869  12.821
28309W        W94718  26.758  34.460  11.987
28310W        W94719  37.698  17.315   1.475
28311W        W94720  32.997   1.460  11.533
28312W        W94721  24.440  11.893   9.925
28313W        W94722  28.510  11.280  13.097
28314W        W94723   0.617  44.246  13.642
28315W        W94724  39.379  21.456  12.851
28316W        W94725  18.020  13.565   3.799
28317W        W94726   6.874  36.896   4.439
28318W        W94727  32.532  24.598  12.623
28319W        W94728  31.810  14.628  14.729
28320W        W94729  16.565  35.416  11.500
28321W        W94730  40.581  13.110   4.033
28322W        W94731  42.815  41.079  12.161
28323W        W94732  44.427   0.864  14.331
28324W        W94733  11.825  35.891   4.577
28325W        W94734   1.939  20.510  12.874
28326W        W94735  41.538   7.480  11.679
28327W        W94736  22.268  31.214   3.593
28328W        W94737  12.508   3.763  13.822
28329W        W94738  18.266  36.589  10.175
28330W        W94739   8.143  26.667  14.934
28331W        W94740  44.026   1.200  12.552
28332W        W94741  21.193  33.566  13.777
28333W        W94742   1.690   5.477  14.539
28334W        W94743  11.845  30.411   0.251
28335W        W94744  44.707   1.492   2.298
28336W        W94745  37.945  12.698   0.691
28337W        W94746  16.286  10.244   1.403
28338W        W94747   7.332  39.256  13.699
28339W        W94748  40.262  26.700  13.833
28340W        W94749  15.134  13.704   2.445
28341W        W94750   6.518  22.540  11.171
28342W        W94751  44.824  27.942   4.258
28343W        W94752   4.216  27.074  14.730
28344W        W94753  38.382  10.669   3.897
28345W        W94754  21.642   9.495   1.803
28346W        W94755  43.869  26.497  11.844
28347W        W94756   2.286  18.752   3.647
28348W        W94757  40.410  37.797  11.102
28349W        W94758  36.867  14.737   4.575
28350W        W94759   4.765  39.307   4.614
28351W        W94760  29.759  20.016   0.473
28352W        W94761  18.066  41.594   3.102
28353W        W94762  25.460  41.507   1.364
28354W        W94763   2.959  39.438  13.975
28355W        W94764  32.989  24.754  10.536
28356W        W94765  18.285  21.576  13.935
28357W        W94766  28.077  37.945  11.186
28358W        W94767   5.945  41.610  12.914
28359W        W94768   0.092  14.056   3.711
28360W        W94769  37.439  26.923   0.810
28361W        W94770  23.057  17.217  13.363
28362W        W94771   3.189  26.601   1.850
28363W        W94772  17.070  19.107  11.163
28364W        W94773  28.623  26.481   1.844
28365W        W94774  18.205   2.774   4.883
28366W        W94775  39.687  36.854   0.971
28367W        W94776  37.005  43.760   4.219
28368W        W94777  32.340  38.339  14.493
28369W        W94778  12.384  12.822   2.237
28370W        W94779  14.017  23.960   4.607
28371W        W94780  44.712  40.459   0.821
28372W        W94781  31.526   5.353  11.578
28373W        W94782  19.515  19.702  12.133
28374W        W94783   3.545  11.597  11.303
28375W        W94784   0.487   1.969   3.176
28376W        W94785   9.297  32.869   0.320
28377W        W94786  37.314   7.647  12.142
28378W        W94787  11.273  37.946  12.836
28379W        W94788   4.254  39.252   1.494
28380W        W94789  18.272  16.688  11.037
28381W        W94790  38.870  25.230   3.680
28382W        W94791  10.232  24.389   0.265
28383W        W94792  29.012  19.109  12.800
28384W        W94793  26.091   7.795  10.519
28385W        W94794  11.731  24.764  11.950
28386W        W94795  12.366   1.783   3.577
28387W        W94796  17.203   7.833   2.860
28388W        W94797  41.447  26.542   4.531
28389W        W94798  19.652   0.153  12.024
28390W        W94799  43.389  33.087  11.285
28391W        W94800  24.334  24.596   1.284
28392W        W94801  44.714  38.551   3.656
28393W        W94802  20.549  38.768   2.871
28394W        W94803  17.709  27.998   2.741
28395W        W94804   2.918  22.174   1.394
28396W        W94805   5.900  42.871   2.758
28397W        W94806   4.402  21.246  12.037
28398W        W94807   9.375  14.764  14.413
28399W        W94808  25.161  15.695  10.467
28400W        W94809  39.445  39.964   0.834
28401W        W94810  39.380  14.255   0.977
28402W        W94811  33.922   0.243  10.563
28403W        W94812  24.458  22.989   0.457
28404W        W94813  42.627  19.567   3.295
28405W        W94814   6.755   3.051   1.372
28406W        W94815  35.283  24.761   2.240
28407W        W94816  18.716  35.987   4.095
28408W        W94817  16.719  44.439   1.749
28409W        W94818   8.877  16.875  11.084
28410W        W94819   2.528   0.275   0.342
28411W        W94820  37.965  43.447   2.905
28412W        W94821   3.224   0.318   1.836
28413W        W94822   2.661   5.743   3.246
28414W        W94823  19.104  14.428   0.432
28415W        W94824  15.202  32.102  12.687
28416W        W94825  22.708  11.710   0.409
28417W        W94826   1.020   8.334   4.894
28418W        W94827  23.419  20.526   4.156
28419W        W94828  18.785  33.743   2.398
28420W        W94829  32.387  36.906  13.493
28421W        W94830  39.344  22.886  14.248
28422W        W94831  38.583  32.496  14.302
28423W        W94832   4.454  22.851  11.656
28424W        W94833  19.792  15.760  13.101
28425W        W94834  24.949  34.610  14.504
28426W        W94835   1.834  13.658   3.642
28427W        W94836  27.382  31.212   1.233
28428W        W94837  32.627  44.381   4.325
28429W        W94838  13.896  38.794  11.181
28430W        W94839  13.393  33.107   0.326
28431W        W94840  33.527  36.592  11.768
28432W        W94841  41.739  29.661   0.979
28433W        W94842   8.373  38.928   0.960
28434W        W94843   0.954   9.777  10.175
28435W        W94844  12.595  41.840   3.085
28436W        W94845  43.462  39.219   0.425
28437W        W94846  16.390   5.438   1.520
28438W        W94847  43.457  39.055  11.448
28439W        W94848  10.616  32.735  12.167
28440W        W94849  38.930  33.073   2.891
28441W        W94850  33.571  12.337   1.041
28442W        W94851  25.400   8.096  14.800
28443W        W94852  26.051  33.907   0.833
28444W        W94853  13.340  14.814   2.808
28445W        W94854  22.997   3.426  12.514
28446W        W94855  33.932   7.925   0.730
28447W        W94856   6.591  13.139  13.958
28448W        W94857   1.773  36.126   2.646
28449W        W94858   5.144   1.876  11.540
28450W        W94859  42.052  28.919  10.781
28451W        W94860  21.472  28.683  14.824
28452W        W94861  38.811  20.108  12.092
28453W        W94862  30.645  24.934   0.154
28454W        W94863  26.115  33.377  14.949
28455W        W94864  13.546   7.695  11.393
28456W        W94865  34.650  39.370   3.288
28457W        W94866   2.498  28.922   3.738
28458W        W94867  36.710   6.658  13.502
28459W        W94868  40.963   9.212   1.597
28460W        W94869   8.424  11.711  10.953
28461W        W94870  10.676  36.070   3.823
28462W        W94871  41.403  29.536  14.273
28463W        W94872   4.532  10.122   2.276
28464W        W94873   9.688   2.954  13.069
28465W        W94874  32.971  25.235   1.194
28466W        W94875  18.677  38.838   1.482
28467W        W94876   9.851  17.590   1.890
28468W        W94877   5.282  32.937   3.599
28469W        W94878  41.464   2.206   1.925
28470W        W94879   7.031  24.866   4.082
28471W        W94880  25.440   2.304   0.797
28472W        W94881   3.773  31.752  14.994
28473W        W94882   5.263  33.555   4.599
28474W        W94883  15.228  16.794  14.335
28475W        W94884  24.728  31.595   4.201
28476W        W94885  42.284  43.428   4.385
28477W        W94886  42.872  17.593  10.665
28478W        W94887  37.138   1.246   3.751
28479W        W94888  21.594  27.136  14.822
28480W        W94889  40.453  33.500  11.209
28481W        W94890  24.012  28.182  10.747
28482W        W94891  39.517  18.543  12.643
28483W        W94892  11.636  28.790  10.558
28484W        W94893  14.004  40.496   3.827
28485W        W94894   5.308  28.116  12.982
28486W        W94895  18.661  10.466  13.190
28487W        W94896   2.022   5.435   2.374
28488W        W94897  20.275  19.098   3.806
28489W        W94898  19.604  12.737   4.336
28490W        W94899  31.349   2.000  13.058
28491W        W94900  38.918  23.186   1.385
28492W        W94901   9.893  36.964  10.167
28493W        W94902  24.719  26.594   0.424
28494W        W94903  28.127  19.016  11.961
28495W        W94904   2.378  10.773   0.812
28496W        W94905  22.804  41.490   1.735
28497W        W94906  17.555  20.207  14.511
28498W        W94907  44.333  43.417   4.563
28499W        W94908  11.668  19.632   4.859
28500W        W94909  14.051   2.849   0.784
28501W        W94910  29.197   4.121  14.788
28502W        W94911  26.033  40.508  10.526
28503W        W94912   3.951  44.262   1.446
28504W        W94913  36.647  34.568  11.074
28505W        W94914  43.554  33.429  14.407
28506W        W94915  33.872  24.530  14.929
28507W        W94916   8.970  15.132  13.637
28508W        W94917  39.404  10.894   2.598
28509W        W94918  30.929  40.013   0.841
28510W        W94919  14.038  22.250   4.936
28511W        W94920  44.236   4.981   4.928
28512W        W94921   7.316  27.293   4.932
28513W        W94922   2.438   9.071  12.856
28514W        W94923  10.427   3.326   1.358
28515W        W94924   4.160  21.852   2.570
28516W        W94925   4.308   5.477  10.571
28517W        W94926  11.864  41.752  11.933
28518W        W94927  16.649   8.169   3.648
28519W        W94928   3.253  35.075  11.566
28520W        W94929  44.871  18.791   4.553
28521W        W94930  27.091  12.522  10.452
28522W        W94931   7.881  41.554   0.291
28523W        W94932  15.760  32.759   1.254
28524W        W94933  11.886  28.729  13.383
28525W        W94934  17.845  41.382   4.052
28526W        W94935  14.992   0.321   1.807
28527W        W94936  21.092  38.112  11.155
28528W        W94937  39.084  41.948   0.858
28529W        W94938  28.764   6.745   3.155
28530W        W94939  28.225  35.698   3.727
28531W        W94940  30.570   5.652   1.858
28532W        W94941  25.214  39.122   2.255
28533W        W94942  11.203  30.534  14.615
28534W        W94943  28.837  22.015   0.371
28535W        W94944   6.625  19.602  10.637
28536W        W94945  19.528   5.465   0.828
28537W        W94946  11.284  22.288  11.596
28538W        W94947  17.221  24.651   0.776
28539W        W94948  34.386   7.303  11.408
28540W        W94949  41.025   6.899   2.759
28541W        W94950  19.573   4.485   2.828
28542W        W94951  15.674  20.207   1.373
28543W        W94952   7.954  39.957   3.316
28544W        W94953  26.527  18.281  12.056
28545W        W94954  11.240  12.173  12.902
28546W        W94955  22.666  14.775   2.693
28547W        W94956  34.349  44.364  11.964
28548W        W94957   2.702  12.161  10.662
28549W        W94958  39.481  10.534  11.543
28550W        W94959   1.048  41.085   3.581
28551W        W94960  44.867  17.618   0.878
28552W        W94961   0.912  37.763  12.032
28553W        W94962  20.654  21.186   1.894
28554W        W94963  10.297  12.696  11.485
28555W        W94964  14.164  26.331   0.950
28556W        W94965   2.674  21.486  10.651
28557W        W94966  28.906  40.741  13.135
28558W        W94967  18.551  23.543  12.098
28559W        W94968   2.981  16.227  11.051
28560W        W94969  38.058  23.258  12.938
28561W        W94970  25.419  11.828   3.578
28562W        W94971  28.580  27.697   3.322
28563W        W94972  33.350   9.119  13.380
28564W        W94973  17.272  25.593   0.467
28565W        W94974  33.109  18.076   0.233
28566W        W94975  36.326  29.405   1.641
28567W        W94976  20.003  43.939   2.726
28568W        W94977  34.205  13.697  12.636
28569W        W94978  19.043  42.999   4.353
28570W        W94979  23.132  29.576  14.940
28571W        W94980  31.536  30.205  11.678
28572W        W94981   2.985   7.300   1.795
28573W        W94982  29.104   8.324  13.297
28574W        W94983  34.156   1.819  10.256
28575W        W94984  11.391  19.952  12.854
28576W        W94985  43.074   4.692  10.591
28577W        W94986  18.503  44.210   2.233
28578W        W94987  41.274  13.694  12.082
28579W        W94988  35.888  39.898   0.882
28580W        W94989   5.862  18.553   2.755
28581W        W94990   4.731   9.119  11.603
28582W        W94991  15.876  32.107   3.651
28583W        W94992  37.008  20.473   2.324
28584W        W94993  29.503  35.587  14.286
28585W        W94994  25.641  16.813  14.900
28586W        W94995  39.612  39.144  14.246
28587W        W94996  19.577  42.398  12.900
28588W        W94997   5.945  33.099  13.222
28589W        W94998  36.918  13.174  10.389
28590W        W94999   4.888  16.705  12.648
28591W        W95000  25.161   0.645  13.314
28592W        W95001   1.959  30.686   4.231
28593W        W95002  40.369   5.362  10.739
28594W        W95003  20.678  39.391   3.138
28595W        W95004  36.972  26.558  14.062
28596W        W95005  42.756  35.915  14.782
28597W        W95006  33.466  19.020  12.472
28598W        W95007   0.710  23.581  13.979
28599W        W95008   4.370  29.402  11.174
28600W        W95009  13.100  19.524  11.555
28601W        W95010   9.252  16.626   0.218
28602W        W95011   5.429  38.313  11.939
28603W        W95012   4.395  34.022  13.852
28604W        W95013  26.195  14.424   3.321
28605W        W95014  15.138   0.491   3.336
28606W        W95015  19.109   3.347   4.329
28607W        W95016  37.931   4.522   4.409
28608W        W95017  43.335  14.484  11.060
28609W        W95018   2.812  16.291  13.467
28610W        W95019  11.720  44.273   2.740
28611W        W95020  11.150  15.783   3.660
28612W        W95021   6.690  25.882   1.341
28613W        W95022   7.151  28.469  12.012
28614W        W95023  36.256  26.001  12.925
28615W        W95024   4.824  17.184  12.486
28616W        W95025  15.582  31.606   2.765
28617W        W95026   4.271   6.475  12.999
28618W        W95027  40.337  34.050  13.413
28619W        W95028  26.941   8.762   2.347
28620W        W95029  22.882  23.299   1.686
28621W        W95030  20.710  18.544   3.138
28622W        W95031  11.728  11.091  14.985
28623W        W95032  27.802   4.986  11.760
28624W        W95033   0.228  22.724   0.261
28625W        W95034  29.956   8.127   2.605
28626W        W95035   7.620   7.630   4.370
28627W        W95036   2.364  22.952   3.617
28628W        W95037  27.513  28.439   3.785
28629W        W95038  32.005  28.892  10.812
28630W        W95039   5.797  38.511   1.158
28631W        W95040  34.071  27.547   1.695
28632W        W95041  43.540  28.660  12.624
28633W        W95042  33.146  40.394  10.742
28634W        W95043  32.303  39.129  14.923
28635W        W95044  13.059  21.406   9.997
28636W        W95045  24.111   4.337  14.393
28637W        W95046  24.303  44.699  13.124
28638W        W95047   7.222  42.268   1.156
28639W        W95048  31.177  34.514  11.911
28640W        W95049  22.086  44.885  12.032
28641W        W95050  31.459   5.367  13.442
28642W        W95051  27.126  23.704   4.719
28643W        W95052  15.898  28.557  13.447
28644W        W95053  25.547  12.821  13.065
28645W        W95054  36.147  20.736  13.147
28646W        W95055  20.727  31.842  13.375
28647W        W95056  15.832  37.316  13.022
28648W        W95057   5.706  22.182   4.660
28649W        W95058   5.779   0.807   1.408
28650W        W95059  34.028  43.948  12.007
28651W        W95060  15.063  23.535   1.762
28652W        W95061  32.624  28.004  12.380
28653W        W95062   5.197  21.978  14.730
28654W        W95063  38.500   8.378  11.063
28655W        W95064  34.388  19.670  13.238
28656W        W95065  21.105  18.392  13.176
28657W        W95066  40.484  33.029   0.965
28658W        W95067  39.094  30.502  12.808
28659W        W95068   3.716  35.886  10.745
28660W        W95069  32.332  14.485   5.098
28661W        W95070  43.202  22.564  12.145
28662W        W95071   6.921  25.742  13.864
28663W        W95072  19.017  21.207   4.831
28664W        W95073  42.263  32.404  10.536
28665W        W95074  18.090  25.920  12.679
28666W        W95075  22.243  20.258  14.792
28667W        W95076  39.986  38.888  14.477
28668W        W95077  31.891  17.684  11.536
28669W        W95078  35.606  40.790  14.999
28670W        W95079  18.773  21.450  13.948
28671W        W95080  29.753  17.111   4.162
28672W        W95081  22.781  41.242   4.240
28673W        W95082  29.936  27.013   1.295
28674W        W95083  34.584  24.765   1.193
28675W        W95084   9.932   1.674  11.547
28676W        W95085  12.154  27.210   2.363
28677W        W95086  33.781  15.626   4.870
28678W        W95087  34.083  41.379   4.683
28679W        W95088   4.011  39.554   2.385
28680W        W95089  28.146  38.859   2.674
28681W        W95090  19.681  21.200  13.142
28682W        W95091  36.943  25.492  14.914
28683W        W95092  29.408  10.828  14.468
28684W        W95093  13.096  36.939   0.948
28685W        W95094   7.933   8.148  12.516
28686W        W95095  33.062  40.570  13.493
28687W        W95096  18.217   5.978  12.474
28688W        W95097  44.025  36.051  10.830
28689W        W95098  19.541   4.283  12.419
28690W        W95099  41.298  41.591   3.781
28691W        W95100   5.778  24.127   2.122
28692W        W95101  27.460  27.707   2.927
28693W        W95102   7.073  42.466   2.834
28694W        W95103  10.070  32.884  12.770
28695W        W95104  23.995   0.694   3.226
28696W        W95105  24.526  30.980  10.664
28697W        W95106  12.699   4.239  14.936
28698W        W95107  23.701  34.962  11.557
28699W        W95108   9.896   8.173  12.047
28700W        W95109  26.161  37.843   2.842
28701W        W95110   4.961   4.992   2.002
28702W        W95111  14.951  38.966   4.273
28703W        W95112   1.003  10.651  12.009
28704W        W95113  44.070  22.125   3.991
28705W        W95114   9.239  12.325   4.452
28706W        W95115   0.750  17.173   0.827
28707W        W95116  10.158  37.986   4.589
28708W        W95117  28.979   7.405   2.105
28709W        W95118  17.695  31.086  10.691
28710W        W95119  24.557  42.307  14.778
28711W        W95120   9.773   2.774   0.338
28712W        W95121  23.066  41.978   2.555
28713W        W95122  22.723   0.688   4.724
28714W        W95123  21.665  38.482  12.400
28715W        W95124  11.166  36.959  12.610
28716W        W95125  17.717  15.783  11.613
28717W        W95126  12.791   4.745  14.857
28718W        W95127  21.568   5.166  11.667
28719W        W95128  20.279  37.451  12.975
28720W        W95129  44.666  37.767  11.965
28721W        W95130  29.640  36.882   0.889
28722W        W95131  43.469   3.407   4.515
28723W        W95132   9.817  24.547  11.575
28724W        W95133  10.178   9.402   4.845
28725W        W95134  14.359  28.525  12.058
28726W        W95135   3.502  23.319   1.755
28727W        W95136   7.334   7.278  13.372
28728W        W95137  11.833  37.567   3.622
28729W        W95138  36.439  28.892   2.889
28730W        W95139   6.275  38.100  11.899
28731W        W95140   3.262  23.456   3.516
28732W        W95141  26.039   1.767  12.526
28733W        W95142   2.082  12.616  10.427
28734W        W95143  17.774   0.243  13.083
28735W        W95144  19.317  31.431  12.522
28736W        W95145  16.730  14.140  13.882
28737W        W95146   5.229  41.747   2.259
28738W        W95147  18.212  11.822   0.893
28739W        W95148  29.867  35.520   0.034
28740W        W95149  29.599   9.171   3.499
28741W        W95150  23.167  16.362   1.215
28742W        W95151  21.331   6.136  11.196
28743W        W95152  23.858  24.542   0.452
28744W        W95153  19.295  13.223  10.762
28745W        W95154  25.926  31.276   3.666
28746W        W95155  38.929  30.166   2.206
28747W        W95156  31.460  39.958   1.867
28748W        W95157  22.741  43.922  12.839
28749W        W95158   0.731  35.086   1.912
28750W        W95159  18.969  40.953  14.313
28751W        W95160  38.345  14.283  10.617
28752W        W95161  18.461  35.131   4.099
28753W        W95162  39.981  39.219   0.362
28754W        W95163   7.219  21.994  11.100
28755W        W95164  22.055  27.893  10.699
28756W        W95165   1.381  21.936  12.480
28757W        W95166  43.335  31.423   0.250
28758W        W95167  18.981  36.879   1.400
28759W        W95168  38.592   7.205  14.441
28760W        W95169  27.828  26.106   4.014
28761W        W95170  11.935  12.125  14.020
28762W        W95171  43.009  44.088  12.000
28763W        W95172  27.215  30.074  14.970
28764W        W95173  44.324   2.342  10.510
28765W        W95174  15.521  19.759  13.913
28766W        W95175  21.959  18.570   2.370
28767W        W95176  26.428  31.096  11.551
28768W        W95177  12.857  33.518   1.812
28769W        W95178  33.139  16.749   1.390
28770W        W95179  34.888  36.559   1.019
28771W        W95180  17.780  34.391  11.601
28772W        W95181  16.784  26.753   4.155
28773W        W95182  38.503   5.011   3.211
28774W        W95183  19.846  34.377   4.679
28775W        W95184  42.268  29.730   1.047
28776W        W95185  32.879   3.274   3.567
28777W        W95186  28.602   0.677   2.831
28778W        W95187  16.489  40.881  12.546
28779W        W95188  18.971  26.724  14.332
28780W        W95189  24.661  29.497  12.771
28781W        W95190  24.074  29.934  11.210
28782W        W95191  39.097  28.178   4.132
28783W        W95192   9.348  15.633  14.863
28784W        W95193   5.955  28.968   1.339
28785W        W95194   5.286   5.508   0.347
28786W        W95195  21.402   2.717   1.208
28787W        W95196  17.296  13.177   1.227
28788W        W95197  42.333  18.841   4.927
28789W        W95198  18.275   4.764  13.976
28790W        W95199  34.145   9.563  14.562
28791W        W95200  42.568  38.571  11.675
28792W        W95201  27.620  36.160   1.250
28793W        W95202   6.786  44.277   3.196
28794W        W95203  25.194  19.065  11.889
28795W        W95204  31.345  38.018  13.123
28796W        W95205  23.339   3.928  13.054
28797W        W95206  29.555   8.485  13.102
28798W        W95207  15.866  15.585   0.888
28799W        W95208  36.506   4.673  14.859
28800W        W95209  29.692  21.931  13.406
28801W        W95210  13.398  18.333  10.950
28802W        W95211  35.347  23.050  12.155
28803W        W95212  41.767  11.865  12.406
28804W        W95213  10.165   3.735  14.392
28805W        W95214  39.060  33.149   0.047
28806W        W95215  42.406   9.866  13.494
28807W        W95216  15.711   9.366   3.373
28808W        W95217  36.632  42.227   0.222
28809W        W95218  40.958   6.910   1.890
28810W        W95219  43.827  38.323   3.416
28811W        W95220  33.036   3.803   2.891
28812W        W95221  19.385  24.416   5.011
28813W        W95222  24.092  30.762   5.027
28814W        W95223  32.607  27.122  13.904
28815W        W95224   6.267  38.322  12.350
28816W        W95225  41.853  20.778   2.886
28817W        W95226  42.883  27.178   4.741
28818W        W95227   9.584  12.178  13.943
28819W        W95228  15.776  42.900  12.130
28820W        W95229  30.744  29.600   4.890
28821W        W95230  26.667  20.962   1.298
28822W        W95231  22.199  29.056  14.953
28823W        W95232   6.257  25.565   2.973
28824W        W95233   0.434  30.789   0.799
28825W        W95234  34.479  18.740   4.538
28826W        W95235  11.629  44.693  12.235
28827W        W95236  16.232  28.936   3.675
28828W        W95237   9.115   5.706   3.271
28829W        W95238  36.385  18.380  13.981
28830W        W95239   9.728   7.182  10.629
28831W        W95240  39.486   1.201  11.489
28832W        W95241  14.091  17.340  14.072
28833W        W95242  13.163   3.642   4.061
28834W        W95243   5.708   3.489   1.013
28835W        W95244   2.310  31.934  13.692
28836W        W95245  34.539  12.565   4.182
28837W        W95246   6.795  24.945   0.936
28838W        W95247  25.491  28.482   4.003
28839W        W95248  11.592   7.274   2.179
28840W        W95249  25.783  34.566  12.143
28841W        W95250   6.749  12.758   1.877
28842W        W95251  33.100  39.689   4.820
28843W        W95252  16.984  25.518   4.990
28844W        W95253   3.846   9.442  12.213
28845W        W95254  35.288  40.332  13.034
28846W        W95255  29.636  39.331  11.116
28847W        W95256  22.742   3.201   2.156
28848W        W95257  25.349   4.916  11.583
28849W        W95258  16.006  18.818  13.087
28850W        W95259  30.348  42.509  13.983
28851W        W95260  16.308  28.201  12.372
28852W        W95261  28.136   2.787   1.991
28853W        W95262  22.474  15.859   2.117
28854W        W95263  25.539  23.560   0.953
28855W        W95264  10.031  19.135   1.199
28856W        W95265   9.420  18.334   2.724
28857W        W95266  38.819  40.927  10.997
28858W        W95267  42.475  39.076   0.514
28859W        W95268  11.744   0.266  13.363
28860W        W95269   1.546  20.990   3.596
28861W        W95270  35.153  34.053  10.673
28862W        W95271   4.897  44.418  11.186
28863W        W95272  32.062   7.423   0.184
28864W        W95273  23.011  38.980   1.856
28865W        W95274   6.432   9.947  11.099
28866W        W95275   7.706  38.565  14.494
28867W        W95276  16.160  24.645   1.941
28868W        W95277   4.658  23.916  11.011
28869W        W95278  10.823   3.348   0.017
28870W        W95279  21.359  19.212  11.929
28871W        W95280  17.634  40.912  10.664
28872W        W95281  17.396  16.606   4.327
28873W        W95282   4.583  23.364  14.021
28874W        W95283  28.651   9.275  13.461
28875W        W95284   6.032  27.075   4.871
28876W        W95285   0.225  22.972  10.768
28877W        W95286  14.342  31.428   0.944
28878W        W95287  25.654  37.834  12.084
28879W        W95288   7.126  20.030  13.466
28880W        W95289  38.361   2.482  10.642
28881W        W95290  27.274  29.662  14.414
28882W        W95291  37.885  44.808   1.919
28883W        W95292  26.616  15.091  10.674
28884W        W95293  43.338  17.994   2.768
28885W        W95294  30.972  31.957  12.593
28886W        W95295  35.931  21.260   0.831
28887W        W95296  21.978  36.387  12.052
28888W        W95297   2.647   5.867  13.437
28889W        W95298  20.802  41.521   2.667
28890W        W95299  17.594  41.464   1.716
28891W        W95300   3.750  38.922   1.162
28892W        W95301  21.606  21.621   0.641
28893W        W95302  21.109   9.643   1.940
28894W        W95303  40.672  13.597  13.929
28895W        W95304  38.119  17.319  12.992
28896W        W95305  10.412  36.417   1.172
28897W        W95306  39.269  14.737   4.909
28898W        W95307  33.150   9.901  12.048
28899W        W95308  12.524  20.007   1.001
28900W        W95309  24.711  40.223  12.753
28901W        W95310  27.254  16.602  14.036
28902W        W95311  31.641  43.816   1.352
28903W        W95312  30.634   7.229  11.111
28904W        W95313  27.186   5.911   5.132
28905W        W95314  15.671  42.261   0.894
28906W        W95315   7.912  33.204   3.215
28907W        W95316  43.791  18.412  13.038
28908W        W95317  18.622  31.103  14.909
28909W        W95318  20.213  37.038  11.624
28910W        W95319   4.256  40.598  14.891
28911W        W95320  33.144   0.703  12.905
28912W        W95321  24.527  14.603  10.688
28913W        W95322  12.920  34.255  10.530
28914W        W95323  30.272  32.407   3.102
28915W        W95324  16.667  36.451   1.908
28916W        W95325   2.931  22.213   2.229
28917W        W95326  30.037   7.010  13.024
28918W        W95327  34.383  24.882  11.594
28919W        W95328  36.613   4.318  14.466
28920W        W95329  38.312  26.130   2.259
28921W        W95330  36.973  32.160  13.446
28922W        W95331  37.762  31.009   3.133
28923W        W95332  38.562  44.380   2.185
28924W        W95333  10.042   2.380   2.550
28925W        W95334  23.568  41.922  11.663
28926W        W95335  15.230  43.886   1.216
28927W        W95336  33.674  42.882  14.710
28928W        W95337  37.939  24.700  14.495
28929W        W95338  30.567  25.266   2.658
28930W        W95339  42.011  21.706  14.087
28931W        W95340   5.540  22.025   3.181
28932W        W95341  42.039  23.242  14.042
28933W        W95342   0.774  13.463   1.202
28934W        W95343  23.734  31.165   4.212
28935W        W95344   4.736  32.016  12.981
28936W        W95345  34.525  32.596  13.203
28937W        W95346  25.163  16.360   2.489
28938W        W95347  11.815  34.579  12.431
28939W        W95348  30.498  42.167   1.204
28940W        W95349   0.457  35.843  13.848
28941W        W95350  27.389  43.479   2.432
28942W        W95351  27.401   6.345   3.313
28943W        W95352  34.418  15.690   2.668
28944W        W95353  44.354  20.814   5.166
28945W        W95354  36.958  22.016   0.189
28946W        W95355  29.587  28.843  14.778
28947W        W95356   1.199  37.775  13.957
28948W        W95357  13.752   8.879   4.101
28949W        W95358  43.202  38.501  13.494
28950W        W95359   2.237  20.997   1.442
28951W        W95360   2.859  35.951   2.198
28952W        W95361   5.394  24.106   2.847
28953W        W95362   0.425  31.932   2.146
28954W        W95363  16.860  33.426  14.137
28955W        W95364   0.426  36.541   0.775
28956W        W95365  31.410   8.336  12.452
28957W        W95366   6.352  23.551   4.532
28958W        W95367  22.650   5.675   0.854
28959W        W95368  36.394  26.461  13.162
28960W        W95369   0.848   4.674   0.847
28961W        W95370  36.591  33.774  10.043
28962W        W95371  11.713  21.169   1.610
28963W        W95372  38.622  29.552   0.406
28964W        W95373   1.172  36.030  12.304
28965W        W95374  19.320  24.557  11.124
28966W        W95375  39.049  13.274   3.557
28967W        W95376   8.238  42.564   3.210
28968W        W95377  28.461  17.164  13.465
28969W        W95378  11.766   5.293   3.725
28970W        W95379  34.308  26.019  11.857
28971W        W95380  24.962   2.453  13.953
28972W        W95381  30.938  29.929  10.824
28973W        W95382  25.165  40.853   0.575
28974W        W95383  32.399   3.930   3.253
28975W        W95384  31.593  18.298   4.246
28976W        W95385  33.855  22.040   0.837
28977W        W95386  41.846   4.369   3.634
28978W        W95387  11.003   6.518  13.483
28979W        W95388   2.659  27.471  12.128
28980W        W95389  28.014  43.881  12.413
28981W        W95390  21.171  42.783  13.461
28982W        W95391  33.550   3.508   1.813
28983W        W95392  11.113  27.643   0.267
28984W        W95393   8.875  40.625   3.243
28985W        W95394  22.128  10.493  12.661
28986W        W95395   3.443   0.025  12.435
28987W        W95396   2.259  11.849  13.413
28988W        W95397  41.878  23.827  12.319
28989W        W95398  31.184   7.147   4.126
28990W        W95399   9.607  34.156   0.728
28991W        W95400  31.998  26.192   0.463
28992W        W95401   2.699   8.533   3.878
28993W        W95402  14.096  27.101   2.674
28994W        W95403  36.426  36.940  13.541
28995W        W95404  42.046  28.131   2.213
28996W        W95405  20.022  36.747  14.413
28997W        W95406  44.471  25.619   0.386
28998W        W95407   1.419  21.991   3.750
28999W        W95408  28.469  41.002   3.584
29000W        W95409   0.587   7.219  10.363
29001W        W95410  13.877  13.648   3.592
29002W        W95411  44.852  13.816  13.264
29003W        W95412  32.547  35.033  12.224
29004W        W95413  15.880  40.297   3.737
29005W        W95414   5.309   8.854   0.679
29006W        W95415   2.503   9.222  10.761
29007W        W95416  19.472  23.543   1.673
29008W        W95417  14.782   5.140  14.340
29009W        W95418   6.118  32.372   2.285
29010W        W95419   1.562  14.536   0.489
29011W        W95420  28.327   6.686  12.114
29012W        W95421  20.137   0.777  11.151
29013W        W95422  18.784  21.639  14.879
29014W        W95423  22.077  34.385  14.512
29015W        W95424  40.526  39.433   3.780
29016W        W95425  36.965  12.343  12.039
29017W        W95426  38.609   4.336  11.739
29018W        W95427  17.175  13.856  13.913
29019W        W95428  39.038  15.423   1.800
29020W        W95429  43.841  10.001  14.400
29021W        W95430  35.538   4.813  14.528
29022W        W95431   9.729  37.540   0.378
29023W        W95432  13.821  33.620   2.887
29024W        W95433  32.411  16.375  13.958
29025W        W95434   0.274  28.022   0.753
29026W        W95435  18.058   6.311   4.285
29027W        W95436  28.428  41.247  14.465
29028W        W95437  44.487  28.925   4.046
29029W        W95438   4.472  13.803  11.193
29030W        W95439  25.515  39.882  12.140
29031W        W95440  34.888  39.940  14.343
29032W        W95441   1.939  41.614  10.719
29033W        W95442   2.395  14.733   4.308
29034W        W95443  38.150  13.943  12.830
29035W        W95444  34.845   7.321   1.759
29036W        W95445  12.362  12.124  11.181
29037W        W95446  18.709  34.141   2.065
29038W        W95447   6.706  11.750  11.227
29039W        W95448  26.459  10.321   0.331
29040W        W95449  44.915   8.247   0.817
29041W        W95450  13.812   1.420   2.677
29042W        W95451  23.624  13.579  12.057
29043W        W95452  41.823  44.329   4.310
29044W        W95453  36.484   3.309   4.531
29045W        W95454  11.039  16.147   4.199
29046W        W95455  14.538  37.362  13.409
29047W        W95456  35.052   8.182  11.799
29048W        W95457  44.282  13.170  13.909
29049W        W95458  35.386  31.754   0.456
29050W        W95459  24.513  15.609   3.388
29051W        W95460  27.175   4.614   3.137
29052W        W95461  37.290   8.591   0.521
29053W        W95462  25.436  34.906   4.969
29054W        W95463  32.390  40.582  12.445
29055W        W95464   5.432  31.970  13.252
29056W        W95465  31.035  23.912  12.904
29057W        W95466  10.847  24.467   1.856
29058W        W95467  21.230   0.927  13.141
29059W        W95468  38.905   0.250  12.079
29060W        W95469   3.281  14.951  14.600
29061W        W95470  28.675  41.079  13.445
29062W        W95471  38.883  39.108   0.894
29063W        W95472  33.838  13.595   2.934
29064W        W95473  31.720  39.571  12.337
29065W        W95474  43.963  33.517  11.069
29066W        W95475  35.904  16.455   4.771
29067W        W95476  35.967  22.301   4.518
29068W        W95477  42.069  42.231  13.131
29069W        W95478  17.175  26.004   0.842
29070W        W95479  24.767  44.888  13.289
29071W        W95480   8.084  17.779   3.112
29072W        W95481  27.149  21.744  13.928
29073W        W95482  41.753   4.445  13.351
29074W        W95483   4.050   5.799  13.860
29075W        W95484   4.405  42.801  12.023
29076W        W95485  25.479  26.628   4.529
29077W        W95486  10.904  15.201  11.248
29078W        W95487  32.067  34.091  11.527
29079W        W95488  26.122  13.247   2.694
29080W        W95489   7.710  12.395   0.384
29081W        W95490  27.558  21.035   1.339
29082W        W95491  40.574  26.114   1.456
29083W        W95492   5.391  17.615   2.640
29084W        W95493   2.266  28.612  13.917
29085W        W95494  30.086  43.535  14.539
29086W        W95495  35.547   5.242  13.934
29087W        W95496   8.397  42.155  13.296
29088W        W95497  18.303  29.210   3.685
29089W        W95498  43.085  39.362  10.304
29090W        W95499  29.473   0.487   1.258
29091W        W95500   4.854  38.944  13.101
29092W        W95501  41.764  43.386   1.456
29093W        W95502   0.465  16.244   1.954
29094W        W95503  28.344   5.772  13.682
29095W        W95504  28.735  11.904   3.703
29096W        W95505  33.542  35.026   4.607
29097W        W95506   7.440  13.501  12.549
29098W        W95507  40.551  37.693   2.285
29099W        W95508  34.144  40.642   2.730
29100W        W95509  24.922  12.688  13.106
29101W        W95510   2.608  12.581  12.506
29102W        W95511  15.063   7.223   3.214
29103W        W95512  24.454  26.200  14.202
29104W        W95513   4.294   9.599  13.087
29105W        W95514  12.791  27.146  12.055
29106W        W95515  10.168   0.701   1.800
29107W        W95516  30.004  12.552  12.119
29108W        W95517  16.832  21.819  13.086
29109W        W95518  17.740  43.467  13.414
29110W        W95519  31.376  41.802   1.840
29111W        W95520  28.094  33.423  14.182
29112W        W95521  18.232  33.489   4.565
29113W        W95522   1.045  40.197   4.979
29114W        W95523  30.971  15.900  13.391
29115W        W95524   9.881  40.389   2.630
29116W        W95525  37.181  11.248  11.959
29117W        W95526  24.066  19.283   1.973
29118W        W95527  35.468  35.593   3.575
29119W        W95528  28.122  25.052   2.227
29120W        W95529  10.198   0.188  13.379
29121W        W95530  24.530  19.133  10.787
29122W        W95531   3.857  37.783   2.784
29123W        W95532  13.582   5.417  11.140
29124W        W95533  25.346  44.902  11.489
29125W        W95534  21.603  21.722   2.623
29126W        W95535  11.720  40.024  12.922
29127W        W95536   4.946   1.494  14.988
29128W        W95537  42.209  38.849   0.888
29129W        W95538  42.624  15.779   0.367
29130W        W95539  38.068   7.245  12.066
29131W        W95540   1.293  30.200   0.780
29132W        W95541  30.942   1.903  11.474
29133W        W95542  26.183  25.495  11.153
29134W        W95543   5.700  36.100   2.502
29135W        W95544   2.968  44.831  12.456
29136W        W95545  26.213   5.354  13.980
29137W        W95546  19.007  27.539   4.331
29138W        W95547   2.044  23.193  14.346
29139W        W95548  41.254  42.260  14.330
29140W        W95549  16.362   5.233   3.834
29141W        W95550  32.843  40.570   0.325
29142W        W95551  14.281  27.113  11.115
29143W        W95552  16.151   8.412   3.785
29144W        W95553  37.797   8.722   0.358
29145W        W95554  33.532  21.089   0.693
29146W        W95555  44.362  33.126  12.576
29147W        W95556  38.558   4.867   3.708
29148W        W95557   6.808   0.965   3.433
29149W        W95558   5.418  40.387  10.605
29150W        W95559  42.526  34.520  11.094
29151W        W95560  43.905  16.496   3.463
29152W        W95561  14.810   7.686   2.828
29153W        W95562  18.753  14.485  13.364
29154W        W95563  11.766  18.928  11.488
29155W        W95564  11.712  26.052   0.213
29156W        W95565  35.734  31.372   0.541
29157W        W95566  35.651  10.457  11.525
29158W        W95567   2.499  30.511  13.073
29159W        W95568   2.843  19.679   3.668
29160W        W95569   4.806  23.002   2.290
29161W        W95570  39.894   2.172  12.059
29162W        W95571  13.784  27.236  14.505
29163W        W95572   6.440   5.756   2.832
29164W        W95573  38.399   3.637   4.173
29165W        W95574  30.840  10.394   4.607
29166W        W95575  30.518  31.055  14.228
29167W        W95576  41.875  12.957  10.737
29168W        W95577  32.930  28.204  11.209
29169W        W95578  38.049  29.633  11.567
29170W        W95579  11.499  10.164  14.197
29171W        W95580  20.359  32.046   3.792
29172W        W95581  40.504  26.724  13.358
29173W        W95582  18.907  36.910  10.757
29174W        W95583  14.269  38.485   1.732
29175W        W95584   9.121  17.597  13.307
29176W        W95585  23.910  10.336   1.199
29177W        W95586  35.920   8.557  11.131
29178W        W95587  33.415  38.890   2.890
29179W        W95588  32.898  36.916  14.377
29180W        W95589  40.032  42.947  11.412
29181W        W95590   6.824  14.085   3.565
29182W        W95591  30.677  37.715  12.053
29183W        W95592  16.027  16.239   3.657
29184W        W95593  11.596  13.378  10.688
29185W        W95594  43.695  18.088  10.788
29186W        W95595  12.297  23.820   4.045
29187W        W95596   3.037  40.850  13.939
29188W        W95597  16.327   5.153   1.941
29189W        W95598  10.220  21.566  13.544
29190W        W95599   9.991   8.398   2.718
29191W        W95600  37.581  21.814   2.269
29192W        W95601   5.470  36.037  12.507
29193W        W95602  39.602   8.361   0.030
29194W        W95603   9.419  19.321   3.002
29195W        W95604  23.552   6.274  10.594
29196W        W95605  34.025  17.528   3.933
29197W        W95606  42.777  18.014  11.647
29198W        W95607  16.545   1.881   3.208
29199W        W95608  25.960  11.538  14.918
29200W        W95609  10.477  43.765  11.604
29201W        W95610  35.371  12.629  10.676
29202W        W95611  21.617  29.748   0.919
29203W        W95612  14.102   2.816   2.616
29204W        W95613   3.713  42.079  11.286
29205W        W95614  37.784   9.821  13.914
29206W        W95615  28.108  14.747   0.335
29207W        W95616  44.558  43.307  13.772
29208W        W95617  14.203  10.029   4.118
29209W        W95618  38.779  12.881   0.475
29210W        W95619  39.634  15.806  14.932
29211W        W95620   8.831  23.177   3.396
29212W        W95621   4.629  43.815   1.935
29213W        W95622  38.078  40.870  12.100
29214W        W95623  41.961  34.462   0.720
29215W        W95624  12.874  27.555   4.645
29216W        W95625  16.200  29.944   1.280
29217W        W95626  25.562  44.333   2.128
29218W        W95627  43.277  37.188  12.907
29219W        W95628  30.578  27.447   3.202
29220W        W95629   8.237  29.282   3.576
29221W        W95630  20.662  37.325  14.157
29222W        W95631  11.357  37.371  12.155
29223W        W95632  26.223  21.678  14.874
29224W        W95633  35.418   7.855   3.802
29225W        W95634  17.795  31.463  14.427
29226W        W95635  41.810  18.008   0.306
29227W        W95636  12.709  14.443  12.147
29228W        W95637  32.261  37.981  14.865
29229W        W95638  26.651  13.788   4.440
29230W        W95639  38.729  20.824   1.103
29231W        W95640  25.232  16.165  12.569
29232W        W95641  14.069  30.364  12.570
29233W        W95642  27.940  11.305   2.681
29234W        W95643  42.686   5.840   3.174
29235W        W95644  16.664  18.152   1.299
29236W        W95645  18.644  36.204  11.778
29237W        W95646  43.685  39.013   0.892
29238W        W95647  27.864  33.405   3.728
29239W        W95648  32.021  28.615   3.107
29240W        W95649  29.705  16.092   2.394
29241W        W95650  37.782   5.195   1.911
29242W        W95651  42.863   8.576  14.878
29243W        W95652  35.132  17.220   3.178
29244W        W95653   7.367  36.487  14.369
29245W        W95654  18.730  35.048   4.537
29246W        W95655  17.502  17.556  12.507
29247W        W95656   7.112  24.154   2.836
29248W        W95657  35.905  41.467   1.969
29249W        W95658  42.228  18.099  10.226
29250W        W95659   1.420  17.099  14.074
29251W        W95660  33.922  21.235  12.483
29252W        W95661  26.031   5.903   2.806
29253W        W95662  41.378  43.158  13.486
29254W        W95663   7.603  18.585  11.200
29255W        W95664  31.059  17.838  13.406
29256W        W95665  12.626  27.732  14.438
29257W        W95666  24.497  39.282  12.429
29258W        W95667  28.197  11.676  11.502
29259W        W95668  11.837  26.941   2.737
29260W        W95669   0.198  24.680  14.508
29261W        W95670   0.586   5.404   4.898
29262W        W95671  13.199  37.811   1.068
29263W        W95672   2.348  17.837   1.755
29264W        W95673  16.991  38.466   1.350
29265W        W95674  27.441  16.452   1.890
29266W        W95675  14.857  10.154  13.813
29267W        W95676  11.612  28.536   3.642
29268W        W95677  16.662  16.119   1.374
29269W        W95678  17.843  13.640   1.314
29270W        W95679  37.557  30.423   4.329
29271W        W95680  44.015  26.752   2.349
29272W        W95681  19.991  13.324  14.819
29273W        W95682  33.231  34.422  13.909
29274W        W95683  27.214  41.770  14.553
29275W        W95684  24.098   2.786   0.804
29276W        W95685  25.195  40.263   4.328
29277W        W95686  44.228   5.954  11.626
29278W        W95687   0.775  14.501   2.680
29279W        W95688   0.902  37.049  13.729
29280W        W95689  41.827  43.350  12.327
29281W        W95690  23.004  30.399   2.291
29282W        W95691  13.117  40.780  14.006
29283W        W95692  19.646  41.873   0.535
29284W        W95693  29.722   2.093  12.326
29285W        W95694   1.826   4.214   3.596
29286W        W95695  33.990  13.163  13.370
29287W        W95696  26.542   8.614   2.848
29288W        W95697  19.210   9.858  14.479
29289W        W95698  30.658  19.523   1.261
29290W        W95699  37.480  17.453   2.773
29291W        W95700  42.234  33.256   3.198
29292W        W95701  10.593  44.955  13.055
29293W        W95702  11.681  31.900   4.075
29294W        W95703  27.919  38.342   0.524
29295W        W95704  42.782  20.132  11.931
29296W        W95705  31.831   9.659  11.504
29297W        W95706   3.766  10.773   0.796
29298W        W95707  19.113  40.744  12.133
29299W        W95708  26.017   5.388   0.309
29300W        W95709  19.593  10.904   3.755
29301W        W95710  11.558  41.604  11.560
29302W        W95711   4.318  32.480  14.350
29303W        W95712  20.014  10.440  11.554
29304W        W95713  21.930  18.730  14.326
29305W        W95714  33.937  26.251  13.394
29306W        W95715   0.761  35.396  14.366
29307W        W95716  29.540  29.575  12.624
29308W        W95717  29.918   0.730  13.481
29309W        W95718  24.642  14.192  11.961
29310W        W95719   6.131   3.508   2.344
29311W        W95720   6.893  10.053   3.730
29312W        W95721  22.284  11.779   5.017
29313W        W95722  44.251  36.367   4.558
29314W        W95723  37.253   2.726   1.168
29315W        W95724  44.245  36.856   4.707
29316W        W95725  37.767   2.984  11.025
29317W        W95726   7.139  25.524   2.984
29318W        W95727   2.752  41.541  12.556
29319W        W95728   0.218  11.195  11.101
29320W        W95729  10.431  16.538  13.407
29321W        W95730   0.330  32.738  13.851
29322W        W95731   2.280   2.936  11.581
29323W        W95732   3.456  40.584  13.075
29324W        W95733  24.603  19.064   3.667
29325W        W95734   5.189   3.140   2.450
29326W        W95735  12.846  33.373   1.239
29327W        W95736  27.656  12.871   4.577
29328W        W95737   1.530  18.658  14.837
29329W        W95738  33.848  26.935  10.589
29330W        W95739  40.272   0.221  13.931
29331W        W95740  40.830  20.554   4.074
29332W        W95741  40.420  19.762   0.945
29333W        W95742  17.096   2.542  12.995
29334W        W95743  32.418  30.015  13.504
29335W        W95744  27.545  32.131  12.909
29336W        W95745  22.519  15.632  13.346
29337W        W95746  37.881  20.907   1.356
29338W        W95747  38.306  39.372  12.093
29339W        W95748  44.370  22.027   2.657
29340W        W95749  11.725  14.775  14.868
29341W        W95750  24.366  41.419   9.691
29342W        W95751   2.571  34.848   4.057
29343W        W95752   1.667  35.575   4.234
29344W        W95753  40.964  17.387  12.057
29345W        W95754  24.756  38.197  13.117
29346W        W95755  20.530  39.918  11.922
29347W        W95756  41.089  10.835  13.430
29348W        W95757  26.264  36.475   2.599
29349W        W95758  29.151  30.459  13.507
29350W        W95759   2.986  19.868  11.503
29351W        W95760  33.226  23.637  12.488
29352W        W95761   9.026   2.334  11.160
29353W        W95762  39.392   9.245  12.985
29354W        W95763  25.499  27.537  11.648
29355W        W95764  38.871   8.325   0.892
29356W        W95765  34.938  37.399   3.186
29357W        W95766  31.540  25.206  12.088
29358W        W95767  33.671  26.682   0.330
29359W        W95768  17.132  23.511  13.013
29360W        W95769  21.648  27.422  14.380
29361W        W95770  22.319  13.711  11.038
29362W        W95771  11.725  22.180   4.112
29363W        W95772  14.096  19.765   0.791
29364W        W95773  18.475  18.172   2.610
29365W        W95774  22.794  17.692   4.536
29366W        W95775  30.362  23.120   0.466
29367W        W95776  17.832  39.821  12.504
29368W        W95777  34.008  38.753   2.970
29369W        W95778  35.058  43.448   2.838
29370W        W95779   7.196  34.043   1.950
29371W        W95780  38.788  22.522  11.176
29372W        W95781  24.090  24.424   4.063
29373W        W95782  18.340  15.223   0.228
29374W        W95783   7.188   7.918  10.591
29375W        W95784   8.088  34.831   4.225
29376W        W95785  19.214  16.597  11.917
29377W        W95786  17.765  35.027   2.344
29378W        W95787  32.699   7.453   4.110
29379W        W95788   4.315  13.823   4.624
29380W        W95789   6.224   4.780   3.130
29381W        W95790  31.580  30.064  14.060
29382W        W95791  23.005  22.759   0.405
29383W        W95792  34.470  28.951  14.342
29384W        W95793  44.241   1.686  14.738
29385W        W95794  29.394  31.682  11.261
29386W        W95795  38.048   7.491  12.547
29387W        W95796  34.792   7.702   3.000
29388W        W95797  21.392  36.648  14.284
29389W        W95798  42.788  25.445   1.204
29390W        W95799  31.802  12.183  11.645
29391W        W95800  14.811  17.918   4.149
29392W        W95801  30.097  20.778   0.116
29393W        W95802   8.959  32.689  14.421
29394W        W95803  42.259  35.379   3.665
29395W        W95804  36.560  21.208   1.472
29396W        W95805  44.988  12.615   1.410
29397W        W95806  34.612  29.499   3.644
29398W        W95807  35.492  25.744   0.988
29399W        W95808  44.512   4.862   4.515
29400W        W95809  11.766  23.950   1.523
29401W        W95810  31.021  42.695   1.288
29402W        W95811   0.230  22.108   1.956
29403W        W95812  31.927  42.999   2.880
29404W        W95813  13.751   5.138  14.908
29405W        W95814  42.885   8.813  13.976
29406W        W95815  42.981  20.392   0.358
29407W        W95816  10.988  36.484   3.826
29408W        W95817  20.873  16.655  13.940
29409W        W95818  21.715  22.077  14.610
29410W        W95819   7.390  12.712   2.210
29411W        W95820  39.083  38.034  14.980
29412W        W95821  18.671   3.410   3.671
29413W        W95822  15.480  36.834  11.163
29414W        W95823   1.844  44.335  11.628
29415W        W95824  21.526  12.670   4.232
29416W        W95825   8.592  19.785   4.081
29417W        W95826  41.430  15.173   0.494
29418W        W95827  29.227  20.179   1.363
29419W        W95828   6.851  21.515   1.729
29420W        W95829  40.403  32.736   3.704
29421W        W95830  41.123  32.916  14.816
29422W        W95831  19.722  12.723   4.843
29423W        W95832   2.481  38.381  11.195
29424W        W95833  30.125   9.938  11.763
29425W        W95834  19.515  15.190   2.689
29426W        W95835  30.991  30.957   2.636
29427W        W95836  20.267   8.241  12.941
29428W        W95837  25.580   6.134   3.692
29429W        W95838  44.333  23.522   4.566
29430W        W95839  39.722  27.954  12.293
29431W        W95840  38.303  20.100  12.133
29432W        W95841  36.474   1.178  12.934
29433W        W95842   7.357  26.965   4.528
29434W        W95843  18.812  21.481   1.378
29435W        W95844  37.533  32.981   2.079
29436W        W95845  14.081  24.048   2.800
29437W        W95846  16.121  12.623  12.804
29438W        W95847  39.398  20.730   4.155
29439W        W95848  24.562   4.742  13.219
29440W        W95849   7.763  31.362   3.648
29441W        W95850  40.541   9.135  12.560
29442W        W95851  31.030  44.330  10.301
29443W        W95852  18.360  23.727   5.033
29444W        W95853  14.908  36.577  14.268
29445W        W95854  26.178  21.937  13.067
29446W        W95855  28.709   2.207   2.726
29447W        W95856  24.460  11.021   2.767
29448W        W95857  18.111  27.218   2.336
29449W        W95858  11.330  19.923   4.572
29450W        W95859  30.724  33.571   2.218
29451W        W95860  12.063  32.648  13.356
29452W        W95861   7.369  28.929   3.363
29453W        W95862  21.750   4.754   0.369
29454W        W95863   3.088  11.355   0.876
29455W        W95864  21.029   8.419  13.552
29456W        W95865  12.956  35.068   9.788
29457W        W95866   9.794  22.333   0.793
29458W        W95867  11.176   1.702  12.657
29459W        W95868  23.837  21.504  13.093
29460W        W95869   2.426   5.389   3.784
29461W        W95870   2.948  25.184  12.508
29462W        W95871   8.850   4.990   4.993
29463W        W95872   5.138   0.874   4.627
29464W        W95873  34.912  43.927   1.697
29465W        W95874   0.519  42.945   3.307
29466W        W95875  39.622  14.783  14.086
29467W        W95876  21.456   7.064   1.096
29468W        W95877  28.415  22.175  10.245
29469W        W95878   2.693  26.055   0.024
29470W        W95879  43.266  37.149  11.312
29471W        W95880   0.691  38.488   1.710
29472W        W95881  39.551  43.392  14.095
29473W        W95882  16.239  30.226   2.625
29474W        W95883   3.411  29.003  13.581
29475W        W95884  13.876  17.066   3.783
29476W        W95885  35.954   9.189   4.096
29477W        W95886  20.703  14.367   2.174
29478W        W95887  25.908   0.454  14.963
29479W        W95888   5.647  22.721  12.399
29480W        W95889  43.677  23.061   3.233
29481W        W95890   3.377  10.427   3.035
29482W        W95891  19.885  34.421   1.868
29483W        W95892  43.782  40.175  11.650
29484W        W95893   1.445  16.191   0.208
29485W        W95894  29.439  33.883   1.404
29486W        W95895  14.061  44.429  14.903
29487W        W95896   0.426   1.295  11.634
29488W        W95897  28.033  25.547   2.385
29489W        W95898  43.304  31.007   2.144
29490W        W95899  39.869  22.398   3.651
29491W        W95900  10.444  31.339  11.081
29492W        W95901  24.249  16.162  10.467
29493W        W95902   3.832   6.579  12.452
29494W        W95903   0.448  42.147   0.815
29495W        W95904  11.835  24.429  10.578
29496W        W95905   5.813  35.955   1.003
29497W        W95906   0.426  17.997   3.386
29498W        W95907  34.434  42.501  12.430
29499W        W95908  27.153  39.574   2.263
29500W        W95909  35.504  37.278  11.961
29501W        W95910  29.122  10.720   1.786
29502W        W95911  39.873  15.093   3.286
29503W        W95912  32.097  41.543  13.775
29504W        W95913   8.707  38.065   2.311
29505W        W95914   6.615  18.097   2.408
29506W        W95915   3.365  37.794   0.945
29507W        W95916  38.149   8.648   3.161
29508W        W95917  22.571  41.908   2.773
29509W        W95918   8.194   5.830  11.951
29510W        W95919  21.655  16.045  11.071
29511W        W95920  29.228  15.467   3.166
29512W        W95921  33.637  30.490   3.102
29513W        W95922  18.574  15.836   1.979
29514W        W95923  42.416  18.339   5.081
29515W        W95924   6.316  13.785   3.725
29516W        W95925  19.828  13.737  14.521
29517W        W95926   2.659  39.847  13.956
29518W        W95927  44.942  44.509  10.634
29519W        W95928   1.013  33.061  13.371
29520W        W95929  18.094  43.348   2.199
29521W        W95930  13.485  23.816   3.139
29522W        W95931  24.744  39.963   1.494
29523W        W95932   5.929   4.818  14.901
29524W        W95933  15.560  44.435   2.935
29525W        W95934  37.100  18.260  13.502
29526W        W95935  32.982  18.725  14.506
29527W        W95936  35.488   1.539  10.225
29528W        W95937   5.100  22.992   3.691
29529W        W95938  40.376   0.317  12.872
29530W        W95939  30.500  32.381  13.644
29531W        W95940  19.611  29.369   4.368
29532W        W95941  42.398  31.381   0.318
29533W        W95942  39.291  33.115  13.749
29534W        W95943  34.051  44.197   1.402
29535W        W95944  37.064  42.453   3.797
29536W        W95945  27.710  31.245  10.441
29537W        W95946  44.677  37.203   3.822
29538W        W95947  33.398  38.170   0.431
29539W        W95948  20.490  29.555   4.358
29540W        W95949  31.418  16.459   4.389
29541W        W95950  13.936  17.736  13.753
29542W        W95951  40.588  14.797   2.699
29543W        W95952  37.558  18.459  10.263
29544W        W95953  23.697   1.407  13.523
29545W        W95954  44.750  44.844   2.666
29546W        W95955  26.983  33.464   0.419
29547W        W95956  18.090   1.876  13.615
29548W        W95957   2.269  20.118  14.331
29549W        W95958  19.061   5.446  10.446
29550W        W95959  33.134  28.752  13.366
29551W        W95960   5.009  29.077  10.966
29552W        W95961   1.513  41.423   2.771
29553W        W95962   2.597  19.506  11.550
29554W        W95963  43.929  25.035   3.929
29555W        W95964   3.968  18.616   1.295
29556W        W95965   4.899  11.847   4.125
29557W        W95966  10.204  11.509  10.254
29558W        W95967  10.066  42.734  11.773
29559W        W95968  12.339  19.477   1.429
29560W        W95969  42.401  16.667   2.332
29561W        W95970   0.968  40.266  11.115
29562W        W95971  24.036  10.680   1.991
29563W        W95972   6.018   2.485   2.316
29564W        W95973  20.996  34.549   4.832
29565W        W95974   6.468   8.723  10.708
29566W        W95975  31.044  24.663  12.439
29567W        W95976   5.637  14.309   4.055
29568W        W95977  44.358   8.273  14.224
29569W        W95978  41.859  15.240  10.431
29570W        W95979  26.874  10.197  13.568
29571W        W95980  16.299   0.421  14.751
29572W        W95981  41.778  21.220   1.800
29573W        W95982  22.516   8.735   3.666
29574W        W95983  39.388  44.995  11.115
29575W        W95984  36.579  38.869  11.560
29576W        W95985   8.466   2.650   0.320
29577W        W95986  33.154  41.850   4.073
29578W        W95987  27.782  43.932  13.889
29579W        W95988  30.308   2.515  13.991
29580W        W95989   0.192   5.085  11.677
29581W        W95990  36.023  37.259  11.241
29582W        W95991   1.947  37.301  11.981
29583W        W95992  11.072  17.748   0.428
29584W        W95993  38.515  26.483  14.522
29585W        W95994  41.250  20.377   3.627
29586W        W95995  20.130   4.467  12.046
29587W        W95996  18.313  23.090   1.917
29588W        W95997  15.086  40.453   2.011
29589W        W95998   9.153   4.707  13.881
29590W        W95999  26.330  41.021  12.618
29591W        W96000   1.459  37.867   0.853
29592W        W96001  30.629  42.464  14.419
29593W        W96002  43.430   0.886   2.402
29594W        W96003  40.559  34.083   1.798
29595W        W96004   0.961  36.096  13.537
29596W        W96005  27.919  13.824  13.601
29597W        W96006  40.468   5.210  13.618
29598W        W96007  17.569  13.280   0.304
29599W        W96008  39.222  13.156  11.067
29600W        W96009  39.567  37.465   0.432
29601W        W96010  13.577   9.453   1.712
29602W        W96011  21.722  41.556  12.886
29603W        W96012  17.978  18.039   3.540
29604W        W96013  25.389  38.986   0.201
29605W        W96014  30.916  38.500   4.643
29606W        W96015   5.389  31.894   0.605
29607W        W96016  19.297  38.498   3.534
29608W        W96017  42.524  41.963  13.046
29609W        W96018   1.274   6.049   2.825
29610W        W96019  38.807  21.275  13.423
29611W        W96020  11.404  33.561   2.640
29612W        W96021  18.255  11.092   0.097
29613W        W96022   4.417   3.690   0.777
29614W        W96023  19.135   6.430   4.346
29615W        W96024  32.543   2.132   2.898
29616W        W96025  26.686  17.696   1.508
29617W        W96026  24.428   6.764   1.488
29618W        W96027   5.380  27.487  13.736
29619W        W96028  20.355  39.913   4.523
29620W        W96029   5.139  22.687  12.260
29621W        W96030  21.874   8.959   2.618
29622W        W96031   2.723  13.139   4.398
29623W        W96032   6.363  22.069  14.054
29624W        W96033   0.738  15.422  13.321
29625W        W96034  22.302  11.507  10.705
29626W        W96035   4.462  40.357  11.935
29627W        W96036   7.036   8.939  11.542
29628W        W96037   3.405   3.204   2.928
29629W        W96038  43.907  41.734   2.327
29630W        W96039  42.184  28.540   3.277
29631W        W96040  34.035  29.596   3.299
29632W        W96041  10.706  38.750   4.359
29633W        W96042   5.162  41.476  14.275
29634W        W96043  26.660   7.742   0.778
29635W        W96044  31.015  36.820  13.428
29636W        W96045  34.332  21.673   2.297
29637W        W96046  18.620  31.443  10.680
29638W        W96047  16.811  18.768   0.019
29639W        W96048  23.501   9.859  14.984
29640W        W96049  14.653   2.489   3.198
29641W        W96050  27.867  11.064  10.247
29642W        W96051   7.908   4.301  12.362
29643W        W96052  41.555  44.411   3.495
29644W        W96053   1.768  44.782   1.878
29645W        W96054   7.810   1.420  14.881
29646W        W96055   4.515  22.606   5.721
29647W        W96056  31.830   6.559   4.688
29648W        W96057   7.660  34.020   2.142
29649W        W96058   0.466  30.636  14.428
29650W        W96059   1.856   5.547   1.871
29651W        W96060  21.066   2.717  12.452
29652W        W96061   2.668  34.120   0.882
29653W        W96062  18.521  28.289  12.770
29654W        W96063  41.402  24.983   3.448
29655W        W96064  34.435  10.140  12.864
29656W        W96065  33.596   7.867  11.654
29657W        W96066  42.582  27.402   2.994
29658W        W96067   8.674  15.058   0.963
29659W        W96068  34.964  21.037   1.007
29660W        W96069   0.096  29.596  14.420
29661W        W96070  30.101  44.973   1.346
29662W        W96071  27.955  26.476  13.803
29663W        W96072   2.459  25.038   0.020
29664W        W96073  20.173  21.546   0.717
29665W        W96074  42.436   0.830  13.483
29666W        W96075  22.768  37.006   3.201
29667W        W96076  28.318  11.864  10.031
29668W        W96077   6.411  42.743   4.551
29669W        W96078  28.006   6.286   1.687
29670W        W96079  20.964  36.863  10.496
29671W        W96080  43.383  24.232   1.763
29672W        W96081  17.272  20.243   1.514
29673W        W96082  41.578  22.530   1.488
29674W        W96083  29.836  10.158   3.375
29675W        W96084   3.729   1.734  13.576
29676W        W96085  11.711  16.514   0.048
29677W        W96086  30.185   0.282   1.951
29678W        W96087  18.504  36.130  11.274
29679W        W96088  24.907  30.485  12.988
29680W        W96089  22.155  14.477  10.954
29681W        W96090  28.062   4.625   0.806
29682W        W96091  36.226  17.569   2.660
29683W        W96092  21.329  15.790   2.609
29684W        W96093  33.427  43.965  12.957
29685W        W96094  30.562  44.507   0.376
29686W        W96095  30.585  20.145   0.810
29687W        W96096  36.459  16.048   4.454
29688W        W96097  37.045  22.664   4.631
29689W        W96098  17.540   3.743   1.381
29690W        W96099  39.072  23.033   2.920
29691W        W96100  32.866  15.691   4.782
29692W        W96101  10.225  28.966  13.601
29693W        W96102  27.557  36.395   2.910
29694W        W96103  25.908  14.724   2.937
29695W        W96104   3.757  11.420   1.653
29696W        W96105  42.274  28.886   1.177
29697W        W96106  38.485  26.351   0.065
29698W        W96107  19.282  33.894   2.694
29699W        W96108  29.079  13.944  14.954
29700W        W96109  27.464   5.262   3.654
29701W        W96110   2.732  23.946  11.872
29702W        W96111   8.185  21.569  14.046
29703W        W96112  21.857   7.225   0.838
29704W        W96113   5.362  12.813  11.630
29705W        W96114  27.565  13.028   2.476
29706W        W96115  39.284   6.947  11.161
29707W        W96116  13.790  42.584   0.951
29708W        W96117  23.030  13.337   4.132
29709W        W96118  40.000  29.701   0.781
29710W        W96119  13.445   9.884  11.583
29711W        W96120  26.249  22.472   1.264
29712W        W96121   7.412  32.768   2.804
29713W        W96122  34.928  18.677  11.279
29714W        W96123  24.931   7.193  14.991
29715W        W96124   7.783  11.139  11.377
29716W        W96125  40.133  13.316  14.942
29717W        W96126   0.403  18.558  13.050
29718W        W96127  44.894  35.541  11.229
29719W        W96128  16.753  36.006  14.462
29720W        W96129  38.096   6.340  14.342
29721W        W96130  35.648  34.439  11.361
29722W        W96131  24.097  14.240  10.049
29723W        W96132   1.377  25.626  10.735
29724W        W96133   6.592   4.152  11.691
29725W        W96134  15.835   6.563   0.390
29726W        W96135  11.871  27.651   2.395
29727W        W96136  30.152   0.522  13.048
29728W        W96137  28.495  20.285  11.482
29729W        W96138   9.825   8.728   4.538
29730W        W96139  20.556   8.749   1.953
29731W        W96140  19.449  12.077   0.380
29732W        W96141  42.046  20.626   0.945
29733W        W96142   7.774  16.715  14.016
29734W        W96143  32.081  16.958  12.333
29735W        W96144   6.471  36.495   1.896
29736W        W96145  37.913  33.844   1.313
29737W        W96146  30.615  42.054   0.650
29738W        W96147   6.920   7.315   2.500
29739W        W96148   8.946  41.911   5.194
29740W        W96149  32.190  16.288  12.951
29741W        W96150  27.164  14.924   2.741
29742W        W96151   1.330  34.234  11.829
29743W        W96152  33.974  35.320  12.889
29744W        W96153  12.439   9.689  14.697
29745W        W96154  28.954  25.328   0.905
29746W        W96155  29.912  15.103   2.347
29747W        W96156  44.470  31.193   0.765
29748W        W96157  11.467   3.139  14.427
29749W        W96158  41.451  31.377  13.234
29750W        W96159   3.645   6.874   3.225
29751W        W96160  31.888   0.634  14.831
29752W        W96161  40.736  11.155   3.453
29753W        W96162   7.113  31.809   9.840
29754W        W96163  36.011  25.034   4.329
29755W        W96164  26.541  41.143  11.516
29756W        W96165  25.692  32.723   0.653
29757W        W96166  27.875   1.408   4.271
29758W        W96167   9.078   4.003  11.638
29759W        W96168  16.843  24.302  11.149
29760W        W96169  20.649  24.537   0.199
29761W        W96170  27.708  22.609   0.411
29762W        W96171  19.969  10.664  13.765
29763W        W96172  40.291  23.449  14.305
29764W        W96173  26.389  11.729   2.118
29765W        W96174  34.897  40.051   0.746
29766W        W96175  28.191  28.430   0.489
29767W        W96176  44.710  40.997  14.296
29768W        W96177  44.524   7.113   1.414
29769W        W96178  40.393   7.207   0.490
29770W        W96179  32.931  37.931   0.396
29771W        W96180  39.582   6.548  10.653
29772W        W96181   0.024  44.040  12.467
29773W        W96182  26.095  40.086  13.292
29774W        W96183   3.299  30.538  13.466
29775W        W96184  19.059  34.036  11.886
29776W        W96185  43.330  34.007   1.254
29777W        W96186   0.691  20.970  13.717
29778W        W96187   8.381  29.109   4.643
29779W        W96188   8.358  11.820   3.711
29780W        W96189  14.015  13.582  12.644
29781W        W96190  38.082  37.711   2.020
29782W        W96191  43.335  27.952  11.895
29783W        W96192   2.310  19.061   3.236
29784W        W96193   2.007  38.937   1.267
29785W        W96194  44.479  42.804  12.919
29786W        W96195  31.537  44.271   1.677
29787W        W96196  18.572  26.882  11.078
29788W        W96197   0.002  11.108  12.008
29789W        W96198  30.400   8.594  11.637
29790W        W96199  11.009  33.699   2.297
29791W        W96200  17.137  11.716  14.079
29792W        W96201  43.532  16.117   3.055
29793W        W96202  15.235  17.184  14.826
29794W        W96203  10.149  30.932  11.161
29795W        W96204   0.855   6.624   2.228
29796W        W96205  36.583   6.549   0.931
29797W        W96206  35.812  43.743  11.594
29798W        W96207  30.908   9.678  13.846
29799W        W96208  11.103  13.925   0.897
29800W        W96209  10.753  31.668  14.827
29801W        W96210  17.438  44.907  11.231
29802W        W96211  23.667   6.309   1.537
29803W        W96212  32.289   8.281  12.533
29804W        W96213  27.392  41.986   1.074
29805W        W96214   3.921  18.923  11.640
29806W        W96215  44.826  41.585   3.725
29807W        W96216   3.212   3.392   0.395
29808W        W96217  26.102  26.268   2.288
29809W        W96218  36.861  25.456  10.724
29810W        W96219   6.756   1.832   3.135
29811W        W96220   7.967  38.121  14.435
29812W        W96221  29.143  24.723  11.174
29813W        W96222  34.266   4.154  11.216
29814W        W96223   8.637  14.309   1.863
29815W        W96224  44.495  32.161   0.887
29816W        W96225   6.687  22.487  10.454
29817W        W96226  33.663  31.602   1.919
29818W        W96227  39.161  19.352   4.961
29819W        W96228  12.088   4.731  11.396
29820W        W96229  19.289  19.223  13.806
29821W        W96230  23.705   2.261   1.301
29822W        W96231  35.876  42.325   2.209
29823W        W96232  19.902  28.748  10.442
29824W        W96233  19.752   5.876   1.851
29825W        W96234  16.445  26.881   0.313
29826W        W96235   9.320  35.342   2.829
29827W        W96236  30.113  28.477   4.271
29828W        W96237  37.852   6.236  13.877
29829W        W96238  27.109  36.970  13.805
29830W        W96239   5.917  39.520   3.815
29831W        W96240  36.313  39.300   3.384
29832W        W96241  34.524   7.985  12.517
29833W        W96242  12.052  34.915  14.144
29834W        W96243   7.349  18.958   1.367
29835W        W96244  35.794  29.953   0.781
29836W        W96245   8.147   2.729  11.086
29837W        W96246  16.689  10.698   1.686
29838W        W96247  31.242  43.005   5.017
29839W        W96248  10.429  24.083  10.496
29840W        W96249  23.524   7.901   5.040
29841W        W96250  24.942   8.069   1.421
29842W        W96251  15.861  41.497   1.238
29843W        W96252   2.360  42.263   3.254
29844W        W96253  14.128   1.093   0.317
29845W        W96254  35.641  35.846   3.163
29846W        W96255  33.852  31.654  13.470
29847W        W96256  35.327  44.786  12.526
29848W        W96257  20.986  14.033  13.922
29849W        W96258  25.151  14.266  13.797
29850W        W96259   1.360   0.953  12.421
29851W        W96260  39.493  24.016  14.895
29852W        W96261  32.518  14.793   2.446
29853W        W96262  11.570   1.844   3.200
29854W        W96263  22.745  28.517   1.833
29855W        W96264   8.151  10.516  13.379
29856W        W96265  11.091  38.958  11.597
29857W        W96266  43.906  25.934   4.461
29858W        W96267   1.780   5.485   3.791
29859W        W96268  43.380  25.940   0.840
29860W        W96269  26.097  33.343   3.432
29861W        W96270  26.240  32.953  12.977
29862W        W96271  29.891  41.850  10.646
29863W        W96272  10.192  14.987  10.451
29864W        W96273  13.111  44.670  10.251
29865W        W96274  32.645   4.875   1.885
29866W        W96275   6.648  11.778   1.267
29867W        W96276  11.788  19.794   2.301
29868W        W96277   2.390  31.919  10.789
29869W        W96278  34.156  31.551   2.043
29870W        W96279  40.306  39.789  14.056
29871W        W96280  13.297  28.111  11.850
29872W        W96281  42.761  36.927   3.579
29873W        W96282  11.169  37.764   1.252
29874W        W96283  20.603  17.317  10.766
29875W        W96284  38.030  19.949   2.283
29876W        W96285  28.658   3.884   4.165
29877W        W96286  27.827  11.354  14.712
29878W        W96287   5.505  25.223   1.540
29879W        W96288  33.901   9.715   1.956
29880W        W96289   2.728  37.321   1.861
29881W        W96290  31.239  18.780  12.586
29882W        W96291  43.895  40.674   1.246
29883W        W96292  14.288  25.046  13.361
29884W        W96293   3.446  18.606  13.500
29885W        W96294   7.089   5.705  13.796
29886W        W96295  20.732   0.277   3.715
29887W        W96296  43.739  22.727   1.458
29888W        W96297  41.309  12.720   2.937
29889W        W96298  27.912  24.800   4.213
29890W        W96299  44.069  28.941   0.885
29891W        W96300  16.131  31.470   4.358
29892W        W96301  38.002  15.673   5.237
29893W        W96302  20.023  23.152   2.381
29894W        W96303  32.383  20.266   3.640
29895W        W96304   6.080  43.198   2.138
29896W        W96305  36.405  32.120  12.171
29897W        W96306  25.246  32.467   3.301
29898W        W96307  20.255   3.343   1.754
29899W        W96308  16.905  32.091   3.502
29900W        W96309   2.816  27.944  13.795
29901W        W96310  30.887   2.451  14.924
29902W        W96311  44.013  25.979  14.701
29903W        W96312  27.925  43.861   1.745
29904W        W96313   2.960  21.443  13.371
29905W        W96314   7.212  39.966   3.699
29906W        W96315   8.733   2.447  13.507
29907W        W96316   7.332  36.565  11.091
29908W        W96317  14.173  10.915   1.838
29909W        W96318  29.679   6.437  10.464
29910W        W96319   7.637  43.420   0.395
29911W        W96320  33.557   3.809  12.511
29912W        W96321  30.639  11.481   1.056
29913W        W96322  41.560   0.003  13.064
29914W        W96323  39.404  34.933   0.041
29915W        W96324  41.332  42.241   1.724
29916W        W96325  37.320   1.930  14.462
29917W        W96326  24.750  16.024  11.099
29918W        W96327  35.300  10.769   1.821
29919W        W96328  11.833  33.922   0.762
29920W        W96329  43.669  35.292   2.386
29921W        W96330  20.538  14.134   0.286
29922W        W96331  13.809   3.314  11.513
29923W        W96332  32.401  21.702   4.593
29924W        W96333  36.218   4.487   0.274
29925W        W96334  12.305  18.624   4.173
29926W        W96335  26.094   6.665   1.704
29927W        W96336  23.874   1.408  14.005
29928W        W96337   4.453  30.389  11.512
29929W        W96338  35.181   4.047  13.281
29930W        W96339   4.223   4.460   2.670
29931W        W96340  17.133   0.998  13.412
29932W        W96341  30.931  26.874   1.223
29933W        W96342  27.129  20.841  10.493
29934W        W96343  36.072  23.893  13.446
29935W        W96344  27.154  18.993  12.004
29936W        W96345   3.307  35.205   2.658
29937W        W96346  44.716   6.527   4.819
29938W        W96347   9.263  32.375  12.873
29939W        W96348   3.877  14.113   3.676
29940W        W96349   9.510  39.299   0.289
29941W        W96350  41.393  30.665  12.548
29942W        W96351  33.240  29.477  10.391
29943W        W96352  32.944  28.560  12.391
29944W        W96353   1.740  30.239  12.933
29945W        W96354  31.554   7.248  13.971
29946W        W96355  41.844   6.185  13.025
29947W        W96356  39.730  10.612   0.266
29948W        W96357  22.241   7.262   3.124
29949W        W96358  31.926  42.853   4.625
29950W        W96359   2.701  38.285  14.750
29951W        W96360   6.706   1.249  11.518
29952W        W96361  10.741  13.841  14.781
29953W        W96362  28.442   4.306   2.820
29954W        W96363  10.258   5.460  13.419
29955W        W96364  24.713  16.296  10.663
29956W        W96365  21.528  35.473   1.948
29957W        W96366  32.913  19.989  11.135
29958W        W96367  13.575  37.513  13.747
29959W        W96368  26.003  11.891  10.159
29960W        W96369  42.968  42.466  10.603
29961W        W96370  20.174  44.403   4.078
29962W        W96371  25.614  26.529  14.018
29963W        W96372  29.386  37.486  12.734
29964W        W96373  19.219  22.085  13.859
29965W        W96374   4.291  22.934   4.616
29966W        W96375  19.706  12.580  14.306
29967W        W96376  43.903   3.521   2.732
29968W        W96377  38.965  16.360   2.384
29969W        W96378  15.111  24.961   0.501
29970W        W96379  37.286  44.251  14.919
29971W        W96380  39.550  29.557   2.779
29972W        W96381   4.882  42.717  14.129
29973W        W96382  24.104   4.985  12.473
29974W        W96383   6.197  14.096   2.399
29975W        W96384  28.943   8.447   1.300
29976W        W96385  12.543  37.925   4.057
29977W        W96386  14.285  32.684  14.221
29978W        W96387  40.234  30.361  11.512
29979W        W96388  38.861  33.744  11.930
29980W        W96389  41.992  42.910  12.039
29981W        W96390  20.769  31.583  14.797
29982W        W96391  37.828   7.686  12.096
29983W        W96392  14.770  32.469   1.962
29984W        W96393  37.058  35.504   2.752
29985W        W96394   7.783  17.225   0.500
29986W        W96395  11.835   5.929   1.939
29987W        W96396  32.435  39.909   0.284
29988W        W96397  14.839  39.781   3.740
29989W        W96398  36.816  11.826  11.558
29990W        W96399  25.660   0.345   4.235
29991W        W96400  37.128  19.602  11.165
29992W        W96401   2.269  29.704   3.287
29993W        W96402   5.695   3.877  12.629
29994W        W96403  14.649  36.518   2.342
29995W        W96404  25.794  23.634   2.752
29996W        W96405  13.581  12.615  11.458
29997W        W96406  36.256  21.550  13.404
29998W        W96407  28.023  27.940   1.868
29999W        W96408  16.714  23.046  12.541
30000W        W96409  26.805  35.516  11.194
30001W        W96410  16.319  34.347   1.395
30002W        W96411  10.987  39.012  13.529
30003W        W96412  32.149  19.889   1.438
30004W        W96413  32.926  25.622   0.502
30005W        W96414  30.832  41.815  10.619
30006W        W96415  37.581  20.233   2.410
30007W        W96416  18.783  40.075   4.098
30008W        W96417  13.391  20.600   3.437
30009W        W96418  40.453   0.032   4.708
30010W        W96419  17.257  33.824  13.454
30011W        W96420  28.483  39.290   3.100
30012W        W96421  40.914   7.904   0.803
30013W        W96422  14.222  10.154   1.429
30014W        W96423   1.918   9.636   1.456
30015W        W96424   5.725  14.849   2.279
30016W        W96425  39.323  37.821  14.187
30017W        W96426   9.327  11.814  10.698
30018W        W96427   2.241  36.804   1.384
30019W        W96428  35.309   6.388   0.333
30020W        W96429  44.571   8.426  12.819
30021W        W96430  37.006  13.812   2.471
30022W        W96431  40.936  20.729   1.605
30023W        W96432   7.972  41.501   1.516
30024W        W96433  43.816  36.323  14.847
30025W        W96434  15.288   6.841  14.336
30026W        W96435  36.294  21.651  14.893
30027W        W96436  38.083  37.779  12.478
30028W        W96437  10.814  38.124  12.613
30029W        W96438  14.904  25.071   2.299
30030W        W96439   3.964  42.383  14.968
30031W        W96440  22.849  24.255  10.862
30032W        W96441  41.113  23.476   1.796
30033W        W96442  30.714   4.948   0.551
30034W        W96443  39.789  25.232   4.609
30035W        W96444   5.863  27.698   4.529
30036W        W96445  37.518  32.134  10.737
30037W        W96446  38.357  20.027  13.001
30038W        W96447  33.803   9.188  10.332
30039W        W96448   6.844  29.040   1.602
30040W        W96449  30.669   1.954  14.937
30041W        W96450   7.561   1.974  10.776
30042W        W96451  14.700   6.273  13.653
30043W        W96452   3.625  39.108  11.084
30044W        W96453  10.176  25.778   2.779
30045W        W96454  27.782  21.183   2.781
30046W        W96455  26.655  38.186  14.040
30047W        W96456  18.634  18.336   0.741
30048W        W96457  23.700  42.513   2.978
30049W        W96458   2.879  33.370   2.814
30050W        W96459  41.033  11.830   1.768
30051W        W96460  21.932   8.885  12.048
30052W        W96461  24.227  38.923   2.657
30053W        W96462  29.640  14.512  12.315
30054W        W96463  39.516  19.246  14.830
30055W        W96464   5.714  23.180  12.097
30056W        W96465   0.495  41.500  14.332
30057W        W96466   0.453  12.131   0.702
30058W        W96467  29.657  21.169  12.423
30059W        W96468   0.774  19.461  14.880
30060W        W96469  18.098   1.544   3.263
30061W        W96470  12.377   5.165   2.231
30062W        W96471  41.434  26.240  12.100
30063W        W96472   7.895   5.289   1.060
30064W        W96473  15.374  41.912  11.131
30065W        W96474  25.634  36.679  12.994
30066W        W96475  21.091  33.524  11.031
30067W        W96476  18.111   5.937   0.786
30068W        W96477   4.502  12.309  11.559
30069W        W96478  17.599   8.415   4.668
30070W        W96479  39.457  35.991  13.009
30071W        W96480  24.184   5.895  14.084
30072W        W96481  16.378   4.162  12.388
30073W        W96482  14.055  36.332   3.657
30074W        W96483  13.106  33.023   0.736
30075W        W96484  34.616   7.162  10.957
30076W        W96485  27.666   9.120   1.937
30077W        W96486  40.993   6.776   4.554
30078W        W96487  21.592  29.159  12.552
30079W        W96488  32.527  11.276   1.796
30080W        W96489  28.678   7.650  11.600
30081W        W96490  21.236  10.400  13.391
30082W        W96491  18.661  43.584  14.711
30083W        W96492  20.016  15.157   2.733
30084W        W96493  35.117  37.842   2.296
30085W        W96494  33.853  41.591   0.180
30086W        W96495   2.453  34.354  13.850
30087W        W96496  32.480  11.157   0.447
30088W        W96497  24.780   9.234   3.560
30089W        W96498  28.520   0.364  11.058
30090W        W96499  44.870  39.367   2.628
30091W        W96500  15.068  27.510  14.473
30092W        W96501  32.605   5.615  14.013
30093W        W96502   3.265  26.665   4.585
30094W        W96503  15.438  16.341  13.402
30095W        W96504  44.366  16.047  12.676
30096W        W96505  13.697  17.099  12.448
30097W        W96506  11.395   2.149   3.595
30098W        W96507  23.183  13.667  12.691
30099W        W96508  29.711  13.298  12.465
30100W        W96509  21.096  38.269   3.531
30101W        W96510  10.339   9.434   3.668
30102W        W96511  27.421  32.140  10.801
30103W        W96512   2.962  10.181  13.404
30104W        W96513   3.780  22.977   1.235
30105W        W96514  32.008  18.818  13.256
30106W        W96515   0.501  34.642   3.672
30107W        W96516  30.133   1.691   4.129
30108W        W96517  28.001  21.286   1.200
30109W        W96518   6.889  35.980   4.607
30110W        W96519  33.423   2.216  14.410
30111W        W96520  35.356  38.144   4.670
30112W        W96521  34.043  26.096   4.898
30113W        W96522   9.827  39.891  12.137
30114W        W96523  42.496   7.394  12.067
30115W        W96524  22.987  12.287  14.337
30116W        W96525  33.767  44.247   1.847
30117W        W96526  27.502  20.067  11.476
30118W        W96527  16.155  40.514   9.770
30119W        W96528   7.864   4.923   0.168
30120W        W96529  23.889  33.977   3.705
30121W        W96530  38.567  42.892  13.496
30122W        W96531  33.201   8.762  14.971
30123W        W96532  34.352  35.592   2.002
30124W        W96533  27.007   5.965  13.798
30125W        W96534  38.504  36.168   0.903
30126W        W96535   8.457  30.759  11.691
30127W        W96536  29.585  18.288   2.326
30128W        W96537  40.803  11.771   4.113
30129W        W96538  33.875  36.881   3.775
30130W        W96539   8.151  26.085   3.267
30131W        W96540  10.140  10.888   3.700
30132W        W96541   9.203  28.592   4.600
30133W        W96542   3.433  31.858   2.159
30134W        W96543  27.471  37.506   4.148
30135W        W96544  21.594   6.481  13.548
30136W        W96545  16.220  25.190  10.167
30137W        W96546  16.780  27.236   3.937
30138W        W96547  14.337  15.607  11.183
30139W        W96548  28.520  30.549  12.151
30140W        W96549  10.843  29.588   0.955
30141W        W96550  29.806  32.977   0.606
30142W        W96551  31.024  41.869   3.482
30143W        W96552  36.032  25.009  14.588
30144W        W96553  36.368   6.491  14.611
30145W        W96554  23.265  20.029   4.214
30146W        W96555  22.499  40.228  11.053
30147W        W96556  42.212   3.745  14.069
30148W        W96557   7.106  10.314   3.279
30149W        W96558  40.814  21.013   0.899
30150W        W96559  10.435  15.037  13.072
30151W        W96560  12.325  22.774   4.085
30152W        W96561  10.587  41.858   4.133
30153W        W96562  27.213  12.828   3.706
30154W        W96563  16.713   4.897   2.653
30155W        W96564  30.469   8.750   4.610
30156W        W96565  39.633  24.239   3.662
30157W        W96566   7.872   6.643  12.738
30158W        W96567  12.607  43.339  11.858
30159W        W96568  44.689  25.273  11.523
30160W        W96569  30.450  36.750   2.999
30161W        W96570  20.582  27.298  12.631
30162W        W96571  39.511  38.897   2.314
30163W        W96572  11.300  12.582  14.348
30164W        W96573  24.525   7.700  10.682
30165W        W96574  15.072  36.379   0.515
30166W        W96575  42.881  38.154   0.483
30167W        W96576  17.341  36.858  12.831
30168W        W96577  25.249  34.713  12.243
30169W        W96578   8.868  38.274  14.066
30170W        W96579  27.642  18.546  10.694
30171W        W96580  26.065  36.131   0.995
30172W        W96581  44.815   4.940  12.010
30173W        W96582  12.636   4.427   1.805
30174W        W96583  13.918  42.780   4.030
30175W        W96584  22.192  32.153  12.501
30176W        W96585  11.760  29.856   4.791
30177W        W96586  20.462   5.234   0.092
30178W        W96587  44.084  40.559  12.106
30179W        W96588  15.188  44.295   3.267
30180W        W96589  31.594  15.541   2.355
30181W        W96590  15.564  26.960   4.998
30182W        W96591   2.748   7.151   1.361
30183W        W96592  17.068  17.334   1.505
30184W        W96593  17.989  23.860  10.375
30185W        W96594  19.034   4.912   4.196
30186W        W96595   6.716   7.701  10.714
30187W        W96596   5.877  33.160   2.301
30188W        W96597  35.574  14.954  14.430
30189W        W96598  39.367  28.959  11.954
30190W        W96599  15.049  30.544  10.444
30191W        W96600   4.263  16.530  13.128
30192W        W96601   2.262  15.543  13.026
30193W        W96602  22.569  14.214   3.811
30194W        W96603   4.091  13.121   4.235
30195W        W96604   9.990  32.964   1.660
30196W        W96605  41.451  17.206  10.821
30197W        W96606  25.554  43.027  11.631
30198W        W96607  26.003  34.878   1.863
30199W        W96608  24.791   5.812   2.372
30200W        W96609   5.812  12.385   0.618
30201W        W96610  22.764  20.156  14.753
30202W        W96611  29.820  18.038  11.103
30203W        W96612  25.103  24.614   3.307
30204W        W96613   1.763  29.428   3.725
30205W        W96614  22.656  12.278  11.567
30206W        W96615  18.126  34.887   1.468
30207W        W96616  13.544  10.801  11.402
30208W        W96617  36.128   3.102   2.666
30209W        W96618  39.410   4.720   1.455
30210W        W96619  44.952  30.934  11.607
30211W        W96620  41.161  43.948   0.916
30212W        W96621  15.728  36.416  10.982
30213W        W96622   0.971  16.007   4.851
30214W        W96623  15.750   2.607  14.320
30215W        W96624  42.121  24.064  14.168
30216W        W96625  18.296   7.963   4.537
30217W        W96626  10.344  42.610   2.734
30218W        W96627  13.073  12.280   4.597
30219W        W96628   5.931  30.437   3.613
30220W        W96629  25.658  27.036   1.183
30221W        W96630  36.773  20.918   4.930
30222W        W96631  28.621  19.186   4.163
30223W        W96632  32.721   9.248   0.133
30224W        W96633  11.660  30.112  13.045
30225W        W96634  20.180  40.528   2.765
30226W        W96635  41.956  26.440   0.908
30227W        W96636   1.824  21.954   2.578
30228W        W96637   2.874  15.633  14.880
30229W        W96638   6.788  21.717   3.138
30230W        W96639  23.851   5.802  11.237
30231W        W96640  29.813   5.366  12.917
30232W        W96641  34.860  20.740   2.868
30233W        W96642  37.411  39.396  14.106
30234W        W96643   2.839   6.134  12.160
30235W        W96644  17.674   4.347  10.947
30236W        W96645  34.858  42.853  10.826
30237W        W96646  16.238  17.112  11.534
30238W        W96647  15.865  35.759   1.798
30239W        W96648  27.677  18.879   0.440
30240W        W96649   3.223  34.553  10.756
30241W        W96650  14.885  28.593  12.041
30242W        W96651  44.227  13.075  12.566
30243W        W96652  20.043  15.714   4.037
30244W        W96653   0.516   4.924   1.809
30245W        W96654  38.983  17.506   1.167
30246W        W96655  30.731  21.334   2.216
30247W        W96656  16.274   8.296   4.294
30248W        W96657  30.411  21.250  13.626
30249W        W96658  28.257  42.913   3.436
30250W        W96659  44.437  26.594   0.758
30251W        W96660  24.924  16.069  11.990
30252W        W96661   8.614  42.402  14.214
30253W        W96662  37.544   3.532  11.010
30254W        W96663  31.969  44.739  13.085
30255W        W96664  38.514  16.678   1.386
30256W        W96665  17.348  11.145   2.937
30257W        W96666  18.733  25.028   2.510
30258W        W96667  37.592  37.904   0.933
30259W        W96668  20.584   4.833  14.781
30260W        W96669  27.057  36.308   0.390
30261W        W96670   5.697  37.665  10.111
30262W        W96671  27.458  22.702  14.510
30263W        W96672   1.734  41.648   4.558
30264W        W96673  14.825   7.041   5.075
30265W        W96674  15.748   5.179   2.775
30266W        W96675   2.895  37.276  14.874
30267W        W96676  35.906  22.697  13.131
30268W        W96677  28.472  35.771  12.884
30269W        W96678  11.453  26.299   1.451
30270W        W96679  23.860  39.906   4.568
30271W        W96680   1.501  21.822  13.936
30272W        W96681  10.715  24.189   3.109
30273W        W96682  43.940  41.469   2.768
30274W        W96683  25.962  13.743   2.655
30275W        W96684  16.128  16.821  10.570
30276W        W96685  28.737  22.207  12.259
30277W        W96686  43.752  28.195  12.446
30278W        W96687  13.230   0.005  10.639
30279W        W96688  32.504   8.807   1.336
30280W        W96689  22.898  42.379   3.433
30281W        W96690  22.128  28.171  12.416
30282W        W96691  13.684  24.390   2.879
30283W        W96692  18.171  20.546  11.120
30284W        W96693  29.738  34.745   0.302
30285W        W96694  39.846  21.672  12.827
30286W        W96695  43.950  31.903  14.809
30287W        W96696  21.687  24.604  12.472
30288W        W96697  15.116  21.843  11.977
30289W        W96698  17.160  15.123   2.952
30290W        W96699   1.971  21.707  14.982
30291W        W96700  18.198  23.986   0.870
30292W        W96701  41.674  36.747   4.960
30293W        W96702  34.825  38.473  13.440
30294W        W96703  35.845  35.449  12.655
30295W        W96704  36.169  29.078   4.238
30296W        W96705  24.675  41.068   0.664
30297W        W96706  23.793  18.042  14.522
30298W        W96707  21.568  11.205   0.949
30299W        W96708  31.294   0.210  13.935
30300W        W96709  42.566   6.810   3.142
30301W        W96710  23.695  29.050  14.939
30302W        W96711  34.388  27.061   3.319
30303W        W96712  42.728  37.051   1.838
30304W        W96713   7.731  26.114   1.305
30305W        W96714  28.909  32.524   3.794
30306W        W96715  22.015  38.851   2.782
30307W        W96716  27.978   0.478  13.472
30308W        W96717  22.407  31.505  13.862
30309W        W96718  39.262  43.545   1.475
30310W        W96719   3.899  18.793  13.610
30311W        W96720   5.931  43.455   4.742
30312W        W96721   6.719  44.093  12.114
30313W        W96722  19.691  39.175   3.656
30314W        W96723   1.034   5.298  10.290
30315W        W96724  37.064  23.269  13.936
30316W        W96725  28.967  30.121  10.601
30317W        W96726  37.644  40.713  14.312
30318W        W96727  10.545  42.526   4.596
30319W        W96728   9.629  22.606  12.596
30320W        W96729  11.410   8.779   1.835
30321W        W96730  36.095  17.054   3.036
30322W        W96731  39.608  23.719  11.823
30323W        W96732  43.070  19.133   4.282
30324W        W96733   1.467  42.951  11.478
30325W        W96734  14.151  24.492   3.208
30326W        W96735  13.903   9.151   4.516
30327W        W96736   5.793  41.064   4.654
30328W        W96737   6.459   4.515  12.072
30329W        W96738  12.063   9.913   0.306
30330W        W96739  39.891  34.581  13.613
30331W        W96740  33.608  32.201  11.534
30332W        W96741  42.181  16.218   5.191
30333W        W96742  31.597   7.719   0.856
30334W        W96743   5.015  40.991   1.238
30335W        W96744  40.798  32.516  12.070
30336W        W96745  28.998  13.893  10.551
30337W        W96746  36.384  21.231  12.323
30338W        W96747   4.785  15.723   3.224
30339W        W96748  25.308  41.366  10.633
30340W        W96749  15.163  18.540  12.117
30341W        W96750  15.734  22.581   3.641
30342W        W96751  15.557  24.918  13.797
30343W        W96752   1.000  35.329   3.102
30344W        W96753  31.612  15.860  12.300
30345W        W96754  34.998  12.392  10.327
30346W        W96755  30.849  23.067   2.674
30347W        W96756   8.185  19.169   0.946
30348W        W96757  25.222  15.842  14.187
30349W        W96758  36.815  12.072   0.919
30350W        W96759   1.717  11.130  10.725
30351W        W96760   4.740  14.464  13.446
30352W        W96761  39.952  44.040   0.143
30353W        W96762  29.033  41.776  10.737
30354W        W96763  30.926  19.049   4.499
30355W        W96764  12.011   3.868  13.887
30356W        W96765  28.286  37.785   5.088
30357W        W96766   5.700  32.704   0.859
30358W        W96767   0.216  19.636  12.435
30359W        W96768   4.130  29.937   1.668
30360W        W96769   6.773  13.568   3.621
30361W        W96770  40.755   3.729  11.569
30362W        W96771  23.609  41.907  10.738
30363W        W96772  40.886  29.905  14.015
30364W        W96773  30.023  13.550   1.392
30365W        W96774  28.777   4.137  14.416
30366W        W96775   4.812  18.050   4.579
30367W        W96776  41.549  11.778   3.857
30368W        W96777   0.476  28.503   0.747
30369W        W96778  40.904  18.130  11.488
30370W        W96779  15.340  13.744  12.919
30371W        W96780  43.551   4.688   0.797
30372W        W96781  39.407  20.969   5.005
30373W        W96782  24.674   1.992   3.212
30374W        W96783  28.921  16.633   2.055
30375W        W96784  39.494   7.824  14.188
30376W        W96785  44.042   9.873  14.884
30377W        W96786  20.453   9.144   3.659
30378W        W96787  11.805  35.579   3.098
30379W        W96788   0.452   6.436   1.916
30380W        W96789  34.719  44.938   0.000
30381W        W96790   1.940  14.014   1.404
30382W        W96791  41.073  23.525   2.947
30383W        W96792  20.650   0.330  10.699
30384W        W96793  18.273   3.221  10.950
30385W        W96794  33.441  28.186   2.718
30386W        W96795  18.723  38.786   2.816
30387W        W96796  27.427  43.844  10.690
30388W        W96797  23.515  23.712   1.408
30389W        W96798  21.472   8.920  12.887
30390W        W96799   2.468   4.458   2.788
30391W        W96800  27.644   7.601   2.335
30392W        W96801  19.681   8.153   1.903
30393W        W96802  39.469  21.020   1.457
30394W        W96803  30.862  33.107  11.126
30395W        W96804  16.237  19.314  13.004
30396W        W96805   1.993  33.592   0.508
30397W        W96806   5.562   2.964   4.114
30398W        W96807  40.947  24.488   1.768
30399W        W96808  24.680  41.070  12.033
30400W        W96809   5.827   8.865   2.417
30401W        W96810  12.233  18.489  14.354
30402W        W96811   2.446  23.639   4.076
30403W        W96812  38.826   8.716   1.258
30404W        W96813   4.732  20.126  13.322
30405W        W96814   1.477   8.272  12.399
30406W        W96815  34.699  30.520   0.252
30407W        W96816  43.095   5.998   9.768
30408W        W96817  29.604  11.389   4.013
30409W        W96818  29.840  27.130   0.465
30410W        W96819  22.593  31.836  14.966
30411W        W96820  23.119  35.116  10.704
30412W        W96821  23.756  35.909   0.298
30413W        W96822  18.301  33.284  12.455
30414W        W96823  25.407  35.513   2.030
30415W        W96824   9.191  24.684  10.423
30416W        W96825  43.376  42.921   3.218
30417W        W96826  41.442  28.154  12.854
30418W        W96827  19.229  12.113   4.313
30419W        W96828  12.111  39.220  12.826
30420W        W96829  41.779  18.399   5.404
30421W        W96830   7.990  34.454   0.832
30422W        W96831   5.718  30.420   3.132
30423W        W96832  16.267  21.791  11.692
30424W        W96833   6.257  16.258   0.272
30425W        W96834  18.374   8.788   2.916
30426W        W96835   9.773  13.291   2.646
30427W        W96836  18.753  38.258  10.978
30428W        W96837  38.988  19.171   2.760
30429W        W96838  39.880   7.593  14.440
30430W        W96839  15.853  14.227  13.304
30431W        W96840   6.900  10.700   0.277
30432W        W96841   1.715  12.721   2.205
30433W        W96842   8.657  12.003  14.766
30434W        W96843  26.252  25.774   2.267
30435W        W96844  25.570   6.969   0.904
30436W        W96845   9.020  43.078  12.539
30437W        W96846   6.626  35.410  12.925
30438W        W96847  29.896  34.970  13.906
30439W        W96848  36.893  43.659   1.473
30440W        W96849  18.169  35.413  14.270
30441W        W96850  44.300  19.207  10.398
30442W        W96851  32.327  36.732   2.793
30443W        W96852  14.715   2.689   3.934
30444W        W96853  17.638  22.897   0.323
30445W        W96854  39.068  23.800   0.108
30446W        W96855  18.763  28.577   0.978
30447W        W96856  40.503  25.233   0.962
30448W        W96857  12.337   4.862   1.820
30449W        W96858  28.604  16.217   2.818
30450W        W96859  14.348  31.063   4.589
30451W        W96860   4.412  24.495   1.257
30452W        W96861  18.784  23.253  13.588
30453W        W96862  17.230  39.523   4.486
30454W        W96863   9.895  41.837   0.292
30455W        W96864  25.641  12.780   0.790
30456W        W96865  44.526  41.776  12.956
30457W        W96866  20.370  17.910  12.837
30458W        W96867   0.674  41.441   3.649
30459W        W96868  15.329  16.664  13.814
30460W        W96869  28.491  30.398  14.376
30461W        W96870   7.914  10.703  11.665
30462W        W96871  41.845  15.321   3.740
30463W        W96872  28.774  11.097  10.784
30464W        W96873   4.219   0.406  13.412
30465W        W96874  31.484  13.263   3.896
30466W        W96875   6.004  26.153  12.494
30467W        W96876  10.152  31.489   3.155
30468W        W96877  35.667   8.641  14.461
30469W        W96878  30.437   4.700   2.049
30470W        W96879  29.539  23.445  14.407
30471W        W96880  32.530   6.342  10.684
30472W        W96881  17.197  41.465   2.594
30473W        W96882  14.662  37.931   4.040
30474W        W96883  36.924  38.897   1.370
30475W        W96884  34.966  27.397   0.759
30476W        W96885   7.666   7.804   2.816
30477W        W96886   8.873  10.835   0.179
30478W        W96887  30.852   6.174   4.127
30479W        W96888  10.118  25.770   4.682
30480W        W96889  28.534  15.549   1.818
30481W        W96890   3.933   0.215   3.382
30482W        W96891  14.118  14.574   2.333
30483W        W96892  32.385  25.581   3.021
30484W        W96893  24.912  25.535   3.208
30485W        W96894  31.719  43.306   1.207
30486W        W96895  21.037  33.588   0.632
30487W        W96896  29.191  25.202   4.337
30488W        W96897  33.849  42.010   3.266
30489W        W96898  16.805  11.747  14.507
30490W        W96899  13.103  29.144  13.447
30491W        W96900   8.815   0.967  14.754
30492W        W96901  36.039   0.284  11.679
30493W        W96902  20.278  23.938  11.442
30494W        W96903  31.097  18.924  11.769
30495W        W96904  14.721  25.685  13.434
30496W        W96905   0.524  26.642  14.111
30497W        W96906   0.008  10.192   1.597
30498W        W96907  11.761   5.948   2.456
30499W        W96908  28.601  16.187  10.634
30500W        W96909   6.913   1.444  11.097
30501W        W96910  36.889   2.752  11.139
30502W        W96911  17.484   6.797   2.168
30503W        W96912   1.421  26.501  14.766
30504W        W96913  40.567  17.077   4.067
30505W        W96914  40.035   5.469  11.144
30506W        W96915  38.769  19.588  10.173
30507W        W96916  12.957  40.480  14.411
30508W        W96917   4.536  40.090  10.331
30509W        W96918  32.590  28.583  11.137
30510W        W96919   4.752   4.871   5.442
30511W        W96920   8.919  41.131  13.445
30512W        W96921  17.446   0.156   2.531
30513W        W96922  11.071  16.696   1.270
30514W        W96923  23.522  17.558  14.397
30515W        W96924   3.796  34.824   2.675
30516W        W96925  27.988   4.145  13.754
30517W        W96926  25.236  28.147   2.813
30518W        W96927  15.833  42.110   4.027
30519W        W96928  18.641  16.244  14.971
30520W        W96929   2.058   3.340  13.418
30521W        W96930  41.942  42.252  12.626
30522W        W96931  37.494  33.846  11.679
30523W        W96932  20.042   0.472   2.654
30524W        W96933   4.398  27.933   0.573
30525W        W96934  17.593  25.992   0.453
30526W        W96935  14.101   0.885   2.115
30527W        W96936  16.118  22.791   2.422
30528W        W96937   8.220  32.535   2.789
30529W        W96938  35.096  11.463   4.925
30530W        W96939  24.643  38.109  11.696
30531W        W96940  32.148  31.270   1.279
30532W        W96941   0.032  27.480   4.551
30533W        W96942  33.341   9.627   1.223
30534W        W96943   3.230  39.269   0.944
30535W        W96944  28.136   4.519  12.929
30536W        W96945  26.539   7.338   1.973
30537W        W96946  13.869  16.113   2.213
30538W        W96947   5.253   3.725  12.372
30539W        W96948  17.660  20.562   3.206
30540W        W96949   5.036  26.736   1.487
30541W        W96950  29.238  33.659  13.386
30542W        W96951   9.871   2.213  12.564
30543W        W96952  12.388  25.525   2.774
30544W        W96953  43.105  29.957   1.969
30545W        W96954  25.203  24.966   4.017
30546W        W96955  42.538  12.743  11.144
30547W        W96956   3.227  38.094  13.881
30548W        W96957  15.026   8.209   2.710
30549W        W96958   6.928  44.370   2.698
30550W        W96959  34.432  44.513   1.311
30551W        W96960  40.888   4.308   0.038
30552W        W96961  16.601  35.905   0.898
30553W        W96962  27.250   5.991  12.822
30554W        W96963  41.137  36.949   0.886
30555W        W96964  35.933  23.235   2.918
30556W        W96965  23.721  44.237   4.968
30557W        W96966  42.856   1.905   1.234
30558W        W96967   9.906  20.492  13.145
30559W        W96968   8.974  35.683  11.630
30560W        W96969  44.210   3.624  11.142
30561W        W96970  15.626  36.345   0.510
30562W        W96971  30.777  34.979   5.307
30563W        W96972  21.842  30.610   2.911
30564W        W96973  38.640   7.737   3.339
30565W        W96974  18.244  15.150   2.151
30566W        W96975   4.436   8.120   2.313
30567W        W96976  24.968  32.634  11.404
30568W        W96977  35.560   9.597  14.332
30569W        W96978  25.376  10.925  11.619
30570W        W96979   3.760  30.111   3.721
30571W        W96980   7.808   6.219   1.907
30572W        W96981  36.146   3.262  13.011
30573W        W96982   4.592  44.016  11.214
30574W        W96983  44.971   4.259   2.207
30575W        W96984  15.585  29.398   0.893
30576W        W96985  10.792  17.756  11.193
30577W        W96986  32.527   5.468   4.777
30578W        W96987  23.421  35.457   4.327
30579W        W96988  34.498  36.465  10.728
30580W        W96989  28.471   4.972   3.466
30581W        W96990  15.850   6.118   2.888
30582W        W96991  25.450  15.163   1.790
30583W        W96992   4.175  31.988  14.428
30584W        W96993   3.348  26.427  11.406
30585W        W96994  21.506  44.624  10.990
30586W        W96995  15.353  17.672  10.037
30587W        W96996  18.510  26.490   1.826
30588W        W96997   5.190   1.774   3.068
30589W        W96998   9.802  41.046   1.393
30590W        W96999  17.572  15.863  12.992
30591W        W97000   8.827   7.691   4.617
30592W        W97001  15.342  40.872  10.075
30593W        W97002  36.251  26.917   1.829
30594W        W97003  20.367  23.527   2.251
30595W        W97004  19.184  36.998   3.471
30596W        W97005  37.247  11.144   3.214
30597W        W97006  29.361  33.951   3.404
30598W        W97007  15.281  31.676   3.235
30599W        W97008  33.651  30.198   0.413
30600W        W97009  14.615  36.774   1.893
30601W        W97010  14.983  27.031   2.857
30602W        W97011  15.073   1.536  13.184
30603W        W97012  18.506   4.228  13.934
30604W        W97013  44.884  30.710   4.208
30605W        W97014   9.394  39.332  14.163
30606W        W97015  19.175  38.085  12.909
30607W        W97016  33.003  44.457  11.548
30608W        W97017  20.787   6.217  10.620
30609W        W97018  38.315  11.264  14.783
30610W        W97019   4.373  15.245   3.233
30611W        W97020  15.578  17.066   2.634
30612W        W97021  17.647  40.451   0.669
30613W        W97022  21.955  31.103  10.753
30614W        W97023  16.098  18.363  10.324
30615W        W97024  32.991  42.987  11.501
30616W        W97025  28.191  29.890  14.908
30617W        W97026   8.703  30.770  14.388
30618W        W97027  21.704  11.414  10.489
30619W        W97028  18.575  11.881   2.736
30620W        W97029   6.579  29.554   2.650
30621W        W97030   0.817   1.657  13.984
30622W        W97031   1.082  10.981   1.627
30623W        W97032   4.787  10.902   4.102
30624W        W97033   6.384  36.321  13.775
30625W        W97034  10.903  17.014   4.039
30626W        W97035   7.754  16.146  12.828
30627W        W97036  28.837  29.628   1.011
30628W        W97037  10.207  23.062  14.096
30629W        W97038   4.290  26.759   1.703
30630W        W97039  44.984  16.136   3.306
30631W        W97040  32.935  41.415   1.298
30632W        W97041  29.016   5.525  10.637
30633W        W97042  15.628  33.906   5.003
30634W        W97043  19.548  14.295  11.545
30635W        W97044  22.780  28.876  12.487
30636W        W97045  35.358  20.866  11.102
30637W        W97046  33.318   0.345   2.830
30638W        W97047  23.422  23.985   0.036
30639W        W97048   3.865  10.152   1.493
30640W        W97049  42.725  23.880   2.614
30641W        W97050  16.972  42.383  11.648
30642W        W97051  18.069  35.494  12.874
30643W        W97052   0.197  41.700  14.909
30644W        W97053  42.077  31.391  11.569
30645W        W97054  18.708  21.964   2.708
30646W        W97055  21.476  14.414  13.030
30647W        W97056  37.476  16.043  10.660
30648W        W97057  42.625   7.398   4.243
30649W        W97058  12.279  12.743   4.460
30650W        W97059  40.824  27.510  13.593
30651W        W97060  28.896  28.464  14.908
30652W        W97061  33.903  26.162   3.223
30653W        W97062  29.267  18.632  10.649
30654W        W97063  20.973  29.684   4.139
30655W        W97064  39.574   8.174   3.206
30656W        W97065   0.339  31.630  12.464
30657W        W97066  22.981  12.656   0.908
30658W        W97067  40.517   5.869   1.205
30659W        W97068  44.169  25.773   1.365
30660W        W97069  18.808   4.967   2.708
30661W        W97070  10.932  36.449  10.518
30662W        W97071  27.373  38.419   2.723
30663W        W97072   2.933  38.910   4.402
30664W        W97073  35.013  33.435   0.204
30665W        W97074  30.147  10.470  12.520
30666W        W97075  41.135  34.501   4.321
30667W        W97076  27.525  35.116  13.468
30668W        W97077  34.014  19.048  10.713
30669W        W97078  12.881  29.673   3.289
30670W        W97079  42.789   0.177  11.248
30671W        W97080   6.850  44.803   3.224
30672W        W97081  44.321  16.233   2.692
30673W        W97082  43.509  27.454  12.027
30674W        W97083  22.031  24.727  12.993
30675W        W97084  38.126  41.966   4.233
30676W        W97085  39.278  33.355   1.996
30677W        W97086  31.869  29.737   4.083
30678W        W97087  18.225  33.814   1.505
30679W        W97088  28.778  19.211  13.619
30680W        W97089  37.297  32.941   0.674
30681W        W97090  27.728  13.781  11.103
30682W        W97091  40.266  23.758  12.947
30683W        W97092   9.365  26.301  11.659
30684W        W97093  13.833  42.513   3.595
30685W        W97094  32.122  13.216  12.465
30686W        W97095  38.952  11.983  11.702
30687W        W97096  39.844  44.282  12.081
30688W        W97097  22.509  35.126   1.080
30689W        W97098  29.017  32.889   2.140
30690W        W97099  15.464   1.423   5.055
30691W        W97100  14.291  31.102   2.245
30692W        W97101   3.356   1.079   4.588
30693W        W97102   2.535  40.277  11.010
30694W        W97103  15.727  12.435  11.664
30695W        W97104  15.480   4.638   3.595
30696W        W97105  13.068   8.773  13.414
30697W        W97106  27.723   0.911   2.266
30698W        W97107   0.571  36.266  12.957
30699W        W97108  16.235   5.133   3.321
30700W        W97109  39.320  12.797  12.741
30701W        W97110  39.567   0.349   2.302
30702W        W97111  33.624  36.437   9.905
30703W        W97112  19.005  43.449   1.989
30704W        W97113  28.214   3.736   4.950
30705W        W97114   5.520  38.397  10.609
30706W        W97115  31.449  30.116  13.542
30707W        W97116  35.779  39.570  12.651
30708W        W97117  23.967   1.396  12.218
30709W        W97118   9.229  27.598  14.710
30710W        W97119   1.848  39.280   0.895
30711W        W97120  41.659   8.014  10.966
30712W        W97121  32.979   5.112   0.196
30713W        W97122  33.685  24.556   4.199
30714W        W97123   7.876   4.346  11.346
30715W        W97124   9.880  23.245  10.608
30716W        W97125  35.248  44.868   3.264
30717W        W97126  11.466   7.803  11.803
30718W        W97127  24.789  39.802   3.273
30719W        W97128  17.108   4.186  13.348
30720W        W97129  27.597  25.610  14.517
30721W        W97130   7.212  17.828   2.595
30722W        W97131  35.019  31.231   2.289
30723W        W97132  22.093  21.482  14.367
30724W        W97133   7.137  22.097   3.178
30725W        W97134  38.093  29.643  13.193
30726W        W97135  43.876  43.000  12.335
30727W        W97136  33.094  23.671  11.854
30728W        W97137  22.575  17.263  14.079
30729W        W97138  27.173  10.155   4.178
30730W        W97139  33.509  24.285  12.842
30731W        W97140  15.320   6.973   4.971
30732W        W97141  41.960  15.221   0.410
30733W        W97142  42.585   4.420   4.129
30734W        W97143  11.790  24.257   3.990
30735W        W97144   2.139  27.696  12.955
30736W        W97145  36.072  15.631  11.033
30737W        W97146  23.107  22.328  12.565
30738W        W97147  40.946  35.186   0.835
30739W        W97148  16.801  10.047   1.428
30740W        W97149  41.959  12.603  14.454
30741W        W97150  20.879  23.665  14.864
30742W        W97151   0.366  33.558  14.315
30743W        W97152  27.385  17.139  13.194
30744W        W97153  34.472   5.300   2.936
30745W        W97154  23.218  28.664  13.094
30746W        W97155  24.944   4.642   0.830
30747W        W97156   8.803  14.265  11.096
30748W        W97157  29.992  11.627  14.332
30749W        W97158  42.406   6.737  11.173
30750W        W97159  44.811  44.219  11.075
30751W        W97160  21.751   0.472   2.400
30752W        W97161  40.109  20.198  11.634
30753W        W97162  16.521  38.275   1.187
30754W        W97163  32.565  26.204   2.372
30755W        W97164  12.384   5.993   5.050
30756W        W97165  19.668  30.275   4.661
30757W        W97166  24.256  31.852  11.211
30758W        W97167   3.923  23.620  11.164
30759W        W97168   1.765  22.192   4.274
30760W        W97169  20.809  23.075   0.788
30761W        W97170  23.620   1.237  11.577
30762W        W97171  21.124   7.415   1.321
30763W        W97172  40.860  14.548   3.084
30764W        W97173  10.249  13.537   0.002
30765W        W97174  23.574  34.551   3.755
30766W        W97175   1.242  12.609   4.167
30767W        W97176  21.498   7.714   3.226
30768W        W97177  44.500  30.397   1.222
30769W        W97178  15.136  42.799  13.316
30770W        W97179   7.732  36.924  14.250
30771W        W97180   4.933  17.875  11.450
30772W        W97181   9.501  15.092   4.340
30773W        W97182  11.119   6.211   4.585
30774W        W97183  37.773  43.494   1.437
30775W        W97184  34.626  36.844   4.146
30776W        W97185  37.267  30.504  12.857
30777W        W97186  21.604  36.813   1.907
30778W        W97187   9.778  12.587   2.141
30779W        W97188  25.648  36.003   5.151
30780W        W97189  20.184  35.979   3.382
30781W        W97190  18.964  43.842  11.120
30782W        W97191  14.704   2.816  13.800
30783W        W97192  17.082  16.567   0.998
30784W        W97193  19.063  18.245  11.147
30785W        W97194  44.344  16.338  13.092
30786W        W97195   8.883  35.320   2.541
30787W        W97196  24.917  30.977  14.945
30788W        W97197  12.830  35.138  12.134
30789W        W97198  23.814  17.064   0.827
30790W        W97199  18.035   9.395   3.704
30791W        W97200   0.891   7.361  14.833
30792W        W97201  11.666  32.888   3.121
30793W        W97202  24.723  42.881   2.197
30794W        W97203   6.849  33.876  12.179
30795W        W97204  37.157  44.270  10.714
30796W        W97205  13.937  37.505  14.133
30797W        W97206   9.224  17.315   2.864
30798W        W97207  33.820  19.996   1.648
30799W        W97208  13.662   1.256  11.958
30800W        W97209  44.286  22.502   2.828
30801W        W97210  17.487  36.055   2.174
30802W        W97211   2.280   7.268   2.394
30803W        W97212  28.029   5.656   0.913
30804W        W97213  15.112   2.846  11.044
30805W        W97214  19.124  23.654   0.369
30806W        W97215  41.008  10.257   1.416
30807W        W97216   1.883   8.793  11.825
30808W        W97217  22.247  29.413   2.469
30809W        W97218  32.500   1.752  13.084
30810W        W97219  32.428  11.012  11.544
30811W        W97220  10.604   2.921  13.580
30812W        W97221  11.386   9.186  12.143
30813W        W97222  34.326  17.229  14.384
30814W        W97223  39.379   1.034  10.990
30815W        W97224  22.508   8.222   0.284
30816W        W97225  16.038   4.705  10.782
30817W        W97226   4.294  12.624  13.997
30818W        W97227  44.568  31.106  13.406
30819W        W97228  44.872  32.383  13.158
30820W        W97229  18.089  37.202   1.787
30821W        W97230  11.552  22.084   1.688
30822W        W97231   8.093  34.372  13.436
30823W        W97232  17.664   0.130   3.263
30824W        W97233   7.467  20.201   2.712
30825W        W97234  12.107  27.162  13.809
30826W        W97235   3.356  25.824   3.400
30827W        W97236   2.455  33.542  11.637
30828W        W97237  43.929  12.222   2.677
30829W        W97238  21.560  16.103  14.924
30830W        W97239  40.393   2.576   2.387
30831W        W97240  21.546  14.328   1.733
30832W        W97241  36.012   7.186   0.225
30833W        W97242  13.940  11.757  13.380
30834W        W97243   9.324   1.018  14.867
30835W        W97244  34.178  20.206   1.357
30836W        W97245   9.471  25.634   1.422
30837W        W97246  10.248  42.446  13.043
30838W        W97247  37.025  31.869  10.977
30839W        W97248  36.581  14.113  14.916
30840W        W97249  23.199  39.397  14.723
30841W        W97250  37.154   0.236   0.012
30842W        W97251  35.135   8.386  14.805
30843W        W97252  23.130  21.111  11.777
30844W        W97253  19.060  44.023  13.809
30845W        W97254  39.549  26.945   3.794
30846W        W97255  38.825  44.485   3.278
30847W        W97256  35.810  39.517   0.259
30848W        W97257   9.936   9.907   1.207
30849W        W97258  11.814  23.775   4.201
30850W        W97259  21.021  17.060   0.750
30851W        W97260  33.305  42.715  12.957
30852W        W97261   7.342  13.185   1.966
30853W        W97262  28.966  31.708   1.290
30854W        W97263  37.754  15.585   1.404
30855W        W97264  23.782  19.687   3.600
30856W        W97265   3.849  22.578  14.937
30857W        W97266  30.620  44.407  11.696
30858W        W97267  31.863  38.784  14.986
30859W        W97268   2.540  11.724   2.003
30860W        W97269  36.139  27.676  12.426
30861W        W97270  36.747  16.647   0.317
30862W        W97271  44.252  28.142  12.579
30863W        W97272  34.875   3.513  12.519
30864W        W97273  26.262  26.502  14.044
30865W        W97274  27.336   4.279   2.119
30866W        W97275  26.989   0.990   1.703
30867W        W97276  36.248   7.931   5.100
30868W        W97277   3.200  29.651   0.412
30869W        W97278  35.590  29.523  14.036
30870W        W97279  36.045   2.047   4.125
30871W        W97280  19.480  43.917   0.566
30872W        W97281  39.292  21.743  11.513
30873W        W97282   6.961  40.269   1.485
30874W        W97283  34.153  13.082  11.063
30875W        W97284  19.200  41.575  13.777
30876W        W97285   5.775  25.427   3.129
30877W        W97286  22.594   0.819   2.514
30878W        W97287  16.656  17.783   0.880
30879W        W97288  43.992  33.789   0.289
30880W        W97289  17.181  33.902  11.602
30881W        W97290  19.571   5.148  14.223
30882W        W97291   1.981  27.037   4.752
30883W        W97292  29.232  36.646  13.385
30884W        W97293  34.360   5.473  11.891
30885W        W97294  13.883  19.732  14.470
30886W        W97295  31.540   2.165  14.367
30887W        W97296  37.330  40.274   4.996
30888W        W97297  22.705   6.301   1.469
30889W        W97298   3.689  10.932   4.470
30890W        W97299   6.522  23.517  10.331
30891W        W97300  10.671  28.495   0.352
30892W        W97301   0.069  33.609   1.137
30893W        W97302  34.016  21.021   0.940
30894W        W97303  28.361  42.725   1.397
30895W        W97304  38.856   8.575   4.240
30896W        W97305  20.212  25.723   0.012
30897W        W97306  42.496   9.431  12.410
30898W        W97307  31.999  25.683   0.230
30899W        W97308  25.216  18.324   3.251
30900W        W97309  12.705  39.383   0.067
30901W        W97310  31.463   0.162  10.389
30902W        W97311   3.938  22.506   1.475
30903W        W97312   6.972  40.777   1.678
30904W        W97313  30.191  11.746   2.719
30905W        W97314  10.408   5.978  10.602
30906W        W97315   8.806   5.746   1.321
30907W        W97316  16.132  39.491   2.195
30908W        W97317  22.501  11.771  11.590
30909W        W97318  19.819  31.431  13.317
30910W        W97319  32.220  13.204  10.487
30911W        W97320  39.095   0.762  13.944
30912W        W97321  20.730  42.317   4.354
30913W        W97322   8.640  20.066  12.983
30914W        W97323  24.294  43.842   3.324
30915W        W97324  15.212  33.691  11.464
30916W        W97325  17.334  18.320  11.199
30917W        W97326  30.230  37.885   3.674
30918W        W97327  20.208  25.952  11.570
30919W        W97328  33.282   6.893  12.215
30920W        W97329  11.243  14.686   2.394
30921W        W97330  30.504   4.502   0.366
30922W        W97331  14.431  16.068  11.011
30923W        W97332   9.938  20.139   0.211
30924W        W97333  11.717  23.984   0.422
30925W        W97334   1.766  22.031  10.593
30926W        W97335  15.037  41.372   4.857
30927W        W97336   4.716  16.475   0.299
30928W        W97337  37.813  16.658  11.862
30929W        W97338   5.895  42.438  13.022
30930W        W97339  42.370  12.054  13.024
30931W        W97340   6.991  44.811  11.555
30932W        W97341  15.790  40.557  14.686
30933W        W97342  34.152  15.246   2.213
30934W        W97343  42.714  27.172  12.166
30935W        W97344  30.599  40.592   4.135
30936W        W97345  15.236  25.862   3.703
30937W        W97346   5.125  41.639   0.936
30938W        W97347  26.479  24.305  12.188
30939W        W97348  33.930  40.364   4.365
30940W        W97349  12.150  27.701  12.431
30941W        W97350   5.210   2.237  11.145
30942W        W97351  12.207  34.366  13.056
30943W        W97352  30.824  10.401  13.512
30944W        W97353  31.439  35.284  11.520
30945W        W97354  18.563  30.747  11.126
30946W        W97355  33.325  35.509   1.016
30947W        W97356  34.483  42.487  14.412
30948W        W97357  30.849  26.700   0.323
30949W        W97358   2.119  16.159  12.109
30950W        W97359   6.071   3.875   0.305
30951W        W97360  22.619  30.755   3.737
30952W        W97361  37.582   0.386   3.860
30953W        W97362  18.226  27.188  10.369
30954W        W97363  16.892  34.439  13.927
30955W        W97364  20.200  19.868   4.177
30956W        W97365   4.914  21.100  12.410
30957W        W97366  22.107  39.448  12.488
30958W        W97367  23.024   7.171  11.836
30959W        W97368  28.750  25.477   4.165
30960W        W97369  40.702  20.566  12.046
30961W        W97370  39.893  31.428  13.039
30962W        W97371  22.542   7.990  13.546
30963W        W97372  23.654  11.307  14.921
30964W        W97373   6.320  34.814   4.271
30965W        W97374  13.285  19.033   0.519
30966W        W97375   3.272   1.265  12.969
30967W        W97376  23.093   7.261   4.423
30968W        W97377  41.464  24.303  10.681
30969W        W97378  42.594   8.478  11.099
30970W        W97379  18.343   1.918   4.813
30971W        W97380  23.348  31.856   1.302
30972W        W97381  30.154  14.704  12.520
30973W        W97382   5.302  38.088   3.293
30974W        W97383  35.542  11.782  10.750
30975W        W97384   8.274   6.440  12.478
30976W        W97385  35.052   6.205   2.332
30977W        W97386  34.516  42.539   2.178
30978W        W97387  33.007  39.273   1.327
30979W        W97388  40.020  36.577  14.718
30980W        W97389  28.498  40.251   1.417
30981W        W97390  22.314   5.479   2.370
30982W        W97391  40.955  14.623   4.015
30983W        W97392  26.478   5.938   3.659
30984W        W97393  42.204  42.353  13.949
30985W        W97394  34.541   9.014   4.262
30986W        W97395  22.701   6.331  10.643
30987W        W97396  34.162   2.088  10.707
30988W        W97397   2.368  30.837  14.311
30989W        W97398  34.099  39.812  12.672
30990W        W97399   6.231   5.411  12.092
30991W        W97400  11.521  30.072   4.389
30992W        W97401  35.047  33.099   3.057
30993W        W97402  18.021  10.322   4.060
30994W        W97403  18.755   1.784  13.844
30995W        W97404  39.895  14.760  14.866
30996W        W97405  38.961  20.192   0.561
30997W        W97406  26.879   8.345  12.587
30998W        W97407  22.774  28.219   1.285
30999W        W97408  42.459  14.107  10.679
31000W        W97409  27.719  39.221  12.716
31001W        W97410   7.320  27.191  11.532
31002W        W97411  19.728   7.336  11.204
31003W        W97412  44.613   6.161   0.320
31004W        W97413   1.145  35.368   4.212
31005W        W97414   6.325  28.155  12.996
31006W        W97415  16.848  33.680   2.065
31007W        W97416  44.641  28.329   2.781
31008W        W97417   1.254  14.158  11.177
31009W        W97418   7.091  33.979  14.000
31010W        W97419  38.590  18.514  12.586
31011W        W97420   6.677   5.385  11.853
31012W        W97421  35.974  33.126  11.177
31013W        W97422  15.214  26.934   4.633
31014W        W97423  33.883  35.083   3.293
31015W        W97424  15.847  43.614   2.693
31016W        W97425  44.561  11.968  11.115
31017W        W97426   4.937  29.075  14.758
31018W        W97427  10.305  36.107  10.979
31019W        W97428  10.150  22.075  11.114
31020W        W97429  15.411  42.232   4.352
31021W        W97430  10.081   9.112  12.364
31022W        W97431  18.040  23.647   4.629
31023W        W97432  23.749  16.380   3.325
31024W        W97433  34.729  17.677  14.892
31025W        W97434  33.292  31.512   2.295
31026W        W97435  15.444  19.743  12.515
31027W        W97436   3.908  19.632  12.960
31028W        W97437   8.846  18.409  12.066
31029W        W97438  13.363   6.153  12.612
31030W        W97439   5.413  44.728   3.236
31031W        W97440   1.290  22.670  13.586
31032W        W97441  15.226   0.405  13.623
31033W        W97442  30.963  26.709   2.831
31034W        W97443  22.516   0.869   3.008
31035W        W97444   7.939  38.755   0.739
31036W        W97445  19.652  29.101  10.735
31037W        W97446  36.873  42.774  10.467
31038W        W97447  35.326   6.718  10.834
31039W        W97448  28.439   9.322  14.976
31040W        W97449   9.087   7.386   1.417
31041W        W97450  25.680  16.174  13.574
31042W        W97451  41.890  43.278  10.984
31043W        W97452  41.919  16.036   4.239
31044W        W97453  23.117  41.855   2.031
31045W        W97454  37.185  21.503  13.141
31046W        W97455  26.551  19.680  11.610
31047W        W97456  41.074  37.446   0.248
31048W        W97457  35.812  12.246  10.844
31049W        W97458  14.322  10.697  13.087
31050W        W97459   4.352  24.582  12.836
31051W        W97460  28.104  43.660  10.211
31052W        W97461  31.647  15.098  14.523
31053W        W97462  10.504  34.821  12.351
31054W        W97463  12.825  11.607  11.571
31055W        W97464   3.816  20.469  11.695
31056W        W97465  42.248  42.922  10.806
31057W        W97466  13.094   5.907   4.533
31058W        W97467   5.570  13.281   1.602
31059W        W97468  17.982  17.400  13.483
31060W        W97469  38.436  43.720   3.679
31061W        W97470  21.241  27.435   4.171
31062W        W97471  40.926  23.967   1.697
31063W        W97472  33.968   8.456  10.895
31064W        W97473   1.227   2.994  13.857
31065W        W97474  37.316  42.814   4.570
31066W        W97475  17.230  41.123  10.146
31067W        W97476  23.080  28.135  10.587
31068W        W97477  34.850   6.814  10.669
31069W        W97478  40.465  20.154  14.950
31070W        W97479  19.373   6.825   0.702
31071W        W97480  41.451   3.232   3.786
31072W        W97481  25.991   6.895   2.828
31073W        W97482   1.443  17.489  11.661
31074W        W97483  38.055  40.273   2.704
31075W        W97484  24.649  43.975  10.757
31076W        W97485  40.580  30.942  14.819
31077W        W97486  17.373  42.529   1.288
31078W        W97487  25.601  34.837   1.268
31079W        W97488   6.461  21.038  13.897
31080W        W97489   0.886  15.690   2.483
31081W        W97490  27.956  39.754  11.599
31082W        W97491  30.519   6.285  13.819
31083W        W97492  34.531  16.337   3.178
31084W        W97493  16.207  16.040   1.625
31085W        W97494  25.293  43.174  12.177
31086W        W97495  14.365   3.045   4.092
31087W        W97496  19.589  26.116  13.070
31088W        W97497  31.861  17.190   3.165
31089W        W97498  27.568  19.832  11.025
31090W        W97499  19.220  20.602  13.548
31091W        W97500  10.426  37.087  13.060
31092W        W97501  19.970  19.060  14.513
31093W        W97502  33.109   5.210  12.461
31094W        W97503  15.970   3.851  11.447
31095W        W97504  16.849  25.217   3.242
31096W        W97505   6.368  39.911   4.433
31097W        W97506   0.301  43.028   2.199
31098W        W97507  16.353   6.278  13.039
31099W        W97508   7.620  35.541  12.610
31100W        W97509  25.609  36.550   4.859
31101W        W97510  11.914  38.886  14.768
31102W        W97511  37.790  15.581   3.323
31103W        W97512  23.535  39.953   0.883
31104W        W97513  27.443   1.914  12.069
31105W        W97514  20.983  29.107   2.348
31106W        W97515  20.837  18.567   2.636
31107W        W97516  41.676   4.967  11.583
31108W        W97517  31.958  10.598  12.649
31109W        W97518   5.591  15.349   2.370
31110W        W97519  10.097  16.661   1.233
31111W        W97520   7.921   0.774   3.246
31112W        W97521  27.712   8.718  14.636
31113W        W97522  29.462  36.380  13.005
31114W        W97523   4.472  32.671   3.037
31115W        W97524  17.158  10.801  13.618
31116W        W97525  43.799   6.406   1.762
31117W        W97526  42.428  28.665   4.828
31118W        W97527  16.736  32.732  10.941
31119W        W97528  35.492   1.923   4.373
31120W        W97529  22.584  44.846  13.300
31121W        W97530   6.737  40.254   3.790
31122W        W97531   3.907  24.581  11.535
31123W        W97532  10.554  39.301   2.386
31124W        W97533   6.041  11.335  11.879
31125W        W97534  23.085  22.795  13.925
31126W        W97535   2.777  25.526  13.648
31127W        W97536  16.136   3.792   4.507
31128W        W97537  10.573  43.881  13.666
31129W        W97538   5.690   7.224  14.507
31130W        W97539  37.510  35.052   2.649
31131W        W97540  33.001  40.734   4.718
31132W        W97541  29.439  29.337  14.859
31133W        W97542  22.588  19.474  11.640
31134W        W97543  34.967  29.695  12.875
31135W        W97544   7.435  27.382   2.417
31136W        W97545  19.586  28.218   3.318
31137W        W97546  38.983  10.147   1.943
31138W        W97547  34.421   8.621  11.237
31139W        W97548  20.516  16.684  11.558
31140W        W97549  15.407  32.876   2.706
31141W        W97550  40.049  26.070   0.059
31142W        W97551  17.974  35.097  11.090
31143W        W97552  14.534   7.719   1.262
31144W        W97553  32.996  44.745   0.267
31145W        W97554   5.627  31.025   4.624
31146W        W97555  15.416  26.750   2.820
31147W        W97556  18.090  42.980   2.571
31148W        W97557  20.178  44.940  14.076
31149W        W97558  39.444   1.710   2.765
31150W        W97559  18.188  36.879  11.638
31151W        W97560  15.739   4.423   2.260
31152W        W97561  14.952  26.135  11.619
31153W        W97562  18.589  21.573  14.412
31154W        W97563  21.735   7.441   4.064
31155W        W97564  38.200   2.034   0.664
31156W        W97565  37.244  24.956   0.808
31157W        W97566  34.678   9.346   2.359
31158W        W97567  35.273   6.931  10.373
31159W        W97568  20.138   5.890   1.483
31160W        W97569  23.982  27.694   2.899
31161W        W97570  11.050  44.739   1.247
31162W        W97571  32.251  42.462  14.053
31163W        W97572   3.772  19.899  12.526
31164W        W97573  24.102  34.513  10.807
31165W        W97574   8.755  27.942  11.177
31166W        W97575  33.607   0.389   1.010
31167W        W97576  11.885  18.645  14.749
31168W        W97577  42.270  19.098  14.573
31169W        W97578   1.943  16.245   3.160
31170W        W97579  42.018  29.556   3.813
31171W        W97580   5.284   0.398  12.631
31172W        W97581  43.561  10.682   1.443
31173W        W97582  20.509  29.378  11.009
31174W        W97583  36.940  34.652  13.854
31175W        W97584  10.441  32.077  13.842
31176W        W97585   6.858  40.791  12.019
31177W        W97586  25.385  43.480  12.642
31178W        W97587  29.591  24.718   1.198
31179W        W97588  41.548  22.191  11.716
31180W        W97589  15.178  25.876  14.657
31181W        W97590  30.596  20.934  12.005
31182W        W97591  43.075   9.753   0.760
31183W        W97592  12.162  37.648   4.747
31184W        W97593  33.068  21.050  14.468
31185W        W97594   1.763   4.921  13.833
31186W        W97595  42.732  24.543  11.140
31187W        W97596  36.008   7.870   4.599
31188W        W97597  29.514  21.041   3.252
31189W        W97598  25.668  28.419  12.448
31190W        W97599  25.716   0.523  10.811
31191W        W97600   6.729  12.252   4.432
31192W        W97601  35.511  42.772  13.082
31193W        W97602  29.285  21.243  11.122
31194W        W97603   6.839  26.565  14.509
31195W        W97604  10.003  37.448  14.489
31196W        W97605  36.801  30.434  14.981
31197W        W97606  41.895  36.454   2.156
31198W        W97607  42.907  36.402  12.581
31199W        W97608  42.979   5.171  11.809
31200W        W97609  33.480  25.154   2.470
31201W        W97610  36.885  25.978   0.821
31202W        W97611   4.777   4.797  12.656
31203W        W97612  38.003  42.752  14.359
31204W        W97613  20.167   3.505   0.413
31205W        W97614   9.407  34.577   2.224
31206W        W97615  26.755  31.069   4.977
31207W        W97616  23.280  17.098  14.470
31208W        W97617  40.834  24.460  11.101
31209W        W97618   2.586   9.141  11.781
31210W        W97619  24.042  41.862   0.264
31211W        W97620  43.758  22.308  12.866
31212W        W97621  25.896  43.564  13.441
31213W        W97622  41.336  44.994   4.680
31214W        W97623  15.206  37.611   4.496
31215W        W97624  38.646  33.766   0.849
31216W        W97625  12.731  28.501  13.933
31217W        W97626  30.429   7.658  14.366
31218W        W97627   6.162  35.896   0.187
31219W        W97628   7.941  25.024   2.908
31220W        W97629   7.199  33.008  10.496
31221W        W97630  40.988  23.019   2.022
31222W        W97631  34.676   0.421   4.770
31223W        W97632   6.298  39.552  12.373
31224W        W97633   5.387   2.730  14.502
31225W        W97634  25.527  20.690   0.249
31226W        W97635  22.056  32.399   1.402
31227W        W97636  18.100  37.581  12.414
31228W        W97637  16.902  20.559   1.329
31229W        W97638   0.035  28.607  11.488
31230W        W97639  27.568   7.899   9.789
31231W        W97640  12.840   5.453   0.745
31232W        W97641  17.705  26.991  13.938
31233W        W97642   0.848  26.692  12.055
31234W        W97643   5.315   2.066   3.883
31235W        W97644  30.028   2.849   0.789
31236W        W97645  23.442  18.506  12.468
31237W        W97646  26.570   7.488   3.365
31238W        W97647  19.714  21.539   2.379
31239W        W97648  32.956  11.028   1.942
31240W        W97649  29.821  34.934   0.992
31241W        W97650   3.911  44.438  10.752
31242W        W97651   3.254  18.146  13.440
31243W        W97652   0.666  22.873  11.050
31244W        W97653  40.452  14.619   3.610
31245W        W97654  19.779   7.514   0.358
31246W        W97655  36.893  33.026   4.372
31247W        W97656  36.437  17.619  14.695
31248W        W97657   4.287  39.531  13.480
31249W        W97658  27.202  22.207   1.696
31250W        W97659   4.431  25.749  11.694
31251W        W97660  41.776  34.900   1.037
31252W        W97661  21.508  32.470  13.318
31253W        W97662  16.191   8.376  11.566
31254W        W97663  33.588  10.279   2.676
31255W        W97664  23.696  43.579   0.761
31256W        W97665  28.289  14.622   4.940
31257W        W97666  40.236  20.200  10.468
31258W        W97667   1.898  10.666  10.991
31259W        W97668  42.839  12.168   0.453
31260W        W97669   1.619  41.923   2.583
31261W        W97670   9.603   8.863  13.541
31262W        W97671  32.914  25.752  13.879
31263W        W97672   6.339  29.962   1.015
31264W        W97673   2.582  16.785  10.427
31265W        W97674  31.935   5.776  12.401
31266W        W97675  18.902  37.347  13.538
31267W        W97676   6.076  24.410   4.018
31268W        W97677  39.720  11.829   4.182
31269W        W97678  43.778  17.100  13.890
31270W        W97679  10.675  38.083  14.513
31271W        W97680  15.681  22.743   1.663
31272W        W97681   9.339   7.907   4.541
31273W        W97682  23.685  32.589  12.458
31274W        W97683  20.184  29.648  13.973
31275W        W97684  14.192   7.593   3.241
31276W        W97685  40.849  10.681   3.297
31277W        W97686  26.144  37.444  14.002
31278W        W97687   6.006  34.483  14.924
31279W        W97688  22.567  36.506  10.760
31280W        W97689  41.154  38.943  13.897
31281W        W97690   9.889  23.454   3.101
31282W        W97691   0.484  24.746   3.252
31283W        W97692  22.204  31.556  10.732
31284W        W97693   3.263  19.157   3.369
31285W        W97694  40.453  43.273  14.000
31286W        W97695  40.068  44.691   1.914
31287W        W97696  12.846  20.604  12.447
31288W        W97697  23.898  17.621   1.192
31289W        W97698  44.033  32.402  12.319
31290W        W97699  11.605  15.089   4.366
31291W        W97700   8.432  39.535  11.522
31292W        W97701  41.561   4.873  10.693
31293W        W97702   5.599  42.671  12.049
31294W        W97703  16.275  15.249   3.691
31295W        W97704  22.731  10.403  13.306
31296W        W97705   4.847  18.243  11.128
31297W        W97706  16.357  18.996   3.207
31298W        W97707  34.553  40.323  10.928
31299W        W97708  28.372  32.556  13.994
31300W        W97709   7.356   9.817   2.352
31301W        W97710  30.664   8.852  12.005
31302W        W97711   8.337  26.722   0.858
31303W        W97712  23.503  34.331  14.259
31304W        W97713   4.457  41.915   4.105
31305W        W97714  24.148  31.143   1.261
31306W        W97715  28.773  12.760   3.879
31307W        W97716  35.758  12.672   3.684
31308W        W97717  15.328  36.620  14.568
31309W        W97718  26.081  11.090   3.186
31310W        W97719  41.356   9.032   2.395
31311W        W97720  17.544  39.603   4.069
31312W        W97721   7.019  43.843  11.790
31313W        W97722   9.827  17.767  10.438
31314W        W97723  43.681  38.000  12.916
31315W        W97724  15.686  31.933  10.624
31316W        W97725  15.653   0.085   2.799
31317W        W97726  39.706   0.888   1.769
31318W        W97727  23.217  41.258  10.782
31319W        W97728   4.348  41.217   3.650
31320W        W97729   9.466  29.048   4.598
31321W        W97730   2.413  12.756  13.806
31322W        W97731   9.652  38.197   1.661
31323W        W97732  36.715  24.006   1.564
31324W        W97733  13.283   1.098  14.547
31325W        W97734   5.656  39.980  12.560
31326W        W97735   6.333   8.916   0.514
31327W        W97736  13.643  18.713   2.694
31328W        W97737   4.674  26.298   3.178
31329W        W97738  19.317   2.875  11.137
31330W        W97739  42.733  44.451   4.099
31331W        W97740   3.878  41.716  12.174
31332W        W97741   8.951  13.877   4.562
31333W        W97742   6.601  14.396   2.171
31334W        W97743  21.394   8.838  12.015
31335W        W97744  15.360  11.086  13.976
31336W        W97745  38.087  39.392   2.734
31337W        W97746  16.803   4.304  10.907
31338W        W97747   8.587  42.105   4.844
31339W        W97748  38.443  14.235   1.736
31340W        W97749  43.933  30.456   4.741
31341W        W97750  13.554  13.832  12.599
31342W        W97751  32.725  29.003   2.300
31343W        W97752  39.816   8.186   2.742
31344W        W97753  32.347  31.451  11.129
31345W        W97754  23.188  19.901   1.926
31346W        W97755  34.150  10.825   4.977
31347W        W97756   8.358  10.661  13.928
31348W        W97757   7.728  43.273   2.882
31349W        W97758  31.919  20.777   0.901
31350W        W97759  18.567  29.736  13.852
31351W        W97760   7.698  41.419   2.871
31352W        W97761  42.663  12.702   4.746
31353W        W97762  23.737   0.900   3.622
31354W        W97763   1.831  27.392  12.484
31355W        W97764  18.892  32.608  14.717
31356W        W97765  19.136   4.329   0.725
31357W        W97766  40.700  21.502  13.969
31358W        W97767   7.656  16.761  11.535
31359W        W97768  43.246  27.206   0.922
31360W        W97769   0.917  39.188   4.965
31361W        W97770  19.611  40.258  11.098
31362W        W97771   2.339   1.772   4.229
31363W        W97772  18.435  27.626   5.001
31364W        W97773  19.709   3.892  13.574
31365W        W97774   3.398  18.844  14.785
31366W        W97775  18.824  35.901   2.720
31367W        W97776  42.501  34.006  11.003
31368W        W97777  10.109  10.090   3.024
31369W        W97778  22.580   1.849  11.629
31370W        W97779  26.383  28.423   3.954
31371W        W97780  35.812  21.712  11.476
31372W        W97781  35.593  10.790   4.406
31373W        W97782  29.511  20.225   2.679
31374W        W97783  32.936  26.955  13.512
31375W        W97784  16.521  39.450   1.698
31376W        W97785   4.388  35.985   2.768
31377W        W97786  42.332  19.373  10.603
31378W        W97787  25.738   7.167   4.636
31379W        W97788  37.215  35.746   3.181
31380W        W97789  34.990  27.198  14.851
31381W        W97790  36.022  10.939   0.062
31382W        W97791  44.207  17.738   2.504
31383W        W97792  31.563  27.131   2.300
31384W        W97793  37.423  24.326   2.349
31385W        W97794  13.959  31.584  11.120
31386W        W97795  26.303  23.593   2.830
31387W        W97796  44.788  29.432  14.037
31388W        W97797  14.880  34.520  10.431
31389W        W97798   3.907  18.866   1.770
31390W        W97799  15.830   4.222  14.419
31391W        W97800   2.359   2.810  11.057
31392W        W97801  42.893  14.587   4.552
31393W        W97802  14.645  41.601  13.844
31394W        W97803  39.889  21.663   3.156
31395W        W97804   2.734  40.983   1.433
31396W        W97805   6.450  16.141  13.513
31397W        W97806  17.420  34.772   0.901
31398W        W97807   8.115  26.512  12.795
31399W        W97808  26.883  43.501  13.084
31400W        W97809  22.122  29.690  10.891
31401W        W97810  12.233   9.661  13.075
31402W        W97811  38.001  33.347  13.436
31403W        W97812  12.929  13.168   1.971
31404W        W97813  12.634  24.165   0.553
31405W        W97814   1.017  34.564   1.748
31406W        W97815  28.594  34.005   0.740
31407W        W97816  37.098  21.715  12.030
31408W        W97817   6.217  13.245   4.619
31409W        W97818  23.304   6.815   4.581
31410W        W97819  42.933   5.292   0.357
31411W        W97820   5.921   8.772  11.563
31412W        W97821  32.555  16.213   4.829
31413W        W97822   9.991  20.565   3.328
31414W        W97823  27.471  13.132   0.207
31415W        W97824  32.020  20.136   2.663
31416W        W97825  44.826  32.910  11.944
31417W        W97826   4.365  33.264   1.407
31418W        W97827   7.828  43.917  13.542
31419W        W97828  26.978  35.394  12.250
31420W        W97829  10.858  25.624  10.884
31421W        W97830  40.292  36.962  13.139
31422W        W97831  26.567   0.782   1.947
31423W        W97832  18.152  38.502   0.887
31424W        W97833  33.875  20.504  13.602
31425W        W97834  27.427  10.041   3.762
31426W        W97835  15.831  37.973  12.373
31427W        W97836  31.030  11.797   3.618
31428W        W97837  18.791  26.856  11.996
31429W        W97838  11.666  28.989  11.501
31430W        W97839  21.209  17.416   3.128
31431W        W97840  18.251  13.128  10.675
31432W        W97841  17.067  33.688   4.004
31433W        W97842  31.865  42.919  10.727
31434W        W97843  39.967   1.633   2.247
31435W        W97844   6.459  33.329   3.991
31436W        W97845  10.553  12.158   2.462
31437W        W97846  41.837  34.494  14.715
31438W        W97847  24.767   7.657   0.852
31439W        W97848  12.320   7.382   4.185
31440W        W97849  23.483   8.021  11.206
31441W        W97850  25.423   8.204  10.720
31442W        W97851  32.890  38.616   3.805
31443W        W97852  41.992  31.608   2.753
31444W        W97853   9.445  29.559  10.581
31445W        W97854  29.113  33.378   2.275
31446W        W97855  23.460  34.988   1.630
31447W        W97856  32.665  35.804   4.667
31448W        W97857  32.770  42.582  13.984
31449W        W97858  17.742   0.984  14.449
31450W        W97859  28.919  37.853  14.487
31451W        W97860  10.752   6.165  12.430
31452W        W97861  36.831  20.248   2.789
31453W        W97862  23.922   2.349  14.905
31454W        W97863  20.438   0.072   3.343
31455W        W97864  33.575  41.221  13.877
31456W        W97865   5.400   6.007   0.442
31457W        W97866  26.068  22.826  10.248
31458W        W97867  27.118  24.144   4.425
31459W        W97868  29.530   1.059  13.330
31460W        W97869  19.017  16.714  14.246
31461W        W97870  40.277  19.321  11.557
31462W        W97871   2.205  18.644   2.135
31463W        W97872  26.906  12.127  11.607
31464W        W97873  40.399  28.583  10.775
31465W        W97874  25.393  11.416  10.599
31466W        W97875  11.658   4.873  11.077
31467W        W97876  19.429  14.672  14.833
31468W        W97877  26.026  20.725  11.239
31469W        W97878  39.350  13.926   1.975
31470W        W97879  14.167  28.067  12.194
31471W        W97880  12.100  23.537  12.903
31472W        W97881  40.130  17.143  12.890
31473W        W97882  22.101  36.436   4.566
31474W        W97883   7.603  27.353   2.900
31475W        W97884  21.756   1.296   2.468
31476W        W97885   0.851   9.944   5.100
31477W        W97886  43.482  33.718  11.784
31478W        W97887  42.976  30.822  13.989
31479W        W97888  17.012  44.054  10.490
31480W        W97889  44.426   0.295   2.740
31481W        W97890  38.954  17.802  13.032
31482W        W97891  35.225  12.799   0.028
31483W        W97892  12.595  33.838   0.324
31484W        W97893  20.617  13.977   4.947
31485W        W97894   8.174  39.444   4.053
31486W        W97895  32.539  15.583  11.888
31487W        W97896  36.485  27.608  14.022
31488W        W97897  37.134  24.992  11.573
31489W        W97898  16.248  31.016   0.918
31490W        W97899   0.662   2.277  11.147
31491W        W97900  19.799   4.198  11.088
31492W        W97901   4.383  33.964   3.779
31493W        W97902   5.677  41.486   2.315
31494W        W97903  23.612  39.413  13.895
31495W        W97904  21.079   9.253  12.000
31496W        W97905  13.134   1.451   2.297
31497W        W97906  17.014  15.199   0.884
31498W        W97907  39.252  44.787  11.579
31499W        W97908  32.090  31.118  12.455
31500W        W97909   8.407  37.524   3.683
31501W        W97910   4.376   8.183   2.845
31502W        W97911  27.483   8.282  14.801
31503W        W97912  44.352   8.180  11.844
31504W        W97913  33.494  10.960   4.206
31505W        W97914   1.408  26.439   2.716
31506W        W97915  21.153  39.247   3.377
31507W        W97916  12.438   6.370  12.918
31508W        W97917  31.435  30.039  11.143
31509W        W97918   3.416  42.887  14.306
31510W        W97919  16.276  11.015  13.342
31511W        W97920  18.287  19.212  10.695
31512W        W97921  28.473  16.748  11.493
31513W        W97922  10.505  31.065   9.861
31514W        W97923  36.317  17.815  11.505
31515W        W97924  33.303   4.538   2.727
31516W        W97925   2.115   8.541   4.320
31517W        W97926  28.490  36.104   1.293
31518W        W97927  22.178   9.633   1.735
31519W        W97928  20.677   7.547  12.058
31520W        W97929  21.494  37.295   2.142
31521W        W97930  18.195  15.561  13.841
31522W        W97931  21.121  32.264  11.602
31523W        W97932  34.723  42.762   1.599
31524W        W97933  39.475   5.750   3.670
31525W        W97934  44.817  18.498   1.444
31526W        W97935   0.487  33.040  14.267
31527W        W97936   3.191   6.180   1.329
31528W        W97937  17.332  26.029   2.245
31529W        W97938  17.985  25.634  11.467
31530W        W97939   5.461  36.552   3.689
31531W        W97940   2.444  42.001   4.389
31532W        W97941   4.236  38.552   4.545
31533W        W97942  37.348  23.896   1.463
31534W        W97943  41.828  39.165   2.641
31535W        W97944  17.623  34.644   1.460
31536W        W97945  44.965  28.478  12.455
31537W        W97946   1.034  32.100   1.242
31538W        W97947   9.241  43.921  12.250
31539W        W97948  22.233  32.212   3.665
31540W        W97949  21.761  15.239   2.393
31541W        W97950  10.384  43.748   0.532
31542W        W97951  35.061  12.669   4.169
31543W        W97952  36.545  29.407  11.522
31544W        W97953  26.864  38.385   2.725
31545W        W97954  11.404  30.112  14.359
31546W        W97955  44.452  30.445   3.975
31547W        W97956  24.916  26.997   3.270
31548W        W97957   2.205  15.257  13.470
31549W        W97958   7.967  41.210  10.836
31550W        W97959  19.402   4.933   1.820
31551W        W97960   6.213  22.137   2.655
31552W        W97961  29.552  33.562  11.199
31553W        W97962  16.224  28.436   3.787
31554W        W97963  23.234  34.016   2.382
31555W        W97964   7.258  37.861  13.975
31556W        W97965  25.243  25.596   1.367
31557W        W97966  23.469  36.125  13.573
31558W        W97967  10.300  23.678   3.404
31559W        W97968  27.616  16.648   2.365
31560W        W97969   4.178  13.259  10.373
31561W        W97970  29.953  38.131   1.055
31562W        W97971  31.608  18.759   2.397
31563W        W97972  39.956   4.320  13.225
31564W        W97973  25.228  11.509   2.661
31565W        W97974  27.992   4.892   3.671
31566W        W97975  32.575  31.954   5.013
31567W        W97976  15.385   8.809   2.745
31568W        W97977  34.027  42.772   2.263
31569W        W97978   0.279  41.334   1.320
31570W        W97979   1.396  28.450   2.181
31571W        W97980  33.426  11.989   1.432
31572W        W97981  13.734  16.285  14.412
31573W        W97982  22.322  25.589  12.586
31574W        W97983  28.430  16.472  14.425
31575W        W97984   7.416  40.325  10.714
31576W        W97985  36.944  29.223  11.240
31577W        W97986  12.113  28.983  13.804
31578W        W97987   4.445  35.461  12.481
31579W        W97988   7.297  44.009  10.993
31580W        W97989   5.401  34.741   2.494
31581W        W97990  15.860  20.290   0.163
31582W        W97991  30.033  17.721   1.762
31583W        W97992   6.340  14.821  11.610
31584W        W97993  43.592   6.355  10.293
31585W        W97994   0.732  38.004  13.944
31586W        W97995  25.098  39.909  13.913
31587W        W97996  39.005  23.749  14.233
31588W        W97997   9.126  25.659  13.414
31589W        W97998  35.841  38.069   4.524
31590W        W97999  22.200  23.800  14.035
31591W        W98000  24.620  39.058  11.271
31592W        W98001  34.681  37.485  11.141
31593W        W98002  10.167   9.086   3.314
31594W        W98003  22.199  19.051   0.957
31595W        W98004  36.929  42.221   1.237
31596W        W98005  18.051   4.950  10.798
31597W        W98006  32.196  28.088  12.112
31598W        W98007  29.754  32.704   3.687
31599W        W98008  11.836  17.092   2.257
31600W        W98009  24.142  36.537   2.193
31601W        W98010  21.615  23.108   4.921
31602W        W98011  31.624  10.273   2.596
31603W        W98012  20.013  42.533  11.959
31604W        W98013  24.111  10.056  13.381
31605W        W98014  38.495  29.992   0.837
31606W        W98015  12.106  12.760  12.800
31607W        W98016   1.498  24.951  11.937
31608W        W98017  25.684  14.464   1.257
31609W        W98018  21.540  35.414  11.291
31610W        W98019  19.770  38.277   1.880
31611W        W98020  37.893   2.268  13.821
31612W        W98021  32.032  11.933   1.770
31613W        W98022   2.511  41.233  11.208
31614W        W98023  16.192  42.471   4.198
31615W        W98024  21.609  13.841   4.683
31616W        W98025  28.739  16.671   3.134
31617W        W98026  10.242   0.518  12.032
31618W        W98027  29.480   1.204   3.746
31619W        W98028  10.450  18.190   1.199
31620W        W98029  38.620  40.214  11.331
31621W        W98030  13.834  20.785   3.572
31622W        W98031   1.869   8.007  14.037
31623W        W98032  31.461   7.739  13.499
31624W        W98033  42.757  41.050  11.065
31625W        W98034  37.406  41.437   1.764
31626W        W98035  31.313  30.570   2.733
31627W        W98036  16.989  32.757  14.786
31628W        W98037  21.505   9.361   1.249
31629W        W98038  30.480  16.615   1.796
31630W        W98039   8.734  33.861   0.990
31631W        W98040  40.004  16.391   3.699
31632W        W98041   7.310   6.764   2.404
31633W        W98042  40.088  16.889  14.384
31634W        W98043  31.885  42.790  10.209
31635W        W98044  36.486  41.572   5.162
31636W        W98045   1.867  37.030   1.655
31637W        W98046  19.786   6.532  10.629
31638W        W98047  27.535  25.792  13.555
31639W        W98048   6.715  16.162  14.010
31640W        W98049   7.767  14.861  14.036
31641W        W98050   3.326  10.566  11.089
31642W        W98051  11.280  21.461   4.211
31643W        W98052  31.846  12.864   4.834
31644W        W98053  39.365   3.433   0.431
31645W        W98054  10.633  35.319  12.295
31646W        W98055  34.708   2.773  11.094
31647W        W98056  14.318  12.944  11.935
31648W        W98057   2.955   6.299   2.770
31649W        W98058  10.851  43.301  10.696
31650W        W98059   7.964  19.060   0.457
31651W        W98060  20.367   1.034   0.421
31652W        W98061  33.556  42.078  14.368
31653W        W98062  12.813  38.928   0.320
31654W        W98063  34.673  44.845   2.423
31655W        W98064  13.500  41.859   0.297
31656W        W98065  37.041  42.222  12.550
31657W        W98066  10.422  32.997   2.608
31658W        W98067  28.610  10.682   3.201
31659W        W98068  42.499  20.863   2.047
31660W        W98069   5.461   0.694   0.370
31661W        W98070   2.387  15.926  14.815
31662W        W98071  27.107  17.212   4.623
31663W        W98072  22.233   2.425  12.870
31664W        W98073  41.873  39.067  12.041
31665W        W98074  24.460  37.073   3.743
31666W        W98075   5.189   8.568   3.468
31667W        W98076  30.484  27.295  11.965
31668W        W98077  32.077  10.662   0.321
31669W        W98078  38.761  35.094  12.016
31670W        W98079   0.815  40.714  10.796
31671W        W98080  25.547  12.329   4.578
31672W        W98081  18.056  37.379   3.221
31673W        W98082  41.229   4.425  13.355
31674W        W98083  23.836  19.381   0.790
31675W        W98084   9.804  18.606  14.427
31676W        W98085  32.018  11.388  14.251
31677W        W98086   7.037  24.920  10.762
31678W        W98087   8.812  43.086  12.041
31679W        W98088  28.164  30.381  10.020
31680W        W98089  18.396  14.896  12.476
31681W        W98090  37.069  24.454   3.668
31682W        W98091  10.350  42.903   0.450
31683W        W98092  12.863   1.537  12.391
31684W        W98093   7.727  37.521  11.243
31685W        W98094  39.054  37.996  12.637
31686W        W98095  37.316  16.245  14.572
31687W        W98096  38.923   6.218   1.163
31688W        W98097   5.196  28.919  11.442
31689W        W98098  19.625   8.244   1.360
31690W        W98099  26.863  25.720  13.049
31691W        W98100  19.261  40.574   1.796
31692W        W98101   4.432  35.055   4.645
31693W        W98102  39.143  30.151   0.695
31694W        W98103  31.169  15.760  12.516
31695W        W98104  35.646  25.128   4.718
31696W        W98105  34.076   2.901  12.459
31697W        W98106  39.226  34.408  10.796
31698W        W98107  16.856  36.509  12.021
31699W        W98108   4.299   6.803   4.563
31700W        W98109  11.285  10.863  12.434
31701W        W98110  18.625   1.773  12.932
31702W        W98111   9.839  34.725   1.953
31703W        W98112  26.020  13.322   0.385
31704W        W98113   8.099  40.930  14.829
31705W        W98114  44.003  30.892  14.804
31706W        W98115   0.090   8.205  13.553
31707W        W98116  11.367  15.214  13.209
31708W        W98117  10.433  36.436  14.307
31709W        W98118   9.096  11.882  12.053
31710W        W98119  28.563  13.681   1.887
31711W        W98120  18.607   3.880   0.294
31712W        W98121  36.328  27.707  14.513
31713W        W98122  29.520  23.272  13.081
31714W        W98123  39.736   8.554  12.301
31715W        W98124   2.812  33.220  11.758
31716W        W98125  11.613   7.297   1.273
31717W        W98126  18.148  21.303  14.358
31718W        W98127  37.464  31.377  12.069
31719W        W98128   3.539   7.658   1.024
31720W        W98129  20.111  11.240   4.147
31721W        W98130   8.710   2.955  13.335
31722W        W98131   4.277  40.438  13.506
31723W        W98132  30.710  32.210  10.495
31724W        W98133  36.355  31.962  11.663
31725W        W98134   4.182  35.714  14.493
31726W        W98135   9.793  29.409   4.855
31727W        W98136  27.999  24.207  12.933
31728W        W98137   3.948  12.792   2.304
31729W        W98138  10.320   9.186   1.180
31730W        W98139  12.787  24.904  13.919
31731W        W98140  36.006  40.644   3.209
31732W        W98141   6.389   7.332   4.518
31733W        W98142   2.544  11.682  11.540
31734W        W98143  30.385  23.279  11.668
31735W        W98144  42.280   2.358  12.102
31736W        W98145  29.653   3.814   2.120
31737W        W98146   1.682   9.655  13.520
31738W        W98147  12.041  44.178  14.801
31739W        W98148  32.538  38.567  13.600
31740W        W98149  30.507  14.742  10.593
31741W        W98150  19.630  36.874   1.674
31742W        W98151  26.548  34.108   3.555
31743W        W98152  11.183   3.047   3.061
31744W        W98153  13.239  10.730   4.817
31745W        W98154  18.222  23.628   1.257
31746W        W98155  39.354   8.681   1.230
31747W        W98156   2.470  34.454   4.850
31748W        W98157  18.297  19.075  12.877
31749W        W98158  34.807  28.615   1.707
31750W        W98159  41.798  34.066  13.415
31751W        W98160  36.657  31.061   3.217
31752W        W98161  19.600  19.177  13.406
31753W        W98162  28.403  10.879  11.087
31754W        W98163  18.190   5.485  12.287
31755W        W98164  16.983  10.738   1.280
31756W        W98165  20.602  38.954  11.861
31757W        W98166  40.522  24.558   3.653
31758W        W98167  21.648   1.949  12.482
31759W        W98168  19.940  33.106   2.845
31760W        W98169  16.309  14.100  12.050
31761W        W98170  35.240  22.064   4.202
31762W        W98171   6.888  21.253  14.127
31763W        W98172  37.897  27.692   4.634
31764W        W98173  41.980  14.055   2.743
31765W        W98174  41.873  19.303  13.959
31766W        W98175  40.263  39.857  14.977
31767W        W98176   2.913  19.946   2.539
31768W        W98177  44.237  19.702  10.219
31769W        W98178   3.970  16.302  14.499
31770W        W98179  15.835  11.073  11.182
31771W        W98180  14.225  23.811  10.952
31772W        W98181  39.337  26.150   2.958
31773W        W98182  22.191   4.045   0.719
31774W        W98183  31.527  40.936  11.598
31775W        W98184  22.012   9.075   4.203
31776W        W98185  24.707  19.839   0.313
31777W        W98186   0.218  38.031   0.398
31778W        W98187  37.096   8.275  11.723
31779W        W98188  41.017  12.205  12.481
31780W        W98189  12.186   0.209  13.963
31781W        W98190  23.735   9.864  13.062
31782W        W98191   0.875   6.276   2.629
31783W        W98192  12.120  20.264   0.819
31784W        W98193  31.247  18.204  11.216
31785W        W98194  44.841  37.170  11.095
31786W        W98195  34.039   7.285  11.030
31787W        W98196   3.406  20.087  13.533
31788W        W98197  29.142  40.055  14.951
31789W        W98198  26.517   0.523  11.575
31790W        W98199  41.991  17.715  14.927
31791W        W98200   8.628  15.712   4.260
31792W        W98201   5.655  23.318  10.338
31793W        W98202  15.304  30.086  10.477
31794W        W98203  37.511  43.371   3.121
31795W        W98204  40.903  21.723   1.904
31796W        W98205  43.698  33.659   0.856
31797W        W98206  19.640  25.037   3.450
31798W        W98207  26.920  27.665   1.336
31799W        W98208  41.792  22.754   0.179
31800W        W98209   4.450   7.241  13.408
31801W        W98210  42.501  23.459  13.385
31802W        W98211  41.839  29.867  13.426
31803W        W98212  23.494  28.573  14.802
31804W        W98213  36.329  21.731  11.566
31805W        W98214  29.684  38.957   2.647
31806W        W98215   4.753   9.298   3.664
31807W        W98216  40.651  23.669   4.757
31808W        W98217  28.289  19.589   2.192
31809W        W98218  43.409  36.435  10.745
31810W        W98219   3.307  40.805   2.833
31811W        W98220  38.891  17.291   2.306
31812W        W98221  16.516  24.936  13.040
31813W        W98222  28.703  12.617  12.150
31814W        W98223  12.833  34.233  13.552
31815W        W98224   0.754   2.693  13.854
31816W        W98225  30.623  18.751   2.343
31817W        W98226  23.637  20.610  14.494
31818W        W98227   1.133   6.656  11.260
31819W        W98228  42.641  12.742   2.041
31820W        W98229  40.894   6.379  12.880
31821W        W98230  23.437  34.184  11.901
31822W        W98231  19.806   1.484   3.583
31823W        W98232  14.171   2.208   1.731
31824W        W98233  26.202  43.857  12.556
31825W        W98234  22.774   0.226   4.496
31826W        W98235  21.719  21.825   5.114
31827W        W98236  29.699  14.841  12.700
31828W        W98237  38.422   6.940  14.002
31829W        W98238  28.111  26.553   2.334
31830W        W98239  10.687  42.178   1.433
31831W        W98240  42.049  26.165   3.160
31832W        W98241  22.184  32.155  13.767
31833W        W98242  17.674  33.898   3.133
31834W        W98243  22.875  41.974   1.217
31835W        W98244  18.053  40.487   3.094
31836W        W98245   0.142  17.407  13.495
31837W        W98246  23.970  10.728   2.817
31838W        W98247  12.187  42.785   3.901
31839W        W98248  30.084   4.567   1.313
31840W        W98249  27.963  16.089  14.254
31841W        W98250  11.078  43.407   1.737
31842W        W98251   4.705  22.621  14.438
31843W        W98252  35.625  29.067   2.606
31844W        W98253  12.083  37.956   5.131
31845W        W98254   5.119  34.098   0.942
31846W        W98255  13.699  17.702   3.601
31847W        W98256  28.212  33.959  12.707
31848W        W98257   7.943  11.326  14.347
31849W        W98258  22.985   7.083   9.929
31850W        W98259  41.033  27.228   3.738
31851W        W98260   0.287  43.752  14.948
31852W        W98261  32.644  14.043  12.953
31853W        W98262  36.403  42.244  13.846
31854W        W98263  23.043  17.547  12.438
31855W        W98264  32.409   1.825   1.168
31856W        W98265  42.002  20.469   1.443
31857W        W98266  32.386  42.454  14.895
31858W        W98267  39.936   7.795  13.431
31859W        W98268  17.618  22.573   0.811
31860W        W98269  39.771   9.691  14.688
31861W        W98270  11.435  20.284  14.723
31862W        W98271  11.682  30.948  11.209
31863W        W98272   3.559  18.694   3.415
31864W        W98273  12.901  35.621   3.554
31865W        W98274  34.678   4.375  12.472
31866W        W98275  10.250  14.855   4.806
31867W        W98276  43.423  38.482   3.054
31868W        W98277  32.655   2.244   4.814
31869W        W98278  13.786  20.456  13.636
31870W        W98279  26.487  22.918   1.611
31871W        W98280   9.384  41.282  13.599
31872W        W98281  44.514  44.207  13.641
31873W        W98282   6.164  30.547  12.450
31874W        W98283  41.422  23.157   3.613
31875W        W98284  15.198  27.063   0.815
31876W        W98285  22.953   2.808  14.875
31877W        W98286  24.240  23.538   1.571
31878W        W98287  12.913  38.559  14.461
31879W        W98288  21.185  38.291  13.295
31880W        W98289   2.973  36.899  12.622
31881W        W98290  15.168  24.418   3.858
31882W        W98291  19.577  30.050  14.943
31883W        W98292  37.467  30.582   1.221
31884W        W98293  38.834  23.951   4.087
31885W        W98294  42.402  44.049   1.881
31886W        W98295  41.941  40.932  12.473
31887W        W98296  44.362  11.637  11.464
31888W        W98297  19.489   9.132  13.681
31889W        W98298  20.723   1.486  11.433
31890W        W98299   8.937   6.284  10.702
31891W        W98300  43.383   3.197   3.083
31892W        W98301  18.794  19.330  10.707
31893W        W98302  12.729  13.353   1.533
31894W        W98303  12.439  22.286  14.318
31895W        W98304  37.274  39.361   3.093
31896W        W98305  29.486  12.350  14.393
31897W        W98306  22.183  33.393  14.493
31898W        W98307  38.450  15.059   2.347
31899W        W98308  13.751  32.037  13.011
31900W        W98309  26.201  26.464   0.541
31901W        W98310  36.018  36.419  11.642
31902W        W98311   7.546  27.572  10.825
31903W        W98312  17.822  39.960   5.120
31904W        W98313  11.467  43.323   4.179
31905W        W98314  28.031  20.135  10.196
31906W        W98315  42.397   7.896   0.242
31907W        W98316  27.737  32.532   2.464
31908W        W98317  30.651  26.645  11.526
31909W        W98318  40.885   8.814  13.913
31910W        W98319  42.462  12.620   2.692
31911W        W98320  15.603  12.607  10.344
31912W        W98321  43.412   8.590  14.650
31913W        W98322  39.867   5.917  13.433
31914W        W98323  32.225  21.168  14.049
31915W        W98324  28.970   5.584   0.796
31916W        W98325  17.309  19.971  14.149
31917W        W98326  27.937   2.252  14.767
31918W        W98327  33.891  22.033  14.892
31919W        W98328  44.636  29.566  11.382
31920W        W98329  36.883   7.814   2.065
31921W        W98330  27.066  44.249   0.369
31922W        W98331  17.735  44.576   3.366
31923W        W98332  21.919   8.637   4.484
31924W        W98333  41.921  14.398  10.390
31925W        W98334  18.567  14.106   2.323
31926W        W98335   0.416  25.927  11.552
31927W        W98336  14.519   8.965  11.726
31928W        W98337  31.948   8.076   0.978
31929W        W98338  19.795  30.318   1.022
31930W        W98339  33.791   1.298   0.450
31931W        W98340  27.999  20.049  12.097
31932W        W98341  43.207  23.674   2.677
31933W        W98342  13.692  18.717   3.605
31934W        W98343  29.210  13.739   0.444
31935W        W98344  43.387  31.933  12.920
31936W        W98345  40.901   0.488   4.139
31937W        W98346   6.252  11.174  14.867
31938W        W98347  19.342  27.054  10.677
31939W        W98348  34.078  40.605  14.336
31940W        W98349   1.253  24.919  14.443
31941W        W98350   3.438  13.633  12.016
31942W        W98351   1.552   0.056   2.356
31943W        W98352   5.423   1.057   2.669
31944W        W98353  25.941  44.476   0.727
31945W        W98354  32.826  24.582  11.960
31946W        W98355  14.051  16.271   1.738
31947W        W98356  39.106  22.642   1.185
31948W        W98357  13.344   7.772  13.350
31949W        W98358  24.054  29.046   0.351
31950W        W98359  26.361   7.487  13.569
31951W        W98360  23.738   3.165   0.823
31952W        W98361  25.722  24.390   2.044
31953W        W98362  24.078  32.933  11.939
31954W        W98363  17.135   6.985  10.382
31955W        W98364  38.620   8.968   3.962
31956W        W98365  13.691  33.863   1.273
31957W        W98366  30.627  34.484   0.765
31958W        W98367  18.822  41.709   0.949
31959W        W98368  20.779   2.296   3.613
31960W        W98369  36.146   9.840  11.536
31961W        W98370  32.659  35.391   3.852
31962W        W98371  44.765  43.605  14.917
31963W        W98372   1.987  27.957   5.023
31964W        W98373  33.608  13.157   3.105
31965W        W98374  12.590  39.410  13.464
31966W        W98375  13.826  21.496   1.230
31967W        W98376  32.691   1.864  13.887
31968W        W98377   6.376  38.389   1.951
31969W        W98378  23.740   8.728   5.007
31970W        W98379  38.904  22.514   3.176
31971W        W98380   6.174   5.904   3.242
31972W        W98381  15.849   8.895  12.227
31973W        W98382  30.545  33.199   1.914
31974W        W98383  12.455   0.116   4.106
31975W        W98384   9.185  39.330   4.242
31976W        W98385  23.478  40.385   1.185
31977W        W98386  24.014   4.967  13.994
31978W        W98387  32.952  42.051   0.432
31979W        W98388  29.205  41.534  11.162
31980W        W98389  30.731   7.672   0.986
31981W        W98390  19.730  13.834   0.372
31982W        W98391  40.060  10.255   0.491
31983W        W98392  32.341  12.727  12.393
31984W        W98393  30.369  26.636   4.125
31985W        W98394  32.408  13.611   0.574
31986W        W98395  28.703  28.695  11.555
31987W        W98396  16.716  19.560  12.803
31988W        W98397   1.541  42.737   4.606
31989W        W98398   2.463  42.017  13.142
31990W        W98399  41.953  13.233  11.953
31991W        W98400  29.972  38.023  11.150
31992W        W98401  39.210  11.703   4.185
31993W        W98402  36.065  42.729  13.802
31994W        W98403  23.792  25.638   1.464
31995W        W98404  11.647  16.481  11.103
31996W        W98405   4.712  17.786   2.704
31997W        W98406  40.534  22.595   2.855
31998W        W98407  11.988  34.599   1.449
31999W        W98408  24.674  31.204  11.096
32000W        W98409  11.320  16.646  14.762
32001W        W98410  12.290  34.581  12.194
32002W        W98411  32.002   4.245  14.539
32003W        W98412  37.728  28.503  11.200
32004W        W98413  20.542  38.838   4.635
32005W        W98414  16.288  14.051   4.242
32006W        W98415  24.228  23.925   2.794
32007W        W98416   2.307  23.514  13.965
32008W        W98417  26.056  18.576  11.954
32009W        W98418  42.031  33.074  13.605
32010W        W98419  26.490  15.243  13.501
32011W        W98420  24.400  14.393   0.431
32012W        W98421  24.432  14.605  11.206
32013W        W98422  21.996   7.296   2.649
32014W        W98423  27.843  13.090   2.024
32015W        W98424   7.152  44.937  11.072
32016W        W98425  22.682  22.815  11.817
32017W        W98426  41.379  10.903   3.821
32018W        W98427   7.462  17.367  14.376
32019W        W98428  29.699  42.449   4.424
32020W        W98429  15.012  19.064   3.352
32021W        W98430  40.538  36.494  13.987
32022W        W98431   4.151   0.290  11.596
32023W        W98432   7.315  21.262   0.420
32024W        W98433  31.045  21.540  11.571
32025W        W98434   8.565  32.610  12.449
32026W        W98435  41.919  36.562   0.719
32027W        W98436  37.094  19.578   0.310
32028W        W98437  30.865  25.513   1.956
32029W        W98438   8.787  28.682  12.489
32030W        W98439  33.149  30.703   3.643
32031W        W98440  15.578  32.202  11.049
32032W        W98441   7.095  33.469  11.456
32033W        W98442  14.116  39.718  12.828
32034W        W98443  33.766  29.476  10.288
32035W        W98444  18.686   7.584   3.717
32036W        W98445  16.858  27.066  13.291
32037W        W98446  39.767  38.636   2.706
32038W        W98447  14.801  20.782  14.361
32039W        W98448   8.868   6.833   1.349
32040W        W98449  43.407  20.568   1.675
32041W        W98450   5.229   1.733  13.307
32042W        W98451  19.000  22.164  13.388
32043W        W98452  40.909  43.035  12.402
32044W        W98453  23.505   5.018  14.055
32045W        W98454  28.864  15.373  14.571
32046W        W98455  25.941   9.830   3.174
32047W        W98456   7.047   2.399   0.423
32048W        W98457  35.405   7.334   3.897
32049W        W98458  24.714  41.459   0.259
32050W        W98459  24.574   9.404   9.851
32051W        W98460   0.694  43.930   2.138
32052W        W98461  28.937  40.454  13.714
32053W        W98462   1.640  29.423   2.777
32054W        W98463  37.780  35.791  14.365
32055W        W98464   3.205  28.187  14.040
32056W        W98465  39.853  23.469  10.886
32057W        W98466   0.851  22.735   2.340
32058W        W98467   9.001  23.543   2.674
32059W        W98468  21.252  11.536  10.244
32060W        W98469  34.156   3.690  12.840
32061W        W98470   3.186  23.054  11.197
32062W        W98471  15.543  17.145  13.885
32063W        W98472  24.936  10.178   2.855
32064W        W98473  33.063  32.132   2.437
32065W        W98474  10.835  21.283   4.070
32066W        W98475  25.579  39.456   2.966
32067W        W98476  23.994  44.721  13.560
32068W        W98477  16.224  40.555  12.918
32069W        W98478  30.356  17.121   3.415
32070W        W98479  27.717  36.500  12.425
32071W        W98480  38.017  15.668   1.889
32072W        W98481  22.239  18.954  13.106
32073W        W98482  18.879  23.390  10.345
32074W        W98483  37.091   7.102  12.661
32075W        W98484  11.705  39.271  11.146
32076W        W98485  41.895  35.993   2.409
32077W        W98486  14.804  39.513  10.743
32078W        W98487  27.191  33.135   3.241
32079W        W98488  13.326  32.954  12.837
32080W        W98489   5.649  31.221  10.622
32081W        W98490   5.669   7.694  11.612
32082W        W98491   4.920   4.396  11.030
32083W        W98492  39.076   4.392   3.141
32084W        W98493   7.764  12.653   4.668
32085W        W98494  15.722  30.072   1.172
32086W        W98495  40.092  40.302   3.757
32087W        W98496   7.474   0.829   2.127
32088W        W98497   4.146  41.501  14.301
32089W        W98498  10.740  38.955  12.016
32090W        W98499   3.671  42.486  11.916
32091W        W98500  18.146  26.661  14.004
32092W        W98501  42.264  39.349   3.298
32093W        W98502  21.599  40.544   0.212
32094W        W98503  17.891  34.562   0.496
32095W        W98504   1.195  39.228   0.867
32096W        W98505   1.773   6.631  11.536
32097W        W98506  39.344  37.589   1.304
32098W        W98507   0.719  28.470   1.391
32099W        W98508  15.733  42.211  14.074
32100W        W98509   3.445  34.314  11.161
32101W        W98510  39.803  24.318  12.093
32102W        W98511  25.064  18.159  13.409
32103W        W98512   6.843  26.155  11.654
32104W        W98513  10.108  25.226   1.704
32105W        W98514   6.859   1.296  12.848
32106W        W98515   5.151   5.827   3.304
32107W        W98516  13.323  37.385   3.115
32108W        W98517  22.064  32.070  10.692
32109W        W98518   5.145  30.434   4.933
32110W        W98519   1.525  19.092  12.557
32111W        W98520  26.606  36.458   3.424
32112W        W98521   4.814   9.621  11.460
32113W        W98522  35.746  41.914   1.544
32114W        W98523  31.446   4.704   1.767
32115W        W98524   4.915  36.423  11.057
32116W        W98525  23.263   6.851   3.226
32117W        W98526  19.307  33.563  11.910
32118W        W98527  42.476  38.496   4.697
32119W        W98528  44.381  44.727   1.304
32120W        W98529  25.148  35.010   3.301
32121W        W98530  40.254   7.739  11.388
32122W        W98531  10.318  15.434   5.162
32123W        W98532  31.154  39.226  14.459
32124W        W98533   2.887  11.343   0.337
32125W        W98534   4.896   7.687  13.773
32126W        W98535  13.451  24.889  10.589
32127W        W98536  31.462  33.565  13.002
32128W        W98537  25.524  34.159  10.991
32129W        W98538   8.614   4.859  11.931
32130W        W98539  27.866  30.250   1.810
32131W        W98540  24.864  12.355  12.473
32132W        W98541  25.862   1.258  12.164
32133W        W98542   5.435  36.792  13.041
32134W        W98543  18.286  22.240  12.348
32135W        W98544   9.292  40.891  13.134
32136W        W98545  31.869   6.383   4.195
32137W        W98546   4.921  33.600   1.443
32138W        W98547  12.357   6.735   2.805
32139W        W98548  13.560  42.320   0.555
32140W        W98549  12.820   7.302   4.303
32141W        W98550  32.559  22.202  13.004
32142W        W98551  20.911  10.864   1.313
32143W        W98552   1.720  21.691  11.545
32144W        W98553  40.402  37.412   3.518
32145W        W98554  10.671  21.798  12.057
32146W        W98555  16.997  35.578   0.360
32147W        W98556  27.832  30.527   0.734
32148W        W98557  42.784   1.993   4.185
32149W        W98558  15.323  42.125  12.549
32150W        W98559  12.289  31.712   0.327
32151W        W98560   3.096  25.019  12.977
32152W        W98561  38.535  27.231  12.456
32153W        W98562  27.470  35.000  11.199
32154W        W98563  13.117  33.514   2.384
32155W        W98564  20.326  24.909   0.502
32156W        W98565  37.659  41.270   2.677
32157W        W98566  30.707  26.521   2.005
32158W        W98567  32.583  28.119  12.876
32159W        W98568   5.550  32.586  12.903
32160W        W98569   1.228  12.209   0.276
32161W        W98570  28.355  34.445   1.918
32162W        W98571  18.083  34.522  14.924
32163W        W98572   3.510   3.390  13.310
32164W        W98573  14.240   2.371   2.235
32165W        W98574  40.011  29.939   1.877
32166W        W98575  40.937  31.906   3.351
32167W        W98576  18.015  37.842  10.078
32168W        W98577   1.524  13.243   0.895
32169W        W98578  38.316  26.352  11.374
32170W        W98579  19.096  41.590   1.713
32171W        W98580  41.914   4.656  11.154
32172W        W98581  39.879   4.233  10.566
32173W        W98582   1.566   5.329  11.209
32174W        W98583   8.097   0.819   4.562
32175W        W98584  23.631  42.021  14.430
32176W        W98585  10.270   0.454  11.517
32177W        W98586  13.922  32.377  14.430
32178W        W98587   9.863   0.251   0.005
32179W        W98588  28.199  12.797  13.017
32180W        W98589   5.264  44.031   0.001
32181W        W98590  27.131  36.592   3.157
32182W        W98591  44.275  42.912   4.690
32183W        W98592  19.756  39.752   1.438
32184W        W98593  29.090  23.066   2.633
32185W        W98594  12.420  10.858   4.100
32186W        W98595  21.893  18.213   4.978
32187W        W98596   2.512  28.902  10.517
32188W        W98597  10.378  33.943   4.054
32189W        W98598  29.987  21.810   4.339
32190W        W98599  25.515  13.807   3.118
32191W        W98600  42.439  22.964  13.259
32192W        W98601   2.338  43.046   3.695
32193W        W98602  10.658  21.870  13.466
32194W        W98603   2.812  42.762   2.724
32195W        W98604  26.146   8.115  14.395
32196W        W98605  36.819  36.954   0.868
32197W        W98606  37.376   0.428  14.365
32198W        W98607  18.755  34.977   2.175
32199W        W98608  32.629  25.941  10.731
32200W        W98609   1.766   3.688   0.852
32201W        W98610  19.540  16.087  13.857
32202W        W98611  30.567  44.787  14.293
32203W        W98612  11.736  20.892   3.694
32204W        W98613  39.151  20.309   3.675
32205W        W98614  14.874   6.245  12.632
32206W        W98615  37.463  19.644  11.618
32207W        W98616  18.145   3.086  10.478
32208W        W98617   7.558  27.223  14.413
32209W        W98618  39.999  44.665  12.867
32210W        W98619  15.339   7.778   1.887
32211W        W98620  38.589  24.936  14.833
32212W        W98621  30.101  37.556   3.286
32213W        W98622  34.668   1.223  14.379
32214W        W98623   9.705  23.167   3.887
32215W        W98624  22.095  36.512   3.592
32216W        W98625  21.663  41.796   3.242
32217W        W98626  35.250  39.956   2.648
32218W        W98627  28.979   3.283   0.430
32219W        W98628  24.032   7.695  10.448
32220W        W98629  19.522  40.914  10.933
32221W        W98630  41.867  24.432  14.475
32222W        W98631   1.728  19.126   4.997
32223W        W98632  33.895  19.271   2.162
32224W        W98633  24.680  14.726   3.274
32225W        W98634  29.162  13.727  12.387
32226W        W98635  10.801  16.509   2.381
32227W        W98636  40.088  37.806   0.878
32228W        W98637  23.965  18.091   2.720
32229W        W98638  30.975  25.034   3.800
32230W        W98639  13.750  37.798   2.701
32231W        W98640  35.462  44.254   4.746
32232W        W98641  21.509  21.686  11.191
32233W        W98642   3.604   7.686  11.491
32234W        W98643   5.816   0.454   4.188
32235W        W98644  38.333  44.818   0.341
32236W        W98645  44.027   0.847   2.119
32237W        W98646  43.733   3.448  13.863
32238W        W98647  27.193  35.784   1.299
32239W        W98648   0.632  12.399  11.568
32240W        W98649  28.473  41.957   1.012
32241W        W98650  13.219   1.000  12.080
32242W        W98651  12.937   4.304   2.381
32243W        W98652   4.194  19.093   1.385
32244W        W98653  31.509  11.939  11.250
32245W        W98654   3.786  35.991   0.169
32246W        W98655  35.919  40.584  14.242
32247W        W98656  43.835  28.517   3.142
32248W        W98657  30.978   5.988   4.596
32249W        W98658   3.001  15.771  13.486
32250W        W98659  16.180  11.285  12.875
32251W        W98660   3.788  39.761   0.459
32252W        W98661  16.292  17.207   4.162
32253W        W98662   9.986  16.257   0.425
32254W        W98663   8.273  15.569   1.601
32255W        W98664   6.570  43.260   2.315
32256W        W98665  25.500  13.067   1.228
32257W        W98666  22.785  38.295  14.920
32258W        W98667   7.161   3.199  14.798
32259W        W98668  31.488  41.884   4.169
32260W        W98669  14.752  33.120  10.903
32261W        W98670  23.025  12.226  12.432
32262W        W98671  30.590  10.384  14.410
32263W        W98672   0.369  13.136  10.868
32264W        W98673  44.705  35.388   2.219
32265W        W98674  21.112  26.077  12.468
32266W        W98675   7.687  22.566   0.439
32267W        W98676   3.585   8.198  13.095
32268W        W98677  36.907  19.713   1.896
32269W        W98678   1.418   6.231  11.450
32270W        W98679  29.910  44.416   2.403
32271W        W98680  18.974  33.047   0.440
32272W        W98681  39.599   7.282   4.592
32273W        W98682  13.366  19.858  11.065
32274W        W98683  29.707  12.172  13.041
32275W        W98684  31.047  42.707  10.911
32276W        W98685   4.759  22.256   1.015
32277W        W98686  38.369  44.059  12.428
32278W        W98687   6.229   3.726  12.406
32279W        W98688  29.384  30.008  13.347
32280W        W98689  29.294   9.873  12.629
32281W        W98690   7.700   2.708  14.468
32282W        W98691  22.135  11.670   2.562
32283W        W98692  35.582  11.825  13.020
32284W        W98693   7.615   0.574   1.707
32285W        W98694  27.858  43.923  11.173
32286W        W98695   3.949  18.499  10.721
32287W        W98696  14.835  21.313  13.751
32288W        W98697  16.291  20.119  14.865
32289W        W98698  34.002   1.268  11.488
32290W        W98699  41.334   7.758   0.539
32291W        W98700  44.860  16.233   4.811
32292W        W98701  23.393  35.548  11.406
32293W        W98702  17.750  27.705   3.737
32294W        W98703  31.478   3.691   2.261
32295W        W98704   8.267  33.520  13.617
32296W        W98705   5.527  30.025  11.033
32297W        W98706  21.194  19.138   2.278
32298W        W98707  27.981  11.178   3.165
32299W        W98708   2.620  28.650   4.603
32300W        W98709   9.858   3.005  10.424
32301W        W98710  15.740  38.290   3.326
32302W        W98711  15.812   0.221   3.743
32303W        W98712  26.181   0.597  13.453
32304W        W98713  36.143  13.316   1.235
32305W        W98714  18.277  12.187  10.929
32306W        W98715  36.364  23.706  14.840
32307W        W98716  27.967   8.404   0.573
32308W        W98717  21.814  37.350  12.835
32309W        W98718   4.992  18.031   1.206
32310W        W98719  44.365   3.452   3.210
32311W        W98720  42.815  35.615   4.713
32312W        W98721   7.203  13.613  11.959
32313W        W98722   2.667  43.452   4.112
32314W        W98723   0.070  38.120  11.924
32315W        W98724  35.842  25.735   4.101
32316W        W98725  43.783  17.859   4.059
32317W        W98726   2.855  27.526   1.798
32318W        W98727  16.093  28.243  14.812
32319W        W98728  30.974  15.147   3.002
32320W        W98729  13.580  35.403  13.923
32321W        W98730  36.803  34.736  12.155
32322W        W98731  31.357  31.376  13.572
32323W        W98732  41.489  19.541   4.657
32324W        W98733  11.051   2.409   4.561
32325W        W98734  20.627  35.878   3.615
32326W        W98735   6.910  18.391  11.448
32327W        W98736  30.108  36.758  11.722
32328W        W98737   5.069  30.912   4.722
32329W        W98738   5.880  38.387  11.003
32330W        W98739  33.736  15.070  13.810
32331W        W98740  17.733  43.723   3.768
32332W        W98741  39.965  37.941  11.304
32333W        W98742   7.831  20.818  10.660
32334W        W98743  23.102  36.363   3.760
32335W        W98744  29.717   7.451   1.233
32336W        W98745  42.390  14.691  13.861
32337W        W98746  20.759  43.829  11.564
32338W        W98747  37.093  35.437   3.758
32339W        W98748   2.301  33.862   2.411
32340W        W98749  30.367  40.034  10.902
32341W        W98750  26.649  24.028   0.536
32342W        W98751  19.438  29.044  13.941
32343W        W98752  31.698  14.623   1.382
32344W        W98753   0.595  14.184   3.703
32345W        W98754   6.181   1.002  12.857
32346W        W98755  35.520  42.488  10.420
32347W        W98756  33.616  16.705  12.637
32348W        W98757  39.996   9.852  12.581
32349W        W98758   3.487  13.282   0.778
32350W        W98759  32.936  11.592   1.903
32351W        W98760  25.965   0.460   3.817
32352W        W98761   2.659  17.645   0.443
32353W        W98762  15.032   0.337  10.565
32354W        W98763  35.494  44.765  14.653
32355W        W98764  39.096  32.388   1.761
32356W        W98765   9.283  15.717   4.614
32357W        W98766  28.852  44.867   1.868
32358W        W98767  38.544  13.805   0.931
32359W        W98768  42.871  33.404   1.786
32360W        W98769  37.930  12.020   2.826
32361W        W98770  16.577  30.637   4.827
32362W        W98771  13.559  34.601  12.429
32363W        W98772  18.192  43.471  12.167
32364W        W98773  42.934  13.428  14.835
32365W        W98774  23.712   2.772  11.489
32366W        W98775   9.887  32.930  13.882
32367W        W98776  13.582  26.357  14.041
32368W        W98777  26.273  24.014  10.802
32369W        W98778  34.666  14.211  13.388
32370W        W98779  39.233  42.048   1.952
32371W        W98780  23.628  22.026  13.947
32372W        W98781   0.892  27.464  12.477
32373W        W98782  30.018  26.529  12.810
32374W        W98783   3.806   3.755  14.871
32375W        W98784  12.447  42.252   1.240
32376W        W98785  24.542   6.187  12.174
32377W        W98786  34.522  28.760   0.886
32378W        W98787   3.474  39.211  12.831
32379W        W98788   7.256  28.153  11.559
32380W        W98789   6.716  39.749  11.127
32381W        W98790  22.752  16.809  11.002
32382W        W98791  14.371  37.514  12.035
32383W        W98792  29.184   3.469  12.941
32384W        W98793  41.409  38.323   3.836
32385W        W98794  22.109  26.387   1.315
32386W        W98795  13.019   2.272  13.887
32387W        W98796  44.854  19.345   1.255
32388W        W98797   3.998   0.531   4.171
32389W        W98798  36.398  36.883  11.231
32390W        W98799  41.942  29.414  12.519
32391W        W98800  11.125  12.804   4.603
32392W        W98801  31.396  40.964   4.022
32393W        W98802  42.823  26.368   3.750
32394W        W98803   8.978  22.633   4.979
32395W        W98804  43.094   7.178  12.224
32396W        W98805  16.585   0.709  13.762
32397W        W98806  17.221  22.413   4.118
32398W        W98807   0.674  43.439   1.270
32399W        W98808   1.422  10.088  13.376
32400W        W98809   2.780  27.027   2.517
32401W        W98810   3.935   5.789  12.936
32402W        W98811   8.392   8.858  11.275
32403W        W98812  32.995  22.635  10.524
32404W        W98813  14.328  30.446   1.726
32405W        W98814  39.286  28.461   1.274
32406W        W98815  13.767   4.208  11.592
32407W        W98816  35.486  22.992   2.786
32408W        W98817  21.208  28.377  12.790
32409W        W98818  33.792  23.223   3.556
32410W        W98819  44.572  16.253  11.753
32411W        W98820  43.460   0.489  10.554
32412W        W98821  24.779  22.359   1.110
32413W        W98822  14.387  15.682  10.687
32414W        W98823  22.137  30.090   4.404
32415W        W98824  43.716  34.155   3.750
32416W        W98825  21.581  10.447  13.850
32417W        W98826   1.559  11.012   5.677
32418W        W98827   4.693  26.001  14.896
32419W        W98828   4.332  25.069  11.135
32420W        W98829   1.820   6.419   0.381
32421W        W98830  19.140  25.761  12.362
32422W        W98831  11.456  40.789  11.997
32423W        W98832  42.008   8.162   1.377
32424W        W98833  41.955  35.003   0.569
32425W        W98834  27.489  28.655  10.879
32426W        W98835   8.239  17.065  11.069
32427W        W98836  28.804  10.295   1.155
32428W        W98837  42.248  37.452  12.397
32429W        W98838  36.403  38.539  14.356
32430W        W98839  25.777  21.198  10.798
32431W        W98840  14.674  12.374  14.257
32432W        W98841  16.870   5.997  13.919
32433W        W98842  27.425  34.159   3.915
32434W        W98843  39.709  34.580  14.817
32435W        W98844  42.579  27.245  11.223
32436W        W98845  31.885  29.095  11.268
32437W        W98846  44.592  40.439   4.532
32438W        W98847   5.562  42.830   4.270
32439W        W98848  20.748  13.037  12.126
32440W        W98849  13.368   6.680  10.703
32441W        W98850  14.680  33.981   4.935
32442W        W98851   4.725   4.648   2.813
32443W        W98852   1.500  38.942   1.196
32444W        W98853   0.347   7.346  13.212
32445W        W98854  22.903  40.107  12.901
32446W        W98855   5.682  27.434   2.184
32447W        W98856  10.165  16.459   4.061
32448W        W98857   6.376  38.396   2.842
32449W        W98858  44.337  38.244   2.460
32450W        W98859   2.532   1.828  13.244
32451W        W98860  15.097  30.668   3.153
32452W        W98861  17.706   8.828   2.867
32453W        W98862   3.782   7.287   1.338
32454W        W98863   8.885  20.138   3.790
32455W        W98864  40.893  17.945   1.768
32456W        W98865  16.294  28.465   0.240
32457W        W98866  10.304   9.122   0.136
32458W        W98867  22.052   1.489  13.034
32459W        W98868  15.890  11.726   4.064
32460W        W98869  12.961  33.370  10.601
32461W        W98870  31.026  11.341   2.507
32462W        W98871  40.855  35.667   4.190
32463W        W98872  20.768   4.635   4.485
32464W        W98873  38.396   7.892  13.035
32465W        W98874  13.598   5.303   1.900
32466W        W98875  20.103   3.992  12.230
32467W        W98876  35.813  26.130   0.920
32468W        W98877  15.286  44.818   2.570
32469W        W98878  15.419  43.157  12.402
32470W        W98879   5.814  43.316   4.238
32471W        W98880  38.304   5.216   1.937
32472W        W98881   2.767  38.991   4.899
32473W        W98882   8.609  39.033   0.278
32474W        W98883  21.230  17.634  10.382
32475W        W98884  18.846   5.369  14.324
32476W        W98885  25.603  13.898  13.941
32477W        W98886  44.051  24.777  12.775
32478W        W98887  30.829   2.510  14.026
32479W        W98888  18.615   0.745  12.066
32480W        W98889  38.829  20.599   3.992
32481W        W98890  12.489   5.950  11.728
32482W        W98891   4.487  35.122  12.874
32483W        W98892  31.265  12.840  13.443
32484W        W98893  36.004  43.967  14.470
32485W        W98894  10.344  13.422   1.793
32486W        W98895   0.104  25.730  13.450
32487W        W98896  40.041   4.883  12.629
32488W        W98897   2.883  24.120   0.990
32489W        W98898  12.374  32.318  14.316
32490W        W98899  19.829  41.938   1.018
32491W        W98900  34.139  12.638  10.799
32492W        W98901  26.400  28.768  11.224
32493W        W98902   1.794  19.773  13.475
32494W        W98903  38.036   4.680  13.933
32495W        W98904   6.270  21.158  12.085
32496W        W98905   1.886  43.422   1.894
32497W        W98906  10.141  26.218   4.344
32498W        W98907  41.095  24.907  11.184
32499W        W98908  35.575  22.059  13.024
32500W        W98909  13.247  32.988  10.970
32501W        W98910  25.947   6.722  10.549
32502W        W98911   8.070  28.540   0.839
32503W        W98912  39.893   0.957   2.676
32504W        W98913  44.037  23.998   3.933
32505W        W98914   2.813  42.140  13.503
32506W        W98915   0.865  34.899   2.794
32507W        W98916  34.844  36.350  14.590
32508W        W98917  32.932   3.863   3.390
32509W        W98918  31.975  36.889   4.174
32510W        W98919  31.439  10.935  14.784
32511W        W98920  35.293  16.327   0.726
32512W        W98921  35.952  23.657  14.495
32513W        W98922  20.233   3.952   2.659
32514W        W98923  30.693  36.985  12.516
32515W        W98924   1.463  30.149   3.351
32516W        W98925   2.782   4.642   1.256
32517W        W98926  43.379  21.725  12.319
32518W        W98927   6.037   3.140  10.108
32519W        W98928  29.067  34.231   3.091
32520W        W98929  38.295  22.609  11.039
32521W        W98930  17.753  21.254   4.728
32522W        W98931   8.285  40.307  11.960
32523W        W98932  38.060  36.054  12.266
32524W        W98933   7.131   8.623  11.153
32525W        W98934  44.288  21.716   3.060
32526W        W98935  32.170  28.137   2.403
32527W        W98936   6.635  25.642   4.384
32528W        W98937  20.652  36.991  12.427
32529W        W98938   3.269   2.526  13.447
32530W        W98939   5.852  36.538   0.287
32531W        W98940  18.982  22.897  14.324
32532W        W98941  23.892  34.637   4.143
32533W        W98942  13.141   8.195   4.063
32534W        W98943   8.167  19.571   1.429
32535W        W98944  24.146  16.794  12.952
32536W        W98945  20.049  10.675  12.019
32537W        W98946  14.579  10.721   3.785
32538W        W98947   5.250  11.767   2.389
32539W        W98948  35.835  14.842   0.645
32540W        W98949  39.334  21.239  14.700
32541W        W98950  15.121  10.179   0.345
32542W        W98951   7.398  31.850   0.840
32543W        W98952  36.964  19.394   3.620
32544W        W98953  17.493  23.765   3.341
32545W        W98954  41.752  23.408  12.010
32546W        W98955  42.120  31.498   0.732
32547W        W98956   6.872   5.920  12.545
32548W        W98957  43.870  14.263  13.872
32549W        W98958  41.039  22.578   0.819
32550W        W98959  43.917  31.397  13.935
32551W        W98960  10.017  35.088  10.116
32552W        W98961   9.190  36.036  13.829
32553W        W98962  19.318   9.703   1.822
32554W        W98963  33.018  14.355   1.221
32555W        W98964  29.514   1.309  12.810
32556W        W98965  19.827  38.604  13.574
32557W        W98966  40.439  32.115   0.956
32558W        W98967  21.681  26.021   0.304
32559W        W98968   5.285  39.202   2.205
32560W        W98969   4.129  40.968  10.697
32561W        W98970   7.930  43.830   4.622
32562W        W98971  35.430  38.365   3.215
32563W        W98972  31.039  36.657  10.689
32564W        W98973  35.419  23.618  14.555
32565W        W98974   4.335  39.443  14.035
32566W        W98975  12.337  33.621   2.718
32567W        W98976   2.585  25.574   4.238
32568W        W98977  41.862  42.950   1.238
32569W        W98978  10.664  24.629  12.624
32570W        W98979  30.874  38.326   1.134
32571W        W98980  16.671  26.743  14.531
32572W        W98981  15.586  20.177  13.306
32573W        W98982  37.598  22.503   3.643
32574W        W98983  27.743  29.972   4.245
32575W        W98984  44.549   7.755   4.081
32576W        W98985   6.907  24.126   0.247
32577W        W98986   8.815  41.900   0.968
32578W        W98987  11.673  34.875   3.768
32579W        W98988   5.446   7.389  14.978
32580W        W98989  24.436   1.478  12.445
32581W        W98990  24.284   7.561   2.116
32582W        W98991  12.751  14.282   4.100
32583W        W98992  44.863  23.426   4.295
32584W        W98993  23.477  27.336  12.800
32585W        W98994  11.351  25.231   2.746
32586W        W98995  33.908   1.885  14.384
32587W        W98996   3.202  23.483   5.131
32588W        W98997  44.279  28.000   0.021
32589W        W98998  24.154   3.388  10.266
32590W        W98999  41.860  44.862   0.512
32591W        W99000   6.541  25.755  12.152
32592W        W99001  36.915  35.334   3.228
32593W        W99002   6.689  38.291   3.843
32594W        W99003  29.240  39.851   4.033
32595W        W99004  20.267  22.712  14.794
32596W        W99005  23.225   9.963   4.598
32597W        W99006   7.320  18.447   1.263
32598W        W99007   7.245   8.916   0.421
32599W        W99008  25.820  18.241  12.638
32600W        W99009  18.897  17.668  12.791
32601W        W99010  35.049   8.340   0.307
32602W        W99011  38.963  35.035   0.358
32603W        W99012  32.508  13.067  11.284
32604W        W99013  15.056   2.292   4.973
32605W        W99014  28.480  14.400  13.259
32606W        W99015  10.820  27.109   3.719
32607W        W99016   8.216  36.060  12.130
32608W        W99017  34.037  11.233   4.668
32609W        W99018  15.625  11.534  13.940
32610W        W99019   1.205  35.515   2.234
32611W        W99020   0.848   9.824   4.111
32612W        W99021  13.822   4.263  10.606
32613W        W99022  16.798   9.650  12.472
32614W        W99023   7.293  23.435  12.431
32615W        W99024   4.815  19.405   4.812
32616W        W99025   7.281  14.210  13.491
32617W        W99026   0.915  18.137   3.282
32618W        W99027  33.057   6.322  10.693
32619W        W99028   0.515  13.819  12.035
32620W        W99029   1.030   6.253  14.926
32621W        W99030  24.954  15.525   2.503
32622W        W99031  10.364  34.960   4.431
32623W        W99032  41.473  22.749  12.965
32624W        W99033  44.246  35.654  11.644
32625W        W99034  36.643   1.808  13.318
32626W        W99035  39.946  20.052  14.532
32627W        W99036  21.047   6.009  14.451
32628W        W99037  19.127   0.401  12.868
32629W        W99038   6.890  21.140  12.654
32630W        W99039  25.655  35.131  13.418
32631W        W99040  19.594  42.798  14.064
32632W        W99041  42.847  26.953   2.846
32633W        W99042  15.840  20.619   2.241
32634W        W99043  20.078  13.813  14.086
32635W        W99044  21.606   1.194  14.412
32636W        W99045   1.861   2.664  11.724
32637W        W99046  10.032  11.751  14.580
32638W        W99047  35.079  35.054  14.202
32639W        W99048   6.289  41.579  13.314
32640W        W99049  17.219  33.056   3.258
32641W        W99050  22.613  31.889  12.331
32642W        W99051  35.849  40.841  13.809
32643W        W99052  17.763  36.189  14.484
32644W        W99053   9.437  14.047   2.216
32645W        W99054  39.494   8.878  14.863
32646W        W99055  43.189  17.672  13.448
32647W        W99056  37.737  24.713   0.789
32648W        W99057  37.548  26.460  14.289
32649W        W99058  40.559  39.819  12.173
32650W        W99059   6.274  37.883   1.885
32651W        W99060  44.768  13.714  14.769
32652W        W99061  39.869   4.046   2.806
32653W        W99062  32.857  20.411   2.431
32654W        W99063  34.050  28.558   0.766
32655W        W99064  14.737   4.740  11.153
32656W        W99065  43.549  38.818  14.463
32657W        W99066  20.194   0.017   2.909
32658W        W99067   9.345  35.009  10.237
32659W        W99068  31.686   2.969   1.548
32660W        W99069   1.117  44.321   0.957
32661W        W99070   2.476  27.581  14.580
32662W        W99071  29.122  18.753   0.438
32663W        W99072  19.587  36.427   0.947
32664W        W99073  37.908  37.024  11.433
32665W        W99074   4.928  10.901   0.338
32666W        W99075   1.581  24.160  11.800
32667W        W99076  37.015  12.300   4.545
32668W        W99077  32.080   4.742  14.335
32669W        W99078  31.702  19.578   3.538
32670W        W99079   2.782   1.746  14.100
32671W        W99080   3.319   2.762  14.435
32672W        W99081  35.815  16.856   4.427
32673W        W99082   9.699  41.479   1.665
32674W        W99083  33.339   3.020  13.027
32675W        W99084  34.750   4.190  10.314
32676W        W99085  31.127  19.310  10.826
32677W        W99086  41.557  17.544  11.202
32678W        W99087  44.361  31.470   3.341
32679W        W99088  29.656  31.483   0.855
32680W        W99089  20.499  44.558   3.215
32681W        W99090   4.699  28.036   3.388
32682W        W99091   3.809   7.743  11.953
32683W        W99092  11.762  15.454   1.483
32684W        W99093  37.885  43.958  12.545
32685W        W99094  14.331   9.249  13.941
32686W        W99095  36.249  39.895   0.515
32687W        W99096   2.433  32.422   2.669
32688W        W99097   6.554  37.544  14.380
32689W        W99098  38.206  36.495  14.894
32690W        W99099  37.622  12.731  14.536
32691W        W99100  21.065  14.944   4.168
32692W        W99101  30.049   3.503  11.545
32693W        W99102   8.753   6.625   1.825
32694W        W99103  42.282  27.013  10.846
32695W        W99104  22.872   9.840   2.703
32696W        W99105  12.287  35.603   1.824
32697W        W99106  27.448  15.712  13.066
32698W        W99107   6.912  31.129   3.262
32699W        W99108  26.701  32.971  12.771
32700W        W99109  38.938  37.760   1.560
32701W        W99110  38.694  10.440   0.235
32702W        W99111  14.107  11.262  14.424
32703W        W99112   1.383  10.740  10.725
32704W        W99113   4.724  18.835   1.929
32705W        W99114  43.767  44.832   1.023
32706W        W99115  40.991   9.701  11.315
32707W        W99116  43.470  31.661  14.821
32708W        W99117  22.141  39.860   4.096
32709W        W99118  31.864  17.722  12.894
32710W        W99119  34.426  21.696   1.401
32711W        W99120  35.004   1.865   4.895
32712W        W99121  41.342  26.005  10.753
32713W        W99122   9.205  29.074  12.642
32714W        W99123  15.788  20.459   0.934
32715W        W99124  30.431  16.695   4.326
32716W        W99125  39.575  23.237  12.019
32717W        W99126  21.812   9.387  12.125
32718W        W99127  33.707  25.106   4.737
32719W        W99128  31.056  44.579  13.511
32720W        W99129  24.564   5.213  11.955
32721W        W99130  39.426  23.458   1.433
32722W        W99131  15.805   3.970   4.133
32723W        W99132  19.968  20.563  13.620
32724W        W99133  27.641  35.070   0.851
32725W        W99134  29.031  40.303  11.923
32726W        W99135  36.323  19.665  13.378
32727W        W99136  34.526   8.775  14.704
32728W        W99137  18.232  33.355   2.942
32729W        W99138  13.617  42.383  10.788
32730W        W99139   9.582   9.324   2.642
32731W        W99140  21.671  28.226   2.739
32732W        W99141  44.077  16.711   0.403
32733W        W99142  34.962  41.158   4.624
32734W        W99143   4.489  38.104   1.983
32735W        W99144  29.000  36.796   3.178
32736W        W99145  24.217  21.168   0.342
32737W        W99146  44.188  28.250  14.552
32738W        W99147  21.596  44.264  14.570
32739W        W99148  12.681   1.776   4.982
32740W        W99149  13.283   9.649   3.864
32741W        W99150   1.010   7.490  12.431
32742W        W99151  28.595   4.861   4.307
32743W        W99152  26.742  40.714  14.013
32744W        W99153  41.421   1.191  11.201
32745W        W99154  15.893   6.145   4.752
32746W        W99155  43.051  24.766  14.511
32747W        W99156  14.917  38.333  11.634
32748W        W99157  28.724  27.965  11.099
32749W        W99158  23.131  27.585   2.335
32750W        W99159  13.610  15.572   0.855
32751W        W99160  41.198  18.260   4.547
32752W        W99161   5.540  19.784  12.104
32753W        W99162  10.693  28.188  13.248
32754W        W99163  38.548  22.283  11.969
32755W        W99164  37.504  26.656   4.151
32756W        W99165  25.622   1.638   1.402
32757W        W99166  35.082  36.678  13.392
32758W        W99167   1.404   1.888  11.886
32759W        W99168  10.200  18.385   4.505
32760W        W99169   4.317  43.057  13.974
32761W        W99170  28.158  23.618  14.392
32762W        W99171  35.575  18.877   1.142
32763W        W99172  39.358  33.223  13.246
32764W        W99173   3.786  21.196   4.519
32765W        W99174  34.456  11.281   2.771
32766W        W99175  21.120  40.851  13.765
32767W        W99176  15.271   0.258  12.969
32768W        W99177  44.792   3.263   1.904
32769W        W99178   8.514  17.326  14.818
32770W        W99179   7.667  40.809  13.886
32771W        W99180  31.550  10.240   4.658
32772W        W99181  31.343  17.800  10.902
32773W        W99182  15.748  41.545  12.163
32774W        W99183   9.777  34.335  12.529
32775W        W99184   0.180  34.517  13.273
32776W        W99185  19.698  19.596  10.698
32777W        W99186   2.965  40.400   2.867
32778W        W99187  33.788   4.705   4.093
32779W        W99188  33.233  37.275  13.423
32780W        W99189  42.901   9.673  12.101
32781W        W99190  40.682  42.061  11.547
32782W        W99191  14.059  34.393  12.505
32783W        W99192  31.074  10.079   1.694
32784W        W99193  27.775  32.009   1.559
32785W        W99194   5.369   8.160  13.498
32786W        W99195   1.744  23.683   0.028
32787W        W99196  15.700  23.532   0.407
32788W        W99197   9.079   4.776  12.729
32789W        W99198   3.038  17.115  13.461
32790W        W99199  37.909  35.877  13.481
32791W        W99200  32.368  25.114   4.766
32792W        W99201   7.704  44.834  12.476
32793W        W99202  41.513  22.455   0.962
32794W        W99203  38.673   9.131  13.352
32795W        W99204   6.299  33.394   4.524
32796W        W99205  36.160  12.533  12.548
32797W        W99206   5.187  35.536  11.372
32798W        W99207   6.896  20.710  13.416
32799W        W99208   8.714   6.116  12.431
32800W        W99209  33.493  10.193   4.797
32801W        W99210  28.595   7.350   2.441
32802W        W99211  10.164   7.860   1.822
32803W        W99212  11.955  15.249  14.671
32804W        W99213  32.739   7.593  13.033
32805W        W99214  42.553  30.138   0.774
32806W        W99215  17.223   8.374  11.269
32807W        W99216  39.886  42.962   0.708
32808W        W99217  13.842   8.033  11.644
32809W        W99218  39.819  36.552   4.316
32810W        W99219  19.241   7.328  12.760
32811W        W99220  11.173  19.444   4.441
32812W        W99221   8.113  43.549  10.577
32813W        W99222   9.473  35.054   4.073
32814W        W99223  14.589   4.170   3.227
32815W        W99224  14.784   2.838   0.453
32816W        W99225  21.569  31.605   4.234
32817W        W99226   9.137   5.403  14.562
32818W        W99227   3.906  10.113  11.694
32819W        W99228  31.427  42.369  13.036
32820W        W99229  34.087   3.299  13.755
32821W        W99230  21.037  29.885  14.950
32822W        W99231  15.157   8.844  12.933
32823W        W99232  10.784  37.958   0.496
32824W        W99233  30.963  16.284   3.345
32825W        W99234   5.636  26.046  12.106
32826W        W99235   9.879  39.928  14.882
32827W        W99236  21.563  26.903  11.191
32828W        W99237  24.934  24.750  10.276
32829W        W99238  13.183  35.054  10.245
32830W        W99239  44.325  12.395   4.229
32831W        W99240  33.932  40.773  12.609
32832W        W99241  13.303  17.040   0.371
32833W        W99242   0.379  19.473  11.122
32834W        W99243  36.019   8.698   2.291
32835W        W99244  35.840   2.868  12.854
32836W        W99245  15.339  22.581   5.030
32837W        W99246  27.195  24.936  14.408
32838W        W99247  40.884   3.530  12.075
32839W        W99248   3.092  38.774  14.572
32840W        W99249  26.108  27.930   1.447
32841W        W99250   7.114  44.286   4.087
32842W        W99251  18.583   0.403   0.965
32843W        W99252  11.171   3.003   1.861
32844W        W99253  13.834  36.427   2.812
32845W        W99254  42.787  43.960  10.682
32846W        W99255  10.132  13.274  12.186
32847W        W99256   9.753   9.705   4.906
32848W        W99257  28.734  41.938   3.559
32849W        W99258  26.944  33.332   2.828
32850W        W99259  12.171  38.174  10.536
32851W        W99260  34.139  15.583   0.403
32852W        W99261  32.097  20.223  13.495
32853W        W99262   0.753  32.385   4.409
32854W        W99263   4.939  35.081  11.198
32855W        W99264  11.268  43.675   5.418
32856W        W99265  28.307  21.528   3.350
32857W        W99266  37.541  24.572   2.872
32858W        W99267  14.137   2.030  11.911
32859W        W99268  19.798  20.103  13.796
32860W        W99269  36.293  41.661   3.292
32861W        W99270  34.583   9.859  11.872
32862W        W99271  38.335   3.389  10.397
32863W        W99272  29.396  32.392   3.928
32864W        W99273  28.475   8.387  13.927
32865W        W99274  31.799   1.411   2.647
32866W        W99275   7.336  18.714   0.809
32867W        W99276  16.605  34.860   4.218
32868W        W99277  10.594  42.506  14.348
32869W        W99278  28.294  12.680   1.395
32870W        W99279  35.143  15.090  13.059
32871W        W99280  16.791   1.931   2.749
32872W        W99281  20.119  39.393   3.260
32873W        W99282  37.363  10.508   4.099
32874W        W99283  28.005  23.750  13.907
32875W        W99284  36.045  28.630  12.900
32876W        W99285   8.768  24.787  11.286
32877W        W99286  34.430  39.317  14.658
32878W        W99287   3.951   9.328   3.345
32879W        W99288  43.449  30.468   3.422
32880W        W99289  44.222   2.252  12.186
32881W        W99290  13.817  10.661   2.140
32882W        W99291   4.688  18.209   3.068
32883W        W99292  18.665  11.863   0.014
32884W        W99293  21.697  37.409   2.591
32885W        W99294   2.753   6.279   4.149
32886W        W99295  17.029  36.975  14.552
32887W        W99296   7.754  35.578  13.443
32888W        W99297  20.016  41.409  12.526
32889W        W99298  36.103  40.486  13.525
32890W        W99299   5.137  29.672  14.203
32891W        W99300  38.136  44.367   2.502
32892W        W99301  27.966  42.890   3.876
32893W        W99302  41.977  27.861   2.653
32894W        W99303  37.526  24.581   1.881
32895W        W99304   5.970  29.343  11.455
32896W        W99305  18.764   8.668  12.841
32897W        W99306  43.601  23.854   4.220
32898W        W99307  38.475   6.610   4.116
32899W        W99308   2.484  14.227   2.323
32900W        W99309   5.514   6.315  12.611
32901W        W99310   3.372  10.132  10.771
32902W        W99311  17.443  36.118   1.109
32903W        W99312  14.970  23.652   9.920
32904W        W99313   5.399  33.064  14.257
32905W        W99314  27.575  36.517  13.459
32906W        W99315  25.531   8.218  12.436
32907W        W99316   7.885  15.709   0.803
32908W        W99317  29.355  39.869  12.025
32909W        W99318  27.957  43.385  14.882
32910W        W99319  22.440  31.072  14.144
32911W        W99320  26.546  42.335   2.129
32912W        W99321   9.750  18.478  12.189
32913W        W99322  33.024  25.266  12.879
32914W        W99323  12.268  22.063  12.764
32915W        W99324  30.670  17.196   2.254
32916W        W99325  32.939  28.355   0.257
32917W        W99326  27.416  36.995  11.529
32918W        W99327  20.998  11.390   1.328
32919W        W99328  27.356  13.726   3.109
32920W        W99329  22.792  16.064  14.528
32921W        W99330  18.078  23.095  13.292
32922W        W99331  17.648  12.194   0.820
32923W        W99332  28.163   5.764   1.688
32924W        W99333   0.928   4.206  12.938
32925W        W99334  19.853  10.993  12.405
32926W        W99335  20.934  42.903   2.719
32927W        W99336   0.973  36.645  11.083
32928W        W99337  34.976  42.564  13.826
32929W        W99338  15.355  19.502  10.525
32930W        W99339  39.603  13.311   2.856
32931W        W99340  14.227  22.274   2.650
32932W        W99341  30.132  30.867   4.629
32933W        W99342  41.477  12.067  10.671
32934W        W99343  35.835   2.260   0.441
32935W        W99344  38.527   0.169   1.905
32936W        W99345  36.263  44.960   3.156
32937W        W99346  33.892  31.362  14.549
32938W        W99347   1.578  37.955  12.347
32939W        W99348   3.148  27.992   2.761
32940W        W99349  41.404  30.107  11.173
32941W        W99350  42.970   5.747  12.480
32942W        W99351  32.862  29.961  14.025
32943W        W99352  33.610  10.889  10.720
32944W        W99353  14.150  31.383   1.818
32945W        W99354  23.396   0.283  14.317
32946W        W99355  18.391   6.183   1.684
32947W        W99356  39.877  18.824   4.891
32948W        W99357  36.175  38.064   2.349
32949W        W99358  27.113  11.844   0.190
32950W        W99359  31.125   4.436   4.514
32951W        W99360   9.329  34.504  12.967
32952W        W99361  13.104  24.245   4.166
32953W        W99362  28.875  12.783  14.785
32954W        W99363  14.765  37.805   0.672
32955W        W99364  11.264  35.618  12.864
32956W        W99365  35.075  13.329   3.501
32957W        W99366  21.547  29.028   1.477
32958W        W99367  15.155   8.119   0.435
32959W        W99368  38.857  26.020   0.274
32960W        W99369   7.236  42.255  12.397
32961W        W99370  24.242  26.106   0.729
32962W        W99371   0.725  15.615  14.535
32963W        W99372   8.684   4.260  11.909
32964W        W99373  29.942  20.005  11.154
32965W        W99374  17.502  43.889  14.102
32966W        W99375  29.934  39.053   0.724
32967W        W99376   6.898  41.068   1.247
32968W        W99377  13.794  18.319   2.329
32969W        W99378  15.462  39.508  14.966
32970W        W99379   6.301  12.765   3.675
32971W        W99380  41.990   6.353   0.017
32972W        W99381  36.918  26.266  11.115
32973W        W99382  14.317  34.500   1.375
32974W        W99383   6.754   4.871   3.875
32975W        W99384  26.495  23.366   1.885
32976W        W99385  21.142  33.654   2.229
32977W        W99386  27.567  12.421  10.986
32978W        W99387  22.160  16.368   1.214
32979W        W99388   5.347   0.465   4.378
32980W        W99389  22.047  40.088   2.775
32981W        W99390  34.175  35.127  13.313
32982W        W99391  20.532   9.251  12.622
32983W        W99392   3.511  15.599  11.130
32984W        W99393  41.262   7.426  12.086
32985W        W99394  35.982  27.630  13.866
32986W        W99395   5.977  16.597   3.625
32987W        W99396  32.124  13.162   3.120
32988W        W99397  15.632  27.587  13.272
32989W        W99398  33.490  12.234   3.110
32990W        W99399  30.014  27.625   3.257
32991W        W99400  41.582  44.326  13.886
32992W        W99401  19.106  40.091  11.103
32993W        W99402   3.376  25.853   2.901
32994W        W99403  14.813  31.150   1.386
32995W        W99404  34.701  16.050   4.410
32996W        W99405  35.940  14.511  13.964
32997W        W99406  12.803   5.706  13.873
32998W        W99407  38.415  41.469   4.350
32999W        W99408  13.916  22.232  11.794
33000W        W99409  16.720   8.570  11.455
33001W        W99410  21.677  22.153   2.931
33002W        W99411  44.507   7.739  12.071
33003W        W99412  37.708  29.947   3.123
33004W        W99413  30.204  25.146   0.443
33005W        W99414  44.288  32.976   3.262
33006W        W99415  27.026  25.241   3.616
33007W        W99416  39.098  17.748   0.308
33008W        W99417  25.513  34.148   2.218
33009W        W99418   3.205  22.357   0.963
33010W        W99419  34.343  44.422  13.591
33011W        W99420  43.860  32.001  12.640
33012W        W99421  33.036   9.519   2.820
33013W        W99422  18.224   7.649  14.616
33014W        W99423  21.529  12.674  10.368
33015W        W99424  27.155  18.238  12.410
33016W        W99425  16.350  39.016   4.492
33017W        W99426  10.863  33.449   3.565
33018W        W99427  14.912  28.615   3.491
33019W        W99428  41.013  36.031   1.385
33020W        W99429  18.578  42.417   2.100
33021W        W99430  11.840   5.130   2.075
33022W        W99431   6.894  16.353   1.735
33023W        W99432  19.469  41.685   2.259
33024W        W99433  25.172  31.112   2.641
33025W        W99434  29.891  39.829  10.759
33026W        W99435   3.697  26.520  12.943
33027W        W99436  29.059  30.845   1.875
33028W        W99437   8.747  31.246  10.828
33029W        W99438  24.527   9.647  10.300
33030W        W99439   9.223  36.407   3.352
33031W        W99440  23.985  27.432   4.355
33032W        W99441   9.172   3.464   1.269
33033W        W99442   1.307  31.358  11.398
33034W        W99443  33.503   9.335  12.116
33035W        W99444  10.297  15.805  11.060
33036W        W99445  32.493  38.914   2.746
33037W        W99446  42.448  37.364   0.394
33038W        W99447   4.058  19.800   4.119
33039W        W99448  36.647  13.668  13.255
33040W        W99449   6.727  20.385  13.040
33041W        W99450  16.582  41.430  11.551
33042W        W99451  43.257  22.529  13.355
33043W        W99452   3.612  13.181  14.794
33044W        W99453  26.095  42.021   3.578
33045W        W99454  41.542  16.570  12.006
33046W        W99455  16.782  38.620   0.875
33047W        W99456  42.508  41.236   1.805
33048W        W99457  41.542   7.466  14.782
33049W        W99458  38.487   5.205   0.096
33050W        W99459  12.398   2.363  12.945
33051W        W99460  39.524  32.175   3.663
33052W        W99461  30.532  16.633   3.330
33053W        W99462  44.991   8.030  10.658
33054W        W99463  15.607  38.308  14.963
33055W        W99464  30.051   6.567   1.401
33056W        W99465   9.331  23.726  13.388
33057W        W99466  15.769  21.179   2.875
33058W        W99467  23.689  21.660  12.630
33059W        W99468   6.766   3.184  11.880
33060W        W99469   7.260   8.888   3.195
33061W        W99470   6.339  34.107   0.440
33062W        W99471  32.962   6.756   1.838
33063W        W99472  21.604  28.229  11.555
33064W        W99473  41.544  39.146   1.991
33065W        W99474  17.142  40.499   0.825
33066W        W99475  40.199  26.471   3.103
33067W        W99476  22.094  12.778  10.586
33068W        W99477   5.457  18.101   4.184
33069W        W99478  38.917  37.627   3.526
33070W        W99479   4.179  22.548  12.611
33071W        W99480  18.781   7.889   0.263
33072W        W99481  13.804  37.473   2.086
33073W        W99482  18.548  41.989   0.388
33074W        W99483  22.148   1.798   1.750
33075W        W99484  23.519  33.620   1.453
33076W        W99485  32.302  37.534   0.123
33077W        W99486  42.319  37.674  12.877
33078W        W99487  37.877  35.672   1.530
33079W        W99488   3.657  12.136  12.926
33080W        W99489  12.737  36.871   0.307
33081W        W99490  37.957  44.981  10.578
33082W        W99491  21.215  34.522  14.516
33083W        W99492   2.909  21.830   2.987
33084W        W99493   5.339  29.635   3.332
33085W        W99494  38.834  19.555  13.844
33086W        W99495  12.311  26.615  12.899
33087W        W99496  27.039  26.486  13.563
33088W        W99497   5.088   7.006  11.916
33089W        W99498   4.978   7.659   1.211
33090W        W99499  40.704   4.364  12.530
33091W        W99500  18.114  21.296   0.253
33092W        W99501  20.285  21.380   5.023
33093W        W99502   8.680  20.098   0.924
33094W        W99503   0.785   4.425   1.762
33095W        W99504  34.348  36.647  13.184
33096W        W99505  37.592  32.731   3.414
33097W        W99506  18.121  23.142   1.448
33098W        W99507   9.178  12.285   3.898
33099W        W99508   2.297  24.769  11.134
33100W        W99509  23.726   5.128   3.698
33101W        W99510  13.522  20.117   5.206
33102W        W99511  13.729  19.253   3.612
33103W        W99512  11.316  36.116   0.256
33104W        W99513   5.683  37.528  14.866
33105W        W99514  19.114  44.906  12.777
33106W        W99515  27.049  29.833  10.843
33107W        W99516  42.762  41.299  13.514
33108W        W99517   3.206  31.701  14.483
33109W        W99518  36.004   5.323  11.204
33110W        W99519  20.593   5.768  14.334
33111W        W99520  41.319  15.899  11.208
33112W        W99521   1.803  25.068   4.607
33113W        W99522  43.995  31.399   0.853
33114W        W99523  15.635  14.674   2.718
33115W        W99524   2.560  29.874  14.724
33116W        W99525  27.077   4.776   0.796
33117W        W99526   6.704   3.282   0.006
33118W        W99527  12.229  21.613  10.932
33119W        W99528  28.920  20.746  13.418
33120W        W99529  33.425  32.580  10.008
33121W        W99530   9.919  36.515   3.777
33122W        W99531  44.591  43.707   0.448
33123W        W99532  33.221  21.687   3.026
33124W        W99533  44.927  32.607   1.604
33125W        W99534  17.069  22.677  14.500
33126W        W99535   2.009  37.662  11.368
33127W        W99536  16.669   5.281   2.317
33128W        W99537   2.276  34.507   0.921
33129W        W99538  16.321  18.581  11.201
33130W        W99539   4.343  42.212  12.596
33131W        W99540  25.887  44.914   2.664
33132W        W99541  36.416  30.517  13.736
33133W        W99542   6.153   0.784  11.866
33134W        W99543  35.938   3.837   2.489
33135W        W99544  33.362  20.738   4.650
33136W        W99545   1.501   5.907   0.907
33137W        W99546   9.196   4.907   2.755
33138W        W99547  37.319  15.076  10.753
33139W        W99548  12.289   2.941  14.877
33140W        W99549   2.216  35.542  12.643
33141W        W99550  12.201   3.216  12.449
33142W        W99551  39.524  15.750  10.564
33143W        W99552   3.023  41.276  12.166
33144W        W99553  34.551  17.541   3.867
33145W        W99554   2.343  26.227   0.649
33146W        W99555   5.499  11.222   1.228
33147W        W99556  41.393  39.357   0.085
33148W        W99557  22.552   6.976  13.450
33149W        W99558  18.825   8.108  12.314
33150W        W99559   8.861  38.946  14.846
33151W        W99560  16.828  36.092   0.481
33152W        W99561  23.226   4.817   0.644
33153W        W99562  23.428  30.494  12.098
33154W        W99563  43.452  40.953  13.358
33155W        W99564  42.221  19.155   1.635
33156W        W99565  37.254  26.591  13.422
33157W        W99566  14.742  16.321  14.550
33158W        W99567  18.252   0.073   1.436
33159W        W99568  23.714   6.595   3.603
33160W        W99569   7.121  17.230   4.012
33161W        W99570   0.254  15.613  11.946
33162W        W99571  26.774  44.203   3.360
33163W        W99572  19.316  19.267  14.959
33164W        W99573   7.234  32.049  10.283
33165W        W99574  36.764   7.190   3.735
33166W        W99575  37.820  35.020  13.850
33167W        W99576  11.512  32.311   3.760
33168W        W99577  41.292   3.718   0.792
33169W        W99578   4.166  25.060   3.744
33170W        W99579   3.415  13.519  12.907
33171W        W99580  32.642  25.523  13.497
33172W        W99581  24.701  39.488  12.887
33173W        W99582  28.163   7.587   2.312
33174W        W99583  39.784  37.727  13.950
33175W        W99584  13.993   4.458   2.260
33176W        W99585  17.321  20.809  10.193
33177W        W99586  15.105  39.052  14.371
33178W        W99587  42.934  44.245   0.545
33179W        W99588  37.668  15.326   9.835
33180W        W99589  28.869   8.768  13.474
33181W        W99590  41.217  40.472  13.117
33182W        W99591  39.909   4.906   2.801
33183W        W99592  16.329   6.823  11.832
33184W        W99593   2.468  32.907  10.818
33185W        W99594  36.354   7.720   3.672
33186W        W99595  14.697  18.696  11.242
33187W        W99596   1.342  12.297   2.831
33188W        W99597   6.779  27.646   2.613
33189W        W99598   1.925  13.634  13.946
33190W        W99599   7.636  20.729   1.398
33191W        W99600  20.095  35.461   3.292
33192W        W99601  25.570  22.280   1.460
33193W        W99602  11.418  33.101  13.857
33194W        W99603  44.839  27.408  13.950
33195W        W99604  25.095  16.414   4.311
33196W        W99605  17.566  13.810  14.903
33197W        W99606  41.525  42.244   1.233
33198W        W99607  20.560   8.577   0.200
33199W        W99608  16.108  39.288  13.380
33200W        W99609  39.858  33.621   4.498
33201W        W99610  16.628   1.858   0.671
33202W        W99611  41.406  19.693   1.214
33203W        W99612  44.413   5.308   3.742
33204W        W99613  14.997  35.767  13.025
33205W        W99614  35.104  38.324  14.866
33206W        W99615   0.783  30.458  14.874
33207W        W99616  28.206   1.847  10.688
33208W        W99617  16.688  17.654   1.414
33209W        W99618  28.221  29.014   4.138
33210W        W99619  17.346  23.606   3.821
33211W        W99620  39.553  23.543   0.073
33212W        W99621  10.552  11.847   0.670
33213W        W99622   2.277  13.315   4.659
33214W        W99623   9.566  22.965   1.235
33215W        W99624   8.847  19.430   1.962
33216W        W99625  20.997   5.916   0.280
33217W        W99626  34.515  41.346  13.268
33218W        W99627  29.687  18.729  12.120
33219W        W99628   1.367   8.196  13.385
33220W        W99629   7.296   3.718  12.880
33221W        W99630  28.112  14.199  11.507
33222W        W99631   3.613  33.468  10.845
33223W        W99632  10.575  38.598  12.745
33224W        W99633   4.911  26.927   1.973
33225W        W99634  41.968   5.797  10.728
33226W        W99635  16.229   6.508  10.550
33227W        W99636   9.327  36.944   4.020
33228W        W99637  40.491  19.660   2.414
33229W        W99638  43.856  18.090  12.368
33230W        W99639  20.220  17.443   0.274
33231W        W99640  39.106  20.761   1.745
33232W        W99641  17.832   9.090  14.800
33233W        W99642   0.952  26.271  14.778
33234W        W99643  27.292  34.122  13.446
33235W        W99644  43.852  29.518   4.350
33236W        W99645  38.867  29.177   0.121
33237W        W99646  31.450  20.791  12.547
33238W        W99647   9.767   9.180  10.623
33239W        W99648   7.952  24.883  12.531
33240W        W99649  21.480  15.791  13.877
33241W        W99650   5.825  38.306   1.898
33242W        W99651   0.827  38.782   2.415
33243W        W99652   2.176  16.794   1.913
33244W        W99653  15.881  15.823   2.357
33245W        W99654  40.455   7.576   2.669
33246W        W99655   6.655  39.199  11.476
33247W        W99656  20.319  13.074  10.493
33248W        W99657  28.687  39.459  14.522
33249W        W99658  41.792  20.455  14.543
33250W        W99659  43.857  16.636   1.447
33251W        W99660  22.085  13.047  12.063
33252W        W99661   1.868  25.305   4.146
33253W        W99662   5.198  32.358   0.842
33254W        W99663  29.241  26.192   4.128
33255W        W99664  10.936  36.050   1.020
33256W        W99665   6.571   2.109   0.370
33257W        W99666  24.315  38.035   2.727
33258W        W99667  40.874  33.009   1.378
33259W        W99668  18.211  27.889  12.394
33260W        W99669  25.931  38.549   2.617
33261W        W99670  14.691  16.548   1.004
33262W        W99671  44.132  24.857  10.155
33263W        W99672  32.011  44.293   2.224
33264W        W99673  24.777  22.549   0.399
33265W        W99674  36.459   4.925   0.414
33266W        W99675  13.329   9.348   0.905
33267W        W99676  37.903  21.622  11.189
33268W        W99677  11.162  40.853  13.218
33269W        W99678  10.260  15.575   2.039
33270W        W99679   7.368  29.330  14.467
33271W        W99680   5.713   2.402   3.158
33272W        W99681  29.337  38.442   4.639
33273W        W99682  40.187  13.816  13.868
33274W        W99683  17.680   8.889  11.925
33275W        W99684  29.833  16.132  12.388
33276W        W99685  14.252   5.442  12.278
33277W        W99686  17.746  29.101  11.181
33278W        W99687  33.422  37.721  14.483
33279W        W99688  37.896  13.143   4.680
33280W        W99689   1.482  37.514  12.078
33281W        W99690  22.532   5.344   1.910
33282W        W99691  28.940  31.440  12.533
33283W        W99692  25.183  36.312   4.596
33284W        W99693  12.608  10.565   1.491
33285W        W99694  19.580  24.611   4.574
33286W        W99695  44.306  28.153  14.064
33287W        W99696  16.244  14.955  11.788
33288W        W99697  38.442  25.637   2.221
33289W        W99698  33.845   3.787  13.572
33290W        W99699  38.224  11.583   2.758
33291W        W99700  37.291  15.275  11.605
33292W        W99701  23.194  33.361  12.017
33293W        W99702  28.920  13.536   0.861
33294W        W99703  35.851  23.890   3.583
33295W        W99704  29.487  11.834  14.418
33296W        W99705   2.774  29.418  11.222
33297W        W99706   8.716  31.462   2.399
33298W        W99707   5.819  19.011  13.008
33299W        W99708  14.585  25.843  11.033
33300W        W99709   1.116  23.022   4.093
33301W        W99710  11.701  38.683   1.478
33302W        W99711  36.544  38.992   2.137
33303W        W99712   3.893  36.063   4.139
33304W        W99713  30.192  36.825  14.810
33305W        W99714   6.346  39.405   2.766
33306W        W99715  18.590  43.362   3.697
33307W        W99716   9.320  33.680  14.905
33308W        W99717  14.377  41.466  10.336
33309W        W99718   5.227  21.235   2.426
33310W        W99719  11.831  43.747   2.838
33311W        W99720  26.488  40.993  14.391
33312W        W99721  28.214  35.851   5.209
33313W        W99722  38.828  42.423  14.774
33314W        W99723  24.809  33.409  10.619
33315W        W99724  17.743  28.570  10.294
33316W        W99725  17.471   6.330   1.023
33317W        W99726  33.420  17.777  10.345
33318W        W99727  17.762  38.403   1.722
33319W        W99728  26.920   4.296  12.506
33320W        W99729   0.872   2.991  14.451
33321W        W99730   5.334  16.160  12.159
33322W        W99731   7.203  21.828   4.494
33323W        W99732  22.362   9.383  13.485
33324W        W99733  37.661  21.669   3.140
33325W        W99734  19.044  35.366  13.238
33326W        W99735  24.971  17.234   1.920
33327W        W99736   7.964   1.910  11.704
33328W        W99737  25.579  35.344   1.214
33329W        W99738  35.811   0.468   1.299
33330W        W99739  24.826   3.287   1.517
33331W        W99740   1.867  24.563  11.970
33332W        W99741  18.230   0.510  11.820
33333W        W99742  38.177  17.033   1.776
33334W        W99743   9.310  28.506   0.798
33335W        W99744  41.882  13.542   2.612
33336W        W99745   4.240  10.732   0.996
33337W        W99746  12.847  41.527  14.244
33338W        W99747  37.390  13.572  12.553
33339W        W99748  41.037   1.979   3.868
33340W        W99749  18.840  42.412  11.209
33341W        W99750  28.471  33.070   2.828
33342W        W99751  32.850  31.572  13.389
33343W        W99752   8.246  21.721  13.021
33344W        W99753  12.231   7.463   3.169
33345W        W99754  13.291  41.280   2.331
33346W        W99755   0.648  17.214   2.969
33347W        W99756  32.670  16.279   2.461
33348W        W99757  18.553  28.673  12.423
33349W        W99758  23.735   7.755   2.885
33350W        W99759  27.434  40.998   4.556
33351W        W99760  35.932  34.558   1.732
33352W        W99761   9.914   6.423  11.635
33353W        W99762   1.880  15.469  13.860
33354W        W99763  24.929  38.870   1.871
33355W        W99764  26.171  37.968  14.198
33356W        W99765  13.073   8.037   1.912
33357W        W99766  11.782   9.704  11.129
33358W        W99767  31.470  29.135   1.926
33359W        W99768  40.211  40.889  10.729
33360W        W99769  27.309   8.766  11.666
33361W        W99770  11.211  41.578  12.532
33362W        W99771  26.992   1.825   3.779
33363W        W99772   8.933  26.988  13.998
33364W        W99773  21.738  37.323   3.935
33365W        W99774   4.454  34.462   3.630
33366W        W99775  30.207  33.466   0.893
33367W        W99776  40.826  12.151   1.326
33368W        W99777  27.951  23.128  10.682
33369W        W99778  31.622  43.319   3.167
33370W        W99779  44.909  38.439  14.778
33371W        W99780  35.763  35.809  11.945
33372W        W99781  28.471  14.040   2.791
33373W        W99782  22.478  39.005  14.375
33374W        W99783  17.792   1.532   4.245
33375W        W99784  14.119   6.281   3.260
33376W        W99785   0.481  29.672   3.365
33377W        W99786  13.163  36.842  11.199
33378W        W99787  28.661  13.201  14.993
33379W        W99788  33.294  41.304  11.659
33380W        W99789  10.612  23.368  14.080
33381W        W99790  16.849  18.715   0.537
33382W        W99791  40.104   5.488  11.974
33383W        W99792  28.711  19.718   3.914
33384W        W99793  20.469  14.784  12.849
33385W        W99794  13.335  39.900  13.476
33386W        W99795  11.781  43.543   2.352
33387W        W99796  37.832  20.627   3.608
33388W        W99797  17.040   0.730  12.026
33389W        W99798  41.019   4.341   4.074
33390W        W99799  16.640  26.262   3.115
33391W        W99800  20.626  39.583   2.259
33392W        W99801  35.290   1.316   0.654
33393W        W99802  41.567   1.445   1.218
33394W        W99803  13.721  13.091  12.015
33395W        W99804   5.041  38.620  12.027
33396W        W99805  32.174  10.178  12.427
33397W        W99806  16.626  42.212  14.983
33398W        W99807  31.327   4.901   1.214
33399W        W99808  20.923   0.094   4.325
33400W        W99809  28.467   4.415   0.202
33401W        W99810  17.520  26.625  11.860
33402W        W99811  17.091   7.777  12.530
33403W        W99812  36.292  17.099  12.562
33404W        W99813   0.429  11.436   4.872
33405W        W99814  16.245   0.985   2.814
33406W        W99815  17.321  29.453   2.838
33407W        W99816  40.917  43.836  10.984
33408W        W99817   9.127  14.151   1.809
33409W        W99818  19.706   9.965   2.237
33410W        W99819  26.696  12.851  11.177
33411W        W99820  21.569  36.376  10.891
33412W        W99821  36.695   4.448   0.501
33413W        W99822   7.178  40.394  11.988
33414W        W99823   8.279   2.540   2.201
33415W        W99824   5.200  26.525  12.950
33416W        W99825  40.028  11.045  12.021
33417W        W99826  17.026  40.877  14.321
33418W        W99827  30.592  36.184  11.256
33419W        W99828  35.468   3.172   0.103
33420W        W99829   2.619  31.509   1.244
33421W        W99830  38.990  29.264   3.603
33422W        W99831  16.300   8.081  11.984
33423W        W99832   6.358  14.273   4.650
33424W        W99833   4.037  14.335   1.398
33425W        W99834  13.512  27.002  10.920
33426W        W99835  14.733   5.387   4.381
33427W        W99836  40.302  28.091   1.946
33428W        W99837   5.089   7.923   4.642
33429W        W99838  41.601  22.037   0.351
33430W        W99839   3.145  43.069   5.365
33431W        W99840  43.409   9.898   4.007
33432W        W99841  21.784  13.243  14.949
33433W        W99842  34.034   6.733  12.156
33434W        W99843  31.336   6.989   3.335
33435W        W99844  26.099  16.701   0.632
33436W        W99845   8.337  26.951  13.448
33437W        W99846   2.909  22.071  14.350
33438W        W99847  11.310  35.448   2.350
33439W        W99848  34.196  14.924   3.281
33440W        W99849  31.905  22.806  13.461
33441W        W99850  10.347  10.653   1.411
33442W        W99851   0.770  32.483   1.938
33443W        W99852   0.943  17.737  12.607
33444W        W99853  19.876   4.909  12.012
33445W        W99854   2.780  13.885   3.844
33446W        W99855  25.684  41.545   9.574
33447W        W99856   4.918  15.373   4.501
33448W        W99857   7.109  22.528  13.807
33449W        W99858   7.609  36.532   4.288
33450W        W99859  37.857   1.790   0.993
33451W        W99860   6.433   1.260  13.201
33452W        W99861   1.435   7.850  10.075
33453W        W99862  31.775  30.494   3.619
33454W        W99863   3.219  24.432   4.207
33455W        W99864  15.352  42.324  13.383
33456W        W99865  28.026  14.866   2.779
33457W        W99866  28.411   6.165  10.947
33458W        W99867   9.736  26.061  11.940
33459W        W99868  27.731   0.702  13.905
33460W        W99869  22.108  37.490   0.050
33461W        W99870  23.724  20.680   3.772
33462W        W99871  43.652  22.260   3.681
33463W        W99872  19.439  21.172   1.166
33464W        W99873   3.914  32.770  13.430
33465W        W99874  20.288   6.444  12.520
33466W        W99875  21.993  30.236   3.268
33467W        W99876   0.233  28.580  13.607
33468W        W99877  44.909  19.994  10.621
33469W        W99878  32.908   4.219   2.626
33470W        W99879  20.401  11.388  13.002
33471W        W99880  35.545  23.749   3.199
33472W        W99881  21.737  16.607   4.592
33473W        W99882  17.268  15.882   1.736
33474W        W99883  41.234  10.483   3.568
33475W        W99884   7.064  27.943  14.106
33476W        W99885  21.448  10.830   0.218
33477W        W99886  36.784  14.115   3.371
33478W        W99887  26.318  37.353  11.423
33479W        W99888   0.198   5.728  14.791
33480W        W99889   7.867  28.549  11.977
33481W        W99890  23.932   1.953  11.554
33482W        W99891  39.026   0.025  14.359
33483W        W99892  42.756  21.656   4.165
33484W        W99893   3.710  43.448   3.999
33485W        W99894  25.631  35.584   4.576
33486W        W99895  43.795  21.252   2.698
33487W        W99896  33.608  30.867   1.383
33488W        W99897  26.468  16.661   2.768
33489W        W99898  19.131   8.083   1.215
33490W        W99899  24.931  29.627   3.346
33491W        W99900  19.055  41.589  12.445
33492W        W99901  34.024  19.339   4.156
33493W        W99902  39.484  14.450  14.986
33494W        W99903  36.927   7.473  11.803
33495W        W99904  12.287  23.213   1.465
33496W        W99905   7.310  26.471   1.935
33497W        W99906   6.761   4.794   0.950
33498W        W99907   8.603  27.300   3.651
33499W        W99908  11.079  14.671  10.715
33500W        W99909  19.897  38.744   2.068
33501W        W99910  28.893  32.402   0.371
33502W        W99911  34.138  10.281  14.952
33503W        W99912   7.199  32.331  14.084
33504W        W99913  43.384  41.048   2.441
33505W        W99914   5.463  20.767  14.450
33506W        W99915   4.264  16.529  12.132
33507W        W99916  13.224  43.522  12.422
33508W        W99917  22.274  13.382   0.076
33509W        W99918  13.704   6.697  14.915
33510W        W99919   9.205   4.511   1.501
33511W        W99920   7.304  15.325   3.865
33512W        W99921  35.548  35.077   4.104
33513W        W99922   8.634   2.470  14.471
33514W        W99923  21.246  36.596  10.134
33515W        W99924  10.957  18.106   1.328
33516W        W99925  13.614  18.151  14.467
33517W        W99926  33.622  34.314  11.254
33518W        W99927  28.209  34.970  13.780
33519W        W99928   6.063  43.858  11.414
33520W        W99929   5.236   6.318  13.052
33521W        W99930  28.372  36.037   2.352
33522W        W99931  43.974  12.407   3.713
33523W        W99932  30.442  38.229  11.183
33524W        W99933   8.407   2.243   3.711
33525W        W99934  25.306  40.887  12.520
33526W        W99935  23.825  16.573   4.690
33527W        W99936  18.295  34.682   2.808
33528W        W99937   1.954  43.174  13.869
33529W        W99938  43.001  16.490   3.649
33530W        W99939  34.844  36.151  11.990
33531W        W99940  31.856  31.513  12.687
33532W        W99941   7.735  40.534   0.302
33533W        W99942   3.228  25.348   3.593
33534W        W99943   4.273   3.034  14.631
33535W        W99944  34.555  14.388  14.819
33536W        W99945  16.990  24.458  13.443
33537W        W99946  23.938  38.051   4.590
33538W        W99947   4.029  30.676  11.541
33539W        W99948  44.012  16.224  10.577
33540W        W99949   0.083  42.973  10.364
33541W        W99950  34.104  14.292  10.821
33542W        W99951  40.613  28.732   1.397
33543W        W99952  20.269   0.900   4.068
33544W        W99953  22.404  18.148  10.383
33545W        W99954  27.278  38.967  12.821
33546W        W99955  28.857   1.592  14.911
33547W        W99956  44.973   3.317   3.851
33548W        W99957  13.046  37.442  13.858
33549W        W99958  37.603  13.644  10.655
33550W        W99959  15.092  39.195   5.067
33551W        W99960  15.862  19.780   1.121
33552W        W99961   2.248  13.500  10.763
33553W        W99962  36.662   0.400   0.056
33554W        W99963  36.741   3.263  12.160
33555W        W99964  20.285  43.802  11.947
33556W        W99965  18.655  43.723   0.220
33557W        W99966  29.943   7.384   2.051
33558W        W99967   8.695  23.759   1.383
33559W        W99968   3.388  38.247   4.147
33560W        W99969  40.630  43.282   1.778
33561W        W99970  27.244   5.616  10.733
33562W        W99971   0.741  22.037   4.207
33563W        W99972   0.702  16.104   0.747
33564W        W99973  23.135   2.198   3.007
33565W        W99974  14.874  25.499  12.957
33566W        W99975  27.338  16.124  13.833
33567W        W99976  36.468  22.890  10.959
33568W        W99977   7.990  16.158  11.859
33569W        W99978  21.596   6.644   3.773
33570W        W99979  30.900  37.797  14.517
33571W        W99980  41.956  44.046   2.776
33572W        W99981  39.442  44.580   1.903
33573W        W99982  32.765  43.294  14.267
33574W        W99983   7.874   3.305   4.559
33575W        W99984  36.156  24.296  12.486
33576W        W99985  12.352   3.690  14.325
33577W        W99986  15.946  27.029   0.308
33578W        W99987  35.984  19.732   9.783
33579W        W99988   8.868  44.281   2.401
33580W        W99989  33.342  15.751   4.574
33581W        W99990   9.224   6.913   3.731
33582W        W99991   1.523  13.374   1.721
33583W        W99992  21.276  18.784  13.470
33584W        W99993  16.763  17.068  11.116
33585W        W99994  32.462  43.592  14.571
33586W        W99995  28.162  29.046   0.228
33587W        W99996   9.695   1.840   4.118
33588W        W99997  42.544  40.750  10.649
33589W        W99998  22.564  32.852   0.773
33590W        W99999   3.182  23.641  14.541
33591W        W    0  19.659   2.058   4.423
33592W        W    1  29.072  17.074   3.823
33593W        W    2  23.236  11.802   4.643
33594W        W    3  17.321  38.804   3.143
33595W        W    4  25.035   0.402   2.772
33596W        W    5  22.800  44.383   3.674
33597W        W    6  10.250   1.234   1.928
33598W        W    7  23.437  11.200   1.287
33599W        W    8  26.735  34.663  13.948
33600W        W    9  44.515  32.950  14.535
33601W        W   10  35.922   0.880   4.527
33602W        W   11   5.934  30.805  10.758
33603W        W   12  17.270  43.730   4.099
33604W        W   13  31.658  21.553   0.726
33605W        W   14  30.652  27.839  11.971
33606W        W   15  25.036  42.416  14.575
33607W        W   16  42.047   9.762  13.104
33608W        W   17  43.776   5.745  14.408
33609W        W   18  23.685   9.219  12.528
33610W        W   19  18.645   7.259  11.097
33611W        W   20  13.679   4.452   1.860
33612W        W   21   7.196   7.619   4.787
33613W        W   22  36.872  31.552   3.196
33614W        W   23  41.553  21.302  14.863
33615W        W   24  14.240  31.607  12.978
33616W        W   25  42.291  41.448  11.867
33617W        W   26  38.156   1.188   3.688
33618W        W   27  39.344  34.980   2.392
33619W        W   28  31.187  12.721  10.345
33620W        W   29  28.720  12.144   0.822
33621W        W   30  18.813  20.802  14.893
33622W        W   31   2.842  23.689   3.725
33623W        W   32  32.352  16.693   3.701
33624W        W   33  10.716   6.135   1.361
33625W        W   34  16.713  42.841  12.580
33626W        W   35  35.206  37.849  10.979
33627W        W   36  18.180   3.059  13.029
33628W        W   37   6.782  20.093  10.795
33629W        W   38   7.682   5.428   0.171
33630W        W   39  44.453  40.965   4.528
33631W        W   40  34.989  14.242   2.701
33632W        W   41  42.696   8.068   2.790
33633W        W   42  39.819   5.783   2.973
33634W        W   43  30.585  44.261   3.727
33635W        W   44   6.291  34.375  14.056
33636W        W   45  30.643  36.029  14.938
33637W        W   46   4.667  20.143  12.834
33638W        W   47  19.066   2.127   3.677
33639W        W   48  29.057   3.773   0.256
33640W        W   49  17.197  40.450  14.887
33641W        W   50   0.046  27.128   3.670
33642W        W   51   9.786   7.885  13.733
33643W        W   52  38.025   7.984   1.960
33644W        W   53   0.316   1.859  11.912
33645W        W   54  14.575   7.488   2.347
33646W        W   55   6.049   9.189  14.595
33647W        W   56   4.514  24.069   0.831
33648W        W   57  28.484  23.058   5.437
33649W        W   58  23.515  43.098   1.684
33650W        W   59  42.112  23.373   0.886
33651W        W   60   3.026  29.525  11.690
33652W        W   61  13.396   8.834   2.707
33653W        W   62  13.718  23.725  10.899
33654W        W   63  12.134  28.826  14.985
33655W        W   64  12.253  22.906  11.623
33656W        W   65  11.642   5.847  14.526
33657W        W   66  17.631  17.915  12.903
33658W        W   67  43.999   6.884  14.556
33659W        W   68  29.530  38.317  11.090
33660W        W   69   1.112   8.320   3.175
33661W        W   70  40.000  34.022   4.195
33662W        W   71  23.189  34.585  11.570
33663W        W   72  41.138  30.800  10.682
33664W        W   73  11.618  43.842  11.133
33665W        W   74  19.250  32.531  13.656
33666W        W   75  20.466   2.366  14.792
33667W        W   76  27.729   9.269  13.358
33668W        W   77   0.198  20.009  11.982
33669W        W   78  44.633   2.431  11.948
33670W        W   79  17.620  11.868  13.908
33671W        W   80   1.323  36.502  10.698
33672W        W   81  31.506  30.664   1.820
33673W        W   82  42.921  16.735   2.223
33674W        W   83  37.021  19.911  11.660
33675W        W   84   3.785  32.531  12.427
33676W        W   85   3.223   0.501  11.369
33677W        W   86   8.430   5.376  13.727
33678W        W   87  15.100  38.017   3.779
33679W        W   88  19.187  23.200   2.903
33680W        W   89  20.516  27.900   3.282
33681W        W   90  14.165  44.193  13.968
33682W        W   91  35.357  23.015  12.672
33683W        W   92  39.870  26.840   1.886
33684W        W   93  25.571   5.216   3.841
33685W        W   94  41.255   5.387  12.026
33686W        W   95  21.208  27.503   0.833
33687W        W   96  31.950  27.953   0.075
33688W        W   97  40.400   9.032  14.948
33689W        W   98   2.862  44.696   0.887
33690W        W   99  37.482  29.189  11.659
33691W        W  100  29.200  37.596   1.877
33692W        W  101  44.692   8.541   0.435
33693W        W  102  43.589   5.812   3.696
33694W        W  103  17.514   7.894  13.400
33695W        W  104   0.958  24.275   1.797
33696W        W  105  36.457   7.357   3.336
33697W        W  106  27.925  28.610   0.913
33698W        W  107  29.558  13.569   0.823
33699W        W  108   9.251  36.284  10.678
33700W        W  109  40.086  30.043  13.276
33701W        W  110  27.041  23.475   3.105
33702W        W  111  22.997  19.801  11.423
33703W        W  112  22.636   6.739   0.933
33704W        W  113  21.059   6.353   1.336
33705W        W  114  34.022  38.163  10.829
33706W        W  115   7.361  44.440   0.944
33707W        W  116  38.042   8.184  14.796
33708W        W  117  38.610   5.222   1.517
33709W        W  118  44.210  26.300  13.460
33710W        W  119  35.119  27.194  11.651
33711W        W  120   3.738   1.956   1.932
33712W        W  121   1.397  30.959   4.087
33713W        W  122  10.183  13.166  11.697
33714W        W  123  27.202   3.475  12.966
33715W        W  124  22.054  21.805   0.783
33716W        W  125   4.091  32.949  12.473
33717W        W  126  14.455   6.873   4.652
33718W        W  127  19.170  39.054   1.467
33719W        W  128  42.653   6.959  13.819
33720W        W  129   4.022   3.349   0.584
33721W        W  130  42.493  33.130  11.144
33722W        W  131   8.141   9.974  10.608
33723W        W  132  44.004  41.792   3.173
33724W        W  133   8.425  18.810  13.023
33725W        W  134  14.439   9.879  12.423
33726W        W  135   7.745  19.117  12.000
33727W        W  136  33.535  40.033   4.818
33728W        W  137  15.226  32.042  12.166
33729W        W  138  11.975  43.799   9.825
33730W        W  139  41.381  42.992  14.905
33731W        W  140  28.873   2.903  14.043
33732W        W  141   8.119  34.090  12.989
33733W        W  142  41.755  22.953   0.954
33734W        W  143   7.132   9.433   3.210
33735W        W  144  10.219  41.812   1.728
33736W        W  145  11.900  44.286  13.661
33737W        W  146  35.966  44.971   1.001
33738W        W  147  35.929  24.002  14.864
33739W        W  148  31.260  26.426  14.839
33740W        W  149  39.856  42.255  11.206
33741W        W  150  33.705  33.916  14.416
33742W        W  151   2.806   8.869   0.921
33743W        W  152  41.740   0.951  12.447
33744W        W  153  38.596  26.460  12.845
33745W        W  154  41.058  37.774  13.516
33746W        W  155  32.516  11.787   1.657
33747W        W  156  36.595   9.841   0.424
33748W        W  157  25.687  23.053  14.825
33749W        W  158  38.938   2.705   3.352
33750W        W  159   7.686  15.060   0.989
33751W        W  160   5.215   5.847  10.335
33752W        W  161  25.157   7.123  10.272
33753W        W  162  21.926  15.042  13.427
33754W        W  163  36.497  23.460   2.319
33755W        W  164   3.418   1.423   3.406
33756W        W  165  38.587   2.149   0.325
33757W        W  166   5.323  15.793   1.348
33758W        W  167  44.356  44.031  13.171
33759W        W  168  42.533  24.485   2.906
33760W        W  169  43.104  33.922   1.803
33761W        W  170  36.125  20.252   2.286
33762W        W  171  42.990  25.543  13.071
33763W        W  172   2.925  32.418   2.870
33764W        W  173  30.562  12.097   2.785
33765W        W  174  19.645  26.656   4.547
33766W        W  175   7.376  12.241  13.266
33767W        W  176  27.186  25.946  14.849
33768W        W  177  40.762   7.662   2.260
33769W        W  178   6.258  39.910   2.858
33770W        W  179  11.756  13.838   3.751
33771W        W  180   0.507  44.271  12.278
33772W        W  181  37.427  32.827  12.042
33773W        W  182  13.341  18.872  11.021
33774W        W  183  14.653  36.745   3.173
33775W        W  184  20.520  33.539   0.677
33776W        W  185   7.012  35.663   0.494
33777W        W  186   6.700   5.727   0.454
33778W        W  187  15.639  21.696   3.573
33779W        W  188  33.475   5.317   0.319
33780W        W  189  17.084   1.394   2.863
33781W        W  190  30.766   6.953  11.526
33782W        W  191  22.925  38.494  12.001
33783W        W  192  40.612  14.271   2.723
33784W        W  193   4.209  21.273  12.922
33785W        W  194  36.649  39.990   4.648
33786W        W  195  25.080  20.154   5.327
33787W        W  196  27.168  34.361  14.897
33788W        W  197  25.041  44.599   2.750
33789W        W  198   4.167   6.119   1.027
33790W        W  199  33.496  38.008  11.582
33791W        W  200  16.231  28.447  11.056
33792W        W  201  16.733  44.708  13.054
33793W        W  202   1.357  35.591   1.348
33794W        W  203  15.105   8.358   3.936
33795W        W  204  21.791  34.469   1.125
33796W        W  205  44.828  20.145   3.110
33797W        W  206  24.837  35.022  12.414
33798W        W  207  21.758  42.966   4.631
33799W        W  208  41.466  40.882   1.506
33800W        W  209  29.242  16.735  13.944
33801W        W  210   9.931  43.304   2.313
33802W        W  211  10.813   8.587  14.263
33803W        W  212   7.798   2.042   2.855
33804W        W  213  14.673  21.704   0.367
33805W        W  214  28.482  31.279   4.140
33806W        W  215  17.349  13.077   2.784
33807W        W  216  36.125  11.951   2.734
33808W        W  217  27.362  39.393   1.824
33809W        W  218  25.050  21.523   1.255
33810W        W  219  38.571  12.210   1.328
33811W        W  220  15.660  44.463   4.707
33812W        W  221  30.765  26.296  14.962
33813W        W  222  31.668  25.892   2.751
33814W        W  223   7.917  33.582  14.425
33815W        W  224   1.988  40.560   0.436
33816W        W  225   1.025   0.900  14.489
33817W        W  226   7.818  43.096  12.007
33818W        W  227  13.656  12.385  10.560
33819W        W  228  39.329   0.347  11.486
33820W        W  229  36.560  44.150  13.047
33821W        W  230  27.511   2.010  14.948
33822W        W  231  35.787  13.442  13.508
33823W        W  232  38.472  24.249  13.859
33824W        W  233  17.739   5.318   3.339
33825W        W  234  27.082  10.861   1.268
33826W        W  235  43.938  14.282   0.867
33827W        W  236   3.352  41.289  13.994
33828W        W  237  18.324  32.146   1.271
33829W        W  238   0.981  26.040   1.723
33830W        W  239  14.174   6.956   0.954
33831W        W  240  27.311  21.571  11.886
33832W        W  241  30.019  39.030   3.568
33833W        W  242  13.258  30.113   4.661
33834W        W  243  24.645  28.976  14.079
33835W        W  244  36.021  32.144  13.860
33836W        W  245  25.686  39.814  14.967
33837W        W  246  25.964   2.416   0.913
33838W        W  247  20.718  28.000   2.808
33839W        W  248   0.326  33.003   3.186
33840W        W  249  32.069   0.422  14.350
33841W        W  250  13.267   0.436   1.731
33842W        W  251  34.629  12.031  11.489
33843W        W  252  37.969  38.891  13.937
33844W        W  253  28.066  23.930   3.824
33845W        W  254  25.129  39.347   2.736
33846W        W  255  28.593  38.838   0.904
33847W        W  256  18.065  15.322   0.688
33848W        W  257  44.366  25.139   0.174
33849W        W  258  13.235  12.816   4.607
33850W        W  259   9.858  12.641  10.736
33851W        W  260  37.595  38.533   4.296
33852W        W  261  11.253   1.731   2.788
33853W        W  262  16.631  31.893  12.980
33854W        W  263  15.372  10.796  11.083
33855W        W  264   0.423  44.008   1.261
33856W        W  265  20.753   3.294   3.596
33857W        W  266   5.472  30.564   1.794
33858W        W  267  27.588  14.368   0.825
33859W        W  268  22.239  13.147   1.849
33860W        W  269  43.572   1.002  10.587
33861W        W  270  13.406  11.141   0.519
33862W        W  271  19.603   1.297  11.480
33863W        W  272  42.415   6.194   4.629
33864W        W  273  18.485  25.683  11.415
33865W        W  274  20.038   7.267  12.553
33866W        W  275   2.242   9.020  12.156
33867W        W  276   7.667   4.492  14.967
33868W        W  277  37.627  15.919  11.420
33869W        W  278  30.413  32.515  10.800
33870W        W  279   0.024  20.012   4.398
33871W        W  280  34.930  29.401  13.342
33872W        W  281  29.658  20.923   0.440
33873W        W  282  38.551  11.127   4.122
33874W        W  283   7.824  18.894   3.861
33875W        W  284  21.263  25.120   2.854
33876W        W  285  31.632  43.529  10.721
33877W        W  286   4.068  37.542   4.310
33878W        W  287  23.713  18.736   0.735
33879W        W  288  15.080   4.989   0.912
33880W        W  289  22.761   0.415   3.065
33881W        W  290  10.587  13.734   2.758
33882W        W  291  23.894  44.309  11.148
33883W        W  292   7.848  30.740  14.515
33884W        W  293  17.995   6.683   0.304
33885W        W  294  38.466   7.789   2.622
33886W        W  295   2.035  18.272   4.018
33887W        W  296  15.207  40.795  12.905
33888W        W  297  41.996   0.577   3.681
33889W        W  298  31.893  29.826  10.965
33890W        W  299   9.653  33.078  12.959
33891W        W  300  15.726  32.968  10.570
33892W        W  301   7.472   1.744   1.128
33893W        W  302  21.465  31.456  11.246
33894W        W  303  16.337   2.204   0.350
33895W        W  304  14.086  37.329   0.330
33896W        W  305  10.997  41.493   3.423
33897W        W  306  40.588   3.364  12.475
33898W        W  307  42.354  11.753  10.747
33899W        W  308  37.069  16.507   3.851
33900W        W  309  15.822  30.058  10.594
33901W        W  310  21.798  11.441   1.741
33902W        W  311  27.440  42.310   2.195
33903W        W  312   0.035  20.316  14.549
33904W        W  313  13.715   7.644  12.594
33905W        W  314  24.709   9.289  13.791
33906W        W  315  32.008  38.835   0.469
33907W        W  316  40.786   3.254   0.073
33908W        W  317  44.218  30.054   3.701
33909W        W  318  43.234  36.537  14.935
33910W        W  319  17.663  28.735   2.002
33911W        W  320  38.265  18.440   2.651
33912W        W  321  18.615  17.853   1.016
33913W        W  322  32.835  42.002   3.068
33914W        W  323  44.133   0.653   1.105
33915W        W  324   8.780   1.050  12.914
33916W        W  325  43.534  17.008  13.016
33917W        W  326  41.666  24.810   0.085
33918W        W  327   2.460  35.698  10.732
33919W        W  328  13.529   4.244   0.389
33920W        W  329  32.491  25.176   1.422
33921W        W  330  37.614  12.642   3.190
33922W        W  331  19.749  37.324   1.412
33923W        W  332  20.901   1.777  11.038
33924W        W  333  21.086  34.997   1.975
33925W        W  334   2.999  34.464   1.736
33926W        W  335  12.113  39.212  14.411
33927W        W  336  35.338  35.331   0.725
33928W        W  337  37.143  39.894  11.973
33929W        W  338  19.590   3.482  12.363
33930W        W  339  24.217  41.882   4.209
33931W        W  340  12.690  10.775   1.006
33932W        W  341  33.211   9.279   2.360
33933W        W  342  22.180  13.721  12.785
33934W        W  343  13.833  37.401   3.017
33935W        W  344  12.253  42.306  11.515
33936W        W  345  15.230  42.088   0.660
33937W        W  346   5.773  40.375  14.549
33938W        W  347   9.343  24.248  13.406
33939W        W  348   5.761  22.827  10.203
33940W        W  349  35.861  42.737  11.680
33941W        W  350  37.034  39.805   1.559
33942W        W  351  32.891  38.378   3.356
33943W        W  352  28.956  20.611   0.381
33944W        W  353  15.371  36.784   0.380
33945W        W  354  29.591   5.584   3.128
33946W        W  355   2.902  28.195   0.781
33947W        W  356  23.429  13.187  12.346
33948W        W  357  31.928  24.669   1.730
33949W        W  358  35.662  19.564   3.772
33950W        W  359  34.640  41.787   4.083
33951W        W  360  10.864   0.421   0.894
33952W        W  361  12.241  12.255  14.502
33953W        W  362  10.243  18.119  14.035
33954W        W  363  36.948   1.541   3.307
33955W        W  364  19.587   5.342   1.331
33956W        W  365   5.555  12.075   4.187
33957W        W  366  22.369   4.727  14.600
33958W        W  367  20.272  27.716  12.105
33959W        W  368  43.447  43.685  11.212
33960W        W  369  28.104  21.155  11.631
33961W        W  370  17.827  21.353  11.139
33962W        W  371   7.288   8.386   1.496
33963W        W  372  19.270  22.206  11.261
33964W        W  373  23.023   1.839   3.355
33965W        W  374  35.206  22.765  13.490
33966W        W  375  12.320  23.522   4.490
33967W        W  376  16.381  24.112   4.315
33968W        W  377   8.698  22.690  10.602
33969W        W  378  35.341   6.869   3.581
33970W        W  379  30.339  27.465   1.969
33971W        W  380  33.065  20.476   1.950
33972W        W  381  10.181   6.790   3.388
33973W        W  382  44.828  14.583   3.708
33974W        W  383  39.780  19.336   2.415
33975W        W  384  26.469  38.623   3.146
33976W        W  385  13.199  37.578  11.973
33977W        W  386   6.769  38.832   2.542
33978W        W  387  16.291  42.885  12.946
33979W        W  388  44.192  24.944  13.285
33980W        W  389  14.862  32.944   2.131
33981W        W  390  25.716  32.513   0.191
33982W        W  391  38.568  17.656   0.392
33983W        W  392  15.454  13.997  14.227
33984W        W  393  15.805  37.446   2.738
33985W        W  394  43.514  44.365  12.677
33986W        W  395  44.529  42.777   1.469
33987W        W  396  14.546  12.241   3.356
33988W        W  397   0.369   3.908   0.911
33989W        W  398  32.636  21.266   0.413
33990W        W  399  39.633  21.163  12.521
33991W        W  400  40.543  34.946  14.835
33992W        W  401  25.794  40.421  14.260
33993W        W  402  43.345  18.979  11.984
33994W        W  403  32.930  26.701  13.046
33995W        W  404  23.501  44.224   0.202
33996W        W  405  20.283   3.230  14.451
33997W        W  406  39.629  25.581  12.885
33998W        W  407   2.017  31.642  11.607
33999W        W  408  26.201  27.811  14.474
34000W        W  409  15.342  43.980   2.855
34001W        W  410  25.169   3.146   4.173
34002W        W  411  40.607  24.239  10.684
34003W        W  412  25.050   8.673   1.592
34004W        W  413  39.170   8.996  13.389
34005W        W  414  33.135  38.101   3.749
34006W        W  415  35.634  28.977   1.692
34007W        W  416  40.057  39.132  11.851
34008W        W  417  39.563   2.152   4.435
34009W        W  418  34.476  37.460  12.599
34010W        W  419  17.033  10.763   4.168
34011W        W  420  12.590  26.239  13.594
34012W        W  421  15.844   0.454   4.602
34013W        W  422  18.673  43.210  13.337
34014W        W  423  15.063  14.355  14.377
34015W        W  424  26.569   7.179  10.305
34016W        W  425  25.699  19.296   4.176
34017W        W  426  17.485  10.432  13.797
34018W        W  427   8.008   4.097  10.903
34019W        W  428  12.311  33.053  14.813
34020W        W  429  33.518  22.475   4.832
34021W        W  430  41.114  14.128   2.707
34022W        W  431  25.007   3.361  14.994
34023W        W  432  31.933   8.566   0.863
34024W        W  433  37.897  24.495   2.230
34025W        W  434  31.375  31.638   3.409
34026W        W  435   4.789  40.027   0.450
34027W        W  436   9.513  11.359  12.412
34028W        W  437  42.317  35.363   2.748
34029W        W  438   5.885  13.244   0.659
34030W        W  439  16.732   7.791   1.681
34031W        W  440  17.951   7.602   0.761
34032W        W  441  25.639  18.633   4.193
34033W        W  442   6.871  23.704   1.464
34034W        W  443  17.641   5.380   4.512
34035W        W  444  35.764  11.249  13.459
34036W        W  445  28.448  44.340  11.788
34037W        W  446  19.060  20.666  12.070
34038W        W  447   3.176  35.656   4.179
34039W        W  448  14.105  26.893  13.365
34040W        W  449  16.098  19.649  13.913
34041W        W  450   2.395  15.539  10.800
34042W        W  451  30.963  30.215  11.251
34043W        W  452  22.240  39.073  10.879
34044W        W  453  30.278  10.792  13.466
34045W        W  454  17.776  11.780   2.328
34046W        W  455  31.068  20.089  14.783
34047W        W  456  14.650  29.367   3.218
34048W        W  457  24.944   2.400  12.642
34049W        W  458   9.749  41.883   1.356
34050W        W  459  42.191  29.906  12.127
34051W        W  460   2.691   2.276   0.584
34052W        W  461  23.524  12.120  10.620
34053W        W  462  41.009  42.353   0.031
34054W        W  463  35.306  27.126   1.986
34055W        W  464  35.791  17.364   4.577
34056W        W  465  41.756  33.467   3.219
34057W        W  466  28.264  21.157   2.627
34058W        W  467  12.676  10.290  10.710
34059W        W  468  31.536  15.136   3.748
34060W        W  469  14.239  39.338  14.377
34061W        W  470  16.249  40.312  14.306
34062W        W  471   3.172  20.067   3.792
34063W        W  472  34.407  14.019   0.950
34064W        W  473   8.642  37.512   4.139
34065W        W  474   2.864   0.710   2.859
34066W        W  475  33.926  24.429   3.074
34067W        W  476  27.544  30.569  12.872
34068W        W  477  31.045  31.510  12.245
34069W        W  478  38.885  34.895  11.213
34070W        W  479  41.023  23.328   4.861
34071W        W  480  25.870  35.062   3.800
34072W        W  481  30.912   6.874  10.839
34073W        W  482  34.363   7.221  13.263
34074W        W  483  38.361  35.170   1.789
34075W        W  484  30.929  12.409   1.727
34076W        W  485  17.817  30.069  14.641
34077W        W  486  15.827  35.422  10.437
34078W        W  487  39.671  14.856  13.120
34079W        W  488  23.254  40.894  14.672
34080W        W  489  28.893  29.703   3.239
34081W        W  490  17.152  43.744  13.297
34082W        W  491   5.340  42.953   0.542
34083W        W  492  12.125  13.245  14.533
34084W        W  493  30.177  44.425   2.878
34085W        W  494  19.654  35.833  14.657
34086W        W  495  42.229  23.487   0.380
34087W        W  496  32.695  22.291  14.472
34088W        W  497   9.424   8.188   2.457
34089W        W  498   2.714  31.963  14.501
34090W        W  499  10.748  29.908  14.106
34091W        W  500   8.311  30.270  11.611
34092W        W  501  33.001  36.378   0.055
34093W        W  502   6.637  16.077   2.802
34094W        W  503  16.702  39.619   4.444
34095W        W  504  22.533  42.477   4.739
34096W        W  505  11.906   3.406   2.402
34097W        W  506  28.458  37.257   4.782
34098W        W  507  42.316  33.429   1.808
34099W        W  508  16.965  16.455   4.649
34100W        W  509  26.161  10.538   3.247
34101W        W  510  38.335   1.277  14.926
34102W        W  511  29.544  38.287   3.326
34103W        W  512   0.662   9.406  12.472
34104W        W  513  25.773   8.174  13.947
34105W        W  514  41.969  15.126  13.149
34106W        W  515  14.407  11.665  14.405
34107W        W  516  15.098  12.761  10.297
34108W        W  517  26.543   2.802   3.008
34109W        W  518  17.208  13.737  13.413
34110W        W  519  27.429  29.043   4.594
34111W        W  520  41.765   8.807  13.083
34112W        W  521  30.223  24.401   2.352
34113W        W  522  19.513  38.273  14.846
34114W        W  523   7.464   0.429  13.954
34115W        W  524   3.930  32.848  14.387
34116W        W  525  15.038  21.014  13.363
34117W        W  526  42.203  44.992  10.734
34118W        W  527  24.152  26.241   3.713
34119W        W  528  39.448  41.934   4.612
34120W        W  529  36.390   6.705  12.940
34121W        W  530  16.693  41.189  14.980
34122W        W  531   6.895  37.997   1.230
34123W        W  532   0.840   9.204   4.521
34124W        W  533   0.909  30.718  11.871
34125W        W  534  32.596  42.963   1.329
34126W        W  535  26.037   9.390   0.918
34127W        W  536  37.832   8.750  10.705
34128W        W  537  30.948   1.650  11.947
34129W        W  538   8.648  15.326   2.758
34130W        W  539  14.356  44.902  11.148
34131W        W  540  28.505  25.772   1.163
34132W        W  541   3.246   2.389  14.771
34133W        W  542  34.395  33.827  10.877
34134W        W  543   6.269   0.834  10.697
34135W        W  544  39.827  43.410   0.433
34136W        W  545  15.046   9.202   2.845
34137W        W  546  27.244  11.294   0.831
34138W        W  547  21.894   2.902   2.484
34139W        W  548  11.185  43.494   1.215
34140W        W  549  24.799  29.201   2.953
34141W        W  550  37.443  22.658   4.299
34142W        W  551  23.027   7.004   0.707
34143W        W  552   0.812   0.405   0.064
34144W        W  553  40.046  22.763   2.814
34145W        W  554  32.897  19.787  12.492
34146W        W  555  36.758   9.389   2.224
34147W        W  556  27.591   7.306   5.673
34148W        W  557  17.745  35.908  12.118
34149W        W  558  13.064  10.208   2.281
34150W        W  559  34.881  28.904  13.480
34151W        W  560   8.287  15.749   1.127
34152W        W  561   3.450  20.489   3.705
34153W        W  562  26.169  32.539   0.467
34154W        W  563   8.340  21.758  13.569
34155W        W  564  25.785  34.185  12.915
34156W        W  565  14.798  17.914  13.886
34157W        W  566  15.064  39.581   9.861
34158W        W  567  10.650   9.019   1.547
34159W        W  568  10.261  31.460  10.109
34160W        W  569  25.614  38.982   3.610
34161W        W  570  22.624   6.265   0.653
34162W        W  571  44.770  24.790   2.910
34163W        W  572  15.640  16.587   3.379
34164W        W  573  34.354  41.347  11.541
34165W        W  574   8.574  13.470   4.524
34166W        W  575   3.930  22.292   4.729
34167W        W  576  43.789  41.788   4.059
34168W        W  577   1.541  39.247   1.841
34169W        W  578  25.190   4.739   3.149
34170W        W  579  18.970  38.013  11.374
34171W        W  580  15.469  28.920   1.742
34172W        W  581  22.531  43.346   3.141
34173W        W  582   5.511   1.206   0.419
34174W        W  583  33.491  26.840  14.887
34175W        W  584  38.641  43.317  13.833
34176W        W  585  36.598   8.913   2.389
34177W        W  586  28.077  21.009   1.676
34178W        W  587   3.206   3.710   2.896
34179W        W  588  14.353  31.805  12.515
34180W        W  589  20.468  20.718   1.773
34181W        W  590  27.449  44.399  11.339
34182W        W  591  29.448   1.797  12.004
34183W        W  592  12.049  13.786   0.191
34184W        W  593  44.398   7.247   3.935
34185W        W  594   1.809  20.801  14.229
34186W        W  595  21.068  41.960   3.869
34187W        W  596  24.492  27.474  14.972
34188W        W  597  11.310  20.730  12.403
34189W        W  598   2.220  10.378  13.912
34190W        W  599  15.695  33.631   1.302
34191W        W  600  30.873  18.587   1.902
34192W        W  601  20.338  15.628   3.211
34193W        W  602  40.580   5.952  12.154
34194W        W  603   9.207   7.936  11.049
34195W        W  604  14.298  12.367   0.806
34196W        W  605  28.277   6.052   2.566
34197W        W  606  11.643  15.265  11.491
34198W        W  607  39.952   9.215   4.709
34199W        W  608   7.856  33.448   5.344
34200W        W  609  19.565   1.895  13.370
34201W        W  610   4.664  24.598   0.801
34202W        W  611  33.119  11.806  13.850
34203W        W  612  27.038  11.686  12.008
34204W        W  613  11.215  29.441   1.290
34205W        W  614   5.579  17.284  12.920
34206W        W  615  26.896  44.340  13.042
34207W        W  616   2.980  35.156  11.135
34208W        W  617  19.277  17.127  11.684
34209W        W  618  31.310  36.032  12.524
34210W        W  619  13.286  35.962  11.356
34211W        W  620  20.566  38.109   3.527
34212W        W  621   0.866  30.383  11.490
34213W        W  622  14.357  36.352   1.714
34214W        W  623  33.840  41.106  13.418
34215W        W  624   3.644   9.563  14.980
34216W        W  625  30.913  27.495  14.133
34217W        W  626  14.333  29.404  12.218
34218W        W  627  31.071  26.209  11.588
34219W        W  628   9.584  22.745   2.020
34220W        W  629   3.786   7.450   0.035
34221W        W  630  25.851  30.245   0.856
34222W        W  631  33.633  26.917  11.496
34223W        W  632   1.432  21.041  14.457
34224W        W  633  13.506  26.998  10.402
34225W        W  634   1.038  15.362  12.016
34226W        W  635  19.217   8.258   1.706
34227W        W  636  14.898   7.466   1.938
34228W        W  637   1.396  16.690   0.433
34229W        W  638  16.825  14.616   0.643
34230W        W  639  18.779   1.650   4.636
34231W        W  640  43.101  37.022  14.039
34232W        W  641  20.174  44.709   1.462
34233W        W  642  39.735  16.596  14.951
34234W        W  643  40.941  39.346  10.023
34235W        W  644   4.348  13.193   0.341
34236W        W  645  42.009   7.326  11.612
34237W        W  646  34.455   7.804  11.490
34238W        W  647   5.518  15.281  13.748
34239W        W  648  10.134  14.146  13.154
34240W        W  649   4.239  19.702  14.861
34241W        W  650  17.172  32.104  12.109
34242W        W  651  29.062  28.798  11.181
34243W        W  652  38.679   8.568   4.888
34244W        W  653  24.429   1.177  13.025
34245W        W  654  23.536  40.976   0.083
34246W        W  655  16.312   1.410  12.016
34247W        W  656  20.176   2.433  10.764
34248W        W  657  15.731  20.030  10.253
34249W        W  658  28.574  38.344  14.759
34250W        W  659  38.222  38.453   2.655
34251W        W  660   8.682  39.433   4.207
34252W        W  661  38.798   1.697   3.170
34253W        W  662  38.595  34.510  11.484
34254W        W  663   9.979  35.596   5.528
34255W        W  664  13.393  31.498  10.580
34256W        W  665  17.054   7.494  10.124
34257W        W  666  13.327  11.809  12.484
34258W        W  667  27.413  22.679  12.336
34259W        W  668  32.150  41.958   1.361
34260W        W  669   8.082  43.482  12.621
34261W        W  670  37.915   5.470  10.435
34262W        W  671   4.976  12.955  13.414
34263W        W  672  44.215  37.267  10.483
34264W        W  673   7.200  30.522  13.423
34265W        W  674  25.966  37.386  12.085
34266W        W  675  34.412  26.423  10.733
34267W        W  676  35.790  28.597  11.085
34268W        W  677  35.173  15.706   3.197
34269W        W  678  36.574   5.349   2.849
34270W        W  679  24.538  33.148  11.981
34271W        W  680   5.853   7.256   0.991
34272W        W  681  11.998   1.775  11.552
34273W        W  682  37.765  14.334   3.296
34274W        W  683   1.878  21.302  14.351
34275W        W  684   0.552  10.373  10.722
34276W        W  685  12.291  23.615  11.989
34277W        W  686  26.661  28.462  12.502
34278W        W  687   5.404  25.135  11.627
34279W        W  688  15.212   0.902  12.328
34280W        W  689  23.746  15.608   0.022
34281W        W  690   0.995  32.639   2.837
34282W        W  691  18.201   5.804  11.427
34283W        W  692  24.749  25.447   1.430
34284W        W  693  33.345   6.006   5.086
34285W        W  694  27.585  21.990  13.998
34286W        W  695  15.320  20.729  14.320
34287W        W  696  39.663  13.928   0.657
34288W        W  697   5.104   4.468   1.195
34289W        W  698  11.842  25.511   4.793
34290W        W  699  23.429  40.522  11.339
34291W        W  700   9.910  10.464   2.097
34292W        W  701  15.183  44.602   0.164
34293W        W  702  25.415  24.097  13.922
34294W        W  703   7.342  27.721  12.433
34295W        W  704  39.378  19.426  12.551
34296W        W  705  41.262   6.126   3.808
34297W        W  706  35.309  18.120   3.726
34298W        W  707  23.022  20.789   0.071
34299W        W  708   3.881  31.255  14.996
34300W        W  709  23.303   5.453  12.966
34301W        W  710  11.878  19.173   4.343
34302W        W  711  31.529   8.993  13.051
34303W        W  712  24.350  14.767   2.876
34304W        W  713  22.901  33.584  13.897
34305W        W  714  39.921  38.408  14.629
34306W        W  715  35.044   2.744  13.998
34307W        W  716   3.714  42.831   4.801
34308W        W  717  19.803   6.857  11.365
34309W        W  718  39.795  11.895   2.416
34310W        W  719   1.854  43.001  10.462
34311W        W  720   8.781   6.405   1.033
34312W        W  721   3.252  23.935   4.399
34313W        W  722  40.666  25.470  13.530
34314W        W  723  44.137   0.314  14.326
34315W        W  724  37.238   6.631   0.249
34316W        W  725  31.459  23.839   1.910
34317W        W  726   0.291  33.252   3.661
34318W        W  727  34.712  33.403   2.730
34319W        W  728  43.869  23.234   1.407
34320W        W  729   6.055  43.531  13.462
34321W        W  730  25.717  13.879   2.203
34322W        W  731  41.251  39.573   0.550
34323W        W  732  16.386   0.921   3.304
34324W        W  733  32.982  39.403  13.898
34325W        W  734  12.294   5.251  13.487
34326W        W  735  12.839  34.150   3.463
34327W        W  736  12.275   1.682  14.390
34328W        W  737  40.187  23.515   4.933
34329W        W  738   7.152   7.875   4.330
34330W        W  739  44.430  37.426   4.973
34331W        W  740  39.084  30.600   1.974
34332W        W  741  32.660  25.549  12.353
34333W        W  742  38.158  27.561   0.743
34334W        W  743  10.253   1.842   1.907
34335W        W  744  43.376   2.313  14.354
34336W        W  745  31.719  22.121   1.844
34337W        W  746   5.414  24.555   1.370
34338W        W  747  42.603  33.522  10.842
34339W        W  748   1.430  38.848   3.671
34340W        W  749  26.550   2.735  11.062
34341W        W  750  30.006  18.187   5.017
34342W        W  751  20.829  19.583  13.420
34343W        W  752  36.412  27.969   0.857
34344W        W  753  39.317   5.929  13.340
34345W        W  754  10.721  13.765  10.750
34346W        W  755  23.099  23.588  14.903
34347W        W  756  25.796  34.589  11.601
34348W        W  757  19.494  22.484   4.735
34349W        W  758   3.083  26.251  10.138
34350W        W  759   3.918  15.117  14.038
34351W        W  760   3.543  14.040  11.066
34352W        W  761   4.292  26.421   4.565
34353W        W  762  22.548  37.443  13.956
34354W        W  763  42.928  20.607   1.934
34355W        W  764  31.724  14.859   0.928
34356W        W  765  42.907   5.571   1.234
34357W        W  766  41.048  15.667   4.003
34358W        W  767  33.867  21.529   0.022
34359W        W  768  36.087  14.706  11.686
34360W        W  769  24.075   9.424   2.247
34361W        W  770  35.156  17.695   1.455
34362W        W  771  44.297  43.724  13.573
34363W        W  772  24.540   5.773  12.515
34364W        W  773   9.778  38.523  14.388
34365W        W  774  14.882   7.884   1.626
34366W        W  775  24.658  33.356  14.475
34367W        W  776   4.490   1.016   1.875
34368W        W  777  27.232  34.538   2.068
34369W        W  778  21.929  22.099  13.254
34370W        W  779  13.858   0.801   1.191
34371W        W  780  42.298  32.985   4.072
34372W        W  781  34.457  35.031   3.881
34373W        W  782  41.740  27.223   3.169
34374W        W  783   1.460  41.389   3.770
34375W        W  784  22.178   0.346  13.978
34376W        W  785  39.996  13.281  12.536
34377W        W  786  17.043  12.900   0.874
34378W        W  787  35.171  19.622  12.674
34379W        W  788  43.088  43.485  11.556
34380W        W  789  31.521  27.152   3.920
34381W        W  790  10.736  34.450   1.323
34382W        W  791  29.585   9.894   1.329
34383W        W  792  15.087  44.039  13.727
34384W        W  793  14.156   6.940   3.975
34385W        W  794  43.139  29.015   1.798
34386W        W  795  30.152  18.018   0.352
34387W        W  796  12.741   7.190  11.116
34388W        W  797  36.794   4.437   1.381
34389W        W  798  37.850  23.190   0.100
34390W        W  799  20.266  15.120  12.008
34391W        W  800   4.141  15.991  13.987
34392W        W  801  27.314  42.915   3.199
34393W        W  802  14.907   0.547   0.748
34394W        W  803  28.637  14.849   3.254
34395W        W  804  13.538  10.088  14.716
34396W        W  805  38.554  21.158  10.704
34397W        W  806  13.619   4.123  14.877
34398W        W  807  25.779   6.886  12.981
34399W        W  808  36.061  12.130  13.006
34400W        W  809  32.821  20.870   2.241
34401W        W  810  36.707  43.745   3.660
34402W        W  811  11.209  27.121  11.727
34403W        W  812  28.400  42.855  11.665
34404W        W  813  32.847   8.738   4.166
34405W        W  814   3.852   0.445   0.806
34406W        W  815  25.689  25.952  13.959
34407W        W  816  39.547   7.717  12.839
34408W        W  817  16.662  25.123  14.366
34409W        W  818   8.197  37.503  11.570
34410W        W  819   6.339  29.767  14.967
34411W        W  820   7.499  22.687   4.798
34412W        W  821   0.515  32.550  11.995
34413W        W  822  30.630  16.187   0.475
34414W        W  823   2.842   9.417  12.127
34415W        W  824   0.896  21.166   4.601
34416W        W  825  37.588  13.534   4.836
34417W        W  826  11.046  15.116  14.508
34418W        W  827  42.200  26.736  14.958
34419W        W  828  44.282  42.486  14.802
34420W        W  829  34.169  10.829   4.402
34421W        W  830  39.342  14.268   4.079
34422W        W  831  17.021   0.439  12.838
34423W        W  832  28.060  29.446  13.028
34424W        W  833  14.516  30.153  14.557
34425W        W  834  31.337  42.466  11.641
34426W        W  835   0.317  40.804   1.268
34427W        W  836  27.351  11.909  14.420
34428W        W  837  26.396   1.499  10.668
34429W        W  838  15.784  17.605  12.418
34430W        W  839  43.270  44.661   0.929
34431W        W  840   0.362  10.240   0.800
34432W        W  841  36.631  41.743   3.658
34433W        W  842  41.664  16.210   3.298
34434W        W  843  44.251  32.396   4.601
34435W        W  844   4.405  10.944   3.129
34436W        W  845  22.629  14.313   0.294
34437W        W  846  11.864  17.899  12.976
34438W        W  847  15.223  15.268  11.505
34439W        W  848  25.568  30.690   2.352
34440W        W  849  21.755  26.746   2.683
34441W        W  850   8.659  15.137  14.047
34442W        W  851  13.118  15.726  12.405
34443W        W  852  29.496   6.119  13.559
34444W        W  853  26.458  40.526   3.613
34445W        W  854  22.488  21.658  13.338
34446W        W  855  15.027   6.026   0.801
34447W        W  856  29.124  14.565  12.093
34448W        W  857  17.196  25.527   4.019
34449W        W  858  41.774   7.121   1.329
34450W        W  859  33.859  14.041  13.024
34451W        W  860  17.585  19.519   1.437
34452W        W  861  38.142  25.775   2.615
34453W        W  862  43.850  21.502  12.599
34454W        W  863   6.805   2.426  11.324
34455W        W  864  20.025  12.362  11.573
34456W        W  865  43.559   9.868  12.149
34457W        W  866  23.323   0.606  13.451
34458W        W  867  18.706   9.269  14.577
34459W        W  868  10.709  10.215  13.486
34460W        W  869  37.052  21.109  11.195
34461W        W  870  20.088  13.843  14.977
34462W        W  871  22.613  11.342   3.589
34463W        W  872   3.664  32.765  14.838
34464W        W  873  19.426  11.883  12.046
34465W        W  874  12.226   0.473  11.504
34466W        W  875  22.875   1.774   2.861
34467W        W  876  37.013  22.170   0.701
34468W        W  877  33.889  19.577   2.567
34469W        W  878  26.495  31.235   2.447
34470W        W  879  23.522  28.937  11.471
34471W        W  880  30.375  36.814   1.221
34472W        W  881  32.525  11.418   1.287
34473W        W  882  10.312   6.940  13.601
34474W        W  883  11.261  29.683   0.309
34475W        W  884  23.278  32.822  11.122
34476W        W  885  10.642  37.910  10.613
34477W        W  886  25.964   4.732  10.864
34478W        W  887   7.914  26.811  10.692
34479W        W  888  19.343  36.473  14.594
34480W        W  889  40.692  22.648   1.460
34481W        W  890   7.386   9.653   4.435
34482W        W  891  38.601  42.804  12.002
34483W        W  892   0.974  14.334   2.210
34484W        W  893  38.407  24.011   2.854
34485W        W  894  34.414  32.157   3.281
34486W        W  895  23.055  11.107  11.043
34487W        W  896  24.965  36.159  11.185
34488W        W  897  36.526  34.579   3.526
34489W        W  898  20.708  14.894   3.775
34490W        W  899  42.316  39.152  13.813
34491W        W  900   1.783  28.637  12.060
34492W        W  901  17.531   2.501  13.812
34493W        W  902  27.923  12.180   3.226
34494W        W  903  16.242   7.402   2.776
34495W        W  904  13.255  29.010  12.389
34496W        W  905  35.338   2.718   2.364
34497W        W  906  20.636  42.400  13.804
34498W        W  907  33.946  33.691   2.044
34499W        W  908  30.165   9.250   0.683
34500W        W  909  19.076   2.984   0.321
34501W        W  910  19.662  25.017   1.373
34502W        W  911  30.823  35.377   2.820
34503W        W  912   7.371   2.090   4.591
34504W        W  913   2.903  37.350  12.858
34505W        W  914  27.456  28.175  10.693
34506W        W  915  22.756  34.361   0.495
34507W        W  916  42.711  15.274  14.914
34508W        W  917  16.362  43.241  14.761
34509W        W  918   6.263   6.100   0.879
34510W        W  919  33.615   8.406  11.621
34511W        W  920  23.577  29.502  14.692
34512W        W  921  33.604  31.979   2.886
34513W        W  922  25.853  32.059  14.994
34514W        W  923   4.202  13.841   1.334
34515W        W  924  44.059  33.167  14.400
34516W        W  925   8.408  36.263   2.291
34517W        W  926  18.198   9.703   4.268
34518W        W  927  24.182  39.889  10.798
34519W        W  928  15.908   8.175  11.134
34520W        W  929  27.618   2.400  11.999
34521W        W  930  29.887  17.498   2.369
34522W        W  931  37.957  30.659   1.952
34523W        W  932  41.970   4.172  14.212
34524W        W  933   6.544  30.129  13.980
34525W        W  934  14.027  30.478  13.381
34526W        W  935  26.277   3.289  11.009
34527W        W  936  37.885  24.271  14.754
34528W        W  937   2.284  21.774   1.871
34529W        W  938  35.346  27.699  14.393
34530W        W  939  29.203   8.807   0.015
34531W        W  940  24.975   8.442  10.564
34532W        W  941   7.243   2.397   4.189
34533W        W  942  11.235  27.736   3.653
34534W        W  943  18.181   9.765   0.238
34535W        W  944  36.463  41.451   4.087
34536W        W  945   9.182  14.320  10.754
34537W        W  946  11.065  25.245   4.887
34538W        W  947   3.038   9.341  11.622
34539W        W  948  33.086  14.037   5.304
34540W        W  949   3.935   9.648   2.948
34541W        W  950  15.615  10.676   0.936
34542W        W  951   1.412   1.937   2.736
34543W        W  952  44.815  12.927  10.987
34544W        W  953   5.664  19.114   1.247
34545W        W  954  17.388  23.531  13.454
34546W        W  955  14.265  31.903   1.845
34547W        W  956   7.938  30.148   2.401
34548W        W  957   4.417  18.634   2.712
34549W        W  958  39.895  26.101   4.303
34550W        W  959  43.349  20.986  12.399
34551W        W  960  41.231  35.040   0.374
34552W        W  961  43.392  37.296   4.033
34553W        W  962  11.809   2.299   3.100
34554W        W  963  40.491  29.886   0.902
34555W        W  964  27.707  25.968  14.903
34556W        W  965   2.514   8.431  11.218
34557W        W  966   8.320   1.271   4.041
34558W        W  967  41.896  38.177   2.726
34559W        W  968  19.634  37.074  13.523
34560W        W  969   3.471   1.258   2.894
34561W        W  970  15.246  44.112  12.339
34562W        W  971  26.499   0.481  12.094
34563W        W  972  40.514   7.568   0.843
34564W        W  973   8.682  30.637   4.972
34565W        W  974  10.706  40.860   1.764
34566W        W  975  42.602  39.969  10.674
34567W        W  976  16.293   2.459  14.111
34568W        W  977  34.446  38.943   1.041
34569W        W  978   0.477   7.825   3.857
34570W        W  979  16.658  20.531  13.980
34571W        W  980   8.433   1.863  13.150
34572W        W  981  31.501   0.369  13.448
34573W        W  982  24.045   3.275  10.762
34574W        W  983  15.736  29.201   4.625
34575W        W  984  19.523   1.757  14.383
34576W        W  985  25.587  14.330   3.092
34577W        W  986  36.554  42.839   1.866
34578W        W  987   9.552  42.804   1.130
34579W        W  988  10.745  40.646   1.251
34580W        W  989  32.003  40.844   1.169
34581W        W  990  14.611   1.684   4.089
34582W        W  991   3.697   8.183   1.144
34583W        W  992   2.997  34.898  14.488
34584W        W  993   7.323  36.609   0.277
34585W        W  994   1.877   5.970  14.486
34586W        W  995  25.734  42.972  11.134
34587W        W  996  20.889   6.437   5.002
34588W        W  997   6.993   4.319   0.826
34589W        W  998  24.665  26.038  10.928
34590W        W  999  13.806  33.161   2.053
34591W        W 1000  23.123   5.972  13.831
34592W        W 1001  18.618   5.672   0.717
34593W        W 1002  29.963  38.311   0.160
34594W        W 1003   1.986   8.086   4.098
34595W        W 1004  43.875  26.456  14.003
34596W        W 1005   5.782   4.692   2.762
34597W        W 1006  39.247  23.492  12.751
34598W        W 1007   0.360  26.975  10.542
34599W        W 1008  29.075   8.662  12.426
34600W        W 1009   4.318   5.321   3.963
34601W        W 1010  22.562  28.696   0.450
34602W        W 1011  22.772  34.296   2.360
34603W        W 1012   6.517  26.092  12.565
34604W        W 1013   1.494  37.111  14.481
34605W        W 1014   1.281  34.916   3.110
34606W        W 1015  17.309  24.416  14.262
34607W        W 1016  14.374   1.340  12.426
34608W        W 1017  32.599  37.681  12.040
34609W        W 1018  30.049  38.444  14.325
34610W        W 1019  43.121  33.543  10.706
34611W        W 1020  24.049  19.097   0.409
34612W        W 1021  33.912  35.502  10.379
34613W        W 1022  20.170  23.218  10.733
34614W        W 1023  34.132  13.814  10.550
34615W        W 1024  25.699  38.041   2.681
34616W        W 1025   5.761  16.852   3.182
34617W        W 1026  26.448   1.379  13.987
34618W        W 1027  25.679   5.893   2.248
34619W        W 1028   8.914   0.011  11.187
34620W        W 1029   4.296  11.752  13.167
34621W        W 1030  28.109  22.282   0.304
34622W        W 1031  31.376  14.627   3.574
34623W        W 1032  23.208  21.138  11.095
34624W        W 1033  28.450  30.041   2.666
34625W        W 1034  18.804   2.979   4.614
34626W        W 1035  10.150  17.130  10.747
34627W        W 1036   4.892   3.308   2.837
34628W        W 1037  16.354  29.060   2.719
34629W        W 1038  25.143  41.775   1.033
34630W        W 1039  17.164  39.908  14.152
34631W        W 1040   3.205  10.066   2.666
34632W        W 1041  25.440  27.566  14.090
34633W        W 1042  38.052   5.208   1.464
34634W        W 1043  29.497  33.077   2.039
34635W        W 1044  20.086  27.401  12.492
34636W        W 1045  36.606   3.522   0.415
34637W        W 1046   1.287  25.004  10.747
34638W        W 1047  20.504  36.966  12.930
34639W        W 1048  27.659  41.526  10.437
34640W        W 1049  14.305  33.507  14.569
34641W        W 1050   2.424  35.848   1.245
34642W        W 1051   4.260  34.614   0.930
34643W        W 1052  35.353  18.154   1.620
34644W        W 1053   2.834  27.536   2.335
34645W        W 1054   5.966   9.592   1.865
34646W        W 1055   1.835   2.735   2.885
34647W        W 1056  44.667  27.047   9.984
34648W        W 1057   7.159   5.393   2.330
34649W        W 1058  13.220  14.660  12.275
34650W        W 1059  39.120   9.149   1.256
34651W        W 1060  19.255  35.376   4.309
34652W        W 1061  18.150  33.744   3.265
34653W        W 1062  34.378  19.651   2.291
34654W        W 1063  20.777   0.573  13.072
34655W        W 1064   8.318   5.347   2.871
34656W        W 1065  25.842  25.448  13.796
34657W        W 1066   0.341  33.668   0.315
34658W        W 1067  33.950   0.765   2.787
34659W        W 1068  42.846   8.706  13.453
34660W        W 1069  41.483   3.773   3.727
34661W        W 1070  10.673  13.699   0.268
34662W        W 1071  31.130   8.384  10.019
34663W        W 1072  25.091  33.315   3.608
34664W        W 1073  24.464  26.291  12.824
34665W        W 1074  41.073   2.520  14.438
34666W        W 1075  20.123  12.129   1.491
34667W        W 1076   0.773   4.911  14.103
34668W        W 1077  30.123   6.778   3.983
34669W        W 1078  33.820  38.544  13.481
34670W        W 1079  33.573  31.939   3.781
34671W        W 1080  32.428  40.290  14.316
34672W        W 1081  21.465  26.733   0.937
34673W        W 1082  25.962   9.367   3.387
34674W        W 1083  19.190  27.478  12.946
34675W        W 1084  31.899  20.245  14.409
34676W        W 1085  15.715  39.590   1.267
34677W        W 1086   6.756  40.537   4.243
34678W        W 1087   9.932   1.140  13.930
34679W        W 1088  43.544   6.876  10.253
34680W        W 1089  17.226  36.657  10.212
34681W        W 1090  43.511  44.216  13.538
34682W        W 1091  16.328  33.158   3.039
34683W        W 1092  44.566   9.308  14.098
34684W        W 1093  23.851  41.559   4.587
34685W        W 1094  31.226  39.714  12.598
34686W        W 1095  20.131  19.576   3.735
34687W        W 1096   3.969   0.705   3.650
34688W        W 1097  29.559   6.846  12.918
34689W        W 1098  21.134  44.334   4.516
34690W        W 1099  11.158   8.442   4.639
34691W        W 1100  20.906  29.912   4.853
34692W        W 1101  37.544  37.812   3.571
34693W        W 1102  16.321  31.170   2.885
34694W        W 1103  10.487   3.490  11.922
34695W        W 1104  22.425   0.835  14.737
34696W        W 1105  38.036  39.413  14.908
34697W        W 1106  40.058  32.822   0.644
34698W        W 1107  11.254   7.853   1.784
34699W        W 1108   9.656   8.204   0.929
34700W        W 1109  32.571  23.742  14.543
34701W        W 1110  44.968   4.187   0.043
34702W        W 1111  33.836   7.308  14.732
34703W        W 1112  35.036  25.021   3.054
34704W        W 1113   5.060   2.452   1.368
34705W        W 1114  44.413  34.319  12.115
34706W        W 1115  31.332  19.816  10.683
34707W        W 1116   7.839  28.946  12.368
34708W        W 1117  27.644  14.152   4.514
34709W        W 1118  38.086  26.541   3.786
34710W        W 1119  38.578  23.047  14.382
34711W        W 1120  23.425  11.157   0.377
34712W        W 1121   2.075  43.287  11.060
34713W        W 1122  41.358  11.813   2.850
34714W        W 1123  20.967  24.095   0.184
34715W        W 1124  11.540  42.243   2.896
34716W        W 1125  22.142  24.162  14.443
34717W        W 1126  39.897   1.803   1.356
34718W        W 1127  20.813  42.893   0.536
34719W        W 1128  23.848  32.860   4.602
34720W        W 1129  34.995  37.357   1.115
34721W        W 1130   1.349  39.994   4.585
34722W        W 1131  44.314  10.780   0.900
34723W        W 1132  39.822  30.349   3.674
34724W        W 1133  43.086  16.604  11.881
34725W        W 1134  32.462   8.930   3.047
34726W        W 1135  23.931   1.779   1.954
34727W        W 1136   2.685  36.927  13.059
34728W        W 1137  13.083  27.971  11.112
34729W        W 1138   5.509   7.748   1.228
34730W        W 1139  17.337  19.528  11.100
34731W        W 1140  24.731  41.267   2.707
34732W        W 1141   5.693  30.394   4.072
34733W        W 1142   0.510  38.097   2.847
34734W        W 1143  19.244   6.275   1.905
34735W        W 1144  42.337  17.030  10.898
34736W        W 1145  31.032  10.268   0.863
34737W        W 1146  14.431  12.881   0.235
34738W        W 1147  19.056  29.939   0.035
34739W        W 1148  32.040  16.724   3.310
34740W        W 1149  11.035  26.087  11.185
34741W        W 1150  43.287  15.507   0.856
34742W        W 1151  43.765  31.056  11.066
34743W        W 1152   4.462   1.740  12.094
34744W        W 1153  40.882  43.702  14.961
34745W        W 1154   0.386  36.041   5.133
34746W        W 1155   7.719  21.544   3.679
34747W        W 1156  30.584  23.511   3.251
34748W        W 1157   6.623   6.390  12.541
34749W        W 1158  20.472  35.642  12.174
34750W        W 1159   1.719  14.210   4.877
34751W        W 1160   9.239  27.233  12.442
34752W        W 1161  30.224  12.078  12.991
34753W        W 1162  32.682  11.635   0.332
34754W        W 1163   9.799   0.793   1.397
34755W        W 1164  42.730  28.618  13.394
34756W        W 1165  26.970  16.810   0.439
34757W        W 1166  11.160  11.216   3.184
34758W        W 1167   3.583  13.280   4.164
34759W        W 1168   9.168   9.813   4.025
34760W        W 1169  44.142  16.181  14.740
34761W        W 1170  37.020  18.057   1.430
34762W        W 1171   0.199  38.881  10.158
34763W        W 1172  14.647  41.039  11.186
34764W        W 1173   7.336  19.065   3.190
34765W        W 1174  29.138   1.871   2.095
34766W        W 1175  17.568   9.561  11.163
34767W        W 1176   8.990  25.034   4.882
34768W        W 1177  12.099   5.305   1.629
34769W        W 1178  38.772  31.540  13.790
34770W        W 1179  19.389   1.221  12.518
34771W        W 1180  23.324  18.732  14.710
34772W        W 1181  39.414  44.361  12.977
34773W        W 1182  35.932  30.455  11.529
34774W        W 1183  19.338  12.350   3.737
34775W        W 1184   9.124  19.962   5.005
34776W        W 1185   5.757   1.841   1.523
34777W        W 1186  28.994   6.272  11.131
34778W        W 1187  11.992  23.939  11.668
34779W        W 1188  19.026   0.330  14.632
34780W        W 1189  37.826  32.835  12.610
34781W        W 1190   3.951  39.586   0.003
34782W        W 1191  32.115  37.008  12.612
34783W        W 1192  10.478  12.185  12.030
34784W        W 1193  16.177   6.795   0.053
34785W        W 1194  43.717  25.631  14.936
34786W        W 1195  43.428   8.141  12.782
34787W        W 1196  40.052  28.386  12.958
34788W        W 1197  38.494  12.085   3.784
34789W        W 1198  11.694  36.243  11.642
34790W        W 1199   6.524  41.120  13.492
34791W        W 1200  29.062   0.208   1.417
34792W        W 1201  37.012  22.105  10.926
34793W        W 1202  31.740  37.909  14.931
34794W        W 1203  17.191  41.027   3.381
34795W        W 1204  26.573  42.527   1.640
34796W        W 1205  43.878  15.662  11.461
34797W        W 1206  42.899  21.422   0.642
34798W        W 1207   2.906  41.321   3.959
34799W        W 1208   6.808  20.878  14.484
34800W        W 1209  42.383  32.454   4.218
34801W        W 1210   0.495  23.045   1.218
34802W        W 1211  24.797  29.564  11.216
34803W        W 1212  12.316  30.139   2.447
34804W        W 1213  20.905  12.443   2.157
34805W        W 1214  40.900   7.381   3.643
34806W        W 1215  19.000  20.510   4.259
34807W        W 1216  34.237  23.669  10.476
34808W        W 1217  39.281  42.421   4.670
34809W        W 1218  41.862   5.363  13.332
34810W        W 1219  11.771  20.255  14.118
34811W        W 1220  39.082  42.440   0.248
34812W        W 1221  17.356  38.996   4.470
34813W        W 1222  19.263  28.571  14.006
34814W        W 1223  39.858  36.741   1.866
34815W        W 1224  13.558  11.447  10.567
34816W        W 1225  35.907  43.560   0.425
34817W        W 1226  41.258  10.210   1.857
34818W        W 1227  26.130  35.892  10.597
34819W        W 1228  39.685  35.115   1.481
34820W        W 1229  18.502  19.988   2.702
34821W        W 1230  26.543  10.868   3.192
34822W        W 1231  20.631  26.047   3.786
34823W        W 1232  25.630  18.968   3.776
34824W        W 1233  43.867  43.945  13.833
34825W        W 1234  19.883  18.706  13.514
34826W        W 1235  20.054  25.220   0.132
34827W        W 1236  42.632  31.607   0.754
34828W        W 1237  15.507  39.755  12.920
34829W        W 1238  31.181   9.900  12.892
34830W        W 1239  24.713  19.729  14.416
34831W        W 1240  24.652  16.486   2.332
34832W        W 1241  30.392   0.880  12.006
34833W        W 1242  20.610  18.120   1.896
34834W        W 1243  29.091  10.476   2.267
34835W        W 1244  38.587  35.840  13.941
34836W        W 1245  12.746  38.112   3.593
34837W        W 1246  28.641  39.902  14.848
34838W        W 1247  22.499   1.899   4.615
34839W        W 1248  14.069  35.510   4.926
34840W        W 1249  41.019  24.161   3.610
34841W        W 1250  24.673  17.304  10.436
34842W        W 1251  17.344  23.454  14.275
34843W        W 1252   1.806  22.707  12.849
34844W        W 1253  14.811  15.681   4.660
34845W        W 1254  37.086  19.461   2.331
34846W        W 1255  33.635  19.321  13.951
34847W        W 1256   6.740  37.821   3.123
34848W        W 1257  33.161  23.158   0.411
34849W        W 1258  30.026  35.910  10.737
34850W        W 1259   9.856  41.568  11.940
34851W        W 1260  38.222   2.736  11.075
34852W        W 1261  44.662  40.919   1.934
34853W        W 1262  38.965  22.283   3.679
34854W        W 1263  44.893   3.878   3.295
34855W        W 1264  29.506  19.236  12.876
34856W        W 1265  15.157  36.313   1.418
34857W        W 1266   7.570  12.759  11.514
34858W        W 1267  33.126  11.256  12.861
34859W        W 1268  25.525  41.692  12.671
34860W        W 1269  43.860  19.164   2.704
34861W        W 1270   0.321   9.777  11.563
34862W        W 1271  30.135  29.193   3.545
34863W        W 1272   4.875  34.083  10.492
34864W        W 1273  44.025  43.581  10.721
34865W        W 1274  16.135  34.339  13.546
34866W        W 1275  36.434  26.699   2.299
34867W        W 1276  38.471  10.282   4.258
34868W        W 1277  37.997  29.704   1.917
34869W        W 1278  39.799   6.658   4.769
34870W        W 1279  10.895  30.972   5.015
34871W        W 1280  27.156  13.908  12.471
34872W        W 1281   0.051  24.583  12.032
34873W        W 1282  40.105  36.412   3.389
34874W        W 1283  17.196  11.809   2.362
34875W        W 1284  18.120   3.673  11.112
34876W        W 1285   5.936   1.956   1.035
34877W        W 1286  33.189  41.867   1.301
34878W        W 1287  27.839   3.328  11.068
34879W        W 1288  42.048  29.119  13.801
34880W        W 1289  18.019  35.526   0.433
34881W        W 1290  23.154   8.660  13.422
34882W        W 1291  35.744  34.026  14.926
34883W        W 1292   8.463  44.002  14.789
34884W        W 1293  13.702  14.613   1.228
34885W        W 1294  21.685  11.552   2.769
34886W        W 1295  33.067  35.471   3.145
34887W        W 1296   0.490  34.496  14.972
34888W        W 1297  23.189  44.550   2.899
34889W        W 1298  32.184  20.008  11.463
34890W        W 1299  44.492  43.291   3.720
34891W        W 1300  20.189  37.833   0.285
34892W        W 1301   3.239  21.579   2.234
34893W        W 1302  34.154   9.467   4.154
34894W        W 1303  18.720   5.358   1.151
34895W        W 1304  24.951  36.305   0.555
34896W        W 1305  28.642  37.952   0.330
34897W        W 1306  29.003   2.817   5.045
34898W        W 1307  29.890  23.710  14.881
34899W        W 1308  42.954  19.161   0.898
34900W        W 1309  20.027  34.004  11.148
34901W        W 1310  23.582  26.856   2.822
34902W        W 1311  31.039   3.714  11.214
34903W        W 1312  21.809   0.937   0.268
34904W        W 1313  16.117   1.773   4.529
34905W        W 1314   0.305  16.348   0.986
34906W        W 1315  27.046   3.859  10.707
34907W        W 1316  44.981   3.464   4.834
34908W        W 1317  43.832   2.839   4.650
34909W        W 1318  22.226   8.612   4.077
34910W        W 1319  10.097   8.371   1.855
34911W        W 1320   2.746  11.425   2.382
34912W        W 1321  17.780   3.384   0.734
34913W        W 1322  12.182  12.808  10.665
34914W        W 1323  42.007  42.459  14.471
34915W        W 1324   4.738   1.302  12.131
34916W        W 1325  41.870   1.687  12.003
34917W        W 1326   3.715  23.176   2.360
34918W        W 1327  15.729  12.695  14.394
34919W        W 1328  39.203  18.331  11.538
34920W        W 1329  24.660  44.034  14.025
34921W        W 1330   9.880  40.002   3.473
34922W        W 1331   4.774  29.732  12.475
34923W        W 1332  21.735  32.922  13.466
34924W        W 1333  28.124   9.201   9.668
34925W        W 1334   0.429   0.456  12.490
34926W        W 1335  22.397  11.596  12.060
34927W        W 1336  41.288  35.614   4.490
34928W        W 1337  22.412   6.287   4.030
34929W        W 1338   4.308  10.325   1.311
34930W        W 1339  21.707  25.104   1.515
34931W        W 1340  31.576  25.106   1.419
34932W        W 1341  41.579   2.002  11.562
34933W        W 1342   3.439   5.641  12.864
34934W        W 1343  29.523  43.876   4.119
34935W        W 1344   0.447  13.503   0.772
34936W        W 1345  20.956  18.327   4.170
34937W        W 1346   1.721   7.467   0.429
34938W        W 1347  37.870   0.802   3.873
34939W        W 1348  17.144  19.344  14.854
34940W        W 1349  10.900  13.848  12.550
34941W        W 1350  23.810  16.011   2.286
34942W        W 1351  44.401  40.844  10.712
34943W        W 1352   1.792  10.882  12.988
34944W        W 1353  14.114   0.895  13.123
34945W        W 1354  11.715  42.999   3.839
34946W        W 1355  41.836   0.486   3.166
34947W        W 1356  21.573   3.911   2.372
34948W        W 1357   8.764  42.044  13.625
34949W        W 1358  15.644   2.345  13.011
34950W        W 1359  24.641   7.145  14.581
34951W        W 1360  43.473   0.951   4.836
34952W        W 1361  34.136  36.846  10.659
34953W        W 1362  15.537   1.382  11.533
34954W        W 1363  37.979   6.156  11.224
34955W        W 1364  41.285  10.640  12.066
34956W        W 1365  24.725  22.467  11.708
34957W        W 1366  43.431  39.559  11.490
34958W        W 1367  26.599  16.593  10.467
34959W        W 1368  17.663   3.715   0.357
34960W        W 1369  26.426  35.056   3.773
34961W        W 1370  12.696   6.824  12.866
34962W        W 1371  38.592  35.621  11.511
34963W        W 1372   6.513  13.850  10.679
34964W        W 1373  38.855  34.860  14.863
34965W        W 1374  38.673   3.542   3.132
34966W        W 1375  13.817  34.450  14.889
34967W        W 1376  30.099   1.385   0.852
34968W        W 1377  15.242  32.442   4.817
34969W        W 1378  40.749  14.679  12.813
34970W        W 1379   5.443  23.196  11.638
34971W        W 1380  44.691  12.211   0.322
34972W        W 1381  21.257  33.109   0.495
34973W        W 1382   4.496  17.199   2.257
34974W        W 1383  38.948  38.234  10.269
34975W        W 1384  27.635  21.265   1.813
34976W        W 1385  36.960   8.174   3.185
34977W        W 1386  25.474  44.272   0.793
34978W        W 1387  20.289  12.742   0.046
34979W        W 1388  29.019   2.232   3.557
34980W        W 1389  22.812  16.651   3.248
34981W        W 1390  34.948  38.026  14.374
34982W        W 1391  15.479   4.035  11.279
34983W        W 1392  22.903  37.646   2.034
34984W        W 1393  42.400  16.347  13.282
34985W        W 1394  24.214  28.988  12.131
34986W        W 1395   2.820  19.521   2.809
34987W        W 1396   8.655  25.769   4.542
34988W        W 1397  37.198  21.647   1.914
34989W        W 1398  18.755  28.970  11.626
34990W        W 1399   5.963  14.530   3.676
34991W        W 1400  10.431  37.331  14.223
34992W        W 1401   5.190  38.876   0.840
34993W        W 1402  37.057  30.317   1.643
34994W        W 1403  40.436  12.632  14.455
34995W        W 1404  10.189  20.007   0.983
34996W        W 1405   8.677   3.972  13.539
34997W        W 1406  16.287  42.480  12.623
34998W        W 1407  41.670  43.063   4.958
34999W        W 1408  41.537  24.594  11.767
35000W        W 1409   6.959   5.432   1.240
35001W        W 1410  28.941  18.902   3.678
35002W        W 1411  36.636   4.265  11.661
35003W        W 1412  33.657  13.755   3.773
35004W        W 1413  27.683  33.024  12.929
35005W        W 1414  21.427  44.849  13.940
35006W        W 1415  10.149  12.172   3.898
35007W        W 1416  40.898   1.939  12.143
35008W        W 1417  42.998   7.816   2.394
35009W        W 1418  12.428  15.431  10.432
35010W        W 1419  30.216   6.566  12.389
35011W        W 1420   3.193  25.276   1.271
35012W        W 1421   1.208  35.799   3.121
35013W        W 1422  10.445  10.241   0.343
35014W        W 1423  27.764  17.584   2.323
35015W        W 1424  16.319  44.147  13.785
35016W        W 1425  22.580  16.928   0.437
35017W        W 1426   3.743  10.896  11.999
35018W        W 1427  35.543  26.187   1.406
35019W        W 1428  23.543   1.518  14.961
35020W        W 1429  17.821  19.365  10.868
35021W        W 1430   1.469  11.430   3.656
35022W        W 1431  42.038  24.938   3.615
35023W        W 1432   1.238  21.081  12.587
35024W        W 1433  13.090  21.814   4.809
35025W        W 1434   3.889  28.179  13.506
35026W        W 1435  13.131  38.560  13.283
35027W        W 1436  30.086   2.960   4.555
35028W        W 1437  11.302  13.894   4.143
35029W        W 1438  21.304  22.640  14.348
35030W        W 1439  27.503  29.813   2.163
35031W        W 1440  22.967  44.450   2.206
35032W        W 1441  44.075  24.361  10.687
35033W        W 1442  39.459  29.548   0.897
35034W        W 1443  35.449  19.783   4.677
35035W        W 1444  38.256   5.878   1.016
35036W        W 1445  10.296  31.935  10.287
35037W        W 1446  43.279  11.587  12.463
35038W        W 1447  32.661  32.494  13.777
35039W        W 1448  42.318  27.673  11.147
35040W        W 1449  43.675   4.401   1.875
35041W        W 1450  39.022  28.586  12.388
35042W        W 1451  12.155   2.934   2.313
35043W        W 1452  11.573  31.548   1.796
35044W        W 1453  12.131  22.958  13.458
35045W        W 1454  44.057  12.307  14.469
35046W        W 1455  35.181  13.184  14.107
35047W        W 1456  44.078  10.407  14.857
35048W        W 1457  11.933  23.373  10.202
35049W        W 1458  25.531  36.521   4.281
35050W        W 1459   3.403  24.636  12.828
35051W        W 1460  39.211  30.386  14.265
35052W        W 1461  10.006  44.654   4.937
35053W        W 1462   0.707   8.728  12.925
35054W        W 1463   5.920   4.291   3.721
35055W        W 1464  22.245  23.471  11.490
35056W        W 1465  20.481  28.583   3.689
35057W        W 1466   1.305  19.024   4.212
35058W        W 1467  27.178  31.481   4.162
35059W        W 1468   5.840  32.015   0.091
35060W        W 1469  36.470  27.159  12.449
35061W        W 1470  30.880  11.107  12.298
35062W        W 1471  28.930   3.277   1.287
35063W        W 1472  13.766   6.652   3.521
35064W        W 1473   3.242  13.243   4.541
35065W        W 1474   9.558  39.437   4.601
35066W        W 1475  36.775   7.844  13.053
35067W        W 1476  18.240  38.836   5.078
35068W        W 1477  23.204  13.173  12.941
35069W        W 1478  14.723   4.610  14.408
35070W        W 1479  37.330  32.313   3.309
35071W        W 1480   7.887  43.831   3.101
35072W        W 1481  19.155   6.978   4.415
35073W        W 1482  21.587  22.679   1.743
35074W        W 1483  27.929  19.078  14.742
35075W        W 1484  37.647  25.087   1.109
35076W        W 1485  18.091  15.829  14.289
35077W        W 1486   0.114   0.794   2.107
35078W        W 1487  29.858   5.161  10.713
35079W        W 1488   5.319   9.351   3.637
35080W        W 1489  41.051  31.199   2.831
35081W        W 1490  13.464  14.318  14.952
35082W        W 1491   3.799  29.535   2.409
35083W        W 1492  27.669  15.993  14.973
35084W        W 1493  31.486  33.010  11.940
35085W        W 1494  22.063  44.654  12.466
35086W        W 1495  21.311  35.615  14.470
35087W        W 1496  34.056  12.106  10.900
35088W        W 1497   0.286  40.404  14.504
35089W        W 1498  42.152  12.039   0.783
35090W        W 1499  42.414  11.189   3.581
35091W        W 1500  12.986  29.613  11.264
35092W        W 1501  36.118  28.178  11.660
35093W        W 1502  18.102  22.719   4.623
35094W        W 1503  15.787   7.981  12.086
35095W        W 1504   9.181  27.189  13.283
35096W        W 1505   8.676  36.931  13.941
35097W        W 1506   5.678  31.984   3.001
35098W        W 1507   0.206  36.355   1.384
35099W        W 1508  14.883  19.041   4.068
35100W        W 1509  19.996   9.203   2.696
35101W        W 1510  18.211  24.349  10.475
35102W        W 1511  20.988  25.937   0.998
35103W        W 1512  32.103   2.841  12.348
35104W        W 1513   7.897  12.351   1.334
35105W        W 1514   8.394  44.210   3.767
35106W        W 1515   7.307  31.042  12.533
35107W        W 1516  22.802   4.987   3.609
35108W        W 1517   0.884  19.960  14.860
35109W        W 1518  28.027  29.964  10.755
35110W        W 1519  28.496  10.756   1.116
35111W        W 1520   8.969  11.643  11.053
35112W        W 1521  28.752  19.673   4.410
35113W        W 1522  44.286  15.838   0.870
35114W        W 1523  29.539  40.828  13.893
35115W        W 1524  26.513  35.453  14.434
35116W        W 1525  28.952   5.071   0.813
35117W        W 1526  29.919  43.729  13.645
35118W        W 1527  26.661  35.969   3.169
35119W        W 1528  28.081  29.675  13.966
35120W        W 1529  21.160  15.206  11.914
35121W        W 1530  34.938   9.043  12.088
35122W        W 1531   3.335  38.594   4.530
35123W        W 1532   6.407  29.910   0.484
35124W        W 1533  19.200   6.605  13.423
35125W        W 1534  29.017   0.892   4.607
35126W        W 1535   8.680   9.754  14.252
35127W        W 1536  15.555  35.883  12.186
35128W        W 1537   7.009  28.469   3.667
35129W        W 1538  25.652  37.780  13.440
35130W        W 1539  23.576  19.545  14.780
35131W        W 1540  36.083  26.240  12.472
35132W        W 1541  43.345  18.455  10.683
35133W        W 1542  33.080   5.636   3.240
35134W        W 1543   4.744  14.436   4.456
35135W        W 1544   5.717  17.056   0.323
35136W        W 1545   5.372  44.950  12.407
35137W        W 1546  13.571  20.247   0.341
35138W        W 1547  44.774  18.565  14.906
35139W        W 1548  21.668   0.203  12.083
35140W        W 1549  19.956  40.819   2.330
35141W        W 1550  39.504  22.518  13.905
35142W        W 1551  42.590  35.035   1.323
35143W        W 1552   5.548   7.856   3.616
35144W        W 1553  19.533  15.182   4.608
35145W        W 1554  39.024  16.373  11.526
35146W        W 1555  26.037  12.118   1.355
35147W        W 1556  20.714   8.850  10.400
35148W        W 1557  31.997  35.500   0.549
35149W        W 1558  16.552  18.934  12.018
35150W        W 1559  14.160  18.901   4.749
35151W        W 1560  35.798  32.514   2.217
35152W        W 1561  42.434  28.545   1.520
35153W        W 1562  18.554  19.516   2.508
35154W        W 1563   0.734  29.855   5.260
35155W        W 1564  22.370   9.019   2.787
35156W        W 1565  20.273  25.039  11.210
35157W        W 1566  43.492  39.972   3.636
35158W        W 1567  32.079  38.797   1.465
35159W        W 1568  43.534  44.462  11.716
35160W        W 1569  42.365  44.183   2.370
35161W        W 1570  22.959  21.696  14.782
35162W        W 1571  28.168  36.518   2.333
35163W        W 1572   9.134  28.375  10.531
35164W        W 1573   1.223  21.252  10.229
35165W        W 1574  20.730  37.522   4.779
35166W        W 1575  39.298  24.269   0.759
35167W        W 1576  44.345  19.136  10.903
35168W        W 1577  35.543  13.098  14.459
35169W        W 1578  37.696  40.025   4.274
35170W        W 1579  18.540  25.467  13.460
35171W        W 1580   7.859  31.426   2.773
35172W        W 1581  33.404   7.810  10.385
35173W        W 1582  33.815  35.142  12.076
35174W        W 1583   4.685  42.789   4.635
35175W        W 1584  10.461   8.291   0.520
35176W        W 1585  24.522  34.988   2.877
35177W        W 1586  14.677  24.699   0.290
35178W        W 1587  28.543  44.366  11.291
35179W        W 1588   3.335  27.171   3.101
35180W        W 1589  22.652   0.696  11.150
35181W        W 1590   1.102  29.721   0.527
35182W        W 1591  10.786  40.927  13.585
35183W        W 1592  14.342  36.520   2.765
35184W        W 1593  24.581  34.588  12.502
35185W        W 1594   0.852   9.733  11.675
35186W        W 1595   4.413  10.881  11.396
35187W        W 1596  31.446   0.286   5.154
35188W        W 1597  31.039  17.090  12.917
35189W        W 1598  33.234  22.090   4.599
35190W        W 1599  33.425  33.846  11.203
35191W        W 1600  41.802  13.442  10.552
35192W        W 1601  10.247  32.362   4.647
35193W        W 1602  20.771  24.791  14.198
35194W        W 1603  15.391  23.032   0.897
35195W        W 1604  38.770  10.351  12.966
35196W        W 1605  41.946   7.400   2.672
35197W        W 1606   7.288  27.889   4.718
35198W        W 1607  42.904  37.927   5.053
35199W        W 1608  27.453  13.812   1.757
35200W        W 1609   1.737  40.990   3.132
35201W        W 1610   7.894   4.924  13.492
35202W        W 1611  15.479  27.208   1.248
35203W        W 1612  33.036   4.293   3.104
35204W        W 1613  22.417  21.608   2.502
35205W        W 1614  35.599  42.814  12.109
35206W        W 1615  28.959  40.330   3.723
35207W        W 1616  17.212   6.727  11.866
35208W        W 1617  38.397  14.760   3.700
35209W        W 1618  44.878  16.713   4.613
35210W        W 1619   5.841  17.710  11.441
35211W        W 1620  17.018  22.530   9.872
35212W        W 1621  35.539  38.178   1.065
35213W        W 1622   4.915  44.229  12.608
35214W        W 1623  11.578  19.519   1.883
35215W        W 1624  20.505  36.870   3.674
35216W        W 1625  29.364   5.816  11.961
35217W        W 1626   2.735  26.885  12.946
35218W        W 1627  15.698  25.323  10.739
35219W        W 1628  32.442  23.479   2.579
35220W        W 1629  41.601  15.631   0.316
35221W        W 1630  25.143   0.168  13.541
35222W        W 1631   9.643  22.093  10.975
35223W        W 1632  13.821  20.908   2.686
35224W        W 1633   5.896  12.685  11.101
35225W        W 1634  13.146  38.862   3.185
35226W        W 1635  40.818  36.106   0.906
35227W        W 1636  12.189  31.563   4.244
35228W        W 1637  16.185   4.280  13.993
35229W        W 1638  16.543  24.054   3.814
35230W        W 1639   8.809  11.750   2.060
35231W        W 1640  29.976  15.709  13.488
35232W        W 1641   9.294  30.670  11.229
35233W        W 1642  26.774   9.888   3.807
35234W        W 1643  40.455  29.157  11.221
35235W        W 1644  43.294  35.357  11.571
35236W        W 1645  10.555  37.064   4.458
35237W        W 1646  28.157  31.900   3.693
35238W        W 1647  23.626  13.397  12.758
35239W        W 1648   8.392  18.237   4.274
35240W        W 1649  26.753   9.992  11.136
35241W        W 1650  24.855  41.854   0.615
35242W        W 1651  28.663  11.578  14.196
35243W        W 1652  28.193   2.697   1.491
35244W        W 1653  24.666   6.768   1.966
35245W        W 1654  14.382   7.733  14.951
35246W        W 1655  12.277  29.194   4.656
35247W        W 1656  41.701  34.818  11.602
35248W        W 1657  16.311  44.854   2.394
35249W        W 1658   9.636  23.533   0.357
35250W        W 1659  37.576  16.079  13.046
35251W        W 1660   7.055  37.407   1.031
35252W        W 1661   3.200  30.975  11.579
35253W        W 1662  41.488  33.395  14.387
35254W        W 1663  38.838  23.990  11.185
35255W        W 1664   3.319  25.192  11.963
35256W        W 1665   1.247  25.825  11.190
35257W        W 1666   8.661  44.883  12.616
35258W        W 1667  41.456   2.050  13.934
35259W        W 1668  17.186   0.434  10.941
35260W        W 1669  12.652  26.981  11.574
35261W        W 1670  41.988   2.881   2.820
35262W        W 1671   3.412  35.556  13.451
35263W        W 1672   1.287  15.352  14.879
35264W        W 1673  28.615  36.903  12.401
35265W        W 1674  30.213  17.063  13.154
35266W        W 1675   7.883  17.006  12.047
35267W        W 1676  10.373  38.483   0.466
35268W        W 1677   2.512  29.838  10.969
35269W        W 1678  17.230  21.733   2.375
35270W        W 1679  17.460  40.498  11.452
35271W        W 1680  37.001  10.687   3.262
35272W        W 1681  13.817  20.302  10.251
35273W        W 1682   9.024  25.822  12.554
35274W        W 1683  28.066  14.995   3.722
35275W        W 1684   0.773   6.226  13.067
35276W        W 1685  16.793  32.337  11.301
35277W        W 1686  13.218  27.209   3.726
35278W        W 1687  39.367   6.004   3.141
35279W        W 1688  42.333  34.776   2.981
35280W        W 1689   6.462  29.598   3.632
35281W        W 1690  31.967  25.065  11.376
35282W        W 1691  18.816   7.503   3.247
35283W        W 1692   5.909  13.290   0.141
35284W        W 1693   4.274  16.878  10.720
35285W        W 1694  21.887  29.601  12.927
35286W        W 1695   0.450  22.548   4.922
35287W        W 1696  35.497  15.140  12.147
35288W        W 1697  36.906  22.955  12.939
35289W        W 1698  35.529  23.543  10.939
35290W        W 1699  34.952  42.426   1.904
35291W        W 1700   2.856   7.251  14.039
35292W        W 1701   4.414  32.341   1.715
35293W        W 1702  41.172  21.676   2.824
35294W        W 1703  24.063  26.826  12.613
35295W        W 1704  39.853   9.664  10.519
35296W        W 1705  41.433  27.605   2.146
35297W        W 1706   8.636  35.872   0.369
35298W        W 1707  33.973   5.715  11.575
35299W        W 1708  13.349  15.224  13.027
35300W        W 1709  19.545   1.941   0.899
35301W        W 1710  34.381  20.642  10.786
35302W        W 1711  32.649  23.108  13.931
35303W        W 1712  18.693   3.390  12.098
35304W        W 1713  40.214  32.992  13.699
35305W        W 1714  30.722   4.153   3.309
35306W        W 1715   7.725   1.797   3.301
35307W        W 1716  13.942  31.125   4.236
35308W        W 1717  17.098  42.406  13.058
35309W        W 1718  30.586  16.844  12.792
35310W        W 1719  29.420  33.354   1.290
35311W        W 1720   9.759  24.178   3.573
35312W        W 1721  29.970   4.762  13.491
35313W        W 1722   0.997   4.020  10.749
35314W        W 1723  38.805  21.991  11.524
35315W        W 1724  28.507  15.691  12.490
35316W        W 1725  27.688  23.599   1.204
35317W        W 1726  30.624  19.080  13.819
35318W        W 1727  10.801  16.158   3.726
35319W        W 1728   3.984  19.684   2.778
35320W        W 1729  43.367  21.517   2.757
35321W        W 1730  43.033  39.226   2.892
35322W        W 1731  29.478  28.261  13.872
35323W        W 1732  20.286   0.778  11.643
35324W        W 1733   6.148  23.167  10.276
35325W        W 1734  11.601   6.414   3.760
35326W        W 1735   3.550   2.130   1.471
35327W        W 1736  27.096  30.881  13.950
35328W        W 1737  13.115  17.564  11.218
35329W        W 1738  36.778   6.379  12.870
35330W        W 1739   8.877  15.872  11.066
35331W        W 1740  38.316  30.292   4.431
35332W        W 1741  13.114   6.725   3.240
35333W        W 1742   2.954  16.012   2.293
35334W        W 1743  40.396  26.949  14.270
35335W        W 1744  33.416  44.520   3.293
35336W        W 1745  15.104   7.939  12.440
35337W        W 1746  36.002  19.773   2.417
35338W        W 1747   6.915  11.797   0.012
35339W        W 1748  39.052  22.137  10.954
35340W        W 1749  28.480  33.096   1.280
35341W        W 1750  43.891  26.910   1.863
35342W        W 1751  23.103  31.965  12.169
35343W        W 1752  22.080   9.103   4.717
35344W        W 1753  24.156  24.085  14.549
35345W        W 1754  11.119   6.937  12.156
35346W        W 1755   5.344  22.641  14.202
35347W        W 1756   3.714  11.686  12.452
35348W        W 1757  18.244   9.085   1.503
35349W        W 1758  19.923  27.446   3.884
35350W        W 1759  37.443  39.030   4.379
35351W        W 1760  25.012  22.292  13.913
35352W        W 1761  12.124   6.180   1.361
35353W        W 1762  11.952  21.545  14.458
35354W        W 1763  25.565  44.498   3.680
35355W        W 1764   2.827  44.355   0.041
35356W        W 1765  37.009  28.727   4.560
35357W        W 1766  38.595  25.160  13.423
35358W        W 1767   1.776  38.951   4.828
35359W        W 1768  30.399  10.742  14.775
35360W        W 1769  27.176  21.438  14.804
35361W        W 1770  10.933   1.965   1.633
35362W        W 1771   9.787   0.797  12.117
35363W        W 1772  21.301  23.643  12.502
35364W        W 1773   5.410  40.643  11.943
35365W        W 1774   0.315  32.205   0.345
35366W        W 1775  18.713  39.344   4.509
35367W        W 1776  19.203  14.922   1.277
35368W        W 1777  40.596   6.256   2.453
35369W        W 1778   8.711  16.775   3.074
35370W        W 1779  10.272  19.728  13.345
35371W        W 1780  42.449  34.539   4.860
35372W        W 1781  12.016  15.701  10.250
35373W        W 1782   0.785  44.569   2.427
35374W        W 1783   0.825   7.002  12.483
35375W        W 1784  25.518  16.311   0.031
35376W        W 1785  21.642  16.174   1.172
35377W        W 1786  16.422  16.200   4.102
35378W        W 1787  43.479   8.710   3.438
35379W        W 1788   3.964  16.760  12.586
35380W        W 1789  43.028  20.759  14.981
35381W        W 1790  30.841  12.496   3.660
35382W        W 1791  23.161  29.149  14.001
35383W        W 1792   5.151  42.337  14.331
35384W        W 1793   5.442  13.131  14.238
35385W        W 1794  34.438  21.132   3.989
35386W        W 1795  20.540  17.100   0.923
35387W        W 1796  44.052   2.314  12.660
35388W        W 1797   6.250  26.902   0.735
35389W        W 1798  24.748  37.016   3.300
35390W        W 1799  41.968  37.423   1.156
35391W        W 1800  37.096  23.808   4.490
35392W        W 1801  16.832   0.785  14.918
35393W        W 1802  19.469  18.473  11.339
35394W        W 1803  27.765  30.072  11.191
35395W        W 1804  33.514  10.881   0.687
35396W        W 1805  40.170  21.766   4.979
35397W        W 1806  33.413  28.159  13.539
35398W        W 1807  44.755  20.442   2.662
35399W        W 1808  44.290  42.305  12.031
35400W        W 1809  11.097  26.132   3.712
35401W        W 1810   2.506  25.789  13.276
35402W        W 1811  40.625  28.643   4.734
35403W        W 1812  10.820  21.176   1.250
35404W        W 1813  22.518  16.574  14.555
35405W        W 1814  31.493  14.156   3.360
35406W        W 1815  23.151  24.154  11.709
35407W        W 1816  27.070  23.991   3.143
35408W        W 1817  28.171   7.606  11.439
35409W        W 1818   5.852  39.176   2.785
35410W        W 1819  22.576   2.355   2.294
35411W        W 1820  43.058   4.509   0.762
35412W        W 1821  43.503  44.237  12.167
35413W        W 1822  15.860  21.564   2.249
35414W        W 1823  37.029   1.703  10.966
35415W        W 1824  34.531  38.361  14.483
35416W        W 1825  39.468  28.537   0.779
35417W        W 1826   8.705   0.787  10.819
35418W        W 1827  27.654  21.821  12.645
35419W        W 1828  41.565  37.773  11.348
35420W        W 1829   1.007  44.007  11.629
35421W        W 1830  30.308  21.609   1.752
35422W        W 1831  31.921  18.251   0.811
35423W        W 1832  24.258   8.924   2.222
35424W        W 1833   4.410  22.033  12.566
35425W        W 1834  30.387  15.266  10.728
35426W        W 1835  10.979  29.918  11.112
35427W        W 1836  30.701  17.014  13.290
35428W        W 1837  29.577  18.291  10.418
35429W        W 1838  21.669  21.012  14.961
35430W        W 1839  10.565  40.416  14.307
35431W        W 1840  31.151   2.330  10.286
35432W        W 1841  21.364   8.463   2.145
35433W        W 1842  42.226   1.860   2.329
35434W        W 1843  24.039  10.981  12.431
35435W        W 1844   4.703  42.513  13.395
35436W        W 1845   2.882  41.724   2.751
35437W        W 1846  16.367  40.055  12.971
35438W        W 1847   3.207  44.562  13.770
35439W        W 1848  38.783  26.378  12.381
35440W        W 1849  37.688   5.168   0.255
35441W        W 1850  21.257  15.107  10.546
35442W        W 1851  31.067  26.105  10.714
35443W        W 1852  10.845   8.761   2.739
35444W        W 1853   0.862  38.888  13.067
35445W        W 1854  22.965  12.626   2.217
35446W        W 1855   1.932  27.932  13.404
35447W        W 1856  43.276   5.660  11.987
35448W        W 1857  37.497  20.641  12.976
35449W        W 1858  17.223  22.295   1.724
35450W        W 1859  18.167  10.778   3.929
35451W        W 1860  22.747   6.280   3.626
35452W        W 1861   8.146   7.296   4.166
35453W        W 1862  18.705  30.593   4.694
35454W        W 1863  18.131  30.086  10.896
35455W        W 1864  28.163  37.669   2.666
35456W        W 1865   1.471   6.903  12.965
35457W        W 1866  39.965  15.729   2.784
35458W        W 1867  10.706  40.814  10.312
35459W        W 1868   2.753  29.385   0.319
35460W        W 1869  10.186   2.368   4.003
35461W        W 1870  44.730  41.502  11.359
35462W        W 1871   0.977  32.147  13.044
35463W        W 1872  19.742  12.088  14.450
35464W        W 1873  24.661  17.682  12.690
35465W        W 1874   5.383  27.330  12.413
35466W        W 1875  19.322  36.543  12.022
35467W        W 1876  27.643  10.016   5.232
35468W        W 1877  27.578   2.934   3.104
35469W        W 1878  25.259  12.791   4.537
35470W        W 1879   9.549  14.424   1.862
35471W        W 1880  36.655  35.317   4.064
35472W        W 1881  26.304  19.795  11.162
35473W        W 1882  29.370  36.239   0.402
35474W        W 1883  34.120  31.582   5.045
35475W        W 1884  12.182   1.479   1.155
35476W        W 1885  22.342  32.634  12.000
35477W        W 1886  23.050   8.222   0.313
35478W        W 1887   1.936  12.656   1.735
35479W        W 1888  38.914  23.617   0.582
35480W        W 1889  23.762  34.980  10.817
35481W        W 1890   2.922   3.642   1.144
35482W        W 1891  39.420  37.043  11.523
35483W        W 1892  39.049  29.145  14.115
35484W        W 1893  18.771  27.213   4.756
35485W        W 1894   3.394  22.241  14.482
35486W        W 1895  37.311  17.426  11.597
35487W        W 1896  27.745   6.652  10.641
35488W        W 1897   0.342  22.174   4.559
35489W        W 1898  15.520  25.447  13.836
35490W        W 1899  14.869  28.845  12.920
35491W        W 1900  33.418  33.635   0.754
35492W        W 1901  36.914  25.368   3.785
35493W        W 1902  30.049  17.240   1.524
35494W        W 1903   1.952  18.169  11.460
35495W        W 1904   2.494   7.439  11.235
35496W        W 1905   7.107  14.849   4.180
35497W        W 1906  15.348  38.729   5.032
35498W        W 1907  13.148   6.682  11.576
35499W        W 1908  37.946  37.311  12.681
35500W        W 1909  36.554  36.129   1.746
35501W        W 1910  16.956  14.144   0.250
35502W        W 1911  38.810  11.322  13.899
35503W        W 1912  14.482  29.066   4.171
35504W        W 1913  36.667  22.247  13.108
35505W        W 1914  34.174   9.801   2.419
35506W        W 1915   4.694  25.470   2.793
35507W        W 1916  41.413   4.396   0.419
35508W        W 1917  20.432  10.045  11.134
35509W        W 1918   1.232  32.076   0.270
35510W        W 1919   4.662   5.382   0.895
35511W        W 1920   0.282  44.178  11.437
35512W        W 1921  11.372   9.668  13.025
35513W        W 1922   3.737  13.393  13.891
35514W        W 1923  21.133  28.145  13.790
35515W        W 1924  42.731   7.289  10.293
35516W        W 1925  27.207  22.924   4.074
35517W        W 1926   6.383  30.891  14.340
35518W        W 1927   8.277  36.117  13.901
35519W        W 1928  26.306  18.835   0.880
35520W        W 1929  25.923  28.393   3.267
35521W        W 1930  24.336  39.851  12.894
35522W        W 1931  23.489  14.542  11.177
35523W        W 1932  39.426  35.457   2.610
35524W        W 1933  19.344  23.671   3.112
35525W        W 1934  23.993  16.604   0.524
35526W        W 1935  44.983  27.915   2.771
35527W        W 1936  29.672  23.742  11.525
35528W        W 1937   5.376   6.946   1.805
35529W        W 1938  16.284  43.653   1.884
35530W        W 1939  44.046  36.756  11.609
35531W        W 1940   1.315  22.322  13.987
35532W        W 1941   1.772  11.086   1.867
35533W        W 1942   9.086  43.366   1.718
35534W        W 1943  15.285   1.409   2.571
35535W        W 1944  34.000  16.179   1.203
35536W        W 1945   9.231   2.811   2.417
35537W        W 1946  15.843  12.108   2.771
35538W        W 1947  12.447  23.513   1.865
35539W        W 1948  41.332  19.767   2.278
35540W        W 1949  26.263  11.650   1.220
35541W        W 1950  44.434  24.686   0.454
35542W        W 1951  13.339   2.377  11.579
35543W        W 1952  12.363  28.039   0.484
35544W        W 1953  19.224  41.233  12.091
35545W        W 1954  25.584   3.317  11.110
35546W        W 1955  37.987  16.358   0.192
35547W        W 1956   2.494  10.091  10.757
35548W        W 1957  15.638   5.887  10.627
35549W        W 1958  10.259  44.743  14.312
35550W        W 1959  41.069  17.272   4.076
35551W        W 1960  32.366  12.906   0.020
35552W        W 1961  22.758  13.089   1.801
35553W        W 1962  21.602  15.456   9.841
35554W        W 1963  37.719   9.612   4.137
35555W        W 1964   4.291  22.293  14.377
35556W        W 1965  30.043  31.015  12.526
35557W        W 1966   1.790  18.789   0.291
35558W        W 1967  42.369   7.171   2.833
35559W        W 1968  39.862  34.440  14.298
35560W        W 1969  44.706   7.008   0.219
35561W        W 1970  42.566  26.070  14.878
35562W        W 1971  26.002   9.347   2.870
35563W        W 1972  13.423  25.662   2.956
35564W        W 1973  36.429  10.354   3.770
35565W        W 1974  36.800  18.626  13.727
35566W        W 1975  44.802  10.144   2.129
35567W        W 1976  43.881  39.854  12.577
35568W        W 1977  37.100   9.148  12.531
35569W        W 1978  23.146  28.680  11.718
35570W        W 1979  32.080  15.388   2.652
35571W        W 1980  15.636  39.388  12.125
35572W        W 1981  25.476  24.277   4.166
35573W        W 1982  30.976  11.172   2.981
35574W        W 1983  22.077  29.500   0.861
35575W        W 1984  31.910   3.829  14.254
35576W        W 1985  10.558  38.918  11.540
35577W        W 1986  27.561  22.349  12.705
35578W        W 1987   2.774  33.093   0.944
35579W        W 1988  25.179  41.598  13.052
35580W        W 1989   3.361  43.984  11.553
35581W        W 1990  12.091  41.527  12.401
35582W        W 1991  24.058  15.582   2.107
35583W        W 1992  23.141  36.625  13.956
35584W        W 1993   5.264  43.383   0.254
35585W        W 1994  28.069   1.456   0.853
35586W        W 1995  32.591  22.774  14.326
35587W        W 1996  22.009  40.620  12.258
35588W        W 1997   5.318  31.626  10.665
35589W        W 1998  19.824  28.706  13.968
35590W        W 1999   6.376   2.744   2.668
35591W        W 2000  29.936  44.530  14.438
35592W        W 2001  32.382  35.916  14.381
35593W        W 2002  31.691  34.341  14.746
35594W        W 2003  21.492  33.814  14.729
35595W        W 2004  21.308  29.495   1.269
35596W        W 2005  14.616   6.749   0.787
35597W        W 2006   6.008  15.728  12.807
35598W        W 2007  32.469  14.880   1.906
35599W        W 2008  44.254  16.879   3.240
35600W        W 2009  31.998  36.542   2.242
35601W        W 2010  12.325   9.389  11.279
35602W        W 2011  24.077  41.543  12.542
35603W        W 2012  39.893  44.880  13.791
35604W        W 2013  40.935  12.581  13.827
35605W        W 2014   1.905   1.819  14.458
35606W        W 2015  26.041  10.353   3.731
35607W        W 2016  27.529   6.860  11.938
35608W        W 2017  21.079  20.666  14.220
35609W        W 2018  27.223  10.782  12.475
35610W        W 2019  37.776  10.106  12.047
35611W        W 2020   9.146   7.151  11.157
35612W        W 2021  40.369  34.641   3.460
35613W        W 2022   9.655  27.536   0.965
35614W        W 2023  31.993   2.546  13.272
35615W        W 2024  25.109   1.934  12.120
35616W        W 2025   5.698   2.762  11.365
35617W        W 2026  36.527  28.497   1.731
35618W        W 2027  23.398  35.366  12.589
35619W        W 2028  32.297  23.250   1.325
35620W        W 2029  43.433  19.149  12.462
35621W        W 2030  40.688  39.953  11.655
35622W        W 2031  25.239  19.664   1.158
35623W        W 2032  14.806  25.015  10.377
35624W        W 2033  35.273  42.497   2.807
35625W        W 2034   0.825  10.973  12.842
35626W        W 2035  27.025  21.490   5.470
35627W        W 2036  32.287  33.159   2.546
35628W        W 2037   9.682   4.837   0.153
35629W        W 2038  11.790  37.550   5.096
35630W        W 2039  20.713  14.090   4.065
35631W        W 2040  24.111  39.048  14.495
35632W        W 2041  39.937   4.429  14.868
35633W        W 2042  28.483  18.134   2.678
35634W        W 2043  26.130  36.963   1.675
35635W        W 2044   4.819  27.382  12.577
35636W        W 2045  30.071  30.012   2.942
35637W        W 2046  26.432  18.842   2.243
35638W        W 2047  23.193  17.689  11.210
35639W        W 2048  15.050  19.599  13.769
35640W        W 2049  42.921  30.002   2.993
35641W        W 2050  40.425  18.657  10.335
35642W        W 2051  43.030  14.768   1.330
35643W        W 2052  37.944  34.107   4.660
35644W        W 2053   5.932  14.764  14.356
35645W        W 2054  39.874  29.206   0.931
35646W        W 2055  19.318  30.935   0.363
35647W        W 2056  43.535  19.250  13.137
35648W        W 2057  31.174  36.739   4.240
35649W        W 2058   9.815  24.624   4.338
35650W        W 2059  41.835  23.120   2.861
35651W        W 2060  43.565   8.282   1.227
35652W        W 2061  16.279  19.350   0.918
35653W        W 2062  37.946  44.584   1.455
35654W        W 2063   6.361  31.976   2.051
35655W        W 2064  43.819   1.448  12.157
35656W        W 2065  17.113   5.859   2.777
35657W        W 2066   1.311  29.431   4.212
35658W        W 2067  32.814  36.991   4.514
35659W        W 2068  17.333  40.015   4.318
35660W        W 2069  18.051   8.694   4.105
35661W        W 2070   2.792  23.247   3.434
35662W        W 2071   7.080   5.310  12.256
35663W        W 2072  23.072  37.514   4.611
35664W        W 2073   4.829  39.237  14.018
35665W        W 2074  20.653   7.073   2.751
35666W        W 2075  19.582  33.989  12.011
35667W        W 2076  34.683  29.652  10.279
35668W        W 2077  27.160  40.501  14.820
35669W        W 2078  10.161  44.517  10.336
35670W        W 2079  13.339  30.047  10.502
35671W        W 2080  11.091  22.167   1.947
35672W        W 2081  22.806   2.291   4.205
35673W        W 2082  20.791  14.627  12.487
35674W        W 2083  37.138  15.099  13.034
35675W        W 2084  43.871  29.196  13.418
35676W        W 2085  34.050  17.342  12.447
35677W        W 2086   5.365  42.462  14.801
35678W        W 2087  35.529  38.907  12.353
35679W        W 2088   7.045  31.477   0.884
35680W        W 2089  33.330  36.924   2.824
35681W        W 2090  20.164  27.685   1.215
35682W        W 2091   1.328   9.772   5.000
35683W        W 2092  32.127  20.506  11.602
35684W        W 2093  31.158  19.078  13.851
35685W        W 2094  36.489  43.323   1.664
35686W        W 2095   0.239  22.232  14.441
35687W        W 2096   3.255   1.980  12.703
35688W        W 2097  36.940   3.530  13.231
35689W        W 2098  29.633  31.868  12.487
35690W        W 2099   2.831  10.962   0.663
35691W        W 2100  26.238  20.617  14.780
35692W        W 2101  24.620  16.993  14.632
35693W        W 2102  17.716  26.612  10.595
35694W        W 2103  18.213   7.828  13.594
35695W        W 2104  16.646   6.122  14.412
35696W        W 2105  27.726   9.747   2.825
35697W        W 2106  26.687  21.725  10.626
35698W        W 2107  39.045   8.279   2.316
35699W        W 2108  14.332  34.037   3.117
35700W        W 2109  12.698   9.739  11.270
35701W        W 2110   7.682   9.734  10.682
35702W        W 2111   3.705  28.451   1.292
35703W        W 2112  34.667  36.820  14.380
35704W        W 2113  14.186  30.471   0.365
35705W        W 2114  12.145   4.743   0.425
35706W        W 2115  41.458   1.386   4.394
35707W        W 2116  30.812  19.265   1.689
35708W        W 2117   5.734  23.142  11.196
35709W        W 2118   5.657  15.623  10.747
35710W        W 2119  20.321  32.568   4.640
35711W        W 2120  43.411  22.521   2.922
35712W        W 2121  15.620  20.657  13.909
35713W        W 2122  19.383  13.443   0.426
35714W        W 2123   3.623  17.124  11.767
35715W        W 2124  35.136   6.123  11.651
35716W        W 2125  22.576  36.350   2.886
35717W        W 2126   0.499  28.626   1.860
35718W        W 2127   5.496  26.193  14.912
35719W        W 2128   4.049  25.600   4.121
35720W        W 2129  20.622  34.814   2.152
35721W        W 2130   4.262  34.385  14.923
35722W        W 2131  22.705  44.427  11.639
35723W        W 2132  21.684  39.603  13.743
35724W        W 2133  32.004  31.769  13.119
35725W        W 2134   8.929  38.503  10.530
35726W        W 2135  16.954   4.873  12.558
35727W        W 2136   8.300  42.737   1.894
35728W        W 2137  22.673  44.653   1.053
35729W        W 2138  10.813  43.442  12.105
35730W        W 2139  15.895  35.160   3.128
35731W        W 2140  33.639   9.795  11.953
35732W        W 2141   2.702  38.038   3.431
35733W        W 2142   8.076  42.959  11.539
35734W        W 2143  40.060  39.869  10.678
35735W        W 2144  27.668  10.365   4.106
35736W        W 2145  24.088  39.074  11.429
35737W        W 2146  18.383  31.296  11.171
35738W        W 2147   5.265  23.528  14.794
35739W        W 2148  35.688  30.886  11.682
35740W        W 2149   9.268  16.053   1.362
35741W        W 2150  11.732  17.489  11.061
35742W        W 2151  26.430  37.285  10.709
35743W        W 2152  13.305   1.539  11.153
35744W        W 2153  35.520  31.582  14.233
35745W        W 2154  41.786  41.472   2.893
35746W        W 2155  15.364  27.213   4.220
35747W        W 2156  20.138  26.376   2.429
35748W        W 2157  26.043  26.104  10.253
35749W        W 2158   8.841   3.753  11.213
35750W        W 2159  27.585  40.050   4.866
35751W        W 2160   4.425   0.751   0.414
35752W        W 2161   6.861   6.043   3.200
35753W        W 2162  21.733  19.456   0.267
35754W        W 2163   5.719  33.887   2.763
35755W        W 2164  13.925   2.078   1.274
35756W        W 2165  16.753   2.299   3.430
35757W        W 2166  29.161  26.643   4.624
35758W        W 2167  39.746  32.129   4.167
35759W        W 2168  23.044  14.844   2.354
35760W        W 2169  17.706  12.930   3.149
35761W        W 2170  36.022  25.144   2.362
35762W        W 2171  42.461  30.190  11.816
35763W        W 2172  19.687  44.942  11.511
35764W        W 2173   2.038  40.635  13.997
35765W        W 2174  32.030  22.766   5.028
35766W        W 2175  27.209  36.336  10.723
35767W        W 2176  36.833  27.424   2.890
35768W        W 2177  16.039  30.547  10.450
35769W        W 2178  23.043  33.536  10.706
35770W        W 2179  23.425  43.311   4.583
35771W        W 2180  22.801  14.638   3.600
35772W        W 2181  37.297   2.209   1.648
35773W        W 2182  18.773  42.716  14.905
35774W        W 2183  20.360  15.602   2.711
35775W        W 2184  21.707  10.962  13.820
35776W        W 2185  25.239  25.979  12.114
35777W        W 2186  32.602  12.302  12.114
35778W        W 2187  24.995  17.711  14.331
35779W        W 2188  12.179  20.831   3.087
35780W        W 2189  22.460  31.425  12.073
35781W        W 2190  13.135  37.417   0.709
35782W        W 2191  44.523  15.883   3.243
35783W        W 2192   2.765  39.443   1.142
35784W        W 2193  40.568  15.334   2.800
35785W        W 2194   8.772  43.502  13.263
35786W        W 2195  35.628  41.217  14.096
35787W        W 2196   0.834  15.489  10.709
35788W        W 2197  30.692  13.634  13.374
35789W        W 2198  29.343  26.714   4.136
35790W        W 2199  14.044  28.567  14.781
35791W        W 2200  41.768  18.989   3.728
35792W        W 2201  25.343   3.591  14.631
35793W        W 2202   2.420  34.679   2.781
35794W        W 2203  42.354  10.410   3.155
35795W        W 2204  12.378  17.158  11.882
35796W        W 2205  39.831  19.233  13.448
35797W        W 2206   6.281  32.095   3.070
35798W        W 2207  14.853  35.898   4.199
35799W        W 2208  12.160  29.434   2.840
35800W        W 2209  20.605  19.352   0.815
35801W        W 2210  42.035  28.957   5.043
35802W        W 2211   4.946   3.035  12.846
35803W        W 2212  13.829  29.075  14.770
35804W        W 2213  17.109  30.575  14.901
35805W        W 2214  37.023   8.683  13.438
35806W        W 2215  33.822  38.070  13.037
35807W        W 2216  16.484  22.205   0.154
35808W        W 2217   0.796   6.831  10.661
35809W        W 2218   6.704   7.265   0.736
35810W        W 2219   4.877  41.901  14.215
35811W        W 2220  23.392  15.633  10.383
35812W        W 2221  31.753  24.248  11.214
35813W        W 2222  35.419   1.220  13.694
35814W        W 2223  30.123  37.543   2.342
35815W        W 2224  34.112  38.585  10.555
35816W        W 2225  36.429  38.223   0.355
35817W        W 2226  35.606   7.204   4.866
35818W        W 2227  41.862  36.872   0.299
35819W        W 2228   3.923  22.442  11.873
35820W        W 2229  37.609  42.406  14.292
35821W        W 2230  10.134  10.140   0.760
35822W        W 2231  18.478  16.804  14.111
35823W        W 2232   1.306  16.082  11.192
35824W        W 2233  37.305   6.177   3.232
35825W        W 2234   6.147   6.401  14.538
35826W        W 2235  23.087  31.451  14.536
35827W        W 2236   5.323  27.694   4.707
35828W        W 2237  20.610  16.292  12.485
35829W        W 2238   8.551  33.111  11.630
35830W        W 2239  14.422  30.013   0.430
35831W        W 2240  12.129   7.191   1.315
35832W        W 2241  38.331  27.705   2.764
35833W        W 2242  32.720   0.839   4.895
35834W        W 2243   7.141  42.920   0.488
35835W        W 2244  26.687  36.622   2.328
35836W        W 2245  23.609  33.935  11.484
35837W        W 2246  26.172  28.149   1.933
35838W        W 2247  26.442  22.024   2.143
35839W        W 2248  12.867  39.482   1.060
35840W        W 2249  31.049  26.384  10.265
35841W        W 2250  13.362  29.569   3.397
35842W        W 2251  10.254  33.570  14.764
35843W        W 2252  43.961  12.279   3.200
35844W        W 2253  31.367  13.828  10.724
35845W        W 2254  15.605  44.533  11.564
35846W        W 2255   4.210  41.812   3.239
35847W        W 2256  25.781   2.837  12.590
35848W        W 2257   9.938  18.251   1.287
35849W        W 2258   1.688  25.160  14.309
35850W        W 2259  39.142  13.637   1.577
35851W        W 2260  35.029  36.873   1.414
35852W        W 2261  36.583   5.155   3.744
35853W        W 2262  18.356  13.817   4.101
35854W        W 2263   7.173  19.208  10.800
35855W        W 2264  10.752  24.694   2.954
35856W        W 2265  26.520  18.306   2.213
35857W        W 2266  25.468  23.036   3.658
35858W        W 2267  11.504  15.048  10.608
35859W        W 2268  36.769  37.832   0.501
35860W        W 2269   7.722  44.312  10.733
35861W        W 2270  22.034   4.020   3.670
35862W        W 2271   9.336  14.487  12.700
35863W        W 2272  11.223  25.639   3.710
35864W        W 2273  28.164   0.265   0.349
35865W        W 2274  22.501  15.166   9.967
35866W        W 2275  37.892  44.619  13.045
35867W        W 2276  43.427  29.631   3.790
35868W        W 2277  25.774   2.969   2.447
35869W        W 2278   0.121   7.128  13.632
35870W        W 2279   5.724  28.123   3.637
35871W        W 2280  14.603  32.389  10.730
35872W        W 2281   9.391  31.479   1.182
35873W        W 2282  12.073  29.213  13.333
35874W        W 2283  20.767   7.836  13.815
35875W        W 2284   2.030  40.718   3.847
35876W        W 2285  38.140   0.512  12.524
35877W        W 2286  41.555  35.747   3.136
35878W        W 2287   0.691   5.183   4.411
35879W        W 2288  26.010  29.069  11.439
35880W        W 2289  13.753  21.195   1.781
35881W        W 2290  11.310  36.471   1.461
35882W        W 2291  27.763  44.370  13.607
35883W        W 2292  37.883  20.209   4.190
35884W        W 2293  32.113   2.897  11.852
35885W        W 2294  37.820   0.424  14.064
35886W        W 2295  12.889   2.770  13.975
35887W        W 2296  31.216  22.231  13.441
35888W        W 2297  15.816  31.114   2.777
35889W        W 2298  39.042  40.973  11.882
35890W        W 2299  21.663  20.009   2.237
35891W        W 2300  20.527  40.079   2.381
35892W        W 2301   3.369  34.374  12.926
35893W        W 2302  22.260  12.634   0.310
35894W        W 2303  29.574  14.482   1.005
35895W        W 2304  36.333   1.883   3.204
35896W        W 2305  24.721   2.039  14.830
35897W        W 2306  32.193  42.757  12.091
35898W        W 2307  11.723  25.597   3.380
35899W        W 2308  22.974   3.787  13.378
35900W        W 2309  20.525   1.946  10.679
35901W        W 2310  29.598   8.449   1.340
35902W        W 2311  11.724  18.676  12.397
35903W        W 2312  25.650  14.679  11.555
35904W        W 2313  20.799  25.484   1.238
35905W        W 2314  12.541  11.941  12.848
35906W        W 2315  18.692   5.129  13.890
35907W        W 2316  32.529  11.948   1.167
35908W        W 2317  32.376  32.406  11.920
35909W        W 2318  15.508  26.655  12.060
35910W        W 2319  41.899  35.103  10.820
35911W        W 2320  25.762  43.325  11.989
35912W        W 2321  14.328   1.726  10.007
35913W        W 2322  34.075  44.654   3.765
35914W        W 2323  16.701  16.870   2.715
35915W        W 2324  20.543  39.967   0.962
35916W        W 2325  30.439  36.324   2.633
35917W        W 2326  41.896  24.393   0.812
35918W        W 2327  21.634  13.284   3.612
35919W        W 2328  21.489  42.510   3.236
35920W        W 2329  10.795  34.304   3.309
35921W        W 2330   2.826   7.489  13.135
35922W        W 2331   2.380  26.196   4.168
35923W        W 2332  20.618  34.866   4.641
35924W        W 2333  34.630  39.463  10.667
35925W        W 2334   3.776  18.180  14.432
35926W        W 2335  11.163  38.957   0.833
35927W        W 2336  35.899  38.809   3.979
35928W        W 2337  23.433  41.460  11.200
35929W        W 2338  20.731   1.221  14.334
35930W        W 2339  16.187  23.711  11.136
35931W        W 2340   0.851  42.244  12.174
35932W        W 2341  42.228  21.247  13.893
35933W        W 2342  17.233   4.452  13.821
35934W        W 2343   7.750  36.014   5.037
35935W        W 2344  15.893  44.509   1.289
35936W        W 2345  31.643   0.822  11.415
35937W        W 2346  33.509   9.296   2.786
35938W        W 2347  26.000  40.556   0.362
35939W        W 2348  16.782  22.600  10.739
35940W        W 2349  16.208  17.582   1.304
35941W        W 2350   7.418   3.411   3.654
35942W        W 2351   6.693  15.115  11.337
35943W        W 2352   3.789   3.440   1.689
35944W        W 2353   1.321  19.766   3.205
35945W        W 2354   5.782  17.605  12.554
35946W        W 2355  37.000  37.745  12.065
35947W        W 2356  17.912  13.808  10.784
35948W        W 2357  39.064  17.690   1.646
35949W        W 2358  12.853  41.115   3.670
35950W        W 2359  34.031  30.926  12.367
35951W        W 2360   1.374  36.957   1.459
35952W        W 2361  33.412  13.349  14.852
35953W        W 2362  38.985  19.525  13.337
35954W        W 2363  29.267  16.959   4.284
35955W        W 2364  25.455  23.179   2.731
35956W        W 2365  31.092  40.845  11.254
35957W        W 2366  31.885   8.639  13.931
35958W        W 2367  37.483  40.853   1.199
35959W        W 2368  10.944  43.782   3.608
35960W        W 2369  37.848  24.983   1.984
35961W        W 2370   8.787   0.285  10.759
35962W        W 2371  34.896  16.540  12.978
35963W        W 2372  16.145   7.451  13.388
35964W        W 2373  15.082  34.966   1.211
35965W        W 2374  38.421   3.189  10.900
35966W        W 2375  32.514   0.612   4.500
35967W        W 2376   7.630  32.250   4.493
35968W        W 2377  43.022  11.754  11.049
35969W        W 2378   0.374  36.360  11.179
35970W        W 2379  15.555   6.297   3.746
35971W        W 2380  39.743  20.529  11.835
35972W        W 2381  40.004   2.008   1.845
35973W        W 2382  25.669  36.198  11.504
35974W        W 2383  31.826  35.961  12.592
35975W        W 2384  17.142   7.278   4.511
35976W        W 2385  35.051  23.690  10.147
35977W        W 2386  14.334  21.301  13.029
35978W        W 2387  11.599  10.448   3.920
35979W        W 2388  26.324   8.668  12.743
35980W        W 2389  39.514   7.281  11.996
35981W        W 2390  19.982  21.163   2.748
35982W        W 2391  19.176  30.615   2.813
35983W        W 2392  43.714  44.419   4.355
35984W        W 2393   3.125  29.529   4.855
35985W        W 2394  42.884   2.277  14.243
35986W        W 2395   7.539   0.785   4.578
35987W        W 2396  25.445  16.206   1.824
35988W        W 2397  37.531   4.882  14.787
35989W        W 2398  40.034  20.264   9.940
35990W        W 2399  34.819  21.086   3.245
35991W        W 2400  26.063  30.948   2.374
35992W        W 2401   6.390   6.804   3.208
35993W        W 2402  34.308  33.447  11.526
35994W        W 2403  18.207  15.039  10.783
35995W        W 2404  21.456  28.980   4.479
35996W        W 2405  34.644  33.655  11.902
35997W        W 2406  25.196  42.969   4.670
35998W        W 2407  38.310  20.937   0.315
35999W        W 2408  15.397  41.484  14.356
36000W        W 2409   4.717  18.310   1.560
36001W        W 2410   5.126   1.608  12.012
36002W        W 2411  17.834  24.369   3.934
36003W        W 2412  10.121  16.853  13.857
36004W        W 2413   2.831   0.226   0.830
36005W        W 2414  25.457  39.090  10.079
36006W        W 2415  42.294   5.821   1.834
36007W        W 2416  40.837  29.419  13.315
36008W        W 2417  44.761  15.539  14.293
36009W        W 2418   1.973  18.615   0.757
36010W        W 2419  16.357  22.255   0.654
36011W        W 2420  30.871   0.032   1.822
36012W        W 2421  13.628  35.479   4.043
36013W        W 2422   6.797  22.060   3.566
36014W        W 2423  16.264  16.408  12.009
36015W        W 2424  21.251  31.163   0.532
36016W        W 2425   7.982  10.296   4.129
36017W        W 2426  20.101  14.137  13.297
36018W        W 2427  17.584  26.003  12.530
36019W        W 2428  12.866  23.148   2.818
36020W        W 2429  14.724  35.979  11.605
36021W        W 2430  20.981  20.078  10.461
36022W        W 2431  12.929  14.468  13.483
36023W        W 2432  37.978  42.067  13.172
36024W        W 2433  25.564   0.824  10.399
36025W        W 2434  25.963  26.717  13.656
36026W        W 2435   5.417  35.605   3.010
36027W        W 2436  30.394  16.178  12.374
36028W        W 2437  29.608  32.128   1.673
36029W        W 2438  22.631  28.880   4.027
36030W        W 2439  11.315  41.236  13.559
36031W        W 2440  23.778  29.533  11.213
36032W        W 2441  41.489  13.211  14.098
36033W        W 2442   0.502   4.934   3.882
36034W        W 2443  36.069  19.675   3.449
36035W        W 2444  34.036   1.405   4.590
36036W        W 2445  24.117  24.854   0.823
36037W        W 2446  19.358  24.616  13.965
36038W        W 2447  22.643  30.612   1.373
36039W        W 2448   6.504  36.121  14.199
36040W        W 2449  44.234   4.415   0.346
36041W        W 2450   0.475  25.502   0.730
36042W        W 2451  16.257   4.964  11.189
36043W        W 2452  10.297  32.810   5.005
36044W        W 2453  41.805   2.762   2.250
36045W        W 2454  42.506   7.468   9.829
36046W        W 2455  18.992  41.874   2.823
36047W        W 2456  43.781  18.550   0.798
36048W        W 2457  20.987  23.141   1.323
36049W        W 2458  13.559   3.759  11.418
36050W        W 2459   9.795  38.324   3.647
36051W        W 2460  44.444  30.527  12.635
36052W        W 2461  41.188  14.219  11.095
36053W        W 2462   3.332  14.181   0.338
36054W        W 2463  39.276   9.785  13.762
36055W        W 2464   1.977  30.544  10.513
36056W        W 2465  40.625  30.392   0.977
36057W        W 2466  16.313  28.568  14.421
36058W        W 2467   8.972   6.692  14.397
36059W        W 2468  28.480  29.435   3.997
36060W        W 2469  21.642  23.000   3.481
36061W        W 2470  26.893  21.250  10.710
36062W        W 2471  38.670  39.629  12.943
36063W        W 2472   5.924  12.296  12.418
36064W        W 2473  19.306  17.216   0.264
36065W        W 2474   0.668  22.557   1.378
36066W        W 2475  26.712  12.569   3.761
36067W        W 2476   7.169  23.579  14.062
36068W        W 2477  23.161   6.970  14.767
36069W        W 2478  22.794  30.491  13.025
36070W        W 2479  29.721  30.584   1.302
36071W        W 2480   6.290   4.782   5.095
36072W        W 2481   4.469  10.860  13.440
36073W        W 2482  27.377  19.236   1.751
36074W        W 2483  22.590  16.281  13.627
36075W        W 2484  20.622   7.156   1.265
36076W        W 2485  17.972  36.600  14.993
36077W        W 2486   3.187  38.777  12.886
36078W        W 2487  18.188  20.251   4.917
36079W        W 2488  30.885   6.317   1.329
36080W        W 2489  40.299  18.728   3.557
36081W        W 2490   0.455  17.129   0.313
36082W        W 2491  23.150  18.405   4.016
36083W        W 2492  18.067  15.287   4.170
36084W        W 2493   6.178  37.331  14.713
36085W        W 2494  26.217  44.315   1.500
36086W        W 2495   9.285  21.061   3.589
36087W        W 2496  39.508  44.279   0.292
36088W        W 2497   5.159  17.729   3.640
36089W        W 2498  20.110  18.787   1.492
36090W        W 2499  28.066  32.723  10.596
36091W        W 2500  39.961   3.315   3.761
36092W        W 2501  25.858  27.168  11.500
36093W        W 2502   3.773  39.390  10.454
36094W        W 2503  20.993  21.618   3.947
36095W        W 2504  28.236  23.969  12.515
36096W        W 2505  40.465   3.147   3.742
36097W        W 2506  30.652  16.610   1.317
36098W        W 2507  36.833   2.360  10.548
36099W        W 2508  17.670  42.259   3.974
36100W        W 2509   0.375   3.178  14.315
36101W        W 2510  21.254   4.475  14.819
36102W        W 2511  19.985  21.452  12.457
36103W        W 2512  30.508  20.968   1.230
36104W        W 2513  35.028  23.818  14.272
36105W        W 2514  43.837  22.268   2.801
36106W        W 2515  42.189  43.436  11.954
36107W        W 2516  10.290  16.634  10.695
36108W        W 2517  23.281  20.508  13.630
36109W        W 2518  37.700   3.007   1.258
36110W        W 2519  27.043  41.883  11.820
36111W        W 2520  37.803  28.914   2.851
36112W        W 2521  30.064  10.911  10.595
36113W        W 2522  34.893  44.564   0.471
36114W        W 2523   7.284   9.018  14.175
36115W        W 2524   9.420  32.620  12.032
36116W        W 2525   1.859   8.915   3.551
36117W        W 2526  13.243  20.258  14.261
36118W        W 2527  41.394  20.555  10.659
36119W        W 2528  42.293  16.098   0.579
36120W        W 2529  43.324  13.317  12.439
36121W        W 2530  18.263  37.588   0.940
36122W        W 2531  42.906  12.396  12.661
36123W        W 2532   8.336  18.669  14.455
36124W        W 2533  42.080   4.384   2.734
36125W        W 2534  41.371  19.121   3.334
36126W        W 2535  17.252   9.718   4.307
36127W        W 2536   8.996  27.943  13.976
36128W        W 2537   4.294  37.578  14.417
36129W        W 2538  40.955   4.635   2.062
36130W        W 2539  39.592  12.192   2.795
36131W        W 2540   9.333  40.869   3.098
36132W        W 2541  35.616  36.721  11.658
36133W        W 2542  29.978  42.588  12.012
36134W        W 2543  28.433  17.767   4.589
36135W        W 2544   9.433  44.682   0.304
36136W        W 2545   3.913  40.948  12.883
36137W        W 2546  35.054  35.544  14.398
36138W        W 2547  35.024  24.457  11.018
36139W        W 2548  30.497   6.464  10.029
36140W        W 2549  29.779  15.779   1.151
36141W        W 2550  21.467  27.617  13.906
36142W        W 2551  41.353  33.812   0.840
36143W        W 2552   0.481  15.602   0.001
36144W        W 2553  24.170  13.625  14.959
36145W        W 2554   0.810  10.101   0.991
36146W        W 2555  26.663  23.592  10.774
36147W        W 2556  16.346  22.097   3.651
36148W        W 2557  30.497  10.686   2.144
36149W        W 2558  33.985  36.133   4.226
36150W        W 2559  12.960  21.132   4.590
36151W        W 2560  17.041  39.034   2.771
36152W        W 2561  32.566   0.810  11.629
36153W        W 2562   6.984  11.112  11.940
36154W        W 2563   1.304  18.517  14.373
36155W        W 2564  37.893  22.660  14.747
36156W        W 2565  44.876  37.566   4.743
36157W        W 2566  11.647  10.433   3.025
36158W        W 2567   5.673  42.909  12.854
36159W        W 2568   2.540   0.416   1.281
36160W        W 2569  12.207  30.533  14.228
36161W        W 2570  20.231  25.282   4.046
36162W        W 2571   8.345  29.107  13.089
36163W        W 2572  16.245  35.405  14.779
36164W        W 2573  25.435  36.428   0.376
36165W        W 2574  20.545  36.542  11.663
36166W        W 2575  27.663  19.309  11.862
36167W        W 2576  37.513   5.674  11.589
36168W        W 2577  37.687  33.622   3.785
36169W        W 2578  35.598  38.789   0.425
36170W        W 2579  44.410  39.748   1.320
36171W        W 2580   9.724   7.598   1.819
36172W        W 2581   7.891   1.745   2.416
36173W        W 2582  16.104   8.427   0.194
36174W        W 2583  24.461  39.540  13.358
36175W        W 2584  43.615  23.861  12.111
36176W        W 2585  36.719   4.280   4.281
36177W        W 2586   4.139   1.323  14.791
36178W        W 2587  34.919  41.488   1.759
36179W        W 2588  43.869  29.097  10.782
36180W        W 2589   0.806  15.465   2.958
36181W        W 2590  32.879  36.037  12.353
36182W        W 2591  32.916  31.144   1.895
36183W        W 2592  19.695  15.209   1.227
36184W        W 2593  41.030  16.449  10.739
36185W        W 2594  40.384  38.587   0.345
36186W        W 2595  43.591  18.264   1.707
36187W        W 2596  39.907  13.770  13.389
36188W        W 2597  12.500  27.830  11.309
36189W        W 2598  33.531  21.041   1.234
36190W        W 2599  44.017  31.160  13.460
36191W        W 2600  12.100  10.913   1.719
36192W        W 2601  36.865   2.814   2.340
36193W        W 2602   9.473  36.927  12.013
36194W        W 2603  21.875  11.935  13.825
36195W        W 2604  27.577  18.052   0.843
36196W        W 2605  28.986  39.617   0.856
36197W        W 2606  22.824   6.189  11.527
36198W        W 2607  38.516  28.584   4.568
36199W        W 2608  13.113  26.767   4.053
36200W        W 2609  35.482   5.210  10.645
36201W        W 2610   4.666  24.186   9.937
36202W        W 2611  10.333   7.398   2.657
36203W        W 2612  10.396  10.428   3.284
36204W        W 2613  22.796  40.410   5.237
36205W        W 2614  38.162  34.019  13.871
36206W        W 2615   6.125  37.582   5.056
36207W        W 2616  37.623   9.946   3.728
36208W        W 2617  41.834  38.050  12.046
36209W        W 2618  16.462  15.865  14.071
36210W        W 2619  24.186   3.042  14.843
36211W        W 2620  22.291  36.431   1.102
36212W        W 2621  42.411  21.671  10.928
36213W        W 2622  12.581  41.553   3.552
36214W        W 2623  24.245  32.385   3.142
36215W        W 2624  31.058   3.200   3.242
36216W        W 2625  28.388  27.630  12.466
36217W        W 2626  37.893  42.063   0.398
36218W        W 2627  10.276  41.272  12.940
36219W        W 2628  31.194  29.141   3.756
36220W        W 2629   0.419  12.885  12.194
36221W        W 2630  36.566  21.905   2.293
36222W        W 2631  42.823  29.126  13.421
36223W        W 2632  21.515  35.790   0.641
36224W        W 2633  41.373  40.014   1.808
36225W        W 2634  29.502  30.620   3.229
36226W        W 2635  20.206  29.062  12.146
36227W        W 2636  38.897  16.776  10.577
36228W        W 2637  10.929   6.615   2.108
36229W        W 2638  12.701  11.228   2.303
36230W        W 2639  20.774  42.476  13.314
36231W        W 2640  34.325  36.371   0.250
36232W        W 2641  12.911  25.607   2.831
36233W        W 2642   6.392  40.886  14.498
36234W        W 2643  40.498  16.410  11.204
36235W        W 2644  37.972  38.532  11.637
36236W        W 2645   5.471  21.707   4.769
36237W        W 2646  16.828  31.545  13.363
36238W        W 2647   4.903  34.203  12.906
36239W        W 2648  30.965  37.034   3.349
36240W        W 2649  40.782  43.940  10.460
36241W        W 2650  32.550  44.098  14.523
36242W        W 2651   8.716  18.861  11.166
36243W        W 2652  30.993  28.623  13.502
36244W        W 2653  32.275  35.605  11.017
36245W        W 2654   0.004  27.341  11.809
36246W        W 2655  36.808  18.403   3.740
36247W        W 2656  34.602  30.579   1.305
36248W        W 2657  43.319  43.275  14.437
36249W        W 2658   8.800  22.471  11.057
36250W        W 2659  26.992   7.600  10.446
36251W        W 2660  34.893  36.376  12.475
36252W        W 2661  13.095  16.827   3.665
36253W        W 2662   8.068  23.691   0.725
36254W        W 2663   8.948   4.616  11.634
36255W        W 2664  21.594  27.705  11.625
36256W        W 2665  37.882  35.048  11.166
36257W        W 2666  21.050  34.081   1.939
36258W        W 2667  38.557  15.520   4.180
36259W        W 2668  27.607  41.036  10.620
36260W        W 2669  31.464  41.052  12.527
36261W        W 2670   3.792   1.019   4.129
36262W        W 2671  22.535  18.179   1.396
36263W        W 2672  12.083  36.087   1.778
36264W        W 2673  41.313  37.167  14.884
36265W        W 2674  29.391  35.304  14.709
36266W        W 2675  14.874  41.525  11.096
36267W        W 2676  24.964  37.393  10.181
36268W        W 2677  43.629  19.480  11.476
36269W        W 2678   1.662  42.996  11.945
36270W        W 2679  37.144  13.676   4.631
36271W        W 2680   8.584  17.274   4.140
36272W        W 2681   0.681  27.959  14.375
36273W        W 2682  40.993  35.914  12.085
36274W        W 2683  23.615  39.982   3.223
36275W        W 2684  34.029  38.879   2.442
36276W        W 2685   1.349  30.762  12.629
36277W        W 2686  15.156  37.087  14.445
36278W        W 2687  30.344  32.936   2.333
36279W        W 2688  39.964  14.132  12.102
36280W        W 2689  19.760  20.017   2.528
36281W        W 2690  43.302  31.831  11.834
36282W        W 2691  22.366  41.792  14.787
36283W        W 2692  39.686  28.003  13.019
36284W        W 2693  43.538   8.225   4.553
36285W        W 2694   3.296  26.552  10.907
36286W        W 2695  36.615  12.755   0.748
36287W        W 2696  12.801  37.476  12.954
36288W        W 2697  43.479  37.815  12.428
36289W        W 2698   9.153   8.418  12.376
36290W        W 2699   4.206  23.717  11.578
36291W        W 2700  10.042  11.845   4.910
36292W        W 2701   6.433  33.424  14.881
36293W        W 2702  11.952  42.254   2.574
36294W        W 2703  29.861  16.745  10.551
36295W        W 2704   4.641  28.210   0.952
36296W        W 2705   3.901  21.938  11.857
36297W        W 2706  42.421   0.956   2.228
36298W        W 2707  14.214  36.509  13.013
36299W        W 2708  39.839   1.954   3.689
36300W        W 2709  31.641  22.679  14.599
36301W        W 2710  17.627  42.639   0.318
36302W        W 2711   7.696   7.986   3.338
36303W        W 2712  11.955  30.535   1.315
36304W        W 2713  11.806  29.729   4.137
36305W        W 2714  41.372  13.414  13.093
36306W        W 2715  25.791  35.478  11.127
36307W        W 2716   9.144  42.763  13.406
36308W        W 2717   9.702  19.489  13.333
36309W        W 2718  18.059  39.281   3.281
36310W        W 2719  41.462  22.872  14.246
36311W        W 2720   1.292   8.212   3.660
36312W        W 2721  19.130  42.437  10.769
36313W        W 2722  23.774   4.867  10.556
36314W        W 2723   5.963  25.910   0.791
36315W        W 2724  21.226  37.013   3.832
36316W        W 2725  10.589  14.575  13.614
36317W        W 2726  19.282  39.589  11.150
36318W        W 2727  40.870  41.356   2.969
36319W        W 2728  20.168  34.109   2.339
36320W        W 2729  29.040  32.421   2.924
36321W        W 2730  36.189  19.842  14.900
36322W        W 2731   2.323  31.192  14.774
36323W        W 2732   0.577   3.672   2.698
36324W        W 2733  20.091  28.210   1.200
36325W        W 2734  31.587  17.760  14.992
36326W        W 2735  30.642  25.756   3.967
36327W        W 2736  44.863  44.638   3.875
36328W        W 2737   8.267  15.346   0.787
36329W        W 2738  22.285   4.904   4.811
36330W        W 2739  38.922  44.790   2.852
36331W        W 2740  21.782  16.847  14.787
36332W        W 2741  37.396  10.853  12.535
36333W        W 2742  40.479  13.686   1.234
36334W        W 2743  24.491  12.812   0.099
36335W        W 2744  43.868  38.229   2.922
36336W        W 2745   9.621  16.156  13.477
36337W        W 2746  12.691  36.600   3.636
36338W        W 2747  34.536  28.398   3.657
36339W        W 2748  26.444  36.168   2.217
36340W        W 2749  31.898  10.314  11.980
36341W        W 2750  10.342  34.017   4.588
36342W        W 2751  34.604  16.785  14.338
36343W        W 2752   6.235   9.231  13.597
36344W        W 2753  39.072  31.674   3.621
36345W        W 2754   2.987  32.992  14.318
36346W        W 2755  39.102   9.196  10.607
36347W        W 2756  14.562  30.925  12.122
36348W        W 2757  30.196   9.782   4.683
36349W        W 2758  16.521  10.792   4.121
36350W        W 2759  30.609  11.432  13.554
36351W        W 2760  33.383  17.067  14.608
36352W        W 2761  25.999  35.952  11.095
36353W        W 2762  38.512  15.089  11.917
36354W        W 2763  24.976  37.036  13.604
36355W        W 2764  10.153  35.150   1.418
36356W        W 2765   2.428  44.977   1.035
36357W        W 2766   5.758  38.918   3.251
36358W        W 2767  24.751  40.079  12.088
36359W        W 2768  37.416  28.509  12.972
36360W        W 2769  11.470  42.980  10.267
36361W        W 2770  27.523  11.485  12.054
36362W        W 2771   7.213  26.945  12.019
36363W        W 2772  39.316  17.727   0.834
36364W        W 2773  29.959  25.028   3.894
36365W        W 2774   8.671  11.252  10.866
36366W        W 2775  18.152   2.714   3.503
36367W        W 2776  31.686  43.703  12.888
36368W        W 2777   6.353  39.898  11.958
36369W        W 2778   5.893  15.438  13.424
36370W        W 2779  15.257  38.604   0.832
36371W        W 2780  32.684  40.895  12.137
36372W        W 2781   8.118  29.938  14.401
36373W        W 2782  37.151  13.690  13.062
36374W        W 2783  37.862  34.086  10.806
36375W        W 2784   1.955  42.127  12.881
36376W        W 2785  20.968  37.798   3.715
36377W        W 2786  41.961   1.468   1.615
36378W        W 2787  12.345  27.489   4.739
36379W        W 2788  26.134   5.726  13.592
36380W        W 2789  38.536  21.368   5.620
36381W        W 2790  32.667  17.316   0.262
36382W        W 2791   1.376   0.398  11.579
36383W        W 2792  32.052  10.129  11.518
36384W        W 2793  39.767  22.129   1.771
36385W        W 2794  30.502   1.334   4.072
36386W        W 2795  39.808  24.296   4.178
36387W        W 2796  24.547  23.477   4.550
36388W        W 2797  34.517  35.969   0.499
36389W        W 2798  33.493   9.080   0.370
36390W        W 2799  41.968  42.508   1.495
36391W        W 2800  23.401  33.849  13.396
36392W        W 2801  35.574  36.427  13.399
36393W        W 2802  37.504   8.930  12.773
36394W        W 2803  40.293  20.837  14.399
36395W        W 2804  28.589  42.955  13.026
36396W        W 2805  31.597   4.875   2.779
36397W        W 2806   4.814  19.697   2.290
36398W        W 2807  19.792  15.206   2.249
36399W        W 2808  29.548  28.271   5.093
36400W        W 2809  38.564  36.041  12.397
36401W        W 2810  32.157   7.746  11.887
36402W        W 2811  44.857  33.306  12.707
36403W        W 2812  37.086  12.246  11.571
36404W        W 2813  32.303  29.107   3.274
36405W        W 2814  24.755  35.910  11.642
36406W        W 2815   5.359  17.068  14.934
36407W        W 2816  25.552  28.647   0.247
36408W        W 2817  34.564   8.289  11.618
36409W        W 2818  42.839  24.493   2.203
36410W        W 2819  43.397  14.669   4.338
36411W        W 2820  24.205  44.729   2.252
36412W        W 2821   2.785  19.695   1.767
36413W        W 2822  27.076   5.243   0.282
36414W        W 2823  36.153  44.226   2.910
36415W        W 2824  25.515  38.009   3.178
36416W        W 2825   0.968  28.502   0.909
36417W        W 2826  27.467  12.807   1.085
36418W        W 2827  22.673  35.590   3.830
36419W        W 2828  30.654  34.463  11.589
36420W        W 2829  25.225   4.739   1.244
36421W        W 2830  32.459  10.301  14.364
36422W        W 2831   7.711  40.451  10.285
36423W        W 2832   7.808  15.156   2.386
36424W        W 2833  22.026  21.463   2.788
36425W        W 2834  20.205   8.585   4.821
36426W        W 2835   3.537  11.721  11.835
36427W        W 2836  10.549  29.939   1.276
36428W        W 2837  12.354  25.657   0.324
36429W        W 2838   2.114  18.688  13.349
36430W        W 2839  36.904   5.739   2.811
36431W        W 2840   2.507  24.191  14.742
36432W        W 2841   7.388  31.429  13.800
36433W        W 2842   8.908  27.958   0.882
36434W        W 2843  13.911  13.374   4.149
36435W        W 2844   7.704  34.887   4.572
36436W        W 2845   3.531  17.847   0.852
36437W        W 2846  25.043  20.339   3.821
36438W        W 2847   7.618  14.683  10.965
36439W        W 2848  40.252  37.850   1.383
36440W        W 2849  36.288   9.761  12.525
36441W        W 2850   8.855   6.782  12.997
36442W        W 2851  37.955  34.544  10.981
36443W        W 2852  34.408  31.632   3.313
36444W        W 2853  29.228  41.867  11.601
36445W        W 2854   0.470  38.884   0.456
36446W        W 2855   7.359  23.066   1.321
36447W        W 2856  30.408  23.147   1.726
36448W        W 2857  20.338  43.045  11.639
36449W        W 2858  19.776  20.613  11.535
36450W        W 2859   0.867  38.312  14.790
36451W        W 2860  15.106  24.092   5.020
36452W        W 2861  11.375  18.793  14.813
36453W        W 2862  20.678   1.735  13.454
36454W        W 2863  21.108  12.538  10.676
36455W        W 2864  12.533  33.411   3.147
36456W        W 2865  39.531   6.750  14.459
36457W        W 2866  39.799  29.056   4.721
36458W        W 2867  26.427   3.177   0.403
36459W        W 2868  19.322  28.203  14.432
36460W        W 2869  40.930  38.384   1.145
36461W        W 2870  38.257  23.510   3.799
36462W        W 2871  27.825  13.660  10.464
36463W        W 2872  42.950  38.898  13.094
36464W        W 2873  30.749   6.845   2.220
36465W        W 2874  14.598  39.585  12.000
36466W        W 2875  27.637   9.880   3.312
36467W        W 2876  36.436   8.418   2.411
36468W        W 2877  21.362  30.386  10.412
36469W        W 2878  18.784  42.923  11.541
36470W        W 2879  31.541  10.501   0.461
36471W        W 2880  27.877  13.989   3.809
36472W        W 2881  41.497  12.329  13.130
36473W        W 2882  40.982  17.451   1.635
36474W        W 2883  26.724   0.262   1.899
36475W        W 2884  25.556   4.880  12.101
36476W        W 2885  38.624  42.724  10.786
36477W        W 2886  44.287   3.376   1.897
36478W        W 2887  15.704   9.419  14.444
36479W        W 2888  25.764  26.185   5.305
36480W        W 2889  32.234  23.526   0.888
36481W        W 2890  11.647  16.794  12.883
36482W        W 2891  23.157  28.220   1.740
36483W        W 2892  10.819  10.415   1.445
36484W        W 2893  21.607  24.126   1.880
36485W        W 2894  22.812  20.356  13.492
36486W        W 2895  16.040  40.027  13.911
36487W        W 2896  15.173  34.670  11.436
36488W        W 2897  32.638  29.585  11.555
36489W        W 2898  15.376  27.696   1.422
36490W        W 2899  31.379  32.539  13.064
36491W        W 2900  23.397   4.185   1.332
36492W        W 2901  17.794  30.663  13.845
36493W        W 2902  31.020  24.423  14.801
36494W        W 2903  17.992  10.233  11.234
36495W        W 2904  31.994  20.602   1.967
36496W        W 2905   0.208   0.740  12.076
36497W        W 2906  19.208  12.818  11.748
36498W        W 2907  38.567  33.774   4.523
36499W        W 2908   5.186  30.663   1.240
36500W        W 2909  19.305  34.867   4.199
36501W        W 2910  21.460   0.206   0.393
36502W        W 2911   4.739  36.673   4.363
36503W        W 2912   7.381   0.538  10.714
36504W        W 2913  27.569  34.908   2.827
36505W        W 2914  12.800   9.172  11.461
36506W        W 2915  10.120  17.808   2.295
36507W        W 2916  18.765   8.614  11.558
36508W        W 2917   8.891  11.278  13.267
36509W        W 2918  30.580  23.010  13.076
36510W        W 2919  11.307  30.202   0.584
36511W        W 2920  13.154  34.615  11.595
36512W        W 2921   1.517   9.123   3.210
36513W        W 2922  30.562   8.577  13.484
36514W        W 2923  25.521   5.156   1.315
36515W        W 2924  10.799  34.078   0.704
36516W        W 2925  40.996  25.105   2.173
36517W        W 2926  10.293  29.147   4.849
36518W        W 2927  43.067   4.866  13.446
36519W        W 2928  14.557  41.273   5.040
36520W        W 2929  35.412  19.365  12.269
36521W        W 2930  39.084  12.185  13.938
36522W        W 2931  44.980  13.415  11.130
36523W        W 2932  39.509  12.299   4.358
36524W        W 2933  20.004   1.369   4.038
36525W        W 2934  11.814  21.295  11.133
36526W        W 2935  33.562  12.438   4.144
36527W        W 2936   9.669  31.801  10.813
36528W        W 2937  41.444  41.458  11.131
36529W        W 2938   4.644  32.897  12.446
36530W        W 2939  29.565   3.867   4.602
36531W        W 2940  13.639  16.140   4.686
36532W        W 2941  35.307  35.017   2.236
36533W        W 2942  17.918  31.921   2.677
36534W        W 2943   3.656  42.413  14.533
36535W        W 2944  24.034  20.252   3.599
36536W        W 2945  14.264   6.785   3.500
36537W        W 2946  14.113  40.960   1.227
36538W        W 2947  13.999   5.756  11.113
36539W        W 2948  34.069  43.065  11.266
36540W        W 2949   8.850  17.303   1.172
36541W        W 2950  26.529   7.693  10.213
36542W        W 2951  29.944   0.661   0.321
36543W        W 2952   2.131  38.384   1.690
36544W        W 2953   0.393  44.790  10.624
36545W        W 2954  32.596  21.786   0.382
36546W        W 2955  43.982   6.810   2.703
36547W        W 2956  11.828  13.861  11.421
36548W        W 2957  15.044   6.667  12.932
36549W        W 2958   1.763  17.488   3.646
36550W        W 2959  42.799  20.159   0.793
36551W        W 2960  36.418   9.783   2.951
36552W        W 2961  37.801  13.862   1.689
36553W        W 2962  41.421  18.138  12.966
36554W        W 2963  42.840  17.121  14.272
36555W        W 2964  20.802  25.160  10.478
36556W        W 2965  41.778  29.134  14.227
36557W        W 2966   7.243  17.186   5.029
36558W        W 2967  12.876  26.214   0.826
36559W        W 2968   8.173  22.321   0.416
36560W        W 2969  29.598  29.480   1.943
36561W        W 2970  31.270  28.635  13.024
36562W        W 2971  21.079  19.788   2.324
36563W        W 2972   2.035  19.985  11.085
36564W        W 2973  43.477  37.504  11.630
36565W        W 2974   3.964  19.867   0.358
36566W        W 2975  11.313  37.845   2.765
36567W        W 2976  40.401   6.757   2.380
36568W        W 2977   8.827   9.804   1.359
36569W        W 2978   4.932  39.136  10.947
36570W        W 2979  17.535  34.172  14.418
36571W        W 2980  41.907  44.042   3.302
36572W        W 2981   4.425  27.627   4.963
36573W        W 2982   8.910  43.866   4.789
36574W        W 2983  10.054  12.867  13.912
36575W        W 2984  32.884  18.573   2.860
36576W        W 2985  19.045   3.765  10.781
36577W        W 2986  21.827  31.449  14.702
36578W        W 2987  15.345  40.386  10.417
36579W        W 2988  18.155  36.932  13.945
36580W        W 2989   9.221   6.166  12.384
36581W        W 2990   4.747  14.734  10.694
36582W        W 2991  25.701   0.336   4.759
36583W        W 2992  26.548  24.788   1.473
36584W        W 2993  13.883   0.372   3.767
36585W        W 2994  12.370  41.826  12.074
36586W        W 2995  25.380   0.787   0.882
36587W        W 2996   9.751  27.183  11.642
36588W        W 2997   5.711   4.214  13.369
36589W        W 2998  16.888  18.120  11.978
36590W        W 2999  37.935  31.519   4.800
36591W        W 3000  13.688  42.859  11.709
36592W        W 3001   4.749  41.803  11.541
36593W        W 3002  20.941  28.150  14.347
36594W        W 3003  10.778  15.733   0.236
36595W        W 3004  35.316   9.720   3.495
36596W        W 3005  37.436  22.661  10.485
36597W        W 3006  17.156  27.474  14.397
36598W        W 3007  17.893  25.110   3.202
36599W        W 3008  18.138  36.475   3.102
36600W        W 3009   0.102  10.364  11.603
36601W        W 3010  13.278  35.326   1.707
36602W        W 3011  38.574  39.529   0.897
36603W        W 3012  37.241  18.161   9.940
36604W        W 3013  29.731   4.659  11.479
36605W        W 3014   0.686  37.434   0.936
36606W        W 3015  21.477   8.806  14.753
36607W        W 3016  40.448  25.257  14.942
36608W        W 3017  32.923  39.912  12.112
36609W        W 3018  35.353  44.303   3.734
36610W        W 3019  31.189  43.851  11.490
36611W        W 3020  12.665  44.376   3.528
36612W        W 3021  35.019  42.046  12.959
36613W        W 3022  20.657  13.753  10.510
36614W        W 3023  35.558   1.766   0.555
36615W        W 3024   3.842  10.553   3.620
36616W        W 3025  21.497  35.904  13.100
36617W        W 3026  35.642  21.634  11.974
36618W        W 3027  42.415  30.411  13.892
36619W        W 3028   4.204   7.585   4.758
36620W        W 3029  18.207  23.053   3.468
36621W        W 3030  12.954   2.268   2.412
36622W        W 3031  11.445  16.338  13.796
36623W        W 3032  35.317  29.626  11.143
36624W        W 3033   5.357  39.400   2.688
36625W        W 3034  27.804  35.498  11.594
36626W        W 3035  37.644  10.378  13.325
36627W        W 3036  16.514  17.778  10.785
36628W        W 3037  26.117  20.808  10.748
36629W        W 3038  34.829   6.070  12.384
36630W        W 3039  12.156  23.741  14.427
36631W        W 3040  36.810  24.531   0.792
36632W        W 3041  31.440  34.407   3.592
36633W        W 3042   6.117  23.655   0.335
36634W        W 3043  44.395  15.673   2.279
36635W        W 3044  20.791  44.921   0.837
36636W        W 3045  44.587  32.622  14.929
36637W        W 3046   2.188  12.084  10.678
36638W        W 3047  18.321  40.174   9.782
36639W        W 3048  14.891  23.044   1.039
36640W        W 3049  13.250  10.319   0.541
36641W        W 3050   9.294   0.917   1.142
36642W        W 3051  17.783  43.432   3.333
36643W        W 3052  42.385   3.270  13.975
36644W        W 3053  10.152  24.551  10.547
36645W        W 3054  30.601  11.794   3.285
36646W        W 3055  29.839  44.749   1.762
36647W        W 3056  19.337  19.719  13.549
36648W        W 3057  11.902  23.040   2.913
36649W        W 3058  10.720  22.234   1.304
36650W        W 3059   7.418  12.257   4.563
36651W        W 3060  12.383  30.035  14.500
36652W        W 3061  16.936  37.086   4.667
36653W        W 3062  26.902  21.051   0.066
36654W        W 3063  19.459  22.174   9.836
36655W        W 3064  28.241  18.116   3.170
36656W        W 3065   7.388  18.299   2.731
36657W        W 3066  44.230   5.283   4.230
36658W        W 3067  35.428   3.415  10.318
36659W        W 3068  41.941  19.262   2.771
36660W        W 3069  23.247  33.329  11.123
36661W        W 3070  36.613  23.950  14.459
36662W        W 3071  14.424  44.947   2.362
36663W        W 3072  39.992  13.061   3.120
36664W        W 3073  21.248  13.086   0.798
36665W        W 3074   9.612  34.445   4.212
36666W        W 3075   6.487  28.463  11.452
36667W        W 3076  35.690  25.611  11.710
36668W        W 3077  39.985  28.881  12.631
36669W        W 3078  12.635  34.529   3.744
36670W        W 3079  14.194  43.977  14.462
36671W        W 3080  34.997  44.829   2.818
36672W        W 3081  35.330  36.108   2.821
36673W        W 3082  36.340  39.995   4.198
36674W        W 3083   0.759  44.914   2.817
36675W        W 3084  12.246  42.977  13.530
36676W        W 3085  33.453   5.729   0.858
36677W        W 3086  21.761   4.663  11.857
36678W        W 3087  43.293  19.719   4.555
36679W        W 3088  29.201  10.387  11.137
36680W        W 3089  28.006  19.858  10.646
36681W        W 3090  18.594  33.597  12.963
36682W        W 3091  30.904   7.032  14.959
36683W        W 3092  39.018  37.032  12.336
36684W        W 3093  26.557   6.418   5.461
36685W        W 3094  23.772  25.016  14.915
36686W        W 3095  29.605  37.419   1.606
36687W        W 3096  39.795  31.405  10.813
36688W        W 3097  25.938  40.086  10.798
36689W        W 3098  30.516  22.272  11.514
36690W        W 3099   4.913  23.711  12.855
36691W        W 3100  34.545   7.600   4.482
36692W        W 3101   1.487  17.100  11.040
36693W        W 3102  33.402   0.827  13.339
36694W        W 3103  20.367  11.681   4.123
36695W        W 3104  12.782  24.693  13.449
36696W        W 3105  13.265  21.075   3.613
36697W        W 3106   8.883  15.797   2.756
36698W        W 3107   9.634  44.974  12.703
36699W        W 3108  29.855  42.943   4.601
36700W        W 3109  31.742  10.524  14.965
36701W        W 3110  15.598  26.164  12.876
36702W        W 3111  41.021   9.027  12.394
36703W        W 3112   8.840  28.464  13.911
36704W        W 3113  30.169  43.592  11.866
36705W        W 3114  27.085   2.865   2.898
36706W        W 3115  15.504  23.957   3.734
36707W        W 3116  26.459   5.338   4.615
36708W        W 3117  35.157   1.384   2.496
36709W        W 3118  40.593  37.421  10.535
36710W        W 3119  25.131   6.403   3.667
36711W        W 3120   4.476  44.560  12.117
36712W        W 3121   7.602  32.529   4.069
36713W        W 3122   2.002  39.787   0.814
36714W        W 3123  35.344  40.767  13.826
36715W        W 3124   7.344  42.932  12.100
36716W        W 3125  14.057  38.552   3.033
36717W        W 3126  36.882  29.487   4.130
36718W        W 3127  15.809  29.902  11.409
36719W        W 3128  36.397  25.633   0.343
36720W        W 3129   1.408  13.787   3.893
36721W        W 3130  32.848  19.713  11.613
36722W        W 3131  36.314   1.858  14.362
36723W        W 3132   3.840   5.143   2.865
36724W        W 3133  40.014  32.041   3.200
36725W        W 3134  26.956  17.544  10.208
36726W        W 3135   6.816   9.667  13.775
36727W        W 3136   1.512  17.984  11.663
36728W        W 3137   5.629  30.979  14.804
36729W        W 3138  36.156  34.887   4.678
36730W        W 3139  20.652   8.934   3.189
36731W        W 3140  13.329  43.961   4.644
36732W        W 3141   8.321  36.720  14.345
36733W        W 3142  37.348  35.135   1.599
36734W        W 3143   6.331  20.750   1.233
36735W        W 3144  13.684  32.964   1.543
36736W        W 3145  13.892  38.460  11.599
36737W        W 3146  14.589  18.817   2.691
36738W        W 3147   2.902   4.896  11.555
36739W        W 3148  16.396  16.502  14.944
36740W        W 3149  20.855  23.563   0.938
36741W        W 3150  24.245   5.035  12.960
36742W        W 3151  33.342  10.316   2.225
36743W        W 3152  13.645  38.553   2.184
36744W        W 3153  44.754   3.756  14.827
36745W        W 3154  34.449  29.174   3.129
36746W        W 3155   2.778  42.917  11.436
36747W        W 3156  35.664  28.552   1.956
36748W        W 3157  19.111  33.892   0.286
36749W        W 3158   8.366  40.977   3.679
36750W        W 3159  26.938  42.754  11.665
36751W        W 3160   5.578  16.758  14.427
36752W        W 3161  38.473  35.252   0.455
36753W        W 3162  27.978  18.565  14.687
36754W        W 3163  29.623  30.858  10.925
36755W        W 3164  38.262  39.495   3.234
36756W        W 3165  15.802  11.764  14.401
36757W        W 3166  18.805  26.059  11.497
36758W        W 3167  43.310  39.472  13.680
36759W        W 3168  38.117   7.280  14.688
36760W        W 3169   2.838  30.632   1.849
36761W        W 3170  18.666  43.889   3.961
36762W        W 3171  23.950  21.149   3.650
36763W        W 3172  10.280   1.048   1.412
36764W        W 3173  32.142  34.022  13.303
36765W        W 3174  43.279  15.910   1.776
36766W        W 3175  32.409  16.569   0.724
36767W        W 3176  28.264  31.621  13.946
36768W        W 3177  28.082  41.265  10.653
36769W        W 3178   0.432  13.261  10.373
36770W        W 3179  29.458   2.396  13.815
36771W        W 3180  11.636  25.859   2.650
36772W        W 3181  38.034  44.412  11.752
36773W        W 3182  17.652  31.382   1.848
36774W        W 3183  38.966  28.531  13.322
36775W        W 3184  41.966  19.054  10.437
36776W        W 3185   0.354  19.279  13.551
36777W        W 3186  39.087  13.798  12.992
36778W        W 3187   6.289   6.313   4.029
36779W        W 3188  23.407  44.978   3.699
36780W        W 3189   3.366  39.493   0.493
36781W        W 3190   9.144  38.375   1.425
36782W        W 3191   0.164  22.528   2.760
36783W        W 3192  19.249   3.068  11.900
36784W        W 3193  39.239  13.349  13.847
36785W        W 3194   0.519   6.509   0.852
36786W        W 3195  31.013  19.857  13.398
36787W        W 3196  22.537  42.366   3.048
36788W        W 3197  35.543  18.273  13.595
36789W        W 3198  21.597  43.926   1.434
36790W        W 3199  37.585  23.551  12.122
36791W        W 3200  39.441  20.523   2.607
36792W        W 3201   1.496  14.286  14.219
36793W        W 3202  36.455   3.016  11.198
36794W        W 3203  38.003   3.993  11.950
36795W        W 3204   2.786  40.894   2.991
36796W        W 3205  41.003  43.820  14.460
36797W        W 3206  26.531  19.739  13.568
36798W        W 3207  18.742   8.748  13.868
36799W        W 3208  10.695   0.168  11.324
36800W        W 3209  17.956  33.377   1.532
36801W        W 3210  26.637   0.802   0.800
36802W        W 3211  18.518  32.997  14.607
36803W        W 3212  34.817  40.533  13.018
36804W        W 3213  17.338   6.490  14.759
36805W        W 3214  38.507  11.126  13.525
36806W        W 3215  12.280  37.139   0.287
36807W        W 3216  19.778  44.898   0.701
36808W        W 3217   6.313  12.048   4.175
36809W        W 3218   4.305  33.020   3.836
36810W        W 3219  10.774  31.874   4.221
36811W        W 3220  11.343  38.879   2.768
36812W        W 3221  30.863   4.959   3.547
36813W        W 3222  38.051  30.608  13.344
36814W        W 3223  18.772  17.665   1.887
36815W        W 3224  33.566  39.835   5.319
36816W        W 3225  17.222  29.997   1.746
36817W        W 3226   1.318  39.329  10.674
36818W        W 3227   8.955  44.769   4.143
36819W        W 3228  33.419  35.301  13.982
36820W        W 3229  20.707  37.860  10.393
36821W        W 3230  29.860  26.488  14.855
36822W        W 3231   7.878   2.272   2.393
36823W        W 3232  27.806  38.246  14.786
36824W        W 3233  39.898   6.559   1.159
36825W        W 3234  41.211   9.548   3.338
36826W        W 3235  31.442   9.178   2.214
36827W        W 3236  37.806  42.457  12.110
36828W        W 3237  42.979  38.537   4.808
36829W        W 3238  25.206  17.177  11.627
36830W        W 3239  44.787  29.388   2.784
36831W        W 3240  42.129  17.121  12.857
36832W        W 3241  26.778  24.429   3.241
36833W        W 3242  42.359  32.904  14.458
36834W        W 3243  22.537   6.435  12.521
36835W        W 3244  11.089  41.481   2.910
36836W        W 3245  38.760  38.617   0.774
36837W        W 3246  17.696  35.939   0.695
36838W        W 3247   3.252  14.675  13.190
36839W        W 3248  14.212  14.899   3.426
36840W        W 3249  25.480  42.686   0.896
36841W        W 3250   3.851  41.042  14.259
36842W        W 3251  32.336   6.123  11.450
36843W        W 3252  44.757  24.571   3.984
36844W        W 3253  38.500  21.464   1.665
36845W        W 3254  28.502   4.861   1.026
36846W        W 3255  22.197  22.101  10.198
36847W        W 3256  40.631  11.126   0.395
36848W        W 3257  20.120  33.605   0.344
36849W        W 3258  10.577   9.290   2.919
36850W        W 3259  11.490  20.637  14.342
36851W        W 3260  21.137   6.675   0.916
36852W        W 3261  11.690  16.164   0.917
36853W        W 3262  22.806  16.044  13.231
36854W        W 3263  27.555  29.459  12.192
36855W        W 3264  26.188  44.729  11.426
36856W        W 3265   3.532  43.496   1.940
36857W        W 3266  21.554  32.700  14.278
36858W        W 3267  39.084  26.731   3.744
36859W        W 3268   4.812   1.167   0.984
36860W        W 3269  39.848  23.155   1.337
36861W        W 3270  39.010  35.562   3.416
36862W        W 3271  25.725  15.325   0.780
36863W        W 3272   1.664  26.409   1.231
36864W        W 3273  26.136  39.120  13.380
36865W        W 3274  15.134  41.735   3.478
36866W        W 3275  44.402  22.368   0.729
36867W        W 3276  11.242  41.208  14.429
36868W        W 3277   1.322  22.381  12.113
36869W        W 3278  32.070  15.277   0.901
36870W        W 3279  26.206  32.456  14.956
36871W        W 3280  30.716  24.029   3.233
36872W        W 3281  12.465  25.100   4.901
36873W        W 3282  24.938   2.264  10.779
36874W        W 3283   6.779  23.473   0.839
36875W        W 3284  25.579  11.618   4.597
36876W        W 3285  14.556   0.837  11.126
36877W        W 3286  33.970  32.370   2.383
36878W        W 3287   3.455  15.087   0.212
36879W        W 3288  43.076   1.372   3.432
36880W        W 3289   0.342  13.059   3.862
36881W        W 3290  23.932  20.452   0.832
36882W        W 3291  30.652  22.115  12.002
36883W        W 3292  23.096  39.731   3.078
36884W        W 3293  29.138   4.167  13.525
36885W        W 3294  32.508  40.611  14.717
36886W        W 3295  23.017  29.674  13.118
36887W        W 3296   7.949   9.930  11.100
36888W        W 3297  10.326  44.999  14.837
36889W        W 3298  43.890  44.447   0.408
36890W        W 3299   6.900   2.649   2.594
36891W        W 3300  12.721   4.198  13.977
36892W        W 3301  18.827  28.482  11.389
36893W        W 3302  43.724  35.270   4.931
36894W        W 3303  37.913  16.879   0.246
36895W        W 3304  39.087  12.333   2.710
36896W        W 3305  40.497  41.204   2.623
36897W        W 3306   3.412  39.648  14.133
36898W        W 3307  23.984  15.021  14.308
36899W        W 3308  41.873  43.326   2.426
36900W        W 3309  20.389  33.155   0.290
36901W        W 3310  34.413  34.631  10.632
36902W        W 3311  40.557   1.578  11.996
36903W        W 3312  34.165  35.253   1.612
36904W        W 3313  29.050  37.087  10.703
36905W        W 3314  30.497   1.896  13.389
36906W        W 3315  14.787  33.189  10.389
36907W        W 3316  13.719  34.654  10.560
36908W        W 3317   4.322  24.218  13.897
36909W        W 3318  24.154   2.518  13.218
36910W        W 3319  14.570  15.616   4.200
36911W        W 3320  25.595  15.297  13.014
36912W        W 3321   7.589  11.859  11.133
36913W        W 3322  36.513  10.685   0.034
36914W        W 3323  11.579  20.556  12.011
36915W        W 3324  29.010  31.258   3.579
36916W        W 3325  26.266   1.268  12.549
36917W        W 3326   6.277   0.691  14.502
36918W        W 3327  40.570   9.172   5.493
36919W        W 3328  11.099  34.628  13.024
36920W        W 3329  21.499  29.154   3.191
36921W        W 3330  12.731  13.721   4.847
36922W        W 3331  17.529  23.476   2.889
36923W        W 3332  15.220  31.554   0.533
36924W        W 3333   0.533  10.229   4.128
36925W        W 3334  15.298  12.168  11.619
36926W        W 3335  32.858  29.041  14.318
36927W        W 3336  23.267  30.643  13.060
36928W        W 3337  32.755  19.666  10.251
36929W        W 3338  22.479  12.782  13.503
36930W        W 3339  22.755  31.189   1.312
36931W        W 3340  29.464  36.559  14.397
36932W        W 3341  38.028  44.355  11.252
36933W        W 3342  24.459   8.033  11.067
36934W        W 3343  34.867  14.281   4.236
36935W        W 3344   6.287  41.555   1.630
36936W        W 3345   0.162  24.975   0.761
36937W        W 3346  34.607  34.944  12.415
36938W        W 3347  43.992   2.814  12.439
36939W        W 3348  39.463  36.947   4.391
36940W        W 3349  20.183  12.160   3.876
36941W        W 3350   3.687   0.559   1.800
36942W        W 3351  31.829   7.490   5.020
36943W        W 3352  26.597   0.470  14.419
36944W        W 3353  44.953  10.898  13.155
36945W        W 3354  32.473  42.943   2.196
36946W        W 3355  32.839  19.088   2.329
36947W        W 3356   1.391  12.069   3.303
36948W        W 3357  42.570  12.474   4.025
36949W        W 3358  28.978  20.291   0.808
36950W        W 3359   6.971  44.514   1.686
36951W        W 3360   2.271  39.869  14.272
36952W        W 3361  30.288  21.263  10.748
36953W        W 3362  43.749   7.779   3.662
36954W        W 3363  42.528   7.970   2.270
36955W        W 3364  19.689  29.609   3.387
36956W        W 3365  36.155  41.925   3.734
36957W        W 3366   4.249  33.424   4.481
36958W        W 3367   0.762  38.302   2.210
36959W        W 3368   3.347  20.376  13.964
36960W        W 3369  26.327  11.753   4.054
36961W        W 3370  42.522  38.083  11.548
36962W        W 3371  40.417  15.157   0.707
36963W        W 3372  43.381   8.153  14.249
36964W        W 3373   8.857  33.463  14.793
36965W        W 3374   8.847  27.106   1.582
36966W        W 3375   8.149  14.660  10.800
36967W        W 3376   1.355  25.594  11.626
36968W        W 3377   0.849  44.526  10.726
36969W        W 3378  31.093   0.362   0.746
36970W        W 3379  34.537   3.894  12.561
36971W        W 3380  11.812   8.144   2.334
36972W        W 3381   1.989  10.183   4.677
36973W        W 3382  30.224   9.474  13.429
36974W        W 3383  43.771  37.113   4.641
36975W        W 3384  30.480  29.593  13.563
36976W        W 3385   3.829  17.229   3.591
36977W        W 3386   7.964   5.917   3.715
36978W        W 3387  34.539  12.740   3.276
36979W        W 3388  24.485  25.775   4.157
36980W        W 3389  44.047   6.915  10.289
36981W        W 3390  38.854  36.665   4.236
36982W        W 3391  23.535  24.062  14.144
36983W        W 3392  42.055  29.086  12.922
36984W        W 3393  34.515  25.107   1.584
36985W        W 3394  21.136  39.396  13.292
36986W        W 3395  41.861  16.519  11.129
36987W        W 3396  44.020   4.123   3.824
36988W        W 3397  18.034  20.198   3.270
36989W        W 3398  38.398  22.609  14.593
36990W        W 3399  21.611   3.121   2.874
36991W        W 3400  44.081  27.555   1.322
36992W        W 3401  13.001   0.946   1.014
36993W        W 3402   9.791  37.803   3.689
36994W        W 3403  32.847  14.251   0.279
36995W        W 3404   6.049  41.742   2.087
36996W        W 3405  24.008   8.026  13.306
36997W        W 3406  17.703  38.836  13.734
36998W        W 3407  16.204  32.576  12.736
36999W        W 3408  29.074  30.928   0.672
37000W        W 3409  17.788  37.842   1.296
37001W        W 3410   3.003  10.987  12.730
37002W        W 3411  22.717  31.875  11.840
37003W        W 3412  12.711  40.911  11.629
37004W        W 3413   5.444   2.626   0.561
37005W        W 3414  31.003  13.120   4.298
37006W        W 3415  20.238  33.588   2.143
37007W        W 3416   2.522  20.715   2.821
37008W        W 3417  25.592  13.526  12.187
37009W        W 3418  30.274   5.279   4.148
37010W        W 3419  42.798  19.781   2.843
37011W        W 3420  25.224  28.857  13.270
37012W        W 3421  10.855  28.193  10.503
37013W        W 3422  18.714  36.777   4.693
37014W        W 3423   4.397   2.749   2.780
37015W        W 3424  32.392  15.413  13.047
37016W        W 3425  37.997  27.464   3.136
37017W        W 3426  24.927  32.354   3.701
37018W        W 3427  32.725  23.616  12.529
37019W        W 3428   4.305  29.656  12.191
37020W        W 3429  40.847  33.928   3.237
37021W        W 3430  37.056  24.064   2.969
37022W        W 3431   0.971  27.517  14.427
37023W        W 3432   1.839   2.324  14.623
37024W        W 3433  37.462  24.742   3.389
37025W        W 3434  44.932  33.331  13.457
37026W        W 3435   5.633  18.087   2.698
37027W        W 3436   7.316  41.478   4.429
37028W        W 3437   5.028  14.860   4.600
37029W        W 3438   5.027  18.548   1.199
37030W        W 3439  42.600  41.561  12.287
37031W        W 3440   7.222  17.553   3.109
37032W        W 3441  14.151  29.477  13.835
37033W        W 3442  10.679  39.056  10.734
37034W        W 3443  43.435   8.100  13.280
37035W        W 3444  15.741  27.178   2.729
37036W        W 3445   0.851  39.957  13.807
37037W        W 3446  38.478  41.594  11.446
37038W        W 3447   1.191   3.054  12.417
37039W        W 3448  26.261   8.461   0.793
37040W        W 3449  41.721  18.246  14.749
37041W        W 3450  31.926  23.262   3.223
37042W        W 3451  37.828  13.770  11.107
37043W        W 3452   8.977   5.964  10.288
37044W        W 3453  15.175  17.498   1.199
37045W        W 3454  33.691  32.483   2.802
37046W        W 3455   6.822  39.293   3.815
37047W        W 3456  30.585  36.940  11.651
37048W        W 3457  43.785  13.186   4.825
37049W        W 3458  23.067  43.095   0.326
37050W        W 3459  11.083  26.913   3.308
37051W        W 3460  35.314  17.146   2.695
37052W        W 3461  18.772  38.161  13.198
37053W        W 3462  40.136  22.441  14.642
37054W        W 3463  35.085  41.743  10.847
37055W        W 3464  26.002  31.230   1.341
37056W        W 3465  22.896  18.648  13.031
37057W        W 3466  40.950  10.379   2.305
37058W        W 3467   8.300  26.061  12.580
37059W        W 3468   3.594  24.592  10.222
37060W        W 3469  22.937  28.097  13.954
37061W        W 3470  11.775  22.100  11.517
37062W        W 3471  39.801  36.538   2.571
37063W        W 3472   0.454  12.500  13.647
37064W        W 3473  19.026  28.977  14.867
37065W        W 3474  31.279   8.332   2.458
37066W        W 3475   8.204   2.743  12.110
37067W        W 3476  14.819   3.961  10.700
37068W        W 3477  10.180  29.950   4.870
37069W        W 3478  35.902  23.061   2.015
37070W        W 3479  22.577  19.150   1.821
37071W        W 3480   6.760   7.829  14.017
37072W        W 3481  17.805  20.581  13.360
37073W        W 3482  12.713  22.482  12.880
37074W        W 3483  42.956   7.322   5.207
37075W        W 3484  33.634  22.253  14.090
37076W        W 3485  37.889  26.744   0.580
37077W        W 3486  30.272   9.675   9.840
37078W        W 3487  28.182  41.887   2.211
37079W        W 3488   7.336  42.140  14.657
37080W        W 3489  17.685  40.878   4.152
37081W        W 3490  43.790   7.721  14.171
37082W        W 3491  30.047  10.073   0.245
37083W        W 3492  13.069  38.603   1.252
37084W        W 3493  31.371  38.916  14.842
37085W        W 3494  44.165  23.794   1.866
37086W        W 3495   1.897   7.420  11.179
37087W        W 3496  29.146   8.145  11.554
37088W        W 3497  23.397  35.506  13.097
37089W        W 3498   6.629   8.967   1.408
37090W        W 3499  19.559  11.858  14.884
37091W        W 3500  21.996  17.518   3.699
37092W        W 3501   2.628  27.948   0.426
37093W        W 3502  11.080  13.800  14.102
37094W        W 3503   9.832  39.044   1.525
37095W        W 3504   8.278  31.483   3.597
37096W        W 3505  25.750   5.768  10.323
37097W        W 3506   5.905  24.653   0.025
37098W        W 3507   5.154   4.312   4.129
37099W        W 3508  17.777  15.380  12.964
37100W        W 3509   5.357  36.495  12.322
37101W        W 3510  17.863  27.344  11.216
37102W        W 3511  30.160  35.824   1.288
37103W        W 3512  35.286  30.073   0.815
37104W        W 3513  22.543  22.663   1.678
37105W        W 3514  27.037  40.320   4.227
37106W        W 3515  40.413   2.746  13.369
37107W        W 3516   2.529  17.239   4.653
37108W        W 3517   3.954  17.601  11.260
37109W        W 3518  15.214   6.239  13.633
37110W        W 3519  39.304   4.198   4.872
37111W        W 3520  23.325  29.387   2.285
37112W        W 3521   9.174  23.115   2.410
37113W        W 3522  42.799  21.979   3.765
37114W        W 3523  39.474   3.782  11.138
37115W        W 3524  19.251  33.389   0.180
37116W        W 3525  33.879  13.290   3.957
37117W        W 3526  19.272  11.588  11.642
37118W        W 3527   0.786  18.218   2.784
37119W        W 3528  27.120  32.161  11.688
37120W        W 3529  31.686  41.934  11.056
37121W        W 3530  21.022  32.347  12.452
37122W        W 3531  16.705  28.410  10.517
37123W        W 3532  22.117   1.241  12.143
37124W        W 3533   3.277   0.888  11.704
37125W        W 3534   5.577  23.013   2.873
37126W        W 3535  27.021  31.967   2.276
37127W        W 3536  11.796  27.441   3.497
37128W        W 3537   4.611  19.658   0.836
37129W        W 3538  18.457  22.436  11.880
37130W        W 3539  19.075  43.222   0.939
37131W        W 3540  35.603  20.470   3.646
37132W        W 3541  14.538  41.951  13.338
37133W        W 3542  23.242  41.636  12.016
37134W        W 3543   5.397  16.090  10.782
37135W        W 3544  20.171  32.691   1.627
37136W        W 3545  24.080   7.991   1.649
37137W        W 3546   0.960   7.618  13.894
37138W        W 3547  10.594  11.435   0.323
37139W        W 3548  22.453  28.105   2.277
37140W        W 3549  17.832   6.187  11.379
37141W        W 3550  22.274  24.496  12.542
37142W        W 3551  20.706  17.570  13.729
37143W        W 3552  18.076  19.411  14.956
37144W        W 3553  44.726   7.171   3.114
37145W        W 3554   1.817  29.938  12.455
37146W        W 3555  25.555   3.684  11.489
37147W        W 3556  37.105  41.705  12.575
37148W        W 3557  13.598   7.354  12.189
37149W        W 3558  19.960  26.618   0.068
37150W        W 3559  28.652  37.411  11.166
37151W        W 3560  17.867  17.199  12.523
37152W        W 3561   4.105  44.719  12.976
37153W        W 3562  28.123   7.327  11.022
37154W        W 3563  13.668  44.440  11.532
37155W        W 3564  42.306  20.533   0.474
37156W        W 3565  11.224  39.402  14.926
37157W        W 3566  41.441  35.416  10.747
37158W        W 3567   1.150  11.261  14.085
37159W        W 3568  42.903   1.485  13.038
37160W        W 3569  11.287  39.798  12.000
37161W        W 3570  35.557  20.751  12.112
37162W        W 3571   8.041  39.453  14.749
37163W        W 3572  34.682  36.384  13.546
37164W        W 3573  44.539  35.869   3.882
37165W        W 3574   3.216  30.208   4.932
37166W        W 3575  27.524   9.388  12.029
37167W        W 3576  14.856  40.992   0.486
37168W        W 3577  38.317   6.989   3.798
37169W        W 3578  30.281  23.040  11.223
37170W        W 3579  15.246   5.114  13.588
37171W        W 3580  10.657  15.460  12.874
37172W        W 3581  38.571  44.455  11.693
37173W        W 3582  31.860  32.731  13.129
37174W        W 3583  41.945  29.143   0.412
37175W        W 3584  25.506   9.530   3.129
37176W        W 3585  17.291   4.085   1.738
37177W        W 3586  11.133  42.437   2.510
37178W        W 3587  30.061   8.757  10.853
37179W        W 3588  31.759  25.419  10.759
37180W        W 3589   7.606  34.074   4.013
37181W        W 3590   9.937  27.920  12.736
37182W        W 3591  29.422  36.568  11.212
37183W        W 3592   9.708  18.966  12.060
37184W        W 3593  34.489  27.411  14.820
37185W        W 3594   9.711   2.735   1.365
37186W        W 3595  26.679  19.077  10.427
37187W        W 3596  13.694  15.352   1.922
37188W        W 3597  14.095  25.871  11.815
37189W        W 3598  33.075   2.877   2.158
37190W        W 3599   5.361  33.123   2.304
37191W        W 3600   5.575   5.212  14.856
37192W        W 3601  38.733  23.383   3.189
37193W        W 3602   2.788   2.215   3.730
37194W        W 3603   9.632  27.272   1.905
37195W        W 3604  27.049  42.047   3.230
37196W        W 3605  25.491  11.148  12.629
37197W        W 3606  29.708  15.515   5.114
37198W        W 3607   8.139  38.476   1.373
37199W        W 3608  17.340  38.446   5.174
37200W        W 3609  10.236  20.994  14.714
37201W        W 3610  33.260  42.700   1.764
37202W        W 3611  26.736  31.170   1.620
37203W        W 3612  29.627  15.992   4.261
37204W        W 3613  24.570  29.008  12.587
37205W        W 3614  37.332  10.767  13.448
37206W        W 3615  19.061  14.812   1.951
37207W        W 3616  33.845  35.464  14.986
37208W        W 3617   1.356  40.383   3.723
37209W        W 3618   3.091  13.131   4.046
37210W        W 3619  22.726   2.991  10.762
37211W        W 3620  33.452  10.832   2.801
37212W        W 3621  15.887  18.756  13.859
37213W        W 3622  17.024   4.710  13.418
37214W        W 3623  19.527  27.457   3.582
37215W        W 3624  25.119  33.589  14.570
37216W        W 3625  40.455  31.930   1.465
37217W        W 3626  19.753   2.672  13.938
37218W        W 3627   4.408  35.267  11.075
37219W        W 3628  23.293  28.865   0.909
37220W        W 3629  24.609  23.078  11.766
37221W        W 3630  23.190   1.035   3.431
37222W        W 3631  14.717  28.713  14.289
37223W        W 3632  13.661  36.682  11.095
37224W        W 3633  25.651  16.139  14.097
37225W        W 3634  38.859  18.785  13.206
37226W        W 3635  32.968  25.207   0.205
37227W        W 3636  21.077  20.495  12.790
37228W        W 3637   8.941  19.952   1.920
37229W        W 3638  24.936  42.921   2.657
37230W        W 3639   3.907   5.413   2.249
37231W        W 3640  28.207  37.105  12.611
37232W        W 3641   6.829  37.770  12.851
37233W        W 3642  40.786  12.671   4.237
37234W        W 3643  39.754  25.563   2.283
37235W        W 3644  17.966   8.223   1.824
37236W        W 3645  15.378  40.527   3.777
37237W        W 3646  14.080  34.147  14.190
37238W        W 3647  10.257  18.683   1.194
37239W        W 3648  26.717  11.897   1.117
37240W        W 3649  18.346  25.789   3.815
37241W        W 3650  11.026  10.601  14.258
37242W        W 3651   8.536  28.781   0.871
37243W        W 3652  18.938  28.957  13.953
37244W        W 3653   3.537  35.188   5.026
37245W        W 3654  39.780  18.716   3.575
37246W        W 3655  11.647  11.247   3.310
37247W        W 3656  26.062  13.870   4.767
37248W        W 3657  30.323  28.633  11.131
37249W        W 3658  32.616  29.121   1.399
37250W        W 3659  11.516  23.260  12.102
37251W        W 3660  29.924  40.450   1.813
37252W        W 3661  22.349  36.627  14.631
37253W        W 3662  17.182  13.231  12.133
37254W        W 3663  19.162  22.231   2.674
37255W        W 3664   2.248  15.344   1.894
37256W        W 3665  16.406  30.550   0.770
37257W        W 3666   0.494  41.385   2.718
37258W        W 3667  26.969  42.090  14.919
37259W        W 3668  31.516  33.085   1.401
37260W        W 3669  35.012  28.650   3.637
37261W        W 3670   9.770  14.815  11.218
37262W        W 3671  13.496   5.944  11.127
37263W        W 3672   8.773   8.752   1.233
37264W        W 3673  36.855  25.241  11.209
37265W        W 3674  36.398  33.005   3.673
37266W        W 3675  44.393  38.739   2.163
37267W        W 3676   1.925  25.535  14.034
37268W        W 3677  32.712  22.199   4.647
37269W        W 3678  25.166  25.164   3.534
37270W        W 3679  38.908   9.691   0.568
37271W        W 3680  38.915  15.377  14.581
37272W        W 3681  20.331  40.584   1.694
37273W        W 3682  40.031  11.564   3.733
37274W        W 3683  21.253  43.261  14.383
37275W        W 3684  24.112  16.850  13.811
37276W        W 3685   5.404   4.809  13.961
37277W        W 3686   9.861   7.352   0.389
37278W        W 3687  21.975  11.862  14.829
37279W        W 3688   2.286   6.253   2.297
37280W        W 3689  23.058  22.549   4.069
37281W        W 3690  10.289  25.489  11.569
37282W        W 3691  12.707  26.143   4.817
37283W        W 3692  20.599  44.985   1.309
37284W        W 3693  44.507  30.685  11.725
37285W        W 3694  22.784  31.891   9.910
37286W        W 3695  35.481  25.448  12.144
37287W        W 3696  25.555   0.101  12.023
37288W        W 3697   8.715   8.973   3.979
37289W        W 3698  19.619  18.781  13.080
37290W        W 3699  34.366  16.047  11.121
37291W        W 3700   4.007  10.763   2.234
37292W        W 3701  16.638  42.855   1.616
37293W        W 3702  35.837  42.018  11.172
37294W        W 3703   4.524   5.780   1.203
37295W        W 3704   5.143  25.727   2.766
37296W        W 3705   8.678   6.441  11.544
37297W        W 3706  42.819  36.085   1.669
37298W        W 3707  23.784   2.922   0.367
37299W        W 3708   3.331  30.638  13.993
37300W        W 3709  40.769  11.201   4.919
37301W        W 3710  36.911  32.829  12.085
37302W        W 3711  19.237  27.160   1.366
37303W        W 3712   9.392  20.605   2.399
37304W        W 3713  10.402  19.308  11.610
37305W        W 3714  40.038  44.280  14.498
37306W        W 3715  42.056  14.924  14.200
37307W        W 3716  20.535  15.607   0.749
37308W        W 3717  20.143  36.056  12.857
37309W        W 3718  25.070  23.131  12.269
37310W        W 3719   3.544  39.404   2.261
37311W        W 3720  23.654  21.511  14.031
37312W        W 3721  21.117  40.444   1.048
37313W        W 3722   4.842  36.873   4.849
37314W        W 3723  17.753   4.928  13.040
37315W        W 3724  40.305  19.059  12.415
37316W        W 3725  38.063  43.368  12.597
37317W        W 3726  43.875  12.936   3.768
37318W        W 3727  33.127  33.958   4.318
37319W        W 3728  11.194  16.271   0.991
37320W        W 3729  38.567   1.936   4.139
37321W        W 3730  21.075  14.530   1.696
37322W        W 3731  15.970   7.069  12.088
37323W        W 3732   7.237  44.106   2.334
37324W        W 3733   1.787  17.587  13.915
37325W        W 3734  20.303   2.868   4.630
37326W        W 3735   0.466  28.667   4.533
37327W        W 3736   8.642  17.554  13.014
37328W        W 3737  20.131  34.237   4.260
37329W        W 3738   2.282  27.105  14.061
37330W        W 3739  10.823  44.860   5.106
37331W        W 3740  33.176  17.592  13.446
37332W        W 3741  25.201  33.409  10.977
37333W        W 3742  25.674  22.569   9.997
37334W        W 3743  44.437  21.280  12.092
37335W        W 3744   9.722  23.881   9.798
37336W        W 3745  42.670  11.764  13.317
37337W        W 3746   1.416  38.310   2.447
37338W        W 3747   2.267  32.487   4.907
37339W        W 3748  44.045  13.717  11.242
37340W        W 3749  10.956  44.444  11.351
37341W        W 3750  24.272  35.181   5.121
37342W        W 3751  22.351  32.365  11.137
37343W        W 3752  37.829   4.666   0.633
37344W        W 3753  18.238  28.919   2.789
37345W        W 3754  13.813  30.800   3.380
37346W        W 3755  38.713  25.489  12.084
37347W        W 3756  30.574  28.915  13.356
37348W        W 3757  43.554  23.443  13.572
37349W        W 3758  22.117  43.861  11.078
37350W        W 3759  22.401   6.761   1.407
37351W        W 3760  37.950   1.227   2.429
37352W        W 3761  20.129  20.482   0.823
37353W        W 3762  34.219   4.953  13.863
37354W        W 3763  17.307  18.183   1.839
37355W        W 3764  33.904  21.223   3.769
37356W        W 3765  33.180  17.770  10.806
37357W        W 3766   7.753  17.344   1.004
37358W        W 3767  13.522  36.396  11.496
37359W        W 3768   8.936  23.839   2.229
37360W        W 3769  37.098  23.796  13.931
37361W        W 3770  24.244   8.673   5.061
37362W        W 3771  10.223  43.953   4.113
37363W        W 3772   9.207   6.456  11.541
37364W        W 3773   5.502   2.340   2.265
37365W        W 3774   2.822  17.947   0.899
37366W        W 3775  18.608   2.806   3.193
37367W        W 3776  14.524  43.578   1.376
37368W        W 3777  39.963  13.575   3.183
37369W        W 3778  34.909  19.798   4.047
37370W        W 3779   0.216  11.804  14.886
37371W        W 3780  16.453  29.160  14.817
37372W        W 3781  36.024  12.895   4.111
37373W        W 3782  41.015  43.973   3.332
37374W        W 3783  13.162   0.801   2.284
37375W        W 3784   9.871  25.704   2.393
37376W        W 3785  33.644   8.087   0.321
37377W        W 3786  36.581  14.720   4.070
37378W        W 3787  32.022  17.459   0.345
37379W        W 3788  35.381   5.225  11.960
37380W        W 3789  21.665   6.281  10.624
37381W        W 3790  23.065  27.600  10.758
37382W        W 3791  41.200  25.449  12.576
37383W        W 3792   4.779  21.879  13.877
37384W        W 3793  10.125   3.044   3.627
37385W        W 3794  11.925  36.110  12.488
37386W        W 3795  43.446  14.680  10.602
37387W        W 3796   0.999   2.492  14.263
37388W        W 3797   5.777  44.207  10.665
37389W        W 3798  36.490  32.133   5.047
37390W        W 3799  37.201  36.575  11.179
37391W        W 3800  28.698  44.150   2.628
37392W        W 3801  31.996  17.092  11.188
37393W        W 3802  16.616   2.947  11.321
37394W        W 3803  31.068  32.481  12.612
37395W        W 3804  43.958   8.308  12.605
37396W        W 3805  27.898   4.237   2.262
37397W        W 3806  12.842  16.086   0.356
37398W        W 3807  16.245  28.945   4.617
37399W        W 3808   7.824  40.628   1.256
37400W        W 3809  37.076  44.061  14.451
37401W        W 3810  21.039   3.168  11.922
37402W        W 3811  18.704   9.573   2.326
37403W        W 3812  26.026   3.897  13.940
37404W        W 3813   3.175   1.500  12.511
37405W        W 3814  15.201  10.334   1.874
37406W        W 3815  33.093  11.239  10.991
37407W        W 3816  37.755   6.904  13.397
37408W        W 3817  29.583  21.259   1.395
37409W        W 3818  32.132  32.402   4.591
37410W        W 3819   6.221  35.532  13.587
37411W        W 3820  10.664  40.417  13.344
37412W        W 3821  40.126  20.143  12.584
37413W        W 3822  12.586  32.312   4.492
37414W        W 3823   4.362  15.663   2.912
37415W        W 3824   5.204  29.515  12.239
37416W        W 3825  15.257  13.629   4.177
37417W        W 3826  41.546   6.795   0.462
37418W        W 3827   7.136  24.951  14.899
37419W        W 3828  11.490  13.423   5.028
37420W        W 3829   5.125  13.232  10.875
37421W        W 3830  39.262  27.599   2.357
37422W        W 3831  33.838   8.530   3.180
37423W        W 3832  39.958   0.484   3.587
37424W        W 3833  36.190  12.789   1.901
37425W        W 3834  22.123  23.720   2.421
37426W        W 3835  18.539  25.209  13.905
37427W        W 3836   4.339  12.851   1.368
37428W        W 3837   8.148  36.844   2.414
37429W        W 3838  10.185  35.125  13.064
37430W        W 3839  30.892  40.590  13.519
37431W        W 3840  20.173  20.030  11.106
37432W        W 3841   3.644  20.202   1.547
37433W        W 3842   3.121  22.952   1.725
37434W        W 3843  29.394  11.187  14.015
37435W        W 3844  43.878  15.663  13.945
37436W        W 3845   4.042  33.617  11.750
37437W        W 3846   8.142  28.094   0.446
37438W        W 3847   4.719   3.341   4.072
37439W        W 3848  12.067  16.096   0.060
37440W        W 3849  35.120  34.358  11.355
37441W        W 3850   4.989  33.473   3.193
37442W        W 3851  13.297  44.855   4.479
37443W        W 3852   3.716   8.925   0.883
37444W        W 3853   8.817  34.501   0.211
37445W        W 3854  27.821  41.231   2.837
37446W        W 3855  12.248  41.465   3.161
37447W        W 3856  13.779  41.994  14.845
37448W        W 3857   9.192   1.609   0.840
37449W        W 3858  39.293  12.598   1.314
37450W        W 3859   7.380   5.317  10.707
37451W        W 3860   8.440  16.362   2.220
37452W        W 3861  39.358  35.915   0.759
37453W        W 3862  10.575   8.795  10.521
37454W        W 3863  17.740  43.743   2.869
37455W        W 3864  22.539  11.826   1.781
37456W        W 3865   5.526  31.478  11.959
37457W        W 3866   0.447  36.401   4.519
37458W        W 3867   7.857  31.539   1.274
37459W        W 3868  12.308  10.666  13.019
37460W        W 3869  13.065  18.822   1.919
37461W        W 3870  43.941  20.544  13.591
37462W        W 3871   3.365  22.723  11.999
37463W        W 3872  38.800   7.745  14.981
37464W        W 3873  32.701  36.440  11.030
37465W        W 3874  16.123   7.955  13.286
37466W        W 3875   5.153  41.930  10.660
37467W        W 3876  10.427  35.902   0.924
37468W        W 3877  38.648   9.859   4.509
37469W        W 3878  21.679   9.932  13.968
37470W        W 3879  23.481   1.861  12.799
37471W        W 3880  17.133  23.953  13.351
37472W        W 3881  25.985  28.992   0.284
37473W        W 3882   0.805  17.375   4.977
37474W        W 3883  11.231  22.674   1.947
37475W        W 3884  36.230  24.145   1.804
37476W        W 3885  25.525  20.791  11.138
37477W        W 3886  29.653   1.876   4.136
37478W        W 3887   3.251  34.643   4.247
37479W        W 3888  14.131  44.688  11.580
37480W        W 3889  10.752  24.455  11.186
37481W        W 3890  21.993  18.183  12.142
37482W        W 3891   8.844  17.254   3.245
37483W        W 3892  16.853  13.044  13.937
37484W        W 3893   4.921  10.599  13.512
37485W        W 3894  36.300  39.416   2.344
37486W        W 3895  29.127  29.214   1.185
37487W        W 3896  14.752  26.595  11.542
37488W        W 3897  36.565  27.853   2.739
37489W        W 3898   7.415  24.436  14.249
37490W        W 3899  20.209  27.098   0.353
37491W        W 3900  13.850  39.686   3.712
37492W        W 3901   0.813  45.000   3.687
37493W        W 3902  35.639  23.591  14.095
37494W        W 3903  25.986  40.871  14.917
37495W        W 3904  27.514  36.877   1.860
37496W        W 3905  36.432   9.921   3.431
37497W        W 3906  42.459  23.433   2.609
37498W        W 3907   0.645  41.402  14.840
37499W        W 3908  12.372  23.505   3.146
37500W        W 3909   5.095   6.183  12.338
37501W        W 3910  19.917  18.540   2.993
37502W        W 3911  40.123   3.272   4.252
37503W        W 3912  29.856  13.943  10.716
37504W        W 3913  12.334  19.537  14.428
37505W        W 3914  15.333  14.870   0.534
37506W        W 3915  23.627   7.777  10.772
37507W        W 3916  20.251  11.061  11.092
37508W        W 3917   6.761   1.379   3.755
37509W        W 3918  36.338  26.048   0.786
37510W        W 3919  16.671  35.701  13.531
37511W        W 3920  21.244  15.824   0.218
37512W        W 3921  35.588  10.178  11.091
37513W        W 3922  14.277  24.622   1.557
37514W        W 3923   2.445  13.898  12.083
37515W        W 3924   6.655  18.175  11.044
37516W        W 3925  22.760  42.872  11.068
37517W        W 3926  10.363  22.133  13.097
37518W        W 3927   6.507  27.653   3.748
37519W        W 3928  21.263   5.939   2.939
37520W        W 3929  30.410  31.433   4.199
37521W        W 3930  38.502  31.839   1.034
37522W        W 3931  14.273  24.079  13.797
37523W        W 3932  22.148  22.179   3.138
37524W        W 3933   1.899   7.248   1.434
37525W        W 3934  26.223   8.419  13.974
37526W        W 3935  34.702  21.039  10.948
37527W        W 3936   0.685   2.592  12.989
37528W        W 3937  17.259  34.540   3.655
37529W        W 3938   7.876   8.796   1.874
37530W        W 3939  11.743  27.679   0.884
37531W        W 3940  17.469  28.125  11.078
37532W        W 3941  11.729  13.308   2.415
37533W        W 3942  35.180  42.945  14.832
37534W        W 3943  19.493  30.226  12.951
37535W        W 3944  36.357  31.478   3.317
37536W        W 3945  17.495  24.891   2.663
37537W        W 3946  12.697  15.478   0.736
37538W        W 3947   4.938  36.701   2.396
37539W        W 3948  42.917   9.791   2.265
37540W        W 3949  20.507  15.249   4.761
37541W        W 3950  41.910  32.131   0.386
37542W        W 3951  41.506  19.517  12.785
37543W        W 3952   8.907  17.375  11.150
37544W        W 3953   9.072  17.143   2.014
37545W        W 3954   3.317  33.056   4.281
37546W        W 3955  42.058  25.411   2.716
37547W        W 3956   3.510  35.476   0.983
37548W        W 3957  19.581  25.082  14.901
37549W        W 3958  39.996  13.091   1.701
37550W        W 3959  30.953  30.720  11.147
37551W        W 3960  43.222  40.505   4.167
37552W        W 3961  34.294  28.965  11.590
37553W        W 3962  11.758  31.815  13.886
37554W        W 3963  25.962  29.999  11.519
37555W        W 3964   6.378  27.587   4.638
37556W        W 3965  27.634  32.167   2.831
37557W        W 3966  24.630   3.436  12.008
37558W        W 3967  42.455  11.311  14.371
37559W        W 3968  23.225  30.484  14.895
37560W        W 3969  10.509  15.084  13.571
37561W        W 3970  25.528  32.077   4.526
37562W        W 3971  38.285  31.491   2.344
37563W        W 3972   6.349  36.475  11.504
37564W        W 3973  23.766  38.813   4.143
37565W        W 3974   7.711  28.867   1.844
37566W        W 3975   3.829  15.293  12.422
37567W        W 3976  15.285   5.390  11.734
37568W        W 3977  20.544  26.107   2.216
37569W        W 3978  11.190  30.475  13.080
37570W        W 3979   3.846  22.665   2.402
37571W        W 3980  44.056  37.235   2.292
37572W        W 3981  20.085  23.155   3.363
37573W        W 3982   5.607  26.066   1.731
37574W        W 3983  13.170   3.122  12.030
37575W        W 3984  11.486  44.560  11.338
37576W        W 3985  39.150   1.228  12.988
37577W        W 3986  28.485  40.860  14.828
37578W        W 3987  41.388  43.447   4.329
37579W        W 3988  11.735   8.115  14.337
37580W        W 3989  21.362   8.205   3.344
37581W        W 3990  34.013  24.757   4.526
37582W        W 3991  31.918  10.218   3.589
37583W        W 3992   5.209  29.489   4.229
37584W        W 3993   0.700  24.016   3.312
37585W        W 3994   9.108  11.623  11.543
37586W        W 3995  44.423  21.804  10.788
37587W        W 3996  29.511  27.904  14.269
37588W        W 3997  11.625   4.322   2.730
37589W        W 3998  30.627  23.983   2.332
37590W        W 3999  35.624  19.767   0.577
37591W        W 4000  36.855  29.752  11.796
37592W        W 4001   2.133  22.120   3.365
37593W        W 4002  20.519   9.963  14.505
37594W        W 4003  39.119   0.387   1.228
37595W        W 4004   9.831  18.753   1.507
37596W        W 4005   9.337   4.899  14.711
37597W        W 4006  30.908   9.887   2.279
37598W        W 4007  31.979  38.564   3.730
37599W        W 4008  31.065  31.457   2.605
37600W        W 4009  41.798  31.871   0.809
37601W        W 4010   5.742   9.294  10.571
37602W        W 4011  38.628  25.601  12.959
37603W        W 4012  11.516  20.097   4.126
37604W        W 4013  21.599   0.374   2.881
37605W        W 4014   5.503  16.993  10.773
37606W        W 4015  23.225   2.710  11.350
37607W        W 4016  37.060   5.382   0.038
37608W        W 4017   7.420   4.982  12.541
37609W        W 4018   3.379  23.194  10.769
37610W        W 4019  11.392  18.595  12.021
37611W        W 4020  21.522  40.549   4.525
37612W        W 4021   2.886  18.101  13.051
37613W        W 4022  19.584  19.700  14.056
37614W        W 4023   0.851  11.558  11.645
37615W        W 4024   9.149  34.648   4.145
37616W        W 4025  40.336  12.688   1.334
37617W        W 4026  28.723  26.102   2.854
37618W        W 4027   3.395  38.061  11.966
37619W        W 4028  19.109  12.197   2.417
37620W        W 4029  37.532   5.743  10.687
37621W        W 4030  40.832  27.450  11.043
37622W        W 4031  38.044   3.604   1.811
37623W        W 4032  13.729  35.476  14.430
37624W        W 4033   5.869  17.900   4.898
37625W        W 4034  33.030  31.427   3.175
37626W        W 4035   0.822  32.312   3.209
37627W        W 4036  43.409  34.110   0.742
37628W        W 4037  18.391  36.738   3.934
37629W        W 4038  44.212  32.092  13.513
37630W        W 4039   0.401  44.461  14.063
37631W        W 4040  39.536  15.524  11.991
37632W        W 4041  16.649  39.986  11.605
37633W        W 4042  43.961  12.218  12.078
37634W        W 4043  18.133  31.753  11.252
37635W        W 4044  35.929  14.710  12.623
37636W        W 4045  27.758  28.120  12.054
37637W        W 4046  12.762  38.439  14.954
37638W        W 4047   8.869  37.054  11.037
37639W        W 4048  22.981  18.351   1.777
37640W        W 4049   7.347  13.101   0.903
37641W        W 4050  39.378   0.868   4.659
37642W        W 4051   2.810  28.617  12.959
37643W        W 4052  29.165  28.110  14.594
37644W        W 4053  33.704  37.946   0.803
37645W        W 4054  35.432   7.817   0.285
37646W        W 4055  27.895  41.101  13.004
37647W        W 4056   7.666  21.111  12.130
37648W        W 4057  10.777  23.222   4.645
37649W        W 4058  24.339  31.170  13.014
37650W        W 4059  37.062  19.991   4.589
37651W        W 4060  31.128   4.729  13.277
37652W        W 4061   6.481  43.799   1.002
37653W        W 4062  24.152  43.268   4.258
37654W        W 4063  12.725  34.849   4.617
37655W        W 4064  10.553  33.225  12.052
37656W        W 4065  37.615   4.295  14.583
37657W        W 4066   0.828  35.300  12.416
37658W        W 4067  40.802  19.852   0.302
37659W        W 4068  38.730  39.886  10.974
37660W        W 4069  10.904  36.426   0.210
37661W        W 4070  12.652  11.874  11.993
37662W        W 4071  29.707  44.038  11.548
37663W        W 4072  43.752  12.035  12.563
37664W        W 4073  32.958  12.859   0.697
37665W        W 4074  22.675   9.394   2.552
37666W        W 4075  25.955  16.197  10.947
37667W        W 4076  44.502  21.711  13.108
37668W        W 4077  33.689  10.742   3.797
37669W        W 4078  14.716  17.517   2.827
37670W        W 4079  21.973  16.294   3.084
37671W        W 4080  23.416  11.330  11.967
37672W        W 4081  22.758   5.380   0.225
37673W        W 4082  17.164  43.496  14.147
37674W        W 4083  35.890  19.912   1.909
37675W        W 4084  35.234   6.847  13.433
37676W        W 4085  44.819  31.221   4.168
37677W        W 4086  12.656  10.707   0.493
37678W        W 4087  29.112  20.599   1.745
37679W        W 4088  37.819  42.472   0.700
37680W        W 4089  40.857  39.920   1.843
37681W        W 4090   4.231  28.402   0.686
37682W        W 4091  11.121   9.648   2.196
37683W        W 4092  36.799  34.090  13.526
37684W        W 4093  18.022   5.292   3.768
37685W        W 4094  17.642  43.490   2.421
37686W        W 4095  41.221  36.096   3.414
37687W        W 4096   4.705   9.246   0.817
37688W        W 4097  23.773  12.838  12.461
37689W        W 4098  22.283  21.062  11.400
37690W        W 4099  35.509  29.220   4.173
37691W        W 4100   8.865  41.079  10.994
37692W        W 4101  33.467   8.945  12.868
37693W        W 4102  36.077  10.130   0.365
37694W        W 4103  22.537  20.047  12.559
37695W        W 4104  16.137  42.327   1.128
37696W        W 4105  40.172  28.217   0.247
37697W        W 4106  23.984  32.572   4.088
37698W        W 4107  20.706  42.773   2.296
37699W        W 4108  37.459  16.239   4.506
37700W        W 4109  28.012   3.147   2.367
37701W        W 4110  36.081  11.024  13.810
37702W        W 4111   5.781   7.000   4.047
37703W        W 4112   6.696  14.430  14.116
37704W        W 4113  22.458   3.709   3.736
37705W        W 4114  17.132  31.248   1.158
37706W        W 4115  42.356   3.357   2.456
37707W        W 4116  18.031  42.351   4.328
37708W        W 4117   6.432  41.730   3.842
37709W        W 4118  25.944  23.236  13.870
37710W        W 4119  16.635  32.826  12.977
37711W        W 4120   9.484  31.856   5.438
37712W        W 4121  30.621  11.663   2.326
37713W        W 4122  11.423   2.455  12.975
37714W        W 4123  22.798  36.494   0.925
37715W        W 4124  20.664  11.713  11.464
37716W        W 4125   4.446   7.891  11.886
37717W        W 4126  10.773   4.765  12.444
37718W        W 4127   0.676  38.034  11.143
37719W        W 4128   1.259  29.729   3.052
37720W        W 4129  40.512  13.268  10.758
37721W        W 4130  20.125  36.892  12.115
37722W        W 4131  27.535  13.374  10.839
37723W        W 4132  33.608  32.142  13.383
37724W        W 4133  23.058  27.436   0.510
37725W        W 4134  27.522  32.399   1.773
37726W        W 4135  36.770  39.554  12.086
37727W        W 4136   2.847  11.887  13.206
37728W        W 4137  29.499  16.775   3.834
37729W        W 4138  40.131  24.227   3.748
37730W        W 4139  20.208  32.055   2.312
37731W        W 4140  28.325   8.131   3.041
37732W        W 4141  37.460  13.328   0.936
37733W        W 4142  40.551  39.454  14.818
37734W        W 4143   8.760  38.073   3.213
37735W        W 4144  40.372  24.011   2.892
37736W        W 4145   1.460   9.154  10.627
37737W        W 4146  26.715  32.060  14.302
37738W        W 4147  40.461   6.574  11.486
37739W        W 4148  28.553  32.923  10.390
37740W        W 4149  22.565  42.974   0.391
37741W        W 4150  37.626  24.065   4.850
37742W        W 4151  43.481  16.862   1.862
37743W        W 4152  20.283  27.130   3.124
37744W        W 4153  22.209  38.024   0.792
37745W        W 4154  12.390  31.180  13.424
37746W        W 4155  43.661  13.693   4.873
37747W        W 4156  23.247  31.462   3.341
37748W        W 4157  18.421  17.447  12.684
37749W        W 4158   4.928   6.670   0.840
37750W        W 4159  38.288  37.321  12.309
37751W        W 4160  33.474  39.358  11.006
37752W        W 4161  35.681   3.581   0.884
37753W        W 4162  33.394  39.782  13.533
37754W        W 4163  24.309  20.106   0.735
37755W        W 4164  13.350  27.677   2.421
37756W        W 4165  13.356  27.474  11.114
37757W        W 4166  25.394  21.285  11.157
37758W        W 4167  19.614  30.112  12.118
37759W        W 4168  24.046   5.476  12.812
37760W        W 4169  21.374  13.842  12.058
37761W        W 4170   8.170  11.251  14.842
37762W        W 4171  37.073  23.962   3.469
37763W        W 4172  31.502  11.891   3.433
37764W        W 4173  16.118  21.799  12.608
37765W        W 4174  40.308  21.271   5.013
37766W        W 4175  20.594  18.322  13.083
37767W        W 4176   1.460  26.053   1.550
37768W        W 4177  17.705  43.198   2.844
37769W        W 4178  34.777  27.852  12.730
37770W        W 4179  31.095  17.318  13.396
37771W        W 4180  42.807  14.206   3.655
37772W        W 4181  26.213  31.883   4.180
37773W        W 4182  42.746  21.403  12.944
37774W        W 4183  43.003  44.005   4.057
37775W        W 4184  17.047  16.362   1.819
37776W        W 4185  14.012   8.599  11.152
37777W        W 4186  22.988  30.140   3.333
37778W        W 4187  40.367   6.830  14.046
37779W        W 4188  29.968  39.109  13.246
37780W        W 4189  18.774  24.196   1.523
37781W        W 4190  18.502  28.194   1.259
37782W        W 4191  32.454  39.001  13.261
37783W        W 4192  16.143  18.088   1.327
37784W        W 4193   8.697  25.120  10.903
37785W        W 4194  43.558  33.324   0.498
37786W        W 4195  29.696  36.110   4.047
37787W        W 4196  27.019  19.686   0.371
37788W        W 4197  39.516   3.293  13.377
37789W        W 4198  37.327   4.216  13.026
37790W        W 4199  30.065  37.473   1.830
37791W        W 4200  41.538   4.917  13.385
37792W        W 4201  26.170  41.147   1.340
37793W        W 4202   9.501   0.723   4.077
37794W        W 4203  20.550  25.019   1.408
37795W        W 4204  14.248  32.137  12.900
37796W        W 4205  44.903  31.398   1.195
37797W        W 4206  33.331  20.032   3.688
37798W        W 4207   4.584  29.370   2.801
37799W        W 4208  21.998  36.006   0.772
37800W        W 4209  36.064  13.878  11.402
37801W        W 4210  17.148  20.278  12.483
37802W        W 4211  43.799  42.870   2.933
37803W        W 4212  39.178  40.849  10.629
37804W        W 4213   1.755   3.761   0.285
37805W        W 4214  39.565   5.474  13.397
37806W        W 4215   6.912  39.173   3.333
37807W        W 4216  16.934   1.864   2.229
37808W        W 4217   8.970  42.457  12.992
37809W        W 4218  25.264  11.173  12.050
37810W        W 4219  18.797  44.995  14.978
37811W        W 4220  18.806  12.266   4.731
37812W        W 4221  26.872  15.782   4.259
37813W        W 4222  37.737  13.679  14.271
37814W        W 4223  39.286  25.468  14.939
37815W        W 4224   8.313  33.979  11.761
37816W        W 4225  16.707   8.087   4.157
37817W        W 4226  13.135  10.872  12.563
37818W        W 4227   0.975  19.290  11.644
37819W        W 4228  38.914  12.055   3.149
37820W        W 4229  31.570   4.564   3.185
37821W        W 4230   5.261  32.659  11.494
37822W        W 4231  25.368   2.529  10.554
37823W        W 4232   9.242   2.548  13.716
37824W        W 4233  16.074  44.408   2.993
37825W        W 4234  19.603  19.314  10.272
37826W        W 4235  33.139  18.736  12.176
37827W        W 4236  12.099  27.187   3.148
37828W        W 4237  31.389  31.205   2.312
37829W        W 4238  38.489   3.875   1.684
37830W        W 4239  31.587  40.781  11.080
37831W        W 4240  37.397  44.786   0.903
37832W        W 4241  44.490   3.302   3.700
37833W        W 4242  29.139   4.716  10.858
37834W        W 4243  34.875  38.820   5.004
37835W        W 4244  16.762  13.782   4.706
37836W        W 4245  31.570  35.947  13.971
37837W        W 4246  11.191  17.822   3.195
37838W        W 4247  14.708  17.277   0.503
37839W        W 4248   7.308  21.781   1.778
37840W        W 4249  17.508   8.753   5.102
37841W        W 4250   6.746  23.733  13.782
37842W        W 4251   6.826  40.027  13.399
37843W        W 4252  10.805  24.696  13.493
37844W        W 4253  27.770   3.889  12.422
37845W        W 4254  33.777   4.033  12.928
37846W        W 4255  38.113  27.890   3.362
37847W        W 4256   2.889  14.147  12.126
37848W        W 4257  39.028  28.067   2.458
37849W        W 4258  14.870  36.293   1.869
37850W        W 4259  30.061  12.221   3.673
37851W        W 4260  31.119  31.186   3.619
37852W        W 4261  38.872  21.361   5.206
37853W        W 4262  38.198  25.643  12.028
37854W        W 4263   4.938  44.535   3.272
37855W        W 4264   9.318  12.186   2.343
37856W        W 4265  35.022  38.558   0.394
37857W        W 4266   8.769  44.330   4.993
37858W        W 4267  11.623  40.680   2.977
37859W        W 4268   4.216  29.296   0.356
37860W        W 4269  12.882   5.252   2.442
37861W        W 4270   6.957  37.296   3.693
37862W        W 4271  17.896  21.153   0.685
37863W        W 4272   0.337  35.283  12.861
37864W        W 4273  17.125  31.050   2.365
37865W        W 4274  37.079  32.544   1.606
37866W        W 4275  40.457  39.036   0.098
37867W        W 4276  14.873  42.919  12.873
37868W        W 4277  42.984   6.800  10.971
37869W        W 4278   7.231  16.023  13.902
37870W        W 4279  25.387  32.050  13.529
37871W        W 4280  29.509   0.850   2.752
37872W        W 4281   2.083  18.655  11.509
37873W        W 4282  33.893  24.354   1.564
37874W        W 4283   7.337  19.687  14.061
37875W        W 4284  34.521  15.352   1.291
37876W        W 4285  15.747  35.225  12.503
37877W        W 4286   3.085  44.229  12.957
37878W        W 4287  38.461  18.620   4.840
37879W        W 4288   5.914  23.306  14.967
37880W        W 4289  21.656   4.843   2.260
37881W        W 4290  17.245  16.062   2.730
37882W        W 4291  33.070  13.705  11.636
37883W        W 4292  41.464  38.140  13.967
37884W        W 4293  35.044   3.087   3.253
37885W        W 4294  11.880  17.423  13.202
37886W        W 4295  26.907  25.568   0.032
37887W        W 4296  16.047   6.348   3.853
37888W        W 4297   7.967  14.349  12.921
37889W        W 4298  22.988  10.650  14.901
37890W        W 4299  37.440  44.809  10.544
37891W        W 4300  11.461  26.231  12.590
37892W        W 4301  13.293  20.705  12.978
37893W        W 4302  25.955   7.351   0.842
37894W        W 4303  20.084  24.659   3.691
37895W        W 4304   4.321  17.052  12.339
37896W        W 4305  22.803  38.603  14.503
37897W        W 4306  44.914  32.101   3.320
37898W        W 4307   5.714   1.344   4.625
37899W        W 4308   2.317  17.215  10.173
37900W        W 4309  25.444  34.192  12.049
37901W        W 4310  32.937   5.763   0.894
37902W        W 4311  27.437  18.323  11.984
37903W        W 4312  13.901  19.637  12.638
37904W        W 4313  12.609  41.987   2.271
37905W        W 4314  23.789  28.052  10.291
37906W        W 4315   8.316  12.199  14.011
37907W        W 4316  38.628  17.143   3.704
37908W        W 4317  31.645  16.107   0.383
37909W        W 4318  21.419  20.278  14.435
37910W        W 4319  17.117  20.313   2.813
37911W        W 4320   1.811   0.211   0.803
37912W        W 4321   6.748  25.981  13.417
37913W        W 4322  11.318  14.047   3.145
37914W        W 4323  10.167  42.724  10.275
37915W        W 4324   1.229  32.818  13.778
37916W        W 4325  32.530  16.118   0.958
37917W        W 4326  15.785  31.891  13.985
37918W        W 4327  12.768  15.564   4.625
37919W        W 4328  29.505  34.491   0.867
37920W        W 4329   8.505   2.319  11.111
37921W        W 4330  42.225   9.820  12.623
37922W        W 4331  21.617  22.106   3.883
37923W        W 4332  23.747  42.865   3.394
37924W        W 4333  37.771  25.983  14.279
37925W        W 4334   2.132  22.632  12.449
37926W        W 4335   2.525  37.537   4.631
37927W        W 4336   3.611  33.665  14.251
37928W        W 4337  22.606  17.352  13.563
37929W        W 4338  34.377  24.267   1.323
37930W        W 4339  24.007   2.394  11.254
37931W        W 4340  23.064  24.037  14.636
37932W        W 4341  12.917  39.044  13.283
37933W        W 4342   5.674  17.330   0.794
37934W        W 4343  33.982   2.826   1.850
37935W        W 4344  26.423  34.656  12.317
37936W        W 4345  32.019  42.970  13.506
37937W        W 4346  24.692   8.399   4.893
37938W        W 4347  39.235  39.930   0.348
37939W        W 4348  19.828  35.502  10.834
37940W        W 4349  21.321  23.321   0.947
37941W        W 4350  13.793  41.048   4.574
37942W        W 4351  37.587  21.490  14.474
37943W        W 4352  15.138   5.821  13.354
37944W        W 4353   6.980  29.522   1.769
37945W        W 4354  35.121  14.578  12.940
37946W        W 4355  42.570  10.942   2.209
37947W        W 4356  21.529   8.696   3.474
37948W        W 4357  19.974   7.372   1.324
37949W        W 4358   3.932  42.450  10.559
37950W        W 4359  26.988  27.561   3.336
37951W        W 4360  31.062  35.178   2.004
37952W        W 4361  15.663  41.888  10.706
37953W        W 4362  21.781   5.239  13.869
37954W        W 4363  41.856  28.614   0.382
37955W        W 4364  26.203  39.742   3.534
37956W        W 4365  24.952  36.813   1.838
37957W        W 4366  12.640  25.468   3.229
37958W        W 4367  33.951  18.647  11.647
37959W        W 4368  38.421  14.263  13.741
37960W        W 4369  30.470  30.028   4.359
37961W        W 4370   0.470  27.248   4.098
37962W        W 4371  22.613   1.272  11.919
37963W        W 4372  37.827  39.417  13.817
37964W        W 4373  18.748  23.072  12.119
37965W        W 4374  43.753   7.743   1.383
37966W        W 4375  12.872  13.997   0.982
37967W        W 4376  23.452  37.530   3.037
37968W        W 4377  13.214  28.707  14.045
37969W        W 4378   6.439  33.441  10.673
37970W        W 4379  18.988  16.115   1.666
37971W        W 4380   7.396  10.614  12.560
37972W        W 4381   9.001   1.055  10.006
37973W        W 4382  23.750  38.327  14.276
37974W        W 4383  36.069  11.589  12.130
37975W        W 4384  33.432  41.406  10.745
37976W        W 4385  23.248  11.217  11.505
37977W        W 4386  10.108  13.900   1.544
37978W        W 4387  24.193  26.271   4.909
37979W        W 4388  34.949  33.746  14.776
37980W        W 4389  24.582  19.541   3.867
37981W        W 4390  34.404  18.865   3.652
37982W        W 4391  37.313  19.999  14.474
37983W        W 4392  31.559   9.145  10.722
37984W        W 4393  41.399  35.934  10.662
37985W        W 4394   7.279   2.140   1.811
37986W        W 4395   5.205  13.658   1.329
37987W        W 4396  21.030  43.770   0.312
37988W        W 4397  33.528  26.082  12.799
37989W        W 4398  43.815  12.641  10.699
37990W        W 4399  28.606  32.115   3.757
37991W        W 4400  44.480   3.891  11.547
37992W        W 4401  24.690  13.738  14.930
37993W        W 4402  16.064  11.626   2.794
37994W        W 4403   0.565  17.571  10.377
37995W        W 4404  25.501  13.345   3.377
37996W        W 4405  29.209  11.486   2.248
37997W        W 4406  32.384  30.637  14.403
37998W        W 4407   7.743  44.992  14.236
37999W        W 4408  26.621  37.188  13.864
38000W        W 4409   4.808  36.986   1.406
38001W        W 4410  29.971  30.464   1.760
38002W        W 4411  36.765  33.553   0.273
38003W        W 4412  19.725  39.594   0.956
38004W        W 4413   5.276   3.754  10.580
38005W        W 4414  19.982   2.429   3.204
38006W        W 4415  40.452  37.434   4.019
38007W        W 4416  31.383  21.147  14.916
38008W        W 4417  27.024  37.316   0.700
38009W        W 4418  21.836  35.736   5.065
38010W        W 4419  33.710  26.686  13.608
38011W        W 4420  34.629  23.988  13.452
38012W        W 4421  13.823  11.542  12.546
38013W        W 4422  31.342  12.395   3.685
38014W        W 4423   1.034   2.220   1.300
38015W        W 4424  24.145  44.907   0.518
38016W        W 4425  33.780  14.334  13.442
38017W        W 4426   1.013  12.740   2.847
38018W        W 4427  25.089  30.647   0.376
38019W        W 4428  42.446   5.205  11.825
38020W        W 4429  36.883  39.527   4.601
38021W        W 4430  21.314  40.920   0.839
38022W        W 4431  12.440  28.879   0.778
38023W        W 4432  27.657  37.041  13.487
38024W        W 4433  42.510   6.649   4.883
38025W        W 4434   1.344  39.338   3.856
38026W        W 4435  18.606  16.648   3.342
38027W        W 4436   1.472   9.904  13.944
38028W        W 4437  37.957  35.059   2.902
38029W        W 4438  31.099   1.534  13.799
38030W        W 4439  35.845  32.625   3.183
38031W        W 4440   9.954  15.000  12.149
38032W        W 4441  44.054   9.360  11.578
38033W        W 4442   8.288  22.190  13.285
38034W        W 4443   8.784  42.498   1.941
38035W        W 4444   0.611  18.759   1.947
38036W        W 4445   0.828   9.737   4.624
38037W        W 4446  10.624  33.285   3.152
38038W        W 4447  32.998  44.681  13.009
38039W        W 4448  19.124   4.702   1.400
38040W        W 4449  13.183   9.262  14.565
38041W        W 4450  24.103   1.213   2.143
38042W        W 4451  27.074  18.576   4.872
38043W        W 4452  35.688   1.672   1.614
38044W        W 4453  38.558   4.499   3.230
38045W        W 4454  13.373  15.177   4.107
38046W        W 4455  30.156  23.492   0.818
38047W        W 4456  20.453  26.090  13.566
38048W        W 4457  32.532  28.507   4.637
38049W        W 4458  41.081   0.027  12.911
38050W        W 4459  21.105  39.900  11.434
38051W        W 4460   3.029  34.568   2.261
38052W        W 4461  39.371  32.176  13.464
38053W        W 4462  14.720  33.146  13.522
38054W        W 4463  44.300  43.981  11.673
38055W        W 4464  29.917   3.742  13.770
38056W        W 4465  32.640  20.361  11.430
38057W        W 4466  20.345  15.858   1.341
38058W        W 4467  20.499  32.026  12.931
38059W        W 4468  44.026  16.658   2.461
38060W        W 4469  27.152  32.905  11.849
38061W        W 4470   8.357  39.565   2.588
38062W        W 4471  29.800   4.402  10.220
38063W        W 4472  16.671  24.997   0.355
38064W        W 4473  44.084  40.830   4.108
38065W        W 4474  43.000  11.675  12.933
38066W        W 4475  26.738  17.898  12.356
38067W        W 4476  41.890  16.417   2.792
38068W        W 4477  43.139  13.283  11.724
38069W        W 4478  39.130  44.391   3.685
38070W        W 4479  40.526  36.066   2.845
38071W        W 4480  11.354  14.197  10.700
38072W        W 4481  30.857  30.774  12.936
38073W        W 4482  30.694  25.792  14.828
38074W        W 4483  29.582  15.069   3.118
38075W        W 4484  39.405   2.311  12.014
38076W        W 4485  42.039  29.953   2.621
38077W        W 4486   6.026  16.870  13.553
38078W        W 4487  43.739  16.928   3.211
38079W        W 4488  36.155  20.299  11.546
38080W        W 4489  35.465  40.987   4.810
38081W        W 4490   1.367  43.243   4.507
38082W        W 4491  40.774  26.643  13.791
38083W        W 4492  14.750  14.684  13.879
38084W        W 4493  40.112  31.599   2.893
38085W        W 4494  21.307  37.329  12.903
38086W        W 4495  19.233   6.463   0.343
38087W        W 4496   4.717  17.275  14.013
38088W        W 4497  14.094  22.116  14.383
38089W        W 4498   1.809   3.652  12.856
38090W        W 4499  16.593  15.274  11.587
38091W        W 4500   3.919  37.146   3.997
38092W        W 4501  15.970  25.216   5.145
38093W        W 4502  15.553   0.351   0.340
38094W        W 4503  30.966  27.890  12.418
38095W        W 4504  20.613  20.789  12.823
38096W        W 4505  38.745  35.475   1.359
38097W        W 4506  15.594   1.622   2.925
38098W        W 4507  22.385  25.250   4.992
38099W        W 4508  27.683  32.313  13.378
38100W        W 4509   5.714   5.671  14.633
38101W        W 4510  40.411  41.326   1.323
38102W        W 4511   4.881  43.185  14.308
38103W        W 4512  29.496   2.871  10.690
38104W        W 4513  39.323  35.575  14.359
38105W        W 4514  34.848  12.445   4.587
38106W        W 4515  11.562  40.543   3.742
38107W        W 4516  35.443  29.546   3.225
38108W        W 4517  19.679   3.362  11.355
38109W        W 4518   5.046  25.218   9.782
38110W        W 4519  39.732  33.575   1.867
38111W        W 4520  17.021  37.085   2.820
38112W        W 4521  42.478   8.909   0.320
38113W        W 4522  24.024   2.276  10.747
38114W        W 4523  10.866  38.492   0.347
38115W        W 4524  33.041  18.621  10.650
38116W        W 4525   8.136  37.522  10.266
38117W        W 4526  16.171  25.391   5.614
38118W        W 4527   4.321  43.245  10.770
38119W        W 4528  28.050  15.402   2.859
38120W        W 4529  24.256  21.761  12.163
38121W        W 4530  17.731  32.544  13.615
38122W        W 4531  41.026  22.170   2.178
38123W        W 4532  12.906  36.869   1.774
38124W        W 4533  26.129   6.109  13.216
38125W        W 4534  12.423  41.474  13.887
38126W        W 4535  29.626  39.050  14.467
38127W        W 4536  35.873   0.965   2.767
38128W        W 4537  22.150  18.535  13.903
38129W        W 4538   3.459  34.108   1.288
38130W        W 4539  19.688  39.566  11.602
38131W        W 4540  34.959  35.635  11.990
38132W        W 4541  14.326  38.550   0.753
38133W        W 4542   2.666  36.927  10.945
38134W        W 4543  31.678  13.860   1.740
38135W        W 4544   2.534   6.006   2.812
38136W        W 4545   5.737  44.042  14.172
38137W        W 4546  17.328  30.102  14.779
38138W        W 4547   7.476   9.638   4.928
38139W        W 4548  11.225  18.222  13.972
38140W        W 4549  34.596  39.839   1.469
38141W        W 4550  35.134  12.706  13.937
38142W        W 4551  36.014   3.181   0.906
38143W        W 4552   2.917   7.143  11.240
38144W        W 4553  28.108   5.015  12.168
38145W        W 4554   6.336  32.641  11.606
38146W        W 4555  20.517  31.975  13.869
38147W        W 4556  23.222  32.423  13.372
38148W        W 4557  13.315   6.377   0.434
38149W        W 4558  37.040  32.165  10.572
38150W        W 4559   1.426  24.061  10.853
38151W        W 4560  44.712  31.966  13.534
38152W        W 4561  38.440  40.699  11.303
38153W        W 4562  44.711  27.436  14.812
38154W        W 4563  12.149  18.183  14.769
38155W        W 4564  37.700   4.196   4.084
38156W        W 4565  40.254  24.631   1.304
38157W        W 4566  14.750  25.464   1.812
38158W        W 4567  26.061   6.843   0.751
38159W        W 4568  20.067  13.246  10.056
38160W        W 4569  44.493  42.456  10.829
38161W        W 4570  41.382  12.397   2.022
38162W        W 4571  11.205  13.317   0.012
38163W        W 4572  13.676   4.170  12.598
38164W        W 4573   1.890  14.939   1.228
38165W        W 4574  12.149  25.305   3.205
38166W        W 4575  13.213  40.581   1.170
38167W        W 4576  44.987  44.486   0.028
38168W        W 4577  40.454   2.376   3.250
38169W        W 4578  43.048  32.124  10.551
38170W        W 4579   6.972  33.974   3.291
38171W        W 4580  15.192  17.565  13.881
38172W        W 4581  15.729   9.190   4.172
38173W        W 4582   2.552  15.294  11.225
38174W        W 4583   9.209   3.985  13.485
38175W        W 4584   5.945  11.839  10.677
38176W        W 4585  12.505  26.151   1.199
38177W        W 4586   0.142   3.424   0.499
38178W        W 4587  28.729  18.069  11.610
38179W        W 4588  41.933  10.407   0.963
38180W        W 4589  37.428  24.903  11.999
38181W        W 4590  29.992   6.406  13.610
38182W        W 4591  38.527  35.570   3.669
38183W        W 4592  37.419  33.288   2.495
38184W        W 4593   2.801  32.601  14.024
38185W        W 4594   0.430  41.607   0.833
38186W        W 4595  36.128  41.894  12.243
38187W        W 4596   1.448  10.935  11.936
38188W        W 4597  22.777   2.419   4.738
38189W        W 4598  15.656  38.905   2.407
38190W        W 4599  21.898   5.968   2.769
38191W        W 4600   2.569  36.443  12.950
38192W        W 4601   7.332  35.522  12.060
38193W        W 4602  18.263  40.608  14.451
38194W        W 4603  32.522  21.707  12.430
38195W        W 4604  10.851  43.520  13.463
38196W        W 4605  29.756   7.654   3.780
38197W        W 4606  27.087  33.644   3.307
38198W        W 4607  39.975  41.918  12.266
38199W        W 4608  14.299  37.808  14.352
38200W        W 4609   6.953  11.830  12.675
38201W        W 4610  37.797  33.935  12.546
38202W        W 4611   8.358  13.830   0.879
38203W        W 4612  17.703  24.115  11.659
38204W        W 4613   4.192  35.530  12.936
38205W        W 4614  31.323  12.675  12.473
38206W        W 4615   7.897  40.145   4.063
38207W        W 4616  44.803   1.301   0.893
38208W        W 4617  35.132  39.162  12.117
38209W        W 4618   6.371  36.400   2.417
38210W        W 4619  34.315  38.992  13.907
38211W        W 4620  12.067   5.422  13.053
38212W        W 4621   7.436  43.968  13.232
38213W        W 4622  41.261  15.492   1.318
38214W        W 4623   7.675  19.168   2.338
38215W        W 4624  25.537  40.785   0.208
38216W        W 4625   3.138  15.594   1.187
38217W        W 4626  15.005  16.749  12.793
38218W        W 4627  23.122  32.609  11.566
38219W        W 4628  36.807  44.251  12.519
38220W        W 4629  12.291  32.508  13.829
38221W        W 4630   9.751  15.148  12.986
38222W        W 4631   2.385  21.480   2.308
38223W        W 4632  12.759  32.074   2.734
38224W        W 4633  37.542  29.662  10.470
38225W        W 4634  30.631   7.736  12.854
38226W        W 4635  31.644  18.249  12.609
38227W        W 4636  26.446  15.990  13.911
38228W        W 4637  29.021  30.984   2.671
38229W        W 4638  43.348   9.102  12.463
38230W        W 4639  43.718   3.475  14.747
38231W        W 4640  31.898  24.164  13.312
38232W        W 4641   0.290   2.465   0.328
38233W        W 4642  15.763  39.288   0.779
38234W        W 4643  41.655  17.328  12.801
38235W        W 4644  28.738  18.330   2.249
38236W        W 4645   2.054  12.840   2.589
38237W        W 4646  29.486  39.790   2.263
38238W        W 4647   6.463  12.124   0.932
38239W        W 4648  44.539  14.831   2.207
38240W        W 4649   0.682  39.443  12.385
38241W        W 4650  19.820  16.058  14.309
38242W        W 4651   4.851   2.326   2.568
38243W        W 4652  37.469  15.846  14.255
38244W        W 4653  34.062   6.903  14.501
38245W        W 4654  25.797  35.595  13.673
38246W        W 4655   3.040  14.086  13.981
38247W        W 4656  15.198  30.624   0.566
38248W        W 4657  35.796  27.286   2.791
38249W        W 4658  42.295  13.175  12.375
38250W        W 4659  31.247  39.267   3.307
38251W        W 4660   0.532   4.673  12.556
38252W        W 4661  41.873   3.337  14.046
38253W        W 4662  18.070  26.075  11.737
38254W        W 4663   6.536  10.183  14.469
38255W        W 4664  31.021  15.600  12.978
38256W        W 4665  43.009  22.674   2.675
38257W        W 4666   8.771  28.392  13.016
38258W        W 4667  19.793   0.840  11.611
38259W        W 4668  38.884  39.695   1.923
38260W        W 4669  25.536   3.323  12.463
38261W        W 4670  18.027  20.431  12.882
38262W        W 4671  40.057  18.885   2.367
38263W        W 4672  26.372  15.187   2.344
38264W        W 4673  12.283  16.037   2.871
38265W        W 4674   2.919  17.638  12.799
38266W        W 4675  12.565  43.021   3.668
38267W        W 4676  42.645  20.616   3.860
38268W        W 4677  10.794  29.023   4.667
38269W        W 4678   1.729  14.478   1.369
38270W        W 4679  39.867  40.827   3.112
38271W        W 4680  25.217  22.035   4.595
38272W        W 4681  20.974  15.324   3.801
38273W        W 4682  20.530  34.645  11.247
38274W        W 4683  35.929   8.923   4.546
38275W        W 4684  23.215  12.192  13.363
38276W        W 4685  38.518   2.782   2.736
38277W        W 4686  11.975  32.582   0.433
38278W        W 4687  27.750  43.738   2.699
38279W        W 4688   0.749  41.306   3.157
38280W        W 4689  35.160  29.198  10.868
38281W        W 4690   3.397  25.756   4.838
38282W        W 4691  13.395   4.759  10.305
38283W        W 4692  41.794  43.538   3.290
38284W        W 4693  31.463  28.816  11.162
38285W        W 4694   3.857  34.043  12.946
38286W        W 4695  40.933  39.714   1.009
38287W        W 4696  36.842  38.431   2.184
38288W        W 4697  15.421  16.033   2.301
38289W        W 4698  37.433  44.680  13.269
38290W        W 4699   6.116  30.417   2.275
38291W        W 4700  15.079   6.338   3.570
38292W        W 4701  33.523  11.291   4.610
38293W        W 4702  42.781  34.105  11.461
38294W        W 4703  43.974  23.512   4.129
38295W        W 4704  30.968  38.082  10.989
38296W        W 4705  24.973  42.269  13.889
38297W        W 4706  15.993   1.519   1.320
38298W        W 4707  30.338  16.541  14.500
38299W        W 4708  12.773  29.082  12.528
38300W        W 4709  33.709  44.913   3.487
38301W        W 4710  13.858  10.901   3.133
38302W        W 4711  38.450  28.713  14.600
38303W        W 4712   0.768  16.610   0.888
38304W        W 4713  38.267  33.103  12.502
38305W        W 4714   6.224  25.432   0.762
38306W        W 4715  35.730  23.199  14.599
38307W        W 4716  22.011  23.143  13.338
38308W        W 4717  32.696  43.680   0.450
38309W        W 4718   5.400  40.121  14.047
38310W        W 4719  17.588  25.264   1.801
38311W        W 4720  18.054  12.636   1.406
38312W        W 4721  31.440  30.180  12.581
38313W        W 4722  12.763  34.670  11.934
38314W        W 4723  11.766  14.940  13.390
38315W        W 4724   2.658   5.909  14.952
38316W        W 4725  28.980  13.615   4.690
38317W        W 4726  18.499  18.277  13.298
38318W        W 4727  33.293  14.808  14.824
38319W        W 4728   6.147   3.335   5.376
38320W        W 4729  14.788   1.682  10.232
38321W        W 4730  42.224  13.733   1.826
38322W        W 4731  11.236  42.022  10.671
38323W        W 4732  42.120  15.712   0.251
38324W        W 4733  18.079  16.337  13.372
38325W        W 4734  21.653  31.222   2.231
38326W        W 4735  22.312  30.793  13.729
38327W        W 4736  28.129  21.639   9.909
38328W        W 4737  43.293  24.252  11.560
38329W        W 4738  25.354  37.361   9.853
38330W        W 4739  13.599  35.684   1.899
38331W        W 4740   9.580  42.966  12.494
38332W        W 4741  29.257  23.934   4.509
38333W        W 4742  35.280   5.430  13.519
38334W        W 4743  33.552  21.424   3.338
38335W        W 4744  39.297   2.566   0.045
38336W        W 4745  28.216  16.033   1.615
38337W        W 4746  27.134  35.628  10.425
38338W        W 4747  17.356  22.786  14.902
38339W        W 4748  16.138   6.798   2.141
38340W        W 4749  41.861  28.593   1.314
38341W        W 4750  39.601   9.150   0.338
38342W        W 4751  19.148  13.592   1.722
38343W        W 4752  19.874  10.139   0.710
38344W        W 4753  10.395  19.678  10.828
38345W        W 4754  30.335   4.066   2.652
38346W        W 4755  19.361  31.283   4.010
38347W        W 4756  12.305   7.720  13.841
38348W        W 4757  32.162  37.758  13.361
38349W        W 4758  20.700   5.601   1.744
38350W        W 4759  14.597  44.425  11.637
38351W        W 4760  30.444   4.819  12.137
38352W        W 4761  24.177  40.642   3.021
38353W        W 4762  11.169  12.429  12.455
38354W        W 4763  44.728  11.332   0.272
38355W        W 4764  37.648  23.051   2.755
38356W        W 4765  11.634  24.743   3.904
38357W        W 4766   1.845  17.153  13.276
38358W        W 4767  21.490   8.176  13.578
38359W        W 4768   2.430  11.724   3.824
38360W        W 4769   4.165   2.778  12.536
38361W        W 4770  21.476   7.728  12.582
38362W        W 4771   1.847  41.796  12.465
38363W        W 4772  16.483  21.144  13.285
38364W        W 4773  25.146  14.507   2.344
38365W        W 4774  26.035   6.778  13.739
38366W        W 4775  10.839  36.801  12.966
38367W        W 4776   8.748  13.363   1.922
38368W        W 4777   8.103  38.790   0.253
38369W        W 4778  37.880   6.713   3.721
38370W        W 4779   7.344  22.293   3.613
38371W        W 4780  23.633  10.425  14.409
38372W        W 4781   6.762  17.300  12.035
38373W        W 4782  16.758  14.219  13.328
38374W        W 4783  39.447  29.491   3.706
38375W        W 4784   7.631  38.147  14.823
38376W        W 4785  21.094  44.707   1.236
38377W        W 4786  21.330  31.451  12.825
38378W        W 4787  11.195  24.332  11.413
38379W        W 4788  28.125  26.537   1.812
38380W        W 4789  34.849  20.584   2.370
38381W        W 4790  44.218   7.010  12.689
38382W        W 4791   6.220  13.190  10.671
38383W        W 4792   4.436   0.800  11.158
38384W        W 4793  44.549  43.860   3.950
38385W        W 4794  11.002   7.794  14.460
38386W        W 4795  14.557  15.148  13.984
38387W        W 4796  30.072  26.218  14.441
38388W        W 4797  36.149  28.455  13.460
38389W        W 4798  37.403  10.618  14.348
38390W        W 4799  41.420   3.885  12.604
38391W        W 4800  35.470  15.673   0.424
38392W        W 4801  37.565   6.900   1.472
38393W        W 4802  11.423  43.981  10.616
38394W        W 4803  33.087  24.257   2.145
38395W        W 4804  24.830  13.776  11.156
38396W        W 4805  39.534  11.483  12.739
38397W        W 4806  40.750  32.888   2.300
38398W        W 4807  34.592  18.758  14.018
38399W        W 4808  33.058  31.740  14.932
38400W        W 4809   8.329   3.354   3.254
38401W        W 4810  20.126  10.296  14.501
38402W        W 4811  25.952  24.387  10.606
38403W        W 4812  19.657  27.115   0.397
38404W        W 4813  12.769  19.135  13.803
38405W        W 4814   9.842  36.712   1.689
38406W        W 4815  10.390  43.321  12.395
38407W        W 4816  29.401   7.177  10.701
38408W        W 4817   3.935  41.474  10.683
38409W        W 4818  23.752  26.996   2.131
38410W        W 4819   8.292  21.011  10.453
38411W        W 4820  38.587  33.982   3.631
38412W        W 4821  14.085  39.857   3.282
38413W        W 4822   6.791  12.515  13.616
38414W        W 4823  28.665  42.776  14.991
38415W        W 4824  26.458  27.505   4.148
38416W        W 4825  37.037  22.209   1.239
38417W        W 4826  30.007  32.853   3.226
38418W        W 4827  18.626  41.294  12.554
38419W        W 4828   2.555  34.812  12.928
38420W        W 4829  31.100   2.339   1.339
38421W        W 4830  25.402  19.059   0.963
38422W        W 4831  26.491   3.828  11.856
38423W        W 4832  40.177  44.958   5.223
38424W        W 4833  36.244  17.188   5.336
38425W        W 4834  30.013  20.816  10.754
38426W        W 4835  43.979   7.684  10.657
38427W        W 4836   2.825   7.438  10.821
38428W        W 4837  40.042  10.395   4.166
38429W        W 4838  35.514  23.016  13.147
38430W        W 4839  29.739  35.353   0.629
38431W        W 4840   1.480  19.180   2.119
38432W        W 4841  42.407   6.430   0.498
38433W        W 4842   7.395   3.663  11.468
38434W        W 4843  42.803  35.110  10.645
38435W        W 4844  20.957  16.103   3.151
38436W        W 4845   8.895  25.952   2.715
38437W        W 4846  35.208   3.750   4.820
38438W        W 4847  28.236  18.555   0.844
38439W        W 4848  20.040  23.264   4.690
38440W        W 4849  11.516   1.375   0.622
38441W        W 4850  35.093   0.922  14.445
38442W        W 4851  31.249   6.232  12.471
38443W        W 4852  31.118  32.234   5.216
38444W        W 4853  18.034  28.067  12.823
38445W        W 4854  31.977   8.788   0.405
38446W        W 4855  23.146   2.464  13.053
38447W        W 4856  40.131   8.849  12.449
38448W        W 4857   0.523   8.140  10.981
38449W        W 4858  34.215  23.752  13.785
38450W        W 4859  33.416  38.364   2.741
38451W        W 4860  11.872   6.839  11.916
38452W        W 4861  30.146  26.562   1.719
38453W        W 4862  11.297  41.406   2.398
38454W        W 4863  23.553  33.506   3.742
38455W        W 4864   6.705  42.556  11.389
38456W        W 4865  35.852  10.606  12.001
38457W        W 4866  12.934  38.996   0.834
38458W        W 4867  35.067  13.392  10.779
38459W        W 4868  26.186  44.118  12.088
38460W        W 4869   3.660  23.561   4.213
38461W        W 4870   5.702  10.934  10.977
38462W        W 4871  37.570  29.404   1.704
38463W        W 4872  31.645  26.713   1.036
38464W        W 4873  11.031  13.293   4.771
38465W        W 4874   3.873  44.046  13.357
38466W        W 4875   2.595  24.936  12.867
38467W        W 4876  34.609  18.800  14.537
38468W        W 4877  32.049  37.491   2.277
38469W        W 4878   2.740  17.487   1.817
38470W        W 4879  30.617  11.589   0.067
38471W        W 4880  13.378   1.476   1.809
38472W        W 4881  25.928   4.355   4.416
38473W        W 4882   0.148  42.447  10.315
38474W        W 4883   2.313   0.862   1.152
38475W        W 4884   4.967  15.437  12.520
38476W        W 4885  37.576  39.474  11.208
38477W        W 4886  39.342  12.372   3.204
38478W        W 4887  28.898  41.142   2.192
38479W        W 4888  31.489  12.736  10.761
38480W        W 4889  25.699  20.760   3.312
38481W        W 4890  21.766   3.739   4.398
38482W        W 4891  19.196  42.404   4.183
38483W        W 4892  43.284  18.352   0.768
38484W        W 4893  22.669  24.023   1.145
38485W        W 4894   6.389  29.529  13.156
38486W        W 4895  15.645  34.583   2.362
38487W        W 4896  36.937  41.393   3.831
38488W        W 4897   9.686  38.596   3.207
38489W        W 4898  24.123   0.794  12.810
38490W        W 4899   1.523  16.831   1.399
38491W        W 4900   4.306  15.200  14.347
38492W        W 4901   5.157  38.809   3.771
38493W        W 4902  14.767  25.664  11.507
38494W        W 4903  25.208   3.945  14.308
38495W        W 4904   4.254  10.452   2.884
38496W        W 4905   5.346  35.515  13.753
38497W        W 4906  17.596  36.625   0.366
38498W        W 4907  41.408  34.578   4.752
38499W        W 4908   9.401  44.257   2.252
38500W        W 4909  20.978   9.943   2.344
38501W        W 4910  11.466  44.527  10.818
38502W        W 4911  34.348  22.687  12.992
38503W        W 4912  29.515  40.964   2.378
38504W        W 4913   5.600  31.116  13.087
38505W        W 4914  30.950  40.073  13.541
38506W        W 4915  28.064  10.180  11.418
38507W        W 4916  43.460  27.996  12.801
38508W        W 4917  11.823   1.885   4.739
38509W        W 4918  18.128  42.128   3.070
38510W        W 4919  27.597  35.079  14.301
38511W        W 4920  13.535  37.863   1.823
38512W        W 4921   1.107   7.852   5.059
38513W        W 4922  12.766   6.319  10.806
38514W        W 4923   7.656  25.671   2.380
38515W        W 4924   7.819  25.604   0.484
38516W        W 4925   0.725   8.381   1.441
38517W        W 4926  42.099  10.690  13.167
38518W        W 4927  26.257   6.114  11.559
38519W        W 4928   6.894  29.666  12.912
38520W        W 4929   1.357  16.533   2.329
38521W        W 4930   5.833  16.389   0.782
38522W        W 4931  39.994  17.900  10.460
38523W        W 4932  22.550  28.989   2.405
38524W        W 4933  40.073   6.591   3.376
38525W        W 4934  16.766   3.292   0.928
38526W        W 4935  35.437  18.896  12.556
38527W        W 4936  42.038  16.575   1.295
38528W        W 4937  24.136  44.435   0.692
38529W        W 4938  20.579  31.333  10.556
38530W        W 4939  39.453  25.222   1.838
38531W        W 4940  41.439   6.552  12.947
38532W        W 4941  24.713   4.670   0.356
38533W        W 4942  35.944  31.315  10.693
38534W        W 4943  21.999  11.090  10.778
38535W        W 4944  22.126   2.891   3.455
38536W        W 4945   0.864  43.110  10.690
38537W        W 4946  29.163  19.609  14.479
38538W        W 4947   8.758  43.934  13.604
38539W        W 4948  24.327   9.658  11.581
38540W        W 4949  15.207   2.273  12.207
38541W        W 4950  30.445  18.743   0.910
38542W        W 4951  26.970  38.047   3.925
38543W        W 4952  13.342  25.426   4.655
38544W        W 4953  39.548   8.382  11.095
38545W        W 4954  22.698  31.234   3.879
38546W        W 4955  28.292  43.059  12.626
38547W        W 4956   6.744   5.254   2.625
38548W        W 4957   7.258   8.387   0.997
38549W        W 4958  41.228  38.597   2.881
38550W        W 4959  40.859  26.107   2.283
38551W        W 4960  12.732  43.247   0.934
38552W        W 4961  12.050  34.901  13.146
38553W        W 4962   2.463   4.776  13.372
38554W        W 4963  26.553   6.763   0.281
38555W        W 4964  31.247   6.809   2.371
38556W        W 4965  27.562  20.508   1.304
38557W        W 4966   5.867  40.040   3.720
38558W        W 4967  37.488  44.347  11.431
38559W        W 4968  38.574  11.651   0.021
38560W        W 4969  15.626  10.244  12.096
38561W        W 4970  43.656  29.045   1.799
38562W        W 4971  10.316   3.496   3.543
38563W        W 4972   4.312  35.119   0.943
38564W        W 4973  38.051  15.886  13.783
38565W        W 4974  25.049  31.094  10.687
38566W        W 4975  40.522   1.405   4.354
38567W        W 4976  12.152  27.935  14.609
38568W        W 4977   6.978   1.358  13.847
38569W        W 4978  15.060  35.814  10.663
38570W        W 4979  11.349  44.973   0.129
38571W        W 4980   7.754  20.485   1.849
38572W        W 4981  15.157  31.277   4.090
38573W        W 4982   9.381  34.850   1.777
38574W        W 4983  38.491  17.541   0.909
38575W        W 4984  22.516   3.904  12.566
38576W        W 4985  23.537   2.674   0.758
38577W        W 4986  25.026  11.870   2.997
38578W        W 4987   6.840  23.335   2.664
38579W        W 4988  40.513  19.555   2.910
38580W        W 4989  32.581  41.919  12.115
38581W        W 4990   5.273  29.629   2.287
38582W        W 4991  17.811  39.512  10.311
38583W        W 4992  17.022  34.451   3.207
38584W        W 4993  11.743  30.600  10.304
38585W        W 4994  34.536  12.625  10.483
38586W        W 4995   3.466  12.146   4.711
38587W        W 4996  32.423   8.984   4.012
38588W        W 4997  16.819  16.359   2.731
38589W        W 4998  23.426  21.602   3.211
38590W        W 4999  36.441  28.230  14.489
38591W        W 5000  43.004  23.463  11.105
38592W        W 5001  41.204   0.795   1.821
38593W        W 5002  19.650  44.452   4.963
38594W        W 5003  42.107  17.060   4.241
38595W        W 5004  10.183  36.890   2.768
38596W        W 5005  39.922  38.391  13.572
38597W        W 5006  34.954  26.620   3.802
38598W        W 5007   9.737  32.906   0.729
38599W        W 5008   7.615  26.631  14.103
38600W        W 5009  27.006   9.524  11.159
38601W        W 5010  19.346  13.722   2.634
38602W        W 5011  12.615  18.138   3.275
38603W        W 5012   0.359  40.858   4.754
38604W        W 5013   6.679  33.117   3.581
38605W        W 5014   5.301  11.247   4.727
38606W        W 5015  33.099  29.342  11.382
38607W        W 5016  33.995  34.390   4.980
38608W        W 5017  44.831  13.008  13.916
38609W        W 5018  15.143   4.129   3.202
38610W        W 5019  13.760  20.389  12.085
38611W        W 5020  44.375  41.845   2.127
38612W        W 5021   7.151  21.788   2.750
38613W        W 5022   1.166  37.086   0.433
38614W        W 5023  41.502  19.000   2.857
38615W        W 5024  35.167  29.134   2.830
38616W        W 5025   0.620  20.422  12.931
38617W        W 5026   6.383  20.511  13.988
38618W        W 5027  22.886   7.325  13.845
38619W        W 5028   7.380  23.502  14.977
38620W        W 5029  26.454   1.841   3.756
38621W        W 5030   6.181  17.716   0.338
38622W        W 5031  11.672  15.820  12.253
38623W        W 5032  22.426   0.383  14.456
38624W        W 5033  10.723  19.305   3.745
38625W        W 5034  24.750  38.573   4.403
38626W        W 5035   6.717  33.936   1.747
38627W        W 5036  16.493  35.976  10.477
38628W        W 5037   7.829  41.076  12.029
38629W        W 5038  41.910  42.022   0.733
38630W        W 5039   2.776  18.118  12.541
38631W        W 5040  10.457   3.685   3.071
38632W        W 5041  21.608   4.343   3.724
38633W        W 5042  42.548  25.922   3.841
38634W        W 5043   4.823  24.918  14.912
38635W        W 5044  20.189  39.204   0.583
38636W        W 5045   2.396  18.686  14.587
38637W        W 5046  40.321  11.334  13.218
38638W        W 5047  33.778  41.783   0.692
38639W        W 5048  29.298  11.274   3.576
38640W        W 5049  35.435  39.559   2.937
38641W        W 5050  21.718  21.115   0.520
38642W        W 5051   5.317   6.843   2.722
38643W        W 5052   5.008   2.431  10.678
38644W        W 5053  28.022  42.773  12.152
38645W        W 5054  13.353  22.618   1.646
38646W        W 5055  29.964  23.218   0.147
38647W        W 5056  20.563  34.438   3.111
38648W        W 5057  25.277  35.411  11.191
38649W        W 5058   3.497  22.892   0.146
38650W        W 5059  22.354  42.319   3.531
38651W        W 5060  12.385  13.593  13.355
38652W        W 5061  18.136  31.495  14.848
38653W        W 5062   1.885   7.287  13.298
38654W        W 5063  22.787   9.821  11.180
38655W        W 5064  28.158  28.452   1.912
38656W        W 5065   4.706  35.584  12.938
38657W        W 5066  41.320  40.439  10.507
38658W        W 5067  28.014  23.249  13.028
38659W        W 5068  18.762  28.512   4.132
38660W        W 5069  25.463  16.081  14.576
38661W        W 5070   0.611  29.085   4.822
38662W        W 5071  24.965  12.275  14.569
38663W        W 5072  14.078  41.562  11.647
38664W        W 5073  28.129  33.000  13.830
38665W        W 5074  33.013  16.490  11.096
38666W        W 5075  35.028  26.548   4.693
38667W        W 5076  19.000  17.559   0.838
38668W        W 5077  44.741  17.978  14.863
38669W        W 5078  27.007   0.547  11.392
38670W        W 5079  31.082  22.067   1.391
38671W        W 5080  30.551  13.387   4.157
38672W        W 5081   7.171   8.167  14.759
38673W        W 5082  34.985  27.042   0.359
38674W        W 5083  40.084  22.696  12.602
38675W        W 5084  11.815  44.770  13.483
38676W        W 5085  42.343  25.226  14.010
38677W        W 5086   1.355  18.616  12.452
38678W        W 5087  24.001  40.432  13.476
38679W        W 5088   4.800  35.696   2.940
38680W        W 5089  38.378   9.671  10.517
38681W        W 5090   2.351   6.027  11.449
38682W        W 5091   6.812  24.433  11.591
38683W        W 5092   7.345  43.779  13.735
38684W        W 5093  15.638  29.147  12.093
38685W        W 5094  13.555  36.046  10.701
38686W        W 5095  29.490  34.305  13.019
38687W        W 5096  37.122  37.817  10.747
38688W        W 5097   3.369  19.091  12.355
38689W        W 5098  33.357   5.737   1.420
38690W        W 5099  35.530  21.251  12.321
38691W        W 5100  24.280  24.974  14.858
38692W        W 5101  41.391  28.452   0.190
38693W        W 5102  23.231  25.975  13.272
38694W        W 5103  29.498   9.499  12.324
38695W        W 5104  18.577  20.494   2.663
38696W        W 5105  38.012  19.122   4.415
38697W        W 5106  30.450  42.342  12.102
38698W        W 5107  42.349  31.983   2.375
38699W        W 5108  42.791   1.718   0.401
38700W        W 5109  44.445  22.020   4.633
38701W        W 5110  20.529  10.610  14.475
38702W        W 5111   9.583  39.815   0.326
38703W        W 5112  12.392  20.546   2.677
38704W        W 5113   3.605   4.219   0.871
38705W        W 5114  39.370  17.880  11.341
38706W        W 5115  42.449  32.769  11.502
38707W        W 5116  35.068  21.926   1.326
38708W        W 5117  25.258  35.846   4.845
38709W        W 5118   1.191  23.134   3.189
38710W        W 5119  19.643   9.115  14.448
38711W        W 5120  27.169  42.571  13.903
38712W        W 5121  33.400  40.791   3.255
38713W        W 5122   8.795  18.063   4.562
38714W        W 5123   8.184  18.243  14.032
38715W        W 5124  24.545  37.452  11.292
38716W        W 5125  41.436  14.860   2.154
38717W        W 5126   2.184  14.054   0.947
38718W        W 5127  36.009   1.434  14.388
38719W        W 5128  32.728  29.766   2.700
38720W        W 5129  29.947  15.831   2.801
38721W        W 5130  14.357  13.264  14.410
38722W        W 5131   0.729  33.715  10.369
38723W        W 5132   4.877   8.386   2.246
38724W        W 5133   3.197   5.866  14.749
38725W        W 5134  26.282  31.033  14.313
38726W        W 5135  10.306  28.992   3.793
38727W        W 5136  44.921  12.722   2.852
38728W        W 5137  34.956  32.026   0.318
38729W        W 5138  23.485  35.821   0.784
38730W        W 5139   5.331  12.596   1.270
38731W        W 5140  32.635  39.165   3.197
38732W        W 5141  18.001  40.975  13.904
38733W        W 5142  24.029   1.282   0.760
38734W        W 5143  33.557  28.523  14.510
38735W        W 5144  14.840  23.146  10.660
38736W        W 5145  32.957  33.116   3.837
38737W        W 5146  10.653  40.990   0.799
38738W        W 5147   3.667  29.558   3.758
38739W        W 5148  44.662  20.432  13.323
38740W        W 5149  28.855  36.328   0.506
38741W        W 5150  42.854  21.765  12.466
38742W        W 5151  36.529  42.576   2.908
38743W        W 5152   5.226  19.092  13.882
38744W        W 5153  14.086  25.563  12.653
38745W        W 5154   9.935   4.342   3.776
38746W        W 5155  41.209  27.969   0.260
38747W        W 5156  10.014  25.700   1.523
38748W        W 5157  28.194   2.193   2.683
38749W        W 5158  11.323   1.437  11.937
38750W        W 5159  14.450  29.903  14.091
38751W        W 5160  42.901  22.432  12.957
38752W        W 5161  11.704  38.102  12.555
38753W        W 5162  21.822  25.458  12.530
38754W        W 5163  27.331  29.241  12.606
38755W        W 5164  33.095  42.903  12.415
38756W        W 5165   5.122  21.156  14.331
38757W        W 5166  28.604  20.194   4.151
38758W        W 5167  41.457  43.265  11.264
38759W        W 5168   6.122  17.917   3.672
38760W        W 5169  43.863   1.994   2.711
38761W        W 5170  34.555   0.248   4.225
38762W        W 5171  43.788  28.067   0.682
38763W        W 5172  23.275  28.119  11.946
38764W        W 5173  38.862  41.966  12.812
38765W        W 5174  25.207  27.079   3.734
38766W        W 5175   3.298  41.909   5.018
38767W        W 5176  38.734   4.234   0.346
38768W        W 5177   2.137  35.200  11.392
38769W        W 5178  25.328  12.343   0.843
38770W        W 5179  15.260   0.949   5.004
38771W        W 5180   5.844  27.431   1.368
38772W        W 5181  15.191  11.259   4.248
38773W        W 5182  40.460   0.088   0.991
38774W        W 5183  40.041  33.234  14.731
38775W        W 5184  41.418  21.115   3.457
38776W        W 5185   8.773  23.761   4.486
38777W        W 5186   6.624  12.067  10.814
38778W        W 5187  40.829  12.771   0.527
38779W        W 5188  20.813  17.559  11.910
38780W        W 5189   8.860  37.727   4.547
38781W        W 5190  39.432  23.979  13.967
38782W        W 5191  15.858  14.393   4.058
38783W        W 5192  26.787   1.367  12.577
38784W        W 5193  25.547  41.515   2.277
38785W        W 5194   0.004   7.911   1.241
38786W        W 5195   8.834  10.885  10.532
38787W        W 5196  30.147  22.594   0.419
38788W        W 5197  38.606   6.367  10.682
38789W        W 5198   7.612  39.627   1.701
38790W        W 5199  15.064  23.590  14.812
38791W        W 5200  24.393  10.808  11.991
38792W        W 5201  35.621  31.312  11.989
38793W        W 5202  13.113  37.553   0.206
38794W        W 5203   9.440  16.091  12.688
38795W        W 5204  22.101  27.697   3.167
38796W        W 5205  10.876  37.833   2.246
38797W        W 5206  25.779  18.705  12.391
38798W        W 5207  42.784  20.952  14.283
38799W        W 5208  19.559  10.888   4.715
38800W        W 5209   3.444  22.790   4.068
38801W        W 5210  34.381  20.679  12.832
38802W        W 5211  21.780   9.725   2.664
38803W        W 5212  10.919   4.203   0.119
38804W        W 5213  15.539  16.247   3.815
38805W        W 5214  12.583  39.397  12.067
38806W        W 5215  24.054  30.213  13.066
38807W        W 5216  18.030  21.149  11.591
38808W        W 5217  29.115   4.521  14.417
38809W        W 5218  29.172   0.329  12.917
38810W        W 5219  32.219  28.970   2.273
38811W        W 5220  24.103  18.887   3.313
38812W        W 5221  14.585  25.633   0.119
38813W        W 5222  31.439   3.853  14.522
38814W        W 5223   4.386  30.968  12.131
38815W        W 5224  20.091  36.958   4.465
38816W        W 5225  33.378   1.274   3.649
38817W        W 5226  26.835  31.928  13.365
38818W        W 5227   0.255   0.313   3.407
38819W        W 5228   6.860   4.174   4.744
38820W        W 5229  21.492  32.017  11.195
38821W        W 5230  33.150  12.916  12.015
38822W        W 5231  39.591  28.877   1.367
38823W        W 5232  43.035  19.868   0.368
38824W        W 5233   1.957  15.921   3.585
38825W        W 5234  31.471  20.602   1.115
38826W        W 5235  26.614   7.925  13.458
38827W        W 5236  33.880  39.754   2.720
38828W        W 5237  11.328   7.257   0.825
38829W        W 5238  26.566  29.255  13.439
38830W        W 5239  40.474  15.859   2.644
38831W        W 5240   7.438   6.667   1.432
38832W        W 5241  37.816  44.813  12.413
38833W        W 5242  24.928   2.764  10.692
38834W        W 5243  12.847  43.858  12.602
38835W        W 5244   0.973  22.024   0.159
38836W        W 5245  15.571  26.634   1.341
38837W        W 5246  31.372   1.389  12.066
38838W        W 5247  22.114  11.394   0.217
38839W        W 5248   5.399  41.033   1.719
38840W        W 5249   7.487   1.509  14.482
38841W        W 5250  35.605  12.074   4.113
38842W        W 5251  41.429  12.105   0.021
38843W        W 5252  38.296   9.327   0.822
38844W        W 5253  25.093  38.327   3.092
38845W        W 5254   5.785  10.055   0.744
38846W        W 5255  38.853  27.652  12.127
38847W        W 5256  22.704  36.083   1.234
38848W        W 5257  14.419   5.543  10.871
38849W        W 5258  39.881  28.997  13.522
38850W        W 5259  20.131  16.180   2.796
38851W        W 5260  42.331  34.826  10.717
38852W        W 5261  22.268  17.220   1.777
38853W        W 5262  31.564  43.436  12.093
38854W        W 5263   7.512  39.588  11.663
38855W        W 5264   8.763   2.736  10.942
38856W        W 5265  26.631   7.422  14.509
38857W        W 5266  12.909  44.971   0.481
38858W        W 5267  20.663  20.086   0.148
38859W        W 5268  42.815   3.425  14.811
38860W        W 5269   0.932  17.406  11.798
38861W        W 5270   8.048  26.571  13.299
38862W        W 5271  21.490  18.122  14.999
38863W        W 5272  44.549  22.699  12.230
38864W        W 5273  41.896  22.008  11.337
38865W        W 5274  23.857  32.335  14.253
38866W        W 5275  12.795  36.592  13.426
38867W        W 5276  24.199  17.125   3.187
38868W        W 5277  17.050  33.415   1.067
38869W        W 5278   2.367  28.028   0.923
38870W        W 5279   0.693  43.877  12.000
38871W        W 5280   9.452  37.706  12.453
38872W        W 5281  40.859  42.370   4.592
38873W        W 5282  33.098  17.099   3.689
38874W        W 5283  39.851  23.504   0.489
38875W        W 5284   9.198   3.274   4.087
38876W        W 5285  38.490  40.031  10.550
38877W        W 5286  33.575  42.315   1.941
38878W        W 5287  33.468  26.782  11.005
38879W        W 5288   7.330   0.992  10.932
38880W        W 5289  17.832  10.692   0.950
38881W        W 5290   2.895  42.472  10.653
38882W        W 5291  30.061   2.811  12.864
38883W        W 5292   1.915  15.653   0.629
38884W        W 5293  22.578   3.488  13.496
38885W        W 5294  15.085  19.022  11.169
38886W        W 5295  33.385   6.296   4.319
38887W        W 5296  37.223  39.346  13.074
38888W        W 5297   4.993  30.038  11.106
38889W        W 5298   3.008  33.049   4.725
38890W        W 5299  12.833   6.920   2.860
38891W        W 5300  14.671   9.276   1.279
38892W        W 5301  17.498  22.703   1.929
38893W        W 5302  40.299  34.608   1.047
38894W        W 5303  10.964  18.313  12.362
38895W        W 5304  10.785  21.706   2.167
38896W        W 5305   0.290  23.278  13.908
38897W        W 5306  18.770  16.867  11.017
38898W        W 5307  13.338   6.340   1.084
38899W        W 5308  14.407  14.010   1.812
38900W        W 5309   1.815  25.449  13.009
38901W        W 5310  21.407  22.714  10.085
38902W        W 5311  35.480  13.252  14.942
38903W        W 5312  38.289  29.485  12.093
38904W        W 5313  37.380  14.329   0.858
38905W        W 5314  44.027  41.720  13.089
38906W        W 5315  41.930  10.783   3.660
38907W        W 5316   1.993  43.183  11.567
38908W        W 5317  15.913  14.313   1.721
38909W        W 5318  36.597  34.532   0.900
38910W        W 5319  38.750  41.156  11.479
38911W        W 5320  12.712  29.162   2.372
38912W        W 5321  37.239  34.446   0.256
38913W        W 5322  19.630  26.957  14.841
38914W        W 5323  31.147  24.753   0.232
38915W        W 5324   2.999  10.031   0.319
38916W        W 5325  30.395  33.596   2.898
38917W        W 5326  31.776  42.817  13.050
38918W        W 5327  12.220  20.623  12.896
38919W        W 5328   2.249  19.368  11.907
38920W        W 5329   4.764   5.431   0.382
38921W        W 5330  44.004  34.019   1.964
38922W        W 5331  14.915  33.547   4.157
38923W        W 5332   6.033  10.155  13.304
38924W        W 5333  17.770  24.774   1.787
38925W        W 5334  15.140   7.553  13.391
38926W        W 5335  36.092  30.120  13.574
38927W        W 5336  18.487  26.927  14.278
38928W        W 5337  44.112  16.704  13.941
38929W        W 5338  12.364  30.119  10.745
38930W        W 5339  22.597  41.789   0.252
38931W        W 5340  24.537   8.915  14.787
38932W        W 5341  24.562  17.487  14.491
38933W        W 5342  25.119  14.622   0.667
38934W        W 5343  35.751  44.249   1.867
38935W        W 5344   0.046  18.854   1.153
38936W        W 5345  31.396   6.313   4.826
38937W        W 5346  28.476   6.849  14.028
38938W        W 5347  16.281  36.445  10.701
38939W        W 5348   3.949   8.978  12.029
38940W        W 5349  29.686   1.554  12.362
38941W        W 5350   6.957  27.639  14.902
38942W        W 5351  13.390  24.628  14.957
38943W        W 5352  20.507  15.121   2.896
38944W        W 5353  32.178  39.069   3.958
38945W        W 5354  40.927  39.234  12.383
38946W        W 5355  18.169   0.655  14.876
38947W        W 5356  44.029  30.493  11.663
38948W        W 5357  35.070  15.007  13.792
38949W        W 5358  24.672  17.532  13.597
38950W        W 5359  19.553  44.805   1.733
38951W        W 5360  25.446  39.113  11.483
38952W        W 5361  35.535  31.571   0.989
38953W        W 5362  32.187  38.205  11.391
38954W        W 5363  19.063  33.302   4.064
38955W        W 5364  27.101  13.562  11.627
38956W        W 5365   7.892  26.534   2.843
38957W        W 5366  11.485  13.181   4.535
38958W        W 5367  32.653  25.482  10.466
38959W        W 5368  37.064  20.854  14.833
38960W        W 5369  18.578   5.344  13.014
38961W        W 5370  40.977  19.717   1.729
38962W        W 5371  26.093  44.234  11.540
38963W        W 5372   1.712  27.403   2.805
38964W        W 5373  15.331  35.044   0.207
38965W        W 5374  14.372  25.494  13.088
38966W        W 5375   7.169   3.475  10.702
38967W        W 5376  19.856  11.452  12.674
38968W        W 5377  28.524  43.927  12.534
38969W        W 5378  42.294  18.684   1.850
38970W        W 5379  43.062  40.288  14.308
38971W        W 5380   5.983  19.381   3.627
38972W        W 5381  44.750  19.218   2.131
38973W        W 5382   9.787  22.387   2.960
38974W        W 5383  23.261  37.382   2.313
38975W        W 5384  36.444  31.075  14.001
38976W        W 5385  20.063  13.434  11.041
38977W        W 5386   3.854  17.519   3.152
38978W        W 5387  26.963  19.685   4.455
38979W        W 5388  32.768  28.603  12.874
38980W        W 5389  28.471  44.395   3.302
38981W        W 5390   9.638  13.888  14.353
38982W        W 5391  31.431  10.212   3.794
38983W        W 5392  22.250  43.947   2.273
38984W        W 5393  29.040  28.188  13.568
38985W        W 5394   0.200  25.958   0.664
38986W        W 5395  23.547  42.562   1.449
38987W        W 5396  16.284   3.525   0.884
38988W        W 5397  25.158  42.746  11.856
38989W        W 5398  16.561  26.093   3.698
38990W        W 5399   5.671  27.426   3.480
38991W        W 5400  39.015  42.018   3.729
38992W        W 5401  11.090  18.194  10.878
38993W        W 5402  29.353  19.162  14.888
38994W        W 5403  42.685  38.934   5.040
38995W        W 5404  15.155  16.118   2.733
38996W        W 5405   2.919  38.325  12.926
38997W        W 5406  15.530  27.059  10.735
38998W        W 5407  23.010  12.770  13.495
38999W        W 5408  19.545  28.473  12.161
39000W        W 5409  20.713  28.751   4.891
39001W        W 5410  44.486   0.900   0.242
39002W        W 5411  19.347  15.608   2.925
39003W        W 5412  20.168  32.930  11.422
39004W        W 5413  26.145  39.692   2.230
39005W        W 5414  34.564  22.926   2.053
39006W        W 5415  25.637  36.317   1.339
39007W        W 5416  12.102  38.365  13.847
39008W        W 5417  12.078  23.149  13.926
39009W        W 5418  23.166  40.548  13.838
39010W        W 5419  17.366  17.047  12.452
39011W        W 5420   5.874  40.633   2.901
39012W        W 5421   3.340  44.334   1.777
39013W        W 5422  21.302  44.965   0.829
39014W        W 5423  33.499  28.743   5.023
39015W        W 5424   3.691  19.128   3.658
39016W        W 5425  37.621   6.632   0.577
39017W        W 5426   8.587  36.685  13.403
39018W        W 5427  29.142   2.456  11.654
39019W        W 5428   7.380  39.564  12.982
39020W        W 5429  26.617   0.062   4.256
39021W        W 5430  25.134  31.144   0.400
39022W        W 5431   8.771   6.670   3.200
39023W        W 5432  12.922  21.594  12.295
39024W        W 5433  23.962  14.228   5.108
39025W        W 5434   0.122  33.416   4.201
39026W        W 5435  37.217  19.473   4.056
39027W        W 5436  40.023   7.576  12.937
39028W        W 5437  39.358  18.113  12.908
39029W        W 5438  22.284  12.899  14.003
39030W        W 5439  44.544  34.841   0.631
39031W        W 5440  43.939   3.017  14.087
39032W        W 5441  10.218  33.984  13.931
39033W        W 5442  21.074  10.758  12.937
39034W        W 5443  42.193   6.773  14.770
39035W        W 5444  15.978  13.695   0.990
39036W        W 5445   6.875  13.230   1.707
39037W        W 5446   5.612  18.756  13.833
39038W        W 5447  10.164  30.966  10.241
39039W        W 5448  20.029  18.526   1.057
39040W        W 5449  28.267  26.989   2.881
39041W        W 5450  17.857  43.968  12.527
39042W        W 5451  43.874  29.536   1.716
39043W        W 5452  32.053  38.239   4.689
39044W        W 5453  15.297  35.946   2.223
39045W        W 5454   9.769  15.830   1.355
39046W        W 5455  31.043  41.578  12.861
39047W        W 5456  33.906   5.941   3.618
39048W        W 5457   4.918   8.040   4.165
39049W        W 5458   9.828   0.276  11.356
39050W        W 5459  25.315  15.808  14.997
39051W        W 5460  32.126   5.566   4.092
39052W        W 5461  38.783  34.895   4.995
39053W        W 5462  15.137   0.700   5.456
39054W        W 5463  41.992   7.368  12.482
39055W        W 5464  41.976   2.705   1.218
39056W        W 5465   7.332  20.755  11.507
39057W        W 5466  35.042  13.970   4.658
39058W        W 5467  39.468  19.118   5.738
39059W        W 5468  42.960   0.969   2.178
39060W        W 5469   8.791  10.217   2.403
39061W        W 5470  15.149  10.002   3.238
39062W        W 5471  20.982  11.177   4.563
39063W        W 5472   1.694  42.303  14.790
39064W        W 5473  32.594  39.456  13.499
39065W        W 5474  26.386  24.152   0.940
39066W        W 5475  29.687  22.791  13.003
39067W        W 5476  43.384  14.770  13.406
39068W        W 5477  28.067  30.518   1.192
39069W        W 5478  38.535  29.487   2.647
39070W        W 5479   4.121  12.302   3.564
39071W        W 5480  14.249  39.571   0.787
39072W        W 5481  30.839   0.441   4.402
39073W        W 5482  23.543  44.614   3.307
39074W        W 5483  41.459  35.913   1.621
39075W        W 5484   1.142   1.119  11.952
39076W        W 5485  44.126  42.958   0.014
39077W        W 5486  35.385  26.453  12.967
39078W        W 5487  39.066  23.286   4.634
39079W        W 5488  12.283  27.693  10.482
39080W        W 5489  14.603  16.442  13.633
39081W        W 5490   9.041  32.755   1.691
39082W        W 5491   5.193  28.557   4.378
39083W        W 5492  35.856  22.598   4.118
39084W        W 5493  13.302  36.423   2.859
39085W        W 5494  31.228  23.290   4.167
39086W        W 5495  18.100  44.769   0.725
39087W        W 5496  28.430  34.829   3.760
39088W        W 5497   3.978   8.922   0.455
39089W        W 5498  30.761   9.145  10.418
39090W        W 5499  13.168  35.547   1.238
39091W        W 5500   8.470  30.022  13.988
39092W        W 5501  37.864  15.646  12.816
39093W        W 5502   0.949  28.514  12.832
39094W        W 5503  37.871   4.963  12.952
39095W        W 5504  20.212  10.677  14.881
39096W        W 5505  32.105  36.260  12.938
39097W        W 5506  31.332  32.000   4.568
39098W        W 5507  27.147  40.837  11.476
39099W        W 5508  15.245  26.848   3.297
39100W        W 5509  19.623   3.705   2.139
39101W        W 5510  10.558  32.033  13.294
39102W        W 5511  39.343  41.294  11.131
39103W        W 5512  43.806  19.650   3.952
39104W        W 5513  27.120  17.098  13.968
39105W        W 5514   6.801  26.643  11.510
39106W        W 5515  23.171  13.433  13.918
39107W        W 5516  41.200   6.851  12.570
39108W        W 5517   2.348  40.962   4.578
39109W        W 5518  20.421  12.726   0.964
39110W        W 5519  25.425  35.248   2.933
39111W        W 5520  18.971  15.670   3.279
39112W        W 5521  28.980  10.280  13.874
39113W        W 5522  17.628  10.371  14.292
39114W        W 5523  33.936  22.087  11.506
39115W        W 5524  43.492  17.865   5.070
39116W        W 5525  24.930  14.671  12.983
39117W        W 5526  44.406   6.107  14.824
39118W        W 5527  25.131  23.538   3.554
39119W        W 5528  33.090  30.889   0.066
39120W        W 5529  31.143  13.756   2.592
39121W        W 5530   4.548  12.908  12.597
39122W        W 5531  24.186  28.894  14.850
39123W        W 5532   4.308  18.339   3.393
39124W        W 5533  11.380  14.152   1.262
39125W        W 5534  28.448  43.382  11.496
39126W        W 5535  19.307  41.043   2.970
39127W        W 5536  21.291  40.249   4.182
39128W        W 5537   1.497  32.348   2.167
39129W        W 5538  35.340  35.417   1.247
39130W        W 5539   6.312   6.290  12.944
39131W        W 5540  10.211  34.393   1.834
39132W        W 5541   1.904  11.440   4.546
39133W        W 5542  20.202  35.174  12.557
39134W        W 5543  19.774  16.618  11.071
39135W        W 5544  17.279   1.660  13.999
39136W        W 5545  10.166  39.001   0.386
39137W        W 5546  30.664   8.037   5.087
39138W        W 5547  24.347  15.357  10.588
39139W        W 5548  28.095  13.181  10.079
39140W        W 5549  34.858  24.039  12.971
39141W        W 5550   1.407  11.241   4.550
39142W        W 5551  42.426  10.199   0.685
39143W        W 5552  15.689   7.195  11.431
39144W        W 5553   0.227   8.158  14.304
39145W        W 5554  31.844  39.989   4.252
39146W        W 5555  32.425  17.959  13.585
39147W        W 5556  42.754  14.174   3.143
39148W        W 5557  43.048   8.999   2.737
39149W        W 5558   2.935  37.884   1.941
39150W        W 5559  32.977  41.985  14.476
39151W        W 5560  15.147  43.210   3.634
39152W        W 5561  10.329  41.853  12.221
39153W        W 5562  14.442  25.814   3.600
39154W        W 5563   4.747  14.971  13.442
39155W        W 5564   5.348  24.284   0.930
39156W        W 5565  37.839   2.041  10.611
39157W        W 5566  37.367  36.387   1.958
39158W        W 5567   4.430  34.817   0.471
39159W        W 5568   3.214  14.326  10.768
39160W        W 5569   0.894   1.171   3.298
39161W        W 5570  19.572  28.637  14.422
39162W        W 5571  31.043  38.214  10.507
39163W        W 5572  31.900  35.131  14.813
39164W        W 5573  33.692  14.030  13.846
39165W        W 5574   6.931   9.464  14.875
39166W        W 5575  42.821  39.394  13.886
39167W        W 5576  27.999  20.768   1.216
39168W        W 5577  42.158  16.763   4.669
39169W        W 5578  42.730  14.627   1.801
39170W        W 5579  19.020  35.409   2.876
39171W        W 5580  36.261  19.393   5.084
39172W        W 5581   7.663  25.154   3.326
39173W        W 5582  23.038  13.149   3.146
39174W        W 5583   6.139   5.885   1.619
39175W        W 5584  32.630  22.336  12.487
39176W        W 5585  30.367  39.059  12.920
39177W        W 5586  29.710  24.246   3.046
39178W        W 5587  23.787  36.325   1.717
39179W        W 5588  39.452  19.071  14.343
39180W        W 5589  22.083  41.781   0.269
39181W        W 5590   8.367   5.470  14.991
39182W        W 5591  14.260   4.512  10.428
39183W        W 5592   6.416  11.589   0.844
39184W        W 5593   7.203  27.257  12.890
39185W        W 5594  16.892   7.508   2.324
39186W        W 5595  44.331   7.302   0.973
39187W        W 5596  27.537   3.750   2.971
39188W        W 5597   2.249  29.578  12.517
39189W        W 5598  28.627   7.640   4.306
39190W        W 5599  20.579   0.752   1.866
39191W        W 5600  26.750   2.555   4.319
39192W        W 5601  16.268   4.262  11.544
39193W        W 5602  17.003   7.190   4.022
39194W        W 5603  21.707   5.818   0.805
39195W        W 5604  16.872  31.041   1.572
39196W        W 5605  23.512   5.142   0.938
39197W        W 5606  35.420  31.453  11.179
39198W        W 5607   1.452  39.914  12.637
39199W        W 5608  14.382   3.186   4.587
39200W        W 5609  13.143  35.765  14.355
39201W        W 5610  12.203  22.696   0.617
39202W        W 5611  29.531   0.265   5.084
39203W        W 5612  40.244  15.782  14.016
39204W        W 5613  36.415  31.702   0.811
39205W        W 5614   2.054  16.289   4.573
39206W        W 5615  18.691  27.549  10.420
39207W        W 5616  16.075  27.947   4.114
39208W        W 5617  36.544  20.706   3.166
39209W        W 5618  36.298  25.936   2.154
39210W        W 5619  18.133   4.466   0.795
39211W        W 5620  28.071  24.547   2.253
39212W        W 5621  11.738  22.724  10.394
39213W        W 5622   0.891  24.275   2.414
39214W        W 5623   6.875  34.852   0.871
39215W        W 5624   4.328   4.839  14.245
39216W        W 5625   7.948  14.292   2.388
39217W        W 5626  41.804  28.211  11.225
39218W        W 5627   2.917  34.395   4.561
39219W        W 5628   2.349  19.089  14.281
39220W        W 5629  22.222  39.333   4.151
39221W        W 5630   8.756  34.835   4.431
39222W        W 5631  22.988  35.936  14.906
39223W        W 5632  39.376   4.904   0.970
39224W        W 5633   7.401  29.617  12.823
39225W        W 5634  10.376  42.090   4.801
39226W        W 5635  20.497  13.335   1.813
39227W        W 5636   2.928  36.072   4.420
39228W        W 5637   6.828  36.607  10.712
39229W        W 5638   1.340  36.473  13.519
39230W        W 5639  15.939   3.662   3.239
39231W        W 5640  22.253  23.974  12.401
39232W        W 5641  19.561  34.595   3.707
39233W        W 5642  33.991  17.513   2.637
39234W        W 5643  42.294  31.460   3.163
39235W        W 5644   2.761  37.517   3.225
39236W        W 5645  15.066  16.274   4.009
39237W        W 5646  27.201  35.091  10.462
39238W        W 5647  33.368  20.812  14.843
39239W        W 5648  22.656   0.943   1.043
39240W        W 5649  35.464  43.230   1.241
39241W        W 5650  32.040  39.005   3.451
39242W        W 5651  26.383  15.184   1.346
39243W        W 5652  30.707   7.151  13.519
39244W        W 5653  15.750   6.243  11.285
39245W        W 5654   4.874  13.501   4.086
39246W        W 5655   4.861  40.558   2.174
39247W        W 5656   2.508  30.154   3.268
39248W        W 5657  31.854  22.533  13.896
39249W        W 5658   5.321   7.224   4.160
39250W        W 5659  39.825   9.569  13.001
39251W        W 5660  33.355  26.972  14.407
39252W        W 5661   1.710  15.744  14.275
39253W        W 5662  19.843  20.514  12.378
39254W        W 5663  11.456  31.125  10.769
39255W        W 5664   6.377  26.933   2.665
39256W        W 5665  42.771  42.823  12.515
39257W        W 5666  10.329   4.244   0.135
39258W        W 5667  35.822  30.812  10.775
39259W        W 5668  14.042  21.988  13.514
39260W        W 5669   2.859  12.387  11.095
39261W        W 5670  12.413  21.766  14.360
39262W        W 5671  14.062   5.064  12.571
39263W        W 5672   2.326  21.176   3.307
39264W        W 5673   0.768  11.603   0.739
39265W        W 5674  38.073  35.934   4.194
39266W        W 5675  22.226  11.697  13.451
39267W        W 5676   8.294  28.507  14.514
39268W        W 5677   6.354  26.152   1.046
39269W        W 5678   7.283  20.076  10.968
39270W        W 5679   8.000   4.396   0.934
39271W        W 5680  11.918   9.629  14.826
39272W        W 5681   3.242  17.809  11.351
39273W        W 5682   5.498  39.690   3.580
39274W        W 5683  23.489  37.987   3.277
39275W        W 5684  24.535  16.610   0.436
39276W        W 5685  34.790  24.754   2.399
39277W        W 5686  36.404   1.724  12.866
39278W        W 5687  20.223  31.470   4.175
39279W        W 5688  37.200  23.154  13.406
39280W        W 5689   9.565  23.203   4.906
39281W        W 5690  41.013   4.946  13.374
39282W        W 5691  12.828  22.762   0.885
39283W        W 5692   9.671   2.004  14.947
39284W        W 5693  39.951   2.940  11.032
39285W        W 5694  33.509  36.086   2.345
39286W        W 5695  35.726  36.344  12.064
39287W        W 5696  33.953  10.903   2.897
39288W        W 5697  25.133  35.408   0.966
39289W        W 5698   9.191  40.186  14.324
39290W        W 5699  41.055  34.630   2.151
39291W        W 5700  15.014  28.240   0.922
39292W        W 5701   6.658   1.720   4.133
39293W        W 5702  32.015  16.831   2.807
39294W        W 5703   2.451  20.095  10.725
39295W        W 5704  44.438  41.612   2.940
39296W        W 5705   3.707   0.272   3.836
39297W        W 5706  36.355   4.954  14.422
39298W        W 5707  19.094  15.088   0.786
39299W        W 5708  11.694   9.895   2.351
39300W        W 5709   7.753  28.578   2.274
39301W        W 5710  33.204  13.982  14.015
39302W        W 5711  20.250  33.892  13.930
39303W        W 5712  41.254  35.482   1.859
39304W        W 5713  14.722  10.276   2.136
39305W        W 5714  42.227  34.782  14.440
39306W        W 5715  15.329  20.175   1.756
39307W        W 5716  42.843  26.019  13.281
39308W        W 5717  28.321  29.900  12.913
39309W        W 5718  44.920  32.132  10.943
39310W        W 5719   0.897  43.686   3.649
39311W        W 5720  37.551  27.461   0.887
39312W        W 5721  37.330  25.267   0.412
39313W        W 5722   6.192  41.477   2.537
39314W        W 5723  25.038   3.573   4.452
39315W        W 5724  27.716  22.248  13.570
39316W        W 5725  20.107  36.463   1.588
39317W        W 5726  39.323  27.529   4.657
39318W        W 5727   8.178  17.861  12.971
39319W        W 5728  31.722   3.814   3.514
39320W        W 5729  30.940  37.284  10.314
39321W        W 5730  28.027  20.487   1.696
39322W        W 5731  20.907   2.371  10.729
39323W        W 5732  25.651   5.659   4.560
39324W        W 5733   4.240  25.433  10.750
39325W        W 5734  25.778  40.663   4.913
39326W        W 5735  17.624  24.520  13.556
39327W        W 5736  39.451  14.128  12.018
39328W        W 5737  21.759  19.370   3.637
39329W        W 5738  23.052  44.062  11.499
39330W        W 5739  33.427  10.425  13.926
39331W        W 5740  33.015  30.989   4.063
39332W        W 5741  16.931  23.979  12.875
39333W        W 5742  40.373  15.462  12.778
39334W        W 5743  29.917  33.040   0.106
39335W        W 5744  38.520  17.583  14.072
39336W        W 5745  33.329  18.655  11.704
39337W        W 5746  40.384  30.647  11.086
39338W        W 5747  36.884  36.564  12.916
39339W        W 5748  13.678   1.893   4.070
39340W        W 5749  15.606  18.771  13.421
39341W        W 5750  23.723  20.104  10.410
39342W        W 5751  44.447  25.729  11.742
39343W        W 5752  18.742  20.585   1.369
39344W        W 5753   2.364   2.554   4.670
39345W        W 5754  30.635  32.344  14.865
39346W        W 5755  11.210   1.524  11.438
39347W        W 5756   7.849  31.729   2.341
39348W        W 5757  29.033  13.508  14.662
39349W        W 5758  40.478  35.553   2.385
39350W        W 5759  37.002  20.478  13.056
39351W        W 5760  31.670   8.592  13.411
39352W        W 5761  25.217  27.070   0.936
39353W        W 5762  23.320  17.783  14.860
39354W        W 5763  28.919   3.994  11.771
39355W        W 5764  27.740  35.501   3.902
39356W        W 5765  18.735   9.464  11.647
39357W        W 5766  11.871   6.311  14.773
39358W        W 5767  41.835  28.803   0.857
39359W        W 5768  24.595  41.592  14.273
39360W        W 5769  27.599   4.855   0.737
39361W        W 5770   8.444  21.547  12.067
39362W        W 5771  29.738  37.109   2.476
39363W        W 5772  22.502  40.315   1.637
39364W        W 5773  18.734   1.795  11.967
39365W        W 5774  41.993  35.005   1.936
39366W        W 5775  19.784   8.809   4.560
39367W        W 5776   0.734  17.164  14.828
39368W        W 5777  22.419  10.457   5.294
39369W        W 5778   7.295  26.268  12.826
39370W        W 5779  26.257   4.754   1.409
39371W        W 5780   5.363  21.601   3.431
39372W        W 5781  32.171   2.489   2.072
39373W        W 5782  26.979  42.544   3.354
39374W        W 5783  26.537  40.295  10.468
39375W        W 5784  20.972  28.513  14.744
39376W        W 5785  15.875  34.394  14.884
39377W        W 5786  10.409  36.413  11.400
39378W        W 5787  23.814  31.922  12.899
39379W        W 5788  32.994  33.061   4.851
39380W        W 5789  38.388  44.524   4.895
39381W        W 5790  17.168   7.629   1.899
39382W        W 5791  14.187  33.117   0.804
39383W        W 5792  20.167   0.993   2.618
39384W        W 5793  10.695  37.124  12.564
39385W        W 5794  27.897  32.016   3.275
39386W        W 5795   5.432  26.067  13.126
39387W        W 5796   7.890  43.309  14.867
39388W        W 5797   7.083   1.720  14.203
39389W        W 5798   8.743   6.752  10.674
39390W        W 5799  24.945  36.845   0.523
39391W        W 5800  22.234  43.866   0.771
39392W        W 5801   4.757   9.789   1.957
39393W        W 5802   2.341  42.502   0.608
39394W        W 5803  23.273  24.666  12.374
39395W        W 5804   0.259  11.429   2.102
39396W        W 5805  20.513  34.898  14.409
39397W        W 5806  36.328  44.791   2.251
39398W        W 5807  39.553  19.446  10.761
39399W        W 5808  27.844   5.278  14.747
39400W        W 5809   2.498  37.096  12.581
39401W        W 5810  24.688  17.574   4.626
39402W        W 5811  20.777   5.422   4.143
39403W        W 5812   5.031  43.864   1.577
39404W        W 5813  29.036  24.494  14.989
39405W        W 5814  35.366  40.089  14.516
39406W        W 5815  25.883  38.525  12.024
39407W        W 5816  14.042  28.954  11.981
39408W        W 5817  39.216  30.111  11.607
39409W        W 5818  38.287  18.299   3.144
39410W        W 5819  22.251  22.783   0.961
39411W        W 5820  12.305  33.039  13.828
39412W        W 5821  25.991  33.997  10.869
39413W        W 5822  29.781  43.947  13.062
39414W        W 5823  12.251   6.304   1.845
39415W        W 5824  10.335  32.634   1.498
39416W        W 5825   4.401  32.342  11.935
39417W        W 5826  14.139  41.831   1.252
39418W        W 5827  42.432  42.842   4.575
39419W        W 5828  42.136  13.657  13.113
39420W        W 5829   2.664  40.529   4.682
39421W        W 5830  31.369   4.934  11.271
39422W        W 5831  21.511   9.267   2.793
39423W        W 5832  34.918  43.402  13.499
39424W        W 5833  17.747  22.177   1.634
39425W        W 5834   3.139   7.131  12.936
39426W        W 5835  30.416  39.325  12.464
39427W        W 5836   8.167  16.511   4.340
39428W        W 5837  22.748  19.360   0.130
39429W        W 5838   9.763  10.803   0.291
39430W        W 5839  39.069  40.228  14.582
39431W        W 5840   6.709  24.937   1.475
39432W        W 5841  32.212   0.999   0.457
39433W        W 5842   1.278  35.972   1.750
39434W        W 5843   5.908  30.886  11.397
39435W        W 5844   2.412  12.671   4.307
39436W        W 5845  18.278  28.292  14.340
39437W        W 5846  32.611  12.288   3.322
39438W        W 5847  26.741  34.941   4.160
39439W        W 5848  27.005  19.465  14.320
39440W        W 5849  26.714  43.348   1.925
39441W        W 5850  43.546   5.810  13.432
39442W        W 5851  37.085   7.921  11.114
39443W        W 5852  23.209  43.770   0.901
39444W        W 5853   3.636  32.743  11.609
39445W        W 5854  43.271   4.210  10.697
39446W        W 5855   4.415  11.844   4.393
39447W        W 5856  34.493  10.176   0.364
39448W        W 5857  16.364  21.341  12.593
39449W        W 5858  34.907  17.350   4.635
39450W        W 5859   1.888  33.714  12.686
39451W        W 5860   2.772  33.995  14.370
39452W        W 5861  13.293  16.219   2.835
39453W        W 5862  37.512  22.306  14.969
39454W        W 5863  18.629  27.697  14.947
39455W        W 5864  28.692  44.003  14.884
39456W        W 5865   2.720  11.645   3.229
39457W        W 5866  39.264  12.687   0.507
39458W        W 5867  25.129  38.970   1.419
39459W        W 5868  19.341  40.040  12.460
39460W        W 5869  10.230  31.293   3.991
39461W        W 5870  39.851  20.577  11.337
39462W        W 5871  25.511  17.831  12.750
39463W        W 5872   8.207  29.084   9.932
39464W        W 5873   0.813  34.090   0.909
39465W        W 5874  34.028   6.978   0.655
39466W        W 5875  44.290  36.494  10.688
39467W        W 5876  21.810   0.648  10.724
39468W        W 5877   0.028  43.510   2.603
39469W        W 5878  42.805  39.404   0.847
39470W        W 5879  31.065   8.500   0.987
39471W        W 5880  44.577  18.364   4.573
39472W        W 5881  41.264  27.266  12.835
39473W        W 5882  28.181   2.767  12.212
39474W        W 5883  43.256   8.139   4.973
39475W        W 5884  28.050   3.712   0.520
39476W        W 5885   0.957  32.031  11.268
39477W        W 5886  11.280  34.381   3.074
39478W        W 5887   1.380  38.297  10.663
39479W        W 5888  29.390   9.515  14.521
39480W        W 5889   0.965  16.790   2.817
39481W        W 5890  44.097  24.497   4.625
39482W        W 5891  34.687   4.818   1.763
39483W        W 5892  37.096  30.211   4.626
39484W        W 5893  16.194   1.559  11.116
39485W        W 5894  33.557  17.148   0.937
39486W        W 5895  43.748  18.251  14.722
39487W        W 5896  30.678  20.598   4.512
39488W        W 5897   3.850   7.214   0.481
39489W        W 5898  15.556  31.421  13.922
39490W        W 5899  16.056  31.535  10.734
39491W        W 5900   3.836   2.779  14.514
39492W        W 5901  10.589  30.006   4.533
39493W        W 5902  24.603  33.629  11.018
39494W        W 5903  31.242  13.704   4.956
39495W        W 5904  32.633   2.380  13.919
39496W        W 5905  40.052  19.682   2.168
39497W        W 5906  25.090  11.698  14.500
39498W        W 5907   2.593  12.913   3.904
39499W        W 5908  37.016   6.958   1.205
39500W        W 5909   3.331  21.083  13.397
39501W        W 5910  40.114  20.264   2.834
39502W        W 5911  41.429   7.810   4.393
39503W        W 5912   9.314  40.588  14.611
39504W        W 5913  12.501  19.951   4.071
39505W        W 5914   1.758  30.428   2.879
39506W        W 5915  10.290  37.790   5.044
39507W        W 5916  33.046  36.614   1.064
39508W        W 5917   5.623  13.695  12.782
39509W        W 5918  39.371  21.723  10.967
39510W        W 5919  10.203  39.455   4.221
39511W        W 5920  39.817  35.421  12.377
39512W        W 5921   9.849  16.805  11.415
39513W        W 5922   1.948  17.187   1.392
39514W        W 5923  44.529  14.404   4.255
39515W        W 5924   3.305  30.644   3.216
39516W        W 5925  39.767  22.227   0.303
39517W        W 5926  39.428  37.074  14.407
39518W        W 5927  31.681  28.405  12.057
39519W        W 5928   3.942  13.576  12.096
39520W        W 5929  31.844   6.239  14.488
39521W        W 5930   2.083   4.872  10.586
39522W        W 5931  35.498  11.798   4.679
39523W        W 5932  13.663  41.365  14.516
39524W        W 5933   5.866   2.806  14.783
39525W        W 5934  40.718  11.617   1.420
39526W        W 5935   8.006  19.505  10.217
39527W        W 5936  17.227  44.583  12.986
39528W        W 5937   7.583  21.890   3.328
39529W        W 5938   5.700  32.368   4.215
39530W        W 5939  27.206   7.060   5.380
39531W        W 5940  37.041  17.117   9.836
39532W        W 5941  29.887   2.455   4.565
39533W        W 5942   5.988  14.743  11.978
39534W        W 5943   3.272  44.412   4.658
39535W        W 5944  43.656   8.179  10.551
39536W        W 5945  19.614  39.079  13.598
39537W        W 5946  37.940  30.503  12.838
39538W        W 5947  16.726   6.423   4.385
39539W        W 5948  28.684  21.265  11.437
39540W        W 5949  42.434  25.541  11.662
39541W        W 5950  35.960  22.713   3.076
39542W        W 5951  29.459  12.267  11.102
39543W        W 5952  10.416  16.790  14.364
39544W        W 5953  27.180  30.988  12.244
39545W        W 5954   3.168   8.258  12.817
39546W        W 5955  17.648   0.493  14.473
39547W        W 5956   8.509  37.562   4.916
39548W        W 5957  38.478  34.648  12.476
39549W        W 5958  24.906  18.978   2.091
39550W        W 5959  37.861  14.804  13.112
39551W        W 5960  32.561  14.253   3.345
39552W        W 5961  43.828  42.590  12.029
39553W        W 5962  16.086  29.357  12.407
39554W        W 5963  36.770   8.661  11.720
39555W        W 5964  12.682  26.809  10.567
39556W        W 5965  17.801  39.837   3.602
39557W        W 5966  13.586  38.980   3.445
39558W        W 5967   4.897  43.479   3.255
39559W        W 5968  31.120  22.801  12.380
39560W        W 5969  35.896  14.192  12.788
39561W        W 5970  32.127   9.699   0.507
39562W        W 5971  35.465  23.225   4.678
39563W        W 5972   9.668  36.029   5.476
39564W        W 5973  25.130  29.038  10.729
39565W        W 5974  23.325  20.679   1.415
39566W        W 5975  32.134  33.296   4.542
39567W        W 5976  29.481  34.526  12.144
39568W        W 5977  28.166  25.432   2.869
39569W        W 5978  21.038  37.368   3.180
39570W        W 5979  17.430  33.643  12.194
39571W        W 5980  24.333  35.521  11.153
39572W        W 5981  44.796  27.940  14.851
39573W        W 5982  14.111  34.467   0.329
39574W        W 5983  33.700   4.849   4.588
39575W        W 5984   4.181  33.531   2.674
39576W        W 5985   0.732  30.115   4.014
39577W        W 5986  43.545  40.536   0.322
39578W        W 5987   2.905  40.310   3.718
39579W        W 5988  19.899  19.650   1.291
39580W        W 5989  29.331  41.469   3.653
39581W        W 5990  27.429  25.513  14.987
39582W        W 5991  40.907  15.624   1.667
39583W        W 5992   1.882  22.004   1.191
39584W        W 5993  33.099  25.741  10.641
39585W        W 5994  38.561  43.420   1.659
39586W        W 5995  35.916  19.261   2.490
39587W        W 5996  35.060  34.491   0.672
39588W        W 5997   1.451  22.678   3.195
39589W        W 5998  31.770  18.732  12.817
39590W        W 5999  25.424  43.018  14.272
39591W        W 6000  11.108   6.087  14.344
39592W        W 6001  23.110  37.953  13.625
39593W        W 6002  26.019  25.745  14.961
39594W        W 6003  14.113  27.954   1.305
39595W        W 6004  28.627  41.564  12.493
39596W        W 6005   1.340  10.694  12.391
39597W        W 6006  18.567   8.301   4.205
39598W        W 6007  11.713  39.468  12.548
39599W        W 6008  20.657  17.264   3.781
39600W        W 6009  31.920  13.239  14.912
39601W        W 6010  38.083  13.373   1.668
39602W        W 6011  11.875  33.340  13.930
39603W        W 6012  40.461  41.448  12.883
39604W        W 6013  40.839  33.321   4.513
39605W        W 6014  30.136   3.268   0.522
39606W        W 6015  26.078  11.066   4.110
39607W        W 6016  38.966   4.032  11.506
39608W        W 6017  44.337  11.344  10.857
39609W        W 6018  39.134   7.896   3.088
39610W        W 6019  26.432  30.117  14.402
39611W        W 6020  21.320  26.517   1.797
39612W        W 6021  35.937  38.982   1.361
39613W        W 6022   5.350   6.709   4.140
39614W        W 6023  18.803  12.669   0.382
39615W        W 6024   1.684  35.361  13.487
39616W        W 6025   3.975   5.261  10.939
39617W        W 6026  37.970   9.383  10.720
39618W        W 6027  33.835  39.842   4.082
39619W        W 6028  22.102  34.904  12.056
39620W        W 6029  18.172  37.651  14.256
39621W        W 6030  14.122  41.713  10.802
39622W        W 6031  28.830  44.360   1.788
39623W        W 6032  17.736  43.012  14.419
39624W        W 6033  20.209   0.227   3.772
39625W        W 6034  27.051   2.805  11.180
39626W        W 6035   8.250  37.068   0.288
39627W        W 6036  22.663   3.990  10.653
39628W        W 6037  39.064   3.410   1.770
39629W        W 6038   6.925   5.599  11.445
39630W        W 6039   7.309  26.664  11.589
39631W        W 6040   5.129  33.905   9.830
39632W        W 6041  34.533  17.130  12.472
39633W        W 6042   9.356  12.644  11.657
39634W        W 6043   5.853  16.713  11.541
39635W        W 6044  18.598  37.471   2.345
39636W        W 6045  17.536  20.221  13.032
39637W        W 6046  43.999  17.395  13.451
39638W        W 6047   6.794  20.548   3.268
39639W        W 6048  24.132  23.443   2.073
39640W        W 6049  34.470  43.349   1.593
39641W        W 6050   3.841  14.295  12.579
39642W        W 6051   2.866   1.885   0.913
39643W        W 6052  37.707  16.668  14.378
39644W        W 6053  23.520  19.110   0.426
39645W        W 6054  24.606  35.737   3.434
39646W        W 6055  29.613  35.168   2.361
39647W        W 6056  28.220  33.590  14.988
39648W        W 6057  17.302  35.122   0.260
39649W        W 6058  44.012  14.323  12.763
39650W        W 6059   5.018  31.481   4.984
39651W        W 6060  32.811  20.970  10.740
39652W        W 6061  31.289  38.406  12.274
39653W        W 6062  42.195  15.262  14.950
39654W        W 6063  40.346   4.970  14.067
39655W        W 6064  40.981  39.442   4.005
39656W        W 6065  38.113   1.500   2.838
39657W        W 6066  18.098  36.955   5.513
39658W        W 6067   1.894  42.361   2.436
39659W        W 6068  11.053   8.722   1.469
39660W        W 6069  42.503  36.856   4.284
39661W        W 6070  44.048   9.316   0.011
39662W        W 6071   7.453  43.933  14.866
39663W        W 6072  44.011  40.821   3.198
39664W        W 6073  16.962  31.709   1.287
39665W        W 6074  11.211  28.687   3.933
39666W        W 6075  39.483  12.092   4.924
39667W        W 6076   3.962  32.585   3.141
39668W        W 6077  10.395  31.387  12.221
39669W        W 6078  36.928   8.984   3.697
39670W        W 6079  22.343  21.019  14.375
39671W        W 6080  43.807  34.609   0.587
39672W        W 6081  41.274   4.595  11.619
39673W        W 6082  14.296  37.590   2.825
39674W        W 6083   8.239  14.861  13.025
39675W        W 6084  44.000  42.826   2.455
39676W        W 6085  25.261   7.038   4.467
39677W        W 6086  23.231  43.807  12.952
39678W        W 6087  16.755   3.796   3.284
39679W        W 6088  41.850  32.904  12.371
39680W        W 6089  26.719  32.599  14.844
39681W        W 6090  20.060   7.652   3.231
39682W        W 6091  19.179  39.030   2.843
39683W        W 6092  39.856  39.517   1.680
39684W        W 6093  26.713  43.396  13.598
39685W        W 6094   3.777  32.865   1.869
39686W        W 6095  42.312  42.644   3.707
39687W        W 6096   0.521  15.814   1.152
39688W        W 6097  28.932   6.251   4.198
39689W        W 6098  34.116  34.739  11.610
39690W        W 6099   8.990  29.585  11.443
39691W        W 6100  29.044   1.945  10.786
39692W        W 6101  30.417  39.300  13.947
39693W        W 6102   3.506  26.499   0.796
39694W        W 6103  35.176  27.394  13.413
39695W        W 6104  22.284  17.185  12.133
39696W        W 6105  36.985  28.715   3.624
39697W        W 6106  10.689  10.375  10.560
39698W        W 6107  28.137  38.978  12.877
39699W        W 6108  27.213   1.736  10.849
39700W        W 6109  30.421  29.432  13.061
39701W        W 6110  15.057  40.886   2.869
39702W        W 6111   8.639  29.561   2.647
39703W        W 6112  34.817  40.935  13.359
39704W        W 6113  34.075  41.854   1.415
39705W        W 6114  37.106   3.502  14.519
39706W        W 6115  39.846  41.441  12.956
39707W        W 6116   4.574  14.776   4.859
39708W        W 6117  38.443  20.731   2.248
39709W        W 6118  29.916   6.219  14.515
39710W        W 6119   2.290  20.192   1.738
39711W        W 6120  15.409  39.985   0.336
39712W        W 6121   2.879  35.874  10.504
39713W        W 6122  29.389  12.245   1.872
39714W        W 6123  12.129  19.674   1.008
39715W        W 6124  37.527  27.161   1.700
39716W        W 6125  42.835  17.529   0.828
39717W        W 6126   3.947  28.689   3.555
39718W        W 6127  11.742  41.128  11.716
39719W        W 6128  25.492   8.803   2.425
39720W        W 6129  16.648  25.505   2.770
39721W        W 6130   9.843  42.538  13.931
39722W        W 6131  27.349   4.763  10.618
39723W        W 6132  37.104  23.601   1.122
39724W        W 6133  30.180  12.701   0.066
39725W        W 6134  32.707  27.449   2.765
39726W        W 6135   0.208  41.260   3.619
39727W        W 6136  37.605  39.061   3.410
39728W        W 6137  11.327   4.273  10.252
39729W        W 6138  33.465  25.262   4.325
39730W        W 6139  13.371  28.176   4.175
39731W        W 6140  25.613  32.239   2.074
39732W        W 6141  44.275  27.238  14.525
39733W        W 6142   7.930  42.079  13.505
39734W        W 6143  16.286  14.566   4.866
39735W        W 6144  10.544   7.365  10.566
39736W        W 6145   1.082  28.984   0.753
39737W        W 6146   6.458  11.307   1.297
39738W        W 6147  38.320  16.824  13.036
39739W        W 6148   2.046  12.683   1.234
39740W        W 6149  42.681  27.963   0.377
39741W        W 6150  14.842  30.863  12.843
39742W        W 6151  32.372  28.294   2.878
39743W        W 6152   3.861  31.644   3.272
39744W        W 6153  40.938   0.703  12.322
39745W        W 6154  12.380  16.108   3.686
39746W        W 6155  13.254  44.150  11.700
39747W        W 6156  11.072  11.160  11.474
39748W        W 6157  27.313  14.690   0.474
39749W        W 6158   1.434   0.943   2.564
39750W        W 6159   9.944  44.652   4.178
39751W        W 6160   7.203  32.560  13.589
39752W        W 6161  20.408  15.158  13.542
39753W        W 6162  42.056  14.571   2.676
39754W        W 6163  40.976  43.787   4.373
39755W        W 6164  39.783   6.046   0.303
39756W        W 6165  31.202  35.506  11.914
39757W        W 6166  12.842   3.919  12.561
39758W        W 6167   6.088   3.821  10.985
39759W        W 6168  24.523  39.562   2.442
39760W        W 6169   1.272  41.873   4.570
39761W        W 6170   1.247  43.784  12.029
39762W        W 6171  39.201   3.285   4.184
39763W        W 6172  42.994  13.788   0.490
39764W        W 6173  30.157  29.491  13.962
39765W        W 6174   5.691  15.219  14.230
39766W        W 6175  21.202  21.780  11.597
39767W        W 6176  40.317  39.762   1.844
39768W        W 6177  37.756  15.643   2.330
39769W        W 6178  37.034  31.171   3.590
39770W        W 6179   1.394  28.264   3.293
39771W        W 6180  40.460  39.073   3.394
39772W        W 6181  34.299   9.965   4.707
39773W        W 6182  40.671  17.747  11.186
39774W        W 6183   8.992  23.031  14.393
39775W        W 6184  13.515   7.057   1.768
39776W        W 6185  34.983  25.960  11.448
39777W        W 6186  29.476  37.444   0.222
39778W        W 6187   3.870  32.854   4.120
39779W        W 6188   6.378  42.838   1.435
39780W        W 6189  41.314  18.643  12.942
39781W        W 6190  30.641  31.201  10.716
39782W        W 6191   9.370  17.511  10.440
39783W        W 6192   1.236   8.495   1.400
39784W        W 6193  43.557   0.850   1.895
39785W        W 6194   0.974  20.011   2.403
39786W        W 6195  10.577   6.803  12.270
39787W        W 6196   2.326  16.995   4.249
39788W        W 6197   5.771  22.423  14.455
39789W        W 6198   0.081   6.896  11.149
39790W        W 6199  11.361  25.543   0.942
39791W        W 6200  37.080  21.948   2.326
39792W        W 6201  29.945   6.988  14.966
39793W        W 6202  16.930  36.297   0.982
39794W        W 6203  11.682  33.567  13.521
39795W        W 6204  32.513  30.472   4.568
39796W        W 6205  10.172  44.303   3.745
39797W        W 6206  11.080  40.348  14.307
39798W        W 6207  33.654  10.310  10.829
39799W        W 6208  43.417   4.686  12.762
39800W        W 6209  19.202  17.784  13.787
39801W        W 6210  38.502  25.566  14.411
39802W        W 6211  17.595  31.516   4.558
39803W        W 6212   4.382  36.290  12.431
39804W        W 6213  37.429   9.499   1.754
39805W        W 6214  30.985  17.812   0.805
39806W        W 6215  41.038  17.392  11.075
39807W        W 6216  25.630  26.054   3.362
39808W        W 6217  40.014  41.365   4.369
39809W        W 6218  25.520   1.638  14.255
39810W        W 6219  44.287  11.821   1.725
39811W        W 6220  25.456  29.371  12.606
39812W        W 6221  11.933  38.670   0.225
39813W        W 6222  36.322  15.560   4.578
39814W        W 6223  11.856  12.990   4.093
39815W        W 6224   0.931  39.290  14.447
39816W        W 6225  21.251  40.412  12.537
39817W        W 6226  10.815   8.173  12.459
39818W        W 6227   3.751  23.634   5.079
39819W        W 6228  24.182   7.465   3.656
39820W        W 6229  23.008  11.896  11.596
39821W        W 6230  19.818  41.902   1.936
39822W        W 6231  36.212  43.423   3.434
39823W        W 6232  40.652  18.685   5.158
39824W        W 6233   1.311  34.828   0.768
39825W        W 6234  37.084   0.242   3.701
39826W        W 6235  31.121  40.935  14.394
39827W        W 6236  11.607   2.004  10.701
39828W        W 6237  39.844  26.843  13.468
39829W        W 6238  28.453  43.862  11.993
39830W        W 6239  23.746  20.264  13.539
39831W        W 6240   4.624  33.475  10.855
39832W        W 6241  42.960  38.214   2.705
39833W        W 6242  40.019  43.215  12.855
39834W        W 6243  25.557   1.191   1.635
39835W        W 6244  37.839  34.582   4.495
39836W        W 6245  25.472  35.895  11.112
39837W        W 6246   5.326  17.849   4.632
39838W        W 6247  18.034  36.015  12.588
39839W        W 6248   4.519  15.606  13.010
39840W        W 6249  37.462  43.232   2.617
39841W        W 6250  38.699  28.901  12.837
39842W        W 6251  32.939  19.575   2.163
39843W        W 6252   2.150  18.684   4.431
39844W        W 6253  21.373  19.839  10.701
39845W        W 6254  32.508  29.148  14.696
39846W        W 6255  27.947  16.612   4.588
39847W        W 6256  32.719  16.273  12.976
39848W        W 6257  20.588  43.374  13.673
39849W        W 6258  24.424   8.639   0.958
39850W        W 6259   7.847  39.853   1.009
39851W        W 6260  37.691   6.198  12.921
39852W        W 6261   0.129  39.218  14.332
39853W        W 6262  41.197  33.210   4.066
39854W        W 6263  10.712  44.935   1.943
39855W        W 6264  36.466  11.783  13.008
39856W        W 6265  35.368  24.490  12.243
39857W        W 6266  33.172  29.587   0.022
39858W        W 6267  33.706  22.129   1.984
39859W        W 6268  36.113  13.772  10.569
39860W        W 6269   9.162  18.553  14.900
39861W        W 6270  36.865  28.593  14.021
39862W        W 6271  13.839  17.589   4.076
39863W        W 6272  27.477  17.194   1.471
39864W        W 6273  15.657  40.963  10.888
39865W        W 6274   7.669  23.463  14.541
39866W        W 6275   4.171   7.759  14.885
39867W        W 6276  37.431  14.110  14.371
39868W        W 6277  21.249  27.858  12.905
39869W        W 6278   0.867  17.665   2.725
39870W        W 6279  15.231  17.254   1.700
39871W        W 6280  40.925  23.187   3.412
39872W        W 6281   1.876  30.946   4.688
39873W        W 6282  13.214  42.335  14.583
39874W        W 6283  41.523  21.664   3.778
39875W        W 6284  27.175  43.072   2.144
39876W        W 6285  12.838  36.545   3.054
39877W        W 6286  33.175  10.816   4.585
39878W        W 6287  12.895  10.775  10.704
39879W        W 6288  28.387   4.626   3.839
39880W        W 6289  17.340  41.325   4.914
39881W        W 6290  14.030  32.460  13.254
39882W        W 6291  11.631   3.802   2.194
39883W        W 6292  11.164  33.507   3.109
39884W        W 6293   5.447  20.578   2.622
39885W        W 6294  39.758  16.895  11.567
39886W        W 6295  22.397  35.165  13.355
39887W        W 6296  37.000  36.335  10.764
39888W        W 6297  43.552  28.312   1.468
39889W        W 6298  15.067  19.916  10.630
39890W        W 6299  11.634  11.402   0.421
39891W        W 6300   0.387  26.620  10.963
39892W        W 6301  10.125  11.674   0.430
39893W        W 6302   0.114   0.571  10.911
39894W        W 6303   9.163  10.466  10.407
39895W        W 6304   1.271  21.941   0.925
39896W        W 6305  28.002  15.807   0.441
39897W        W 6306   7.549  41.879  13.860
39898W        W 6307   9.721  34.629  11.714
39899W        W 6308  17.121  33.908   1.195
39900W        W 6309  30.231  23.985  11.060
39901W        W 6310   8.720  21.059  14.785
39902W        W 6311   0.238   6.172  10.869
39903W        W 6312   0.634  36.045  14.999
39904W        W 6313   8.676   6.156  11.119
39905W        W 6314  20.277  12.928  14.561
39906W        W 6315  44.728  19.438   0.005
39907W        W 6316  27.138  35.491   2.213
39908W        W 6317  37.314  12.225   1.822
39909W        W 6318  31.048  17.511   1.224
39910W        W 6319   3.386  39.195   1.424
39911W        W 6320  44.932  17.551   2.792
39912W        W 6321   6.136   9.338   2.906
39913W        W 6322  15.539   4.797  11.843
39914W        W 6323  15.672  24.518   2.670
39915W        W 6324  21.949  28.193   3.171
39916W        W 6325   5.678  30.485   0.055
39917W        W 6326  26.008   3.262  14.740
39918W        W 6327  23.055  14.037   0.472
39919W        W 6328  24.998  11.846  13.753
39920W        W 6329  29.814  34.404   4.220
39921W        W 6330  11.302  41.382  14.944
39922W        W 6331  34.504  23.072   4.249
39923W        W 6332  14.118  22.319  10.429
39924W        W 6333   1.837   1.856   3.684
39925W        W 6334  14.840   8.339   0.821
39926W        W 6335  10.635   8.931  11.538
39927W        W 6336   7.628  18.794   1.963
39928W        W 6337  22.042  32.491  14.960
39929W        W 6338  44.842  39.542   0.691
39930W        W 6339   8.770  29.113   2.882
39931W        W 6340  19.235   2.003   4.698
39932W        W 6341  44.675  24.694  14.604
39933W        W 6342  15.988  26.694   4.002
39934W        W 6343  13.162  15.886  13.991
39935W        W 6344   2.041  36.565   1.862
39936W        W 6345  44.459  39.439   4.641
39937W        W 6346  10.759   0.654  11.510
39938W        W 6347  15.772  39.071  14.852
39939W        W 6348  23.570   7.464   4.293
39940W        W 6349  29.224  36.558  12.061
39941W        W 6350  30.082   8.368   9.697
39942W        W 6351  11.353  18.045   3.631
39943W        W 6352  30.879  38.527  11.205
39944W        W 6353  39.566  21.989  10.553
39945W        W 6354  21.520  36.540  11.361
39946W        W 6355  33.559  33.557  10.265
39947W        W 6356  16.675  13.226  12.240
39948W        W 6357  26.110  33.474  14.446
39949W        W 6358  10.205  31.666  14.059
39950W        W 6359   5.025  15.724  13.045
39951W        W 6360  25.384  33.970  14.288
39952W        W 6361  34.795  15.371   3.333
39953W        W 6362  28.705  37.838   1.768
39954W        W 6363  41.998  28.086   1.339
39955W        W 6364  30.685  38.387   2.232
39956W        W 6365   3.426  37.484  11.630
39957W        W 6366   2.454  16.257  12.532
39958W        W 6367  29.831  14.019  13.062
39959W        W 6368   5.945   0.858   0.378
39960W        W 6369  33.110  40.131  11.184
39961W        W 6370  14.749  17.673   3.680
39962W        W 6371   2.003   1.717   4.658
39963W        W 6372   0.245  34.976   3.263
39964W        W 6373  30.245  23.033   4.127
39965W        W 6374  25.928  36.223  14.667
39966W        W 6375  40.377  30.964  13.947
39967W        W 6376  16.993  19.782  12.396
39968W        W 6377  23.606  26.942   3.813
39969W        W 6378  22.420  17.735   4.181
39970W        W 6379  28.695  43.556  11.090
39971W        W 6380   3.366  10.444  10.363
39972W        W 6381   0.473  40.974  11.068
39973W        W 6382  38.254  31.441  14.120
39974W        W 6383   3.990   2.046  13.916
39975W        W 6384  28.473   6.940  11.075
39976W        W 6385   1.268   9.462   4.599
39977W        W 6386   9.082  39.386  10.840
39978W        W 6387  36.638  24.304   4.680
39979W        W 6388   4.745   0.236   3.687
39980W        W 6389  41.482  40.590   3.673
39981W        W 6390   9.915   8.437  11.239
39982W        W 6391   3.054  26.864  12.521
39983W        W 6392  26.252  42.116   1.721
39984W        W 6393  40.422  41.666   2.835
39985W        W 6394  25.709  32.536   3.664
39986W        W 6395  35.528  42.471   0.920
39987W        W 6396   3.880  13.646   2.448
39988W        W 6397  28.586   6.353   1.077
39989W        W 6398  11.679  30.541  14.399
39990W        W 6399  37.886  39.432  11.645
39991W        W 6400  10.293  27.223  13.367
39992W        W 6401  31.924  36.411   4.563
39993W        W 6402  14.185  23.555   2.529
39994W        W 6403  25.252  40.774  11.167
39995W        W 6404   4.210  27.926   0.065
39996W        W 6405  32.008  33.774  11.134
39997W        W 6406   7.607  41.086   4.178
39998W        W 6407   9.537   7.182  13.410
39999W        W 6408   8.500  36.775   3.760
40000W        W 6409  20.594  36.128   4.067
40001W        W 6410  23.742  30.417  14.807
40002W        W 6411   7.756  16.815   1.959
40003W        W 6412  13.142  38.894  10.733
40004W        W 6413  27.179  41.839   0.621
40005W        W 6414  39.551  33.169   1.359
40006W        W 6415  29.999  20.301   1.826
40007W        W 6416  15.125  29.123   0.824
40008W        W 6417   1.360  35.333  13.882
40009W        W 6418  26.710  23.076   0.145
40010W        W 6419  30.608  17.398   3.771
40011W        W 6420   2.224  26.636  10.634
40012W        W 6421   3.567  38.946  14.424
40013W        W 6422  42.460  21.448   2.794
40014W        W 6423  32.758   5.100  13.926
40015W        W 6424  16.191  24.079  14.955
40016W        W 6425  37.543  29.856  14.395
40017W        W 6426  11.774  22.091   4.641
40018W        W 6427  40.585  18.109  14.790
40019W        W 6428   7.165  29.838   1.393
40020W        W 6429   2.347   1.224  12.548
40021W        W 6430  24.038  15.117   0.732
40022W        W 6431  26.157  35.306   3.394
40023W        W 6432  44.272  31.824   3.785
40024W        W 6433  37.323   4.754   2.683
40025W        W 6434  37.974  40.474  13.962
40026W        W 6435  16.149  37.227  14.495
40027W        W 6436  22.558  13.575   0.871
40028W        W 6437  25.623  43.788  13.075
40029W        W 6438  41.053  18.816  13.379
40030W        W 6439  16.270  29.152  10.780
40031W        W 6440  21.564  19.934   4.298
40032W        W 6441  41.944   9.629  13.596
40033W        W 6442  14.102  41.478  12.863
40034W        W 6443   2.208   4.155  14.477
40035W        W 6444  31.307  27.549  13.786
40036W        W 6445  13.184  25.880  10.719
40037W        W 6446  32.460  31.878   0.622
40038W        W 6447   8.550   5.952   2.419
40039W        W 6448  13.740  43.764  13.008
40040W        W 6449  10.285  18.790  12.895
40041W        W 6450  35.885  40.542   4.095
40042W        W 6451  23.213  30.691  13.960
40043W        W 6452  36.684  44.531   4.110
40044W        W 6453  27.708  24.033  13.476
40045W        W 6454   9.174  11.733  12.534
40046W        W 6455  24.797  25.539  12.962
40047W        W 6456  15.694  23.123   1.304
40048W        W 6457  34.095  18.783   0.318
40049W        W 6458  30.607  41.561   3.235
40050W        W 6459  22.909  29.669   3.203
40051W        W 6460   3.374  11.676  14.242
40052W        W 6461   6.189   6.867   2.334
40053W        W 6462  35.203  29.919  12.454
40054W        W 6463  10.733  43.690   1.373
40055W        W 6464   4.707   9.897   5.165
40056W        W 6465  38.436  29.061   1.832
40057W        W 6466  25.688  25.082  12.352
40058W        W 6467  26.190  40.977   3.599
40059W        W 6468  27.202  19.100   4.721
40060W        W 6469  41.048  27.087  13.746
40061W        W 6470  14.122   2.731   1.740
40062W        W 6471  22.140  30.952  12.009
40063W        W 6472  36.841   8.650   3.323
40064W        W 6473  15.018  35.488   0.518
40065W        W 6474  34.760   3.276  11.285
40066W        W 6475  11.488  20.081  10.725
40067W        W 6476  29.965  13.684   2.295
40068W        W 6477  37.331  35.166  14.920
40069W        W 6478  13.436  21.076  13.842
40070W        W 6479  19.163  36.901  13.408
40071W        W 6480   5.294  12.100   1.436
40072W        W 6481   3.792  12.436   2.675
40073W        W 6482  15.220  25.180  10.101
40074W        W 6483  12.905  15.477   5.151
40075W        W 6484  39.086  17.809  12.538
40076W        W 6485   3.337   5.468   4.232
40077W        W 6486   9.327   9.827   1.092
40078W        W 6487  42.446   7.376   0.345
40079W        W 6488  20.817   4.315   3.286
40080W        W 6489   4.404  37.638  13.319
40081W        W 6490  33.895  33.979  10.988
40082W        W 6491   0.340  23.256   3.622
40083W        W 6492  15.490  35.944  13.065
40084W        W 6493  25.505  28.675   3.484
40085W        W 6494  29.349  28.632  13.494
40086W        W 6495  37.845  28.919  12.034
40087W        W 6496   8.349   3.358  14.836
40088W        W 6497  36.098  41.166   3.226
40089W        W 6498  12.498  36.950  12.333
40090W        W 6499   4.219  10.318  10.495
40091W        W 6500  30.768  15.552  10.419
40092W        W 6501  37.945  43.483   3.417
40093W        W 6502   9.440   3.951   1.770
40094W        W 6503  30.517  16.036   3.317
40095W        W 6504  31.688  37.207  12.824
40096W        W 6505  30.504   7.672  10.341
40097W        W 6506  37.273   6.482  12.953
40098W        W 6507  35.625   2.384   4.217
40099W        W 6508  30.651  22.824  12.595
40100W        W 6509  14.072   6.368  11.482
40101W        W 6510   1.109  11.401   9.829
40102W        W 6511  20.331  27.886   2.195
40103W        W 6512  35.830  29.569  11.091
40104W        W 6513  41.877  13.824  10.894
40105W        W 6514   5.439   0.730  11.116
40106W        W 6515  21.335   0.940  10.798
40107W        W 6516   0.511   3.939   1.807
40108W        W 6517  32.574  13.211  12.209
40109W        W 6518  37.595  40.533  14.821
40110W        W 6519  38.370  18.604   0.405
40111W        W 6520  30.558  12.054   3.739
40112W        W 6521  10.133  22.664  12.541
40113W        W 6522  23.214  40.626  12.058
40114W        W 6523  11.856  18.289   1.222
40115W        W 6524   4.301  21.039   4.626
40116W        W 6525  21.707  26.182  14.789
40117W        W 6526  15.120  10.838   1.818
40118W        W 6527  35.264  25.146  12.522
40119W        W 6528  35.484  11.160   3.446
40120W        W 6529   6.748   5.340  14.729
40121W        W 6530  15.399   7.288   1.738
40122W        W 6531   4.711  26.691  13.877
40123W        W 6532   0.632   0.628   3.595
40124W        W 6533  24.218  39.894  14.322
40125W        W 6534  26.859   6.822   1.242
40126W        W 6535  31.038  13.245   4.804
40127W        W 6536  28.528  42.285   4.363
40128W        W 6537  31.864  37.301  11.546
40129W        W 6538  19.670   9.431  12.110
40130W        W 6539  22.069  27.734   2.264
40131W        W 6540  31.018  28.371   4.140
40132W        W 6541  34.812  36.423  14.069
40133W        W 6542  11.310  30.312   0.081
40134W        W 6543  22.275  39.313  12.943
40135W        W 6544  21.620  22.954  14.873
40136W        W 6545  41.852  42.428   3.036
40137W        W 6546   0.276  31.074   0.351
40138W        W 6547  21.952  23.130   0.218
40139W        W 6548  20.604  41.933   4.047
40140W        W 6549  42.378   8.490   1.548
40141W        W 6550  28.531  35.495  14.903
40142W        W 6551  25.520  42.245  10.727
40143W        W 6552  21.169  13.331  12.836
40144W        W 6553  33.060  12.693  13.864
40145W        W 6554   9.592  15.257  14.458
40146W        W 6555  39.010  35.107  12.460
40147W        W 6556  18.166  14.720   0.153
40148W        W 6557  39.882  33.696   0.107
40149W        W 6558   9.754  38.423  13.540
40150W        W 6559  33.542  19.658   0.356
40151W        W 6560  20.986   6.793   2.415
40152W        W 6561   0.340   3.320  10.734
40153W        W 6562  30.865   3.033  12.497
40154W        W 6563  24.042  25.708   0.997
40155W        W 6564  28.467  15.215  13.596
40156W        W 6565  13.052   8.720   2.316
40157W        W 6566  37.837  35.045  14.964
40158W        W 6567  12.659  27.182   0.910
40159W        W 6568  32.210   9.301   3.312
40160W        W 6569  36.251  25.889  14.293
40161W        W 6570   4.968  32.063  13.465
40162W        W 6571   8.730  43.656  11.384
40163W        W 6572  13.645  28.033  12.237
40164W        W 6573  25.671  26.640  11.205
40165W        W 6574  38.967  32.145  14.414
40166W        W 6575  31.544  20.690  11.691
40167W        W 6576  37.395  18.175  14.330
40168W        W 6577  14.293  34.082  13.367
40169W        W 6578  28.646  44.467  13.350
40170W        W 6579  22.996   1.277   0.844
40171W        W 6580   2.400  34.420   3.819
40172W        W 6581  25.231   9.724   2.740
40173W        W 6582  12.222  27.288  11.606
40174W        W 6583   1.221  32.122  12.592
40175W        W 6584   8.298  13.575  10.987
40176W        W 6585  34.506  38.082   4.206
40177W        W 6586  33.107   5.330   1.173
40178W        W 6587  36.464  43.704   2.104
40179W        W 6588  43.594  34.950   1.021
40180W        W 6589  38.559   5.006  10.949
40181W        W 6590  19.290   3.890  14.017
40182W        W 6591  12.214  29.642  10.652
40183W        W 6592  23.450   8.425   3.381
40184W        W 6593  18.950   7.728  12.927
40185W        W 6594  38.172  15.094   9.806
40186W        W 6595  24.715  17.733   1.777
40187W        W 6596  18.518  16.097   2.466
40188W        W 6597  32.828   5.810   5.038
40189W        W 6598  14.159   1.224   1.307
40190W        W 6599   4.992  19.281   1.960
40191W        W 6600  35.497  18.355  12.923
40192W        W 6601  35.268  36.551   0.165
40193W        W 6602  19.815  27.479  12.072
40194W        W 6603   9.811  35.104  11.525
40195W        W 6604  16.708   9.753   1.823
40196W        W 6605  39.043  29.831   1.787
40197W        W 6606  13.691   6.061   1.679
40198W        W 6607   3.746  13.290   3.268
40199W        W 6608  29.134  38.954  13.797
40200W        W 6609  26.592  12.600   0.499
40201W        W 6610   0.462  41.897  12.983
40202W        W 6611   3.984   2.642  13.024
40203W        W 6612  40.016  28.568   4.146
40204W        W 6613  32.422  41.419  10.981
40205W        W 6614  17.079  28.082  10.262
40206W        W 6615  19.616  37.856   4.479
40207W        W 6616   1.775  14.668  14.497
40208W        W 6617  35.900  27.103  10.776
40209W        W 6618  34.121  16.135   2.675
40210W        W 6619  29.736   9.652  10.485
40211W        W 6620  22.258  26.066  10.877
40212W        W 6621  30.628   3.371  13.386
40213W        W 6622  24.189  37.949  11.903
40214W        W 6623  12.805  24.561  14.286
40215W        W 6624   5.225  16.064   0.019
40216W        W 6625  42.256   7.925  14.432
40217W        W 6626  14.584  19.229   3.672
40218W        W 6627   5.504   3.884   4.236
40219W        W 6628  10.260  22.034   2.611
40220W        W 6629  33.849  16.048   4.548
40221W        W 6630  13.326  21.504   5.202
40222W        W 6631   8.665  15.591   2.318
40223W        W 6632  34.285  17.152  12.018
40224W        W 6633  26.962   6.811   5.001
40225W        W 6634  22.954  37.495   1.002
40226W        W 6635  34.327   0.722  13.568
40227W        W 6636  13.160  14.179  12.477
40228W        W 6637  17.083  16.224  12.495
40229W        W 6638  14.213  22.800  13.122
40230W        W 6639  15.147  33.204  11.241
40231W        W 6640  44.990  30.088   0.779
40232W        W 6641  37.252  41.232  12.400
40233W        W 6642  32.145   6.913  14.218
40234W        W 6643  31.746   0.574  12.984
40235W        W 6644  36.114  12.692  12.037
40236W        W 6645  42.015  32.054   5.093
40237W        W 6646  15.691  27.928  14.672
40238W        W 6647  36.320   3.160   1.343
40239W        W 6648  37.569  21.297   2.259
40240W        W 6649   4.930   2.404   4.139
40241W        W 6650  22.457  23.771  11.073
40242W        W 6651  38.595  27.949  12.950
40243W        W 6652  11.322  27.024  14.355
40244W        W 6653  20.246  19.802   2.712
40245W        W 6654  44.858  43.167  10.869
40246W        W 6655  33.862  37.017  12.135
40247W        W 6656  18.814  40.879   1.294
40248W        W 6657   4.176  44.906   0.509
40249W        W 6658  21.818  10.328  14.288
40250W        W 6659  14.313  33.160  11.994
40251W        W 6660  20.404  20.703  13.867
40252W        W 6661  44.455  33.588   0.265
40253W        W 6662  32.129  27.060  12.145
40254W        W 6663  33.448  30.010   3.139
40255W        W 6664  28.144  29.708   4.509
40256W        W 6665  36.956   5.877   4.913
40257W        W 6666   3.668   8.885  11.125
40258W        W 6667  28.273   2.311   1.802
40259W        W 6668  28.325  17.217  11.659
40260W        W 6669   8.479  18.136   3.768
40261W        W 6670  15.139  39.849   3.309
40262W        W 6671  37.282  26.512  12.627
40263W        W 6672  12.486   5.774  13.445
40264W        W 6673  17.562   7.099  11.655
40265W        W 6674   2.918  14.264   1.200
40266W        W 6675  38.899  35.407  14.008
40267W        W 6676  23.607  13.684  14.019
40268W        W 6677  27.153  15.176   4.667
40269W        W 6678  27.721  23.952  12.450
40270W        W 6679  23.266  19.589  14.352
40271W        W 6680  37.348  28.522   1.305
40272W        W 6681  18.678   3.361   1.229
40273W        W 6682  16.237  23.209  12.880
40274W        W 6683  43.343  17.510  14.996
40275W        W 6684  43.730  42.616   0.667
40276W        W 6685  33.873   5.485  12.057
40277W        W 6686  43.482  31.154   2.603
40278W        W 6687  28.246  30.966  14.839
40279W        W 6688  12.188   6.823  12.985
40280W        W 6689  44.506  34.674  14.460
40281W        W 6690   5.673   5.723   4.120
40282W        W 6691  41.532  16.380   4.133
40283W        W 6692  37.796   2.175  14.315
40284W        W 6693  20.704  13.419  12.478
40285W        W 6694  11.398  36.942  13.627
40286W        W 6695   7.768  27.177  11.069
40287W        W 6696  20.332  16.132   4.556
40288W        W 6697  14.330   6.677   0.370
40289W        W 6698  33.613  29.797  14.428
40290W        W 6699  19.963  11.450  13.228
40291W        W 6700   1.738   0.584   2.334
40292W        W 6701  39.399  14.974  14.864
40293W        W 6702  22.070   6.920   0.456
40294W        W 6703  34.011  17.989  11.648
40295W        W 6704  31.509   3.970  13.952
40296W        W 6705   1.423   8.751   0.710
40297W        W 6706  31.803  42.784   1.012
40298W        W 6707  38.580  28.520  13.638
40299W        W 6708  35.988  13.220  14.852
40300W        W 6709  20.938  38.166  11.821
40301W        W 6710  28.581  32.382   4.191
40302W        W 6711  12.864  40.504   4.520
40303W        W 6712  18.479  26.585  11.572
40304W        W 6713   1.692  29.765   4.263
40305W        W 6714   6.763  10.268  10.583
40306W        W 6715  10.087  42.411  14.362
40307W        W 6716   7.922  24.488  13.345
40308W        W 6717  21.147   7.330   3.142
40309W        W 6718   2.640  35.090  13.496
40310W        W 6719  12.020  37.857   1.705
40311W        W 6720   6.411  34.162  12.390
40312W        W 6721  19.199   6.899  10.536
40313W        W 6722  11.214   0.453  14.389
40314W        W 6723   6.481  44.634   1.429
40315W        W 6724  34.971  30.607   2.611
40316W        W 6725  39.800   2.465   0.116
40317W        W 6726   0.699  11.746  13.972
40318W        W 6727  28.560  21.955   2.177
40319W        W 6728   3.289  34.412   3.780
40320W        W 6729   9.121  32.058   3.647
40321W        W 6730  35.939   1.963  14.717
40322W        W 6731  44.807  14.813   1.764
40323W        W 6732  14.396  16.159  13.258
40324W        W 6733  31.414  25.761   4.605
40325W        W 6734  30.708  30.446   4.169
40326W        W 6735  32.390  21.687  11.200
40327W        W 6736  21.004  12.476   4.074
40328W        W 6737  35.481   1.552   4.715
40329W        W 6738  35.894   1.063   4.049
40330W        W 6739  29.136   0.929   2.078
40331W        W 6740  32.361  38.161  12.199
40332W        W 6741  15.946   2.899  12.442
40333W        W 6742  15.152  30.150   0.821
40334W        W 6743  39.214  35.082  13.076
40335W        W 6744  31.360  10.164   1.235
40336W        W 6745  30.587  19.687   4.167
40337W        W 6746  11.515  42.437  14.494
40338W        W 6747  21.173   8.600  12.598
40339W        W 6748   8.121   7.793   4.349
40340W        W 6749   1.944   7.277   0.876
40341W        W 6750  18.582   4.166   0.775
40342W        W 6751  17.089   6.666   4.122
40343W        W 6752  12.174  31.595  11.733
40344W        W 6753  32.273  32.582  12.831
40345W        W 6754  24.313   5.386  13.877
40346W        W 6755  13.715  33.994  12.512
40347W        W 6756  36.334  33.425  11.783
40348W        W 6757   2.519  20.074  11.571
40349W        W 6758  31.139  33.974  13.278
40350W        W 6759  10.503  13.659   2.242
40351W        W 6760   4.265  39.932   3.287
40352W        W 6761  16.546  36.895   0.500
40353W        W 6762   4.208  36.011  10.737
40354W        W 6763  27.278  43.654  11.976
40355W        W 6764  44.981  10.747  11.252
40356W        W 6765  34.659   8.932  13.393
40357W        W 6766   8.767  26.390  11.231
40358W        W 6767  31.498   2.942  14.549
40359W        W 6768   6.741  34.113   3.845
40360W        W 6769  10.251  23.657  11.499
40361W        W 6770   3.203   8.141   1.880
40362W        W 6771  30.654  22.481   3.293
40363W        W 6772   3.017  36.563  11.118
40364W        W 6773   8.794  37.780   2.770
40365W        W 6774  11.586   4.141   0.949
40366W        W 6775  36.901  20.261  14.292
40367W        W 6776  18.294  20.214   0.780
40368W        W 6777   5.509  29.559   3.820
40369W        W 6778  26.182  38.555  12.499
40370W        W 6779  24.886  35.412  11.558
40371W        W 6780   3.049  41.411   0.621
40372W        W 6781  40.424  27.013   0.229
40373W        W 6782  30.016  27.617   4.629
40374W        W 6783  42.263  10.982   4.025
40375W        W 6784  21.116  37.033   0.524
40376W        W 6785  15.681  32.877  12.846
40377W        W 6786   4.958  36.611   0.254
40378W        W 6787  16.684  14.295   4.590
40379W        W 6788   1.830  10.665  10.479
40380W        W 6789   0.203   7.399   2.926
40381W        W 6790  10.122  26.983  10.123
40382W        W 6791  44.988   9.306   1.345
40383W        W 6792  30.583  10.731  12.082
40384W        W 6793  29.968  25.615   1.805
40385W        W 6794  32.275   0.643   1.430
40386W        W 6795  41.341  25.721  14.783
40387W        W 6796   4.773  38.746   1.809
40388W        W 6797  11.127  16.185  14.621
40389W        W 6798  27.561  40.490   1.033
40390W        W 6799  22.962  22.496   1.419
40391W        W 6800  32.088   2.380   3.600
40392W        W 6801  24.313   5.240   2.179
40393W        W 6802  27.664   4.623   1.190
40394W        W 6803   1.920  39.995   4.565
40395W        W 6804  33.590  43.352   3.885
40396W        W 6805  38.228  32.080   2.827
40397W        W 6806  26.952  19.009  13.742
40398W        W 6807   9.697   2.024   1.901
40399W        W 6808  17.635  11.337   1.477
40400W        W 6809   2.173  33.994   0.781
40401W        W 6810  39.201  18.146   3.089
40402W        W 6811  37.974  38.745   1.131
40403W        W 6812  43.229   0.986  13.952
40404W        W 6813  32.691  39.386   0.936
40405W        W 6814  34.655  24.188   4.673
40406W        W 6815  25.740  29.204  10.990
40407W        W 6816   8.706  14.356   0.205
40408W        W 6817  34.167   4.302  12.492
40409W        W 6818   4.309  25.742   1.679
40410W        W 6819  11.806  14.547   1.931
40411W        W 6820  15.349  31.374   1.489
40412W        W 6821  42.335  43.010   1.008
40413W        W 6822  35.375   9.691  13.428
40414W        W 6823   8.223   0.000   2.882
40415W        W 6824  28.171  35.799  14.487
40416W        W 6825  13.499  19.532  12.332
40417W        W 6826  28.985  16.199  11.131
40418W        W 6827  18.530  13.115   0.380
40419W        W 6828  15.085   9.708   3.684
40420W        W 6829  35.123  44.225  14.740
40421W        W 6830  39.339   7.041  14.024
40422W        W 6831  33.737  23.072   1.571
40423W        W 6832   6.431  30.869  10.652
40424W        W 6833  37.816  42.275  11.174
40425W        W 6834   0.742  24.572  13.131
40426W        W 6835  22.643  15.715   3.698
40427W        W 6836  14.556  36.749   4.495
40428W        W 6837  32.558  15.211   3.732
40429W        W 6838   1.376  11.751   0.710
40430W        W 6839   7.419  27.009   1.665
40431W        W 6840  42.265  30.160  13.448
40432W        W 6841  11.314  29.159   0.238
40433W        W 6842  34.944  41.504  12.994
40434W        W 6843  44.060  32.938  14.881
40435W        W 6844  41.394  41.086   3.706
40436W        W 6845  36.308  41.344   2.289
40437W        W 6846  10.432  29.355   2.299
40438W        W 6847  40.374  29.975  14.056
40439W        W 6848  15.275   9.637   2.672
40440W        W 6849   1.718  32.024  12.455
40441W        W 6850  14.987  36.105   3.753
40442W        W 6851  20.461  10.846  11.511
40443W        W 6852  12.967  35.442  10.600
40444W        W 6853   5.228  36.033   3.801
40445W        W 6854  33.611  38.221   5.079
40446W        W 6855  19.736  44.092  14.580
40447W        W 6856   7.481   6.699   4.163
40448W        W 6857  34.022   3.360   1.949
40449W        W 6858  17.186  41.802  10.911
40450W        W 6859  30.089  12.399   2.699
40451W        W 6860   7.751   3.848  13.709
40452W        W 6861   6.340  35.532   2.468
40453W        W 6862  14.015  27.947  13.455
40454W        W 6863   2.285  15.393  11.643
40455W        W 6864  40.637  35.884  10.252
40456W        W 6865  13.858  10.571  12.032
40457W        W 6866   9.867  19.249   3.825
40458W        W 6867  30.144   6.005  14.092
40459W        W 6868   9.287  35.066  12.851
40460W        W 6869   8.510  21.578   2.175
40461W        W 6870  27.623  31.612   0.752
40462W        W 6871  30.044  25.603  14.903
40463W        W 6872  29.149  40.894   1.712
40464W        W 6873  16.485  43.107   0.249
40465W        W 6874  28.061  17.500  11.169
40466W        W 6875   9.144  14.153  11.451
40467W        W 6876  20.156   4.898   1.430
40468W        W 6877  13.433  31.505  12.615
40469W        W 6878  27.356  26.949  10.769
40470W        W 6879  36.942  20.626  12.544
40471W        W 6880  34.661  11.802   2.715
40472W        W 6881  32.835  15.327   0.669
40473W        W 6882  10.368  17.232   3.331
40474W        W 6883  33.346  30.202   3.620
40475W        W 6884  38.766  12.204  14.959
40476W        W 6885  23.043   0.397  10.776
40477W        W 6886  38.887  19.132   4.037
40478W        W 6887  21.111  41.401   0.172
40479W        W 6888  34.636  25.559   2.897
40480W        W 6889   1.342  32.558   3.226
40481W        W 6890  27.526  30.059  10.736
40482W        W 6891  12.210  38.394  14.883
40483W        W 6892  23.495  26.035  13.978
40484W        W 6893  43.911  20.816   4.126
40485W        W 6894  18.767  18.863   1.450
40486W        W 6895  22.079   7.234   4.501
40487W        W 6896  41.112   5.870  12.172
40488W        W 6897  20.495   8.289  11.072
40489W        W 6898  25.021  37.893   3.381
40490W        W 6899  37.169  40.958   4.723
40491W        W 6900  42.967  30.672   4.486
40492W        W 6901  22.074  44.312   3.206
40493W        W 6902   1.768  39.455   4.132
40494W        W 6903  38.483  14.523   2.339
40495W        W 6904  17.526  35.211   2.848
40496W        W 6905   4.457  42.048   2.856
40497W        W 6906   6.243  29.040   3.607
40498W        W 6907  24.728  24.878   1.965
40499W        W 6908  23.807   0.811  14.547
40500W        W 6909   0.017  34.843   0.396
40501W        W 6910   0.901  29.417  12.474
40502W        W 6911  23.888  27.581  11.961
40503W        W 6912  26.121  27.347   4.595
40504W        W 6913  31.687   3.869   1.801
40505W        W 6914  24.257   3.830  14.414
40506W        W 6915  33.744  40.117  10.026
40507W        W 6916  43.369   6.690   1.678
40508W        W 6917  39.901  20.081   1.886
40509W        W 6918  24.089  18.945   1.019
40510W        W 6919  25.276  36.368   2.853
40511W        W 6920  28.994  38.914   3.756
40512W        W 6921  24.850   9.282   4.486
40513W        W 6922  30.495  25.142  12.358
40514W        W 6923  32.200  36.691   1.142
40515W        W 6924  44.000  16.176  13.805
40516W        W 6925  29.907  32.806  14.646
40517W        W 6926  30.973  12.100   1.247
40518W        W 6927  38.614  22.637  13.607
40519W        W 6928   4.870  29.051   4.414
40520W        W 6929  14.173  10.704   1.323
40521W        W 6930  44.175  43.410   1.267
40522W        W 6931  37.971  44.082  13.035
40523W        W 6932  33.616   5.696  13.354
40524W        W 6933  13.530   3.222  12.420
40525W        W 6934  13.450  13.294  12.591
40526W        W 6935  29.698  44.226   0.767
40527W        W 6936  22.306  42.832   0.924
40528W        W 6937  26.242  18.689  10.666
40529W        W 6938  22.259  27.631   1.702
40530W        W 6939  21.113  34.468   3.285
40531W        W 6940  42.703  13.210   2.237
40532W        W 6941   3.343  44.248  13.388
40533W        W 6942  23.102  36.586   3.295
40534W        W 6943  16.973  11.844   0.007
40535W        W 6944  26.499   6.996  13.545
40536W        W 6945   9.609  44.859  10.680
40537W        W 6946  40.438   4.549  14.873
40538W        W 6947   4.812  43.603  11.454
40539W        W 6948   0.816  12.086  11.911
40540W        W 6949  18.004  42.298   0.711
40541W        W 6950  33.569  18.023   3.333
40542W        W 6951  41.948  35.387  13.806
40543W        W 6952   1.364  40.116  14.375
40544W        W 6953  20.269  32.108  14.342
40545W        W 6954   5.913  37.871  13.472
40546W        W 6955  41.250  23.512   0.455
40547W        W 6956  13.773  26.588   1.170
40548W        W 6957  21.705  31.843  14.386
40549W        W 6958   4.370  15.335   1.196
40550W        W 6959  30.599  12.332  13.972
40551W        W 6960   2.947  13.028   3.547
40552W        W 6961   7.511   7.488  13.802
40553W        W 6962  18.721  33.000  12.996
40554W        W 6963   2.903  27.663  11.233
40555W        W 6964  24.951   5.916  12.863
40556W        W 6965   6.782  30.620   3.259
40557W        W 6966  25.177  21.573  14.895
40558W        W 6967  30.679  22.111   0.416
40559W        W 6968  17.098  28.214  14.914
40560W        W 6969  41.442  36.331   1.926
40561W        W 6970   4.898  25.970  10.768
40562W        W 6971  31.002   4.815  12.725
40563W        W 6972  44.692  22.662   0.275
40564W        W 6973  37.678  19.228   2.602
40565W        W 6974  40.722   0.989   1.915
40566W        W 6975  20.952  11.535  14.944
40567W        W 6976  25.105  39.732  11.879
40568W        W 6977   4.942   3.844  11.543
40569W        W 6978  42.067  33.307  12.100
40570W        W 6979  37.669  41.895   0.841
40571W        W 6980  22.163  14.564   0.346
40572W        W 6981   0.930   5.231  12.902
40573W        W 6982  24.055  30.214  12.562
40574W        W 6983  12.752   4.702  12.149
40575W        W 6984   6.171  15.862   2.843
40576W        W 6985  16.340  22.794   2.881
40577W        W 6986  27.045  37.997  11.924
40578W        W 6987  36.206   6.307   3.968
40579W        W 6988  24.976  26.572   4.606
40580W        W 6989  44.409  28.671   1.817
40581W        W 6990  31.421  10.614   0.954
40582W        W 6991   3.120  16.636   2.013
40583W        W 6992  26.163  18.746   4.098
40584W        W 6993   2.112  40.722   0.931
40585W        W 6994  10.226   7.287   1.799
40586W        W 6995   7.145  34.321   9.854
40587W        W 6996   8.753  10.665  11.584
40588W        W 6997  41.390  38.663   1.924
40589W        W 6998  20.547  36.173  14.933
40590W        W 6999   8.771  20.300  14.200
40591W        W 7000   3.753  35.564  14.747
40592W        W 7001  42.709  36.507  14.905
40593W        W 7002  40.132  10.791   4.985
40594W        W 7003  31.960   1.978  13.354
40595W        W 7004  11.146  43.205  14.002
40596W        W 7005  21.150  33.429  11.977
40597W        W 7006  14.954  27.828  11.208
40598W        W 7007  18.661   0.903   0.848
40599W        W 7008  42.225  15.703   3.687
40600W        W 7009  27.636  26.072  11.688
40601W        W 7010   8.573   4.586  10.204
40602W        W 7011  25.516  11.032   0.526
40603W        W 7012  44.364  44.781   3.626
40604W        W 7013  13.930   4.602  12.380
40605W        W 7014  33.438  42.381  11.961
40606W        W 7015  32.000  34.342  12.072
40607W        W 7016   5.761  32.565   4.888
40608W        W 7017  38.271  16.739  12.095
40609W        W 7018   1.744  14.171  13.314
40610W        W 7019  16.693  29.617  14.801
40611W        W 7020  30.892  17.850   3.942
40612W        W 7021  29.427  44.820   2.722
40613W        W 7022  23.106  13.902   2.685
40614W        W 7023   9.116  41.094   0.868
40615W        W 7024  20.807  14.565   0.357
40616W        W 7025  35.412  39.735   0.767
40617W        W 7026  19.463  26.079  12.091
40618W        W 7027  39.035   5.677   4.904
40619W        W 7028  17.797  16.034  12.056
40620W        W 7029  22.628  16.848  10.484
40621W        W 7030  38.806   7.028   4.258
40622W        W 7031  29.410  29.391   3.756
40623W        W 7032  14.737  26.211   3.406
40624W        W 7033  29.076  25.223  11.200
40625W        W 7034  31.224   7.033   1.287
40626W        W 7035  35.120  19.768  10.180
40627W        W 7036   3.970  16.179   2.276
40628W        W 7037   1.037  12.630   1.433
40629W        W 7038  18.583  14.106   3.254
40630W        W 7039   3.409  16.033   3.849
40631W        W 7040  22.634  37.760  13.532
40632W        W 7041  30.586   9.725  10.245
40633W        W 7042  26.089  39.393  12.543
40634W        W 7043  36.585  15.119   1.917
40635W        W 7044  29.037  34.340  12.284
40636W        W 7045  36.392  28.329   4.002
40637W        W 7046  15.357  14.193  13.475
40638W        W 7047  12.127  28.161  12.204
40639W        W 7048   7.644  14.231  14.321
40640W        W 7049  26.559  11.789   1.627
40641W        W 7050  42.542  39.918   3.788
40642W        W 7051  41.357  20.073   4.542
40643W        W 7052   4.331  25.899   1.174
40644W        W 7053  21.290  12.857   2.966
40645W        W 7054  25.069  19.946  10.256
40646W        W 7055  24.512  36.032   0.663
40647W        W 7056  32.710  43.722  10.686
40648W        W 7057  17.980  41.372   3.541
40649W        W 7058   0.859  10.817   2.063
40650W        W 7059  44.007  13.565  13.589
40651W        W 7060  10.575   4.017  13.807
40652W        W 7061  41.899   9.671   1.413
40653W        W 7062  27.912   5.607  13.459
40654W        W 7063   5.532   4.696  11.600
40655W        W 7064  20.085  44.498  10.686
40656W        W 7065  13.815  36.182  11.129
40657W        W 7066  37.961  17.370   0.476
40658W        W 7067  25.881  18.239   3.372
40659W        W 7068  36.301  25.076  12.731
40660W        W 7069  32.907  12.773  11.099
40661W        W 7070   2.015  27.433  11.671
40662W        W 7071  19.157  10.649  13.332
40663W        W 7072  41.540  31.834   2.849
40664W        W 7073  31.885  27.119   1.253
40665W        W 7074  28.875  17.537   4.360
40666W        W 7075  33.029  14.403  13.034
40667W        W 7076  10.342   6.332   3.549
40668W        W 7077  10.856   7.690  12.628
40669W        W 7078  10.390   4.865  14.521
40670W        W 7079  12.050  38.562   3.293
40671W        W 7080  14.302  32.827  12.414
40672W        W 7081  39.488   2.853  11.563
40673W        W 7082  16.438  29.523  10.412
40674W        W 7083  26.566  16.769   0.810
40675W        W 7084  19.304  12.539   2.793
40676W        W 7085  35.926   7.925  13.065
40677W        W 7086  31.446  27.950   1.212
40678W        W 7087   1.523  29.591  12.011
40679W        W 7088  14.974   2.856   3.045
40680W        W 7089  18.610  29.212   0.735
40681W        W 7090  39.791  24.437  11.175
40682W        W 7091  38.022   5.154   0.677
40683W        W 7092  25.638  44.277  11.222
40684W        W 7093  11.608  25.463  12.653
40685W        W 7094  14.923   8.674   2.902
40686W        W 7095  24.307  29.215   2.827
40687W        W 7096  24.778  21.805  12.077
40688W        W 7097  33.702   4.048  12.059
40689W        W 7098  13.552  20.289   2.165
40690W        W 7099  24.197  24.673   3.626
40691W        W 7100  14.416   0.951   3.408
40692W        W 7101  30.220  26.515  10.640
40693W        W 7102  11.761  31.003   4.596
40694W        W 7103  13.741  21.286   3.550
40695W        W 7104  18.261  35.638   3.881
40696W        W 7105  24.483  15.454   4.781
40697W        W 7106   7.465   6.264   4.526
40698W        W 7107  43.997  14.224   3.759
40699W        W 7108   9.417  42.485   1.845
40700W        W 7109  36.603  35.559   3.595
40701W        W 7110  17.499  30.619   2.398
40702W        W 7111   5.734   8.225   2.232
40703W        W 7112  33.386  13.313  11.705
40704W        W 7113   0.772  28.011   3.643
40705W        W 7114  18.225  29.123  11.394
40706W        W 7115  23.725  32.011   3.677
40707W        W 7116  27.115   0.067  11.173
40708W        W 7117  29.933  42.763   3.585
40709W        W 7118  18.194  37.587  11.875
40710W        W 7119  11.294  18.641  13.158
40711W        W 7120  20.153  24.657   0.091
40712W        W 7121  11.632  29.450  14.944
40713W        W 7122  32.822  30.902  14.613
40714W        W 7123  25.006  23.451  14.735
40715W        W 7124  12.319   6.505   5.175
40716W        W 7125   5.950  14.584   1.328
40717W        W 7126  33.959  34.065   4.559
40718W        W 7127   3.908  15.052  10.503
40719W        W 7128  21.635  11.262   0.424
40720W        W 7129  35.994  28.629  11.960
40721W        W 7130  14.135  43.587   3.774
40722W        W 7131  31.912  21.475   0.248
40723W        W 7132   7.974  27.495  13.158
40724W        W 7133  38.830   5.663   9.913
40725W        W 7134  18.621  37.113  11.779
40726W        W 7135  15.038  42.968   1.115
40727W        W 7136  39.820  34.699   0.297
40728W        W 7137  17.218  11.797  11.420
40729W        W 7138  33.953  44.703   2.033
40730W        W 7139  39.996   7.436   0.748
40731W        W 7140  38.445   4.573  13.183
40732W        W 7141  13.688   3.682   0.744
40733W        W 7142  22.427   1.665   3.098
40734W        W 7143  19.001   6.045  13.470
40735W        W 7144  19.081  11.078  10.749
40736W        W 7145   5.729  33.017   1.338
40737W        W 7146  17.332   6.433  13.892
40738W        W 7147  18.492   1.340   2.964
40739W        W 7148   0.463  40.829   2.198
40740W        W 7149   3.751   1.044  11.817
40741W        W 7150  44.868  12.750  11.446
40742W        W 7151  23.444   2.870  13.919
40743W        W 7152  28.714  40.922  11.567
40744W        W 7153  18.414   6.222  14.901
40745W        W 7154  20.031  10.886   4.526
40746W        W 7155  22.755  25.763   3.775
40747W        W 7156  26.710  11.775   3.635
40748W        W 7157  21.021   5.987   3.414
40749W        W 7158   8.949  25.566   4.949
40750W        W 7159  33.538  37.318  13.863
40751W        W 7160   7.345   4.163   1.719
40752W        W 7161  43.213  32.491   4.580
40753W        W 7162   7.787  29.836   0.815
40754W        W 7163  38.263  37.418   2.433
40755W        W 7164   6.846   6.264  14.764
40756W        W 7165  40.251   6.839  13.537
40757W        W 7166  21.813   4.800   3.564
40758W        W 7167   2.882  17.199   0.256
40759W        W 7168  16.015   8.439   2.407
40760W        W 7169  14.126   3.747   0.472
40761W        W 7170  10.402  44.490  12.088
40762W        W 7171  13.867  24.270  12.855
40763W        W 7172  32.423  16.215   4.330
40764W        W 7173  31.387  22.632  10.458
40765W        W 7174  21.001  41.628  12.537
40766W        W 7175  37.620  38.340   1.220
40767W        W 7176  12.349  18.704   0.681
40768W        W 7177  27.546  20.048  13.312
40769W        W 7178  12.753  30.438  11.478
40770W        W 7179  36.040  31.376   0.954
40771W        W 7180  23.447  35.031  13.618
40772W        W 7181  37.854  34.451   2.899
40773W        W 7182  25.225  44.798  12.680
40774W        W 7183  10.345  35.146   3.701
40775W        W 7184  12.108   7.132  11.464
40776W        W 7185  17.809   6.929   1.693
40777W        W 7186   4.248  23.710  13.850
40778W        W 7187  10.436   5.392   4.240
40779W        W 7188  34.379  34.429  14.507
40780W        W 7189   7.894   2.814  10.661
40781W        W 7190   4.985  21.829   3.133
40782W        W 7191   4.939   6.347  13.919
40783W        W 7192  26.630  32.390  13.476
40784W        W 7193  39.926  37.600  13.067
40785W        W 7194  32.996  22.091   0.252
40786W        W 7195  41.921  35.998   1.866
40787W        W 7196   7.652  18.243  14.048
40788W        W 7197   9.134  38.918   2.260
40789W        W 7198   7.956  37.455   1.362
40790W        W 7199  24.332   3.237  13.822
40791W        W 7200  26.876  30.997  13.474
40792W        W 7201   0.752   3.199  13.956
40793W        W 7202  21.602   0.674  14.300
40794W        W 7203  20.301  26.469   1.937
40795W        W 7204   0.829  32.991  12.076
40796W        W 7205  19.116  10.716   0.069
40797W        W 7206  40.266  16.584  12.927
40798W        W 7207  36.549  29.647  14.583
40799W        W 7208  20.595  13.130  13.461
40800W        W 7209   4.710  19.591  10.637
40801W        W 7210  17.700  33.936  11.885
40802W        W 7211  43.903  39.357   1.630
40803W        W 7212   7.719   8.151   0.868
40804W        W 7213  11.612  13.775   2.738
40805W        W 7214   1.990  37.093  14.274
40806W        W 7215  34.050   2.079   0.809
40807W        W 7216  25.579   2.514  12.212
40808W        W 7217  22.364  31.214   2.752
40809W        W 7218   9.856  18.271   2.339
40810W        W 7219  14.168   9.293  12.047
40811W        W 7220  35.111  27.698  14.887
40812W        W 7221  30.972   9.137   1.964
40813W        W 7222  14.280  29.444  11.699
40814W        W 7223  34.405  35.882   2.459
40815W        W 7224   0.751  14.800   2.226
40816W        W 7225   6.809  27.142  11.611
40817W        W 7226  34.580  42.819   4.049
40818W        W 7227  35.432   5.383  14.422
40819W        W 7228  16.045  31.978  10.998
40820W        W 7229  20.682  13.286  12.990
40821W        W 7230  25.474  37.553   5.010
40822W        W 7231  24.112  43.880   0.954
40823W        W 7232   6.389  44.260  10.655
40824W        W 7233  41.389  23.760  12.082
40825W        W 7234  32.166  21.680   0.642
40826W        W 7235   2.755  31.114   0.640
40827W        W 7236   4.963   9.120   0.354
40828W        W 7237  43.196  14.350  14.897
40829W        W 7238  10.615  19.176   0.444
40830W        W 7239  12.364  42.183  12.961
40831W        W 7240   1.820  28.424  14.543
40832W        W 7241  14.135  36.799  14.447
40833W        W 7242  29.513  17.797   2.587
40834W        W 7243  14.382  15.196  12.770
40835W        W 7244  13.230   4.951   0.825
40836W        W 7245  12.381  23.496  14.850
40837W        W 7246   5.923   5.714   2.797
40838W        W 7247   8.926  31.692  11.157
40839W        W 7248  34.104  26.079  13.876
40840W        W 7249   4.221   3.694  11.084
40841W        W 7250   0.655  13.684  12.970
40842W        W 7251  30.159  44.478  11.383
40843W        W 7252   7.334   9.844   3.449
40844W        W 7253  43.722  28.813   1.332
40845W        W 7254  13.674  16.321   3.188
40846W        W 7255  12.631   7.139   3.283
40847W        W 7256  30.150  17.533   0.233
40848W        W 7257  19.221  39.510  12.434
40849W        W 7258  29.486  22.695  12.514
40850W        W 7259  40.611  11.624  14.592
40851W        W 7260  15.644  40.930   0.045
40852W        W 7261  13.829  39.074  11.985
40853W        W 7262   2.225  22.156  12.601
40854W        W 7263  25.225   9.273  12.365
40855W        W 7264  37.732  23.312  14.618
40856W        W 7265  22.209  28.018   2.740
40857W        W 7266  30.569  19.813   2.319
40858W        W 7267   6.332  34.014  12.935
40859W        W 7268  20.682  23.228  13.343
40860W        W 7269  18.081  22.818  14.403
40861W        W 7270  32.393  39.049  13.768
40862W        W 7271  15.291  23.804   3.127
40863W        W 7272   3.277  39.064  14.962
40864W        W 7273   3.797  16.787   1.280
40865W        W 7274  13.331  10.902  14.280
40866W        W 7275  24.462  24.816  10.504
40867W        W 7276  34.976  28.055  14.509
40868W        W 7277  20.068  20.180   1.423
40869W        W 7278  31.916   5.731   0.791
40870W        W 7279   0.760  35.122  13.332
40871W        W 7280  10.854  41.914   3.169
40872W        W 7281  34.367  41.961   3.192
40873W        W 7282  17.892  40.747   2.677
40874W        W 7283  29.792   8.354   4.515
40875W        W 7284  29.561   6.905   4.897
40876W        W 7285  26.564  21.184  12.835
40877W        W 7286  21.595  29.671   3.129
40878W        W 7287   3.051  42.658   1.895
40879W        W 7288  33.583  14.374   3.950
40880W        W 7289  32.034  24.804  12.545
40881W        W 7290  16.782  15.133  12.998
40882W        W 7291  39.726   5.015  14.761
40883W        W 7292  25.756   7.780  12.649
40884W        W 7293  29.525  19.263   4.251
40885W        W 7294  35.895  36.748  11.215
40886W        W 7295  18.951  20.114  11.612
40887W        W 7296  41.521  11.709  11.968
40888W        W 7297  13.211  39.026  14.490
40889W        W 7298   9.195  34.894   2.592
40890W        W 7299   0.373  30.461  11.348
40891W        W 7300  27.998  25.694  13.736
40892W        W 7301  38.397  37.192  11.500
40893W        W 7302  14.584  38.951  14.321
40894W        W 7303  42.843  33.094   4.008
40895W        W 7304   2.560  29.548  13.481
40896W        W 7305  35.859  40.184  11.157
40897W        W 7306  33.466  23.747   0.473
40898W        W 7307   7.355   0.003   3.213
40899W        W 7308  25.010  41.393  11.629
40900W        W 7309  10.682  36.479  10.952
40901W        W 7310  10.709  41.873   0.964
40902W        W 7311  13.664   1.639  13.785
40903W        W 7312  40.300  21.731   2.297
40904W        W 7313  25.433  44.369  14.417
40905W        W 7314  23.427   6.364   4.061
40906W        W 7315  39.581   2.267  14.297
40907W        W 7316  17.036   4.871  10.748
40908W        W 7317  13.392  18.019   0.548
40909W        W 7318  27.577  36.823   4.801
40910W        W 7319  32.649  27.564   1.770
40911W        W 7320  39.225  29.234   4.125
40912W        W 7321   9.672  30.685  12.052
40913W        W 7322  27.967  40.554   2.813
40914W        W 7323  38.673   9.819   2.393
40915W        W 7324   0.386  18.239  14.414
40916W        W 7325  38.774  32.017   4.314
40917W        W 7326   8.368  17.735   4.071
40918W        W 7327  16.124  11.674  13.987
40919W        W 7328  23.049  22.252   0.465
40920W        W 7329   1.241  21.082   2.823
40921W        W 7330  18.543  35.216   2.740
40922W        W 7331   3.782  25.314   0.713
40923W        W 7332  32.760  11.981   0.704
40924W        W 7333  42.231  26.835   4.202
40925W        W 7334  19.520  43.346   1.863
40926W        W 7335  33.083  36.000   4.444
40927W        W 7336  30.770  14.775   1.533
40928W        W 7337  18.772  25.435  14.717
40929W        W 7338  20.597   2.781   3.735
40930W        W 7339  18.873  12.707   2.580
40931W        W 7340  16.572  26.724   2.323
40932W        W 7341  13.862  42.061  11.123
40933W        W 7342  14.413   7.201  12.817
40934W        W 7343  41.616  33.369  12.352
40935W        W 7344  25.415  38.545   1.450
40936W        W 7345  23.147  33.672  12.974
40937W        W 7346  41.548   8.189   3.090
40938W        W 7347  23.706   5.191  14.499
40939W        W 7348  42.061  20.664  13.321
40940W        W 7349  33.905  37.582  11.590
40941W        W 7350  27.622  20.315   0.664
40942W        W 7351  12.797   1.349  12.881
40943W        W 7352  35.895  30.295   3.551
40944W        W 7353  12.151   6.438   3.209
40945W        W 7354  24.923  33.687   1.256
40946W        W 7355  20.859  41.075   3.736
40947W        W 7356   4.346  29.885   1.204
40948W        W 7357  27.436  39.989  10.696
40949W        W 7358  24.895  13.683   2.443
40950W        W 7359  33.029  23.536   3.691
40951W        W 7360   3.254  38.382  10.694
40952W        W 7361  16.392   5.721  11.626
40953W        W 7362  22.582  43.926   1.414
40954W        W 7363  34.383  14.536   0.928
40955W        W 7364   9.362  39.567   0.735
40956W        W 7365   8.809  20.292  13.437
40957W        W 7366  22.726   7.742   4.530
40958W        W 7367  10.161  34.107   2.313
40959W        W 7368  40.234  11.097   3.633
40960W        W 7369  10.629  22.824  14.297
40961W        W 7370  31.132  30.071   2.850
40962W        W 7371  21.790  27.201   3.096
40963W        W 7372   2.226  23.226   0.025
40964W        W 7373  18.640   8.834   1.740
40965W        W 7374  44.972  25.555  12.578
40966W        W 7375  12.591  22.522   5.065
40967W        W 7376   7.359   4.402   0.456
40968W        W 7377  40.609   2.897   3.271
40969W        W 7378  18.736   1.766   2.779
40970W        W 7379  41.074  29.363  14.912
40971W        W 7380   2.231   3.985   2.651
40972W        W 7381  41.161  34.035   0.410
40973W        W 7382  37.751  10.888   0.585
40974W        W 7383   4.664  40.729  12.259
40975W        W 7384  41.971  37.976  10.973
40976W        W 7385  25.473  31.606   4.755
40977W        W 7386  38.255   1.813  11.718
40978W        W 7387  26.625  35.479   4.880
40979W        W 7388  43.762  42.568  14.008
40980W        W 7389  16.673  41.668  14.016
40981W        W 7390  23.175  24.973  14.243
40982W        W 7391  27.259  19.865   4.940
40983W        W 7392   9.744  13.493  11.911
40984W        W 7393  21.410  31.339   3.781
40985W        W 7394  32.987  30.337   0.834
40986W        W 7395  42.896  16.240   4.102
40987W        W 7396   3.888  38.841   1.690
40988W        W 7397  26.478  41.403   0.364
40989W        W 7398  41.750  13.341  11.056
40990W        W 7399   5.073  30.862   3.735
40991W        W 7400   9.425   5.349  10.690
40992W        W 7401  40.582  34.594   1.940
40993W        W 7402  21.182   5.705   0.715
40994W        W 7403  22.414  15.318   0.739
40995W        W 7404  12.934  25.011  10.647
40996W        W 7405  14.872  18.027  13.392
40997W        W 7406  28.451   5.286   2.118
40998W        W 7407  33.756  17.804   2.211
40999W        W 7408  18.973  10.841   1.482
41000W        W 7409  27.953  40.802   1.928
41001W        W 7410  21.968  44.409   2.381
41002W        W 7411   2.023  39.370  11.153
41003W        W 7412   7.424  20.119  11.945
41004W        W 7413   5.228  18.355  12.874
41005W        W 7414  38.293  39.300  14.020
41006W        W 7415  10.463  29.212  10.151
41007W        W 7416  33.397  25.052  13.537
41008W        W 7417  26.638   6.650  12.525
41009W        W 7418  30.272  15.702  14.500
41010W        W 7419   4.482  32.990   4.315
41011W        W 7420  12.089  16.673   1.255
41012W        W 7421  24.591  30.180   4.575
41013W        W 7422  12.223  34.870  14.645
41014W        W 7423  11.296  31.577   1.330
41015W        W 7424  13.702  43.200   1.841
41016W        W 7425  44.849   1.990   2.713
41017W        W 7426   6.213  30.012  10.056
41018W        W 7427  16.078  26.082  13.533
41019W        W 7428   8.612  25.218  11.552
41020W        W 7429   5.873  38.155   2.780
41021W        W 7430  25.111  32.460  10.934
41022W        W 7431   3.282   0.469  14.961
41023W        W 7432  23.373  34.581   4.280
41024W        W 7433  23.599  28.349  12.938
41025W        W 7434  15.825   1.866   2.531
41026W        W 7435  28.881  17.020   0.623
41027W        W 7436  19.420  19.501   1.260
41028W        W 7437  22.445   7.995  12.734
41029W        W 7438  16.161  16.889  14.135
41030W        W 7439   4.504  28.617   1.840
41031W        W 7440  40.124  39.500   2.851
41032W        W 7441  35.033  36.062   5.175
41033W        W 7442   8.981  22.708  12.990
41034W        W 7443  25.529   4.803  14.055
41035W        W 7444  26.176  33.976  13.279
41036W        W 7445  20.129  44.734   0.336
41037W        W 7446  30.715  39.777  12.522
41038W        W 7447  18.820   3.308  10.091
41039W        W 7448  40.519  35.035  10.866
41040W        W 7449  21.233  32.500   0.335
41041W        W 7450  43.857  39.536   2.547
41042W        W 7451  12.692  37.465  11.971
41043W        W 7452  27.554  39.494   3.615
41044W        W 7453  43.756  24.614   2.686
41045W        W 7454  37.339  20.273   1.952
41046W        W 7455  33.719   4.409   2.421
41047W        W 7456  38.837  17.014   1.065
41048W        W 7457  44.539  34.807  11.962
41049W        W 7458  10.382  20.675   3.668
41050W        W 7459  15.138   4.667   3.178
41051W        W 7460  16.513  38.869   0.335
41052W        W 7461  29.674  31.212  13.871
41053W        W 7462  33.657  43.462   4.401
41054W        W 7463  32.193  16.191   2.241
41055W        W 7464  23.482  25.014   2.364
41056W        W 7465  33.899  16.588   2.922
41057W        W 7466  15.162   3.739   3.580
41058W        W 7467  35.911  41.429   1.456
41059W        W 7468  19.357  18.680  13.533
41060W        W 7469  18.601  32.470   4.023
41061W        W 7470  25.172  11.925   4.630
41062W        W 7471  23.942  11.120   0.383
41063W        W 7472  13.771  26.071   1.884
41064W        W 7473  28.331   5.670   4.015
41065W        W 7474  43.316  16.515  11.393
41066W        W 7475   4.612  22.208   3.241
41067W        W 7476  31.645  32.414  14.640
41068W        W 7477  37.932  28.563  14.568
41069W        W 7478  11.781   4.404   0.553
41070W        W 7479  27.991   9.225   3.211
41071W        W 7480  40.882  43.888  13.523
41072W        W 7481  33.539  42.968   1.377
41073W        W 7482   9.840  25.794  10.896
41074W        W 7483  44.021  29.214   3.100
41075W        W 7484  31.917   2.786   2.860
41076W        W 7485  20.379  24.460   4.077
41077W        W 7486  32.993   8.139   3.569
41078W        W 7487  38.922   2.779   1.398
41079W        W 7488  32.646  12.589   0.355
41080W        W 7489  24.261   8.578  12.453
41081W        W 7490  37.259   8.161  12.379
41082W        W 7491  41.001  31.749  11.554
41083W        W 7492  42.795  39.314   3.355
41084W        W 7493  23.863  30.628   2.472
41085W        W 7494  25.727   7.071  11.471
41086W        W 7495  26.985  37.499  12.015
41087W        W 7496   2.942   8.327  10.941
41088W        W 7497   7.481  23.360   1.796
41089W        W 7498  20.532  23.908   3.700
41090W        W 7499  20.186  26.636   3.755
41091W        W 7500   9.870  10.895   1.371
41092W        W 7501  27.468  12.421   3.346
41093W        W 7502  39.136  20.458   3.151
41094W        W 7503  16.257  40.071   2.242
41095W        W 7504  40.522  43.523  14.487
41096W        W 7505  41.795  12.612   2.260
41097W        W 7506  35.424   7.675   2.459
41098W        W 7507  11.095  38.346  14.833
41099W        W 7508  13.724  37.994  13.545
41100W        W 7509  17.489  16.640  13.265
41101W        W 7510  18.781  26.612  12.465
41102W        W 7511  42.493  32.692  14.917
41103W        W 7512  12.111   9.329   4.178
41104W        W 7513  28.361  44.003  10.980
41105W        W 7514  19.033  41.659   4.543
41106W        W 7515  14.348   9.744   0.100
41107W        W 7516  29.099  38.014   4.459
41108W        W 7517  21.538  39.569   2.334
41109W        W 7518  31.548  24.250   2.875
41110W        W 7519  17.723  42.885  11.599
41111W        W 7520  23.589  26.518  13.632
41112W        W 7521  28.557  31.840   4.262
41113W        W 7522   3.994  11.827   4.054
41114W        W 7523  19.623  21.954   2.779
41115W        W 7524  27.071   8.458  14.097
41116W        W 7525  25.747  24.505  14.086
41117W        W 7526   5.726  29.131   0.895
41118W        W 7527  33.105  22.035  14.240
41119W        W 7528   5.137   1.514   2.276
41120W        W 7529  19.358  42.968  11.484
41121W        W 7530  30.037   1.975  11.418
41122W        W 7531  18.184   7.180   0.996
41123W        W 7532  43.931   7.248   5.457
41124W        W 7533  15.422   1.759   0.051
41125W        W 7534  41.872  19.682   3.770
41126W        W 7535  24.214  10.241  14.678
41127W        W 7536   8.120  16.428   2.682
41128W        W 7537   9.581   9.700  10.690
41129W        W 7538   8.927   5.628  12.387
41130W        W 7539  24.512   3.346   0.149
41131W        W 7540   7.827  31.189   2.304
41132W        W 7541   1.720  20.518   2.706
41133W        W 7542  14.793   9.394  11.501
41134W        W 7543  29.535  41.739  14.533
41135W        W 7544   1.623  15.618   2.497
41136W        W 7545  31.914  19.307   4.617
41137W        W 7546  19.131  21.807  10.943
41138W        W 7547   8.315  11.673   2.294
41139W        W 7548  31.606  18.261   1.233
41140W        W 7549   6.098  36.904  12.421
41141W        W 7550  27.119  18.086  14.206
41142W        W 7551  35.560  40.488   3.419
41143W        W 7552  19.095  18.174  13.459
41144W        W 7553  23.569   1.841   1.597
41145W        W 7554  43.806  20.042  13.516
41146W        W 7555  15.857   8.178  12.893
41147W        W 7556  25.942   9.905  10.767
41148W        W 7557  21.024  18.629   1.309
41149W        W 7558  20.604   8.134   0.441
41150W        W 7559  33.201   1.336   4.136
41151W        W 7560  17.272  16.626   2.826
41152W        W 7561  12.131   9.592   4.613
41153W        W 7562   6.770  12.041   3.947
41154W        W 7563  20.264  27.422  14.381
41155W        W 7564  14.595  41.039  14.028
41156W        W 7565  28.921  10.277  11.948
41157W        W 7566  35.114  24.802  14.473
41158W        W 7567  38.161  21.201  11.436
41159W        W 7568   0.573  37.200  10.579
41160W        W 7569   8.691   4.658   4.085
41161W        W 7570   0.722  34.118   1.779
41162W        W 7571  10.154  20.202  10.066
41163W        W 7572  38.864  14.033  13.421
41164W        W 7573  26.169  36.955  13.825
41165W        W 7574   6.647  13.605   0.103
41166W        W 7575  11.723  32.101  11.647
41167W        W 7576  38.647   5.355  12.930
41168W        W 7577  14.132  15.801   3.581
41169W        W 7578  36.112   3.845  13.302
41170W        W 7579  10.986  29.492   3.383
41171W        W 7580  33.641  11.893  10.678
41172W        W 7581  29.365  36.787  13.903
41173W        W 7582  31.955  42.211  13.703
41174W        W 7583  25.037  29.229   1.243
41175W        W 7584  35.487  40.595  14.530
41176W        W 7585   3.813  14.100   2.672
41177W        W 7586  34.318  36.627   3.761
41178W        W 7587  33.970  42.561  13.572
41179W        W 7588  32.918  33.588  13.385
41180W        W 7589  32.919  17.214   1.260
41181W        W 7590  44.935  19.712   3.399
41182W        W 7591  42.907  21.271  10.343
41183W        W 7592  26.072  33.634   2.985
41184W        W 7593  28.845  42.421  13.852
41185W        W 7594  40.622  30.416  14.818
41186W        W 7595  19.046  36.345   4.277
41187W        W 7596  31.423  14.136   2.292
41188W        W 7597  17.862  18.826   3.067
41189W        W 7598  37.413   2.729  12.817
41190W        W 7599  12.159   6.997  12.456
41191W        W 7600  36.438   4.009   0.360
41192W        W 7601   9.808   6.241   4.331
41193W        W 7602  17.336  24.529   0.255
41194W        W 7603  33.666  16.872   2.210
41195W        W 7604  26.478  38.291  10.667
41196W        W 7605  34.489  28.152  13.523
41197W        W 7606  43.877  21.117   0.907
41198W        W 7607  38.073  13.863  11.963
41199W        W 7608  22.995  31.226   4.340
41200W        W 7609  18.170   1.665  14.859
41201W        W 7610  24.290   1.648   2.294
41202W        W 7611  24.152   0.065  11.678
41203W        W 7612   6.921  15.689   1.046
41204W        W 7613  25.487  26.601   0.967
41205W        W 7614  13.675  16.046   3.626
41206W        W 7615  44.551   0.917   1.237
41207W        W 7616  10.631  12.727  12.642
41208W        W 7617   6.890   6.223  13.877
41209W        W 7618   7.552  23.280  13.554
41210W        W 7619  42.311  40.456   4.636
41211W        W 7620  12.508  36.914   4.562
41212W        W 7621  40.327  10.024   0.101
41213W        W 7622  25.355  27.406   1.363
41214W        W 7623  28.254   9.205  10.675
41215W        W 7624  43.437  33.580  11.166
41216W        W 7625  44.898  21.239  11.604
41217W        W 7626  13.250  14.199  10.985
41218W        W 7627   3.626  26.171   3.897
41219W        W 7628   6.692  42.088  11.581
41220W        W 7629  33.544  17.281   0.424
41221W        W 7630  34.811  12.500   3.717
41222W        W 7631  35.595  24.989  11.228
41223W        W 7632  41.721  21.789  13.656
41224W        W 7633  39.571  11.962  12.896
41225W        W 7634  40.931  26.413  11.019
41226W        W 7635  17.223  10.649  11.976
41227W        W 7636   7.184  35.916   0.056
41228W        W 7637   3.196  36.374   3.583
41229W        W 7638   2.207  33.352  13.040
41230W        W 7639  41.849  13.149   4.794
41231W        W 7640  23.008  31.419  11.178
41232W        W 7641  26.904  39.236  13.896
41233W        W 7642  34.768  37.552  14.543
41234W        W 7643  31.404  22.645  14.134
41235W        W 7644   3.515  14.889   0.907
41236W        W 7645  25.329  38.007  13.817
41237W        W 7646  30.428   7.594   1.949
41238W        W 7647   8.301  20.784   0.456
41239W        W 7648   7.681  23.734   2.149
41240W        W 7649   0.547  11.385  14.792
41241W        W 7650   3.050  40.963   0.898
41242W        W 7651   0.352  43.019  14.384
41243W        W 7652   9.742  20.922  14.870
41244W        W 7653  14.196   9.424  14.409
41245W        W 7654  26.276  19.170   4.815
41246W        W 7655  20.742  34.337   0.287
41247W        W 7656  35.565  26.708   1.246
41248W        W 7657   7.687  22.174   4.602
41249W        W 7658  11.570  24.978  12.416
41250W        W 7659   5.713   9.815  10.645
41251W        W 7660  26.959   5.163   1.889
41252W        W 7661   3.690  25.552   0.133
41253W        W 7662   0.491  16.041   0.276
41254W        W 7663   6.315  11.273   2.912
41255W        W 7664  13.066  22.639   2.659
41256W        W 7665   6.606  40.037   0.805
41257W        W 7666   6.920   3.759  11.606
41258W        W 7667  19.970   7.791  11.182
41259W        W 7668  22.138  11.391  14.672
41260W        W 7669  21.690  42.360   2.743
41261W        W 7670   4.421  38.426  11.182
41262W        W 7671  19.701   1.524   4.420
41263W        W 7672  24.577  18.057  13.671
41264W        W 7673   4.247   2.466   3.651
41265W        W 7674  16.575  37.544   2.236
41266W        W 7675  17.348  34.045   3.768
41267W        W 7676  32.093  34.073   1.668
41268W        W 7677  41.536  15.752  14.305
41269W        W 7678  25.366  10.965  13.339
41270W        W 7679  26.518  10.459  11.085
41271W        W 7680  10.744  31.731   2.290
41272W        W 7681  22.815  37.958   4.830
41273W        W 7682  11.099  34.926  13.551
41274W        W 7683  15.334  36.391   0.046
41275W        W 7684  33.487  42.940   0.217
41276W        W 7685  40.723   9.165   3.558
41277W        W 7686  35.809  28.056  12.584
41278W        W 7687  29.032  12.464   2.232
41279W        W 7688  26.159  13.612  12.922
41280W        W 7689  28.739  40.842  14.355
41281W        W 7690  21.156  32.968  11.737
41282W        W 7691  31.995  40.048  13.091
41283W        W 7692  23.649  39.324   3.871
41284W        W 7693  28.974   6.319  11.639
41285W        W 7694  30.952   7.869  13.486
41286W        W 7695  42.248  16.202   3.891
41287W        W 7696  31.085  35.584  12.414
41288W        W 7697  30.869   8.407  11.836
41289W        W 7698   2.442  24.101  10.584
41290W        W 7699  25.443   0.024  10.825
41291W        W 7700  19.110  34.853  11.532
41292W        W 7701  31.453  38.600  14.459
41293W        W 7702  38.556  37.882  12.663
41294W        W 7703  37.517  35.371   0.789
41295W        W 7704   8.339  28.931   3.164
41296W        W 7705  19.091  43.541   0.028
41297W        W 7706  10.649   1.319  14.345
41298W        W 7707  23.921   4.194   4.035
41299W        W 7708  10.905  26.609   3.728
41300W        W 7709   8.870   3.831  12.123
41301W        W 7710  15.512  14.293  10.790
41302W        W 7711   2.760  16.643  11.297
41303W        W 7712  43.409   8.358   0.671
41304W        W 7713  27.589   6.238   4.665
41305W        W 7714  26.385   0.045  11.809
41306W        W 7715   2.320   7.699   4.043
41307W        W 7716   6.677  32.421   0.745
41308W        W 7717   3.473  40.092   4.550
41309W        W 7718  42.773  15.549   0.939
41310W        W 7719   2.180  43.436  10.543
41311W        W 7720  29.530   8.347  14.031
41312W        W 7721  26.545  34.013   3.052
41313W        W 7722  29.604  31.637   4.785
41314W        W 7723  44.783   7.274  10.626
41315W        W 7724  30.137  11.787   0.775
41316W        W 7725  23.961  40.412   4.505
41317W        W 7726  21.255  17.766  10.875
41318W        W 7727  43.719  26.004  14.269
41319W        W 7728  13.437  36.930   2.909
41320W        W 7729   7.451  30.711  10.674
41321W        W 7730  31.863  26.683  14.126
41322W        W 7731   4.882  21.612   2.157
41323W        W 7732  16.972   5.675   4.093
41324W        W 7733   2.990  18.574  13.273
41325W        W 7734  15.703  10.546   4.543
41326W        W 7735   5.583  11.260  11.637
41327W        W 7736  30.092  22.533  10.948
41328W        W 7737  33.062  12.634   4.123
41329W        W 7738  23.673  15.836  12.479
41330W        W 7739  26.151  18.135  13.061
41331W        W 7740   5.448  38.493  13.333
41332W        W 7741  40.173  21.982  14.368
41333W        W 7742  41.542  10.189  11.973
41334W        W 7743   5.946  35.742   3.260
41335W        W 7744  11.765  35.135  14.590
41336W        W 7745   7.666  12.159  11.580
41337W        W 7746  34.381  31.619  13.401
41338W        W 7747  39.555  31.163   2.699
41339W        W 7748  21.565  31.201   0.123
41340W        W 7749  21.246  36.442   4.078
41341W        W 7750  25.974   2.310  13.927
41342W        W 7751   0.222  38.508   3.519
41343W        W 7752  43.904  38.371  11.899
41344W        W 7753  15.720   3.362  14.932
41345W        W 7754  23.275   0.050   2.989
41346W        W 7755  39.261  19.536   1.722
41347W        W 7756   4.690  35.464  11.491
41348W        W 7757  15.326   0.853   1.304
41349W        W 7758  12.088  39.094   3.331
41350W        W 7759  22.498  31.725   4.750
41351W        W 7760  42.098  18.045  13.395
41352W        W 7761  18.517   9.153  13.554
41353W        W 7762  33.548  16.642  14.130
41354W        W 7763  43.397   4.169   2.272
41355W        W 7764   3.904  20.720   4.668
41356W        W 7765  29.843   9.406   5.380
41357W        W 7766  25.210  40.970   3.730
41358W        W 7767  34.879   3.032   1.802
41359W        W 7768   1.406  37.060   1.960
41360W        W 7769  31.927  40.599   5.097
41361W        W 7770  41.030  40.863  14.709
41362W        W 7771  22.477   4.009  13.503
41363W        W 7772  25.002  22.596  13.487
41364W        W 7773  42.433  23.975  13.397
41365W        W 7774  44.831  32.865  12.450
41366W        W 7775  28.228  30.195  13.969
41367W        W 7776  21.423  24.997   2.394
41368W        W 7777  39.389   9.640   0.405
41369W        W 7778  27.546  13.602  12.628
41370W        W 7779  33.410  25.374  12.508
41371W        W 7780  41.637  32.728   4.677
41372W        W 7781  34.944  37.947   4.428
41373W        W 7782  33.106  17.646   3.602
41374W        W 7783   3.510   0.701  12.153
41375W        W 7784  27.044  39.546  10.787
41376W        W 7785  22.479  15.107   1.603
41377W        W 7786  14.789  30.094   3.694
41378W        W 7787  14.433  29.478   0.327
41379W        W 7788  26.988  24.077   1.679
41380W        W 7789  40.472   7.837   4.425
41381W        W 7790  34.133  12.109  11.408
41382W        W 7791  32.372  29.953   2.348
41383W        W 7792  35.060  41.273  10.100
41384W        W 7793   6.264  29.523   1.283
41385W        W 7794  27.788  34.068  10.712
41386W        W 7795  26.088   4.100  12.562
41387W        W 7796   0.119  35.991   0.015
41388W        W 7797  43.768  17.822  14.992
41389W        W 7798  15.571  29.704   4.747
41390W        W 7799  41.701  23.610   3.714
41391W        W 7800  24.496  13.726   4.836
41392W        W 7801   5.228  29.026   1.653
41393W        W 7802  35.835   2.402  14.378
41394W        W 7803  23.734   8.384   4.612
41395W        W 7804  32.784   6.876  12.014
41396W        W 7805  12.330  37.259   2.927
41397W        W 7806  34.049  12.312   0.362
41398W        W 7807   1.435   6.244  12.392
41399W        W 7808  19.833   9.660   1.840
41400W        W 7809  14.613  12.255   1.374
41401W        W 7810  43.290   0.006   3.612
41402W        W 7811   5.132  37.598   3.152
41403W        W 7812  21.252  19.082   4.833
41404W        W 7813  13.032  35.234  13.855
41405W        W 7814   7.913   7.154   0.934
41406W        W 7815  28.974  23.934   2.533
41407W        W 7816   9.890  40.895  10.724
41408W        W 7817   6.406  27.343   1.747
41409W        W 7818  22.054  25.736  12.178
41410W        W 7819   3.037  12.282   0.906
41411W        W 7820   2.571  35.550   3.360
41412W        W 7821   0.699  40.463  11.516
41413W        W 7822  40.805   8.735   3.256
41414W        W 7823  37.531  13.299  11.690
41415W        W 7824  22.617  40.941   5.011
41416W        W 7825  37.050   0.008  13.060
41417W        W 7826  22.731  27.121   3.362
41418W        W 7827  23.949  35.573  12.973
41419W        W 7828  39.914  41.874   3.639
41420W        W 7829   6.065  10.644  10.742
41421W        W 7830  29.216  27.169  14.896
41422W        W 7831  31.986  19.049   2.731
41423W        W 7832  36.037  27.137  11.277
41424W        W 7833  41.272  35.836  14.414
41425W        W 7834  43.803  25.158   0.818
41426W        W 7835   0.165  26.475  13.767
41427W        W 7836  44.619  42.564  12.437
41428W        W 7837  31.042   9.142  10.890
41429W        W 7838  23.441  30.004   3.576
41430W        W 7839  22.112  27.323   0.860
41431W        W 7840   7.312  11.125   0.823
41432W        W 7841   3.726  26.170   4.726
41433W        W 7842  31.769  20.489   3.208
41434W        W 7843  28.196  35.462  14.056
41435W        W 7844   9.761  22.692   0.351
41436W        W 7845   3.709  34.404  10.746
41437W        W 7846  21.146  14.572   0.790
41438W        W 7847  12.453  29.624   2.442
41439W        W 7848  31.451  14.214   4.901
41440W        W 7849  22.830  15.854   1.706
41441W        W 7850   9.207  31.553  10.747
41442W        W 7851  12.802  39.939  14.355
41443W        W 7852  15.769  25.495  11.612
41444W        W 7853  38.912  31.246  13.344
41445W        W 7854  26.370  29.443   3.144
41446W        W 7855  10.471   5.198  14.925
41447W        W 7856  43.343  11.871  10.603
41448W        W 7857   7.724  32.114  14.492
41449W        W 7858  36.403   3.378  13.467
41450W        W 7859  40.322  21.277  13.034
41451W        W 7860  44.219  30.161  13.465
41452W        W 7861  10.967  13.756  11.673
41453W        W 7862  37.126  41.276   2.638
41454W        W 7863  41.904  10.247  10.763
41455W        W 7864  22.487  19.781  13.006
41456W        W 7865   6.215  13.269  11.609
41457W        W 7866  20.178  12.578   0.535
41458W        W 7867  41.464  34.139  13.036
41459W        W 7868  34.910  35.846   4.708
41460W        W 7869  34.367  27.035  13.494
41461W        W 7870  25.137  34.862   1.839
41462W        W 7871  14.734  11.695  10.720
41463W        W 7872  27.153   7.254   1.266
41464W        W 7873  40.023  34.447  11.994
41465W        W 7874  39.552   4.777  14.329
41466W        W 7875  20.988  43.945  13.847
41467W        W 7876  38.427  15.195   0.306
41468W        W 7877   7.816  39.342  10.910
41469W        W 7878   9.465  36.387  11.634
41470W        W 7879  34.164   1.235  14.275
41471W        W 7880  43.429  36.512   2.663
41472W        W 7881  32.499  44.328   0.816
41473W        W 7882  43.938  32.478  12.816
41474W        W 7883  25.059  14.967   4.415
41475W        W 7884  11.783   3.932   0.368
41476W        W 7885  16.565  13.328  11.163
41477W        W 7886  11.087  27.118  14.801
41478W        W 7887  21.532  32.036  13.916
41479W        W 7888  39.620  36.473  12.885
41480W        W 7889   6.321  25.126  12.768
41481W        W 7890  15.391  24.444  13.969
41482W        W 7891  18.068  41.985  14.534
41483W        W 7892  16.713   8.389  13.813
41484W        W 7893  21.721  15.658   0.323
41485W        W 7894  42.313  10.237   2.694
41486W        W 7895  16.979  28.962   4.080
41487W        W 7896  35.881  15.833   3.713
41488W        W 7897  13.734   2.232  14.397
41489W        W 7898  34.128  26.410  11.572
41490W        W 7899  16.366  32.369  11.003
41491W        W 7900   9.391   3.234  10.325
41492W        W 7901  37.082  37.145   1.246
41493W        W 7902  38.235   4.145   4.165
41494W        W 7903  34.504  35.911   1.570
41495W        W 7904  34.021   7.559   3.346
41496W        W 7905  35.342  23.201  11.658
41497W        W 7906  28.018   4.351  14.904
41498W        W 7907  41.684   3.540   3.303
41499W        W 7908  15.598  30.998   4.065
41500W        W 7909  24.075   2.726   2.160
41501W        W 7910  21.325  12.209   2.329
41502W        W 7911  44.882  44.342  12.861
41503W        W 7912   8.578  15.264   1.889
41504W        W 7913   1.550   3.290   2.244
41505W        W 7914  35.291   9.704  12.482
41506W        W 7915   5.396  10.833  13.470
41507W        W 7916  24.560   9.578   2.226
41508W        W 7917  14.314  35.926  13.786
41509W        W 7918  38.694   6.322  12.914
41510W        W 7919  22.543  37.668   0.323
41511W        W 7920  15.503  42.975   4.987
41512W        W 7921  11.785  13.008  10.394
41513W        W 7922   8.733  10.517  12.878
41514W        W 7923  34.385  44.870   0.944
41515W        W 7924  32.498  16.710   2.688
41516W        W 7925  41.498  24.043   3.409
41517W        W 7926  29.717  38.266  13.957
41518W        W 7927  12.197  19.646  13.485
41519W        W 7928  42.315  19.269   0.913
41520W        W 7929  22.036  28.573   1.144
41521W        W 7930  19.116  36.144   0.915
41522W        W 7931  38.767  43.842   0.444
41523W        W 7932  15.286  44.825   3.091
41524W        W 7933  35.073  18.034  14.090
41525W        W 7934  38.030  21.309   0.070
41526W        W 7935  40.213  34.563  14.994
41527W        W 7936  33.911  22.899   4.917
41528W        W 7937  27.887  11.815   2.480
41529W        W 7938  29.583  40.996   3.795
41530W        W 7939  32.611  33.578   1.015
41531W        W 7940  38.049  43.790  11.160
41532W        W 7941  18.836  13.642   2.636
41533W        W 7942  24.272   8.819   0.494
41534W        W 7943  13.284  44.327  11.205
41535W        W 7944  17.162  15.646   4.119
41536W        W 7945  17.233   2.552   0.774
41537W        W 7946   0.277   5.646  12.449
41538W        W 7947  10.689   3.757  14.267
41539W        W 7948   4.923   3.954  13.805
41540W        W 7949   9.714  11.307  12.892
41541W        W 7950  28.869  36.555   1.855
41542W        W 7951   7.481  20.646   4.421
41543W        W 7952  19.120  10.633   4.843
41544W        W 7953  43.489  38.545  11.475
41545W        W 7954  19.546  34.351   1.389
41546W        W 7955   3.577  11.059   2.713
41547W        W 7956  37.808  32.067  13.908
41548W        W 7957  13.660   3.180  14.998
41549W        W 7958   5.279  11.720   4.947
41550W        W 7959  29.896  14.276   2.939
41551W        W 7960  18.724  40.443   0.909
41552W        W 7961  42.117  17.598   0.463
41553W        W 7962  41.445   9.423  13.434
41554W        W 7963  26.909  13.945   2.800
41555W        W 7964  16.870   9.498   2.230
41556W        W 7965  14.638  24.070   1.148
41557W        W 7966   8.596  13.103   2.386
41558W        W 7967  17.672  15.668   4.065
41559W        W 7968  25.290  44.865  13.169
41560W        W 7969  34.535  29.694   3.173
41561W        W 7970  39.407  11.055  10.757
41562W        W 7971  31.455   0.550   5.609
41563W        W 7972   2.469  43.879  10.577
41564W        W 7973  26.949  31.616   1.365
41565W        W 7974  22.812  20.564  12.580
41566W        W 7975  10.179  32.156   2.788
41567W        W 7976  26.209  29.951  11.967
41568W        W 7977  12.054  39.740  13.829
41569W        W 7978   7.106  30.010  10.555
41570W        W 7979   7.012  28.778  12.780
41571W        W 7980  38.057  33.634   3.261
41572W        W 7981   6.225  42.804  10.671
41573W        W 7982   7.167   4.773   3.049
41574W        W 7983   7.654   4.606  14.352
41575W        W 7984  24.457   4.060  10.599
41576W        W 7985  19.764  34.438  14.518
41577W        W 7986  11.756  37.553   2.615
41578W        W 7987   3.310  42.128   4.194
41579W        W 7988   7.686  10.400   1.299
41580W        W 7989  19.757   7.785   4.394
41581W        W 7990  37.673   5.972   1.745
41582W        W 7991  36.986  14.008   1.169
41583W        W 7992   4.292  15.467  13.896
41584W        W 7993  30.483   3.211  11.604
41585W        W 7994  26.024  25.477  12.188
41586W        W 7995  31.442  15.968   2.642
41587W        W 7996  38.450  34.940   0.882
41588W        W 7997  23.603  21.242  11.939
41589W        W 7998  25.076  19.687  13.820
41590W        W 7999  17.106  41.837   4.928
41591W        W 8000  20.746  34.899   0.327
41592W        W 8001  35.552   2.292   9.606
41593W        W 8002  36.007   7.915  14.081
41594W        W 8003  27.234  31.880  11.200
41595W        W 8004   3.812   3.303   4.409
41596W        W 8005  20.875   8.692  11.924
41597W        W 8006  20.551   9.190  11.217
41598W        W 8007  20.798  11.245  11.717
41599W        W 8008   1.077   4.286  13.436
41600W        W 8009  42.201  30.550   0.845
41601W        W 8010  39.508  13.079  14.694
41602W        W 8011  26.477  44.506  11.785
41603W        W 8012  32.436  27.798  14.757
41604W        W 8013  44.355  18.751  12.155
41605W        W 8014   3.175  34.020   0.870
41606W        W 8015  10.841   7.782  10.741
41607W        W 8016  39.490  39.768  12.729
41608W        W 8017  21.903   8.333   2.117
41609W        W 8018  31.417  29.648   1.918
41610W        W 8019   9.343  43.452   4.164
41611W        W 8020  31.675   5.967   0.374
41612W        W 8021  16.093  36.319   4.557
41613W        W 8022  36.420  26.554   1.426
41614W        W 8023  32.696  16.073  11.868
41615W        W 8024   3.151   6.837   3.082
41616W        W 8025  18.274   3.223   0.770
41617W        W 8026   4.125  43.606   1.756
41618W        W 8027  18.594  37.949  11.745
41619W        W 8028  43.053  24.421  12.008
41620W        W 8029  13.348   3.993   2.740
41621W        W 8030  14.303  10.346  10.659
41622W        W 8031  16.209  22.069  13.312
41623W        W 8032   5.465  37.441   0.388
41624W        W 8033  21.201  25.099   4.687
41625W        W 8034  32.842  20.382  14.103
41626W        W 8035   9.479  10.312   1.868
41627W        W 8036  33.335   5.182   4.698
41628W        W 8037  35.540  42.744  13.936
41629W        W 8038  34.497  21.002   0.204
41630W        W 8039  25.690  21.142   1.709
41631W        W 8040  35.511  37.420  13.405
41632W        W 8041   7.859  18.337  10.822
41633W        W 8042  31.540  34.222   0.746
41634W        W 8043  16.571  25.842   5.047
41635W        W 8044  37.743  29.814   1.455
41636W        W 8045  43.549  31.189   0.654
41637W        W 8046  31.056   1.532  14.741
41638W        W 8047   0.744  13.815   2.202
41639W        W 8048  24.695   2.353   2.835
41640W        W 8049  33.865  30.962  11.879
41641W        W 8050   2.057  35.361  10.732
41642W        W 8051  18.037  17.322   4.038
41643W        W 8052  29.243  23.055   4.147
41644W        W 8053  18.565   2.756  14.659
41645W        W 8054  20.553  42.530   2.812
41646W        W 8055  43.505  26.576   2.358
41647W        W 8056   8.188  23.272  11.197
41648W        W 8057  16.779  10.800   3.624
41649W        W 8058  25.854  29.909   1.261
41650W        W 8059   5.788   2.107   4.140
41651W        W 8060  19.629  16.294  14.741
41652W        W 8061  14.201  14.337   0.682
41653W        W 8062  36.322  12.158   0.354
41654W        W 8063   4.051  23.691   2.255
41655W        W 8064  29.631  37.087  12.473
41656W        W 8065  29.689  13.975   1.201
41657W        W 8066   2.012  37.398   0.425
41658W        W 8067  34.904  26.170   2.196
41659W        W 8068  31.450  12.809   1.048
41660W        W 8069  32.982  13.623   1.761
41661W        W 8070  44.857  18.024  12.580
41662W        W 8071  14.374  44.924   4.612
41663W        W 8072  33.317  17.982  13.893
41664W        W 8073  10.410   5.863  10.025
41665W        W 8074  28.083   1.003  13.491
41666W        W 8075   8.373  21.966   1.263
41667W        W 8076  39.439  16.624   2.756
41668W        W 8077  35.679  11.704   2.765
41669W        W 8078  39.064  27.323  13.132
41670W        W 8079  11.844  16.829   5.039
41671W        W 8080  12.769  23.751  11.236
41672W        W 8081  20.053  23.964  12.368
41673W        W 8082  11.288  19.513  13.193
41674W        W 8083  32.458  43.295   0.709
41675W        W 8084  39.619  41.550  10.724
41676W        W 8085  34.353  16.998   4.053
41677W        W 8086  27.761  21.267   0.333
41678W        W 8087  17.726  14.732  10.744
41679W        W 8088  32.553  34.299   1.723
41680W        W 8089  43.711   4.763   2.267
41681W        W 8090  19.090  22.766   0.569
41682W        W 8091  10.065   2.017   1.361
41683W        W 8092  22.576   1.242  13.440
41684W        W 8093  28.229  23.447   3.749
41685W        W 8094  42.421  19.178  14.101
41686W        W 8095   1.152   0.365  13.510
41687W        W 8096   6.311  26.448   1.974
41688W        W 8097  15.665   9.736  14.017
41689W        W 8098  39.675  14.436   5.038
41690W        W 8099   0.064  16.778   0.276
41691W        W 8100  33.140  33.378  11.113
41692W        W 8101  34.080   7.728  14.581
41693W        W 8102  38.976  36.892   3.071
41694W        W 8103   1.659   4.434  13.894
41695W        W 8104  26.568  13.926   0.813
41696W        W 8105  39.957  20.858   1.478
41697W        W 8106  36.713  22.517   4.230
41698W        W 8107  33.290  43.945  11.728
41699W        W 8108  17.782  18.862  10.719
41700W        W 8109  28.168  20.030   2.982
41701W        W 8110  23.519   6.856  11.209
41702W        W 8111  27.732  39.016   0.492
41703W        W 8112  16.783  16.615   0.304
41704W        W 8113   1.355  25.457   2.453
41705W        W 8114  43.044  38.930  14.544
41706W        W 8115  36.939  17.660  13.813
41707W        W 8116  24.148   6.890   0.309
41708W        W 8117  20.610   0.802   2.870
41709W        W 8118  19.148  38.347  13.536
41710W        W 8119  17.188   7.391  11.158
41711W        W 8120   0.661  12.327  10.641
41712W        W 8121  32.503  42.979   3.652
41713W        W 8122  16.847  12.171  12.867
41714W        W 8123   2.740  11.164  11.473
41715W        W 8124  28.438  28.192  14.980
41716W        W 8125  44.521  20.936  10.348
41717W        W 8126  35.110  35.314   0.249
41718W        W 8127  37.148   8.801  14.198
41719W        W 8128   2.494  25.477  11.252
41720W        W 8129  19.715   5.902  14.863
41721W        W 8130  32.310  23.485  13.807
41722W        W 8131  34.753  17.659  14.377
41723W        W 8132  30.843  16.263   2.455
41724W        W 8133  37.660   1.926  12.236
41725W        W 8134   2.678  43.702   1.751
41726W        W 8135  29.175  30.667  11.173
41727W        W 8136   4.949  22.489   3.619
41728W        W 8137  15.835  31.862   4.500
41729W        W 8138  41.707  33.520   4.497
41730W        W 8139  28.827  34.425   2.684
41731W        W 8140  29.880  21.213  10.407
41732W        W 8141  14.272  19.001   0.054
41733W        W 8142  22.111  40.917  13.387
41734W        W 8143  38.121   7.301  10.807
41735W        W 8144  10.882  22.009  14.538
41736W        W 8145  19.773   8.444  10.554
41737W        W 8146  44.861  44.755  11.076
41738W        W 8147  15.198  24.346   1.336
41739W        W 8148   4.095   0.265  13.875
41740W        W 8149   5.829  32.814  12.411
41741W        W 8150  26.148  36.408  10.665
41742W        W 8151  30.673  12.025  14.757
41743W        W 8152  13.014  37.815   1.882
41744W        W 8153   2.167  37.153  13.364
41745W        W 8154   8.290  13.063   0.643
41746W        W 8155  30.139   1.787   3.292
41747W        W 8156  32.125  16.245   3.878
41748W        W 8157  40.335  17.812   3.605
41749W        W 8158  38.086  38.578  12.939
41750W        W 8159  27.526   1.256   3.950
41751W        W 8160   1.341  41.548  14.374
41752W        W 8161  32.851  10.372   1.446
41753W        W 8162   5.441  21.035  12.486
41754W        W 8163  24.636   2.218  11.987
41755W        W 8164  34.053   1.968  11.846
41756W        W 8165   3.154  20.176   4.320
41757W        W 8166   6.675  28.135  12.541
41758W        W 8167  33.291  27.626   0.618
41759W        W 8168  21.518  30.414   0.295
41760W        W 8169  19.948  20.907  14.023
41761W        W 8170   2.259  22.470   0.330
41762W        W 8171  24.178  44.875  14.473
41763W        W 8172  20.852  24.250  12.540
41764W        W 8173   0.807   5.342   1.913
41765W        W 8174  30.688  22.620  12.110
41766W        W 8175  32.457   5.272  11.443
41767W        W 8176  43.759  33.587  13.513
41768W        W 8177  29.562  36.277  14.914
41769W        W 8178  41.045   3.102  13.803
41770W        W 8179   3.212  36.722   0.193
41771W        W 8180  13.162  19.865  13.265
41772W        W 8181  10.348  17.070   0.475
41773W        W 8182  17.203  15.071   1.353
41774W        W 8183   5.290  14.892  14.948
41775W        W 8184  38.683  25.028  12.350
41776W        W 8185  20.381   9.777   4.735
41777W        W 8186  39.332  20.832  12.002
41778W        W 8187  10.866  14.202  10.475
41779W        W 8188  25.125  34.503   3.276
41780W        W 8189  26.898  33.611   2.346
41781W        W 8190   2.440   2.393   3.331
41782W        W 8191  44.476   6.286   2.297
41783W        W 8192  18.117  23.977  13.717
41784W        W 8193  27.008  21.558   2.757
41785W        W 8194  19.127  10.207   1.829
41786W        W 8195  15.115  31.695  13.942
41787W        W 8196  26.938  23.527  13.347
41788W        W 8197  35.828   1.251   4.928
41789W        W 8198  22.772  43.270   2.670
41790W        W 8199  36.654   2.157   0.903
41791W        W 8200  19.738  13.363   2.640
41792W        W 8201  42.481  15.169  11.834
41793W        W 8202  30.985  43.550   3.644
41794W        W 8203  25.140   3.171   0.487
41795W        W 8204  18.515  34.547   3.270
41796W        W 8205  16.237  10.918   1.651
41797W        W 8206   1.614  20.039   1.302
41798W        W 8207   8.219   8.284   0.834
41799W        W 8208   5.866   2.730   1.872
41800W        W 8209   4.917  36.356   0.716
41801W        W 8210  32.875  32.057  12.472
41802W        W 8211  29.878  35.740  11.585
41803W        W 8212  42.759   3.312   2.111
41804W        W 8213  10.211  32.551   2.448
41805W        W 8214  43.421   9.703  13.294
41806W        W 8215  23.527  30.453  14.336
41807W        W 8216  19.754  12.349   0.715
41808W        W 8217  27.649  22.310   4.350
41809W        W 8218   4.839  11.382   0.503
41810W        W 8219  16.547  23.615   3.288
41811W        W 8220  22.023  32.091   0.288
41812W        W 8221   9.668  43.968   0.926
41813W        W 8222  25.078  38.829  10.881
41814W        W 8223  22.574   1.371  12.414
41815W        W 8224  26.995  11.243  12.312
41816W        W 8225  11.956  13.358   2.865
41817W        W 8226   0.897  25.412  11.760
41818W        W 8227  44.539  18.070  13.293
41819W        W 8228  13.210   3.712  10.567
41820W        W 8229  23.076  38.857   3.318
41821W        W 8230  18.247  21.047  11.103
41822W        W 8231  43.006  41.024  14.956
41823W        W 8232  14.117   6.461   0.798
41824W        W 8233  16.536  19.122   2.248
41825W        W 8234   5.400  26.457  14.461
41826W        W 8235  38.087  44.321   1.957
41827W        W 8236  23.885   8.701  11.602
41828W        W 8237  10.359  30.731  14.809
41829W        W 8238   0.537  42.301   1.305
41830W        W 8239  19.183   3.376  11.096
41831W        W 8240  23.756  44.428   4.425
41832W        W 8241  25.169  23.705  11.533
41833W        W 8242   1.364  35.992  12.766
41834W        W 8243   4.768  20.639  13.162
41835W        W 8244  41.473   1.530  13.996
41836W        W 8245  43.260  12.116  12.387
41837W        W 8246  11.062  36.052   5.051
41838W        W 8247  27.604  11.451  14.265
41839W        W 8248   9.740  14.627  13.015
41840W        W 8249  20.526  25.611   2.090
41841W        W 8250  28.783  10.126  12.846
41842W        W 8251  44.559  36.602   3.198
41843W        W 8252  42.463  34.144  12.964
41844W        W 8253  33.412  17.397  11.074
41845W        W 8254  38.928  18.245  11.973
41846W        W 8255  31.943  27.986  10.732
41847W        W 8256  34.324  14.794   4.318
41848W        W 8257  21.812   7.659   4.644
41849W        W 8258  36.854  32.405  13.922
41850W        W 8259   2.933   9.458   3.763
41851W        W 8260  17.827  28.046  14.242
41852W        W 8261  26.052  23.575   4.583
41853W        W 8262  12.833   4.431  12.605
41854W        W 8263   7.577  21.954  11.955
41855W        W 8264  26.133   2.752   0.565
41856W        W 8265   3.862   9.767  14.500
41857W        W 8266  27.183   9.689   3.501
41858W        W 8267  36.877  13.837   0.255
41859W        W 8268  19.313  22.068   0.240
41860W        W 8269  42.227  36.080   3.359
41861W        W 8270  43.777  24.150   2.431
41862W        W 8271  21.600   8.159   1.307
41863W        W 8272  29.281   9.098  13.275
41864W        W 8273   5.586  30.998   1.205
41865W        W 8274   6.107  32.520  14.882
41866W        W 8275  15.776  17.289  11.633
41867W        W 8276  35.240  34.145  14.903
41868W        W 8277  10.791   6.657  12.714
41869W        W 8278  20.640  32.810  10.698
41870W        W 8279  25.044   0.465   1.763
41871W        W 8280  12.887  17.755  13.962
41872W        W 8281  30.395   7.819  13.849
41873W        W 8282  42.992  16.245  12.763
41874W        W 8283   2.815  23.185   2.465
41875W        W 8284  43.067   1.416  14.195
41876W        W 8285  37.857  15.139   3.970
41877W        W 8286  12.607  24.244   1.577
41878W        W 8287   3.823   1.977   0.501
41879W        W 8288  32.138  31.439  11.607
41880W        W 8289   6.714  17.715   4.553
41881W        W 8290  41.317   0.508   1.378
41882W        W 8291  23.963  26.953   4.206
41883W        W 8292   6.060  42.862   4.179
41884W        W 8293  18.185   3.485   2.386
41885W        W 8294   9.377  13.185  12.914
41886W        W 8295   1.191  11.193  10.798
41887W        W 8296  26.605  36.340  11.572
41888W        W 8297   0.174  28.986  14.880
41889W        W 8298  37.168  33.779  12.064
41890W        W 8299  41.225   4.438  10.805
41891W        W 8300  29.874  25.650   3.227
41892W        W 8301   9.891  18.888  13.861
41893W        W 8302  24.352  27.248  12.541
41894W        W 8303  14.266  30.025   2.158
41895W        W 8304   9.098  11.354  10.612
41896W        W 8305  35.283  22.560   4.858
41897W        W 8306  36.013  36.345  12.510
41898W        W 8307  31.803  17.494   1.302
41899W        W 8308  15.138  42.427  14.755
41900W        W 8309  42.359   8.763  13.862
41901W        W 8310  13.712  29.200   0.783
41902W        W 8311   2.402  32.039   0.297
41903W        W 8312   7.760   9.611   0.987
41904W        W 8313  33.391  40.283   3.244
41905W        W 8314  39.367   5.946   2.231
41906W        W 8315  38.861   4.890  11.889
41907W        W 8316  18.809   0.729   3.833
41908W        W 8317  30.036  29.673  14.413
41909W        W 8318  35.993   6.404  13.849
41910W        W 8319  19.297  33.119   3.638
41911W        W 8320   0.719  35.581   3.971
41912W        W 8321  25.493  21.980  13.934
41913W        W 8322   1.019  22.175  10.366
41914W        W 8323  42.983  35.582  11.993
41915W        W 8324  32.718  19.183  14.960
41916W        W 8325  29.120   8.126  10.719
41917W        W 8326   9.399  10.599  11.771
41918W        W 8327  20.751  41.910  12.182
41919W        W 8328  32.749   8.342   1.434
41920W        W 8329  30.543  26.100  10.647
41921W        W 8330   7.884  21.990   2.927
41922W        W 8331   3.031   1.338  13.886
41923W        W 8332  20.473  19.552   0.061
41924W        W 8333   5.668  11.674  12.049
41925W        W 8334   9.746  28.337   2.734
41926W        W 8335  23.070  44.313  10.176
41927W        W 8336  44.999  38.344  12.892
41928W        W 8337   7.579  32.026   1.337
41929W        W 8338  40.331  36.764   4.692
41930W        W 8339   5.274  37.923   1.318
41931W        W 8340  15.062  31.508   2.791
41932W        W 8341  37.233  12.763  10.457
41933W        W 8342  21.200  32.489  12.919
41934W        W 8343   7.923  25.597   1.341
41935W        W 8344  19.707  22.374  13.813
41936W        W 8345   3.253  40.991   1.360
41937W        W 8346  36.504   7.651   4.599
41938W        W 8347  19.279   5.186  11.166
41939W        W 8348   7.645  25.139   1.253
41940W        W 8349  23.027  27.837  12.314
41941W        W 8350  44.614  42.414  11.505
41942W        W 8351   5.177   4.316   0.698
41943W        W 8352  21.568  30.977  13.620
41944W        W 8353  25.571  14.532  14.298
41945W        W 8354  31.889  28.696  14.835
41946W        W 8355  13.569  26.636   3.210
41947W        W 8356  29.065  12.073  10.760
41948W        W 8357   6.799   9.068  11.991
41949W        W 8358   4.132  37.899   3.214
41950W        W 8359  41.547   6.376  14.263
41951W        W 8360  34.319  12.699   1.299
41952W        W 8361  22.066  36.977   0.401
41953W        W 8362  43.276  40.653  11.074
41954W        W 8363  38.018  12.874  12.131
41955W        W 8364  37.024  17.552  12.919
41956W        W 8365  17.758  44.915  13.536
41957W        W 8366  34.595  18.780   0.486
41958W        W 8367  14.612  41.594  12.931
41959W        W 8368   6.037  22.118   3.150
41960W        W 8369  13.682  12.898   4.242
41961W        W 8370  44.895  25.725  10.729
41962W        W 8371  32.624  24.622  13.486
41963W        W 8372  15.627   7.368  13.385
41964W        W 8373   8.388   9.282  14.793
41965W        W 8374  38.355   4.915  12.815
41966W        W 8375  28.541  19.333  12.608
41967W        W 8376  31.007   3.337  12.951
41968W        W 8377  27.903  30.588  13.929
41969W        W 8378  40.007   2.496  12.478
41970W        W 8379   0.300   8.313   2.327
41971W        W 8380  20.989  42.202   2.070
41972W        W 8381   7.120  29.911  11.825
41973W        W 8382  17.575  39.378  12.510
41974W        W 8383   7.852   7.801   3.890
41975W        W 8384  29.407  32.395  10.748
41976W        W 8385  25.638   6.708   0.482
41977W        W 8386  30.953  34.873  12.858
41978W        W 8387  11.222  24.702   2.731
41979W        W 8388  44.850  34.140  10.777
41980W        W 8389   6.417  15.254  10.373
41981W        W 8390   9.295  30.570   1.365
41982W        W 8391   8.840  21.280  13.020
41983W        W 8392  23.426  26.095   0.337
41984W        W 8393  10.212   4.783   0.550
41985W        W 8394  30.294   0.058  13.849
41986W        W 8395  13.156  35.467   3.142
41987W        W 8396  31.152  25.610   4.108
41988W        W 8397  15.295  18.325  12.563
41989W        W 8398  20.648  21.226  14.970
41990W        W 8399  25.709  18.728  10.467
41991W        W 8400  15.605  17.235   1.295
41992W        W 8401  16.275  17.681  13.079
41993W        W 8402  16.102  41.864  13.382
41994W        W 8403  31.917  22.739   0.043
41995W        W 8404  13.214  25.757  11.640
41996W        W 8405  25.971  31.984  10.582
41997W        W 8406  32.962  44.776  13.511
41998W        W 8407  15.652  30.472   4.100
41999W        W 8408  22.560  15.362  10.529
42000W        W 8409  17.586  39.427  11.046
42001W        W 8410  39.880   9.205   9.801
42002W        W 8411  17.019  16.115   3.199
42003W        W 8412  43.055  26.269  14.875
42004W        W 8413  22.141  12.543  12.169
42005W        W 8414  23.036   1.353  14.936
42006W        W 8415  20.337  18.481  14.274
42007W        W 8416   4.863   0.557   2.337
42008W        W 8417  29.162   1.700  13.383
42009W        W 8418  12.926  41.967   4.331
42010W        W 8419  30.126   8.410  10.502
42011W        W 8420   2.253  24.554   2.229
42012W        W 8421  15.022  25.002  12.914
42013W        W 8422   4.597   8.323  13.008
42014W        W 8423  37.262   8.949   4.290
42015W        W 8424  12.403  32.237   0.408
42016W        W 8425   8.886  41.126   4.493
42017W        W 8426  32.429  11.564   0.790
42018W        W 8427  41.057   4.922  10.724
42019W        W 8428  42.820  40.578  10.112
42020W        W 8429  28.163  42.910  14.047
42021W        W 8430   7.098  23.646  14.576
42022W        W 8431  21.049  27.689   3.297
42023W        W 8432  19.915   0.705  13.037
42024W        W 8433  43.356  30.972  11.376
42025W        W 8434   1.754   7.415   3.741
42026W        W 8435   4.299  10.419   0.331
42027W        W 8436  20.968  30.658   4.992
42028W        W 8437  22.156  21.291  14.872
42029W        W 8438  32.010  10.667  11.592
42030W        W 8439   0.370  10.707  12.868
42031W        W 8440  26.961  21.955  12.057
42032W        W 8441  11.880  33.867  13.910
42033W        W 8442  16.301  15.150   2.155
42034W        W 8443   4.538  25.755   4.084
42035W        W 8444  10.690  21.526  12.577
42036W        W 8445  34.363   7.312  14.502
42037W        W 8446   1.415  15.021  12.034
42038W        W 8447  44.759  16.105   0.923
42039W        W 8448  30.476   8.084  13.414
42040W        W 8449  38.360  39.033   0.825
42041W        W 8450   8.224   8.356  11.801
42042W        W 8451  30.872  14.202   2.818
42043W        W 8452  21.518  21.407  10.353
42044W        W 8453  41.735   6.320   3.814
42045W        W 8454  29.700  34.531  12.607
42046W        W 8455  10.838  19.036  11.548
42047W        W 8456  19.277  26.525  13.023
42048W        W 8457  36.351  28.020   4.412
42049W        W 8458   9.360   7.563  11.374
42050W        W 8459  22.784   6.230   2.630
42051W        W 8460  10.831  30.490   5.301
42052W        W 8461  30.598  43.458  10.448
42053W        W 8462  43.843  32.947   0.700
42054W        W 8463   2.345   2.944  14.220
42055W        W 8464   0.738  32.076  12.122
42056W        W 8465  29.540  17.278   3.688
42057W        W 8466   0.777  14.370   4.633
42058W        W 8467  24.998  39.406  14.065
42059W        W 8468  13.117  10.614  13.455
42060W        W 8469  32.969  34.083  10.737
42061W        W 8470  26.765   6.221  11.629
42062W        W 8471   0.590  11.220  13.935
42063W        W 8472  23.064   7.651  12.059
42064W        W 8473  29.677  13.060  14.803
42065W        W 8474  38.433  28.159  10.751
42066W        W 8475  25.717  36.415  13.452
42067W        W 8476  44.842  27.919   4.783
42068W        W 8477  33.339  43.250  11.222
42069W        W 8478   4.350  13.559   4.134
42070W        W 8479   8.681  28.205  14.332
42071W        W 8480  18.291   3.970   2.579
42072W        W 8481  29.564   2.279   2.724
42073W        W 8482  28.466  36.355   2.780
42074W        W 8483   8.830  25.007   1.956
42075W        W 8484  11.378  40.381   0.747
42076W        W 8485  13.625  27.162  13.103
42077W        W 8486  41.847  39.700  11.389
42078W        W 8487  17.597   9.305   2.735
42079W        W 8488  14.355  23.640  14.071
42080W        W 8489   1.421  22.502  13.117
42081W        W 8490  39.451  34.139   3.377
42082W        W 8491  18.129   6.864   3.644
42083W        W 8492  33.566  24.591   0.348
42084W        W 8493   0.197   5.738  11.113
42085W        W 8494   7.937  18.185   1.323
42086W        W 8495  36.810  10.083  13.732
42087W        W 8496   8.706  21.535   1.665
42088W        W 8497  15.942  14.064  14.378
42089W        W 8498  42.538  39.242  12.992
42090W        W 8499  35.415   9.839   1.688
42091W        W 8500  27.567  14.724  14.526
42092W        W 8501  20.334  41.845  10.563
42093W        W 8502   5.919  17.317  14.903
42094W        W 8503  35.092  37.362   5.043
42095W        W 8504  35.117  28.562  14.584
42096W        W 8505  26.310  17.818   0.778
42097W        W 8506  41.437  21.570   4.739
42098W        W 8507  20.923   5.352   1.011
42099W        W 8508  28.663  33.364   3.232
42100W        W 8509  15.019   5.829   4.548
42101W        W 8510  39.368  14.341  14.044
42102W        W 8511  19.675  43.904   0.065
42103W        W 8512  42.960  44.172   1.420
42104W        W 8513   1.107  23.938  13.986
42105W        W 8514  36.408  14.714   0.536
42106W        W 8515  44.241  19.456   4.625
42107W        W 8516  44.354  12.706  13.501
42108W        W 8517  33.125  21.270   2.129
42109W        W 8518  19.844  37.837  13.959
42110W        W 8519  35.894   2.015   3.602
42111W        W 8520   5.417  26.632  11.440
42112W        W 8521   3.968   4.291  14.738
42113W        W 8522   3.874   4.938  13.471
42114W        W 8523  34.087  36.228   1.424
42115W        W 8524  24.284  19.229  14.949
42116W        W 8525  16.985   9.178   0.482
42117W        W 8526   9.811  31.978  11.265
42118W        W 8527  15.269   6.669   2.156
42119W        W 8528  38.073  41.856   4.877
42120W        W 8529  38.227  15.530  10.541
42121W        W 8530  18.274  36.430   4.734
42122W        W 8531  12.599  33.423   2.296
42123W        W 8532  40.332  10.326   1.727
42124W        W 8533   1.292  15.182   4.729
42125W        W 8534   9.299   9.708   3.514
42126W        W 8535  35.870  35.479   4.346
42127W        W 8536   5.622  25.546   0.715
42128W        W 8537  35.226   0.389   1.640
42129W        W 8538  31.619  44.571   3.138
42130W        W 8539  43.561   2.182   4.152
42131W        W 8540  43.063  27.913  13.823
42132W        W 8541  15.049  29.761  13.870
42133W        W 8542   7.218   1.382  11.514
42134W        W 8543  21.296  21.951   1.657
42135W        W 8544  26.727  18.548  10.533
42136W        W 8545  22.339   0.767  13.560
42137W        W 8546  18.784  39.102  13.925
42138W        W 8547   7.388  44.928   1.182
42139W        W 8548  44.208  28.590   0.193
42140W        W 8549   3.415   5.428   0.268
42141W        W 8550  38.900  30.114  12.511
42142W        W 8551  27.010  36.746   4.240
42143W        W 8552  27.199  44.868   2.455
42144W        W 8553  16.082  12.664  10.547
42145W        W 8554  35.405  36.554   4.574
42146W        W 8555  19.392  31.738  13.376
42147W        W 8556  26.619  36.862   1.859
42148W        W 8557  22.617   3.139   3.390
42149W        W 8558  29.391  23.561  14.892
42150W        W 8559  27.294   6.777   2.239
42151W        W 8560   6.150  14.309  14.274
42152W        W 8561  25.700   7.861   0.963
42153W        W 8562  26.276  36.572   0.001
42154W        W 8563  18.823  34.534   4.578
42155W        W 8564  15.659   2.629   0.206
42156W        W 8565  11.193  10.432  13.369
42157W        W 8566  22.100  17.601  13.401
42158W        W 8567  35.074  21.557   3.157
42159W        W 8568   1.928   6.335  12.211
42160W        W 8569  29.545  20.475  14.568
42161W        W 8570  39.343   8.681   4.360
42162W        W 8571  19.517  29.703   1.659
42163W        W 8572  26.232  34.189   1.231
42164W        W 8573  14.890  22.278  13.736
42165W        W 8574  32.882   1.425  12.967
42166W        W 8575  44.402   2.761   0.683
42167W        W 8576  18.759  10.702  10.939
42168W        W 8577  32.036  12.623   3.874
42169W        W 8578  21.728  21.611  11.647
42170W        W 8579  35.920  16.130  12.529
42171W        W 8580  43.522  15.516   4.940
42172W        W 8581  38.447  29.820   4.647
42173W        W 8582  37.989  20.500  12.069
42174W        W 8583  32.394   2.366   0.023
42175W        W 8584  41.403  16.162  10.408
42176W        W 8585   2.403  34.185  12.024
42177W        W 8586  33.088  38.851   3.349
42178W        W 8587   1.496  40.496   1.273
42179W        W 8588   2.295   9.411   1.189
42180W        W 8589  21.516   6.247   4.845
42181W        W 8590  15.027  44.414   2.799
42182W        W 8591  21.132  23.633  13.363
42183W        W 8592  29.577  31.459  14.908
42184W        W 8593  20.103  26.659   1.501
42185W        W 8594  35.588  30.971  11.205
42186W        W 8595  17.708  29.185   1.755
42187W        W 8596   0.498  35.395  12.014
42188W        W 8597  28.045  42.928   0.903
42189W        W 8598  22.526   9.393  10.646
42190W        W 8599  35.673  16.070   1.771
42191W        W 8600   6.529  23.475  12.907
42192W        W 8601  38.257  40.586  12.993
42193W        W 8602  40.109  26.465  14.269
42194W        W 8603  27.976  26.078   3.128
42195W        W 8604  22.167  12.214  10.693
42196W        W 8605  22.087  12.285   1.336
42197W        W 8606  32.424  43.799   0.872
42198W        W 8607   2.863  19.183   0.981
42199W        W 8608   0.487  21.666   3.961
42200W        W 8609  21.636  12.194  10.601
42201W        W 8610   6.362  35.382   1.436
42202W        W 8611  15.272  41.595   0.497
42203W        W 8612  12.143  28.992   4.197
42204W        W 8613  18.240  22.158   1.804
42205W        W 8614  38.973  29.443  10.689
42206W        W 8615  17.096  20.775  11.621
42207W        W 8616  33.638  15.381   2.210
42208W        W 8617  40.272   0.402  13.401
42209W        W 8618   6.786   7.436  13.333
42210W        W 8619  21.319   6.215  12.309
42211W        W 8620  31.018  34.695   4.318
42212W        W 8621  27.992  38.379  14.327
42213W        W 8622  14.965   1.231  13.588
42214W        W 8623   5.317   4.226  12.530
42215W        W 8624  20.558  36.596   0.732
42216W        W 8625  43.040  28.086   1.375
42217W        W 8626   3.669   4.861   2.133
42218W        W 8627  29.491  30.009  11.450
42219W        W 8628  27.549  34.590   0.673
42220W        W 8629  11.046   8.287   2.779
42221W        W 8630  15.049   2.234   5.769
42222W        W 8631  38.388  24.014   3.791
42223W        W 8632   5.237  43.895   3.645
42224W        W 8633   5.555  24.507   0.409
42225W        W 8634  28.764  29.158   0.809
42226W        W 8635  10.142  19.736  13.871
42227W        W 8636  43.093  20.625   0.837
42228W        W 8637  20.670   0.205  13.493
42229W        W 8638  13.470  34.894  13.846
42230W        W 8639  40.945  36.941  13.824
42231W        W 8640  18.520   1.231  12.920
42232W        W 8641  23.267   8.407  12.970
42233W        W 8642  31.584  31.194   3.274
42234W        W 8643  44.197   4.759  14.867
42235W        W 8644  26.931  36.327  14.096
42236W        W 8645  36.807  44.775  12.540
42237W        W 8646   0.009  35.420   3.142
42238W        W 8647   3.163  19.645   3.236
42239W        W 8648  38.918   7.369   1.825
42240W        W 8649  33.851   7.452   0.927
42241W        W 8650  30.845  36.811  11.153
42242W        W 8651  34.940  11.122   0.310
42243W        W 8652  16.316  20.036   0.372
42244W        W 8653  16.422   2.675  11.720
42245W        W 8654  24.661  22.857  14.990
42246W        W 8655  19.009  38.870   0.322
42247W        W 8656  43.533   8.703  12.057
42248W        W 8657   4.747   8.437  10.991
42249W        W 8658  11.813  40.929  11.230
42250W        W 8659  14.567  32.861   1.696
42251W        W 8660  18.099  41.535   4.480
42252W        W 8661   4.021  27.555   1.339
42253W        W 8662  40.016   6.059   1.181
42254W        W 8663  31.942  17.869  12.015
42255W        W 8664  37.388  14.084   2.299
42256W        W 8665   0.768  11.821   4.705
42257W        W 8666  27.150  44.242  14.403
42258W        W 8667  38.122  26.709  11.670
42259W        W 8668  20.064  17.848   4.491
42260W        W 8669   1.139  22.765  10.886
42261W        W 8670   8.927  43.492  13.819
42262W        W 8671  30.296  40.436  11.213
42263W        W 8672  15.809  19.714  12.149
42264W        W 8673   2.446  41.515  13.004
42265W        W 8674   1.006  29.640  11.989
42266W        W 8675  16.087  35.430  14.309
42267W        W 8676  28.158  35.595  12.508
42268W        W 8677   3.296  24.985   2.743
42269W        W 8678   1.971  24.798  11.519
42270W        W 8679  22.173  30.506  14.739
42271W        W 8680   7.914   6.620   0.926
42272W        W 8681  10.781  22.754   0.432
42273W        W 8682  22.209  18.594   3.284
42274W        W 8683  30.318  25.196   1.869
42275W        W 8684   5.734  15.240   0.224
42276W        W 8685   2.378  13.376  12.119
42277W        W 8686   7.717  37.539   3.194
42278W        W 8687   4.853  39.104   2.761
42279W        W 8688  32.928  41.052  12.576
42280W        W 8689  27.101  30.710   5.016
42281W        W 8690  36.193  17.317   0.639
42282W        W 8691  20.069  31.797  11.235
42283W        W 8692  44.785  14.371  11.159
42284W        W 8693  22.729  13.108   3.594
42285W        W 8694  34.379  18.129  12.128
42286W        W 8695   3.399  19.859  11.173
42287W        W 8696  21.155  18.633   4.551
42288W        W 8697   7.271  13.672  13.955
42289W        W 8698  43.687  10.170   2.876
42290W        W 8699  39.431   1.311  12.482
42291W        W 8700  19.129  40.531  14.597
42292W        W 8701  10.365  24.898   0.306
42293W        W 8702  18.105  23.555   1.793
42294W        W 8703  31.682   3.634   0.915
42295W        W 8704  13.560  15.696  13.630
42296W        W 8705  25.080  33.893   2.248
42297W        W 8706   3.350  31.929  13.979
42298W        W 8707  21.981  22.699   2.163
42299W        W 8708  37.276  19.493   2.797
42300W        W 8709  38.390   0.325  12.074
42301W        W 8710  30.096  23.074   1.186
42302W        W 8711   6.755  12.045  11.677
42303W        W 8712   8.851   1.569  12.974
42304W        W 8713  39.880  44.734  11.105
42305W        W 8714  19.140   1.159  13.316
42306W        W 8715  34.820  39.646   0.399
42307W        W 8716  43.465  20.878   1.236
42308W        W 8717  20.125  41.534   1.785
42309W        W 8718  16.056   9.210  13.539
42310W        W 8719   7.801  30.879   1.883
42311W        W 8720  17.324  43.428  14.961
42312W        W 8721  21.685  23.469  11.517
42313W        W 8722  43.759  41.983   2.758
42314W        W 8723  30.118  31.384   1.956
42315W        W 8724  16.585   0.319  12.534
42316W        W 8725  14.921   0.135   5.360
42317W        W 8726   7.388  30.129   0.079
42318W        W 8727  43.311  16.756  13.441
42319W        W 8728  33.539   9.638  11.130
42320W        W 8729  31.919   6.282  13.056
42321W        W 8730  18.581   3.622   0.743
42322W        W 8731  13.919  12.608  12.785
42323W        W 8732   7.827  20.497  13.290
42324W        W 8733  22.061  20.055  11.100
42325W        W 8734  40.713  40.853   2.304
42326W        W 8735  13.217   7.159  13.370
42327W        W 8736  44.404  26.739   4.287
42328W        W 8737  36.900   3.287  11.310
42329W        W 8738  35.568  27.636   2.183
42330W        W 8739   7.772  44.786  10.509
42331W        W 8740  28.374  44.767   0.983
42332W        W 8741  29.999  43.483  13.185
42333W        W 8742  19.793  21.326  11.074
42334W        W 8743  24.550   5.501   0.436
42335W        W 8744   3.140  22.498  12.426
42336W        W 8745  10.342  23.144  11.675
42337W        W 8746   5.378  43.212   3.326
42338W        W 8747  41.962  24.952  13.309
42339W        W 8748  23.906   5.831   0.932
42340W        W 8749   7.984   4.675   4.519
42341W        W 8750  10.396  14.827   3.394
42342W        W 8751  14.425  20.688  12.510
42343W        W 8752   9.348  38.585   1.871
42344W        W 8753  33.095  24.766  11.048
42345W        W 8754  24.050  28.540   3.644
42346W        W 8755  42.848  10.042   0.404
42347W        W 8756  43.028  27.948   2.696
42348W        W 8757  30.932   3.634  14.616
42349W        W 8758  28.757  36.914  14.809
42350W        W 8759  34.972  30.967  13.893
42351W        W 8760  28.037  11.900   5.003
42352W        W 8761  15.761  16.713   1.268
42353W        W 8762  14.912   6.945  10.564
42354W        W 8763  25.378   1.790   0.972
42355W        W 8764  13.087  23.449   0.443
42356W        W 8765  23.967   3.509  14.744
42357W        W 8766  36.630  38.756  13.901
42358W        W 8767   3.970  20.564   2.795
42359W        W 8768   3.285   2.016  13.445
42360W        W 8769  35.424   2.765  11.165
42361W        W 8770  30.954   4.341  12.967
42362W        W 8771  14.135  20.068  13.743
42363W        W 8772  39.726  24.592   1.400
42364W        W 8773  35.820  33.073  13.389
42365W        W 8774  30.340  21.544  12.770
42366W        W 8775  36.646   1.234   3.707
42367W        W 8776  13.200  33.366  11.926
42368W        W 8777  32.620   5.920  12.152
42369W        W 8778  20.568  41.215  14.868
42370W        W 8779  28.980  26.175   4.615
42371W        W 8780  30.391   3.808  13.587
42372W        W 8781  42.020  25.936   2.691
42373W        W 8782  41.005  16.046  14.870
42374W        W 8783  19.778  13.161   4.106
42375W        W 8784  28.521  13.161   1.404
42376W        W 8785   2.700  33.463  13.019
42377W        W 8786  25.882  37.336  11.126
42378W        W 8787  28.592   0.972   3.856
42379W        W 8788  39.397  36.024   1.314
42380W        W 8789  26.153  44.839  13.016
42381W        W 8790  31.097  35.813  14.844
42382W        W 8791  18.983  26.718  10.800
42383W        W 8792   6.608  33.581  10.011
42384W        W 8793  35.516  41.602  11.119
42385W        W 8794  10.186  41.847  10.714
42386W        W 8795  12.820  25.286   1.500
42387W        W 8796  42.284  19.740  10.955
42388W        W 8797  35.029  37.171  14.298
42389W        W 8798  32.631  44.080   1.274
42390W        W 8799  12.711  37.304   4.193
42391W        W 8800  10.705   6.407   4.374
42392W        W 8801  38.309  34.375   4.402
42393W        W 8802   4.746  25.442  11.991
42394W        W 8803  32.001  22.221   0.034
42395W        W 8804  38.449  29.946   2.147
42396W        W 8805  29.225  14.676  12.599
42397W        W 8806  16.222   0.960   4.108
42398W        W 8807  26.580  26.882   3.999
42399W        W 8808   0.285  14.923   2.037
42400W        W 8809  32.326  39.732   0.769
42401W        W 8810  42.115  15.175  11.465
42402W        W 8811   6.340  22.969  14.893
42403W        W 8812   9.397   7.119   0.503
42404W        W 8813  25.289  25.172   0.264
42405W        W 8814  33.948  29.036  14.939
42406W        W 8815  16.005  17.757  10.902
42407W        W 8816  25.776  32.707   2.255
42408W        W 8817  25.344  24.582   4.944
42409W        W 8818   8.742  11.586  12.824
42410W        W 8819  23.937  44.389   2.546
42411W        W 8820  10.926  34.626  11.983
42412W        W 8821  36.086   2.936  13.458
42413W        W 8822   0.169   5.231   3.140
42414W        W 8823  39.367   4.671  11.182
42415W        W 8824  18.568  18.351  10.412
42416W        W 8825   7.704   7.931   1.374
42417W        W 8826   8.088   1.038   3.649
42418W        W 8827  12.304  15.526   0.081
42419W        W 8828  10.902  41.114   0.255
42420W        W 8829  14.780  10.711  12.865
42421W        W 8830  21.199  39.452  13.811
42422W        W 8831   8.156  27.105   3.366
42423W        W 8832   4.673  13.172  13.798
42424W        W 8833  27.443  24.106   0.052
42425W        W 8834   3.529  22.220  13.143
42426W        W 8835  20.580  42.515   1.887
42427W        W 8836  25.609   0.284  11.254
42428W        W 8837   8.292  34.842  12.445
42429W        W 8838  15.575   1.368   0.921
42430W        W 8839  41.710  34.669  12.654
42431W        W 8840   9.797  13.270   4.112
42432W        W 8841  11.554  28.062   2.356
42433W        W 8842  35.586   2.202   0.909
42434W        W 8843  33.531  35.436   3.424
42435W        W 8844  14.813   9.393   2.268
42436W        W 8845  41.955  19.135  14.969
42437W        W 8846  31.655  27.551  10.659
42438W        W 8847  22.753  20.050   4.170
42439W        W 8848  42.040  14.824   1.300
42440W        W 8849   1.228  39.445  13.531
42441W        W 8850  21.573  35.971  11.214
42442W        W 8851  28.609  21.464  14.976
42443W        W 8852  15.636   7.923   0.301
42444W        W 8853   4.871  19.577   3.823
42445W        W 8854  30.181  30.546  13.473
42446W        W 8855  18.611  34.445  14.892
42447W        W 8856  26.606  43.345  14.509
42448W        W 8857  40.483  23.636  12.485
42449W        W 8858  13.276  14.645   1.903
42450W        W 8859   7.693  16.710   0.382
42451W        W 8860  43.670  21.302  11.532
42452W        W 8861  11.175   5.667   0.479
42453W        W 8862  19.548  36.280   3.361
42454W        W 8863  16.553  44.804  12.399
42455W        W 8864  34.976   7.896   0.031
42456W        W 8865  43.497  23.287  14.277
42457W        W 8866  23.180  24.648   4.446
42458W        W 8867  38.917   3.234   4.601
42459W        W 8868  26.089  29.272  13.075
42460W        W 8869  32.122  14.963  11.510
42461W        W 8870   2.831  39.982  11.286
42462W        W 8871  29.443   5.865   1.481
42463W        W 8872  23.356  39.978   0.414
42464W        W 8873  15.549   9.720  11.260
42465W        W 8874  31.451  42.482   2.291
42466W        W 8875   0.109  18.838  13.385
42467W        W 8876  11.830  39.537   3.692
42468W        W 8877  37.408  15.258   4.176
42469W        W 8878   7.403   7.319  14.738
42470W        W 8879  29.392  24.705  12.848
42471W        W 8880  30.399  16.673   0.376
42472W        W 8881  32.036   7.542   1.063
42473W        W 8882  35.538  25.931   2.883
42474W        W 8883  40.472  21.459  13.503
42475W        W 8884   9.673  10.685   3.733
42476W        W 8885  43.270  32.587   1.911
42477W        W 8886  25.012  27.594   3.812
42478W        W 8887   3.496  11.670   2.458
42479W        W 8888  13.344   8.311  14.219
42480W        W 8889  41.106   3.247  12.458
42481W        W 8890  24.594  14.270   3.030
42482W        W 8891  39.031   5.584  13.988
42483W        W 8892  10.084  10.576  11.036
42484W        W 8893   8.409  35.287   2.332
42485W        W 8894  43.051  16.848   2.712
42486W        W 8895   7.860  35.844  13.016
42487W        W 8896   6.718  37.861  11.960
42488W        W 8897  19.700  33.595   0.057
42489W        W 8898  40.084  36.773  13.754
42490W        W 8899  39.306  24.258  12.093
42491W        W 8900   3.323   0.762  10.965
42492W        W 8901  17.234   9.720   0.352
42493W        W 8902  22.147   2.374   3.170
42494W        W 8903  19.100  18.034  12.476
42495W        W 8904  40.249  41.767   4.124
42496W        W 8905   4.794   3.485  13.030
42497W        W 8906  29.809  16.529   0.372
42498W        W 8907  22.621  29.025  11.434
42499W        W 8908  37.181   7.422  10.368
42500W        W 8909  29.684  44.892  12.581
42501W        W 8910   9.785  30.036   2.770
42502W        W 8911   9.105  17.336   4.215
42503W        W 8912  33.898  18.139   4.291
42504W        W 8913  15.698  12.059  13.967
42505W        W 8914  15.115  28.633  10.723
42506W        W 8915  17.760  43.453  12.470
42507W        W 8916   2.262   1.243   0.215
42508W        W 8917  35.424  43.539   3.191
42509W        W 8918   9.400  10.209   3.667
42510W        W 8919  20.588   2.445  12.948
42511W        W 8920  44.923   0.015  11.557
42512W        W 8921  15.328  11.181  12.659
42513W        W 8922  15.309  11.702  12.487
42514W        W 8923  26.800   2.337   2.944
42515W        W 8924  14.671   7.839   4.696
42516W        W 8925   3.127   1.487   2.573
42517W        W 8926  32.076  11.688   1.176
42518W        W 8927  32.121  20.740   3.501
42519W        W 8928  23.190   4.357   0.874
42520W        W 8929  14.627  14.061   1.343
42521W        W 8930  13.265  15.263   4.625
42522W        W 8931   4.855  15.196  10.468
42523W        W 8932  22.214  28.237   4.536
42524W        W 8933  28.333  28.580  13.313
42525W        W 8934   7.787  28.542  13.927
42526W        W 8935  39.033  30.036  13.551
42527W        W 8936  27.910   7.125  10.605
42528W        W 8937   1.869  19.145   2.945
42529W        W 8938  41.439  43.430   3.796
42530W        W 8939   4.934  34.944   0.407
42531W        W 8940   5.543  13.143  12.426
42532W        W 8941  20.503  18.239  14.811
42533W        W 8942  33.695  24.015   3.295
42534W        W 8943  10.374  35.077  13.553
42535W        W 8944  21.671   3.667   1.197
42536W        W 8945  18.068  40.133  14.457
42537W        W 8946  39.315  44.370   1.423
42538W        W 8947  39.339   9.900   2.863
42539W        W 8948  33.944  43.301   1.449
42540W        W 8949   4.450  43.364  11.766
42541W        W 8950   2.492   3.028   4.814
42542W        W 8951  42.765   4.637   1.641
42543W        W 8952  10.338  37.082   5.560
42544W        W 8953   6.095  35.885   1.711
42545W        W 8954  24.451   1.725  11.539
42546W        W 8955  36.808   3.381   1.326
42547W        W 8956  17.319   7.895   0.041
42548W        W 8957  36.076  24.817   5.232
42549W        W 8958   6.702  41.293   3.741
42550W        W 8959  42.983  27.643  14.274
42551W        W 8960  18.255  37.575   3.652
42552W        W 8961  11.093  38.593  14.058
42553W        W 8962  11.408   0.349  12.949
42554W        W 8963   7.614  37.037   1.382
42555W        W 8964  25.724  25.259   5.198
42556W        W 8965   3.373  11.407  12.685
42557W        W 8966  11.638   3.187   1.691
42558W        W 8967  37.814  42.525  14.786
42559W        W 8968  38.295  40.055  14.317
42560W        W 8969  33.650  27.687   4.500
42561W        W 8970  12.614  42.296   4.040
42562W        W 8971  18.579   8.286  14.099
42563W        W 8972  17.970  32.440  14.056
42564W        W 8973  17.618  42.952  12.548
42565W        W 8974   9.336  14.541  14.894
42566W        W 8975  27.476  30.367   4.996
42567W        W 8976   9.489   7.387   0.016
42568W        W 8977  41.437  38.779  13.428
42569W        W 8978  15.919  38.802  13.295
42570W        W 8979  22.044   5.350  11.841
42571W        W 8980  21.104  33.539  10.505
42572W        W 8981   7.749  14.602  10.468
42573W        W 8982  40.003  20.325   1.452
42574W        W 8983  28.361   5.314  14.801
42575W        W 8984  29.455  32.986  14.878
42576W        W 8985   4.432  21.524   0.819
42577W        W 8986  22.435  11.346   2.297
42578W        W 8987  36.294  35.154   3.693
42579W        W 8988  20.955  17.862  14.118
42580W        W 8989  39.756  14.149   2.318
42581W        W 8990   2.024  37.498  13.980
42582W        W 8991   3.436  18.554   1.221
42583W        W 8992  33.464  32.446   2.332
42584W        W 8993  44.379  36.886  12.013
42585W        W 8994  43.441  18.247  12.686
42586W        W 8995  42.989  37.003   1.379
42587W        W 8996  34.008  30.558  11.542
42588W        W 8997  43.757  16.246   3.888
42589W        W 8998  38.147  12.464   3.762
42590W        W 8999  11.872   9.623   2.788
42591W        W 9000  43.981  29.753  12.012
42592W        W 9001  24.090  34.114  11.708
42593W        W 9002  20.440  15.722  13.914
42594W        W 9003  10.242  25.307  12.064
42595W        W 9004   0.905  26.020  12.573
42596W        W 9005  24.627  38.604  14.774
42597W        W 9006  22.057  44.346  14.369
42598W        W 9007  32.186  25.693  10.651
42599W        W 9008   4.179  13.663  11.641
42600W        W 9009  19.677  31.808   3.333
42601W        W 9010  18.668  42.899   0.865
42602W        W 9011  24.378  38.932   2.173
42603W        W 9012  21.150  28.699   0.215
42604W        W 9013  33.919  19.844   2.127
42605W        W 9014  35.505  16.136  11.867
42606W        W 9015  20.810  35.932  10.530
42607W        W 9016  37.332  37.545  11.163
42608W        W 9017  15.580   7.344   3.245
42609W        W 9018  37.050  13.607  10.637
42610W        W 9019  37.504  28.175  11.693
42611W        W 9020  15.243  36.820  13.968
42612W        W 9021  18.783  29.115  14.417
42613W        W 9022  33.986   8.940   0.271
42614W        W 9023  21.754  10.646  10.990
42615W        W 9024  40.813  38.820   0.892
42616W        W 9025   6.332  37.990   1.375
42617W        W 9026   7.418  37.808  11.609
42618W        W 9027  35.159   2.370  14.979
42619W        W 9028   0.023  42.911   0.434
42620W        W 9029   4.217   8.919  11.111
42621W        W 9030   0.388  25.417  11.600
42622W        W 9031  23.129  23.600   4.303
42623W        W 9032  44.328  33.012   2.633
42624W        W 9033  31.881  22.536  11.705
42625W        W 9034  18.746  30.461  11.996
42626W        W 9035  25.520  16.772   2.485
42627W        W 9036  30.974  28.059   1.402
42628W        W 9037  34.843  35.832  14.801
42629W        W 9038   8.424  25.552  11.910
42630W        W 9039  38.342  23.758   3.333
42631W        W 9040  37.814   8.419   1.754
42632W        W 9041  40.349  10.037   4.324
42633W        W 9042   9.127  42.909   1.940
42634W        W 9043  18.851  44.306   5.007
42635W        W 9044  11.912  38.357  11.664
42636W        W 9045  22.981  15.232  13.456
42637W        W 9046  11.592   1.526  12.373
42638W        W 9047  40.444   0.616  12.035
42639W        W 9048  13.860  28.724  12.891
42640W        W 9049  22.598  44.351  13.115
42641W        W 9050  21.623  11.732   1.294
42642W        W 9051  14.693  43.781  12.991
42643W        W 9052  43.665  41.122   0.329
42644W        W 9053  42.014  35.374  12.861
42645W        W 9054   3.454  40.766   3.710
42646W        W 9055  14.807   8.855   0.083
42647W        W 9056  34.606   6.606  12.382
42648W        W 9057  12.881   5.287  14.802
42649W        W 9058  29.449  15.739  10.158
42650W        W 9059   3.800  26.984   4.281
42651W        W 9060  14.082  40.361   2.912
42652W        W 9061   9.924   2.807   4.100
42653W        W 9062  15.851  42.416   4.588
42654W        W 9063  14.512  27.083  10.668
42655W        W 9064  11.262  17.210  14.957
42656W        W 9065  25.701  16.797   0.983
42657W        W 9066   1.307  44.038   3.647
42658W        W 9067  35.492  40.593   1.448
42659W        W 9068  39.031  10.655   2.167
42660W        W 9069  42.500  13.605   1.412
42661W        W 9070  41.643  15.393   2.911
42662W        W 9071   6.233  23.484   9.880
42663W        W 9072   0.315  35.080  11.621
42664W        W 9073  31.889  37.791  11.368
42665W        W 9074  36.341  13.488   1.702
42666W        W 9075  29.558  14.560   3.237
42667W        W 9076  31.783  42.322  11.383
42668W        W 9077   9.642  35.723  11.997
42669W        W 9078  23.303  22.055   1.382
42670W        W 9079  18.532  36.935  14.418
42671W        W 9080  35.840   2.281  12.284
42672W        W 9081   4.949   8.253   5.072
42673W        W 9082  35.358  16.040  14.785
42674W        W 9083   6.693  31.597   0.499
42675W        W 9084   8.551   2.182   4.689
42676W        W 9085  40.078  10.946   1.249
42677W        W 9086  34.326  28.699   4.007
42678W        W 9087   7.770  37.552  13.652
42679W        W 9088  39.364  43.073  14.486
42680W        W 9089   9.300   2.205  12.009
42681W        W 9090  24.774  10.254  12.032
42682W        W 9091   0.888  17.627   1.680
42683W        W 9092  26.675  16.937  12.660
42684W        W 9093  14.643  13.327   2.332
42685W        W 9094  27.513  44.713  13.278
42686W        W 9095  35.394  28.435   0.346
42687W        W 9096   4.708  44.392   4.247
42688W        W 9097   2.501   4.273  12.023
42689W        W 9098  44.437   0.372  11.622
42690W        W 9099  28.259  20.622  14.897
42691W        W 9100  32.512  10.737   1.876
42692W        W 9101  25.075   7.860   4.787
42693W        W 9102  28.525  38.089  12.867
42694W        W 9103  22.259  19.117  11.092
42695W        W 9104   0.238  14.537   1.704
42696W        W 9105  14.043  17.537  13.267
42697W        W 9106  18.662  26.863   2.793
42698W        W 9107  17.276  25.088  12.501
42699W        W 9108  27.426  17.186   2.369
42700W        W 9109  15.307   1.009   3.716
42701W        W 9110  35.500  27.882  12.992
42702W        W 9111  39.925   3.474   0.573
42703W        W 9112  38.413  24.254   4.277
42704W        W 9113  43.038  36.783  14.507
42705W        W 9114  12.547  16.836   0.130
42706W        W 9115  43.439  21.064   1.728
42707W        W 9116  33.572  19.317  14.906
42708W        W 9117  24.937   1.369  14.845
42709W        W 9118  20.012  32.090  10.339
42710W        W 9119   2.406  34.396   1.398
42711W        W 9120  31.888   9.913   1.400
42712W        W 9121   1.960  37.162  12.472
42713W        W 9122  40.627  15.243   4.773
42714W        W 9123  30.410  15.623   4.264
42715W        W 9124  11.747  43.939  13.293
42716W        W 9125  16.861  22.469   5.373
42717W        W 9126  26.584  25.226  12.814
42718W        W 9127  20.910  25.394   1.746
42719W        W 9128  12.045  12.381  11.501
42720W        W 9129  41.894  25.373   5.110
42721W        W 9130  20.052  27.599   2.856
42722W        W 9131   9.315  38.645  12.354
42723W        W 9132  27.931  14.243   0.371
42724W        W 9133  13.807  18.683  11.043
42725W        W 9134   1.853  40.238   3.719
42726W        W 9135  24.732  10.143   1.089
42727W        W 9136  20.632  39.325  12.603
42728W        W 9137  34.416  32.451   2.142
42729W        W 9138  15.551  18.536  10.569
42730W        W 9139   8.901   6.387   2.373
42731W        W 9140  30.405  23.269  12.618
42732W        W 9141  19.989  35.404  13.403
42733W        W 9142   9.233   1.406  10.696
42734W        W 9143  27.148  44.207   1.361
42735W        W 9144  15.624  16.214   0.040
42736W        W 9145   3.959  34.103   2.334
42737W        W 9146   6.234  43.438  12.504
42738W        W 9147  20.922  17.207   1.242
42739W        W 9148  13.297  17.508  13.061
42740W        W 9149  39.247  12.641  10.823
42741W        W 9150   5.276   0.518   2.690
42742W        W 9151  16.412   1.357   1.723
42743W        W 9152  17.341  13.130   4.098
42744W        W 9153   1.193   6.723   3.558
42745W        W 9154   5.436  17.780   3.165
42746W        W 9155   7.819  23.158  10.769
42747W        W 9156  21.439   0.769   4.454
42748W        W 9157  34.053   1.751   0.372
42749W        W 9158  19.294   6.476  10.843
42750W        W 9159  42.865  36.150  12.103
42751W        W 9160  20.339  26.341   4.157
42752W        W 9161   1.313  15.840  12.679
42753W        W 9162  21.036  30.334  11.315
42754W        W 9163  25.236  15.532   0.864
42755W        W 9164  44.762  14.264  13.513
42756W        W 9165  13.740   6.335   4.064
42757W        W 9166  33.422   4.471  12.937
42758W        W 9167  22.565  24.509   2.304
42759W        W 9168  24.622  38.110  11.184
42760W        W 9169  32.168  14.928  12.944
42761W        W 9170  22.982  28.622   3.726
42762W        W 9171  23.433  32.195  14.986
42763W        W 9172  19.537  30.452  13.454
42764W        W 9173  32.060  24.373   2.145
42765W        W 9174  16.164  27.663  13.027
42766W        W 9175  11.111  33.436   0.012
42767W        W 9176  28.562   7.663  13.577
42768W        W 9177  31.734  26.583  14.963
42769W        W 9178  36.991  33.521  14.364
42770W        W 9179  18.697  26.948  13.313
42771W        W 9180  33.725  23.179   1.034
42772W        W 9181  27.587  11.929  13.488
42773W        W 9182  18.931  28.052   2.193
42774W        W 9183  41.423   0.419  11.732
42775W        W 9184   3.748  26.410  14.036
42776W        W 9185  12.232  21.621  14.890
42777W        W 9186  12.143   2.455   4.104
42778W        W 9187   6.692   7.670   1.802
42779W        W 9188  14.910  26.918   4.218
42780W        W 9189  28.219  42.277  12.094
42781W        W 9190  14.180   2.240  13.365
42782W        W 9191  14.408  22.235  13.963
42783W        W 9192  19.034  44.186   3.719
42784W        W 9193  31.500  11.397   3.648
42785W        W 9194  39.773  10.208   3.761
42786W        W 9195  28.581  41.904  13.028
42787W        W 9196  27.963  28.917   2.690
42788W        W 9197   7.390  42.527  11.135
42789W        W 9198  23.000  43.098  13.569
42790W        W 9199  37.908  38.890   2.633
42791W        W 9200   3.202  21.201  11.100
42792W        W 9201  14.325  25.219   2.741
42793W        W 9202  41.742   0.002  11.590
42794W        W 9203   5.151  38.057  13.327
42795W        W 9204  13.807  25.456  11.911
42796W        W 9205   8.453   4.428  14.626
42797W        W 9206   9.932   4.902   4.838
42798W        W 9207   5.824  26.269   4.545
42799W        W 9208  42.069   3.225   2.031
42800W        W 9209  13.489  44.913   4.962
42801W        W 9210  23.161  23.036   4.420
42802W        W 9211  27.415  16.908   1.013
42803W        W 9212  16.985  15.182   4.276
42804W        W 9213  18.927  27.621  13.904
42805W        W 9214  11.636  36.454   1.861
42806W        W 9215  11.863  16.284  14.137
42807W        W 9216   7.649  20.302   5.025
42808W        W 9217  36.931  40.360  12.692
42809W        W 9218   1.336  43.369   0.670
42810W        W 9219  43.800  37.587   1.964
42811W        W 9220  37.808  17.598  14.682
42812W        W 9221  18.313   6.412   4.730
42813W        W 9222  33.999  36.408   4.662
42814W        W 9223  22.572  37.156   0.312
42815W        W 9224  34.580  17.536   1.839
42816W        W 9225   7.330  20.209   1.825
42817W        W 9226  11.451  37.877  11.191
42818W        W 9227   9.418  43.554   0.736
42819W        W 9228   3.968   6.335  11.577
42820W        W 9229  24.131  40.765  14.349
42821W        W 9230  12.034  12.818   3.617
42822W        W 9231  16.196  11.422   1.497
42823W        W 9232  16.249   5.678   2.006
42824W        W 9233  34.085  25.207   1.301
42825W        W 9234  26.480  27.415  11.971
42826W        W 9235  28.083  33.905  11.426
42827W        W 9236   0.533  23.280   1.702
42828W        W 9237  44.926  34.479  12.039
42829W        W 9238  33.619  43.945  13.431
42830W        W 9239   6.820  43.513   1.955
42831W        W 9240  13.605  17.167  13.897
42832W        W 9241  21.687  42.368   4.120
42833W        W 9242  30.298  12.667   3.686
42834W        W 9243  16.326  42.167   3.809
42835W        W 9244   0.345  30.461   4.168
42836W        W 9245  33.459  28.849  14.921
42837W        W 9246  29.155  32.960   1.634
42838W        W 9247  19.471  34.470  13.539
42839W        W 9248  28.632  17.354   0.957
42840W        W 9249   7.224  42.985  11.273
42841W        W 9250  15.350  42.063  14.403
42842W        W 9251  37.541  24.426  12.293
42843W        W 9252  24.991   2.164  13.540
42844W        W 9253   4.159  31.851  11.112
42845W        W 9254  20.121  24.446   0.580
42846W        W 9255  20.355  23.741  14.911
42847W        W 9256  44.773  33.811  12.606
42848W        W 9257  13.859  22.668  10.128
42849W        W 9258  23.268  23.240   3.948
42850W        W 9259  24.624  14.180  12.497
42851W        W 9260  27.672  36.679  11.191
42852W        W 9261  36.828   4.946   1.430
42853W        W 9262   9.776  27.181  12.656
42854W        W 9263  33.628   5.297   3.367
42855W        W 9264  34.572  30.078   0.462
42856W        W 9265  18.041  25.566   4.623
42857W        W 9266  22.430  20.604   4.147
42858W        W 9267   7.603  12.772   1.272
42859W        W 9268  23.853   1.330   1.293
42860W        W 9269  12.445  35.365  11.426
42861W        W 9270   9.813   0.528   3.698
42862W        W 9271  18.620  10.041  13.477
42863W        W 9272  35.024  14.358   3.280
42864W        W 9273  22.051  31.107   1.894
42865W        W 9274  17.997  26.417   1.883
42866W        W 9275   0.261  31.017   3.296
42867W        W 9276  26.479  12.669  14.536
42868W        W 9277  10.148  43.407   2.797
42869W        W 9278  31.417  30.532  11.280
42870W        W 9279   7.177  38.250   3.689
42871W        W 9280  39.950  32.176   0.718
42872W        W 9281  27.992  31.957  13.622
42873W        W 9282  32.937  10.746  12.904
42874W        W 9283  20.592  35.601   0.785
42875W        W 9284  10.629   8.860   3.210
42876W        W 9285  43.311  25.684   2.716
42877W        W 9286  23.441   1.030  14.866
42878W        W 9287   2.904  23.650   1.209
42879W        W 9288   8.165   6.888   2.574
42880W        W 9289  26.840  17.110   5.070
42881W        W 9290   6.080  16.823  10.506
42882W        W 9291  12.276  19.516   4.226
42883W        W 9292  39.568   6.030  10.816
42884W        W 9293   1.474   8.662   0.195
42885W        W 9294   0.357   5.677   1.446
42886W        W 9295  12.826  15.839   3.580
42887W        W 9296  13.436   7.404  12.961
42888W        W 9297  20.548  28.477   2.549
42889W        W 9298   1.491   6.358  13.551
42890W        W 9299   2.316  43.521   2.774
42891W        W 9300  20.193  33.879  14.885
42892W        W 9301   2.180  10.350  12.629
42893W        W 9302   9.793  37.980  11.219
42894W        W 9303   0.005  42.218  12.427
42895W        W 9304  30.725  20.428  11.869
42896W        W 9305  44.388   5.241  10.132
42897W        W 9306  17.257  26.973   0.786
42898W        W 9307   7.307  34.642  10.236
42899W        W 9308  41.410   3.943  10.796
42900W        W 9309  28.744  31.627   1.946
42901W        W 9310  34.622   9.123   2.834
42902W        W 9311  15.785  12.184  12.906
42903W        W 9312   8.306   8.478   4.923
42904W        W 9313  44.145  10.829   0.231
42905W        W 9314  24.299  25.682  13.054
42906W        W 9315  10.356  27.166   0.156
42907W        W 9316   9.111  15.194  14.278
42908W        W 9317  19.673  40.304  13.821
42909W        W 9318  29.522   4.579  13.301
42910W        W 9319  15.099  43.987  10.512
42911W        W 9320  39.267  16.292   1.984
42912W        W 9321  28.665  24.782  12.707
42913W        W 9322   2.471  39.113   1.590
42914W        W 9323  31.943  16.125  13.816
42915W        W 9324  44.328  16.341   0.737
42916W        W 9325  26.192  31.695  14.902
42917W        W 9326  33.873  13.434   3.435
42918W        W 9327  25.704   0.954  14.060
42919W        W 9328  40.467  22.865  12.929
42920W        W 9329  34.655  43.965   4.024
42921W        W 9330  28.277   8.105   0.855
42922W        W 9331  44.373  12.639   0.341
42923W        W 9332   5.698  37.093  10.716
42924W        W 9333  14.719  26.472  13.009
42925W        W 9334  30.640  43.402  10.971
42926W        W 9335  28.463  29.990   0.978
42927W        W 9336  18.574  33.819   3.793
42928W        W 9337  36.931  14.171   2.100
42929W        W 9338  43.241  13.340  10.831
42930W        W 9339   9.841  36.144   4.504
42931W        W 9340   0.278   2.911  13.885
42932W        W 9341  21.577  33.784   3.579
42933W        W 9342   2.481  20.048  13.488
42934W        W 9343  25.466  28.569  13.973
42935W        W 9344  11.431  41.937  13.353
42936W        W 9345  18.213  30.108  10.391
42937W        W 9346  30.610  11.643  10.436
42938W        W 9347   3.697  31.641  10.431
42939W        W 9348  21.087   6.290   2.193
42940W        W 9349  33.014   8.328   2.016
42941W        W 9350  16.188   6.896  14.480
42942W        W 9351  41.278  16.764   0.753
42943W        W 9352  40.942   7.686   4.609
42944W        W 9353  42.384  25.698   1.433
42945W        W 9354  17.122   2.916  14.456
42946W        W 9355  27.207  41.819   1.932
42947W        W 9356  32.458  23.633   4.515
42948W        W 9357  41.039  35.623  10.450
42949W        W 9358  17.104  16.018  10.727
42950W        W 9359  17.517  32.930   0.739
42951W        W 9360  33.249  38.940  14.018
42952W        W 9361  22.345   3.153   5.196
42953W        W 9362  26.026  12.571  12.032
42954W        W 9363  34.440  16.699  13.865
42955W        W 9364  35.913  36.675  14.337
42956W        W 9365  41.109  25.452   1.784
42957W        W 9366   3.017  11.451  11.112
42958W        W 9367   6.416  35.309  14.042
42959W        W 9368  28.673  35.094   4.678
42960W        W 9369  35.475  19.985   2.881
42961W        W 9370  38.833  17.365  11.647
42962W        W 9371  22.867   2.256  14.718
42963W        W 9372  38.796   1.212  12.132
42964W        W 9373   4.343  29.952  11.763
42965W        W 9374  28.597  34.870   2.729
42966W        W 9375  44.869   5.369  13.961
42967W        W 9376  41.220  38.868   1.199
42968W        W 9377  10.330  34.103  14.948
42969W        W 9378  11.828  39.128   2.822
42970W        W 9379  12.379  15.861   0.493
42971W        W 9380   4.476  21.699   3.225
42972W        W 9381  28.428  12.175  11.522
42973W        W 9382  35.894  24.280   2.219
42974W        W 9383   4.870  24.012   1.634
42975W        W 9384  28.766  23.240  13.580
42976W        W 9385  24.609  40.100   0.994
42977W        W 9386  28.325   9.870  12.786
42978W        W 9387  42.338   1.593  12.530
42979W        W 9388  42.555  26.635   4.586
42980W        W 9389  35.110  22.141  11.401
42981W        W 9390  24.745  39.053   4.215
42982W        W 9391  41.784  16.095   0.432
42983W        W 9392  12.740  42.803  12.122
42984W        W 9393  25.742  35.641  13.168
42985W        W 9394  14.801  40.927   4.717
42986W        W 9395  28.226  43.288  14.422
42987W        W 9396  27.180  14.621   3.371
42988W        W 9397  12.228  40.244  13.706
42989W        W 9398  32.229   6.196   3.518
42990W        W 9399  40.489   1.287   3.850
42991W        W 9400  27.027  37.488   1.190
42992W        W 9401   8.264  16.286  13.989
42993W        W 9402  27.760  25.213   0.305
42994W        W 9403  20.329  30.868   0.333
42995W        W 9404  39.420  32.717  14.647
42996W        W 9405  30.994  10.629  14.602
42997W        W 9406   5.681  10.115  13.952
42998W        W 9407  34.542  38.087  14.027
42999W        W 9408   2.483  24.468  12.386
43000W        W 9409  27.524   0.140   3.706
43001W        W 9410  37.259   5.372   0.528
43002W        W 9411  44.331  42.355   1.276
43003W        W 9412  24.632   9.940  11.238
43004W        W 9413   7.963  16.634  10.981
43005W        W 9414  38.833   9.407  12.945
43006W        W 9415   8.706   4.238  11.381
43007W        W 9416  17.615   3.802  12.618
43008W        W 9417  28.643   7.803  10.753
43009W        W 9418  17.744   7.115  14.001
43010W        W 9419  20.772  40.255  11.588
43011W        W 9420  19.081  16.323   1.187
43012W        W 9421  24.555  40.996   1.179
43013W        W 9422  29.074  30.735   3.531
43014W        W 9423  26.035  35.016   2.421
43015W        W 9424  20.573  20.584  13.397
43016W        W 9425   3.660  40.796  10.583
43017W        W 9426  28.195  24.651  11.979
43018W        W 9427  33.784  23.676  10.196
43019W        W 9428  39.541  32.888  12.897
43020W        W 9429  12.132  39.328   2.471
43021W        W 9430  27.167  16.109  14.792
43022W        W 9431  15.604  36.855  14.925
43023W        W 9432  39.492  28.549  11.669
43024W        W 9433   8.179  20.233  12.784
43025W        W 9434  36.275  40.265  13.980
43026W        W 9435  30.698   0.699  11.639
43027W        W 9436  20.603  33.601  12.893
43028W        W 9437   7.194   7.784  11.704
43029W        W 9438  15.901  23.013   5.548
43030W        W 9439   1.010  15.193  14.338
43031W        W 9440  36.389  13.962   1.893
43032W        W 9441  18.591   1.873   0.797
43033W        W 9442  42.473  15.108  12.360
43034W        W 9443   6.508  35.525   4.772
43035W        W 9444  44.926  36.141   2.218
43036W        W 9445  42.343  37.633  13.771
43037W        W 9446  26.227  41.600   1.861
43038W        W 9447  30.411   0.166   3.650
43039W        W 9448   7.117  33.080  12.510
43040W        W 9449  14.048  13.075  13.999
43041W        W 9450  22.335  12.720   3.789
43042W        W 9451  32.564  21.333   1.361
43043W        W 9452  41.534   5.706   1.143
43044W        W 9453  31.368  27.130   1.227
43045W        W 9454  20.613  26.526  10.903
43046W        W 9455   5.258  18.026  13.324
43047W        W 9456  37.914  41.009  13.958
43048W        W 9457  14.348   4.707   1.572
43049W        W 9458  24.114  29.895  12.152
43050W        W 9459   6.204  16.375  13.894
43051W        W 9460  10.719  43.076  13.692
43052W        W 9461  20.148  35.935   3.890
43053W        W 9462  42.610  27.084   1.335
43054W        W 9463  13.698  36.347   4.112
43055W        W 9464   6.782   7.508  11.194
43056W        W 9465   6.698  38.771   3.064
43057W        W 9466   0.357  27.535  10.713
43058W        W 9467  23.503  16.731   4.276
43059W        W 9468  12.389  27.945  11.803
43060W        W 9469  23.584   6.868   2.728
43061W        W 9470  27.026  33.624   1.444
43062W        W 9471  39.060  39.640  13.503
43063W        W 9472   6.683  36.649   1.420
43064W        W 9473  23.989  14.850  12.049
43065W        W 9474  32.188  11.090   0.032
43066W        W 9475  10.383  34.902  14.480
43067W        W 9476   0.817   7.866   0.040
43068W        W 9477  20.036   3.437   4.378
43069W        W 9478  20.633  15.724  13.022
43070W        W 9479  36.402   5.783  13.919
43071W        W 9480  35.882  37.536   2.647
43072W        W 9481  17.496  41.357   3.660
43073W        W 9482  42.752  16.298   2.489
43074W        W 9483  21.392  35.474   2.471
43075W        W 9484  15.733  33.195   0.961
43076W        W 9485  10.663  13.021  14.470
43077W        W 9486   6.768  38.618  13.568
43078W        W 9487   0.125  40.860   3.936
43079W        W 9488  14.217  39.373   4.566
43080W        W 9489   7.601  20.217  14.534
43081W        W 9490  44.009  32.825   4.771
43082W        W 9491  11.927   9.161   0.511
43083W        W 9492  25.334   4.299   3.360
43084W        W 9493  25.225  29.986  11.990
43085W        W 9494  32.606  19.309   4.163
43086W        W 9495  20.208  39.264   2.258
43087W        W 9496  33.056   9.703  10.664
43088W        W 9497   5.110  28.982   0.799
43089W        W 9498  23.373  40.480  14.345
43090W        W 9499  35.643   7.825   1.975
43091W        W 9500  39.952   6.960   3.809
43092W        W 9501  32.322  34.022   3.848
43093W        W 9502  13.619  25.061  13.521
43094W        W 9503  27.516  12.208  13.952
43095W        W 9504   4.497  19.798  14.399
43096W        W 9505  43.062  41.998   3.332
43097W        W 9506  34.425  42.250  14.915
43098W        W 9507  39.383  42.158   1.233
43099W        W 9508  31.476  19.262  11.610
43100W        W 9509   0.351  41.627   3.215
43101W        W 9510  17.824   7.053   3.258
43102W        W 9511   2.445  42.548  10.373
43103W        W 9512   5.926  32.356  11.525
43104W        W 9513  29.599   6.075   2.326
43105W        W 9514  20.709  12.770   1.386
43106W        W 9515  43.266  30.094  11.721
43107W        W 9516  17.138  22.121  10.813
43108W        W 9517   8.161  44.017  10.817
43109W        W 9518  13.709  10.800   0.250
43110W        W 9519  38.895  22.195  13.440
43111W        W 9520  41.111   2.948   0.349
43112W        W 9521  30.563   9.118   2.474
43113W        W 9522  28.622  31.219  13.991
43114W        W 9523  38.662   5.845  10.660
43115W        W 9524  36.833  10.090  10.811
43116W        W 9525  30.641  11.758   4.180
43117W        W 9526  17.061  15.717  12.926
43118W        W 9527  35.284   2.266  12.325
43119W        W 9528   2.770  28.409   1.244
43120W        W 9529  23.751   6.720   1.826
43121W        W 9530  42.978  12.182  10.253
43122W        W 9531  34.958  10.786   3.260
43123W        W 9532   4.692  22.581  12.516
43124W        W 9533  17.424  28.250   4.503
43125W        W 9534  24.006   7.212   4.068
43126W        W 9535   1.686  30.676   2.402
43127W        W 9536  32.039   6.502  10.708
43128W        W 9537   2.778  19.179  14.007
43129W        W 9538   2.930  35.390   0.366
43130W        W 9539  18.305  43.392   3.270
43131W        W 9540  13.781  17.112   4.309
43132W        W 9541  39.392   4.870  12.853
43133W        W 9542  40.321  42.887   1.859
43134W        W 9543   0.403  12.330   3.231
43135W        W 9544  21.089  24.915   0.925
43136W        W 9545   7.361  10.824   2.142
43137W        W 9546   8.665  28.121   0.353
43138W        W 9547   2.434  11.186   3.699
43139W        W 9548  34.117  37.056  14.825
43140W        W 9549  38.779  15.910  12.852
43141W        W 9550   8.387  10.251   1.639
43142W        W 9551   6.817   7.225   0.202
43143W        W 9552  21.729  20.086   1.452
43144W        W 9553   8.188  44.522   0.354
43145W        W 9554  41.840  21.682   1.561
43146W        W 9555  22.166  34.068  10.699
43147W        W 9556   8.369  44.859  11.800
43148W        W 9557  27.072   7.252  12.416
43149W        W 9558  11.714  43.899   0.594
43150W        W 9559   0.427  22.446   2.299
43151W        W 9560  41.030  38.661  10.810
43152W        W 9561  32.195  44.790   4.890
43153W        W 9562  30.908  14.155  13.853
43154W        W 9563  14.749  14.048  10.270
43155W        W 9564  31.400  32.528  12.210
43156W        W 9565   9.209  14.657   4.333
43157W        W 9566  45.000  37.907  13.405
43158W        W 9567  12.995  13.338   4.552
43159W        W 9568  29.418   4.402  11.168
43160W        W 9569  25.707  29.194  13.445
43161W        W 9570  10.653  30.611  13.853
43162W        W 9571  30.422   0.922   0.249
43163W        W 9572  43.313  23.017   1.446
43164W        W 9573  31.481   0.929   4.660
43165W        W 9574  37.420   4.018  11.095
43166W        W 9575   2.851  42.238   2.749
43167W        W 9576  42.013  37.316  11.456
43168W        W 9577  32.176  28.957   3.798
43169W        W 9578  20.995   9.750  14.767
43170W        W 9579  26.691  42.496   0.798
43171W        W 9580  11.093  12.224   2.377
43172W        W 9581  13.323  24.526  14.452
43173W        W 9582  35.917  43.055  12.912
43174W        W 9583  27.417  11.055  14.540
43175W        W 9584  10.795  42.292   0.031
43176W        W 9585  22.436  38.540  11.092
43177W        W 9586  43.213  27.142   3.165
43178W        W 9587  17.682  13.196  12.086
43179W        W 9588   2.835  30.173  10.773
43180W        W 9589  25.734  44.773  11.171
43181W        W 9590   7.316  14.651   1.769
43182W        W 9591  16.185  33.949   0.756
43183W        W 9592  14.526  33.052  14.486
43184W        W 9593  28.312  38.339   4.604
43185W        W 9594  37.133  13.345   5.021
43186W        W 9595  29.712  20.195  12.951
43187W        W 9596  29.050  43.112  11.155
43188W        W 9597  12.192   6.400  11.044
43189W        W 9598  36.051  15.006   0.222
43190W        W 9599   2.336  31.207   4.589
43191W        W 9600  21.531  44.695   0.443
43192W        W 9601  37.564  36.530  10.748
43193W        W 9602  39.354  14.609   5.404
43194W        W 9603   8.840   6.458  13.607
43195W        W 9604  12.261  28.442  13.119
43196W        W 9605   1.229  38.375   1.952
43197W        W 9606  22.614   2.868  14.335
43198W        W 9607  30.429  28.960  12.856
43199W        W 9608  20.076  40.299   3.789
43200W        W 9609  41.542  14.841  14.313
43201W        W 9610  36.167  34.117   1.818
43202W        W 9611   9.456   1.521  14.817
43203W        W 9612  35.325  43.014   4.927
43204W        W 9613  36.956  34.837   1.448
43205W        W 9614  43.784   7.750   4.621
43206W        W 9615   4.630  42.534   2.880
43207W        W 9616   9.646  44.458  13.298
43208W        W 9617   6.740  15.274  14.460
43209W        W 9618  30.984  35.842  11.135
43210W        W 9619  28.547  23.029  11.229
43211W        W 9620   7.012  39.517  13.379
43212W        W 9621  35.592   2.735  13.336
43213W        W 9622  33.392  36.145   3.711
43214W        W 9623  38.654  40.097  10.056
43215W        W 9624   2.363  43.845   4.105
43216W        W 9625  37.257  26.545   2.781
43217W        W 9626  24.163  12.846  11.628
43218W        W 9627   4.775  16.267   1.949
43219W        W 9628  26.917  20.060   4.066
43220W        W 9629  36.539  41.941  14.292
43221W        W 9630   0.380   2.811   2.324
43222W        W 9631  16.552  21.784  14.352
43223W        W 9632  20.629   9.937   3.297
43224W        W 9633  23.263   0.353   2.149
43225W        W 9634  37.853   0.492   3.004
43226W        W 9635   8.242  15.839  10.611
43227W        W 9636  11.879  42.487  11.172
43228W        W 9637   7.599   4.807   2.673
43229W        W 9638  44.874  15.075  14.476
43230W        W 9639  32.019  40.750  11.686
43231W        W 9640   7.183  26.662  13.775
43232W        W 9641  22.915  10.565   3.514
43233W        W 9642  37.879  20.054   2.799
43234W        W 9643   3.896   2.007   2.776
43235W        W 9644   8.651  39.801   4.739
43236W        W 9645   0.364  26.158   4.989
43237W        W 9646  28.153   1.738   3.242
43238W        W 9647  35.325  40.903  13.319
43239W        W 9648  38.480  35.154  12.554
43240W        W 9649  24.137  14.071  14.111
43241W        W 9650  40.464  26.264  14.785
43242W        W 9651  11.264  26.227   0.007
43243W        W 9652  26.603  10.179   2.351
43244W        W 9653  33.946  21.745  12.512
43245W        W 9654  32.625  29.442   3.712
43246W        W 9655  31.871  25.589   3.122
43247W        W 9656  35.532  17.811  12.732
43248W        W 9657   9.969  33.107  11.228
43249W        W 9658   4.887  10.803   2.242
43250W        W 9659  40.440  35.036  11.356
43251W        W 9660  13.645  36.148   0.038
43252W        W 9661  39.111  25.770  11.115
43253W        W 9662  22.190  11.340  11.657
43254W        W 9663  13.613  41.488   4.349
43255W        W 9664  36.020   0.868  12.929
43256W        W 9665  23.235  27.761   3.828
43257W        W 9666  20.724   8.781   4.592
43258W        W 9667  29.887  34.525   1.831
43259W        W 9668  11.186  28.447   2.507
43260W        W 9669  11.111   3.230   3.605
43261W        W 9670  22.280  25.012  11.505
43262W        W 9671  12.815  23.156  14.785
43263W        W 9672   9.843  44.254   1.460
43264W        W 9673  37.900   2.808  13.794
43265W        W 9674  25.559  23.490   2.324
43266W        W 9675  27.227   7.301  11.938
43267W        W 9676  26.144   6.337   4.677
43268W        W 9677  32.944  34.587   1.882
43269W        W 9678  19.778  10.200  13.879
43270W        W 9679  27.691  22.297  12.115
43271W        W 9680  19.864   0.273   2.189
43272W        W 9681  38.582  21.780   3.165
43273W        W 9682   0.504  33.235   4.501
43274W        W 9683   5.013  13.163   3.707
43275W        W 9684  41.358  31.178  14.522
43276W        W 9685  25.201   1.924  12.677
43277W        W 9686  19.367   6.290   3.437
43278W        W 9687  10.681  30.060   5.027
43279W        W 9688  18.959  30.007   0.560
43280W        W 9689  16.874  15.673   1.168
43281W        W 9690  21.976  24.090   1.303
43282W        W 9691   3.850   2.870  12.129
43283W        W 9692  37.185  12.214  11.083
43284W        W 9693  39.607  12.462  12.981
43285W        W 9694  24.622   4.262  12.993
43286W        W 9695  21.969  37.005   3.349
43287W        W 9696   8.359  10.350  14.699
43288W        W 9697   8.874  43.236   4.196
43289W        W 9698  34.497  21.476   3.175
43290W        W 9699  29.932  31.529   4.003
43291W        W 9700  26.702  10.024  10.288
43292W        W 9701  12.188  20.499   4.459
43293W        W 9702   3.037  23.062   0.438
43294W        W 9703  30.393  34.638   1.781
43295W        W 9704  16.109  11.854   1.234
43296W        W 9705   5.717  43.669  10.552
43297W        W 9706   5.576   4.061   0.450
43298W        W 9707   7.635  15.045   1.524
43299W        W 9708  18.224  43.336  12.666
43300W        W 9709  22.704  30.564   3.254
43301W        W 9710   5.358  14.201   2.875
43302W        W 9711  30.811  17.019   4.079
43303W        W 9712  31.689   9.712  12.913
43304W        W 9713  44.832  38.658   1.848
43305W        W 9714  32.045   8.479  14.541
43306W        W 9715   9.934  27.593   4.670
43307W        W 9716  34.822  39.358   4.947
43308W        W 9717  12.966   1.700  13.220
43309W        W 9718  14.564   0.219   4.097
43310W        W 9719   4.173  42.973  11.562
43311W        W 9720   2.346  41.192  14.025
43312W        W 9721  27.932  32.369   3.720
43313W        W 9722  12.743  16.970   2.861
43314W        W 9723   1.216   6.083   1.379
43315W        W 9724  37.850  14.409  14.482
43316W        W 9725  44.246  38.319   3.752
43317W        W 9726  10.076  19.444   1.622
43318W        W 9727   4.300  43.511   1.271
43319W        W 9728  30.580  24.072  11.988
43320W        W 9729  11.260  12.666  11.083
43321W        W 9730   7.299   9.570  12.431
43322W        W 9731  32.415  15.886  13.802
43323W        W 9732   0.355  42.893  12.895
43324W        W 9733  33.906  28.978   0.451
43325W        W 9734   0.645   1.176   4.684
43326W        W 9735  18.214  22.795  11.593
43327W        W 9736  24.255  31.676   1.208
43328W        W 9737  19.971   1.694  13.077
43329W        W 9738   9.779   3.812   4.775
43330W        W 9739  37.399  42.822  12.916
43331W        W 9740  12.827  29.637   1.066
43332W        W 9741  10.399  16.225   2.779
43333W        W 9742  15.753   8.891   3.719
43334W        W 9743  35.699  14.750   2.793
43335W        W 9744  41.679   9.673  11.769
43336W        W 9745  25.341  25.969  13.495
43337W        W 9746  12.763  36.458  12.902
43338W        W 9747  23.736  17.265   2.723
43339W        W 9748  41.952  28.114   3.107
43340W        W 9749  15.571  10.053   4.635
43341W        W 9750  38.806  35.976  14.425
43342W        W 9751  13.659   8.363   2.698
43343W        W 9752  33.518   1.623  10.299
43344W        W 9753  21.616  43.318   0.129
43345W        W 9754  43.425  23.451   1.690
43346W        W 9755  41.336  15.325   2.342
43347W        W 9756  21.098  25.379  14.007
43348W        W 9757  22.288  25.191  12.902
43349W        W 9758   7.182  37.091   3.218
43350W        W 9759  31.895   6.301   2.116
43351W        W 9760  16.786   0.545   4.753
43352W        W 9761   1.231  36.452   1.479
43353W        W 9762  39.332  10.865  13.054
43354W        W 9763  14.697  27.097   4.677
43355W        W 9764  37.226  29.572  11.487
43356W        W 9765  35.062  42.288  11.597
43357W        W 9766   1.731  36.751  12.198
43358W        W 9767  42.823  12.991   5.374
43359W        W 9768  44.537  36.951   2.833
43360W        W 9769  23.140   8.392   1.787
43361W        W 9770  24.221  25.197  13.433
43362W        W 9771  27.319   6.399  12.491
43363W        W 9772   1.875  29.162  11.175
43364W        W 9773   7.093  27.409  14.231
43365W        W 9774   3.813   1.218  14.396
43366W        W 9775  35.284  38.658   4.670
43367W        W 9776  11.619  33.980   4.145
43368W        W 9777  17.777  19.784  11.943
43369W        W 9778  21.025  13.394   1.144
43370W        W 9779  32.101  29.973  10.513
43371W        W 9780   9.292  26.276   4.291
43372W        W 9781  34.342  14.313   1.858
43373W        W 9782  32.836   3.340   2.227
43374W        W 9783  19.401  18.658   2.139
43375W        W 9784  19.243  28.313   2.638
43376W        W 9785  26.150  21.451  12.164
43377W        W 9786   3.718  36.310   3.711
43378W        W 9787   2.173  21.337  12.930
43379W        W 9788   4.389   0.353  12.535
43380W        W 9789  23.054  30.029   4.351
43381W        W 9790  26.244  42.028  14.395
43382W        W 9791   4.774  40.029   1.292
43383W        W 9792   5.392   0.523   1.695
43384W        W 9793  38.247  28.120   4.548
43385W        W 9794   7.851  42.213   3.193
43386W        W 9795   4.261  24.738   4.137
43387W        W 9796   6.219  18.843  10.836
43388W        W 9797  12.358  23.788  12.506
43389W        W 9798  13.243  25.267   2.632
43390W        W 9799  34.284  13.212   3.639
43391W        W 9800  19.982  15.675   2.365
43392W        W 9801  41.857   0.116   4.641
43393W        W 9802  32.662  33.357   4.586
43394W        W 9803  39.250  24.540   3.795
43395W        W 9804  22.544  33.610   3.733
43396W        W 9805  39.574   3.193   1.793
43397W        W 9806  33.862  33.575  12.419
43398W        W 9807  36.422  10.719  12.926
43399W        W 9808  36.901  30.092  12.745
43400W        W 9809  44.986   0.728  12.546
43401W        W 9810   9.430  11.841   3.823
43402W        W 9811  13.820  33.576  11.375
43403W        W 9812   4.207  29.588   4.073
43404W        W 9813   9.182  26.541  13.909
43405W        W 9814  20.488  43.739   3.142
43406W        W 9815  31.327  14.798  14.237
43407W        W 9816  39.404   9.391  14.936
43408W        W 9817  38.742  14.764  12.904
43409W        W 9818  29.874   2.682  13.745
43410W        W 9819  26.027  10.897   2.256
43411W        W 9820  44.749  22.578  10.377
43412W        W 9821  29.776  38.415  12.491
43413W        W 9822  36.086  35.924  11.577
43414W        W 9823  19.048  38.540   0.748
43415W        W 9824   2.853   6.802  14.784
43416W        W 9825  30.622  28.688   2.970
43417W        W 9826  43.351  12.760   1.008
43418W        W 9827  39.417  37.326  13.919
43419W        W 9828   8.244  22.143   2.099
43420W        W 9829  38.491  33.296   3.158
43421W        W 9830  41.376  32.481   0.287
43422W        W 9831   0.776  39.839  10.283
43423W        W 9832   4.805   0.176   1.022
43424W        W 9833   4.852  38.422   3.383
43425W        W 9834   6.807  25.080   3.670
43426W        W 9835  22.029   9.763   4.024
43427W        W 9836  12.924  10.818   3.326
43428W        W 9837   6.373  35.084   0.497
43429W        W 9838  29.152  15.644  13.938
43430W        W 9839  34.970  35.654   1.535
43431W        W 9840  33.461  21.635   2.015
43432W        W 9841  37.482   5.619   4.066
43433W        W 9842  29.702  41.938   4.604
43434W        W 9843  18.266  18.621  14.362
43435W        W 9844  13.690  39.444   0.441
43436W        W 9845  17.715  33.852  14.798
43437W        W 9846  39.849   0.661   0.093
43438W        W 9847  22.510  13.276  11.237
43439W        W 9848  30.389  25.956  12.303
43440W        W 9849  20.334  19.697  13.462
43441W        W 9850  26.585  19.762  14.112
43442W        W 9851  43.742   7.056  12.901
43443W        W 9852  40.726  43.852   0.563
43444W        W 9853  21.494  14.837   3.321
43445W        W 9854   9.733  19.395  13.948
43446W        W 9855   3.518  24.038  14.621
43447W        W 9856   6.249  30.456  10.945
43448W        W 9857  13.166  22.088  12.963
43449W        W 9858   3.845  15.023   4.661
43450W        W 9859  15.186  23.458   0.307
43451W        W 9860  37.627  21.059  14.849
43452W        W 9861  29.168  33.267   3.431
43453W        W 9862  28.748  38.648  13.926
43454W        W 9863  18.684  40.763  14.723
43455W        W 9864  19.161  11.196  12.072
43456W        W 9865  13.745  39.337  12.881
43457W        W 9866  44.873  43.751  14.306
43458W        W 9867  36.378   4.113  14.010
43459W        W 9868   1.844  12.137   1.712
43460W        W 9869  11.627  28.200   0.921
43461W        W 9870  19.487  35.442  12.381
43462W        W 9871   1.556  31.057   3.322
43463W        W 9872  34.592  13.156   2.768
43464W        W 9873  19.021   5.853   2.133
43465W        W 9874  20.442  40.324   3.345
43466W        W 9875  22.499   7.149   2.669
43467W        W 9876  14.787  14.963  11.433
43468W        W 9877  38.996  36.346   2.176
43469W        W 9878  15.542  22.885  13.347
43470W        W 9879  13.010   5.758   1.329
43471W        W 9880   9.772  23.510  11.549
43472W        W 9881  19.255   4.797   0.546
43473W        W 9882  25.343  23.337  11.896
43474W        W 9883   2.189  26.620   0.365
43475W        W 9884  26.496   8.740  14.993
43476W        W 9885  11.844  25.056   1.410
43477W        W 9886  10.121  19.560  11.251
43478W        W 9887  20.554   0.488   1.420
43479W        W 9888  18.776   4.900   0.240
43480W        W 9889  20.096  27.585   3.398
43481W        W 9890  21.168   1.511   3.373
43482W        W 9891  34.984  16.796   4.443
43483W        W 9892  28.575  14.596   2.797
43484W        W 9893  20.643  18.999   2.436
43485W        W 9894  16.329  36.566  12.127
43486W        W 9895  17.768  19.253  11.965
43487W        W 9896   2.541  11.228  12.662
43488W        W 9897   1.307   6.588   1.264
43489W        W 9898   4.033   0.616  11.975
43490W        W 9899  42.404   3.933   4.183
43491W        W 9900  35.453  42.370   1.920
43492W        W 9901  16.409   3.246  13.618
43493W        W 9902  24.245  19.507  12.017
43494W        W 9903  11.820  13.169  13.553
43495W        W 9904  20.821  27.618  11.162
43496W        W 9905  16.206  26.816  12.516
43497W        W 9906  28.218  23.536   1.185
43498W        W 9907  42.359  41.530  13.266
43499W        W 9908   0.698  37.339  14.499
43500W        W 9909  43.944  31.907  13.936
43501W        W 9910  43.019   6.259  14.997
43502W        W 9911  29.403   5.243   2.786
43503W        W 9912  21.234  13.816  13.037
43504W        W 9913  32.099  13.101  10.978
43505W        W 9914  36.239   2.961  11.651
43506W        W 9915  44.864  10.901  14.088
43507W        W 9916  39.256  32.471   2.307
43508W        W 9917   6.615  21.577  13.849
43509W        W 9918  20.072  27.035  12.977
43510W        W 9919  43.217  19.655  11.150
43511W        W 9920  44.248  36.123  14.672
43512W        W 9921   6.961  36.431   2.722
43513W        W 9922  22.636  44.702   1.852
43514W        W 9923  24.318  32.876   4.358
43515W        W 9924  16.929  20.033   1.847
43516W        W 9925   4.809   2.779   3.326
43517W        W 9926   3.365  44.490   0.878
43518W        W 9927  36.437  34.321   2.221
43519W        W 9928  15.725  23.561   4.513
43520W        W 9929  28.244  29.137   2.255
43521W        W 9930  11.584  23.612  12.877
43522W        W 9931  36.781   3.197   0.013
43523W        W 9932   9.848  44.991   0.444
43524W        W 9933   3.489  23.671  14.990
43525W        W 9934  26.262  15.236   0.321
43526W        W 9935  22.056  32.706   3.722
43527W        W 9936  42.084  19.531  14.379
43528W        W 9937  32.923  34.840   2.343
43529W        W 9938   6.190  18.722  12.659
43530W        W 9939   1.779  41.133   4.615
43531W        W 9940  38.177   5.225   3.729
43532W        W 9941  18.512  14.820  14.728
43533W        W 9942  33.979  42.520   3.297
43534W        W 9943  18.179  19.840   2.302
43535W        W 9944  27.877  17.991  11.138
43536W        W 9945   9.587   4.322   4.157
43537W        W 9946   6.124  31.856   1.198
43538W        W 9947  27.177  32.361  14.756
43539W        W 9948  31.497  28.470   2.435
43540W        W 9949  16.389  32.000  11.391
43541W        W 9950  39.540  42.498   2.845
43542W        W 9951  42.494  40.111  12.820
43543W        W 9952  22.174   3.744   0.304
43544W        W 9953  43.983  36.762  12.468
43545W        W 9954  35.135  16.046   4.688
43546W        W 9955  23.215   7.163   2.433
43547W        W 9956  31.611  34.288  11.731
43548W        W 9957  42.775  24.154  14.913
43549W        W 9958  33.548  42.719  10.355
43550W        W 9959  22.214   3.342  14.902
43551W        W 9960   8.208  44.482   3.373
43552W        W 9961   5.985   9.909   3.965
43553W        W 9962  31.507   0.746   1.773
43554W        W 9963  40.581  13.781   2.306
43555W        W 9964  26.829   9.781  11.587
43556W        W 9965  28.716  34.418  11.459
43557W        W 9966  10.065  29.648   2.562
43558W        W 9967  43.375  27.023   3.668
43559W        W 9968  14.831  15.243   2.285
43560W        W 9969  20.246   7.304   0.422
43561W        W 9970  10.232  29.163   1.839
43562W        W 9971  28.987  12.474  10.436
43563W        W 9972  27.545  36.665   1.403
43564W        W 9973  34.591  22.660  12.106
43565W        W 9974   4.201   8.267  14.958
43566W        W 9975  40.910  34.599  13.349
43567W        W 9976  11.241  43.485   4.941
43568W        W 9977  11.354  23.031   3.842
43569W        W 9978  26.625  11.106  10.084
43570W        W 9979  24.677  31.106   4.371
43571W        W 9980  17.350  27.113  11.979
43572W        W 9981  34.987  31.570  14.471
43573W        W 9982   6.914   0.173  13.913
43574W        W 9983  22.920  25.568  13.831
43575W        W 9984   7.183  29.536  13.826
43576W        W 9985  20.021  34.008  14.376
43577W        W 9986  13.233  32.409  14.911
43578W        W 9987  15.872  26.104  11.138
43579W        W 9988  14.332   5.143   4.627
43580W        W 9989  28.952  29.151  11.537
43581W        W 9990   8.384  35.394   3.604
43582W        W 9991   5.961  23.020   3.217
43583W        W 9992   4.654   1.288  12.643
43584W        W 9993   6.570  14.221  14.555
43585W        W 9994  17.665   8.397  13.440
43586W        W 9995   1.289   9.965   3.845
43587W        W 9996  15.657  38.802   3.320
43588W        W 9997  18.307  10.263   3.613
43589W        W 9998  33.506  31.855  10.701
43590W        W 9999  25.274  16.403  13.362
43591W        W10000  16.525  10.580  12.432
43592W        W10001   8.226   0.212  13.302
43593W        W10002  19.408  36.968  10.717
43594W        W10003  42.547  12.210  10.569
43595W        W10004  18.095  26.730  13.487
43596W        W10005   6.435  23.612   1.203
43597W        W10006   2.039  30.058  13.814
43598W        W10007  40.470  26.991  12.856
43599W        W10008  34.870  19.389  12.324
43600W        W10009  42.244  19.691   0.462
43601W        W10010   3.883   1.787  12.645
43602W        W10011   9.134  40.142   2.774
43603W        W10012  34.007  26.028   2.188
43604W        W10013  10.997  42.195  11.128
43605W        W10014  30.419  12.132   1.819
43606W        W10015  21.442  11.166   1.474
43607W        W10016   9.393  41.189   4.583
43608W        W10017  25.228   1.296  11.549
43609W        W10018  37.327  18.205   1.881
43610W        W10019  38.160  25.314   2.878
43611W        W10020   7.819   3.698   3.393
43612W        W10021   0.825  26.378   3.261
43613W        W10022  23.926   0.023   3.642
43614W        W10023  29.746  25.137   4.342
43615W        W10024  30.769  10.931  13.521
43616W        W10025   6.285  38.558  12.808
43617W        W10026   4.235  20.462   0.943
43618W        W10027  34.738  21.545   0.826
43619W        W10028  15.781   7.581  14.095
43620W        W10029  33.340   0.418  14.902
43621W        W10030  23.996  20.740   3.341
43622W        W10031   5.230  12.643   3.667
43623W        W10032  25.769  11.654  13.437
43624W        W10033  40.325  39.553   3.317
43625W        W10034   8.367   0.883  14.997
43626W        W10035  28.096  44.998  11.191
43627W        W10036   0.438  11.837  14.411
43628W        W10037  42.440  16.349   1.023
43629W        W10038   0.003  43.358  14.016
43630W        W10039  30.127  21.670  10.415
43631W        W10040  25.027  18.504  13.018
43632W        W10041  42.402  17.621  11.515
43633W        W10042  11.343  18.148   2.774
43634W        W10043  24.746   2.334   1.499
43635W        W10044  23.451  22.543   1.244
43636W        W10045  22.184  14.550  10.426
43637W        W10046  26.009  14.694  13.990
43638W        W10047  31.061  21.736  13.403
43639W        W10048  36.519   8.548  13.434
43640W        W10049   3.869  31.723   0.897
43641W        W10050  17.063  26.789  11.638
43642W        W10051  22.655  35.349  14.133
43643W        W10052  30.451  30.616  14.476
43644W        W10053  39.185   1.920  10.241
43645W        W10054  16.195  17.857  14.033
43646W        W10055   0.957  19.018   5.041
43647W        W10056  31.172  44.546   3.698
43648W        W10057  37.101  19.240   1.870
43649W        W10058  14.996   4.514  13.367
43650W        W10059  21.916   0.450   0.494
43651W        W10060  41.184  20.951  14.554
43652W        W10061  11.405  41.211  10.633
43653W        W10062  10.630  33.064   1.711
43654W        W10063   7.622  34.610   4.115
43655W        W10064  26.708  40.939   0.240
43656W        W10065   0.312  10.198   2.189
43657W        W10066  17.746  34.722   2.789
43658W        W10067  12.572  18.177   4.247
43659W        W10068   0.850   8.600   5.391
43660W        W10069  26.901  17.594  13.913
43661W        W10070  36.976  31.364  10.898
43662W        W10071  14.005  23.108  14.377
43663W        W10072   2.632  14.041  14.769
43664W        W10073   5.993  27.671   3.782
43665W        W10074   0.287  36.056  14.512
43666W        W10075   1.226  38.233  13.086
43667W        W10076  34.065  43.237   4.125
43668W        W10077  26.929   3.422  14.725
43669W        W10078  18.760  40.848  13.373
43670W        W10079   2.286  28.665  14.449
43671W        W10080  40.336   3.643  11.213
43672W        W10081  34.800  15.084   2.909
43673W        W10082  34.530  30.641  11.531
43674W        W10083  36.285  28.384  11.034
43675W        W10084  27.416  34.874  13.024
43676W        W10085  22.219  33.103  13.559
43677W        W10086  42.903  28.647   2.049
43678W        W10087   4.797   7.230   1.488
43679W        W10088  33.048  33.507   2.742
43680W        W10089  26.045  34.351  10.493
43681W        W10090   2.491  37.612  12.637
43682W        W10091  37.666  13.819  12.938
43683W        W10092  39.030  29.358  12.823
43684W        W10093  36.541  19.395  14.015
43685W        W10094  25.875  38.948  12.426
43686W        W10095  38.146   3.125  11.976
43687W        W10096  37.845  26.602  12.072
43688W        W10097  35.714  25.329  14.876
43689W        W10098  17.663  24.591  14.587
43690W        W10099  41.528  22.712  14.740
43691W        W10100  10.346   7.277  11.871
43692W        W10101   5.220  32.116  14.731
43693W        W10102  24.236  37.529   3.626
43694W        W10103  42.429  19.672   3.774
43695W        W10104  22.459  41.243   4.640
43696W        W10105  32.537  35.090  11.707
43697W        W10106  41.897  21.781  14.996
43698W        W10107  38.415   1.254  13.421
43699W        W10108   3.835   4.736  14.450
43700W        W10109   0.851  34.127  14.863
43701W        W10110  42.782  37.523  13.087
43702W        W10111  39.390  26.658   2.736
43703W        W10112   0.881  20.005   3.898
43704W        W10113  34.471   6.578   1.365
43705W        W10114  10.082  43.903  13.589
43706W        W10115  31.979   9.158  11.653
43707W        W10116  34.097  32.636  10.886
43708W        W10117  44.403  28.675   4.493
43709W        W10118  15.316  27.929  14.309
43710W        W10119  33.638   6.875   2.921
43711W        W10120  19.580   0.716   2.292
43712W        W10121  36.530  10.069   1.646
43713W        W10122  27.154  28.883  11.179
43714W        W10123  13.591  23.174  12.109
43715W        W10124  38.814  27.219  11.850
43716W        W10125  42.603  35.792   0.265
43717W        W10126   5.395  11.282   0.710
43718W        W10127  16.121   7.734   1.047
43719W        W10128  27.182  24.693  12.980
43720W        W10129   8.646  44.297   0.349
43721W        W10130  34.467  34.303  11.021
43722W        W10131  32.144  18.487   1.403
43723W        W10132  27.999  16.859  14.840
43724W        W10133   2.413  16.499   4.200
43725W        W10134  35.394   1.847   3.373
43726W        W10135  12.663  12.478   4.865
43727W        W10136   9.817   4.698   3.429
43728W        W10137  42.363  37.372   2.718
43729W        W10138  28.876  34.609   4.692
43730W        W10139  23.321  12.563   0.334
43731W        W10140  20.469  30.005   1.347
43732W        W10141  30.340   5.473   2.326
43733W        W10142  43.943  22.683   3.744
43734W        W10143   1.265  21.322   3.286
43735W        W10144  34.363  29.703  11.115
43736W        W10145  17.852  19.856   4.876
43737W        W10146  36.324  24.963   1.642
43738W        W10147  38.008   5.649   2.005
43739W        W10148  13.033  29.439   1.519
43740W        W10149  15.750  29.137   3.724
43741W        W10150  20.198  34.659  11.666
43742W        W10151  20.536  19.253  13.133
43743W        W10152  14.036  11.393  10.774
43744W        W10153  35.769   6.871  10.619
43745W        W10154   0.076  43.450  12.877
43746W        W10155   9.398  21.483   2.781
43747W        W10156  13.553  29.158  12.775
43748W        W10157   8.394  14.298  12.135
43749W        W10158   0.233  41.722  11.539
43750W        W10159  34.915  28.159   1.433
43751W        W10160  23.676   6.278   2.089
43752W        W10161  43.054  36.578   3.818
43753W        W10162   6.548  34.677  14.492
43754W        W10163  17.531  13.055  11.156
43755W        W10164   2.452  27.508  11.029
43756W        W10165  10.916   7.076  13.060
43757W        W10166   7.131  31.034   0.008
43758W        W10167  43.822   7.434   0.946
43759W        W10168   4.841  28.282  14.464
43760W        W10169  27.412  31.963   0.001
43761W        W10170  13.037  29.181  11.946
43762W        W10171   3.535  13.381   2.800
43763W        W10172  35.495  39.274  14.887
43764W        W10173  39.813   8.751   4.533
43765W        W10174  28.675  28.534   1.733
43766W        W10175  15.732  29.573   1.356
43767W        W10176  31.082  21.472  12.496
43768W        W10177   8.676  33.634  11.563
43769W        W10178  17.517   5.419  12.995
43770W        W10179  12.993  24.002  13.211
43771W        W10180  19.576  18.342  12.768
43772W        W10181   9.155   2.389   2.116
43773W        W10182  36.063  35.540   0.385
43774W        W10183  26.077  20.518   3.582
43775W        W10184  17.354  41.371  10.594
43776W        W10185   0.039  41.763  14.375
43777W        W10186   4.182  43.670  12.549
43778W        W10187  19.787   3.695   5.019
43779W        W10188  32.909  10.283   0.389
43780W        W10189  42.295  12.822  13.467
43781W        W10190  20.358  23.077   4.296
43782W        W10191  16.098  44.348   4.447
43783W        W10192  36.846   8.420  12.169
43784W        W10193   9.997  22.156  12.503
43785W        W10194   3.448  28.036   4.609
43786W        W10195  20.949  15.732  13.967
43787W        W10196  18.420  44.787  11.068
43788W        W10197  11.585  43.188  14.972
43789W        W10198  30.519  10.825   1.327
43790W        W10199   2.950  23.271   4.712
43791W        W10200   1.757   9.867  14.369
43792W        W10201  25.677   4.197   1.169
43793W        W10202  14.596  41.477   4.577
43794W        W10203  19.279  20.147  13.821
43795W        W10204   6.808  21.386   2.755
43796W        W10205   2.273   6.313  14.407
43797W        W10206  16.233  14.081   3.721
43798W        W10207  37.939  15.865  10.820
43799W        W10208  23.752  15.193   1.947
43800W        W10209  20.663   9.122  11.716
43801W        W10210   9.837  40.790   0.445
43802W        W10211  26.625  22.112   0.716
43803W        W10212  41.492  41.807   2.007
43804W        W10213  36.879  18.986   4.571
43805W        W10214  25.991  15.892  12.111
43806W        W10215  41.491  16.616  14.531
43807W        W10216  35.315  36.119  12.648
43808W        W10217  19.674  39.517   2.124
43809W        W10218  19.639  42.202   2.328
43810W        W10219  11.308  12.740   0.963
43811W        W10220  26.184  17.625   3.691
43812W        W10221  17.192   2.831   1.235
43813W        W10222  42.561  33.301   1.339
43814W        W10223  34.545  33.902  12.348
43815W        W10224  20.826  12.309  11.087
43816W        W10225  36.446   0.554  11.518
43817W        W10226   3.146   1.157  11.281
43818W        W10227  35.345  17.082  12.116
43819W        W10228  20.803   7.332  11.234
43820W        W10229  35.199  34.447   3.557
43821W        W10230  22.410  16.095   0.788
43822W        W10231  39.031  38.610   3.270
43823W        W10232  15.188  18.354  14.320
43824W        W10233  32.179  34.941   1.261
43825W        W10234  13.689   5.817  12.896
43826W        W10235   1.667  40.559  14.404
43827W        W10236  35.039  29.912   1.837
43828W        W10237  23.336  24.592   1.283
43829W        W10238   1.477  37.458   2.296
43830W        W10239  26.966  18.636  12.925
43831W        W10240   5.682  14.062  13.436
43832W        W10241  36.162  24.676   2.560
43833W        W10242  18.911   4.264   1.199
43834W        W10243  15.317  37.041  13.502
43835W        W10244  10.029  20.489  14.844
43836W        W10245  34.464  36.630  12.693
43837W        W10246   6.162  33.514  12.979
43838W        W10247  11.397  38.958   1.830
43839W        W10248   7.646  16.498  10.213
43840W        W10249   0.013  30.156  13.048
43841W        W10250  36.758  17.759  13.328
43842W        W10251  10.291  10.407  14.836
43843W        W10252   5.841   6.251   0.344
43844W        W10253  24.446  20.497   2.467
43845W        W10254  17.625  17.832   4.518
43846W        W10255  32.659   9.653   1.871
43847W        W10256  11.350  21.660  10.457
43848W        W10257   1.311  15.750  13.909
43849W        W10258  12.327  21.253  14.166
43850W        W10259   5.832  33.610   0.960
43851W        W10260   7.118  11.812   2.140
43852W        W10261  37.276  18.496  13.947
43853W        W10262   7.832  24.726  14.452
43854W        W10263  15.166  31.360  11.012
43855W        W10264  32.425   4.437  12.195
43856W        W10265   7.462  14.168  14.826
43857W        W10266  13.544  24.872   2.727
43858W        W10267  12.810   6.330   3.801
43859W        W10268  20.191  32.352   1.235
43860W        W10269  31.045   4.389   2.336
43861W        W10270  29.129  43.969   3.610
43862W        W10271   0.887  35.530  14.928
43863W        W10272   1.274  25.834   4.708
43864W        W10273  43.415  20.712   2.183
43865W        W10274  30.648  42.234   3.625
43866W        W10275  43.243  16.540  14.910
43867W        W10276   3.426   9.810  11.690
43868W        W10277  39.300  20.533   0.287
43869W        W10278  13.398  26.430   4.691
43870W        W10279   0.996  19.630  12.985
43871W        W10280  21.534   9.841   4.137
43872W        W10281  44.277   6.828  10.740
43873W        W10282  30.571   1.486   3.206
43874W        W10283  37.840   3.990  12.804
43875W        W10284   1.509  24.254   3.684
43876W        W10285  23.741  40.864  13.447
43877W        W10286  40.444  15.234   4.277
43878W        W10287  13.596  14.131  14.178
43879W        W10288  10.785  26.983   1.090
43880W        W10289  23.124  12.335  11.946
43881W        W10290  29.719  18.764  14.772
43882W        W10291  35.542  33.102  13.850
43883W        W10292  20.747   6.200   3.805
43884W        W10293  31.694  36.074  11.804
43885W        W10294  22.071  18.162  10.767
43886W        W10295  11.722  30.191   3.210
43887W        W10296  42.306   3.009  13.526
43888W        W10297  40.615  35.968  13.823
43889W        W10298  12.024   1.714   0.256
43890W        W10299   0.834  16.557   4.552
43891W        W10300  31.435  17.667  11.911
43892W        W10301   5.514  43.022   1.957
43893W        W10302  40.604  33.744   2.672
43894W        W10303  17.316  30.079   4.670
43895W        W10304  30.561  20.329  12.841
43896W        W10305  31.526  25.987   4.161
43897W        W10306  28.575  28.365   3.142
43898W        W10307  15.212  16.315  11.929
43899W        W10308  25.279  21.873  12.100
43900W        W10309  33.622  42.327   0.495
43901W        W10310   6.437  34.856  14.994
43902W        W10311  23.715  20.896  10.228
43903W        W10312  44.049  43.406  12.611
43904W        W10313  36.009  19.650   1.011
43905W        W10314  14.164  35.366   1.421
43906W        W10315  32.500  44.803   1.742
43907W        W10316  13.293   0.880  13.762
43908W        W10317  41.401  31.180  12.667
43909W        W10318  31.212  24.718   2.204
43910W        W10319   1.541   6.697  13.998
43911W        W10320   3.034  41.375   0.102
43912W        W10321  19.791   3.979  14.081
43913W        W10322   2.355  34.212  11.190
43914W        W10323  33.415  14.601   2.102
43915W        W10324  36.590  24.069   0.757
43916W        W10325   3.338  32.792   0.241
43917W        W10326   3.356  11.078  13.071
43918W        W10327  10.753  10.273  11.943
43919W        W10328   2.694  30.759   2.793
43920W        W10329  34.418  31.991   1.915
43921W        W10330  23.976  14.838  13.818
43922W        W10331  21.672   6.875  13.861
43923W        W10332   3.481  12.367  11.575
43924W        W10333   9.807  24.690  12.480
43925W        W10334  31.216  30.531  13.283
43926W        W10335  41.026  30.073   4.358
43927W        W10336  37.338  40.016   0.878
43928W        W10337   9.132   2.232   0.340
43929W        W10338  12.397  23.258  10.793
43930W        W10339  14.050  41.203   4.992
43931W        W10340  13.263   9.728  14.306
43932W        W10341   8.796  34.689  11.582
43933W        W10342  22.601  32.605   1.289
43934W        W10343  28.276  36.659  14.858
43935W        W10344  15.601  12.754   4.856
43936W        W10345  38.641   7.469  10.584
43937W        W10346  14.629  16.747   2.407
43938W        W10347   5.133  20.355  13.562
43939W        W10348   3.064  13.803  13.424
43940W        W10349   7.967  29.334   1.825
43941W        W10350   9.707   5.272   0.447
43942W        W10351  11.092   8.910  13.436
43943W        W10352  13.778  12.821   3.714
43944W        W10353  38.569  10.662   2.452
43945W        W10354  44.435  41.801   0.655
43946W        W10355  36.950  12.639  11.246
43947W        W10356  19.324   3.342  13.321
43948W        W10357  30.232  12.309   0.689
43949W        W10358  11.656  10.086  14.687
43950W        W10359  14.297  20.300   2.982
43951W        W10360  21.665  24.015   3.258
43952W        W10361  24.969  21.568  14.377
43953W        W10362   2.758   6.589  11.201
43954W        W10363  35.828  24.516  13.867
43955W        W10364   3.047   0.436   1.320
43956W        W10365  35.498  19.513   9.704
43957W        W10366  15.595   9.690   3.778
43958W        W10367  37.906  28.094  10.888
43959W        W10368  37.879   6.149   3.765
43960W        W10369  27.504  10.903  11.125
43961W        W10370  18.436   7.938  11.079
43962W        W10371  14.193  39.337   0.318
43963W        W10372  32.269  17.019  14.983
43964W        W10373   0.782   4.720   2.197
43965W        W10374  37.344  10.871  11.039
43966W        W10375   7.258   1.725   3.094
43967W        W10376  21.235  34.655  11.620
43968W        W10377   8.681  35.418  11.104
43969W        W10378  35.365  43.981  14.047
43970W        W10379  41.197  44.330  11.145
43971W        W10380   0.664   0.955  11.989
43972W        W10381  13.507  20.268  13.257
43973W        W10382  40.070  43.806  12.132
43974W        W10383  36.073   2.758  12.395
43975W        W10384   4.726  10.087   1.158
43976W        W10385  19.489  44.146  12.009
43977W        W10386  35.064  20.124   2.587
43978W        W10387   1.311  17.870  10.734
43979W        W10388  17.954  32.523   3.323
43980W        W10389  18.266  14.158   3.681
43981W        W10390   0.946  39.804  14.315
43982W        W10391  26.773  31.486  13.000
43983W        W10392  16.523   2.840  13.287
43984W        W10393  38.628  21.149  12.364
43985W        W10394  34.351  14.725   2.249
43986W        W10395  36.331  32.560   0.799
43987W        W10396  10.494  27.407   2.724
43988W        W10397  35.735  29.492   2.336
43989W        W10398  27.186  17.718   3.811
43990W        W10399  38.925  17.883  11.618
43991W        W10400  13.127  14.317   1.300
43992W        W10401   5.891  19.071   2.790
43993W        W10402   9.101  22.122   0.258
43994W        W10403  10.750  41.439  12.284
43995W        W10404   9.626  35.516  13.480
43996W        W10405  25.752  40.314   1.118
43997W        W10406  11.099  42.757  14.323
43998W        W10407  32.554  37.844  12.534
43999W        W10408  34.650  30.538  13.853
44000W        W10409  12.405  31.824  14.441
44001W        W10410  29.597  20.868  14.228
44002W        W10411  25.008  29.207  12.451
44003W        W10412  17.610  28.855  13.383
44004W        W10413  31.834  21.705  13.919
44005W        W10414   9.686  21.244  10.944
44006W        W10415  33.912  13.903  12.127
44007W        W10416  39.226   0.863   4.177
44008W        W10417  25.034  33.933  12.185
44009W        W10418   7.452  23.114   0.339
44010W        W10419  33.151   3.045   0.205
44011W        W10420  17.188  20.308   3.346
44012W        W10421  29.668   8.694  12.051
44013W        W10422   6.374  38.344   0.496
44014W        W10423   1.180  43.736   3.206
44015W        W10424  24.018  12.849  10.753
44016W        W10425  18.999   7.901   0.731
44017W        W10426   5.275  22.062   2.753
44018W        W10427   7.404  39.841   4.155
44019W        W10428   5.888  33.487  14.912
44020W        W10429  38.988  29.140   2.336
44021W        W10430  28.339   4.006   1.369
44022W        W10431  26.609  39.527   0.993
44023W        W10432  13.373  36.800   5.585
44024W        W10433  12.201  40.921  11.586
44025W        W10434  30.819  21.270  10.730
44026W        W10435  11.393  44.062   3.620
44027W        W10436  30.564   0.531  10.738
44028W        W10437  15.745  27.430  14.793
44029W        W10438  43.441  23.450   1.180
44030W        W10439  37.009  19.045   3.214
44031W        W10440   7.657   0.455  14.446
44032W        W10441  10.628  40.531  11.849
44033W        W10442  33.449  41.806  11.832
44034W        W10443   2.793  23.534  13.722
44035W        W10444  40.536   0.130   0.443
44036W        W10445  17.644  28.037   3.323
44037W        W10446  39.852  31.181   0.789
44038W        W10447   8.179   0.023   0.523
44039W        W10448  37.911  32.876   1.722
44040W        W10449   4.482   5.318  11.025
44041W        W10450   8.843  18.692  10.701
44042W        W10451  35.637  36.859   3.280
44043W        W10452  42.028  37.432   4.955
44044W        W10453  34.646  43.813   3.499
44045W        W10454  27.770  13.766   2.724
44046W        W10455  13.226   4.174  12.823
44047W        W10456  11.725   2.059  14.899
44048W        W10457  41.324   1.403   0.394
44049W        W10458  39.151   6.467  12.066
44050W        W10459  10.301   9.252  10.651
44051W        W10460  23.598  39.426  11.290
44052W        W10461  10.282  18.719  14.177
44053W        W10462   2.852  19.512  13.138
44054W        W10463  39.304   4.969  11.600
44055W        W10464  27.101  33.593  14.395
44056W        W10465   7.686  43.481   1.874
44057W        W10466   3.153  21.779   4.305
44058W        W10467  24.727  18.432   0.223
44059W        W10468   6.456  12.197  14.300
44060W        W10469  32.949  12.273   4.537
44061W        W10470  17.240  23.049   3.089
44062W        W10471  17.967  39.437  13.041
44063W        W10472  36.119   6.226  11.758
44064W        W10473  33.863  13.995  11.201
44065W        W10474   4.395   4.829   3.718
44066W        W10475  17.227  42.413  11.165
44067W        W10476  42.867  43.335  10.718
44068W        W10477  28.445  13.744   0.877
44069W        W10478  43.411  41.921  13.483
44070W        W10479  29.190  17.807  13.520
44071W        W10480   5.859  27.195   0.904
44072W        W10481  14.468  15.475   0.459
44073W        W10482  37.900  19.713  13.782
44074W        W10483  38.822  32.454  13.844
44075W        W10484   0.186  17.699   2.181
44076W        W10485  40.921  32.563   4.042
44077W        W10486   4.321  42.471   4.487
44078W        W10487  25.611   9.720  11.132
44079W        W10488  37.509  42.269   2.857
44080W        W10489  35.759   1.101  11.987
44081W        W10490   1.394   7.106   1.300
44082W        W10491  21.053  32.711   0.770
44083W        W10492   9.663  26.648   0.044
44084W        W10493  21.037  19.396   3.184
44085W        W10494  16.234  26.571  13.620
44086W        W10495  32.990  40.420  14.847
44087W        W10496   4.989   3.215   4.529
44088W        W10497  40.153  33.638  12.585
44089W        W10498  22.266  26.408  10.454
44090W        W10499  40.484  30.417   3.148
44091W        W10500  38.316   2.341  11.448
44092W        W10501  29.965  30.862   0.363
44093W        W10502   3.911   5.646   2.824
44094W        W10503  16.809  28.163  14.038
44095W        W10504  14.682  22.665   1.355
44096W        W10505   0.289  23.462  11.567
44097W        W10506  33.856  13.941   3.314
44098W        W10507  26.439  18.337  13.584
44099W        W10508  35.094  10.116  13.560
44100W        W10509   7.228  21.731  10.605
44101W        W10510  42.294  18.687   2.868
44102W        W10511   2.900  43.561   1.300
44103W        W10512  18.153  40.402  14.922
44104W        W10513   6.201   3.658   1.162
44105W        W10514  43.436  12.247   0.898
44106W        W10515  16.942  33.710  12.028
44107W        W10516  16.227   6.340   1.251
44108W        W10517  41.432  41.357   0.877
44109W        W10518  43.590   1.998  12.636
44110W        W10519  33.389  27.272  11.192
44111W        W10520  43.377   2.795   1.881
44112W        W10521  30.528  33.283   4.600
44113W        W10522  34.224  26.577  13.686
44114W        W10523  16.547  11.116  11.690
44115W        W10524   4.730  22.429   4.089
44116W        W10525   6.377  31.428  11.587
44117W        W10526  12.442  40.894   0.249
44118W        W10527  10.148  23.794   4.736
44119W        W10528  14.193  12.638  14.281
44120W        W10529  22.783  27.177   2.252
44121W        W10530   7.375  27.997  10.588
44122W        W10531  30.572  43.572   1.110
44123W        W10532  12.587  12.841  12.388
44124W        W10533  40.548  16.076   4.493
44125W        W10534  11.255   5.901   3.250
44126W        W10535  40.820  41.784  12.028
44127W        W10536   3.900  17.748   4.535
44128W        W10537  12.886   4.799   2.678
44129W        W10538  44.189  24.682  11.946
44130W        W10539  21.032  24.436  12.977
44131W        W10540  25.159  34.292   3.759
44132W        W10541   9.947   1.663  13.991
44133W        W10542  32.661  27.431  13.448
44134W        W10543  24.954  24.380  11.238
44135W        W10544   7.703  30.278  14.344
44136W        W10545  28.544   5.338   0.292
44137W        W10546  26.605   2.509  14.804
44138W        W10547  40.404  18.860   0.588
44139W        W10548   3.711  31.890   1.733
44140W        W10549   0.657  34.087  13.445
44141W        W10550  11.176  25.324  12.366
44142W        W10551   1.397   7.753  14.217
44143W        W10552  29.967   3.836   2.919
44144W        W10553  34.562   2.776  12.604
44145W        W10554  31.090  11.693  10.179
44146W        W10555  10.847  18.509  11.560
44147W        W10556  35.319  35.982  12.136
44148W        W10557   2.826  30.904  14.502
44149W        W10558  41.386   7.441   3.260
44150W        W10559  41.942   0.624   4.602
44151W        W10560  28.627  35.888   3.433
44152W        W10561  10.968   3.820  14.754
44153W        W10562  14.525  22.966   0.689
44154W        W10563   3.453  35.958  11.685
44155W        W10564  25.060  28.353  13.084
44156W        W10565  42.672   9.713   2.746
44157W        W10566  42.529  25.727   4.806
44158W        W10567  44.008  23.491  14.177
44159W        W10568   1.109   0.448   3.706
44160W        W10569  42.532  33.621  11.368
44161W        W10570  23.552  25.125  12.456
44162W        W10571  25.005  30.473   1.580
44163W        W10572  23.068   1.354   2.588
44164W        W10573  37.967  10.140   0.801
44165W        W10574   7.713  31.207   4.484
44166W        W10575  44.833  22.142   2.836
44167W        W10576  23.491  26.007   1.715
44168W        W10577   0.120  37.769   2.808
44169W        W10578  37.140  10.511  13.878
44170W        W10579   0.320  13.896  14.484
44171W        W10580  36.640  21.531  11.946
44172W        W10581  36.482  40.822   3.095
44173W        W10582  41.402   8.911   0.078
44174W        W10583  39.140  37.638  14.653
44175W        W10584  36.355   4.182   1.381
44176W        W10585  42.809  43.876  12.413
44177W        W10586  20.968  25.466   0.349
44178W        W10587  24.014  33.995  14.912
44179W        W10588  18.044  31.706   1.755
44180W        W10589   7.853  30.456  13.498
44181W        W10590   3.316  28.642  10.784
44182W        W10591  28.122   2.616  14.449
44183W        W10592  24.417  40.523   4.248
44184W        W10593   1.373  20.020  14.435
44185W        W10594  33.089  28.559  10.855
44186W        W10595  15.369  21.421   3.091
44187W        W10596  39.946   6.945   4.376
44188W        W10597  39.318   8.284   1.857
44189W        W10598  38.869  17.032  14.737
44190W        W10599  40.299  19.570  12.363
44191W        W10600  38.284  16.913   3.364
44192W        W10601  43.301  43.889  12.571
44193W        W10602  11.766   9.896  13.841
44194W        W10603  13.755  22.722  11.886
44195W        W10604  37.421   0.928  14.214
44196W        W10605  38.498  24.013  14.520
44197W        W10606  23.023   2.098   2.392
44198W        W10607  28.763  32.654  13.330
44199W        W10608  26.403  32.078   0.959
44200W        W10609  44.008  32.594  11.850
44201W        W10610  31.947  34.061   2.741
44202W        W10611  22.658  23.636   2.801
44203W        W10612  35.946  24.487  12.928
44204W        W10613  19.194  37.752   1.716
44205W        W10614  23.772  30.714   0.748
44206W        W10615  11.794  35.489  11.604
44207W        W10616   3.894  25.522   2.233
44208W        W10617   4.146  20.672   4.201
44209W        W10618  27.593  18.621   0.017
44210W        W10619  42.960   5.454   3.929
44211W        W10620  19.968  38.323   2.382
44212W        W10621  26.901  39.842  12.441
44213W        W10622  29.050  11.568   4.627
44214W        W10623  43.862   3.885   0.906
44215W        W10624  16.582   7.636  12.555
44216W        W10625  36.467  31.956   2.640
44217W        W10626  26.002  31.786  13.998
44218W        W10627  38.423  43.067  12.414
44219W        W10628  42.307  18.528  13.354
44220W        W10629  37.890  23.570   2.063
44221W        W10630  38.558   8.043   3.759
44222W        W10631  27.471  39.371   2.685
44223W        W10632   6.271   8.508   3.277
44224W        W10633  13.712  19.076   4.481
44225W        W10634  18.336  19.588  13.161
44226W        W10635  25.195  10.717  13.771
44227W        W10636  17.359  25.966   1.334
44228W        W10637  42.815  26.045  10.878
44229W        W10638   1.774  38.430   2.078
44230W        W10639   4.021  40.014  13.413
44231W        W10640   9.685  35.413   0.116
44232W        W10641  37.330  20.918   0.290
44233W        W10642  13.932  30.731   3.873
44234W        W10643   9.117  36.571   0.500
44235W        W10644  25.946  15.659  12.864
44236W        W10645  26.160   2.288   3.775
44237W        W10646  12.280  40.731  12.918
44238W        W10647  10.572  26.441   4.126
44239W        W10648  28.218  29.550  12.551
44240W        W10649  41.446  13.081   3.701
44241W        W10650   4.930   3.401  14.560
44242W        W10651  42.015  37.016  12.530
44243W        W10652  41.847  42.958   1.757
44244W        W10653  41.303  32.040  14.411
44245W        W10654   0.683  22.930   4.413
44246W        W10655  29.940  34.082  14.762
44247W        W10656  34.364  25.689   4.822
44248W        W10657   8.442  12.655   0.958
44249W        W10658  32.699   6.134   3.733
44250W        W10659  12.916   8.806  14.439
44251W        W10660  16.753   3.804  13.110
44252W        W10661  29.650  40.251   1.200
44253W        W10662  38.919  30.274   0.135
44254W        W10663  29.205  44.035   2.780
44255W        W10664  42.896   6.656   0.336
44256W        W10665   4.390  37.345   3.954
44257W        W10666  23.486  20.580   3.295
44258W        W10667   3.020  13.789   1.639
44259W        W10668  20.793   7.712  11.596
44260W        W10669   0.380  37.406   2.329
44261W        W10670  42.055  29.266   0.910
44262W        W10671   2.973  32.950  10.815
44263W        W10672   8.728  19.757  13.387
44264W        W10673  42.555   0.412  14.272
44265W        W10674  42.032   6.764   0.322
44266W        W10675   6.578  16.770   4.622
44267W        W10676   0.840  30.993   0.434
44268W        W10677   3.619  27.876   0.044
44269W        W10678   2.309  39.269   4.770
44270W        W10679  42.002   9.347  12.546
44271W        W10680  30.433  19.650   2.844
44272W        W10681  22.049  43.797   4.511
44273W        W10682  40.249  38.530  12.951
44274W        W10683  43.605  27.305   1.288
44275W        W10684  33.753  33.581   4.719
44276W        W10685  35.744  39.997   0.391
44277W        W10686  28.210  42.883   4.346
44278W        W10687  17.689  35.609   3.155
44279W        W10688   6.179   4.045  11.988
44280W        W10689   6.293  36.494  10.618
44281W        W10690  11.204  33.831  12.643
44282W        W10691   1.774   3.195  14.339
44283W        W10692   1.449   1.464  14.713
44284W        W10693  42.362  43.900  12.144
44285W        W10694  27.616  43.468  10.393
44286W        W10695   4.375  12.353  14.459
44287W        W10696  12.133  24.746   4.094
44288W        W10697   0.809  35.804  12.571
44289W        W10698  36.421   6.237  13.624
44290W        W10699  37.063  41.191  13.959
44291W        W10700  41.982  38.320  13.924
44292W        W10701  15.154  40.079   0.795
44293W        W10702  32.701   4.294   2.186
44294W        W10703  26.999  22.574   3.115
44295W        W10704  39.490  26.790   1.162
44296W        W10705  27.605  24.498  13.818
44297W        W10706   1.923  34.872  14.397
44298W        W10707  14.197   0.080  10.672
44299W        W10708  31.989  43.670  11.901
44300W        W10709  10.830   7.453   2.660
44301W        W10710  16.006  40.548  11.603
44302W        W10711  28.988  38.586  14.914
44303W        W10712   5.645  43.832  11.031
44304W        W10713  16.158  28.652  12.556
44305W        W10714  44.807  44.771  11.996
44306W        W10715   4.368  35.337   0.441
44307W        W10716  44.021  10.172   3.719
44308W        W10717  29.485   1.438  13.708
44309W        W10718  31.086  31.656  13.152
44310W        W10719   5.833   4.461  14.204
44311W        W10720   6.675  40.552   3.312
44312W        W10721   6.702   5.327  13.825
44313W        W10722  15.971  27.054   1.200
44314W        W10723  36.018  29.941  10.790
44315W        W10724  41.899  41.407  11.529
44316W        W10725   0.589  30.461   4.661
44317W        W10726  31.443  43.287   3.645
44318W        W10727   5.036  11.155   1.478
44319W        W10728   6.893   1.318   3.075
44320W        W10729  32.086  22.699   0.537
44321W        W10730  39.277  35.892  10.523
44322W        W10731  23.569  17.554   0.726
44323W        W10732  38.355  23.674  11.179
44324W        W10733  22.066  24.440   1.881
44325W        W10734  35.574  27.460  11.614
44326W        W10735  12.133  18.821  12.658
44327W        W10736  34.109  34.294  11.367
44328W        W10737  30.380  26.570  14.756
44329W        W10738  11.657  40.783  10.776
44330W        W10739  10.662  16.637  12.050
44331W        W10740  43.386  11.010  14.008
44332W        W10741  43.117  26.978  13.984
44333W        W10742   5.876  18.334   0.715
44334W        W10743  42.467  23.488  14.879
44335W        W10744  19.048  19.874   1.918
44336W        W10745   1.840  24.334   4.071
44337W        W10746  27.516   9.386   3.251
44338W        W10747   4.362  42.587   1.792
44339W        W10748  10.364  12.599   2.134
44340W        W10749  36.430  20.091   0.496
44341W        W10750  19.729  12.294  12.005
44342W        W10751  30.651  42.060   4.772
44343W        W10752  14.274  28.113   0.483
44344W        W10753  28.835  40.742  10.991
44345W        W10754  10.794  38.334  10.873
44346W        W10755  42.715  43.303   2.318
44347W        W10756  19.166  28.075  11.505
44348W        W10757  38.426  18.925  12.343
44349W        W10758   8.187  29.150   0.120
44350W        W10759  43.448  38.343   0.317
44351W        W10760  30.216  44.044  11.628
44352W        W10761  28.212  16.626  12.295
44353W        W10762  17.724  40.766   0.025
44354W        W10763  18.143   8.275  13.362
44355W        W10764  26.987  22.469  14.537
44356W        W10765  11.971   4.283  12.657
44357W        W10766  22.126   9.478   0.974
44358W        W10767   8.416  44.035   4.657
44359W        W10768   3.779   9.086  12.564
44360W        W10769   6.960  39.555  14.210
44361W        W10770  13.068   3.010   1.803
44362W        W10771  21.660   6.882  12.781
44363W        W10772   0.305  37.291   2.828
44364W        W10773  42.271  15.407  13.477
44365W        W10774  29.079  12.757  13.431
44366W        W10775   2.963  14.193   2.138
44367W        W10776  17.996  23.503   0.803
44368W        W10777  15.502  21.279   0.567
44369W        W10778   7.476  27.096  13.895
44370W        W10779  42.494  17.650   2.324
44371W        W10780  18.800  32.832  10.794
44372W        W10781  13.855  17.802   0.416
44373W        W10782  21.018  31.995  12.947
44374W        W10783   4.887  31.881   0.732
44375W        W10784  12.101  14.013   1.253
44376W        W10785  32.458  32.597   3.329
44377W        W10786   5.458  42.217   2.378
44378W        W10787   6.672  27.126  14.302
44379W        W10788  21.285   6.183   0.883
44380W        W10789  31.918  44.287   1.283
44381W        W10790   2.274  11.053  13.124
44382W        W10791  36.165  26.607   0.026
44383W        W10792  36.493  27.898  13.081
44384W        W10793  22.692  24.208  12.351
44385W        W10794   2.696  38.591   0.937
44386W        W10795   8.430  39.475  12.411
44387W        W10796   9.344  10.839  14.006
44388W        W10797  10.820  28.416  11.093
44389W        W10798  34.956   8.198  12.725
44390W        W10799  18.357  27.490   3.120
44391W        W10800   7.530   9.163   1.750
44392W        W10801  21.900   7.077   3.620
44393W        W10802   2.817   9.947   0.817
44394W        W10803  23.124   4.399  12.959
44395W        W10804  24.717  20.031   2.632
44396W        W10805  18.132  18.548   1.169
44397W        W10806  33.937  44.680  12.979
44398W        W10807  44.898   4.029  10.726
44399W        W10808  43.916  25.050   1.490
44400W        W10809  14.670  10.663   4.351
44401W        W10810  22.405   2.562   1.418
44402W        W10811  42.831  29.564   2.175
44403W        W10812  17.143  18.105  10.738
44404W        W10813  20.423  43.046  14.559
44405W        W10814  29.592  24.019   2.311
44406W        W10815  30.797   2.319   3.353
44407W        W10816  33.592  42.278  13.883
44408W        W10817  40.572  44.994   1.501
44409W        W10818  17.138  19.891   1.111
44410W        W10819  29.473  35.318  13.824
44411W        W10820  12.642  43.019  14.091
44412W        W10821  40.466   0.510   1.945
44413W        W10822  33.740  33.152  14.933
44414W        W10823   2.197  16.062  12.993
44415W        W10824  44.992   8.694   4.107
44416W        W10825  42.802  14.796  12.817
44417W        W10826  35.768  31.714  13.815
44418W        W10827   8.995  22.779  11.454
44419W        W10828  14.388   0.255   0.056
44420W        W10829  32.351  10.282   3.270
44421W        W10830   2.906  34.980   4.473
44422W        W10831  31.564   0.384   0.192
44423W        W10832  18.173  15.107   1.129
44424W        W10833  24.014   0.250  13.800
44425W        W10834  43.223  11.118  10.072
44426W        W10835   0.710  17.748   9.899
44427W        W10836  40.052  33.731  13.098
44428W        W10837   3.906  21.077  13.954
44429W        W10838  15.397  11.710   4.148
44430W        W10839  27.530  25.001  13.887
44431W        W10840  22.902  17.320   3.561
44432W        W10841   4.784   8.973  10.077
44433W        W10842   9.757  43.040  10.990
44434W        W10843   3.867  17.285  13.539
44435W        W10844  24.705  14.932  13.369
44436W        W10845  39.332   5.291  14.409
44437W        W10846   1.782  30.602   3.353
44438W        W10847  34.043  31.945  11.588
44439W        W10848   1.951   1.228   1.074
44440W        W10849  21.735   4.151   1.490
44441W        W10850  35.180  43.874   4.049
44442W        W10851  23.156  12.612  13.043
44443W        W10852  37.616  18.802   4.115
44444W        W10853  34.180  22.106  11.048
44445W        W10854  20.575  27.425   1.462
44446W        W10855  35.212  24.037   2.008
44447W        W10856  35.362   8.770   0.285
44448W        W10857   9.869  17.183   3.249
44449W        W10858  37.642  13.210  14.787
44450W        W10859   5.347  21.240  11.527
44451W        W10860  30.185   1.310   4.504
44452W        W10861  16.206  19.843  10.167
44453W        W10862   5.809  10.181   2.819
44454W        W10863  20.715  10.734   4.455
44455W        W10864   0.920   5.708   0.730
44456W        W10865  22.331   6.328   1.105
44457W        W10866  11.291  17.790  14.949
44458W        W10867  36.860  26.774  12.512
44459W        W10868  32.590  14.751  11.637
44460W        W10869   4.682  25.196  13.407
44461W        W10870  15.110  30.423  10.932
44462W        W10871  43.769  35.651   2.751
44463W        W10872  15.243  15.291   3.948
44464W        W10873  35.710  31.001   4.574
44465W        W10874   2.344  17.625  11.001
44466W        W10875  32.863  31.049  11.980
44467W        W10876  24.699  32.237   0.993
44468W        W10877   3.642  17.306   1.786
44469W        W10878  44.953   6.123  11.581
44470W        W10879  13.187   5.362  12.462
44471W        W10880   9.768  29.412  12.952
44472W        W10881  31.361  27.554   0.894
44473W        W10882  28.863  37.250   2.940
44474W        W10883  12.833  44.706  13.702
44475W        W10884  14.709   9.414  12.429
44476W        W10885  38.978   2.976  11.549
44477W        W10886  30.455  39.774   1.000
44478W        W10887   0.854  21.779  14.598
44479W        W10888  21.353  15.956  10.099
44480W        W10889  11.159  44.743   5.501
44481W        W10890  42.054  24.193  13.074
44482W        W10891  29.278  34.653  14.481
44483W        W10892  26.181   2.099  12.940
44484W        W10893  40.635  22.292  11.217
44485W        W10894   5.998   6.014  14.887
44486W        W10895  43.528   9.378  11.013
44487W        W10896   1.700   9.295   4.397
44488W        W10897  17.528  41.972  12.433
44489W        W10898   4.211  22.528   3.298
44490W        W10899  10.444  41.894  11.696
44491W        W10900  37.299   3.325  14.985
44492W        W10901  20.238   2.350   3.648
44493W        W10902   2.177  24.531   1.380
44494W        W10903   7.284  31.557  12.540
44495W        W10904  40.694  15.659  13.125
44496W        W10905  12.976   3.983  13.536
44497W        W10906  25.088  34.003  11.191
44498W        W10907  25.700  37.689  13.970
44499W        W10908  28.031  34.495   4.520
44500W        W10909  42.953  39.818  13.555
44501W        W10910  34.134  19.720  12.788
44502W        W10911   2.238  26.331   3.259
44503W        W10912  28.217  40.000   4.007
44504W        W10913  34.832   5.293   3.980
44505W        W10914  21.909   2.660   1.315
44506W        W10915  36.683   5.815  13.499
44507W        W10916  36.916   2.577   4.274
44508W        W10917  10.319   3.947  12.115
44509W        W10918  32.175  10.203   2.680
44510W        W10919  32.788  42.504   3.705
44511W        W10920  34.656  34.824  14.749
44512W        W10921   7.913  14.340   4.296
44513W        W10922  23.977  26.700   3.584
44514W        W10923  29.244   9.649  11.653
44515W        W10924  29.618  18.462  13.265
44516W        W10925  28.089  11.062  13.419
44517W        W10926  30.898  15.108  12.083
44518W        W10927   4.805  40.788  14.035
44519W        W10928  17.720  10.135  13.452
44520W        W10929  27.486  37.443   0.881
44521W        W10930  36.889   1.471  12.973
44522W        W10931  15.721   5.664   2.689
44523W        W10932  30.112  38.308   4.269
44524W        W10933  11.966   0.730  13.350
44525W        W10934  44.842  13.539  12.440
44526W        W10935  23.540  27.890  10.725
44527W        W10936   8.799  39.443  12.762
44528W        W10937  35.470  18.636  14.521
44529W        W10938  31.491  17.250  11.001
44530W        W10939  40.025  18.364  14.333
44531W        W10940  17.918  34.276  11.099
44532W        W10941  30.076  29.016  14.831
44533W        W10942   8.734   8.724  12.558
44534W        W10943  28.723  30.977  12.372
44535W        W10944  40.680  44.799  10.623
44536W        W10945  36.368   0.913  10.726
44537W        W10946  32.898   7.286   1.865
44538W        W10947  22.645  32.179   4.557
44539W        W10948   8.240  26.930   2.872
44540W        W10949   0.795  14.336   3.190
44541W        W10950  23.461  23.702  11.090
44542W        W10951  21.163  44.749   2.632
44543W        W10952  25.591   0.303  14.241
44544W        W10953  30.968  22.614  14.999
44545W        W10954  16.079   0.473  11.659
44546W        W10955   0.322   6.028  12.784
44547W        W10956  23.001  12.851  10.622
44548W        W10957  38.943  13.046  12.463
44549W        W10958  33.635  11.701  13.919
44550W        W10959  20.838  23.400   2.383
44551W        W10960  11.722  21.597   4.972
44552W        W10961  10.106  18.937   4.532
44553W        W10962   2.341  13.324   2.709
44554W        W10963  41.467  13.165   0.004
44555W        W10964  25.755  30.090   4.103
44556W        W10965  32.671   0.551  11.138
44557W        W10966   4.952  42.123   2.756
44558W        W10967  24.053  39.890   0.842
44559W        W10968  26.115  27.186  13.752
44560W        W10969   8.442  26.764  11.428
44561W        W10970  15.713   9.637  10.764
44562W        W10971  37.659  44.222   2.692
44563W        W10972   7.148  17.796   3.636
44564W        W10973  33.313  17.180  12.882
44565W        W10974   7.447  16.087   2.394
44566W        W10975  18.233  44.393  14.519
44567W        W10976   4.283  25.273   1.886
44568W        W10977  13.698  25.705  11.472
44569W        W10978  14.207   9.923  11.947
44570W        W10979  15.146  21.132  12.876
44571W        W10980  24.557  14.098  11.462
44572W        W10981  36.119   2.262   0.882
44573W        W10982  18.023  38.334   9.778
44574W        W10983   7.094   2.286  14.375
44575W        W10984  30.544   7.407  12.453
44576W        W10985   9.775  42.101   3.424
44577W        W10986  41.387  40.964  11.242
44578W        W10987  35.827  16.573  12.941
44579W        W10988   6.687  10.242  11.461
44580W        W10989  31.407   7.602  11.470
44581W        W10990  11.381  36.904   0.658
44582W        W10991  21.509   9.378   0.351
44583W        W10992  22.519  44.430   4.122
44584W        W10993  34.393  23.641  14.919
44585W        W10994  37.161  16.706   5.431
44586W        W10995  25.736  16.745  10.642
44587W        W10996  35.255  36.447   1.618
44588W        W10997  20.435   2.371   0.692
44589W        W10998   8.779  43.637  14.579
44590W        W10999  32.305  27.414   0.867
44591W        W11000   4.227   1.847  11.242
44592W        W11001   4.862  29.522   1.989
44593W        W11002  30.164  21.766   3.194
44594W        W11003  13.078  44.444   1.638
44595W        W11004   7.472   0.260   3.898
44596W        W11005  42.368  41.242   2.309
44597W        W11006  34.556  44.476   3.889
44598W        W11007  16.722  40.635   4.145
44599W        W11008  41.503   0.556  12.212
44600W        W11009   1.789  25.436   0.466
44601W        W11010  29.125  10.722  12.145
44602W        W11011   9.207  22.975  12.596
44603W        W11012  11.353  16.230   3.771
44604W        W11013  40.108  21.021  12.621
44605W        W11014  16.393  40.684  11.146
44606W        W11015  21.237  31.840   3.547
44607W        W11016   3.814  13.342  12.593
44608W        W11017  12.308  35.559  11.890
44609W        W11018  30.585  33.417  11.483
44610W        W11019  24.242  39.787   3.262
44611W        W11020  37.533  41.210  12.891
44612W        W11021  38.037  10.126  11.170
44613W        W11022  42.761  44.681   2.793
44614W        W11023  18.563  44.336   0.878
44615W        W11024  13.706  21.815  12.624
44616W        W11025  32.974  20.090   0.395
44617W        W11026   7.145  42.440   0.283
44618W        W11027  23.823  37.110   4.443
44619W        W11028  13.011  18.492  11.670
44620W        W11029  41.428   1.802   3.572
44621W        W11030  10.341  16.316   2.274
44622W        W11031  28.644  43.258   2.634
44623W        W11032  27.103  39.856   1.833
44624W        W11033  24.884  14.194   0.278
44625W        W11034   3.668   0.563  13.872
44626W        W11035  26.405   7.056   2.508
44627W        W11036  37.335  28.477   4.216
44628W        W11037  10.846  12.540   4.248
44629W        W11038  32.792  21.520   2.778
44630W        W11039   9.884   4.686  13.315
44631W        W11040  21.951  12.370   3.701
44632W        W11041  13.194  34.035   3.835
44633W        W11042   0.794  37.559  11.324
44634W        W11043  14.965  10.301  14.810
44635W        W11044   1.965  34.891   2.640
44636W        W11045  24.428   0.425  14.048
44637W        W11046   8.934  32.173   1.826
44638W        W11047  35.062  25.701   3.775
44639W        W11048  39.141  43.191  11.475
44640W        W11049  33.399   5.784  12.401
44641W        W11050  35.548  21.640   4.282
44642W        W11051  40.947  43.939  12.468
44643W        W11052  33.589  27.791  10.353
44644W        W11053  41.394  19.888   3.665
44645W        W11054  29.994  41.406  13.281
44646W        W11055   7.013  13.875   0.409
44647W        W11056  24.854  21.984  14.756
44648W        W11057   3.133  37.544   2.822
44649W        W11058  29.683  36.185   2.250
44650W        W11059  28.436  33.596   1.471
44651W        W11060  37.559  19.100  14.760
44652W        W11061  10.851  41.562  11.785
44653W        W11062  10.881  43.398  11.592
44654W        W11063   4.193  43.446   0.348
44655W        W11064  16.737  27.158  14.200
44656W        W11065  37.521  18.776  10.686
44657W        W11066   7.106   2.994   2.251
44658W        W11067   2.225  35.648  11.173
44659W        W11068   4.183  18.585  12.394
44660W        W11069   0.740  40.010  12.911
44661W        W11070  43.849  20.766   1.893
44662W        W11071  43.078  13.289  13.053
44663W        W11072  39.409  39.887   1.970
44664W        W11073   8.369  25.663  13.051
44665W        W11074  27.682   1.100   3.459
44666W        W11075  36.705   4.349  13.670
44667W        W11076   8.314   4.495  12.634
44668W        W11077  19.965  17.982   0.878
44669W        W11078   9.438   8.199  13.981
44670W        W11079  10.928  32.880   3.075
44671W        W11080  39.057  35.252  11.578
44672W        W11081   1.793  20.704  11.543
44673W        W11082  11.048   7.256  10.519
44674W        W11083  23.711  40.467  12.985
44675W        W11084  34.762  25.036  12.380
44676W        W11085  11.703  33.447   9.291
44677W        W11086  12.734  34.616  12.897
44678W        W11087  34.950  44.972   1.832
44679W        W11088  10.635   4.508  14.817
44680W        W11089  29.021  26.815  10.909
44681W        W11090  40.684  26.311   2.729
44682W        W11091  12.478  40.293  14.578
44683W        W11092  13.090  21.854  13.424
44684W        W11093  34.928  18.129   0.118
44685W        W11094  16.612  26.477  14.976
44686W        W11095  14.797   4.960  13.833
44687W        W11096  32.300  43.261  11.003
44688W        W11097  28.226  22.007   3.145
44689W        W11098  23.578   0.497  13.894
44690W        W11099  14.299  40.561  11.563
44691W        W11100  17.376  34.501   4.544
44692W        W11101   8.671   4.006   2.900
44693W        W11102  17.088  31.411  13.828
44694W        W11103  22.232  19.646  14.366
44695W        W11104   3.401   2.772   0.827
44696W        W11105   5.917   3.108  12.081
44697W        W11106  25.083  12.175   3.798
44698W        W11107  15.836  43.046  14.338
44699W        W11108  29.568  42.223   1.862
44700W        W11109  10.372  12.190  14.374
44701W        W11110   6.275  40.533  11.024
44702W        W11111  12.821  31.320   2.130
44703W        W11112  24.414  10.128   2.822
44704W        W11113  40.802  42.955  12.908
44705W        W11114  23.920   5.809  14.561
44706W        W11115   0.371  44.423   4.549
44707W        W11116  40.414  14.218  10.732
44708W        W11117  23.116  43.917   1.388
44709W        W11118  41.296  36.366  13.495
44710W        W11119   5.930   8.183   3.114
44711W        W11120  40.070  30.446  14.015
44712W        W11121  42.649  22.680  11.437
44713W        W11122  31.013  14.086   4.213
44714W        W11123  35.596  27.965  11.626
44715W        W11124   5.030   9.237  14.826
44716W        W11125  41.561  19.595  14.267
44717W        W11126  16.685  18.093  12.856
44718W        W11127  37.508  36.610   4.141
44719W        W11128   6.292  33.677  12.507
44720W        W11129   2.704  22.018  10.726
44721W        W11130   8.811   1.699  10.636
44722W        W11131  30.179  28.140  11.146
44723W        W11132  12.126  43.175  13.074
44724W        W11133   5.761  35.464   4.281
44725W        W11134  19.992  32.634   2.649
44726W        W11135  17.589   7.866   1.780
44727W        W11136  28.942  13.286   0.418
44728W        W11137   7.744  27.142   5.196
44729W        W11138  23.726  10.290  10.434
44730W        W11139  31.025  35.423   0.524
44731W        W11140  18.182  42.795   0.756
44732W        W11141  41.859  33.364   2.343
44733W        W11142  20.091  22.253  14.586
44734W        W11143  38.686  27.476  14.409
44735W        W11144  42.386  44.691   2.333
44736W        W11145  12.560  32.780  13.446
44737W        W11146  25.991  42.369  14.690
44738W        W11147  38.101  22.973   2.962
44739W        W11148  18.838   7.295  14.440
44740W        W11149  30.211  38.628  13.308
44741W        W11150  25.052  17.826   3.172
44742W        W11151  17.993  30.456  11.687
44743W        W11152  12.337  11.605   2.403
44744W        W11153   8.433  15.208  13.386
44745W        W11154  36.966   2.408  11.514
44746W        W11155  19.688  10.141   1.703
44747W        W11156  36.451   2.786   4.491
44748W        W11157   3.391  27.933   3.690
44749W        W11158  10.145   9.576   0.341
44750W        W11159  11.110  29.193  13.047
44751W        W11160  19.673  32.609  11.967
44752W        W11161  21.317  30.122  12.586
44753W        W11162  23.745  39.097   2.754
44754W        W11163   9.922  30.803  12.491
44755W        W11164   0.436  17.293  10.797
44756W        W11165  24.679   1.230  14.396
44757W        W11166  23.177  44.706  12.521
44758W        W11167  14.722   3.647   9.594
44759W        W11168  44.679  13.899  12.771
44760W        W11169  31.006  33.667  13.667
44761W        W11170  38.631  33.822  13.864
44762W        W11171  42.359  28.574   4.308
44763W        W11172  36.267   6.695  12.081
44764W        W11173  35.333  37.728   1.424
44765W        W11174  39.716  20.350   3.661
44766W        W11175  35.945  33.232   2.734
44767W        W11176   4.479  43.863   0.137
44768W        W11177  24.581  40.986   3.147
44769W        W11178  34.384   9.212   3.714
44770W        W11179  11.810  34.022   2.130
44771W        W11180  10.459  25.101  14.372
44772W        W11181  37.351  34.036  13.420
44773W        W11182  14.317   5.668   0.352
44774W        W11183  44.950  43.358  11.852
44775W        W11184  12.403   2.679  14.432
44776W        W11185   8.142  17.677  12.478
44777W        W11186  31.487  11.610   2.500
44778W        W11187  31.444  38.596   1.276
44779W        W11188   2.193   2.874  12.472
44780W        W11189   4.330  24.987   0.082
44781W        W11190  43.241  29.141  12.579
44782W        W11191  26.463  33.691  13.691
44783W        W11192  34.070  37.151  13.949
44784W        W11193  40.256  24.087   4.302
44785W        W11194  37.840   8.979  14.886
44786W        W11195   1.951  24.770  10.770
44787W        W11196  11.991  34.456  10.718
44788W        W11197  29.937  21.033   2.745
44789W        W11198   3.048  22.022  11.699
44790W        W11199  41.533  23.353   4.505
44791W        W11200  28.545  24.733  10.059
44792W        W11201  30.117   9.952  10.321
44793W        W11202  38.823  31.785  11.181
44794W        W11203  43.378   0.426   4.806
44795W        W11204  34.927  26.694   2.169
44796W        W11205   0.554  14.154   4.218
44797W        W11206  40.251  14.158  13.469
44798W        W11207  24.222  21.235   2.677
44799W        W11208   0.842   1.721   1.394
44800W        W11209  37.834  16.202  14.165
44801W        W11210  31.667  32.333  13.445
44802W        W11211  18.261  11.589  14.333
44803W        W11212  32.629   7.681  14.199
44804W        W11213  35.890  15.553  12.946
44805W        W11214  34.910  19.632  10.813
44806W        W11215   9.829  33.879  14.862
44807W        W11216  30.181   7.297   0.347
44808W        W11217  33.601  35.956  13.030
44809W        W11218   0.515   4.441  11.154
44810W        W11219  14.027  32.724   1.868
44811W        W11220  27.601   7.628   0.911
44812W        W11221  39.821   4.917   0.699
44813W        W11222  39.977   8.746   0.463
44814W        W11223  36.544   5.907   4.560
44815W        W11224  27.420  41.031  11.087
44816W        W11225  21.003   3.834  10.839
44817W        W11226  29.969  16.637   4.086
44818W        W11227  38.941   7.596   2.705
44819W        W11228   3.083  16.648  13.189
44820W        W11229  18.805   9.756   1.721
44821W        W11230  17.715  30.379  13.402
44822W        W11231  36.388  17.490  10.230
44823W        W11232  17.611  44.923   1.649
44824W        W11233  22.428  37.483   1.883
44825W        W11234   8.697  41.043  13.915
44826W        W11235  36.426  31.510   2.226
44827W        W11236  41.868   1.020   5.010
44828W        W11237  11.760   8.948   4.052
44829W        W11238  29.882  36.822  12.871
44830W        W11239  25.187  20.754   4.087
44831W        W11240   8.276  35.605  14.703
44832W        W11241  20.973  13.187   0.343
44833W        W11242   2.439  39.099  11.560
44834W        W11243  38.986  32.034   1.396
44835W        W11244  32.644  16.924   4.993
44836W        W11245  20.793  34.877   3.259
44837W        W11246  41.819  39.466   4.243
44838W        W11247  29.604   3.387  10.751
44839W        W11248  23.841  23.042   2.240
44840W        W11249   0.213   0.362   1.453
44841W        W11250   5.669  43.894   1.302
44842W        W11251  35.371  11.079  14.506
44843W        W11252  34.645  22.359   3.596
44844W        W11253   1.729  43.018   4.197
44845W        W11254  27.130  24.409  14.304
44846W        W11255  22.435  37.554   3.305
44847W        W11256  20.326  36.130   1.266
44848W        W11257  13.772  22.282   1.767
44849W        W11258  37.993  29.841  14.636
44850W        W11259  25.280  39.287   3.369
44851W        W11260  13.887   8.446  13.519
44852W        W11261  10.277  19.052   3.575
44853W        W11262   0.176  36.479  12.094
44854W        W11263  43.015  25.689   4.610
44855W        W11264  31.495   0.686  13.866
44856W        W11265  32.208  31.004  14.802
44857W        W11266  21.013  36.518   3.131
44858W        W11267  30.650   6.893  12.405
44859W        W11268  10.323  10.751  10.604
44860W        W11269  38.552   6.899  10.767
44861W        W11270  31.501  35.068  12.963
44862W        W11271   3.416  37.708   2.404
44863W        W11272  10.251  14.023   5.006
44864W        W11273  44.751   7.495   3.679
44865W        W11274  18.644  36.964  12.270
44866W        W11275  26.668  38.424  12.478
44867W        W11276  14.323   6.549   4.262
44868W        W11277  24.512  13.341   0.322
44869W        W11278  40.872  38.835   0.371
44870W        W11279  27.668  16.131  12.848
44871W        W11280  26.207  25.830  10.699
44872W        W11281  29.126  34.346   2.250
44873W        W11282   1.403  32.523   4.089
44874W        W11283   0.559  25.958   2.900
44875W        W11284  37.852  23.995   2.353
44876W        W11285  28.102  28.692   4.806
44877W        W11286  24.148  25.242  13.987
44878W        W11287  21.220   8.004  11.541
44879W        W11288  29.869  28.448  10.865
44880W        W11289   9.362  27.559  12.003
44881W        W11290  19.711  21.685   0.959
44882W        W11291  37.693  39.812   3.671
44883W        W11292  44.044  23.756  12.383
44884W        W11293  26.575  28.785   2.644
44885W        W11294  22.409   6.268   0.163
44886W        W11295   7.076  25.264  11.523
44887W        W11296   3.731  20.240   0.056
44888W        W11297  14.902   5.853  13.853
44889W        W11298  28.279  25.199   4.137
44890W        W11299  12.866   6.781  13.502
44891W        W11300  32.929   2.636  12.139
44892W        W11301  39.173  42.829   2.713
44893W        W11302  11.292  27.232  11.220
44894W        W11303   2.896  17.258  12.069
44895W        W11304  22.197   5.191  11.363
44896W        W11305  36.401  40.040  11.459
44897W        W11306  25.465  37.627  10.503
44898W        W11307  19.178  43.565   1.505
44899W        W11308  26.141  29.122   3.814
44900W        W11309   9.914   8.665  14.375
44901W        W11310   9.555  11.227  10.798
44902W        W11311  19.954  41.862  13.392
44903W        W11312   1.690  34.567  12.133
44904W        W11313  39.796  36.105  10.699
44905W        W11314   1.444   1.972  14.589
44906W        W11315  10.115   0.720  13.560
44907W        W11316  28.223   9.900   2.673
44908W        W11317  29.289  16.225  12.109
44909W        W11318  40.654  27.868  12.615
44910W        W11319  39.868  44.670  10.585
44911W        W11320  16.016   8.349  12.361
44912W        W11321   0.279  14.277   1.262
44913W        W11322  39.459  15.482  10.113
44914W        W11323  34.644  11.316  11.799
44915W        W11324  10.648  34.405  11.511
44916W        W11325  19.146  26.607   0.670
44917W        W11326   5.935   5.309  11.145
44918W        W11327  15.588  12.268   3.241
44919W        W11328  18.790  30.901   0.390
44920W        W11329   1.390  11.716  14.236
44921W        W11330   9.441  43.926   1.391
44922W        W11331   4.691  38.466  13.853
44923W        W11332  12.995  13.295   3.768
44924W        W11333  23.750  28.409   0.241
44925W        W11334   2.473  38.387  13.636
44926W        W11335  12.191  15.536  12.692
44927W        W11336   2.448  44.049   2.963
44928W        W11337  10.291   0.019   4.075
44929W        W11338  13.376  21.551  11.584
44930W        W11339  11.602  21.234   2.607
44931W        W11340  35.474  32.862   4.152
44932W        W11341  30.015  24.043   4.526
44933W        W11342   5.381  18.786   0.884
44934W        W11343   9.695   6.698   0.624
44935W        W11344  43.395  24.893  10.419
44936W        W11345  21.040  20.213  12.377
44937W        W11346   8.445   5.802  12.899
44938W        W11347   1.412  36.324  14.026
44939W        W11348  27.777  25.230   3.980
44940W        W11349  13.118  37.271   2.435
44941W        W11350  20.659  35.399  12.582
44942W        W11351   5.713  42.192   1.190
44943W        W11352  15.212   1.248  12.750
44944W        W11353  26.375  17.184   2.750
44945W        W11354   4.974   7.893   2.123
44946W        W11355  20.019  25.504   2.008
44947W        W11356  11.410  22.560   3.233
44948W        W11357  12.148   5.093  12.659
44949W        W11358  27.000  33.374  10.095
44950W        W11359  30.591  32.872  13.539
44951W        W11360  29.707  22.470  11.813
44952W        W11361  29.813  11.357  10.098
44953W        W11362  36.073  11.559   3.740
44954W        W11363  12.083  30.364  12.836
44955W        W11364  36.557  40.133   3.711
44956W        W11365  37.465  12.104   2.317
44957W        W11366  36.114  37.018   4.392
44958W        W11367   9.435   0.777   0.373
44959W        W11368  13.450  18.002   3.283
44960W        W11369  22.775  43.091   0.871
44961W        W11370  16.515  25.990   1.781
44962W        W11371   5.480  29.325  11.578
44963W        W11372  19.265   0.636   3.626
44964W        W11373   9.233  16.261  13.136
44965W        W11374  10.375  23.959  13.301
44966W        W11375  44.439  27.124   3.941
44967W        W11376  39.892  38.000   1.761
44968W        W11377  14.481  42.906  13.856
44969W        W11378  32.576   2.773   2.314
44970W        W11379  42.436   0.264  12.396
44971W        W11380   4.959   3.309  12.425
44972W        W11381  35.979   5.373  10.668
44973W        W11382  20.034   1.687   0.973
44974W        W11383  21.164  10.162   1.840
44975W        W11384  33.176  37.030  10.797
44976W        W11385  36.867   6.046  12.464
44977W        W11386  25.647   6.674  12.521
44978W        W11387   2.346  32.417  10.904
44979W        W11388  43.715  43.263  13.024
44980W        W11389  34.424  28.276   4.867
44981W        W11390  16.084  35.862  12.245
44982W        W11391  26.724   7.806   2.103
44983W        W11392  11.223   7.697   3.699
44984W        W11393  39.756  34.622   4.690
44985W        W11394  24.099  14.671  14.700
44986W        W11395  11.679  44.563  14.912
44987W        W11396  30.640  40.065   0.050
44988W        W11397  24.497  24.935   4.518
44989W        W11398   2.956   7.239  13.547
44990W        W11399  21.582  39.165  14.536
44991W        W11400  35.623   3.011  13.785
44992W        W11401   8.213  15.133   1.271
44993W        W11402   6.292  27.262  11.120
44994W        W11403  24.170  30.345  10.285
44995W        W11404  43.097  26.032   4.034
44996W        W11405  30.635   1.412  12.936
44997W        W11406  14.300  16.504   0.393
44998W        W11407  30.898  42.934  12.488
44999W        W11408  23.706  36.219   2.233
45000W        W11409  36.546   1.271  14.746
45001W        W11410  42.367  13.395  14.412
45002W        W11411  25.288   5.075  12.920
45003W        W11412  34.358  30.955  13.700
45004W        W11413  40.336   9.205   3.194
45005W        W11414  15.063  13.924   2.918
45006W        W11415  20.025  40.521   1.268
45007W        W11416  10.338   4.892   1.904
45008W        W11417   2.508  12.249   0.827
45009W        W11418  40.917   8.323  14.944
45010W        W11419   0.379   1.207   1.135
45011W        W11420   1.379   7.922  12.761
45012W        W11421  37.934  20.347  13.019
45013W        W11422   2.270  27.917   2.384
45014W        W11423  40.460   9.118   2.344
45015W        W11424  34.994  43.072  13.961
45016W        W11425  44.940  40.034  11.983
45017W        W11426   6.444  41.997   1.896
45018W        W11427  32.579   0.593  14.297
45019W        W11428  30.557  21.764  11.583
45020W        W11429  34.077  14.518  12.947
45021W        W11430  37.410   3.831  10.598
45022W        W11431  43.985   3.301   3.723
45023W        W11432  43.309  28.093  14.246
45024W        W11433  43.360  37.537   3.174
45025W        W11434  34.339   3.836   4.103
45026W        W11435  14.832  25.123  11.519
45027W        W11436  18.972  13.517   0.887
45028W        W11437  34.838  19.434  14.644
45029W        W11438  30.412   9.426   1.485
45030W        W11439  41.190  43.958  13.956
45031W        W11440  32.551   3.095  13.391
45032W        W11441   3.382  39.744  12.665
45033W        W11442  30.111  36.325  12.008
45034W        W11443  11.278   8.100   2.331
45035W        W11444  22.701  44.919   2.336
45036W        W11445   3.227  34.929   3.825
45037W        W11446  31.696  36.392  13.288
45038W        W11447  26.125   2.228   0.425
45039W        W11448  16.180  17.256   1.709
45040W        W11449  28.442   3.289   2.654
45041W        W11450  39.587  40.124  14.527
45042W        W11451  41.388  35.473  13.560
45043W        W11452  13.206  14.533   9.703
45044W        W11453   8.324  38.847   3.230
45045W        W11454  40.543   3.307   0.977
45046W        W11455  19.633  30.422  14.581
45047W        W11456   0.367  42.279   1.823
45048W        W11457  11.500  24.240   1.209
45049W        W11458  11.136   8.721  14.646
45050W        W11459  39.581  20.095   2.855
45051W        W11460  31.487  19.268   2.388
45052W        W11461  30.452  21.997  12.982
45053W        W11462  25.688  26.525   0.476
45054W        W11463  16.640  25.438   1.803
45055W        W11464  30.804  20.066  13.847
45056W        W11465  39.376   4.179   1.236
45057W        W11466  35.031  29.170   3.700
45058W        W11467  43.838  34.414   3.300
45059W        W11468  36.470  29.713   0.392
45060W        W11469  29.080  29.922   4.200
45061W        W11470  18.461  30.419  14.276
45062W        W11471  19.071  37.852  14.440
45063W        W11472  36.044  35.134   2.833
45064W        W11473  23.018   1.503  12.697
45065W        W11474   8.330  23.280  12.945
45066W        W11475  16.276  23.769  14.187
45067W        W11476  39.985   7.369   0.225
45068W        W11477   1.808  42.393  14.299
45069W        W11478  13.918  42.801  10.916
45070W        W11479  41.370  40.486   4.572
45071W        W11480  19.065  34.007   1.714
45072W        W11481   9.371  31.602  13.516
45073W        W11482  16.143   0.006   1.093
45074W        W11483  15.216  16.935   0.304
45075W        W11484  32.400  12.685  10.346
45076W        W11485   8.676  36.547   3.322
45077W        W11486  29.442  37.824  10.347
45078W        W11487   4.862  28.507   0.487
45079W        W11488  22.030   1.040  11.532
45080W        W11489   2.495  22.001   3.725
45081W        W11490  24.013  27.682  10.615
45082W        W11491  35.437   0.845   0.858
45083W        W11492  44.429  17.742   3.377
45084W        W11493  17.093  21.186  11.959
45085W        W11494  15.799  26.510   4.896
45086W        W11495  10.081  20.558  11.906
45087W        W11496  14.633  14.633   3.568
45088W        W11497   2.385  30.706   4.541
45089W        W11498  36.566  43.039  12.096
45090W        W11499  23.018  15.006   3.313
45091W        W11500   9.238  34.427  11.649
45092W        W11501  38.881  32.602   3.114
45093W        W11502  10.704  10.753   2.792
45094W        W11503   1.512  21.430  12.304
45095W        W11504  30.980  23.239   3.670
45096W        W11505  27.196   2.968  12.541
45097W        W11506   2.911  29.651  13.105
45098W        W11507  36.381   3.559   4.064
45099W        W11508   0.788  37.080   3.688
45100W        W11509  35.312  20.933   4.932
45101W        W11510  24.799  40.585  14.484
45102W        W11511  28.790   8.189   0.841
45103W        W11512  28.854   4.010   1.864
45104W        W11513  24.863  30.260  12.524
45105W        W11514  33.653  11.573  12.009
45106W        W11515  44.240  43.964  12.175
45107W        W11516   0.307   8.845  11.625
45108W        W11517   8.106  19.074   4.243
45109W        W11518  41.431  13.173  13.577
45110W        W11519  32.020   3.889  13.758
45111W        W11520   6.645  40.770   4.689
45112W        W11521  22.493  17.241   1.306
45113W        W11522  34.220   0.037  14.849
45114W        W11523  20.077  40.213  11.994
45115W        W11524  37.772  40.474   2.323
45116W        W11525  28.124  13.563  10.885
45117W        W11526  11.353  44.693   4.239
45118W        W11527   9.140  13.021   1.268
45119W        W11528  12.746   1.184   0.577
45120W        W11529  24.734   3.152  11.576
45121W        W11530  44.338   9.968   0.350
45122W        W11531  26.412  18.592  12.950
45123W        W11532  40.286  25.578  12.723
45124W        W11533  11.735  42.974   1.011
45125W        W11534  26.018  43.228  12.885
45126W        W11535  23.651  10.758   2.366
45127W        W11536  32.317  20.798  12.873
45128W        W11537  35.997  18.109   0.370
45129W        W11538  34.866  14.217  11.476
45130W        W11539  33.073  43.684  11.054
45131W        W11540  31.569  22.720  12.633
45132W        W11541  15.619   3.403  10.068
45133W        W11542   0.643  29.625   0.258
45134W        W11543   2.991   2.801   2.893
45135W        W11544  23.571  17.050   4.794
45136W        W11545  11.882  31.988   3.606
45137W        W11546  16.199  27.613  11.429
45138W        W11547   0.288  11.644   3.903
45139W        W11548   2.284  36.548  12.532
45140W        W11549  37.286  16.893  13.937
45141W        W11550  22.112  34.618  14.059
45142W        W11551   3.157  17.558   1.104
45143W        W11552  43.896  23.623   1.025
45144W        W11553   3.004   9.996  12.500
45145W        W11554  40.489  14.815  13.746
45146W        W11555  30.063  28.473   1.929
45147W        W11556  19.576  12.670   3.212
45148W        W11557   7.282  30.467   3.244
45149W        W11558  37.418  33.444   0.627
45150W        W11559  44.829  36.600   0.396
45151W        W11560  10.366  17.621   1.842
45152W        W11561   6.272  14.311   2.852
45153W        W11562   6.771   7.632  14.525
45154W        W11563  28.137   1.754   3.974
45155W        W11564  28.391   8.225  12.131
45156W        W11565  22.069  39.375  14.451
45157W        W11566  17.659  40.816   1.032
45158W        W11567   0.940  10.093   1.855
45159W        W11568  38.928  24.547  10.538
45160W        W11569   2.778  43.874   0.272
45161W        W11570   3.850  29.168   3.314
45162W        W11571  10.819  12.761   2.367
45163W        W11572  27.939   6.302   2.850
45164W        W11573  33.603  41.991   2.705
45165W        W11574  39.209  18.210  10.133
45166W        W11575  40.629  14.186  11.188
45167W        W11576   0.761   3.947   0.323
45168W        W11577  39.412  23.262   1.928
45169W        W11578   0.799  34.432   2.205
45170W        W11579  27.186  18.775   0.952
45171W        W11580  15.724  35.948  11.198
45172W        W11581  27.131   5.492  12.897
45173W        W11582  21.444   7.225  12.437
45174W        W11583  40.457  34.133   0.886
45175W        W11584  44.321  27.602  13.101
45176W        W11585  37.455   3.914   3.206
45177W        W11586  41.560  27.058  12.465
45178W        W11587  35.481   8.994   1.714
45179W        W11588  43.060  35.266  11.097
45180W        W11589  35.935  33.329   4.599
45181W        W11590  18.008  37.577  11.386
45182W        W11591  20.033   0.238   0.393
45183W        W11592  19.063  31.488  12.981
45184W        W11593  23.233  30.896  13.496
45185W        W11594  11.164  36.980   9.832
45186W        W11595   2.413   7.759  10.520
45187W        W11596  24.225  34.810   1.639
45188W        W11597  22.171  10.106   3.671
45189W        W11598  22.316  23.030   2.464
45190W        W11599  18.507  10.174   4.193
45191W        W11600  38.916  21.342   0.009
45192W        W11601  14.100  40.834   4.184
45193W        W11602  18.321  11.821   1.817
45194W        W11603  25.207   6.724   4.062
45195W        W11604  26.323  10.552  12.505
45196W        W11605   9.156  24.275   1.328
45197W        W11606  32.912  32.148  14.578
45198W        W11607  40.217  12.359  12.004
45199W        W11608   3.715  43.742   0.391
45200W        W11609  34.721  44.019  11.912
45201W        W11610  16.301   1.998  12.525
45202W        W11611  36.917   8.936   0.221
45203W        W11612   8.713   8.333  11.634
45204W        W11613  20.024   9.881   4.347
45205W        W11614  41.929  44.881   2.523
45206W        W11615  40.026  25.052   1.124
45207W        W11616  34.323  21.554   3.665
45208W        W11617  40.484   4.799   0.741
45209W        W11618  15.504   4.457  12.444
45210W        W11619  28.866  34.906  12.438
45211W        W11620   8.198   3.525   1.225
45212W        W11621  11.356   5.405  14.818
45213W        W11622  29.007  32.847  12.561
45214W        W11623  44.420  17.174   5.046
45215W        W11624  20.607  31.620   0.316
45216W        W11625  31.642  31.619  11.728
45217W        W11626  18.817  20.616  13.237
45218W        W11627  17.424  43.730  10.668
45219W        W11628  19.843  36.822  13.936
45220W        W11629   6.690   9.163  12.867
45221W        W11630  24.450  11.903   3.395
45222W        W11631  34.691  32.576  12.692
45223W        W11632  41.940  17.135  13.932
45224W        W11633   7.195  31.613   1.811
45225W        W11634   2.788   6.178  13.042
45226W        W11635   9.365  23.984   0.390
45227W        W11636  31.021  33.035   3.302
45228W        W11637  30.697   4.427  12.360
45229W        W11638   8.420   7.647  13.878
45230W        W11639  14.635  43.714  14.523
45231W        W11640  12.667  28.086  12.495
45232W        W11641  33.928  14.783   0.915
45233W        W11642  40.142   8.387   3.748
45234W        W11643  18.042  25.945   0.745
45235W        W11644  16.043  42.531  11.175
45236W        W11645   7.731  17.081  11.143
45237W        W11646   7.087   5.722  10.577
45238W        W11647   4.376  37.024  11.557
45239W        W11648  28.281  41.506   2.811
45240W        W11649   3.057  12.851  12.400
45241W        W11650  19.208  30.013   3.963
45242W        W11651  10.585  42.850  12.377
45243W        W11652  28.107  38.251  11.592
45244W        W11653  12.441  25.466   0.920
45245W        W11654  24.564  11.788  12.402
45246W        W11655   0.699   4.027  14.273
45247W        W11656  15.891  14.212   2.664
45248W        W11657   2.367   8.957   1.455
45249W        W11658  37.793  15.723  10.345
45250W        W11659  20.230   4.876   0.426
45251W        W11660  42.293  37.139  12.978
45252W        W11661   7.509  29.861   2.495
45253W        W11662  27.905   6.058  11.034
45254W        W11663  10.823  15.146  13.991
45255W        W11664  27.760  10.780   2.831
45256W        W11665   8.123  20.228  14.362
45257W        W11666  33.977  39.044  11.628
45258W        W11667  43.834   8.151   0.416
45259W        W11668  24.610  28.194  14.252
45260W        W11669  33.926  41.281  12.501
45261W        W11670   2.849  17.103   4.256
45262W        W11671  42.265  17.283  11.954
45263W        W11672  29.296  30.466  11.629
45264W        W11673  19.408   0.271   1.954
45265W        W11674  20.335  29.926  14.423
45266W        W11675  40.352  40.314  10.668
45267W        W11676  18.186  13.848  11.622
45268W        W11677  28.184  14.259   4.157
45269W        W11678   8.326   0.565   3.616
45270W        W11679  25.533  15.400   1.296
45271W        W11680   3.365  14.078   1.325
45272W        W11681  22.506  41.546   1.300
45273W        W11682   6.468   0.485  11.074
45274W        W11683  41.893  30.885  11.608
45275W        W11684  41.962   3.784  14.562
45276W        W11685  12.658  25.789   1.532
45277W        W11686   2.540  22.793  11.129
45278W        W11687  24.071   4.424   1.913
45279W        W11688  38.053  16.101  14.667
45280W        W11689  32.533  32.361   2.189
45281W        W11690   4.219  16.025  12.869
45282W        W11691   2.168  25.573  10.840
45283W        W11692  21.763  27.486   1.632
45284W        W11693  23.017  22.858   3.652
45285W        W11694  17.896   6.281   0.009
45286W        W11695  32.287  19.693   0.645
45287W        W11696  37.450  23.166   4.223
45288W        W11697  30.403  30.078  13.358
45289W        W11698  37.489  29.368   1.191
45290W        W11699  40.259  44.946  10.324
45291W        W11700  13.550  17.812  11.118
45292W        W11701  15.317  36.575   5.373
45293W        W11702  11.641   8.714  12.128
45294W        W11703   6.863  14.545   3.814
45295W        W11704  10.225  24.249   3.352
45296W        W11705   0.367  30.039   3.023
45297W        W11706   4.897  19.643  11.111
45298W        W11707  23.534  17.288   1.283
45299W        W11708  32.974  35.486  12.986
45300W        W11709   8.891  10.777   4.147
45301W        W11710  20.447  39.917   1.885
45302W        W11711  26.322  39.368   1.876
45303W        W11712  17.036  12.198  14.345
45304W        W11713  43.504  41.722  13.015
45305W        W11714  18.280  38.516   2.827
45306W        W11715  25.527  41.189  12.889
45307W        W11716  34.740  22.073   4.326
45308W        W11717  30.930  38.784  12.062
45309W        W11718  15.199   6.411  11.591
45310W        W11719   9.527  38.782  11.649
45311W        W11720  10.065  13.349   2.211
45312W        W11721  36.916  27.500  10.370
45313W        W11722  34.070  15.587   1.198
45314W        W11723  13.062  34.249   2.480
45315W        W11724   6.067  10.835   4.001
45316W        W11725  14.201   9.277  13.030
45317W        W11726  41.057  32.538   1.668
45318W        W11727  29.016  16.577   1.045
45319W        W11728  33.926   1.596   5.054
45320W        W11729   2.467  13.709  13.788
45321W        W11730  20.203   1.752  13.674
45322W        W11731  26.758   1.770  13.790
45323W        W11732  37.638  32.857  11.495
45324W        W11733  19.744  19.711  11.679
45325W        W11734  27.981   0.090   0.814
45326W        W11735  41.530  36.465   3.885
45327W        W11736  34.659  27.134  11.165
45328W        W11737  20.681   7.634   0.295
45329W        W11738  22.116   2.054  11.795
45330W        W11739  28.140  29.709   3.688
45331W        W11740  15.930  28.709  12.015
45332W        W11741  18.306  31.214  13.857
45333W        W11742  26.964  39.332   2.668
45334W        W11743  31.499  39.794  11.925
45335W        W11744  13.105  16.126   1.837
45336W        W11745  26.709   6.768  11.163
45337W        W11746   2.673   4.003  12.424
45338W        W11747   4.437  32.543   4.571
45339W        W11748  11.195   6.383   4.106
45340W        W11749  20.783  26.230  13.971
45341W        W11750  36.920  15.312   3.989
45342W        W11751  11.909  14.652   3.864
45343W        W11752  43.362  16.013   4.164
45344W        W11753   9.285  34.566  13.953
45345W        W11754   7.995  25.167   1.676
45346W        W11755  12.705  21.501  13.343
45347W        W11756   4.954  12.951   0.826
45348W        W11757  32.371  30.690  12.519
45349W        W11758  18.098  40.985   3.859
45350W        W11759  44.987   3.815  13.804
45351W        W11760  26.175   1.480  14.436
45352W        W11761  31.118  23.718  13.379
45353W        W11762  23.514  42.179  12.657
45354W        W11763  11.806  24.604   1.674
45355W        W11764  13.563  42.967  14.038
45356W        W11765  44.343  29.990   4.221
45357W        W11766  18.293  28.226  12.027
45358W        W11767  31.948  24.257  11.944
45359W        W11768  32.066  25.590   2.616
45360W        W11769  20.314  10.080   3.665
45361W        W11770  27.917  21.759   0.267
45362W        W11771  17.791  25.192  14.256
45363W        W11772  31.651   9.439  13.375
45364W        W11773  40.333  32.518  11.863
45365W        W11774  29.015  39.462  13.771
45366W        W11775  29.451  38.944  12.017
45367W        W11776  24.056   4.819   2.211
45368W        W11777  16.089  32.093  12.871
45369W        W11778   6.918  43.819   3.982
45370W        W11779  30.155  41.350   4.748
45371W        W11780   4.764   7.678   3.023
45372W        W11781  29.287  11.042   0.421
45373W        W11782  12.164   8.771   0.729
45374W        W11783  14.146  18.939   3.536
45375W        W11784  43.386  14.610   4.855
45376W        W11785   5.232  11.854  14.447
45377W        W11786  43.934  10.654   2.839
45378W        W11787  24.040  30.775   0.037
45379W        W11788  26.192  24.562  12.848
45380W        W11789   0.721  25.110   5.162
45381W        W11790  30.419  38.467   1.384
45382W        W11791  37.347  11.343   3.672
45383W        W11792  42.686   0.924  11.540
45384W        W11793  42.543  32.501   2.063
45385W        W11794  14.010  34.895   1.292
45386W        W11795  33.006  26.789  10.743
45387W        W11796  27.559  44.821  13.766
45388W        W11797   7.873  28.743  13.404
45389W        W11798  32.897   1.738  13.430
45390W        W11799  44.689  24.953  13.230
45391W        W11800  43.742   2.240  10.891
45392W        W11801  20.256  40.426  11.541
45393W        W11802   7.666  37.920   0.754
45394W        W11803  12.849   2.922   3.092
45395W        W11804  38.444   3.340  11.411
45396W        W11805  27.507   9.369  11.168
45397W        W11806  22.129  23.247   3.349
45398W        W11807  38.319  37.293  14.458
45399W        W11808  32.867  33.877  11.703
45400W        W11809   8.789  26.362   1.747
45401W        W11810  37.484  20.568  14.919
45402W        W11811   8.607  42.884  11.616
45403W        W11812   0.889  44.944  14.797
45404W        W11813  18.711  30.090   4.634
45405W        W11814  38.303  23.692   2.383
45406W        W11815  41.785  13.927   1.644
45407W        W11816  42.349  40.838  12.086
45408W        W11817  14.324  44.735   4.137
45409W        W11818  17.722  40.378  13.148
45410W        W11819   9.518  30.097   1.311
45411W        W11820  42.894  32.615   4.184
45412W        W11821   7.096  35.482  14.518
45413W        W11822  14.312   8.358   0.758
45414W        W11823   2.462  38.423   3.812
45415W        W11824  14.983  29.137   4.136
45416W        W11825  16.068  43.838  10.934
45417W        W11826  42.742   4.159   1.959
45418W        W11827   9.762   2.318   3.251
45419W        W11828  42.679  29.623  12.086
45420W        W11829  44.921  19.813   4.974
45421W        W11830  33.303   1.043  13.839
45422W        W11831   0.408  35.587  14.724
45423W        W11832   3.744  26.701  11.155
45424W        W11833  28.937  40.470  11.442
45425W        W11834  11.324  16.978  14.364
45426W        W11835   0.902  32.572  14.537
45427W        W11836   2.313  33.012  11.626
45428W        W11837  37.989  12.593  10.700
45429W        W11838   1.375   5.821   3.866
45430W        W11839   0.859   6.952  11.598
45431W        W11840  44.937   6.362  12.149
45432W        W11841  15.237   5.441   2.740
45433W        W11842  34.038  37.863   3.556
45434W        W11843  17.231   4.975  13.010
45435W        W11844   8.394  31.437  14.457
45436W        W11845   8.251  38.341   2.262
45437W        W11846  28.036  34.772   0.661
45438W        W11847  13.042  22.096   0.932
45439W        W11848   8.892  21.679   4.177
45440W        W11849  32.568  15.291   4.682
45441W        W11850  15.104  25.258   0.083
45442W        W11851   3.147  38.366   1.855
45443W        W11852   5.871  43.432  12.079
45444W        W11853  25.711  14.715   1.733
45445W        W11854  14.906  24.263   4.564
45446W        W11855  10.595  44.767   1.474
45447W        W11856  37.561   2.479   0.031
45448W        W11857  21.231  29.007   2.787
45449W        W11858  44.301  40.898   2.340
45450W        W11859   6.405   9.802  14.140
45451W        W11860  25.702  13.633  12.672
45452W        W11861  36.458   2.254  13.542
45453W        W11862  41.399  30.743  11.132
45454W        W11863  44.048  31.930   4.506
45455W        W11864  26.265  42.366  12.642
45456W        W11865  42.458   0.345   3.847
45457W        W11866  12.751  15.853  14.781
45458W        W11867   5.550  15.759   3.658
45459W        W11868  27.114  41.564   1.333
45460W        W11869  17.359  20.248  14.976
45461W        W11870  31.420  26.724   4.811
45462W        W11871  38.004  41.041  13.065
45463W        W11872  44.778  18.466  13.557
45464W        W11873  24.574  29.665   2.953
45465W        W11874  29.655  13.077  11.980
45466W        W11875  42.142  22.130   2.250
45467W        W11876  42.895  22.220   2.877
45468W        W11877  23.802  35.496  14.940
45469W        W11878   9.767  40.016  10.913
45470W        W11879   3.705  42.170  13.617
45471W        W11880  34.133  31.596   4.055
45472W        W11881   0.292  41.977  13.481
45473W        W11882  15.776  15.196   0.003
45474W        W11883  38.576   2.013  14.453
45475W        W11884  41.319   2.534   2.294
45476W        W11885  11.761  11.453   2.322
45477W        W11886  37.506  39.400  12.655
45478W        W11887  24.281  24.086   3.639
45479W        W11888  24.553  44.218   0.930
45480W        W11889  18.291   6.486  12.502
45481W        W11890  13.338  27.142   4.339
45482W        W11891  14.454  38.044   3.161
45483W        W11892   8.106   4.823   2.756
45484W        W11893  11.798  35.617   0.837
45485W        W11894  19.283  37.941  10.380
45486W        W11895  34.644  11.813  11.971
45487W        W11896  41.602  43.748   2.572
45488W        W11897  22.550  17.151   3.149
45489W        W11898   0.259  38.052   2.370
45490W        W11899   5.135  25.062  12.747
45491W        W11900  36.946  13.831  12.429
45492W        W11901   4.090   1.237   2.257
45493W        W11902  16.624  34.120   1.027
45494W        W11903  28.015  25.683  10.491
45495W        W11904  42.113  16.280  13.711
45496W        W11905  26.189  32.290  12.484
45497W        W11906  28.884   7.930   1.275
45498W        W11907  38.955  34.796   0.816
45499W        W11908  21.329   2.412  14.432
45500W        W11909  31.639   9.811  12.008
45501W        W11910   0.911   7.398   3.601
45502W        W11911  44.405  12.340   2.860
45503W        W11912  15.238   2.308  10.186
45504W        W11913  32.706  31.952  11.895
45505W        W11914   8.352  15.900   1.985
45506W        W11915  39.473  32.087   0.918
45507W        W11916  17.760  35.582  11.717
45508W        W11917  11.697  29.200   2.845
45509W        W11918  38.470  18.945  13.875
45510W        W11919   6.727   4.140  12.305
45511W        W11920  43.701  33.024  12.980
45512W        W11921  32.553  30.160  11.625
45513W        W11922  24.685   0.395  13.365
45514W        W11923  15.373  44.929  13.444
45515W        W11924   8.329  30.189   1.623
45516W        W11925  41.775  38.535  14.981
45517W        W11926  19.514  38.770  11.366
45518W        W11927  18.065  25.015  13.843
45519W        W11928   1.155  26.305  11.201
45520W        W11929  36.384  41.566   1.817
45521W        W11930  35.914  42.380  12.134
45522W        W11931  23.812  30.577   4.240
45523W        W11932  31.150  41.865  13.856
45524W        W11933   1.095  29.013  13.564
45525W        W11934  38.586  33.015   3.821
45526W        W11935  31.499   0.229  12.659
45527W        W11936  36.523  41.620  12.046
45528W        W11937  16.044  38.820   2.742
45529W        W11938   2.462  27.107   0.518
45530W        W11939  19.228  20.675   2.409
45531W        W11940  17.064  33.941   3.345
45532W        W11941  42.904  10.677  12.000
45533W        W11942  19.012  30.038   3.470
45534W        W11943  33.660  15.701  10.842
45535W        W11944  41.367  29.539   3.121
45536W        W11945  21.639  42.829  11.624
45537W        W11946   8.783  42.385  11.472
45538W        W11947  16.566  32.727   2.249
45539W        W11948  23.963   6.160   3.273
45540W        W11949  14.114  32.390   4.788
45541W        W11950  26.626  29.322   2.708
45542W        W11951  35.903  14.718   1.480
45543W        W11952  33.569  21.972   3.307
45544W        W11953   8.009   9.292   1.977
45545W        W11954   2.040  29.655  12.049
45546W        W11955  25.006  27.009  11.133
45547W        W11956   7.150  31.512   4.417
45548W        W11957  24.289  35.470  14.736
45549W        W11958  21.548  31.025  14.646
45550W        W11959  41.461  15.162  12.962
45551W        W11960  41.346  42.911  11.632
45552W        W11961  35.004  29.557  14.742
45553W        W11962  26.905   6.963   2.650
45554W        W11963  10.161  22.994   4.093
45555W        W11964  37.556  38.510  14.874
45556W        W11965  35.341  39.417   1.953
45557W        W11966  22.344   6.866   4.263
45558W        W11967  31.702  15.698  10.010
45559W        W11968   5.850   5.087  11.670
45560W        W11969  26.673  43.266  10.789
45561W        W11970   1.776   6.487  14.486
45562W        W11971  35.909  21.047  14.253
45563W        W11972  39.891  15.617   3.302
45564W        W11973  37.083  18.702  10.950
45565W        W11974   8.753   1.214   4.292
45566W        W11975   5.794  28.621  14.328
45567W        W11976   5.246  44.233   4.489
45568W        W11977  40.622  18.836   4.282
45569W        W11978   5.274  21.205   9.593
45570W        W11979  25.592  21.431   0.743
45571W        W11980  29.380  40.507   0.039
45572W        W11981  33.545  28.670  10.612
45573W        W11982  29.147  34.501  11.729
45574W        W11983  40.311   5.718   3.131
45575W        W11984  17.125  23.704  13.860
45576W        W11985  26.492  32.479  12.887
45577W        W11986  19.816  13.228  12.953
45578W        W11987   6.344  13.279   3.727
45579W        W11988  13.093  41.842   3.170
45580W        W11989   9.652  38.389   1.184
45581W        W11990   6.174  18.637   4.528
45582W        W11991  20.052  43.432  12.970
45583W        W11992  15.606  30.402   2.001
45584W        W11993  15.056  36.629   4.518
45585W        W11994  32.834  40.559  12.671
45586W        W11995   3.685  44.779  14.593
45587W        W11996  10.818  27.396  11.420
45588W        W11997  17.776   2.338  14.424
45589W        W11998  20.296   3.781   1.331
45590W        W11999  38.907   0.768   2.130
45591W        W12000  34.986   4.320  12.887
45592W        W12001  36.691  36.508  14.785
45593W        W12002   4.502   2.377   3.211
45594W        W12003  23.259   5.784   3.335
45595W        W12004  37.458  31.918   4.672
45596W        W12005  35.094  25.925   0.732
45597W        W12006  19.598  35.118  13.245
45598W        W12007  39.245  31.662   1.120
45599W        W12008  28.514  25.574  14.452
45600W        W12009  42.848   6.678   1.817
45601W        W12010  36.446  36.415  10.733
45602W        W12011  12.062  29.093  11.155
45603W        W12012  39.129  26.633  11.573
45604W        W12013  32.438  14.414  14.997
45605W        W12014  29.416  31.441   1.325
45606W        W12015  34.861  18.678   2.857
45607W        W12016   3.990  16.782  13.530
45608W        W12017  25.060  19.331   3.722
45609W        W12018  34.271  15.170  14.865
45610W        W12019  15.772  23.510   3.711
45611W        W12020  17.711  35.816  14.899
45612W        W12021  13.509   5.864   1.240
45613W        W12022  24.601   5.232   3.586
45614W        W12023  17.134  20.699  14.874
45615W        W12024  37.940  29.626  10.810
45616W        W12025   6.869  24.660  13.289
45617W        W12026  15.322  34.930  12.470
45618W        W12027  20.003   2.214   0.901
45619W        W12028  27.237  14.301  14.479
45620W        W12029   0.394   6.951   4.184
45621W        W12030  40.080  13.730   2.329
45622W        W12031  31.474  43.273  13.067
45623W        W12032   9.985  30.497   0.533
45624W        W12033   2.694  27.624  12.928
45625W        W12034  16.734  37.434   1.762
45626W        W12035   1.421   3.529  14.909
45627W        W12036  21.804  33.366  11.157
45628W        W12037  37.303  22.025  11.674
45629W        W12038  25.707  32.568   4.641
45630W        W12039  21.466   9.843   4.661
45631W        W12040  26.959   6.406  12.919
45632W        W12041   0.964  24.588  10.693
45633W        W12042  35.995  18.994  12.766
45634W        W12043  41.768  40.305   0.331
45635W        W12044  30.995  39.695   1.834
45636W        W12045  42.578  14.640   0.028
45637W        W12046  37.381  28.054  14.695
45638W        W12047  25.037  39.634   2.274
45639W        W12048   9.292  41.145   1.701
45640W        W12049  19.271  20.413  14.581
45641W        W12050  24.053  42.111  11.664
45642W        W12051   9.341  37.255  10.994
45643W        W12052  28.013   1.700   1.325
45644W        W12053  43.061  28.957   3.281
45645W        W12054   6.069   3.649   1.664
45646W        W12055  35.882  42.014  13.108
45647W        W12056  29.415  14.257   0.293
45648W        W12057  11.970  25.099   3.654
45649W        W12058  10.249  17.811  11.876
45650W        W12059  27.196   7.921  14.981
45651W        W12060   3.795  21.157   2.130
45652W        W12061  13.958  37.899  13.095
45653W        W12062  23.062  34.188   1.920
45654W        W12063  34.261  30.203   4.204
45655W        W12064  40.746   9.327  14.703
45656W        W12065   7.045  21.151  13.658
45657W        W12066  23.059   1.297   1.752
45658W        W12067  31.630  36.871  14.028
45659W        W12068  22.199  37.090   1.310
45660W        W12069  44.246  16.790  14.421
45661W        W12070  30.377  40.770  13.973
45662W        W12071  33.694  32.003  12.036
45663W        W12072  26.947   5.961   2.765
45664W        W12073  21.636  12.436   1.979
45665W        W12074  14.689  34.935   2.245
45666W        W12075  23.780  41.742  13.468
45667W        W12076   2.459  15.726   3.590
45668W        W12077  41.614   7.151   4.135
45669W        W12078  37.433  23.553   0.718
45670W        W12079  40.293  23.011   1.713
45671W        W12080  27.557  43.279  12.847
45672W        W12081  42.547   5.400   4.246
45673W        W12082  32.099  27.095   2.267
45674W        W12083   6.746  24.396   4.993
45675W        W12084  12.134  21.296   3.346
45676W        W12085  41.503  24.555   2.630
45677W        W12086  23.682  33.711  11.953
45678W        W12087  31.854   7.764   2.796
45679W        W12088  24.271   2.466   1.305
45680W        W12089   3.007  13.181   0.967
45681W        W12090  18.641   4.516  11.240
45682W        W12091  44.021  15.144   3.357
45683W        W12092  20.694  27.647  13.077
45684W        W12093  15.383  41.689  14.832
45685W        W12094   5.384   7.055   0.399
45686W        W12095  42.778   1.247   4.357
45687W        W12096  25.266  18.058  14.570
45688W        W12097  32.117  40.264   4.743
45689W        W12098  34.836  32.057   5.084
45690W        W12099  19.203  27.779   2.641
45691W        W12100  11.406  23.564  11.064
45692W        W12101  21.048   7.862   4.223
45693W        W12102  22.730   4.059  13.013
45694W        W12103  22.975  23.252   0.294
45695W        W12104  19.060  20.596   2.890
45696W        W12105  26.007  17.496   0.436
45697W        W12106  14.737  31.375  12.899
45698W        W12107  40.575  31.583   1.887
45699W        W12108  40.905  39.947   4.071
45700W        W12109  10.626  34.041  14.270
45701W        W12110  23.042   0.379   2.633
45702W        W12111   6.177  16.078   1.935
45703W        W12112  37.718  35.225   1.251
45704W        W12113  39.055  20.211  12.535
45705W        W12114  31.387  43.455  14.847
45706W        W12115   1.935  44.009  13.405
45707W        W12116   5.831   9.479  11.062
45708W        W12117  10.622  28.654  10.668
45709W        W12118  13.577  17.042   0.810
45710W        W12119  19.531  28.065  10.679
45711W        W12120  11.749  21.061   5.037
45712W        W12121  34.827  34.962   0.499
45713W        W12122  22.580  25.150  10.677
45714W        W12123   1.741  14.183  11.936
45715W        W12124  20.903  42.829   3.559
45716W        W12125  39.028   8.393  12.861
45717W        W12126   9.481   0.894  10.130
45718W        W12127  17.596  38.126  11.475
45719W        W12128  20.752   5.642  12.396
45720W        W12129   2.889  37.518  11.340
45721W        W12130  29.879  33.674   1.239
45722W        W12131  27.349  12.715   4.198
45723W        W12132  38.825  32.108  10.779
45724W        W12133  33.622  33.613   3.639
45725W        W12134  36.897  22.058  12.390
45726W        W12135  15.592  15.369  10.989
45727W        W12136  41.387  15.641   3.609
45728W        W12137  11.916   3.415  10.255
45729W        W12138   5.170  35.077   3.683
45730W        W12139   0.839  19.223   2.707
45731W        W12140   7.381  37.325   0.076
45732W        W12141  32.602  32.504  12.422
45733W        W12142  26.538  39.944   1.970
45734W        W12143  33.597  38.527  10.656
45735W        W12144  36.881  40.506   3.299
45736W        W12145  29.115  30.352  12.978
45737W        W12146  25.746   0.941   0.055
45738W        W12147  39.747  31.865  11.016
45739W        W12148  33.705  33.485   1.162
45740W        W12149   9.358  41.086   2.619
45741W        W12150  34.349   9.808  14.994
45742W        W12151  33.968   9.757  12.334
45743W        W12152  43.238  33.389   0.037
45744W        W12153  43.248  20.801  14.495
45745W        W12154  32.111   7.041  13.306
45746W        W12155  28.455  36.252   4.979
45747W        W12156   1.037  36.408   1.963
45748W        W12157  39.823  36.251   1.703
45749W        W12158  12.116  20.476  13.801
45750W        W12159  35.674  27.549  13.424
45751W        W12160  41.434  44.539  12.014
45752W        W12161  37.385  14.875   4.571
45753W        W12162  38.786   6.157   4.043
45754W        W12163  20.664   6.755  11.616
45755W        W12164  38.477  33.073   2.661
45756W        W12165  14.158  43.036   0.809
45757W        W12166  19.463  17.805   0.875
45758W        W12167   6.374  33.362   2.366
45759W        W12168  18.310   0.905   3.996
45760W        W12169  31.636  20.219   2.270
45761W        W12170  23.157  12.453  13.867
45762W        W12171  30.926  40.894   0.293
45763W        W12172  31.246   8.884  14.882
45764W        W12173  27.395   9.741  12.422
45765W        W12174   8.062   4.346   2.285
45766W        W12175  21.732  20.474  14.805
45767W        W12176  10.961  30.576   0.458
45768W        W12177  32.177   3.433   0.172
45769W        W12178  39.447   4.592  14.796
45770W        W12179  14.065  16.577  13.135
45771W        W12180  39.054  11.575  14.325
45772W        W12181   7.189  19.718   1.821
45773W        W12182  25.712  24.591   1.477
45774W        W12183   5.072  44.529  14.861
45775W        W12184  17.826  18.127   1.786
45776W        W12185   1.786  36.813  13.251
45777W        W12186  32.840  40.016   1.610
45778W        W12187  28.831  12.768   1.314
45779W        W12188   0.113  37.328   3.352
45780W        W12189  27.327  12.468   4.673
45781W        W12190  20.232   0.834   0.885
45782W        W12191  10.003   5.163   0.866
45783W        W12192  35.637  32.022   3.766
45784W        W12193  30.937  43.935  14.307
45785W        W12194  20.211  35.877  14.500
45786W        W12195   5.278  30.917   0.788
45787W        W12196  20.543   2.797   1.461
45788W        W12197   3.500  39.468  11.994
45789W        W12198  36.591  41.219  13.755
45790W        W12199  16.972  13.405   2.975
45791W        W12200  33.100  39.381  13.384
45792W        W12201  42.962  33.436   3.407
45793W        W12202  32.445   4.717   2.329
45794W        W12203  39.547  33.588  14.134
45795W        W12204  12.058  42.354   3.066
45796W        W12205  36.692  36.493   2.584
45797W        W12206   1.632   2.479   4.000
45798W        W12207  28.903  42.979   3.708
45799W        W12208  25.290  42.924   2.219
45800W        W12209  34.061   8.595  14.877
45801W        W12210  16.091  12.515   4.149
45802W        W12211   0.542  21.666  11.613
45803W        W12212  29.160  39.374  11.987
45804W        W12213   3.537   5.941   0.152
45805W        W12214  41.823   0.836  11.203
45806W        W12215   0.780  13.108   1.608
45807W        W12216   7.790  36.563   1.496
45808W        W12217  15.224   4.373   2.748
45809W        W12218   5.009  40.967  13.579
45810W        W12219  22.073  29.733   3.364
45811W        W12220  15.087   2.171   2.227
45812W        W12221  42.934   3.744  14.425
45813W        W12222  31.075  13.322   2.895
45814W        W12223  19.028  24.428   3.725
45815W        W12224  41.300   6.630   3.838
45816W        W12225  30.581  28.578  11.581
45817W        W12226  22.646   7.257   1.188
45818W        W12227  10.351  24.905   2.681
45819W        W12228  42.826  34.907  14.809
45820W        W12229  14.825  32.644  11.102
45821W        W12230  40.338   2.062  14.289
45822W        W12231  14.828  43.065   2.297
45823W        W12232  22.712   5.097   2.333
45824W        W12233  13.054   4.399   3.694
45825W        W12234  44.169  31.014  10.761
45826W        W12235  26.998  39.964  12.940
45827W        W12236  43.319  27.045  10.657
45828W        W12237  29.020  15.748  11.385
45829W        W12238   6.422   7.440  12.391
45830W        W12239  19.001   1.382  12.843
45831W        W12240  26.941  19.201   2.148
45832W        W12241  33.145  39.918  14.848
45833W        W12242  22.331  10.025  13.380
45834W        W12243  32.714  25.965   3.692
45835W        W12244  15.660  28.476  12.438
45836W        W12245  42.494  32.560  10.997
45837W        W12246  38.792  17.207  13.828
45838W        W12247   9.323  15.110   3.434
45839W        W12248  30.200  40.358  14.258
45840W        W12249  19.278  17.667  14.287
45841W        W12250  32.418  43.251   1.724
45842W        W12251  10.261  25.502  12.564
45843W        W12252   4.197   6.838  10.914
45844W        W12253  26.963  11.661   0.643
45845W        W12254  40.699  42.701   2.783
45846W        W12255  28.431   0.286  12.392
45847W        W12256  40.935  23.054  14.855
45848W        W12257  22.157  42.347   0.787
45849W        W12258  14.177  34.502  11.184
45850W        W12259  25.659  15.396  14.150
45851W        W12260  13.772  16.642   4.615
45852W        W12261   0.861  37.676  12.555
45853W        W12262  27.114  27.400   2.293
45854W        W12263  38.231  23.026  12.503
45855W        W12264  20.253  37.828  10.651
45856W        W12265  16.291  10.731  10.567
45857W        W12266  37.010  22.768  13.734
45858W        W12267  24.221   6.997   4.854
45859W        W12268  24.086  20.381   1.652
45860W        W12269  20.523  28.109  11.523
45861W        W12270  33.406  36.098  11.559
45862W        W12271  12.200   7.686  13.016
45863W        W12272  10.333  41.944   3.188
45864W        W12273  33.052  16.170   4.658
45865W        W12274   1.239  39.531   1.293
45866W        W12275  13.643  14.545   3.160
45867W        W12276  12.516  28.520  14.836
45868W        W12277  16.548  35.616   3.497
45869W        W12278   4.968   3.762   1.894
45870W        W12279  24.696  27.644  12.473
45871W        W12280   0.813  35.895  14.538
45872W        W12281   6.323  15.691  13.312
45873W        W12282  26.024  33.457  13.065
45874W        W12283  33.615  22.207   1.454
45875W        W12284   9.467  21.149   1.635
45876W        W12285  23.166  34.650  13.360
45877W        W12286  30.442  14.578   3.271
45878W        W12287  41.297  36.007   4.056
45879W        W12288  25.027  37.337  10.690
45880W        W12289  17.163   3.816   0.475
45881W        W12290   6.801   0.817   2.834
45882W        W12291   2.587   6.943  11.597
45883W        W12292  27.437  37.370  12.965
45884W        W12293   1.409  17.218   0.520
45885W        W12294   1.256  30.144  14.438
45886W        W12295   3.923   7.624   3.707
45887W        W12296   5.644  22.600   5.024
45888W        W12297  44.884   3.357   3.353
45889W        W12298  39.851  42.408   2.418
45890W        W12299   9.805  15.680  14.205
45891W        W12300  21.770  17.188   4.507
45892W        W12301  41.040  11.054   0.759
45893W        W12302   3.371  23.793   0.480
45894W        W12303  24.747  34.590   0.231
45895W        W12304  41.387  41.344  11.635
45896W        W12305  29.918  18.938  11.160
45897W        W12306  18.953   9.673   2.780
45898W        W12307   7.469   3.457   2.794
45899W        W12308  23.655  42.402  11.917
45900W        W12309  12.188   1.173  10.810
45901W        W12310  44.741  12.191   1.229
45902W        W12311   2.325  40.361  13.341
45903W        W12312  16.634  27.663   2.605
45904W        W12313  27.992  42.026  14.742
45905W        W12314  35.509  43.880   0.433
45906W        W12315   2.932  37.923  12.561
45907W        W12316  29.450   4.639   4.962
45908W        W12317   4.608  22.846   3.725
45909W        W12318   5.752  33.160   3.650
45910W        W12319  12.467  20.866  10.259
45911W        W12320  43.854  26.988  14.300
45912W        W12321  15.401  32.044  13.673
45913W        W12322  14.780  16.471   2.862
45914W        W12323  21.604  33.315  14.786
45915W        W12324  10.395  23.430   2.916
45916W        W12325  12.965  14.901   3.850
45917W        W12326  37.565  16.356   1.844
45918W        W12327  31.606  39.722  11.036
45919W        W12328  29.334  43.807  10.666
45920W        W12329  35.452   5.132   4.221
45921W        W12330  37.095  15.720   4.291
45922W        W12331  40.076  33.835   3.702
45923W        W12332  40.271  26.902   4.216
45924W        W12333  42.086  15.731   5.001
45925W        W12334  40.461  29.368  12.944
45926W        W12335  14.936  34.635  12.657
45927W        W12336   3.468  35.805   3.367
45928W        W12337  36.895  40.704  13.914
45929W        W12338  43.392  40.045  11.359
45930W        W12339  11.623  36.384  11.027
45931W        W12340  24.473  43.395   2.321
45932W        W12341  41.454   6.791   2.523
45933W        W12342  36.431  41.257   3.596
45934W        W12343   5.316   9.471   0.188
45935W        W12344  15.912   8.809   2.783
45936W        W12345  31.707  40.729  13.486
45937W        W12346  33.481   5.651  11.605
45938W        W12347  40.393  18.059   0.710
45939W        W12348  16.703   3.564   0.498
45940W        W12349  32.137  37.693   4.723
45941W        W12350  17.842  24.300  12.133
45942W        W12351  29.570  27.951   0.825
45943W        W12352  17.285  19.480   1.873
45944W        W12353  42.899   7.742  10.071
45945W        W12354  37.550  25.960   1.690
45946W        W12355   1.552  26.203  13.422
45947W        W12356  13.579  25.993  11.907
45948W        W12357  24.954  40.392   3.696
45949W        W12358   5.356  33.050  12.364
45950W        W12359  31.346  35.505  13.711
45951W        W12360  12.906  12.715   2.220
45952W        W12361  32.431  32.459   4.178
45953W        W12362   6.329  35.940  12.391
45954W        W12363  17.342  35.957   0.244
45955W        W12364   2.886  10.884   2.199
45956W        W12365  22.270   8.250   3.726
45957W        W12366  29.682   6.237  14.039
45958W        W12367  35.300   8.764   1.288
45959W        W12368  22.016  11.405   0.731
45960W        W12369  19.319  10.715   3.342
45961W        W12370  30.065  36.919  13.340
45962W        W12371  20.232  13.620   3.731
45963W        W12372  22.124   2.688  12.446
45964W        W12373  14.269   8.810  12.820
45965W        W12374  18.607  44.705  11.988
45966W        W12375  12.273   2.001  11.944
45967W        W12376  12.856  39.392   1.555
45968W        W12377  35.386  33.416   2.850
45969W        W12378  42.481   3.053   2.867
45970W        W12379  24.781  43.381   0.472
45971W        W12380   3.022  33.669  11.639
45972W        W12381  41.326   7.600  11.170
45973W        W12382  42.596   7.308  11.115
45974W        W12383  17.186  20.815   4.159
45975W        W12384  10.728  25.652  12.393
45976W        W12385  29.005  13.208   2.665
45977W        W12386   8.613  16.945   2.126
45978W        W12387  29.787  21.903   1.881
45979W        W12388  28.633  24.502   4.422
45980W        W12389  32.766  15.678   3.822
45981W        W12390  11.928  20.412  14.573
45982W        W12391   6.476  29.040   2.508
45983W        W12392  25.986  44.816  10.731
45984W        W12393  30.531  42.325   1.808
45985W        W12394  42.302   7.162   4.654
45986W        W12395  33.395  16.899   2.679
45987W        W12396   3.865   6.421   3.295
45988W        W12397  26.058  33.125   2.909
45989W        W12398  11.838  42.691   4.253
45990W        W12399   4.758  24.129   2.196
45991W        W12400  31.651   2.560   3.309
45992W        W12401  26.621  33.037  14.368
45993W        W12402  33.615   9.450   3.277
45994W        W12403  37.521  11.385  13.913
45995W        W12404  19.207   2.406  10.906
45996W        W12405  13.114  18.208  13.833
45997W        W12406  12.728   0.631  11.532
45998W        W12407   6.423  14.726  14.489
45999W        W12408  29.072   7.847  13.579
46000W        W12409  28.166  41.846  13.373
46001W        W12410  21.696   0.915  12.484
46002W        W12411   7.844  12.269  13.782
46003W        W12412   1.966  24.911   3.179
46004W        W12413  16.635  24.924   4.520
46005W        W12414  42.447  11.301  12.371
46006W        W12415  26.067  19.657   1.543
46007W        W12416   4.266   5.302   0.522
46008W        W12417  24.279  33.469  10.523
46009W        W12418  23.450  42.836   3.839
46010W        W12419  32.508   1.328  11.614
46011W        W12420  39.532  40.833   4.243
46012W        W12421  29.615  30.396  11.150
46013W        W12422  27.958  11.403   2.172
46014W        W12423  32.066  12.525   0.923
46015W        W12424  35.600  35.429   2.282
46016W        W12425  30.985  37.538   3.181
46017W        W12426  24.512  15.688  12.139
46018W        W12427  18.173   4.363   1.736
46019W        W12428  11.382  24.636   0.907
46020W        W12429   2.213  17.305  12.590
46021W        W12430   3.416  39.109   4.441
46022W        W12431  39.040  16.166  13.812
46023W        W12432  17.469  44.258  10.683
46024W        W12433  25.070  37.258  13.113
46025W        W12434  39.997   0.770  14.395
46026W        W12435  40.249   4.182  12.060
46027W        W12436   0.799   2.215   1.774
46028W        W12437  32.551  13.077  12.710
46029W        W12438  11.233  42.378   3.862
46030W        W12439  27.527  16.168  13.350
46031W        W12440  29.516   3.206  12.603
46032W        W12441  28.987   4.438   3.624
46033W        W12442   1.849   9.864   0.603
46034W        W12443   1.104  11.647   4.362
46035W        W12444  38.494  33.863   2.429
46036W        W12445  39.848  21.684   0.324
46037W        W12446  13.820   6.141   2.860
46038W        W12447  39.919  10.636   2.845
46039W        W12448  27.938   9.610  13.019
46040W        W12449   1.771  36.129   1.718
46041W        W12450   6.840   5.412  13.338
46042W        W12451   7.401  20.845  13.931
46043W        W12452  34.798  26.507   3.192
46044W        W12453  11.330  33.643   3.698
46045W        W12454  40.309  26.756  12.028
46046W        W12455  15.567  31.511  12.038
46047W        W12456  41.017  13.831   0.394
46048W        W12457  25.861  37.976  12.993
46049W        W12458  40.372  19.967   3.186
46050W        W12459  43.767   6.743   4.535
46051W        W12460   0.451  42.847  13.396
46052W        W12461   7.332  16.860  14.294
46053W        W12462  31.564   0.255   1.569
46054W        W12463  43.401  18.025  13.916
46055W        W12464  32.122  27.833   2.794
46056W        W12465  24.826   9.340  14.744
46057W        W12466   0.362  26.739   4.110
46058W        W12467  36.721  26.144  14.432
46059W        W12468  25.592  12.821   2.124
46060W        W12469  27.603  11.272  11.571
46061W        W12470  41.761  38.695  10.390
46062W        W12471  32.105  22.192   0.578
46063W        W12472   6.234  23.624   1.682
46064W        W12473  14.882  10.349   3.993
46065W        W12474   2.814  15.601  13.029
46066W        W12475  31.699   3.778   0.045
46067W        W12476   2.972  15.803   3.644
46068W        W12477  19.700  14.733   4.431
46069W        W12478  13.522  40.196   9.930
46070W        W12479   2.494  17.753   4.563
46071W        W12480  28.466  14.215   1.147
46072W        W12481  36.990   6.764  13.916
46073W        W12482  19.690  38.748   1.201
46074W        W12483  21.266  11.272   5.024
46075W        W12484  35.468  27.398   3.686
46076W        W12485   3.550  12.655   4.815
46077W        W12486   8.421  37.297   2.451
46078W        W12487   1.703  28.677  11.095
46079W        W12488  42.249  29.123   4.605
46080W        W12489   6.727  40.506  14.382
46081W        W12490  35.493  13.881  13.456
46082W        W12491   0.881  16.710   2.247
46083W        W12492  44.303  20.636   9.916
46084W        W12493  34.954  18.798   4.143
46085W        W12494  21.007   7.181   0.879
46086W        W12495  22.501   7.135  11.698
46087W        W12496   5.394  40.847   2.776
46088W        W12497  15.918  44.396  10.283
46089W        W12498  21.628   9.185  14.422
46090W        W12499  42.581   5.377   1.758
46091W        W12500  17.070  33.121  12.938
46092W        W12501  14.304  34.165   5.254
46093W        W12502  25.697   8.938   0.208
46094W        W12503  15.230  24.089  14.762
46095W        W12504  23.303  16.155  14.518
46096W        W12505   8.787   6.631  12.462
46097W        W12506  37.573  14.719   4.115
46098W        W12507  38.425   5.260  13.783
46099W        W12508   1.992  11.942  12.923
46100W        W12509  15.163  13.541  12.477
46101W        W12510  10.149  15.075  12.637
46102W        W12511  12.776  12.870   4.357
46103W        W12512   0.554  44.993   2.158
46104W        W12513  32.593  23.093  11.905
46105W        W12514  26.721  22.016   1.688
46106W        W12515  43.596  44.379  10.650
46107W        W12516  32.578  43.813  12.677
46108W        W12517  14.344   5.074   2.002
46109W        W12518  38.987   2.671   4.780
46110W        W12519  37.523  42.517  12.535
46111W        W12520  18.120  41.031   4.370
46112W        W12521   8.984  36.679  14.884
46113W        W12522  22.040  36.624  12.502
46114W        W12523  33.397  42.323   1.441
46115W        W12524  43.947  21.150  12.123
46116W        W12525  35.129  24.526   3.256
46117W        W12526  15.151  43.744   4.597
46118W        W12527  25.422  33.107   2.391
46119W        W12528  11.385  40.486   0.233
46120W        W12529   5.639   9.395   4.608
46121W        W12530   9.222  16.853   0.682
46122W        W12531   6.169  35.764  14.072
46123W        W12532   7.390   9.088  11.059
46124W        W12533  26.201   6.299  13.691
46125W        W12534  20.132  10.049  10.674
46126W        W12535   4.258  36.874   3.154
46127W        W12536  44.247  34.382  13.046
46128W        W12537  38.543   1.198   2.817
46129W        W12538   5.837   4.425   3.228
46130W        W12539  10.152  15.488  12.988
46131W        W12540  22.353   5.312  12.959
46132W        W12541  14.589  23.674   1.826
46133W        W12542   0.181  24.527  14.990
46134W        W12543  36.462  17.546   4.999
46135W        W12544  44.622  21.241  14.378
46136W        W12545   7.154  25.395  12.729
46137W        W12546  18.594   3.901  13.491
46138W        W12547   2.216  44.133  11.350
46139W        W12548  35.180   5.324   3.591
46140W        W12549  10.867  25.220  13.418
46141W        W12550  27.040  20.799   3.164
46142W        W12551  10.188   8.599   3.155
46143W        W12552   4.979  44.961  11.509
46144W        W12553  21.752  30.662  11.552
46145W        W12554   6.365  12.543   4.150
46146W        W12555  31.646   2.272   2.852
46147W        W12556  41.376  36.890  14.443
46148W        W12557  31.034  34.703   3.479
46149W        W12558   9.271   7.359   0.941
46150W        W12559  40.439   3.151  10.036
46151W        W12560  28.622  26.483  12.931
46152W        W12561  12.143  10.118  14.848
46153W        W12562  13.325   6.229  14.071
46154W        W12563  31.009  28.598   0.042
46155W        W12564  43.816   7.959   3.163
46156W        W12565  13.154  26.821   0.870
46157W        W12566   8.238   3.644  10.956
46158W        W12567  18.784  36.422   3.826
46159W        W12568  11.551  29.306  10.539
46160W        W12569  38.652  28.603   1.792
46161W        W12570  13.139  33.085   1.620
46162W        W12571   6.990  28.288   4.533
46163W        W12572  21.500  30.001  12.108
46164W        W12573  12.628  16.294  12.366
46165W        W12574   3.310  27.915   0.945
46166W        W12575  29.446  27.038   1.820
46167W        W12576  28.616  25.729   3.722
46168W        W12577   8.275  29.923  13.536
46169W        W12578  36.442   5.744  11.660
46170W        W12579  31.252  26.409   4.131
46171W        W12580  39.437  10.712   3.069
46172W        W12581  15.269  19.262  12.510
46173W        W12582   0.308  23.247  13.041
46174W        W12583  20.810  39.894   3.272
46175W        W12584   0.478  44.863   3.271
46176W        W12585  30.696  19.745   3.669
46177W        W12586  43.488   3.961  11.558
46178W        W12587   4.199  43.231  12.184
46179W        W12588  18.628  15.352   3.521
46180W        W12589  18.895  14.961  12.506
46181W        W12590   7.040  44.942  13.002
46182W        W12591  36.998  25.237   4.380
46183W        W12592  12.543   5.661  12.157
46184W        W12593  41.850   5.276   1.191
46185W        W12594  32.583  32.156   3.552
46186W        W12595  14.087   2.912  12.970
46187W        W12596  38.941  11.050  14.322
46188W        W12597   4.463  29.809   4.496
46189W        W12598  17.072  14.785  14.824
46190W        W12599  42.827  14.931  13.684
46191W        W12600  21.765   8.372   3.800
46192W        W12601  33.588  18.970   0.893
46193W        W12602  26.458  21.980   1.212
46194W        W12603   9.442   7.323   2.882
46195W        W12604   6.569   1.348  12.428
46196W        W12605  17.572   6.057   3.318
46197W        W12606  42.540  25.102   4.239
46198W        W12607  32.458  14.884  11.127
46199W        W12608  26.566   3.024  10.651
46200W        W12609  19.466  18.818   0.879
46201W        W12610  26.791  17.241   4.193
46202W        W12611  41.806   7.712   0.251
46203W        W12612   4.859  38.661  12.512
46204W        W12613   7.933  30.024  11.986
46205W        W12614   5.246   4.867   2.716
46206W        W12615  44.376  30.967   4.231
46207W        W12616  38.908  38.616  14.306
46208W        W12617  33.524   0.382  13.070
46209W        W12618   0.840  19.131  13.794
46210W        W12619  26.998  18.298   1.990
46211W        W12620   5.937  26.589   3.743
46212W        W12621  42.294  33.980  13.583
46213W        W12622  16.765  30.114   4.789
46214W        W12623   8.415  20.650   4.925
46215W        W12624   9.282  13.180   2.873
46216W        W12625  13.218   3.463  14.945
46217W        W12626  22.728  29.502  13.992
46218W        W12627  29.240  19.473  12.497
46219W        W12628  34.817  13.521   4.686
46220W        W12629  14.175  29.863   4.336
46221W        W12630  25.520  28.542   2.976
46222W        W12631  40.490  33.326  14.505
46223W        W12632   7.330  34.183  14.441
46224W        W12633   9.248  44.532  14.771
46225W        W12634  17.035  36.088  11.104
46226W        W12635  28.081  26.750  12.033
46227W        W12636  14.212   7.335   4.492
46228W        W12637  43.321  22.131  13.953
46229W        W12638   0.311   1.650   1.413
46230W        W12639  26.610  24.274   4.539
46231W        W12640   5.727  38.866  10.613
46232W        W12641  19.130   1.466   1.354
46233W        W12642  10.173  17.799   0.385
46234W        W12643  22.100   1.398  14.506
46235W        W12644  14.602  43.918   4.479
46236W        W12645  34.488  22.677  14.918
46237W        W12646  30.516   4.771   1.536
46238W        W12647  32.275  30.402   3.616
46239W        W12648  15.524  32.534  13.428
46240W        W12649  19.751  26.519  12.792
46241W        W12650  17.388  17.226   3.400
46242W        W12651  10.228  16.344  10.255
46243W        W12652  23.074  17.818  13.477
46244W        W12653   8.290  17.806   4.577
46245W        W12654  29.854  28.872   0.737
46246W        W12655  42.219   3.771  12.055
46247W        W12656   3.831  23.692   1.790
46248W        W12657  27.500  12.439  11.994
46249W        W12658   6.818  23.568   3.307
46250W        W12659  27.222  34.596   4.918
46251W        W12660  32.887  41.508  11.278
46252W        W12661  22.462  24.706  14.964
46253W        W12662  23.918  43.278   4.767
46254W        W12663   1.492  37.984  14.325
46255W        W12664  19.176  23.990  12.328
46256W        W12665   1.725  37.063   4.576
46257W        W12666  43.755   7.283   2.780
46258W        W12667   5.501   5.884  12.282
46259W        W12668  14.326  15.236  14.711
46260W        W12669  32.164  11.491   3.161
46261W        W12670  23.293  20.265  11.329
46262W        W12671  37.355   2.291  10.627
46263W        W12672  28.644  44.301   4.573
46264W        W12673  39.516  27.456   3.819
46265W        W12674  26.215  26.195  14.845
46266W        W12675  35.235   6.794  12.019
46267W        W12676  21.433  42.148   1.760
46268W        W12677  26.086  37.565   0.503
46269W        W12678  17.583   2.422  14.897
46270W        W12679  11.428   3.472   3.255
46271W        W12680  41.689   8.845   0.992
46272W        W12681  26.986  36.911  13.303
46273W        W12682  12.823  19.175   2.217
46274W        W12683  14.126  36.768  12.550
46275W        W12684  11.816  10.568   4.635
46276W        W12685  40.146  38.440   1.936
46277W        W12686   7.394  20.300  13.114
46278W        W12687  39.905  43.240   3.847
46279W        W12688  12.787   9.297  12.001
46280W        W12689  26.900  41.809  10.823
46281W        W12690  11.087  40.172  12.541
46282W        W12691  37.051  43.054   0.319
46283W        W12692   7.927  10.530   0.481
46284W        W12693  30.888  18.147  13.031
46285W        W12694  39.806  16.036  14.090
46286W        W12695  39.286   7.237  12.963
46287W        W12696  13.581  32.388   4.675
46288W        W12697  17.056  22.459  11.181
46289W        W12698   5.155  18.334  14.614
46290W        W12699  17.516   1.948   3.444
46291W        W12700  16.687  36.976   2.011
46292W        W12701   7.592  34.462  13.520
46293W        W12702  42.079  44.537  11.555
46294W        W12703  37.675  14.151  12.543
46295W        W12704   5.998  34.728  12.397
46296W        W12705   7.561   6.895  13.079
46297W        W12706  15.307  15.339   5.061
46298W        W12707  18.950  12.185   0.453
46299W        W12708  38.008   4.723  13.407
46300W        W12709  40.540  23.737  11.595
46301W        W12710   1.794   2.287   2.613
46302W        W12711  32.049  15.274   3.646
46303W        W12712   6.091   5.322  14.825
46304W        W12713  32.390  43.310   4.039
46305W        W12714  25.948   2.744   3.896
46306W        W12715  24.696  28.396   0.353
46307W        W12716  29.537  18.253  14.235
46308W        W12717  21.057  30.938   0.956
46309W        W12718  39.700  42.241   3.294
46310W        W12719  25.924  27.619   4.184
46311W        W12720   5.344   8.246  14.880
46312W        W12721  26.566  35.501  12.591
46313W        W12722   7.250  42.887  13.520
46314W        W12723  44.825  13.419   1.768
46315W        W12724   4.219  44.232   4.149
46316W        W12725   2.188  40.361  12.449
46317W        W12726  30.056  30.119   4.656
46318W        W12727   1.500  30.653   4.480
46319W        W12728  34.862  16.146   2.142
46320W        W12729  22.990  35.357  11.130
46321W        W12730  16.800  11.055   0.943
46322W        W12731  16.330  25.191  11.012
46323W        W12732   0.221  32.882  11.533
46324W        W12733   8.815   0.604   9.845
46325W        W12734  21.931  12.711   0.763
46326W        W12735  17.562   9.059  11.132
46327W        W12736  33.973  34.250   2.863
46328W        W12737  15.903   9.041   4.665
46329W        W12738  26.882  44.067  11.111
46330W        W12739  11.456  39.968   2.244
46331W        W12740  17.136  11.310   4.171
46332W        W12741  12.261   4.671  14.471
46333W        W12742   2.715  22.578   3.632
46334W        W12743  10.278  13.759  10.486
46335W        W12744  26.183  15.655  13.575
46336W        W12745  32.087  23.782  12.033
46337W        W12746  43.433  20.817  11.887
46338W        W12747  40.850   5.329  10.445
46339W        W12748  25.593  29.671  10.804
46340W        W12749  41.618  40.028   4.533
46341W        W12750   0.703  19.269   1.777
46342W        W12751  25.207  24.619  13.070
46343W        W12752  23.984  21.407   5.422
46344W        W12753  40.771  10.103   1.865
46345W        W12754  28.563  29.824  13.813
46346W        W12755   1.271  42.832  12.345
46347W        W12756  26.671   9.907   0.624
46348W        W12757   0.447  36.537  14.186
46349W        W12758  39.539  34.991  13.529
46350W        W12759  23.849  36.656  14.407
46351W        W12760   2.429   5.623  13.012
46352W        W12761  40.327  24.137   0.768
46353W        W12762   4.895   1.931   1.332
46354W        W12763  42.006  31.748  14.062
46355W        W12764  21.145  26.723   1.361
46356W        W12765  32.427  18.076  12.025
46357W        W12766  34.856   0.307   2.595
46358W        W12767  33.853  32.951   3.734
46359W        W12768  43.760  14.777  14.085
46360W        W12769  14.246  24.581   0.533
46361W        W12770  39.406  21.431  13.354
46362W        W12771  28.503   3.526  14.776
46363W        W12772  37.967   6.792  14.569
46364W        W12773  33.023  31.064  13.424
46365W        W12774  34.350   0.636  12.028
46366W        W12775  23.187  15.310   2.119
46367W        W12776   2.851  38.813   0.197
46368W        W12777  40.969  24.186  13.426
46369W        W12778   8.865  35.951  10.310
46370W        W12779   6.697  26.597  10.016
46371W        W12780   7.675  18.621   3.479
46372W        W12781  31.118  40.690   0.746
46373W        W12782   0.036  43.802   4.171
46374W        W12783  11.796   1.094   2.634
46375W        W12784  19.057  29.978  11.949
46376W        W12785   8.248  31.096   2.624
46377W        W12786  35.179  11.877   2.687
46378W        W12787  25.606  10.749  12.053
46379W        W12788  26.720   1.418  11.697
46380W        W12789  33.923  25.870  13.023
46381W        W12790  11.905  43.982   3.689
46382W        W12791  28.639  17.777  10.640
46383W        W12792   9.232  13.623   0.291
46384W        W12793  21.585   1.243   3.590
46385W        W12794  26.278  27.888  11.986
46386W        W12795  34.442  19.600  13.946
46387W        W12796  18.543  41.468   3.301
46388W        W12797  42.537  28.878   2.354
46389W        W12798   3.242  23.559   2.615
46390W        W12799  22.492  43.371  11.749
46391W        W12800  31.545   1.523  13.118
46392W        W12801  29.622   1.018  12.404
46393W        W12802  30.492   0.112  12.418
46394W        W12803   2.363  32.552  11.408
46395W        W12804  43.710   0.244  13.394
46396W        W12805   2.155  27.268   3.341
46397W        W12806  24.104   5.219   0.419
46398W        W12807  39.627  25.150  14.755
46399W        W12808  43.246  22.292  14.445
46400W        W12809   2.401  15.693   2.755
46401W        W12810  20.633  35.184   2.877
46402W        W12811  20.769  40.726  14.961
46403W        W12812   7.839  13.805  11.114
46404W        W12813  43.001  20.616   4.285
46405W        W12814   6.948  14.131   4.651
46406W        W12815  37.084  42.904  10.917
46407W        W12816  19.594  16.169  12.781
46408W        W12817  29.738  44.613  11.135
46409W        W12818  23.613  36.617   4.526
46410W        W12819  21.708  37.968  12.132
46411W        W12820  13.174   4.222  14.249
46412W        W12821  19.665  20.818  11.072
46413W        W12822   0.557  37.083   3.210
46414W        W12823  19.885  29.258  10.293
46415W        W12824  31.643  25.926  12.927
46416W        W12825  42.616  19.108   1.303
46417W        W12826   5.086  21.504  11.177
46418W        W12827  12.120  22.365  10.366
46419W        W12828  43.359   6.383   0.370
46420W        W12829  25.674  36.122  10.713
46421W        W12830  15.739  25.857  14.763
46422W        W12831   8.322  39.094   2.789
46423W        W12832  40.987  42.519  11.518
46424W        W12833  14.669  35.294  12.094
46425W        W12834  30.548  27.783  11.127
46426W        W12835  35.384  39.103   3.774
46427W        W12836  12.690  28.906  11.666
46428W        W12837  37.668  42.033  13.913
46429W        W12838  37.200   7.711   1.620
46430W        W12839  27.087   2.326  14.447
46431W        W12840  13.050  28.201   1.349
46432W        W12841  10.783  26.628   9.980
46433W        W12842  33.390   3.057   3.554
46434W        W12843  10.737  21.248   3.572
46435W        W12844  26.987  11.364   2.699
46436W        W12845  38.446  10.211  11.457
46437W        W12846  33.841   9.024   4.986
46438W        W12847  11.849  43.457   0.884
46439W        W12848  30.713  15.553   3.174
46440W        W12849  36.399  35.341   3.164
46441W        W12850  19.190   7.706   3.626
46442W        W12851  20.876  18.485   0.831
46443W        W12852  33.047  28.312   4.522
46444W        W12853  33.091  43.824   1.289
46445W        W12854   8.204  29.613  14.871
46446W        W12855  18.649  21.920  12.567
46447W        W12856  43.538  33.399  12.176
46448W        W12857  42.019   8.362  13.275
46449W        W12858  14.955  26.941  12.822
46450W        W12859  18.795  25.390  12.500
46451W        W12860  38.850   0.532   1.673
46452W        W12861  24.250  31.073   4.653
46453W        W12862  43.728  41.459  11.098
46454W        W12863  31.201   3.766   1.744
46455W        W12864  24.622  38.996  14.448
46456W        W12865  17.724  14.575   0.396
46457W        W12866   8.739  31.535  12.543
46458W        W12867  34.653   8.337  14.969
46459W        W12868  37.567  20.217   1.384
46460W        W12869  37.605  34.486  13.455
46461W        W12870   4.418  44.312  12.755
46462W        W12871  14.573   1.350   2.254
46463W        W12872  14.416   8.988  12.370
46464W        W12873  11.033   3.707  13.850
46465W        W12874  32.013  40.110  13.980
46466W        W12875  23.158   8.553  12.497
46467W        W12876  13.525  44.357  14.943
46468W        W12877  42.853   0.695  11.094
46469W        W12878  28.231  42.535   2.964
46470W        W12879  12.035  29.149  10.654
46471W        W12880  43.433  44.405   1.382
46472W        W12881  18.687  26.708   4.551
46473W        W12882  22.307   5.843   3.791
46474W        W12883  28.690   6.288  12.517
46475W        W12884  11.581  28.436  14.804
46476W        W12885  19.804  30.001  12.598
46477W        W12886  34.776   4.791  11.740
46478W        W12887   2.555  35.992  11.414
46479W        W12888   7.437   6.337  12.113
46480W        W12889  17.071  17.293   2.032
46481W        W12890  17.134   2.373   2.080
46482W        W12891  37.051  26.021  14.835
46483W        W12892  43.916   6.660  13.177
46484W        W12893   3.695   1.356   0.033
46485W        W12894  23.095  14.120   4.715
46486W        W12895  25.606  30.359  14.739
46487W        W12896   8.340   2.334  14.890
46488W        W12897   3.249  42.749   1.406
46489W        W12898   6.470   7.718   3.783
46490W        W12899  27.900  11.822  12.160
46491W        W12900  33.304  40.558  12.862
46492W        W12901  43.854  44.883  14.142
46493W        W12902  22.820  27.544   1.704
46494W        W12903  26.240  39.297   4.496
46495W        W12904   8.641   7.534  10.360
46496W        W12905  29.716   5.897  14.907
46497W        W12906  39.327  15.417   2.223
46498W        W12907  30.073   0.801  12.461
46499W        W12908   6.430  39.514  13.114
46500W        W12909  40.694   8.430  10.238
46501W        W12910   5.906  23.049  13.775
46502W        W12911   3.893  42.511  12.763
46503W        W12912   8.340  19.614   1.951
46504W        W12913  31.978  33.574  13.547
46505W        W12914   5.307  19.071   0.183
46506W        W12915  29.485  39.412   4.639
46507W        W12916  23.208  11.766  12.963
46508W        W12917  20.880  19.644  10.751
46509W        W12918  14.298  20.949  14.293
46510W        W12919  25.633  10.719  12.951
46511W        W12920  40.350  37.236  12.122
46512W        W12921  21.183  23.195   3.252
46513W        W12922  22.419  24.385  10.287
46514W        W12923  16.274   5.854   0.341
46515W        W12924  19.262  37.429   2.155
46516W        W12925  39.007  13.549  11.585
46517W        W12926  31.001  25.932   1.403
46518W        W12927   6.182  10.859   3.508
46519W        W12928  26.967  18.531  12.026
46520W        W12929  39.682  10.107  11.781
46521W        W12930   5.317  29.727   1.341
46522W        W12931   4.397   7.497   3.858
46523W        W12932  16.666   4.525   4.044
46524W        W12933   8.130  14.196   1.898
46525W        W12934  34.463  25.137   0.286
46526W        W12935  37.525  15.193   2.319
46527W        W12936  35.855  38.240  11.656
46528W        W12937  32.664  42.884  14.933
46529W        W12938  18.508  26.064   1.028
46530W        W12939   3.927  21.132  10.735
46531W        W12940   3.401  13.585   0.329
46532W        W12941  24.826  35.504  14.684
46533W        W12942  17.073  10.878  14.575
46534W        W12943  24.523  30.656  14.895
46535W        W12944  26.945   1.233   1.261
46536W        W12945  40.324  16.646  13.572
46537W        W12946   0.897  44.405  12.607
46538W        W12947   4.191   4.875  12.944
46539W        W12948   0.717  36.379   1.471
46540W        W12949  41.782  29.271   1.354
46541W        W12950   3.515  20.654   1.312
46542W        W12951  23.060  22.091  14.443
46543W        W12952   3.925  30.183  11.510
46544W        W12953  24.995  28.455   4.181
46545W        W12954  24.189  38.561  14.399
46546W        W12955  18.786  23.555   2.231
46547W        W12956   9.746  18.085  11.398
46548W        W12957  18.038  10.684  14.306
46549W        W12958  19.998   9.224  12.948
46550W        W12959  25.116   3.869  11.642
46551W        W12960  24.198   6.288   1.393
46552W        W12961  11.667   9.339   4.407
46553W        W12962  38.896  25.717  11.576
46554W        W12963  30.467  33.005  13.056
46555W        W12964  21.013  35.500   4.743
46556W        W12965  43.954  13.339   3.445
46557W        W12966   1.529  16.417   3.423
46558W        W12967  14.408  26.985   4.267
46559W        W12968  15.711  39.097  13.677
46560W        W12969  39.921   9.180  13.784
46561W        W12970  27.596  33.901  11.172
46562W        W12971  23.847   8.621   1.297
46563W        W12972  15.794   1.377  14.903
46564W        W12973   2.301  13.098  11.688
46565W        W12974  15.307  37.087   3.611
46566W        W12975  17.726   7.467   0.294
46567W        W12976   1.553  29.517   1.421
46568W        W12977  23.275   6.425  11.439
46569W        W12978  13.309  24.036  12.820
46570W        W12979  18.193  15.761  11.885
46571W        W12980  21.857  30.176  13.433
46572W        W12981  16.932  43.568  10.694
46573W        W12982  26.996   1.785   1.327
46574W        W12983  28.667   4.006   3.198
46575W        W12984  18.663  11.445  12.142
46576W        W12985  26.608  27.950  11.217
46577W        W12986  18.877   8.811   4.489
46578W        W12987  43.980  25.687   2.171
46579W        W12988  13.627  26.849   2.676
46580W        W12989   5.394  32.649   0.440
46581W        W12990  31.986  13.327   4.616
46582W        W12991  33.083  37.038  11.662
46583W        W12992  13.827  16.195   2.716
46584W        W12993  10.565   2.269   1.902
46585W        W12994  23.515   7.402  11.944
46586W        W12995  22.431  26.680  11.284
46587W        W12996   1.211  23.078   0.872
46588W        W12997  34.378  15.058  13.513
46589W        W12998   9.382  40.001  11.654
46590W        W12999  44.688  36.688   4.461
46591W        W13000  26.704  30.981  12.970
46592W        W13001  24.636  17.763  12.151
46593W        W13002  20.587  41.920  14.464
46594W        W13003  43.865  30.865   0.888
46595W        W13004   2.800  42.080  12.596
46596W        W13005  35.602  19.178  14.703
46597W        W13006   9.423  22.427  13.883
46598W        W13007   2.985   3.697  14.427
46599W        W13008   4.195  37.348  12.924
46600W        W13009   0.706   0.441   2.378
46601W        W13010   3.288   1.171  14.383
46602W        W13011   8.360  31.423   0.127
46603W        W13012   0.921  15.616   4.528
46604W        W13013   8.762  16.175  13.352
46605W        W13014   3.340  36.514  12.513
46606W        W13015  14.233   4.292  13.768
46607W        W13016   6.847  41.079  14.394
46608W        W13017  36.425  15.853   3.195
46609W        W13018  13.730  28.680   0.703
46610W        W13019  18.227  32.904  12.801
46611W        W13020  39.694  23.477  11.374
46612W        W13021   6.365  23.189  10.751
46613W        W13022  24.308  20.127  12.807
46614W        W13023   1.799   1.651   1.879
46615W        W13024  42.047  32.515  11.229
46616W        W13025  30.088  41.025   2.530
46617W        W13026  21.283   3.368   3.682
46618W        W13027  44.060  17.779   0.494
46619W        W13028  21.589  25.233  13.872
46620W        W13029   5.806   8.388   4.639
46621W        W13030  31.984   6.394  12.128
46622W        W13031  28.662   9.752  11.997
46623W        W13032  39.027   9.865  12.824
46624W        W13033  32.068  15.656  10.614
46625W        W13034  38.164  25.201   1.007
46626W        W13035  35.438  30.963   3.609
46627W        W13036  11.704  38.256  13.506
46628W        W13037   8.667  14.746  13.361
46629W        W13038  11.783   2.949  12.818
46630W        W13039   5.945  17.682  10.437
46631W        W13040  30.009  34.867   2.470
46632W        W13041  39.106  24.425   1.963
46633W        W13042  38.510  30.685  14.370
46634W        W13043  38.074   8.022   0.734
46635W        W13044  26.501  12.830   0.027
46636W        W13045   1.471   9.065  14.373
46637W        W13046  21.586   1.982  11.717
46638W        W13047   5.718  31.268   1.726
46639W        W13048   3.407   4.395  10.864
46640W        W13049  42.333  13.301   3.372
46641W        W13050  24.546  21.276  14.470
46642W        W13051  15.816   1.130   3.781
46643W        W13052  29.104  22.985  11.389
46644W        W13053  10.164   7.324  10.923
46645W        W13054  11.991  28.776   2.928
46646W        W13055   1.270  18.737   1.320
46647W        W13056  20.124  20.360   3.433
46648W        W13057  21.884  25.263  11.232
46649W        W13058  38.802  14.827   2.694
46650W        W13059  19.833  35.864  13.624
46651W        W13060  23.984  32.998  10.645
46652W        W13061  40.010  29.665   3.000
46653W        W13062   2.848  11.914   0.240
46654W        W13063  27.477   2.088   3.710
46655W        W13064  23.716  23.414   3.136
46656W        W13065   3.899  23.289   3.310
46657W        W13066  31.449   3.648  11.560
46658W        W13067  11.577  35.946  14.847
46659W        W13068   5.662  19.979   1.168
46660W        W13069  38.340   8.365   0.452
46661W        W13070  20.160  29.947   0.156
46662W        W13071   6.643   6.688  12.994
46663W        W13072   2.021  42.899   4.621
46664W        W13073  32.705   8.085  12.903
46665W        W13074  15.666  12.153   1.404
46666W        W13075  31.622  28.065  13.125
46667W        W13076  33.748  22.038   4.597
46668W        W13077   1.811  34.821  10.473
46669W        W13078  30.828  25.421   1.455
46670W        W13079  16.138  28.019   0.433
46671W        W13080  35.930  28.106   3.862
46672W        W13081   7.180  26.611   3.270
46673W        W13082   7.185  39.587   2.550
46674W        W13083  23.756  31.355   3.092
46675W        W13084  10.108  25.159   4.505
46676W        W13085   3.022  38.118  14.347
46677W        W13086   2.756  10.121  14.336
46678W        W13087   1.034  25.084   1.781
46679W        W13088  25.390  19.154   3.352
46680W        W13089  26.918   5.787  14.348
46681W        W13090  27.532  44.565   4.560
46682W        W13091  33.106   1.001   0.997
46683W        W13092  10.182  42.404   5.197
46684W        W13093  36.303   6.083   2.358
46685W        W13094   5.280  43.747  11.895
46686W        W13095  14.099  17.570   4.519
46687W        W13096  19.752   1.268  10.581
46688W        W13097   8.923  16.313  11.941
46689W        W13098   7.825  23.233  12.495
46690W        W13099  37.572   0.330  10.499
46691W        W13100  36.516  17.854  12.871
46692W        W13101  35.624  42.407  10.910
46693W        W13102  26.672  24.203  14.369
46694W        W13103  17.703  26.397   2.370
46695W        W13104   0.728   8.729  10.224
46696W        W13105  14.365  16.210   1.310
46697W        W13106  39.742  42.448   0.877
46698W        W13107  10.624  24.960  11.292
46699W        W13108   2.912   4.270  10.734
46700W        W13109  44.512  30.892   1.761
46701W        W13110  33.467   7.962  12.510
46702W        W13111  24.063   4.414   1.016
46703W        W13112  37.097  12.292   1.324
46704W        W13113  35.485  22.715   3.251
46705W        W13114   7.244   2.467  12.118
46706W        W13115  43.789  43.972  10.983
46707W        W13116  44.356  43.029   4.187
46708W        W13117   8.186  12.026  11.626
46709W        W13118   7.036  33.403   4.956
46710W        W13119  40.125  35.965   1.410
46711W        W13120  41.558   0.072   1.268
46712W        W13121   8.175  37.760  11.118
46713W        W13122  17.170   4.753   4.603
46714W        W13123   2.467  43.493   2.258
46715W        W13124  13.072  16.635   1.316
46716W        W13125  17.840  13.497   1.847
46717W        W13126  39.895  11.817   0.401
46718W        W13127  36.956  30.005   3.218
46719W        W13128   1.274  44.783  12.467
46720W        W13129   4.405   5.789   0.692
46721W        W13130  33.420  44.831   0.731
46722W        W13131  16.287   2.906  12.822
46723W        W13132  24.299  41.961   3.393
46724W        W13133  19.283  40.090   2.873
46725W        W13134   8.883  27.456  12.879
46726W        W13135  11.187   5.805   4.241
46727W        W13136   8.860  26.441   3.807
46728W        W13137  24.591  43.718   0.831
46729W        W13138   9.870  19.789   3.686
46730W        W13139  39.445  33.996   0.983
46731W        W13140  35.964  17.518   5.056
46732W        W13141  37.380  27.506   4.625
46733W        W13142  10.185  31.822  10.790
46734W        W13143  40.100  12.134   2.803
46735W        W13144   0.697   7.740   1.668
46736W        W13145  33.588   7.241   2.285
46737W        W13146  40.477   6.788   1.313
46738W        W13147  10.854  17.647  14.290
46739W        W13148   2.418   8.181  12.611
46740W        W13149   9.943  42.683   4.142
46741W        W13150  38.304  34.212  11.158
46742W        W13151  20.543  29.503   0.770
46743W        W13152  30.124  19.410  14.034
46744W        W13153  11.134  33.398   1.864
46745W        W13154  17.312  40.701   0.336
46746W        W13155  22.178   7.204  12.100
46747W        W13156  17.833  39.774   2.711
46748W        W13157  25.208  15.889  13.373
46749W        W13158  33.484  36.380  14.837
46750W        W13159  40.388   9.301   0.770
46751W        W13160  27.975  12.569  11.803
46752W        W13161  40.739   6.397  13.896
46753W        W13162  14.398  32.526   4.349
46754W        W13163  17.210  12.681  13.973
46755W        W13164  30.937  13.878  12.545
46756W        W13165  16.322  18.186  12.518
46757W        W13166  38.474  33.418   4.136
46758W        W13167  31.601  18.861  14.533
46759W        W13168  38.111   5.952   0.089
46760W        W13169  40.764  20.513   1.158
46761W        W13170  12.624   5.278  12.519
46762W        W13171   1.350  30.053  12.125
46763W        W13172  11.390  36.493  13.361
46764W        W13173  38.400  23.513   0.724
46765W        W13174  25.678  29.642  11.811
46766W        W13175  30.386  14.850  13.990
46767W        W13176  19.420  19.194   2.754
46768W        W13177  26.727  21.618   2.279
46769W        W13178  27.064  26.401   2.140
46770W        W13179   4.666  17.347  12.970
46771W        W13180  34.933  15.110  12.038
46772W        W13181  30.452  14.044  12.373
46773W        W13182  33.396  23.169  13.633
46774W        W13183  28.564   1.959  11.047
46775W        W13184  39.874  27.556  12.608
46776W        W13185  27.755  41.528  13.456
46777W        W13186   6.456  20.620   0.016
46778W        W13187  26.211   1.415   1.856
46779W        W13188  19.211  17.759   4.318
46780W        W13189  33.863  22.208   2.606
46781W        W13190  13.998  44.702   2.582
46782W        W13191  38.145  19.427   2.414
46783W        W13192  43.512  29.594  11.620
46784W        W13193  25.442  33.982  12.524
46785W        W13194  24.988  43.841   3.861
46786W        W13195   9.218   3.702  13.029
46787W        W13196  26.245  15.362   0.873
46788W        W13197  21.092  34.487  13.670
46789W        W13198  12.867  21.422   2.548
46790W        W13199   3.583  18.217  13.874
46791W        W13200   9.289  10.822   0.534
46792W        W13201  43.432   7.622  12.956
46793W        W13202  32.368  31.001  12.002
46794W        W13203  15.715  22.510  14.354
46795W        W13204  11.919  31.948  14.364
46796W        W13205  14.798  19.737   3.661
46797W        W13206  25.253  39.546  14.920
46798W        W13207   6.929  17.241   1.951
46799W        W13208  23.097  14.955   4.927
46800W        W13209  14.545  28.171  11.193
46801W        W13210  15.289  40.573  14.532
46802W        W13211   3.693  24.791   4.597
46803W        W13212  14.717  20.299  14.877
46804W        W13213   7.924  20.647   4.712
46805W        W13214  32.091  10.319  13.489
46806W        W13215  16.189  22.560   5.308
46807W        W13216  14.196  34.652   0.842
46808W        W13217  28.017   2.038  11.115
46809W        W13218  39.347  44.338  12.139
46810W        W13219  26.878  20.515  14.065
46811W        W13220  21.794   4.573   2.742
46812W        W13221  18.691  38.302   1.391
46813W        W13222  43.322  37.548   0.697
46814W        W13223  40.998  32.598  10.717
46815W        W13224  18.992  26.933  14.804
46816W        W13225  14.319  38.036   0.883
46817W        W13226  39.511  28.571  13.958
46818W        W13227   7.991  21.573  14.558
46819W        W13228  32.788  22.290   2.226
46820W        W13229  32.949  28.675   4.171
46821W        W13230   0.973  11.733   1.659
46822W        W13231  39.077   8.821   0.812
46823W        W13232   4.304  32.021   0.872
46824W        W13233  25.518  40.667  12.938
46825W        W13234  27.489  29.073   2.582
46826W        W13235   6.190  37.667  13.979
46827W        W13236   5.220  40.638   0.831
46828W        W13237  29.475  21.974   4.189
46829W        W13238  25.529  13.889   4.793
46830W        W13239   9.798   0.649   4.508
46831W        W13240   2.430  11.366   4.646
46832W        W13241   6.127   6.622   2.791
46833W        W13242  21.529   7.992   2.302
46834W        W13243  26.238  42.756  13.007
46835W        W13244  20.483   4.526  11.428
46836W        W13245   5.350  12.723  13.916
46837W        W13246  35.402  12.487  11.609
46838W        W13247  37.703  22.256  10.270
46839W        W13248  21.146  27.183  12.072
46840W        W13249  35.974  27.830   4.779
46841W        W13250  15.785   9.126   0.767
46842W        W13251  14.893  39.257   2.895
46843W        W13252  35.053  11.712  13.895
46844W        W13253  42.624   8.657   3.628
46845W        W13254  17.063  18.561   4.067
46846W        W13255   6.677  27.802  12.141
46847W        W13256  34.019   1.468  13.239
46848W        W13257  25.193   1.007  12.348
46849W        W13258  32.183  41.970  10.754
46850W        W13259  35.768  18.798   4.250
46851W        W13260  42.281  16.503  14.670
46852W        W13261  10.417   3.304  14.273
46853W        W13262  39.831  19.642   4.559
46854W        W13263  33.168  42.871  14.831
46855W        W13264  19.403  35.331   0.565
46856W        W13265  10.544  18.600  12.459
46857W        W13266   5.609   9.075   1.050
46858W        W13267  26.462  37.653   2.331
46859W        W13268   6.859   8.743   4.905
46860W        W13269  25.131  38.292  14.538
46861W        W13270  23.687  21.144   3.194
46862W        W13271  10.124  30.694  13.934
46863W        W13272  19.818  28.758   1.852
46864W        W13273  20.473   1.499   1.246
46865W        W13274  29.641  11.212   2.227
46866W        W13275   8.020  16.317  10.579
46867W        W13276  27.519  40.510  11.674
46868W        W13277  40.211   1.081  12.083
46869W        W13278  36.128   8.914  13.354
46870W        W13279  27.930  18.377   1.280
46871W        W13280   6.857  16.625   0.752
46872W        W13281  38.556  34.153  10.232
46873W        W13282  10.912  35.080   9.770
46874W        W13283   2.138  27.597  13.769
46875W        W13284  39.909  33.168   4.762
46876W        W13285   3.864  24.534  13.538
46877W        W13286  42.317  23.747  12.950
46878W        W13287  25.080  38.345  11.090
46879W        W13288  28.541  21.259   1.748
46880W        W13289   9.856   0.232   2.418
46881W        W13290  21.058   5.426  13.943
46882W        W13291   6.771  38.728   4.627
46883W        W13292   1.248  27.153  10.700
46884W        W13293  15.771  10.086   4.144
46885W        W13294  39.337   6.244   3.651
46886W        W13295  29.976   4.022   3.804
46887W        W13296  21.627  26.470  12.389
46888W        W13297  44.797  27.177   0.244
46889W        W13298  28.116  17.524   3.667
46890W        W13299  44.769  37.435  13.372
46891W        W13300  21.709  29.216   4.073
46892W        W13301  22.945  34.137   2.816
46893W        W13302  41.898  34.403   0.218
46894W        W13303  36.472   2.743   3.818
46895W        W13304  15.814   7.271  10.931
46896W        W13305  38.073  16.522   1.627
46897W        W13306   5.877  21.881   1.376
46898W        W13307   6.612  42.574  14.366
46899W        W13308  41.512  25.590  10.495
46900W        W13309  35.970  24.175  10.771
46901W        W13310   6.187   4.261  10.739
46902W        W13311  43.772  39.288  14.489
46903W        W13312  35.023  23.701   1.622
46904W        W13313  12.902   1.124   1.936
46905W        W13314   5.868   1.509   0.752
46906W        W13315  14.368   9.197   0.863
46907W        W13316  19.738   6.481  12.603
46908W        W13317  34.358  12.910  14.639
46909W        W13318   9.942  29.542  13.418
46910W        W13319  41.922  28.902  14.934
46911W        W13320  11.180  36.637  10.926
46912W        W13321  11.666  38.979  12.794
46913W        W13322  22.705  38.580   0.758
46914W        W13323  22.980   5.245  10.450
46915W        W13324  38.371  27.895  11.190
46916W        W13325  39.397  15.381   3.320
46917W        W13326  38.884  10.110  14.819
46918W        W13327  34.099  22.123  12.836
46919W        W13328  29.112  24.902  12.480
46920W        W13329  16.676  19.961  11.580
46921W        W13330  16.055  19.901   3.342
46922W        W13331  17.581  22.537   2.424
46923W        W13332  19.117  36.414  11.549
46924W        W13333  15.164  23.736  11.257
46925W        W13334  41.871  43.841   0.231
46926W        W13335  32.143  17.155   2.198
46927W        W13336   3.315  23.828   3.899
46928W        W13337  32.994  16.272   1.145
46929W        W13338  28.994  27.374  11.074
46930W        W13339  38.837   9.888  11.308
46931W        W13340  41.688   6.704  14.769
46932W        W13341  15.050   9.837  11.600
46933W        W13342  43.155   3.013  12.073
46934W        W13343   1.723   5.972  13.220
46935W        W13344  25.695  34.030   4.030
46936W        W13345  44.019  28.772  11.547
46937W        W13346  44.039  18.559  12.535
46938W        W13347   2.697  12.873  11.153
46939W        W13348  36.865   7.988   1.187
46940W        W13349  33.344  41.516   0.932
46941W        W13350  33.870  39.965  13.548
46942W        W13351   0.924  13.240  12.111
46943W        W13352  41.166  18.716  14.884
46944W        W13353  29.167  23.789  14.402
46945W        W13354   6.756  32.189   3.952
46946W        W13355  30.047  40.879   3.014
46947W        W13356  42.983  38.488   1.422
46948W        W13357   7.398  36.578  10.587
46949W        W13358   5.019  35.033   2.279
46950W        W13359   8.786  16.585   0.840
46951W        W13360  19.752  13.595   1.232
46952W        W13361  16.849  40.580   1.757
46953W        W13362  15.073   2.721   0.852
46954W        W13363  43.309  25.917  11.380
46955W        W13364  29.328  31.585   3.282
46956W        W13365  33.373  19.224   1.288
46957W        W13366  21.952  39.715  11.713
46958W        W13367  41.889  37.311  10.151
46959W        W13368   5.934  17.899   3.159
46960W        W13369  44.853  41.069  10.597
46961W        W13370  43.441  26.647  14.199
46962W        W13371   9.186  13.348   0.871
46963W        W13372   8.826  14.288   1.374
46964W        W13373  37.917  41.585   1.688
46965W        W13374  44.103  42.860  14.302
46966W        W13375  36.143  26.794   4.930
46967W        W13376  37.278  15.717   3.264
46968W        W13377  41.982  29.154  10.315
46969W        W13378  26.105  27.116   4.126
46970W        W13379  12.740  27.203  14.506
46971W        W13380   8.645  11.374  10.353
46972W        W13381  41.965  38.477   2.311
46973W        W13382  23.673  40.942   1.040
46974W        W13383  44.964  21.541  14.921
46975W        W13384  19.743  15.305  11.382
46976W        W13385  24.344  43.257   3.782
46977W        W13386  24.899  38.647   2.345
46978W        W13387   5.829  18.035  14.431
46979W        W13388  11.724  41.678   0.126
46980W        W13389   0.259  43.256   0.771
46981W        W13390  22.641  15.742   3.164
46982W        W13391  28.020  15.702   3.286
46983W        W13392  43.959  38.982  12.652
46984W        W13393   2.999  24.423  13.945
46985W        W13394  43.028  28.676  12.584
46986W        W13395   6.700  30.052   4.785
46987W        W13396   8.283   8.946  12.753
46988W        W13397  35.841  40.053  13.401
46989W        W13398  42.425   9.880   3.188
46990W        W13399  39.027   3.903   3.453
46991W        W13400  28.108  38.629   4.971
46992W        W13401  17.737  22.226   5.021
46993W        W13402  30.568  19.413   4.587
46994W        W13403   8.213  30.166   0.777
46995W        W13404  30.533  36.126   4.030
46996W        W13405   9.411   4.988   1.631
46997W        W13406  35.053  34.106  14.410
46998W        W13407  44.233  34.475   0.324
46999W        W13408   0.695  35.749   3.135
47000W        W13409  32.315  44.047  10.822
47001W        W13410   2.865  20.313   0.835
47002W        W13411   1.942  20.620  12.022
47003W        W13412  41.253  15.081   0.987
47004W        W13413  35.370  33.570   3.359
47005W        W13414   3.193  26.752   3.392
47006W        W13415  38.775  37.510  12.370
47007W        W13416  19.643   5.737  13.930
47008W        W13417  15.783  20.219   4.259
47009W        W13418  22.106   6.778   0.962
47010W        W13419   1.964  34.533   3.536
47011W        W13420   4.872   8.793  12.882
47012W        W13421  30.534   3.749   4.930
47013W        W13422  18.013   0.976   2.698
47014W        W13423  39.929  30.931  10.892
47015W        W13424  32.308  26.951  14.399
47016W        W13425  44.333   4.917   0.356
47017W        W13426   1.241  30.384  13.979
47018W        W13427  32.861  17.550   2.735
47019W        W13428  27.503   6.904  12.451
47020W        W13429  44.167  21.970  12.813
47021W        W13430  34.343  43.897  12.838
47022W        W13431  30.417   4.000   0.499
47023W        W13432  29.655  27.292   2.693
47024W        W13433   1.355  30.701   1.968
47025W        W13434   1.719  11.664  12.009
47026W        W13435   7.658  22.821  13.344
47027W        W13436  15.454  38.846   4.153
47028W        W13437  43.254  39.529   3.319
47029W        W13438  44.311   1.981  12.959
47030W        W13439  25.631  16.207  10.541
47031W        W13440  40.888   9.082   5.096
47032W        W13441  20.117  35.897  11.044
47033W        W13442   4.881  21.609   3.579
47034W        W13443  35.912  43.428  13.638
47035W        W13444  34.870  41.325  11.577
47036W        W13445  32.634  11.260   3.113
47037W        W13446  27.965  32.214   2.005
47038W        W13447   6.759   2.222   3.954
47039W        W13448  32.084  15.205   4.488
47040W        W13449  24.534  25.040  14.328
47041W        W13450  11.067   4.718   1.235
47042W        W13451  26.081  26.151   3.135
47043W        W13452   5.968  30.175   0.709
47044W        W13453  12.308   3.024   5.083
47045W        W13454  27.061  14.208   0.790
47046W        W13455   4.667   8.713  13.331
47047W        W13456  25.220  22.225   1.851
47048W        W13457  19.228   5.883  14.692
47049W        W13458  37.366  40.337  13.079
47050W        W13459  44.446   0.934  11.645
47051W        W13460  30.225  25.148  11.708
47052W        W13461  11.761  36.731  13.067
47053W        W13462  30.048  18.981   0.468
47054W        W13463  19.236  44.910   1.351
47055W        W13464  41.815  32.828   2.364
47056W        W13465  44.538  12.191  13.514
47057W        W13466  44.940   4.940  10.704
47058W        W13467  23.926   1.004   1.717
47059W        W13468  19.693  18.033   0.434
47060W        W13469  13.272  22.759  12.114
47061W        W13470  32.543   4.973   4.966
47062W        W13471  22.781   3.791   4.142
47063W        W13472   2.793  31.987   5.088
47064W        W13473  24.800  13.260  11.091
47065W        W13474  16.060   6.027   1.641
47066W        W13475  11.896  42.147   1.768
47067W        W13476  40.230  23.207   0.233
47068W        W13477   8.403  19.116   2.821
47069W        W13478   6.319  11.085   0.812
47070W        W13479   6.731  35.355   0.823
47071W        W13480  12.331   8.145   2.294
47072W        W13481  14.516   5.891   3.288
47073W        W13482   9.811  11.352   4.893
47074W        W13483   7.885  32.454   3.652
47075W        W13484  33.841  17.588   1.004
47076W        W13485   8.403  43.837   0.269
47077W        W13486   2.409  18.778   2.618
47078W        W13487  11.279  28.226   4.569
47079W        W13488  10.375  14.208   2.671
47080W        W13489  28.444  14.218   0.625
47081W        W13490  24.470   0.815  11.655
47082W        W13491  24.090  30.690  10.662
47083W        W13492   2.976  38.445   1.373
47084W        W13493  28.068  22.157  12.617
47085W        W13494   9.571  35.954   2.164
47086W        W13495   8.087  14.454  13.968
47087W        W13496  32.655  31.591   1.927
47088W        W13497  15.523  17.584   4.389
47089W        W13498  31.013  23.395   4.656
47090W        W13499  20.172  37.503   4.112
47091W        W13500  37.550  15.172   3.571
47092W        W13501  21.035  22.139   1.259
47093W        W13502  20.137  23.181   1.889
47094W        W13503  29.078   7.681   1.691
47095W        W13504   4.436  36.265  11.144
47096W        W13505  42.510  21.379   4.721
47097W        W13506  37.472  21.666  12.383
47098W        W13507  39.607   4.936   2.335
47099W        W13508  29.925  20.693  11.719
47100W        W13509   7.658  38.457  12.632
47101W        W13510  30.428  30.455  12.934
47102W        W13511  27.936  37.445  12.885
47103W        W13512  35.615  30.461   1.009
47104W        W13513  38.352  26.108   3.939
47105W        W13514  18.677   2.867   3.718
47106W        W13515  38.414  22.127   0.429
47107W        W13516   5.305  35.108   0.751
47108W        W13517  22.965  39.631   3.647
47109W        W13518  25.597  34.948   9.831
47110W        W13519  18.943  28.786   4.557
47111W        W13520   6.320  11.358   3.418
47112W        W13521  42.499   8.087  11.431
47113W        W13522  12.283  27.536  12.882
47114W        W13523  41.094  18.079   2.720
47115W        W13524  29.323  44.398  12.441
47116W        W13525  37.007   4.554  11.842
47117W        W13526  11.381   9.343  12.633
47118W        W13527  30.288  19.964   0.434
47119W        W13528  32.967  11.603  14.317
47120W        W13529  35.979  12.898   0.269
47121W        W13530  36.799  42.791  11.706
47122W        W13531  40.880  26.937  11.040
47123W        W13532  13.425   3.946  13.261
47124W        W13533  37.121  14.204  13.816
47125W        W13534  38.077   0.986  12.202
47126W        W13535  32.079   9.446  13.748
47127W        W13536  30.131  13.594  12.381
47128W        W13537  13.872  21.841  12.146
47129W        W13538  33.192  30.710   1.733
47130W        W13539  13.822  16.631  12.644
47131W        W13540  31.190   7.117  12.262
47132W        W13541   4.281  22.656   1.883
47133W        W13542  11.190  24.443  12.473
47134W        W13543  15.019  37.252   1.232
47135W        W13544  10.141  34.110  12.051
47136W        W13545  27.151  34.897   0.792
47137W        W13546  44.555   5.537   0.963
47138W        W13547  43.619  30.567  11.139
47139W        W13548   1.327   9.809  14.745
47140W        W13549  41.877  18.779   2.579
47141W        W13550  33.955   0.660  12.841
47142W        W13551   4.835  12.698  13.973
47143W        W13552  13.524  29.011  11.952
47144W        W13553  29.441  23.847   2.838
47145W        W13554  30.850  23.281  13.402
47146W        W13555  30.213  29.417   0.319
47147W        W13556   6.843   3.193  13.965
47148W        W13557   4.929  18.290   0.757
47149W        W13558  40.008  22.096   4.067
47150W        W13559  31.088  30.409  13.783
47151W        W13560  18.675  32.394  11.640
47152W        W13561   8.327   1.779  12.136
47153W        W13562  10.692   0.231   3.303
47154W        W13563  34.951  22.028   3.328
47155W        W13564  29.350  31.162  11.249
47156W        W13565  22.683  26.443  13.494
47157W        W13566  31.271   9.705   3.753
47158W        W13567  28.497  30.028  11.658
47159W        W13568  35.078   1.838  10.382
47160W        W13569  33.439   2.463   1.897
47161W        W13570  26.438  17.091   2.223
47162W        W13571  19.311  31.587   0.667
47163W        W13572  24.160  36.130  11.621
47164W        W13573  15.114  16.444   0.258
47165W        W13574   8.404   6.501   0.111
47166W        W13575   2.109  11.922   3.469
47167W        W13576  32.256  25.669  12.039
47168W        W13577   4.276  17.364  14.327
47169W        W13578  34.659  35.871   3.419
47170W        W13579   2.992  14.693   0.903
47171W        W13580  39.847  30.528   2.598
47172W        W13581  40.028  33.526   2.397
47173W        W13582   8.308  30.243  10.696
47174W        W13583  15.231  15.954   0.300
47175W        W13584  24.901  36.138   3.632
47176W        W13585  36.448   7.068   2.371
47177W        W13586   1.929  43.945  10.604
47178W        W13587  14.359  10.446  12.037
47179W        W13588  44.222  44.815   2.694
47180W        W13589  18.266  20.605  10.200
47181W        W13590  23.987   8.640  14.058
47182W        W13591  30.103  16.441   3.614
47183W        W13592  27.911   5.551   2.850
47184W        W13593  20.568  10.703  13.812
47185W        W13594  12.353   9.499   3.294
47186W        W13595  10.904  21.186  13.938
47187W        W13596  17.078   8.385   2.347
47188W        W13597  19.070  19.650  14.003
47189W        W13598   5.575   8.848   3.750
47190W        W13599  11.074   4.046   1.828
47191W        W13600  10.356   5.490  10.783
47192W        W13601   0.551   7.643  12.222
47193W        W13602   2.181  40.036   4.083
47194W        W13603   2.792  44.299   2.650
47195W        W13604  18.698  25.041   1.468
47196W        W13605   8.697  20.273  11.559
47197W        W13606  25.163  30.020  12.868
47198W        W13607  23.724  18.847  11.095
47199W        W13608  37.123  32.858   2.443
47200W        W13609  17.917   4.017   2.917
47201W        W13610  31.509  34.250   0.217
47202W        W13611  21.770  39.755  12.734
47203W        W13612   9.403  11.211  13.320
47204W        W13613  10.013  24.226  13.053
47205W        W13614  16.610  39.310  12.566
47206W        W13615   9.768  17.299   1.442
47207W        W13616  20.291  23.724   3.185
47208W        W13617  33.336  34.529   3.229
47209W        W13618  35.398  16.857   0.417
47210W        W13619  38.806  13.661  13.952
47211W        W13620  23.590   8.891   3.246
47212W        W13621  12.754  12.656   1.165
47213W        W13622  44.676  28.159  14.407
47214W        W13623  32.890  32.686   0.287
47215W        W13624  36.081   4.280   2.697
47216W        W13625  16.385  28.061   3.127
47217W        W13626   4.129  36.630  14.651
47218W        W13627   9.436   3.951  14.734
47219W        W13628  29.045  33.006  11.674
47220W        W13629  21.797  17.367  11.950
47221W        W13630  43.041  42.403   1.201
47222W        W13631  35.050   9.470  13.043
47223W        W13632  12.086  31.456   1.819
47224W        W13633  34.445   5.447  10.648
47225W        W13634  22.414   1.033  13.994
47226W        W13635  43.282  10.165  12.458
47227W        W13636   4.273  17.334   4.677
47228W        W13637  42.255  22.962   2.609
47229W        W13638  22.143  39.371  13.900
47230W        W13639  37.242  32.083   1.971
47231W        W13640   9.712  40.821   1.855
47232W        W13641  39.139  26.246   2.486
47233W        W13642  11.965  15.222   1.069
47234W        W13643  14.779  11.817   3.242
47235W        W13644  25.927  37.273   5.017
47236W        W13645   9.194   6.186   4.098
47237W        W13646  14.144   1.677   3.238
47238W        W13647  13.646   2.412  13.451
47239W        W13648  18.115  20.769   4.984
47240W        W13649  12.115  25.976   2.771
47241W        W13650  40.821   5.875   3.856
47242W        W13651  39.530  29.524  14.093
47243W        W13652  34.107  17.582  12.940
47244W        W13653  12.045  23.180  12.040
47245W        W13654  15.209  27.673  13.537
47246W        W13655  34.121  20.191  14.568
47247W        W13656   5.694  25.011  12.036
47248W        W13657   1.857   0.632  12.825
47249W        W13658  27.913  26.594   4.162
47250W        W13659   9.309  18.796   1.370
47251W        W13660  34.137  16.645   4.414
47252W        W13661  42.908   6.325   2.270
47253W        W13662   8.276  41.317  12.163
47254W        W13663   5.119  42.226  13.465
47255W        W13664  21.538  17.268   3.516
47256W        W13665  33.140  10.236  10.749
47257W        W13666  32.597  25.422   4.414
47258W        W13667  37.077  14.830   4.100
47259W        W13668  18.201  26.082   2.824
47260W        W13669  21.792  12.214  11.925
47261W        W13670  13.653  44.334   3.104
47262W        W13671   1.217  22.552   2.045
47263W        W13672   2.544   2.289   4.246
47264W        W13673  22.787   5.007  14.627
47265W        W13674   5.823  43.614  14.457
47266W        W13675  32.489  20.554  10.544
47267W        W13676  16.199  33.087  12.075
47268W        W13677  40.182  29.043   4.361
47269W        W13678  23.183   9.827  12.822
47270W        W13679  25.868  37.595  11.621
47271W        W13680  23.212  36.016  11.576
47272W        W13681  33.974   8.095  12.386
47273W        W13682  28.367  14.805  13.913
47274W        W13683  39.119  15.813   3.785
47275W        W13684  37.414  43.516   0.329
47276W        W13685  38.450   0.405  12.992
47277W        W13686  38.130  22.500  13.750
47278W        W13687  32.929   7.347   0.308
47279W        W13688  19.490  10.296   2.586
47280W        W13689   1.379   9.504   3.562
47281W        W13690   8.370  24.690   1.080
47282W        W13691   2.829  10.447   0.652
47283W        W13692  13.325  28.675  13.520
47284W        W13693  12.616   6.309  13.466
47285W        W13694  37.869   3.915  10.812
47286W        W13695   5.018  39.631  11.018
47287W        W13696   8.954  18.054   3.642
47288W        W13697  21.695  21.487  14.708
47289W        W13698   6.825  28.097   0.126
47290W        W13699  23.268  31.442  10.748
47291W        W13700  42.642  33.334  14.495
47292W        W13701  28.578  18.006  14.583
47293W        W13702  20.177  40.442   4.665
47294W        W13703  25.673   7.665  14.994
47295W        W13704   0.756  44.190   3.530
47296W        W13705  39.814  39.309   2.488
47297W        W13706   7.215  40.524  13.750
47298W        W13707  12.055  14.096   1.769
47299W        W13708  17.275  27.490   0.831
47300W        W13709  12.165   6.840  14.850
47301W        W13710  36.870  14.356  12.484
47302W        W13711   2.060  36.613   0.939
47303W        W13712  42.658  26.574   1.126
47304W        W13713  44.790  32.991   2.423
47305W        W13714  36.094   7.162  11.895
47306W        W13715  34.678  19.326  11.618
47307W        W13716  13.251  35.262  14.314
47308W        W13717   4.153   7.299   2.840
47309W        W13718   4.508  27.683   1.360
47310W        W13719  30.452  14.093   3.110
47311W        W13720   5.729  28.882  11.482
47312W        W13721  19.566  20.580  13.936
47313W        W13722   4.966  41.903   4.219
47314W        W13723  14.763  25.455  10.702
47315W        W13724  13.977  26.822  12.051
47316W        W13725  20.024  29.854  13.078
47317W        W13726  18.942  38.371   2.212
47318W        W13727  20.039  14.533  12.965
47319W        W13728  12.871  22.955   2.284
47320W        W13729   5.119  19.852  13.519
47321W        W13730   5.248   4.257  11.556
47322W        W13731  17.781  23.704  10.806
47323W        W13732  33.073  38.555  12.324
47324W        W13733  30.009  37.580   0.279
47325W        W13734  43.175   1.965  12.969
47326W        W13735   1.720  12.121   0.377
47327W        W13736  21.541  10.165   3.256
47328W        W13737  42.143   3.467   4.226
47329W        W13738  24.695  18.868  14.917
47330W        W13739  11.649   5.332   0.235
47331W        W13740  44.936   9.498   0.875
47332W        W13741   7.224  42.026  12.933
47333W        W13742   5.430   4.747   4.491
47334W        W13743  35.653  20.703   4.122
47335W        W13744  31.963  28.520   2.118
47336W        W13745  25.793   7.084   3.283
47337W        W13746  36.454  37.980   3.942
47338W        W13747  19.986   1.244   0.694
47339W        W13748  32.102  13.129   1.574
47340W        W13749  27.593  19.574  10.586
47341W        W13750   9.059  18.745   0.370
47342W        W13751  43.276  17.523  13.962
47343W        W13752  26.607  26.049  11.289
47344W        W13753  13.774  10.338   4.265
47345W        W13754   0.874  32.531  13.538
47346W        W13755  24.356  43.450  12.344
47347W        W13756  44.996  10.911   0.121
47348W        W13757  25.096  26.612  13.937
47349W        W13758  19.157   2.399   1.162
47350W        W13759  27.056  31.918   4.422
47351W        W13760  22.959  43.449   4.809
47352W        W13761  23.802  41.403  12.991
47353W        W13762  37.869  36.962   0.797
47354W        W13763  23.522   2.278  11.490
47355W        W13764   4.046  44.783   1.447
47356W        W13765  31.122  28.069   2.423
47357W        W13766  38.625  25.528   0.294
47358W        W13767   2.685   2.794  12.549
47359W        W13768   8.688  37.573   3.260
47360W        W13769  13.408  31.468  13.507
47361W        W13770  27.697  35.562   0.339
47362W        W13771   3.399   4.755  13.457
47363W        W13772  24.209  25.201  10.253
47364W        W13773  33.149   8.634  13.174
47365W        W13774  40.925  18.184   0.953
47366W        W13775  34.471  36.249   2.818
47367W        W13776  15.517  32.490  10.616
47368W        W13777  41.453  24.401   1.716
47369W        W13778  15.051  30.472  13.441
47370W        W13779  29.447  23.667  10.475
47371W        W13780  37.780  37.384   1.664
47372W        W13781  18.505  29.722   1.612
47373W        W13782   4.908  40.763   9.919
47374W        W13783   8.955  12.635   0.992
47375W        W13784  40.849  13.208   0.201
47376W        W13785  15.429  44.891   0.615
47377W        W13786  32.046   6.877   0.259
47378W        W13787  20.163  11.386   0.395
47379W        W13788  37.312  38.926  12.764
47380W        W13789  17.876  23.553  13.447
47381W        W13790  31.585   4.835   4.071
47382W        W13791  27.332  35.506   4.202
47383W        W13792  33.610  12.310   1.786
47384W        W13793  34.502  17.083   3.584
47385W        W13794  40.090  31.736   4.197
47386W        W13795  44.841  39.173   1.749
47387W        W13796  20.514  34.222   3.850
47388W        W13797  44.404  37.084  13.299
47389W        W13798  20.029  14.183  11.664
47390W        W13799   6.825  18.372   3.344
47391W        W13800  21.076  20.268   3.080
47392W        W13801   6.435  12.585   2.268
47393W        W13802  41.665  26.815   4.923
47394W        W13803  23.491  32.792   3.305
47395W        W13804  15.748  21.715  11.644
47396W        W13805  37.015  22.461   2.450
47397W        W13806  37.748  10.072   2.688
47398W        W13807  17.575   3.554   4.193
47399W        W13808  24.109  20.000  11.341
47400W        W13809  22.376  13.832   9.718
47401W        W13810  39.549  23.023   3.817
47402W        W13811  33.391  42.910   0.738
47403W        W13812  41.269  18.901   3.806
47404W        W13813  33.866   0.033   4.174
47405W        W13814  12.643   8.779  12.000
47406W        W13815  27.201   4.129  11.129
47407W        W13816  23.958  43.233   2.519
47408W        W13817  14.812  44.872   4.353
47409W        W13818  37.021  17.759   1.885
47410W        W13819  15.279  41.822  12.973
47411W        W13820  33.215  15.744  14.020
47412W        W13821   6.861  17.207  10.609
47413W        W13822  17.607  28.232   0.043
47414W        W13823  38.205  36.082   1.739
47415W        W13824  17.097  25.522   0.989
47416W        W13825  43.706  26.002   1.249
47417W        W13826  38.023  43.430   1.878
47418W        W13827   4.926   8.633  10.550
47419W        W13828  40.459  14.726   4.122
47420W        W13829  29.125  16.155   2.720
47421W        W13830  44.967  31.058   0.770
47422W        W13831   3.802  22.008  13.712
47423W        W13832  38.998  10.670   3.334
47424W        W13833  11.846  44.903   0.303
47425W        W13834   6.321  29.344  13.649
47426W        W13835  42.538  24.507  12.035
47427W        W13836  20.205  10.593   1.875
47428W        W13837  10.430  12.407   4.615
47429W        W13838  12.603  25.041  14.942
47430W        W13839  28.862  11.680  13.103
47431W        W13840  24.234  40.008  13.358
47432W        W13841   9.331  18.839  14.512
47433W        W13842  37.343   0.447   1.272
47434W        W13843   7.622  37.010   2.406
47435W        W13844  27.903  15.584  14.097
47436W        W13845  19.158   0.406   4.115
47437W        W13846  32.029  39.267  13.460
47438W        W13847   0.279   3.479   1.895
47439W        W13848  26.265  16.207   0.511
47440W        W13849  17.738  25.931   2.620
47441W        W13850  15.592  44.996  14.349
47442W        W13851   0.538  15.201  12.043
47443W        W13852   1.268  33.545   3.365
47444W        W13853  36.595  20.182   4.446
47445W        W13854   0.472  32.868  14.766
47446W        W13855  18.033   4.071   1.107
47447W        W13856   6.571   6.251  14.285
47448W        W13857  40.882  39.016   3.716
47449W        W13858  43.475  17.257  13.511
47450W        W13859   8.669   9.986  12.816
47451W        W13860  23.170  40.998  11.230
47452W        W13861   5.427  23.098   0.030
47453W        W13862  15.785  34.073  10.249
47454W        W13863  36.105  35.523  12.205
47455W        W13864  37.328  10.833   0.281
47456W        W13865  35.604  16.997   3.204
47457W        W13866  29.547   5.155   4.941
47458W        W13867  21.171  24.219   2.323
47459W        W13868   1.447  14.133   2.182
47460W        W13869  24.213  16.296   0.170
47461W        W13870  44.880   5.499   1.358
47462W        W13871  11.704  23.001   2.431
47463W        W13872  27.273  10.874   2.535
47464W        W13873  22.942  25.714  10.102
47465W        W13874  43.515  20.114   1.502
47466W        W13875   2.970  36.100  11.873
47467W        W13876  13.335  15.646   3.476
47468W        W13877  15.166   0.307  10.075
47469W        W13878  19.340  36.325  12.494
47470W        W13879   9.626   7.669  12.268
47471W        W13880   3.693   5.579  14.807
47472W        W13881  19.211  14.520  12.242
47473W        W13882  28.856  42.882   1.418
47474W        W13883  38.264  19.827   1.755
47475W        W13884   3.306   3.844  13.466
47476W        W13885   8.902  10.578   3.270
47477W        W13886  16.715  14.741  10.613
47478W        W13887  33.565  21.565   0.468
47479W        W13888  37.405  12.154   3.244
47480W        W13889  17.163   8.337  10.748
47481W        W13890  18.261  31.665   0.731
47482W        W13891  14.901  21.240   1.781
47483W        W13892  18.299  24.763   2.683
47484W        W13893  12.688  13.998   0.490
47485W        W13894  15.309   4.370  12.947
47486W        W13895  12.327  24.786   0.498
47487W        W13896  44.218  30.783  12.142
47488W        W13897  42.794   6.960  12.603
47489W        W13898   6.689  21.982  10.608
47490W        W13899  38.568   6.146  14.298
47491W        W13900  16.154  20.099   5.251
47492W        W13901  42.959  29.424   3.653
47493W        W13902  15.073  19.546  12.918
47494W        W13903  12.448  36.820   2.671
47495W        W13904   1.605   9.782   3.154
47496W        W13905   6.739  26.542  10.557
47497W        W13906  21.697  27.196   1.208
47498W        W13907  12.177   5.884  14.834
47499W        W13908  26.085  31.508   3.225
47500W        W13909   7.765  11.538   0.017
47501W        W13910  41.256  34.398  10.748
47502W        W13911  29.314  34.869   1.177
47503W        W13912  28.022  28.501  14.984
47504W        W13913  37.973  19.126  11.316
47505W        W13914   8.676  39.903  12.522
47506W        W13915   8.323  12.998   4.583
47507W        W13916  42.694  16.787   5.520
47508W        W13917  26.851  28.502   3.212
47509W        W13918  43.055   3.881   2.752
47510W        W13919  27.111  26.626  11.719
47511W        W13920  25.811   3.747  14.839
47512W        W13921  25.905  41.902   2.120
47513W        W13922  12.780  34.706  13.802
47514W        W13923  24.105  15.361  11.990
47515W        W13924  43.901  25.513  12.044
47516W        W13925  18.803  13.285   4.372
47517W        W13926   9.335   7.489  10.800
47518W        W13927  17.115  39.293   2.313
47519W        W13928  44.444  24.444  11.543
47520W        W13929   4.816  36.607  12.440
47521W        W13930  24.042  16.617  14.304
47522W        W13931   3.079   3.141  13.145
47523W        W13932  37.515  44.447   0.365
47524W        W13933  30.078  29.331  10.662
47525W        W13934   6.710  18.155   4.277
47526W        W13935   3.912  35.271   4.561
47527W        W13936  42.978  13.617   4.325
47528W        W13937  21.717  16.905   0.387
47529W        W13938  18.284  13.155  13.092
47530W        W13939   8.227  44.889  14.100
47531W        W13940  36.616  30.696  12.140
47532W        W13941  10.090  29.529  14.568
47533W        W13942  12.764  20.270  14.027
47534W        W13943  33.975  19.645  13.725
47535W        W13944  24.098  16.068  13.423
47536W        W13945  26.380   7.668   4.997
47537W        W13946  10.922  19.543   2.336
47538W        W13947  30.499  31.919   4.062
47539W        W13948  30.979  42.605   1.812
47540W        W13949  35.534  25.419  14.038
47541W        W13950  15.074  41.476   0.970
47542W        W13951  26.983  14.941   1.825
47543W        W13952   6.208   5.851  11.767
47544W        W13953  35.957   2.651   1.893
47545W        W13954  34.911   9.274  11.605
47546W        W13955  39.956  34.048  12.306
47547W        W13956  34.957  22.710  10.274
47548W        W13957  41.327  15.903  12.602
47549W        W13958  28.466  33.870  10.838
47550W        W13959   9.252  18.312   4.529
47551W        W13960  10.085  25.004  11.494
47552W        W13961  14.631  14.667   0.690
47553W        W13962   5.018  10.611  14.502
47554W        W13963  12.783  15.153  12.974
47555W        W13964  17.749   1.354   3.615
47556W        W13965  28.441  35.358   2.744
47557W        W13966  24.248   7.863   0.765
47558W        W13967  37.206  33.083   3.447
47559W        W13968   1.713  19.404  11.601
47560W        W13969  34.040  21.901  11.976
47561W        W13970  12.209  35.001   0.551
47562W        W13971  30.736  11.774  12.365
47563W        W13972  11.839  20.088  14.971
47564W        W13973  26.655  15.204   2.790
47565W        W13974  14.550  44.009   2.273
47566W        W13975   4.551  21.499  11.117
47567W        W13976  29.512  21.559  12.728
47568W        W13977  33.133  34.488   2.707
47569W        W13978   5.978  27.713   1.812
47570W        W13979  34.019  43.466  13.950
47571W        W13980  43.339  20.254  13.773
47572W        W13981  28.531  38.746  11.192
47573W        W13982  26.238  21.771  13.940
47574W        W13983  19.175   8.706   0.371
47575W        W13984  39.157  13.191   0.676
47576W        W13985  12.698  32.007   0.786
47577W        W13986  28.551   2.903  11.074
47578W        W13987   4.759  32.601  10.704
47579W        W13988   3.040  12.834  13.533
47580W        W13989  27.488  40.912   2.164
47581W        W13990  22.769  32.455   2.345
47582W        W13991  43.261  10.364   0.204
47583W        W13992  43.387   7.981  11.480
47584W        W13993  27.542  26.203   2.215
47585W        W13994  28.413   0.965  12.075
47586W        W13995  28.843   2.987   2.773
47587W        W13996  33.611  41.581   3.003
47588W        W13997   9.822  23.983   3.112
47589W        W13998  30.997  13.631   0.493
47590W        W13999  27.491   4.597  11.593
47591W        W14000  20.060   1.933  14.130
47592W        W14001  43.494  33.875   4.136
47593W        W14002  39.153  35.086   3.259
47594W        W14003  34.851  13.827  11.108
47595W        W14004  20.234  30.697   3.593
47596W        W14005  16.347  42.931  11.358
47597W        W14006   8.418  43.865   4.154
47598W        W14007  14.855  34.476   4.960
47599W        W14008  27.619  18.065  13.292
47600W        W14009  14.146  43.402  12.279
47601W        W14010  33.157   1.989  13.063
47602W        W14011  34.051  36.562  11.482
47603W        W14012  32.112  27.366  13.443
47604W        W14013   7.775  16.523   3.371
47605W        W14014   0.319   0.262  12.942
47606W        W14015  29.915   1.952   3.711
47607W        W14016  25.564  12.132  11.109
47608W        W14017  40.780   1.749   2.318
47609W        W14018  42.421  24.997  13.545
47610W        W14019   9.007  44.394  12.363
47611W        W14020  22.489   4.178   2.198
47612W        W14021  30.757  11.478  11.956
47613W        W14022  27.622   2.964   0.799
47614W        W14023  32.817  34.473   3.156
47615W        W14024  24.598  26.992   1.180
47616W        W14025  17.340  11.250  13.817
47617W        W14026   1.811  30.099  11.938
47618W        W14027  44.870  40.318  12.770
47619W        W14028   0.278   2.937  13.007
47620W        W14029   4.802  42.019  12.403
47621W        W14030  19.085  17.060   0.711
47622W        W14031  10.637  34.570   0.789
47623W        W14032  28.117   0.168   2.297
47624W        W14033  17.122  43.955  14.996
47625W        W14034  24.263  44.332  13.831
47626W        W14035  17.339  29.419  12.553
47627W        W14036  17.061   5.439  13.915
47628W        W14037  23.536  35.323  14.070
47629W        W14038  37.000  34.246  12.111
47630W        W14039  30.059  42.680  11.137
47631W        W14040  16.781  16.747   2.141
47632W        W14041   3.680   2.341   0.913
47633W        W14042  14.137  27.189  14.889
47634W        W14043  17.621  36.958   1.725
47635W        W14044  15.325  33.376   4.416
47636W        W14045  43.494  27.137   2.725
47637W        W14046  42.693  18.710   3.179
47638W        W14047  30.348  33.085  11.127
47639W        W14048  44.557  18.601   0.418
47640W        W14049  13.665  31.140  13.863
47641W        W14050  44.920  36.592   0.938
47642W        W14051   0.459  20.463  14.286
47643W        W14052  35.266  12.891   3.763
47644W        W14053  22.416   5.331  12.214
47645W        W14054   4.917  17.728   3.169
47646W        W14055  17.300   0.405  12.377
47647W        W14056  19.736  33.538   2.024
47648W        W14057  29.071  36.030   0.024
47649W        W14058  42.416  44.889  12.038
47650W        W14059  23.549  31.853   3.188
47651W        W14060  10.295   4.071   4.443
47652W        W14061  36.014  39.752   3.614
47653W        W14062  39.735  38.841  12.658
47654W        W14063  19.162   7.359  12.254
47655W        W14064  38.166  21.278  12.539
47656W        W14065   8.131   4.910  13.962
47657W        W14066   5.417  16.091   4.038
47658W        W14067  22.723  19.274   2.303
47659W        W14068   1.498  33.505   2.694
47660W        W14069  41.996  24.058   0.419
47661W        W14070   9.914  26.727  11.450
47662W        W14071   2.728  36.133   4.924
47663W        W14072  16.764  13.266   2.124
47664W        W14073  33.204  23.900   4.647
47665W        W14074  12.786  31.901   0.220
47666W        W14075  29.070  41.423  13.662
47667W        W14076  35.059   7.293   2.258
47668W        W14077  19.676  14.395  10.997
47669W        W14078  22.131  40.615   1.877
47670W        W14079  18.846  35.849   5.032
47671W        W14080  35.807  16.729   1.337
47672W        W14081  17.921  44.939  11.040
47673W        W14082  39.252  39.534  11.767
47674W        W14083   6.760  34.589   4.629
47675W        W14084   8.947   9.541   0.878
47676W        W14085  35.032  12.317  14.257
47677W        W14086  10.874   4.339  11.511
47678W        W14087  42.807   3.237   5.058
47679W        W14088  29.328  20.757   4.918
47680W        W14089  43.399   6.117  14.458
47681W        W14090  17.091  19.952  12.880
47682W        W14091   2.473  13.590  11.648
47683W        W14092   5.435  12.156   3.682
47684W        W14093  13.254  40.943  12.934
47685W        W14094  13.871  44.867   1.558
47686W        W14095  44.356   9.897   2.216
47687W        W14096  35.294  28.748  11.124
47688W        W14097  19.724  34.696   2.677
47689W        W14098  35.874  23.639  12.548
47690W        W14099  25.878   7.507   4.995
47691W        W14100  25.261   9.200   2.167
47692W        W14101  41.944  36.023   2.924
47693W        W14102  11.209  39.602   4.115
47694W        W14103  17.577  26.994  11.506
47695W        W14104  42.259   8.404   4.061
47696W        W14105  19.079   6.876  12.993
47697W        W14106  29.917  14.539  13.046
47698W        W14107  16.369  33.667   3.162
47699W        W14108  37.835  31.499  13.815
47700W        W14109  17.706  30.621   0.497
47701W        W14110   8.810  16.274  12.844
47702W        W14111   0.526  32.395  10.669
47703W        W14112  21.024  22.998   0.306
47704W        W14113  21.747  18.118  11.688
47705W        W14114  28.764  21.681   3.174
47706W        W14115  27.574  17.284  11.085
47707W        W14116  44.134   9.203  13.822
47708W        W14117   2.601  44.471  11.223
47709W        W14118  18.121  29.149   1.429
47710W        W14119  15.092   0.781   2.700
47711W        W14120  18.556  27.957  14.062
47712W        W14121  16.310  15.698  13.543
47713W        W14122  43.292  23.225   3.547
47714W        W14123  28.839  10.197   4.904
47715W        W14124  13.254   7.306  14.307
47716W        W14125  27.222  15.964   1.879
47717W        W14126  10.537   5.636   2.150
47718W        W14127  37.834   5.337   2.410
47719W        W14128  12.042   1.630  12.618
47720W        W14129   4.138  12.686   1.824
47721W        W14130  32.248   2.754  13.940
47722W        W14131   8.459  15.287   3.255
47723W        W14132  39.559  20.872   3.671
47724W        W14133  19.094  32.950  13.900
47725W        W14134   0.042  12.200  14.287
47726W        W14135  25.120  14.494   1.177
47727W        W14136  11.841  34.002  14.827
47728W        W14137  42.795  41.834   4.753
47729W        W14138   5.462   2.178  13.454
47730W        W14139   8.404  10.729   1.397
47731W        W14140   2.225  28.798  11.817
47732W        W14141  36.817  27.548   0.401
47733W        W14142  10.249  17.313  12.009
47734W        W14143  16.811   8.382  12.866
47735W        W14144  37.894  17.127  11.650
47736W        W14145   1.198   7.296  14.401
47737W        W14146  26.019  38.337   4.168
47738W        W14147  23.801  28.549   1.634
47739W        W14148  35.833  41.842   0.375
47740W        W14149  43.518  11.036   2.243
47741W        W14150   3.005   3.410  13.566
47742W        W14151  39.481   6.304  12.505
47743W        W14152  43.251  21.878  14.801
47744W        W14153  41.887  40.328  14.453
47745W        W14154  26.949   0.799  12.760
47746W        W14155  25.468  29.417  14.901
47747W        W14156  16.706  16.569  14.378
47748W        W14157  29.166   1.972   2.614
47749W        W14158  42.485  15.047   0.350
47750W        W14159  29.705  44.971   3.150
47751W        W14160   1.462  11.135   0.042
47752W        W14161  11.987  34.446  14.457
47753W        W14162  26.882   0.203  11.818
47754W        W14163  41.986   7.793  13.805
47755W        W14164  34.762  34.749   4.738
47756W        W14165  35.482  13.117   3.245
47757W        W14166  20.718   7.868  10.720
47758W        W14167  19.532  43.048   4.557
47759W        W14168   8.475  39.440  14.453
47760W        W14169  39.913  40.851  14.735
47761W        W14170  20.481  32.301  12.492
47762W        W14171  10.752  19.985   2.114
47763W        W14172  31.384   7.047   2.819
47764W        W14173  19.767  26.263  11.460
47765W        W14174  26.962  11.058  14.770
47766W        W14175   3.443  22.137   1.423
47767W        W14176  21.015   8.707  13.088
47768W        W14177  14.112  37.965   1.825
47769W        W14178  20.073  16.576   4.597
47770W        W14179  19.783  26.379  10.972
47771W        W14180  11.351  10.166   2.689
47772W        W14181  15.751  15.043   0.923
47773W        W14182   8.545  27.864   4.494
47774W        W14183   1.786   4.724   2.204
47775W        W14184  35.324   3.194   1.585
47776W        W14185  42.621   6.975   9.888
47777W        W14186  30.528  36.157  13.539
47778W        W14187   7.749   2.520  12.000
47779W        W14188   4.740  20.180  12.347
47780W        W14189  16.170  33.874   1.259
47781W        W14190  31.715   6.451  12.577
47782W        W14191  37.322  38.392  13.346
47783W        W14192  21.952  40.426  13.505
47784W        W14193  27.159   0.758  13.801
47785W        W14194  22.772   2.576  11.173
47786W        W14195   3.724  18.891   0.195
47787W        W14196  25.684  33.256  11.891
47788W        W14197   3.507  23.278  10.291
47789W        W14198  29.181  44.904  12.535
47790W        W14199  30.552  28.842  14.882
47791W        W14200   4.755  14.070   4.851
47792W        W14201   1.193  23.205  11.649
47793W        W14202  14.222  25.638  10.740
47794W        W14203  30.034  26.021  11.572
47795W        W14204  15.070   1.393  10.580
47796W        W14205  28.987  40.986  14.932
47797W        W14206  40.855   1.493  11.050
47798W        W14207  35.514   3.257  14.554
47799W        W14208   5.458  28.017   2.669
47800W        W14209  40.969  12.148  10.743
47801W        W14210  36.569  26.385  12.700
47802W        W14211  19.384  20.139   4.102
47803W        W14212  27.946  38.882   3.134
47804W        W14213   6.232  23.198  12.105
47805W        W14214  26.125   1.425   3.968
47806W        W14215  10.857  12.108   4.603
47807W        W14216  13.553  28.925  11.105
47808W        W14217  36.348   1.316   4.139
47809W        W14218  21.753  34.565   2.221
47810W        W14219  24.593   9.741   4.491
47811W        W14220  34.641  26.621  12.430
47812W        W14221   5.155  20.068  14.808
47813W        W14222  18.346  41.094  13.012
47814W        W14223  28.856  32.215   4.596
47815W        W14224  16.118  24.190  13.316
47816W        W14225   1.662  28.358  11.541
47817W        W14226  41.103  24.170  11.886
47818W        W14227  25.948  32.814   1.373
47819W        W14228  38.892  31.004   0.659
47820W        W14229  28.344  13.200   1.905
47821W        W14230  39.892   4.959   4.351
47822W        W14231  29.572   1.948   1.366
47823W        W14232  21.687  40.175  12.448
47824W        W14233  23.455  11.821  14.958
47825W        W14234   8.272  43.955  11.322
47826W        W14235   8.459  23.719   1.927
47827W        W14236  15.357   3.548   0.270
47828W        W14237  34.223  16.156   4.192
47829W        W14238  14.896   0.855   4.642
47830W        W14239  22.815  17.872   1.859
47831W        W14240  25.921  40.723   3.236
47832W        W14241  16.749  12.468  13.835
47833W        W14242  44.614  34.336  11.618
47834W        W14243   1.287   9.392  11.064
47835W        W14244   8.840  38.307   4.542
47836W        W14245  41.757   0.623  12.987
47837W        W14246  25.118  18.344  11.941
47838W        W14247  26.894   0.902   2.901
47839W        W14248  35.085  33.645  13.496
47840W        W14249  38.236  35.341   1.293
47841W        W14250  29.537  25.538  14.788
47842W        W14251  27.098   3.571   4.089
47843W        W14252  32.772  39.763   3.866
47844W        W14253  16.034  32.193   4.151
47845W        W14254  19.628   9.884  10.751
47846W        W14255  12.835  35.386   4.002
47847W        W14256  10.196   5.409  12.907
47848W        W14257  27.658  20.221   4.833
47849W        W14258  36.013   9.765   4.173
47850W        W14259   3.250  30.556  12.058
47851W        W14260  15.376  15.158  11.977
47852W        W14261   7.010   0.834   4.454
47853W        W14262  37.847  32.516  10.611
47854W        W14263  33.209  29.487   3.961
47855W        W14264  12.837  38.112  13.289
47856W        W14265  33.149  37.517   1.699
47857W        W14266   6.190  20.335   3.698
47858W        W14267  41.000  16.060   4.746
47859W        W14268  32.345   5.257  13.086
47860W        W14269  34.017  35.480  12.417
47861W        W14270  43.133   1.265   3.957
47862W        W14271  24.460   7.160   4.369
47863W        W14272  33.180   5.160   9.803
47864W        W14273   4.474  39.890   4.472
47865W        W14274  21.452  18.301   2.117
47866W        W14275  41.900  13.519  12.372
47867W        W14276  24.187  29.889   3.255
47868W        W14277  21.405  30.154   3.233
47869W        W14278  16.612   2.943   2.795
47870W        W14279   4.912  11.421  12.404
47871W        W14280  32.989  34.584  13.451
47872W        W14281  29.192  39.341   2.273
47873W        W14282  44.606  18.962  13.383
47874W        W14283  36.362  15.841  13.683
47875W        W14284  14.491   3.380   2.240
47876W        W14285   9.672  31.195  13.893
47877W        W14286  17.233  35.066   3.728
47878W        W14287  19.185   9.814  11.661
47879W        W14288   5.688  22.713   2.395
47880W        W14289  28.038  40.470   1.276
47881W        W14290  10.783  26.170  14.410
47882W        W14291  13.698   0.003  12.380
47883W        W14292   6.317  13.801  11.627
47884W        W14293  27.504  19.830   0.550
47885W        W14294  13.846   4.129   2.643
47886W        W14295  35.091  23.992   0.760
47887W        W14296  40.535  16.511   0.410
47888W        W14297  12.014   5.421   3.163
47889W        W14298  11.359  22.383   4.615
47890W        W14299  25.034  35.602  12.022
47891W        W14300   3.003  28.527  11.175
47892W        W14301  25.129  10.249  14.843
47893W        W14302  24.452   9.575  12.518
47894W        W14303  18.340   2.784  11.206
47895W        W14304   8.738  14.883  12.859
47896W        W14305  22.601  35.102  12.056
47897W        W14306  16.197  38.010   3.354
47898W        W14307   4.548  24.068   3.764
47899W        W14308  28.700   9.425  11.593
47900W        W14309  38.494  37.906   1.778
47901W        W14310  28.553  16.440  11.111
47902W        W14311  35.661   4.025   3.665
47903W        W14312  34.976  11.385   2.275
47904W        W14313  18.725   2.020  12.470
47905W        W14314  14.744   3.654  11.971
47906W        W14315  22.731   3.350   1.665
47907W        W14316  26.712  22.025  13.811
47908W        W14317   8.223  20.055  10.852
47909W        W14318  38.373  37.000   1.234
47910W        W14319  29.076  23.433   0.275
47911W        W14320  15.274  33.957   0.787
47912W        W14321  26.009  38.732   3.856
47913W        W14322  14.896  27.560   0.029
47914W        W14323  30.395   2.721   3.603
47915W        W14324  44.785  31.654   3.099
47916W        W14325  44.106   3.218  14.535
47917W        W14326  28.714   4.933  11.447
47918W        W14327  29.122   4.836   0.384
47919W        W14328  31.150  36.542   3.357
47920W        W14329   3.237  20.509   1.732
47921W        W14330  43.193  42.174  10.973
47922W        W14331  25.913  17.734   3.265
47923W        W14332   9.803   0.340  11.873
47924W        W14333   5.900   5.156  13.435
47925W        W14334   7.169  17.721  12.108
47926W        W14335  21.231  36.282  13.328
47927W        W14336  41.254  38.510  14.328
47928W        W14337   2.391  17.154  12.126
47929W        W14338   5.799   6.492   3.947
47930W        W14339   9.548  11.699  13.206
47931W        W14340   6.946  33.031  11.149
47932W        W14341  39.596   9.483  12.525
47933W        W14342  12.994  27.037   4.782
47934W        W14343  35.038  28.771   2.476
47935W        W14344  32.022  41.000   2.305
47936W        W14345  41.912  29.426  11.644
47937W        W14346  44.512  19.639  14.572
47938W        W14347  44.905   1.453   2.760
47939W        W14348   4.519  23.871  14.271
47940W        W14349  10.700   5.147   2.212
47941W        W14350  34.156  15.408  13.849
47942W        W14351  44.355   7.285  11.418
47943W        W14352   0.672  17.044  11.519
47944W        W14353  40.855  17.001   4.496
47945W        W14354  22.410  40.294  12.139
47946W        W14355  10.556   1.417   3.034
47947W        W14356  22.635  37.527   4.153
47948W        W14357   5.736  10.734   3.115
47949W        W14358  23.748  35.732   1.245
47950W        W14359  40.118  30.824   9.859
47951W        W14360  34.333   4.882   0.346
47952W        W14361   1.443  26.046   3.842
47953W        W14362  36.028  11.029   4.628
47954W        W14363  20.418   0.552   0.270
47955W        W14364  34.997   9.105   0.959
47956W        W14365   8.647  17.520  11.600
47957W        W14366  15.615  40.816  12.369
47958W        W14367  29.312   5.297   1.138
47959W        W14368   6.347  33.972  11.409
47960W        W14369   8.008  33.880  12.162
47961W        W14370  23.017  10.792  13.114
47962W        W14371  34.863   0.097   5.120
47963W        W14372  34.337   6.444  10.092
47964W        W14373  12.222  31.094   5.062
47965W        W14374  41.305   7.782   2.899
47966W        W14375   3.765  29.774   0.828
47967W        W14376  33.779  40.586  13.052
47968W        W14377   0.889   7.105  13.979
47969W        W14378  31.462   7.231   0.835
47970W        W14379  25.236  32.478  10.435
47971W        W14380  27.996  13.819   4.328
47972W        W14381  40.743  19.222   1.750
47973W        W14382  21.171  10.568   3.199
47974W        W14383  34.868   0.514  10.986
47975W        W14384  20.455  38.339  10.655
47976W        W14385  12.609   7.420  10.679
47977W        W14386  36.016   1.811   0.222
47978W        W14387   8.333  35.780   0.856
47979W        W14388  21.227  23.366  12.927
47980W        W14389  17.200  26.415  13.496
47981W        W14390   8.990   2.857  11.375
47982W        W14391  16.307  31.426  14.449
47983W        W14392  33.104  11.493   0.041
47984W        W14393  16.175  44.272   3.491
47985W        W14394   4.320  15.237  13.326
47986W        W14395   0.792   7.464   4.948
47987W        W14396  37.299  20.246  12.323
47988W        W14397  16.828   4.498  10.407
47989W        W14398  15.052  11.249  14.343
47990W        W14399  10.340  12.725  13.074
47991W        W14400   2.795  19.598  12.444
47992W        W14401   6.333  34.416   2.292
47993W        W14402   9.761  21.943   2.688
47994W        W14403  22.628   7.890  12.254
47995W        W14404  24.089   3.923   3.630
47996W        W14405  13.269   7.749  12.364
47997W        W14406   7.792  11.654  11.554
47998W        W14407   4.446   8.105  12.557
47999W        W14408  10.172  24.191   5.081
48000W        W14409  40.928   3.616  13.678
48001W        W14410   5.236  34.913  10.785
48002W        W14411   1.332   4.245  12.550
48003W        W14412   9.934  34.117   1.136
48004W        W14413   0.944   5.813  14.258
48005W        W14414   3.499  30.449  12.936
48006W        W14415   9.748  34.656  10.225
48007W        W14416   0.418  23.204   0.288
48008W        W14417   9.744  32.811  11.598
48009W        W14418  39.672  42.818  14.817
48010W        W14419  25.919  26.080   0.342
48011W        W14420  14.297   4.394   1.056
48012W        W14421   0.742  11.316   0.287
48013W        W14422  43.279  22.777  14.262
48014W        W14423   7.528   8.016   4.720
48015W        W14424  21.451  40.128  12.931
48016W        W14425   7.273   7.934   0.717
48017W        W14426  12.304  30.289   0.467
48018W        W14427  13.773  44.143  11.126
48019W        W14428  39.400  44.883  10.624
48020W        W14429  20.183   5.138   3.187
48021W        W14430  20.147  39.196  14.224
48022W        W14431  39.386  22.445  10.682
48023W        W14432  30.652  34.055  12.404
48024W        W14433  36.085  43.942  11.177
48025W        W14434  29.231  40.642   4.026
48026W        W14435  25.986  28.195   4.207
48027W        W14436  40.555  17.717  14.052
48028W        W14437  13.274  36.358  11.021
48029W        W14438  12.281   4.672  12.385
48030W        W14439  16.899  21.289   0.780
48031W        W14440  23.111  30.023   2.861
48032W        W14441  14.243  39.630  10.440
48033W        W14442  38.116  10.564   1.878
48034W        W14443  28.960   1.431   2.322
48035W        W14444  39.324  13.090  10.562
48036W        W14445  16.516   4.063   1.372
48037W        W14446   2.375  28.182  12.219
48038W        W14447  10.053  30.966  13.443
48039W        W14448  11.188  23.001   2.351
48040W        W14449   6.701  33.002  12.118
48041W        W14450  31.176  21.134   3.194
48042W        W14451  27.571  37.990  13.653
48043W        W14452   1.970  16.548  13.865
48044W        W14453   8.487  26.595   0.331
48045W        W14454  21.107  21.180   2.145
48046W        W14455  38.386  34.200   2.790
48047W        W14456  40.036   4.304   3.247
48048W        W14457  17.354  32.829   1.868
48049W        W14458  27.772   1.783  11.668
48050W        W14459  15.832  37.766  13.308
48051W        W14460  42.602  40.456  14.089
48052W        W14461  26.486  29.057  10.463
48053W        W14462  37.058  19.481  13.960
48054W        W14463   7.877  14.653   1.777
48055W        W14464  38.379  41.420   0.907
48056W        W14465  15.767   0.720  10.924
48057W        W14466  10.413  35.631  11.932
48058W        W14467  29.052   3.046  11.618
48059W        W14468   9.146  36.493  12.023
48060W        W14469  14.720   8.564  12.843
48061W        W14470  14.881  28.999   2.875
48062W        W14471   0.788  19.651  13.455
48063W        W14472  42.712  35.344   0.511
48064W        W14473   5.673  26.700   0.917
48065W        W14474  20.599  23.473   4.037
48066W        W14475   0.442  37.305   1.385
48067W        W14476  21.982   8.097   2.592
48068W        W14477  30.342  34.577   0.315
48069W        W14478  11.295  41.713  12.034
48070W        W14479  12.894  17.268  12.801
48071W        W14480  22.626  22.131   3.419
48072W        W14481  19.552  23.479  13.954
48073W        W14482  24.207  33.591  11.808
48074W        W14483  40.780  21.609  13.126
48075W        W14484  39.930  40.618   0.661
48076W        W14485  33.857  35.419   1.979
48077W        W14486  13.032  13.429  11.275
48078W        W14487   4.875  28.048   3.871
48079W        W14488  16.334  35.136   3.420
48080W        W14489  15.135   9.404   4.128
48081W        W14490  14.075  21.054   3.185
48082W        W14491  32.700  17.590  14.803
48083W        W14492  28.113  23.768   0.266
48084W        W14493  36.317  29.402   2.990
48085W        W14494  31.871  42.353   3.197
48086W        W14495  39.834  17.866  14.141
48087W        W14496  13.240  40.407   0.685
48088W        W14497  21.757  15.559   2.821
48089W        W14498  41.458  16.513   1.219
48090W        W14499  12.296  41.005   4.470
48091W        W14500  39.932   3.281  10.036
48092W        W14501  26.412  41.166  14.886
48093W        W14502  39.283   7.205   4.176
48094W        W14503  19.092   3.224   2.522
48095W        W14504  37.292  13.626   0.034
48096W        W14505   5.854   1.052  10.457
48097W        W14506  29.046  32.615   4.278
48098W        W14507   2.484  13.673   0.117
48099W        W14508   4.394  17.855  12.922
48100W        W14509   6.844  28.182   5.022
48101W        W14510  22.566  12.867   3.150
48102W        W14511  30.090  44.347   4.236
48103W        W14512  38.272  25.258   4.520
48104W        W14513   0.774  14.993  10.775
48105W        W14514  20.145  38.336   3.749
48106W        W14515  29.216  42.390   0.704
48107W        W14516  37.517  41.353   4.606
48108W        W14517  41.269  10.583   0.784
48109W        W14518   9.652  25.992  14.411
48110W        W14519  28.763   2.150   1.852
48111W        W14520  44.259  11.667   0.881
48112W        W14521  25.615   7.289  11.929
48113W        W14522  42.839  34.298  13.600
48114W        W14523   7.717  40.851   0.729
48115W        W14524  14.279  15.382   3.294
48116W        W14525  31.402  41.018  10.668
48117W        W14526   7.216  20.554  14.324
48118W        W14527  19.582  38.202  11.144
48119W        W14528  37.610   9.320  12.470
48120W        W14529   3.560   4.902  10.460
48121W        W14530   0.917  38.258  11.928
48122W        W14531  42.349  26.997   2.740
48123W        W14532  38.545  44.324   0.378
48124W        W14533  37.915  21.256   4.239
48125W        W14534  36.094  19.699   0.387
48126W        W14535  26.955  36.104  10.303
48127W        W14536  12.516  33.297   0.238
48128W        W14537  16.348  12.103   3.934
48129W        W14538  28.346  42.938  13.474
48130W        W14539  29.906  23.272  11.473
48131W        W14540  29.908  36.899   3.688
48132W        W14541  10.767  37.368  13.838
48133W        W14542  12.245  41.550  13.385
48134W        W14543  27.485  30.750  10.490
48135W        W14544  21.800  19.030  12.819
48136W        W14545   2.464  28.513   0.765
48137W        W14546  13.242  34.557  10.764
48138W        W14547   2.461   3.164  12.832
48139W        W14548  34.014  40.122  13.078
48140W        W14549  41.886  14.741   4.474
48141W        W14550  15.369   5.903  11.506
48142W        W14551  34.506  39.792  11.887
48143W        W14552  19.754  30.962  11.148
48144W        W14553  18.485  39.777  12.813
48145W        W14554  23.918  24.557  13.364
48146W        W14555  15.222  10.279  11.795
48147W        W14556  18.269   2.260  14.506
48148W        W14557  22.895  29.423  12.156
48149W        W14558  12.641  30.743   3.655
48150W        W14559  11.437  26.485  14.001
48151W        W14560  12.834  38.069   2.855
48152W        W14561  29.179   5.030   4.187
48153W        W14562  44.480  35.347   0.718
48154W        W14563  35.133   5.495  14.831
48155W        W14564  37.470  26.421   1.459
48156W        W14565  16.729  34.632   1.256
48157W        W14566   1.264  30.425  13.068
48158W        W14567  28.864  34.932  11.555
48159W        W14568  33.918  41.915   4.618
48160W        W14569   2.938   0.519   2.239
48161W        W14570   9.999  29.327   3.539
48162W        W14571  16.208  36.351   2.350
48163W        W14572   9.259  15.524   3.762
48164W        W14573  20.811  37.930   1.328
48165W        W14574  13.241  36.412  13.157
48166W        W14575  24.069   1.024  11.400
48167W        W14576  21.031  40.487  13.012
48168W        W14577   2.299  13.832   2.600
48169W        W14578   9.146  37.357   4.267
48170W        W14579  36.015  43.948   2.189
48171W        W14580  39.436  11.035  11.614
48172W        W14581  43.752  20.534  10.627
48173W        W14582  18.045  41.013   4.881
48174W        W14583   3.213   6.818  12.482
48175W        W14584   9.635  28.647  10.482
48176W        W14585  23.650   1.325  14.478
48177W        W14586  39.529  32.549  10.664
48178W        W14587  44.965  15.227   3.376
48179W        W14588  37.363  44.310  13.635
48180W        W14589  24.236  37.098  14.983
48181W        W14590  38.595  43.834  14.935
48182W        W14591  19.859  44.402   3.655
48183W        W14592  14.132  32.117   4.148
48184W        W14593   7.710  29.034  14.685
48185W        W14594  39.615  43.644   3.392
48186W        W14595  14.919  19.570  14.251
48187W        W14596   4.804   0.934   1.435
48188W        W14597  43.654  26.894   3.195
48189W        W14598  19.313   1.945   1.364
48190W        W14599  19.606   5.232  13.196
48191W        W14600  33.224  26.636  11.664
48192W        W14601   7.467   6.864   0.936
48193W        W14602  32.937   2.650  14.326
48194W        W14603  42.313  18.026  12.460
48195W        W14604  36.893  39.257  13.476
48196W        W14605  36.712  16.613   5.197
48197W        W14606  30.736  37.983   3.763
48198W        W14607  24.438  21.090   2.227
48199W        W14608  44.937  15.201  12.887
48200W        W14609  28.571   4.854   0.511
48201W        W14610  32.584  24.327   1.405
48202W        W14611   5.982  22.660   1.768
48203W        W14612  40.936  38.951   2.638
48204W        W14613  29.969  18.160  12.011
48205W        W14614  15.344  17.555   3.511
48206W        W14615   3.516  11.154   1.137
48207W        W14616  30.683  44.647  12.445
48208W        W14617  40.085  44.179   5.034
48209W        W14618  33.754   4.715  11.637
48210W        W14619  16.689  18.217  10.968
48211W        W14620  27.779   8.223  12.856
48212W        W14621  42.990  41.227   0.784
48213W        W14622  32.290  42.858   0.927
48214W        W14623  22.054  43.119  11.516
48215W        W14624  20.805  24.865  11.210
48216W        W14625  10.590  20.623  14.797
48217W        W14626  40.967  12.410   2.333
48218W        W14627   7.006  32.103  14.923
48219W        W14628   0.768  42.958  13.997
48220W        W14629   0.803  12.220   1.189
48221W        W14630  21.490  17.121   2.196
48222W        W14631  24.172   9.835  13.845
48223W        W14632  29.624  37.583  12.240
48224W        W14633  12.105  40.955   0.881
48225W        W14634  21.320   1.499  10.791
48226W        W14635  42.057  41.032  14.742
48227W        W14636  24.107   4.612  12.125
48228W        W14637   0.363  28.724  13.118
48229W        W14638  31.505  41.367   4.324
48230W        W14639  21.725   8.826   2.117
48231W        W14640  42.268  23.548  12.019
48232W        W14641  39.014  15.899   0.238
48233W        W14642  40.078  39.593   4.240
48234W        W14643  36.271  20.290  13.811
48235W        W14644  11.313  33.922  14.848
48236W        W14645  20.828  27.050   3.663
48237W        W14646  29.899  15.526   4.218
48238W        W14647  19.306   6.395  13.880
48239W        W14648  19.959  41.923  12.532
48240W        W14649  29.515   8.686   3.674
48241W        W14650  36.560  14.304   0.945
48242W        W14651   2.457  10.391  11.167
48243W        W14652  29.204  36.380   2.194
48244W        W14653  35.269  28.656  13.716
48245W        W14654  37.635   1.219   3.692
48246W        W14655  34.390  36.682  13.906
48247W        W14656  38.111  43.579  13.054
48248W        W14657  26.480  29.999   2.445
48249W        W14658  30.659  40.447   0.888
48250W        W14659  36.853  18.652  14.232
48251W        W14660  24.034   6.027   1.815
48252W        W14661  11.410   3.881  12.910
48253W        W14662  21.957  10.492   1.004
48254W        W14663  35.955  28.996   3.026
48255W        W14664  15.321  33.524   4.898
48256W        W14665  20.714  14.796   4.586
48257W        W14666   0.297  12.649   1.830
48258W        W14667  14.107   1.879   2.383
48259W        W14668  31.563  24.881   2.830
48260W        W14669   0.748  38.027   0.456
48261W        W14670   1.934   9.285   0.031
48262W        W14671  27.773  28.725   0.426
48263W        W14672  17.748  13.322  10.756
48264W        W14673  43.338  39.003  13.420
48265W        W14674  36.123  43.328  11.576
48266W        W14675  21.308  15.690   3.120
48267W        W14676  44.491  36.347   4.104
48268W        W14677  14.196   4.995   3.381
48269W        W14678   6.714   6.839  13.859
48270W        W14679  41.991  20.218  12.572
48271W        W14680   3.717  21.174  11.209
48272W        W14681  22.637  34.860  10.743
48273W        W14682  36.029  13.729  12.578
48274W        W14683  29.248  29.058  13.788
48275W        W14684   1.273  28.167   3.785
48276W        W14685   3.192  19.041  14.340
48277W        W14686  30.240  31.761   2.786
48278W        W14687  32.966   1.779   2.888
48279W        W14688  16.856  29.546  12.654
48280W        W14689  36.619  25.422   1.743
48281W        W14690  38.846  14.078   4.093
48282W        W14691  39.657   3.077   4.123
48283W        W14692  13.251  32.912  14.869
48284W        W14693  32.946  40.888   1.326
48285W        W14694   8.212  35.931   1.723
48286W        W14695  27.829  13.394  12.230
48287W        W14696  39.527  11.653   3.738
48288W        W14697   0.972  20.233   4.894
48289W        W14698  20.949  38.614  11.027
48290W        W14699  35.729  30.897   2.251
48291W        W14700  11.272  29.055  12.519
48292W        W14701  24.555  38.525   1.920
48293W        W14702   9.473  23.294   2.800
48294W        W14703   0.959  25.076  14.902
48295W        W14704  23.965   0.314  12.889
48296W        W14705  19.547  21.033   3.691
48297W        W14706   6.719  43.399   4.185
48298W        W14707  26.102  37.888   3.900
48299W        W14708  44.444   4.547   0.800
48300W        W14709  24.685  14.200   5.039
48301W        W14710  17.204  26.961  12.590
48302W        W14711  21.692  21.684   4.620
48303W        W14712  26.643  43.997   0.166
48304W        W14713  31.363  26.102  12.523
48305W        W14714  22.705  24.738   3.638
48306W        W14715  27.512  15.624   3.143
48307W        W14716   9.136  13.144  14.925
48308W        W14717  19.247  18.079   0.050
48309W        W14718  20.659  32.472  13.766
48310W        W14719  15.314  21.311   1.099
48311W        W14720  28.385  23.699   3.302
48312W        W14721  17.200  20.524   4.990
48313W        W14722  34.007   0.810  14.530
48314W        W14723  17.544  23.045   4.104
48315W        W14724  43.037   9.562   4.114
48316W        W14725  18.207  30.424  14.743
48317W        W14726  40.921  37.408   3.624
48318W        W14727  35.993  24.741   1.153
48319W        W14728  43.890   2.273  11.383
48320W        W14729   9.942  39.907   2.420
48321W        W14730   9.123   3.954   2.684
48322W        W14731   4.784  31.484   1.718
48323W        W14732  38.948  15.408   0.430
48324W        W14733   4.589  11.231  13.888
48325W        W14734   0.134  26.246  11.268
48326W        W14735   7.389  40.358   1.159
48327W        W14736   1.805  34.686   2.194
48328W        W14737  33.305  19.776   0.817
48329W        W14738  22.867   1.258  13.898
48330W        W14739   2.498  33.624   0.222
48331W        W14740  42.112  27.610   3.125
48332W        W14741   9.568  25.004  11.588
48333W        W14742  39.782  38.333  12.636
48334W        W14743  14.298  44.330  11.229
48335W        W14744  29.472  27.082  12.002
48336W        W14745   4.292  19.345  14.146
48337W        W14746   6.164  44.375   2.843
48338W        W14747  26.139  36.866  12.046
48339W        W14748  31.015  26.025  14.038
48340W        W14749  15.159  41.316   2.466
48341W        W14750  43.928  41.848  13.598
48342W        W14751  32.800  38.951   4.173
48343W        W14752  35.389  37.390   4.270
48344W        W14753  37.480  34.093   2.686
48345W        W14754  21.157   3.620   2.189
48346W        W14755  26.451  13.868   3.941
48347W        W14756  26.533  34.102   4.570
48348W        W14757   5.187  25.961  14.070
48349W        W14758  16.288  36.054   4.163
48350W        W14759  10.123  16.161  14.848
48351W        W14760  42.834  28.546  11.269
48352W        W14761  18.560  39.388  11.874
48353W        W14762   6.808  17.727  10.623
48354W        W14763  39.802  43.520   1.434
48355W        W14764  28.109  12.679   1.898
48356W        W14765  26.408  12.150  11.448
48357W        W14766  16.756  40.603  12.094
48358W        W14767  10.277  10.368  11.809
48359W        W14768   8.744   4.193   1.400
48360W        W14769   6.200   5.939   2.132
48361W        W14770   1.993   9.385  12.981
48362W        W14771  33.386  13.605  11.219
48363W        W14772  26.140  18.202   2.921
48364W        W14773  36.770  26.156   5.049
48365W        W14774  31.316   9.315  12.192
48366W        W14775  25.626  12.501   3.035
48367W        W14776  29.094  37.574  10.955
48368W        W14777  19.702  37.963  11.589
48369W        W14778  17.579  32.443  11.471
48370W        W14779  44.782  36.488  10.853
48371W        W14780  39.517  37.859  12.878
48372W        W14781  23.020  32.900   1.024
48373W        W14782   9.212   4.026   1.241
48374W        W14783  40.347  14.472  13.065
48375W        W14784  31.379  38.682   4.403
48376W        W14785   6.906  44.488   4.501
48377W        W14786  33.895  29.394  11.025
48378W        W14787  22.781  17.110   0.887
48379W        W14788  30.127   1.849   1.865
48380W        W14789  26.271   7.668  12.620
48381W        W14790  41.813  30.432  13.415
48382W        W14791  10.439  41.283  13.814
48383W        W14792   7.876  33.449  11.917
48384W        W14793  41.696   9.814  12.687
48385W        W14794  34.592   3.763  11.091
48386W        W14795   1.200  42.151  10.650
48387W        W14796  15.536  43.481  12.807
48388W        W14797  21.582  44.377  14.066
48389W        W14798  24.749  40.377   2.780
48390W        W14799  18.646  38.874   3.723
48391W        W14800  21.511  12.338  14.557
48392W        W14801  44.322  10.146  13.434
48393W        W14802   2.291  44.269  10.862
48394W        W14803  43.918  43.754   2.795
48395W        W14804  34.906  38.990   2.786
48396W        W14805  41.972   7.606   2.218
48397W        W14806  15.345  29.574  13.500
48398W        W14807   6.160  15.069   4.126
48399W        W14808  25.487   8.811   1.872
48400W        W14809  10.264   5.858  12.040
48401W        W14810  33.503  12.235   5.104
48402W        W14811  22.543  29.511  13.052
48403W        W14812   4.781   2.536  11.108
48404W        W14813   8.126  25.283  12.829
48405W        W14814  14.609  37.536   2.309
48406W        W14815  12.872  26.333  10.408
48407W        W14816  35.763  28.475  13.833
48408W        W14817  42.375  32.904   1.752
48409W        W14818   7.420  34.811  11.431
48410W        W14819  36.268  11.417  13.495
48411W        W14820  24.144  10.577  11.139
48412W        W14821  18.803   9.445   3.229
48413W        W14822  24.386  23.857  11.172
48414W        W14823  22.566  13.929   2.184
48415W        W14824  39.232  34.028   4.255
48416W        W14825  19.492  21.122  14.161
48417W        W14826   2.662  35.793   1.737
48418W        W14827   0.222  36.933   0.506
48419W        W14828  42.398  24.442  14.425
48420W        W14829  38.117   3.975   2.210
48421W        W14830   0.308  21.620   1.797
48422W        W14831  25.988  31.461   4.753
48423W        W14832  18.717  29.962   4.128
48424W        W14833  42.786   4.000   3.770
48425W        W14834  33.641  27.846  11.653
48426W        W14835   6.633  43.976  14.299
48427W        W14836  14.976  35.745   1.866
48428W        W14837  16.706  22.989  13.629
48429W        W14838  31.204  28.950   0.350
48430W        W14839  27.118   2.175  13.916
48431W        W14840  10.298  33.893   1.871
48432W        W14841  18.518  22.738  14.117
48433W        W14842   2.133  19.476   4.200
48434W        W14843  18.415  10.986  11.610
48435W        W14844  14.712   6.133  14.521
48436W        W14845  10.219  44.432  11.588
48437W        W14846  22.921  38.153   3.906
48438W        W14847  39.931  19.754  13.368
48439W        W14848   1.025  17.833  11.533
48440W        W14849  42.240   8.627  11.409
48441W        W14850  41.845   1.859   1.926
48442W        W14851  17.203  20.931   9.691
48443W        W14852  29.171  42.005   2.794
48444W        W14853  28.089  34.899   2.670
48445W        W14854   6.226   6.957  13.735
48446W        W14855   8.306  36.078  10.501
48447W        W14856   3.891  35.830   2.839
48448W        W14857  32.617  14.520   0.896
48449W        W14858   7.166  39.524  12.037
48450W        W14859  18.809  26.991  11.514
48451W        W14860  23.786   9.429  11.135
48452W        W14861  13.525  33.591   5.614
48453W        W14862  36.980  36.959   2.600
48454W        W14863  32.808  35.053  14.544
48455W        W14864  35.470  19.001  11.914
48456W        W14865  26.958   3.481   4.589
48457W        W14866  36.560  29.880  13.533
48458W        W14867  37.097   0.234  10.657
48459W        W14868  16.840  24.266  12.044
48460W        W14869  28.247  24.315  11.116
48461W        W14870   5.172  43.812  12.801
48462W        W14871  27.503   1.558  12.945
48463W        W14872  27.448  44.627   3.768
48464W        W14873  43.310  19.854  11.605
48465W        W14874  29.612  25.657  12.551
48466W        W14875  32.960  20.618   2.910
48467W        W14876  24.561   3.490  13.382
48468W        W14877  20.099  26.066  12.931
48469W        W14878   3.519  21.231  12.532
48470W        W14879  14.237   2.907  11.471
48471W        W14880  30.803  23.086  11.389
48472W        W14881  13.986   3.194   2.264
48473W        W14882  26.536   0.190  13.174
48474W        W14883  15.655   5.830   1.928
48475W        W14884  19.796  14.350  14.306
48476W        W14885  42.346  37.159  14.740
48477W        W14886   3.526  27.285   1.316
48478W        W14887  27.991  14.494   3.748
48479W        W14888   7.973  44.727  10.048
48480W        W14889   8.854  36.977   4.997
48481W        W14890  10.590  20.995  12.497
48482W        W14891  25.614  31.971  11.480
48483W        W14892   0.909   7.843  14.347
48484W        W14893  16.964  21.536  14.545
48485W        W14894   2.606  26.970  10.528
48486W        W14895  22.972  15.633  10.702
48487W        W14896   4.042  19.514   3.667
48488W        W14897  42.878  12.852  13.987
48489W        W14898  28.680  42.259   2.882
48490W        W14899  30.180  10.322  11.436
48491W        W14900   0.333  26.498   9.966
48492W        W14901   6.780  42.956  13.295
48493W        W14902   9.157  28.069  14.493
48494W        W14903   7.192  10.366  14.988
48495W        W14904  40.010  43.443   0.932
48496W        W14905  25.954  18.556   1.246
48497W        W14906   6.021  34.390  10.643
48498W        W14907  40.023  17.507   1.811
48499W        W14908   3.047  14.310  11.281
48500W        W14909  34.082   6.132   4.799
48501W        W14910  21.221  36.027   1.336
48502W        W14911   2.008   9.171  10.641
48503W        W14912  39.822  11.072   4.662
48504W        W14913  37.046  29.745  14.480
48505W        W14914   2.083  25.766   4.235
48506W        W14915  22.489  27.509  14.933
48507W        W14916  15.552  13.129   3.296
48508W        W14917  19.341  15.797   1.438
48509W        W14918   0.475  44.735  13.589
48510W        W14919  10.722  28.878   0.012
48511W        W14920  41.141  34.533   0.485
48512W        W14921   0.304   3.475  11.610
48513W        W14922  42.353  34.052   3.692
48514W        W14923   2.791  25.778  14.579
48515W        W14924  28.702  14.181  14.681
48516W        W14925   1.588  23.822   4.014
48517W        W14926  17.863  23.438   2.241
48518W        W14927   9.098  35.718   0.069
48519W        W14928  12.607  27.019  12.941
48520W        W14929   0.819  13.185   3.648
48521W        W14930  27.895   6.700   4.016
48522W        W14931  14.345   0.043   3.662
48523W        W14932  13.308  44.654   0.341
48524W        W14933  40.868  23.527  10.590
48525W        W14934  21.927  37.507  12.014
48526W        W14935   6.779  36.602   0.510
48527W        W14936  30.282  41.486  12.022
48528W        W14937  28.204  17.728   0.366
48529W        W14938  36.974   1.761   3.760
48530W        W14939  37.161  16.394   4.981
48531W        W14940  20.283  25.676  11.013
48532W        W14941  32.878   4.591   5.030
48533W        W14942  44.874   0.124   4.047
48534W        W14943  22.132  42.246  13.978
48535W        W14944  42.065  22.067  13.353
48536W        W14945  25.947  16.797  12.152
48537W        W14946  23.062   0.207  12.691
48538W        W14947  13.681  22.346   3.609
48539W        W14948  32.931  10.371  11.200
48540W        W14949   2.676  10.273  12.977
48541W        W14950  17.673   2.516   4.307
48542W        W14951  29.011  16.415  12.569
48543W        W14952  25.565  21.177  10.239
48544W        W14953   0.846   4.074   3.717
48545W        W14954  30.378  27.597  12.838
48546W        W14955  19.628   8.645   1.706
48547W        W14956  24.369   9.155  10.280
48548W        W14957  15.337  33.429   3.358
48549W        W14958  29.376  38.590   2.905
48550W        W14959  42.262   0.815   3.234
48551W        W14960  34.106  18.246   2.201
48552W        W14961  42.512  42.512  14.358
48553W        W14962   0.451  43.762  12.445
48554W        W14963  39.517  44.479  13.854
48555W        W14964  28.023   3.354   4.139
48556W        W14965  34.490  10.986   0.633
48557W        W14966  14.298   8.976  10.170
48558W        W14967   0.386  25.193   0.311
48559W        W14968  38.287  31.782  13.722
48560W        W14969  18.376  37.265   4.049
48561W        W14970  11.964   7.337   3.578
48562W        W14971  26.372  17.099  12.267
48563W        W14972   9.311  38.547   0.800
48564W        W14973  11.624  39.058   3.680
48565W        W14974   4.919   6.426   4.165
48566W        W14975  43.237  20.206   2.013
48567W        W14976  40.585   9.230  10.502
48568W        W14977  41.757   2.461  13.849
48569W        W14978  36.668   6.718   0.433
48570W        W14979   0.570   8.825  12.056
48571W        W14980  17.086   8.841  11.065
48572W        W14981  30.442  33.977   2.361
48573W        W14982  25.025  30.562   2.309
48574W        W14983  35.717  42.265   2.852
48575W        W14984  35.919  20.548  14.095
48576W        W14985  32.401  41.792   4.176
48577W        W14986  40.057  26.447   2.168
48578W        W14987  26.452   5.640  12.467
48579W        W14988  29.135  35.917  14.061
48580W        W14989  43.716  34.055  13.308
48581W        W14990  44.771  32.370   0.354
48582W        W14991   1.460  41.585  12.059
48583W        W14992  21.750  18.676   2.834
48584W        W14993  41.929   8.391   1.864
48585W        W14994  20.149  39.298  10.446
48586W        W14995  17.178   5.259  10.074
48587W        W14996  39.823  22.215   1.226
48588W        W14997  26.366  16.810  13.071
48589W        W14998  10.272  33.524   4.414
48590W        W14999   9.201  15.083  14.793
48591W        W15000  44.419  34.018   0.539
48592W        W15001  22.263  27.507   2.697
48593W        W15002  26.130  20.605   0.627
48594W        W15003  34.609  15.741  12.352
48595W        W15004  21.292  28.665  13.685
48596W        W15005  10.847  21.993  11.581
48597W        W15006  34.558  33.062  12.924
48598W        W15007  21.113  44.071  11.279
48599W        W15008  12.320  10.321  11.663
48600W        W15009   4.039  32.081  11.582
48601W        W15010  27.307  20.751   2.263
48602W        W15011  25.800  38.223  13.944
48603W        W15012   2.864   3.239   5.116
48604W        W15013   1.125  43.219  12.647
48605W        W15014   9.743  18.285   3.821
48606W        W15015  15.793  28.021  12.992
48607W        W15016  37.088  16.137  11.746
48608W        W15017  38.931  21.861  14.770
48609W        W15018  24.731  31.700  11.171
48610W        W15019  18.305  43.022   1.220
48611W        W15020   0.969   4.412   1.280
48612W        W15021  20.714  26.559   3.837
48613W        W15022  19.295  31.037   1.189
48614W        W15023  21.115   3.941   3.083
48615W        W15024   7.706  24.951   9.929
48616W        W15025  27.600  33.036   2.369
48617W        W15026  11.246   2.224   0.774
48618W        W15027  38.351  39.982   0.784
48619W        W15028   4.827  39.224   0.865
48620W        W15029   1.171   9.211   1.820
48621W        W15030  14.245  27.604   2.797
48622W        W15031  30.913  22.257  11.170
48623W        W15032  19.406  32.044  13.790
48624W        W15033  22.956   3.773  13.885
48625W        W15034  44.751   9.910   1.233
48626W        W15035  20.635  27.605  11.643
48627W        W15036  41.340  13.607   2.825
48628W        W15037  44.440  38.830   4.449
48629W        W15038  33.619  12.985   0.197
48630W        W15039   1.232  33.531  14.360
48631W        W15040  44.407  12.234  14.903
48632W        W15041  38.234  41.593  10.869
48633W        W15042  24.760  33.049  12.890
48634W        W15043  16.317   3.102   5.084
48635W        W15044  18.218  10.188  11.679
48636W        W15045   1.282  26.591  10.471
48637W        W15046   8.014  23.430   1.895
48638W        W15047   6.083   5.386   1.426
48639W        W15048  17.532   8.674  14.776
48640W        W15049  13.265   1.313  13.054
48641W        W15050  29.039  24.691   1.786
48642W        W15051   7.418  19.805   3.808
48643W        W15052  40.029   7.787  13.973
48644W        W15053  37.011   8.369   3.731
48645W        W15054  20.042  26.487  14.548
48646W        W15055  29.882  24.216   3.529
48647W        W15056  13.362  41.484  10.319
48648W        W15057   7.690  13.773  13.022
48649W        W15058   2.970  42.781  13.998
48650W        W15059  43.183  39.102   3.702
48651W        W15060  40.826  13.580   4.060
48652W        W15061  10.328  38.969  13.083
48653W        W15062   6.721  38.041   1.721
48654W        W15063  37.001   6.165   3.671
48655W        W15064  24.923  22.737   4.127
48656W        W15065  38.347  32.418   2.447
48657W        W15066  38.516  18.624   3.483
48658W        W15067  12.965  34.283  10.011
48659W        W15068   0.717  20.026  11.184
48660W        W15069   4.966  28.097   4.627
48661W        W15070  22.584  29.587   2.815
48662W        W15071  31.203  26.280   1.893
48663W        W15072  33.123  18.187   4.911
48664W        W15073  34.945  37.492   0.598
48665W        W15074  24.089  37.553   4.619
48666W        W15075  44.098  13.817  12.004
48667W        W15076  26.607  11.420  12.031
48668W        W15077  31.395  37.440  10.606
48669W        W15078  39.942  27.408  11.095
48670W        W15079  36.374  14.147  12.566
48671W        W15080   1.167  28.640   2.648
48672W        W15081  36.427   3.489  10.324
48673W        W15082  27.735   4.114   1.245
48674W        W15083  44.748  28.075   2.341
48675W        W15084  37.408   1.513  13.823
48676W        W15085   2.505   1.279  14.751
48677W        W15086  24.088   6.805   2.775
48678W        W15087  34.436  33.200  11.946
48679W        W15088  18.549  11.302   2.298
48680W        W15089  16.248  20.397  12.754
48681W        W15090  31.645  32.638   0.653
48682W        W15091   8.622   0.864   4.629
48683W        W15092   7.684   2.305  11.551
48684W        W15093  10.618   3.063  11.654
48685W        W15094   5.789  32.879   4.206
48686W        W15095  13.668  14.420  12.509
48687W        W15096  23.666   4.720  12.400
48688W        W15097   4.386  20.520   4.649
48689W        W15098  15.779  34.700  12.598
48690W        W15099  30.125  22.934  14.695
48691W        W15100  33.840  39.925  10.556
48692W        W15101  15.341  12.009  13.204
48693W        W15102  27.236  28.138   4.519
48694W        W15103  22.684  16.595  12.878
48695W        W15104  28.411  33.808   3.718
48696W        W15105   5.869   3.612  13.454
48697W        W15106  14.251  25.014  14.328
48698W        W15107   9.699  42.546  10.954
48699W        W15108  25.075   0.792   0.455
48700W        W15109  13.543  34.116   4.223
48701W        W15110  13.082  39.435  13.608
48702W        W15111   0.295  27.943   4.542
48703W        W15112  31.422  44.247   1.144
48704W        W15113   8.843  29.196  14.350
48705W        W15114  30.630   6.265   2.703
48706W        W15115  11.210  38.442   0.718
48707W        W15116  37.892   5.226  12.492
48708W        W15117  32.701  24.784   1.124
48709W        W15118  39.097   1.673   4.112
48710W        W15119  35.615   2.944   5.001
48711W        W15120  44.072  13.319  13.008
48712W        W15121  24.465  13.802   2.178
48713W        W15122   4.445  43.730   3.238
48714W        W15123  29.191   0.181  10.410
48715W        W15124  10.730  23.521  11.605
48716W        W15125   5.879   2.667   2.766
48717W        W15126  38.389  11.929   3.134
48718W        W15127   3.195   5.434  14.034
48719W        W15128  41.165   5.606  12.904
48720W        W15129   8.338  33.986   0.324
48721W        W15130  32.571   5.202   1.121
48722W        W15131  36.853   6.844   2.073
48723W        W15132  19.647  26.392   1.490
48724W        W15133  16.840   3.235  12.402
48725W        W15134  21.679  15.335   3.329
48726W        W15135  32.606  10.248  14.895
48727W        W15136   7.870  25.808   4.117
48728W        W15137   2.841  29.204   2.352
48729W        W15138  34.913  38.863   0.816
48730W        W15139  26.200  20.958  14.372
48731W        W15140  31.147  16.150  10.736
48732W        W15141  25.186   6.149   2.324
48733W        W15142   6.940  41.468  13.394
48734W        W15143  12.815  35.072   1.868
48735W        W15144  19.860  37.333  12.219
48736W        W15145  37.320  23.474   2.750
48737W        W15146  39.541  13.040   3.761
48738W        W15147  12.679  34.444   2.197
48739W        W15148  30.063  16.650  11.550
48740W        W15149  27.233  11.746   3.723
48741W        W15150  21.741   3.795   4.926
48742W        W15151   5.853  21.099  14.504
48743W        W15152  39.318  12.806   4.463
48744W        W15153   2.782  28.468  13.852
48745W        W15154  44.119  11.278  12.153
48746W        W15155  22.102  32.930  13.072
48747W        W15156  11.781   5.445   1.207
48748W        W15157   1.152  25.692   1.359
48749W        W15158  17.156  30.000   3.833
48750W        W15159  44.314  26.183   2.988
48751W        W15160  43.792  10.932   3.293
48752W        W15161  27.206   7.656   3.592
48753W        W15162  36.109  26.156   1.351
48754W        W15163  14.205  39.754   2.333
48755W        W15164  28.070   7.681  14.407
48756W        W15165  11.761   2.505   3.552
48757W        W15166  25.083  44.328   4.365
48758W        W15167  41.807   8.664  11.680
48759W        W15168   5.395   3.791  14.055
48760W        W15169   4.704  28.482  13.290
48761W        W15170  33.767  33.305   3.255
48762W        W15171  24.031  11.160  13.318
48763W        W15172   4.690  42.206  11.926
48764W        W15173  42.726  25.123  11.620
48765W        W15174   9.264  37.209  11.566
48766W        W15175  31.881   1.226  11.177
48767W        W15176  19.540   3.191   3.550
48768W        W15177  36.567  34.283   3.939
48769W        W15178  13.951  11.919   0.748
48770W        W15179  16.777  27.937  11.663
48771W        W15180  13.735   0.635   1.659
48772W        W15181  30.908  32.171   0.479
48773W        W15182   2.975  14.196  12.636
48774W        W15183  22.039  26.548  10.932
48775W        W15184  23.930  38.363  12.116
48776W        W15185  43.716   5.639   2.270
48777W        W15186  22.829   3.392  14.228
48778W        W15187  43.900   0.211  12.893
48779W        W15188  39.249  26.346   0.427
48780W        W15189  38.025   8.910   1.715
48781W        W15190  12.843  35.148  11.135
48782W        W15191  36.197  43.822   3.765
48783W        W15192   8.359   7.132  13.868
48784W        W15193   9.430   6.966   1.248
48785W        W15194  22.068  26.016  12.689
48786W        W15195   8.682   2.744  12.349
48787W        W15196  35.010  42.291  14.400
48788W        W15197  34.892  14.704  11.249
48789W        W15198   1.019  15.045  10.323
48790W        W15199  38.564  11.940   4.580
48791W        W15200   4.448  20.739   3.750
48792W        W15201  22.243  43.288   2.717
48793W        W15202  40.809  31.636  13.163
48794W        W15203  33.247  44.388   3.750
48795W        W15204  22.221  15.320   2.642
48796W        W15205   1.590  18.850   1.702
48797W        W15206   3.143   6.732  11.491
48798W        W15207   6.156  27.652  10.820
48799W        W15208  19.406  14.969  12.514
48800W        W15209  43.605  10.213  13.936
48801W        W15210   2.034  23.515   3.157
48802W        W15211  23.773  42.053   4.433
48803W        W15212  37.096  15.808   0.758
48804W        W15213  35.167  20.207   1.208
48805W        W15214  44.856  17.039   2.835
48806W        W15215  32.353  19.645  13.571
48807W        W15216  15.322  44.974   2.017
48808W        W15217  44.205  22.752  14.425
48809W        W15218  20.228  42.388   4.189
48810W        W15219  26.209  28.426   1.379
48811W        W15220   8.273  31.688  11.551
48812W        W15221  35.138  26.687  11.603
48813W        W15222  16.180  38.025  11.625
48814W        W15223  43.978  13.065  13.446
48815W        W15224  20.995  21.520   2.970
48816W        W15225   7.816  41.047   0.259
48817W        W15226   4.879   2.008   0.051
48818W        W15227  12.519  35.483  10.343
48819W        W15228  28.118   7.750  12.333
48820W        W15229   9.899   4.373   0.386
48821W        W15230  25.255  31.985  11.119
48822W        W15231  44.847  31.939   1.239
48823W        W15232  20.321  22.621   4.540
48824W        W15233   6.608  11.736   2.589
48825W        W15234   4.931  27.216  10.739
48826W        W15235  22.691  18.566   3.087
48827W        W15236  34.133   9.439   3.257
48828W        W15237  13.109  12.346  11.692
48829W        W15238  42.364  31.558  11.962
48830W        W15239  40.887  27.905  14.806
48831W        W15240  14.631  32.478  13.896
48832W        W15241  21.103   5.476   3.333
48833W        W15242  30.857   4.483   1.845
48834W        W15243  11.640  18.621   2.438
48835W        W15244  34.814  23.388   0.155
48836W        W15245   6.402  14.289   3.762
48837W        W15246  15.819  28.472   0.470
48838W        W15247  23.875  12.835   4.993
48839W        W15248  17.709  42.117   0.309
48840W        W15249  42.757  24.915   1.219
48841W        W15250  36.460   0.133  14.675
48842W        W15251  16.899  13.304  10.362
48843W        W15252  10.811  42.011   0.486
48844W        W15253  20.164   0.490  10.527
48845W        W15254  17.767  32.928  11.531
48846W        W15255  36.312  19.013  11.949
48847W        W15256  35.958  28.071  14.569
48848W        W15257  11.286  21.106  10.616
48849W        W15258  37.530  15.019   5.081
48850W        W15259   2.644  37.542   2.701
48851W        W15260  26.512  16.776   1.802
48852W        W15261  31.122  41.636   4.886
48853W        W15262  21.662  13.746   0.652
48854W        W15263   6.836  32.573   3.580
48855W        W15264  24.288  32.211  12.793
48856W        W15265  14.674  27.565  13.454
48857W        W15266  15.321   9.220   3.682
48858W        W15267  38.938  37.250  13.721
48859W        W15268  22.615  10.851   0.188
48860W        W15269  37.347  11.872  13.905
48861W        W15270  31.170  21.113  13.882
48862W        W15271  42.502   3.339  12.055
48863W        W15272  20.972  29.087  13.542
48864W        W15273  39.411  28.753  13.451
48865W        W15274  40.375   3.535  14.901
48866W        W15275  25.517  12.142   1.285
48867W        W15276  26.481  12.316  14.092
48868W        W15277  24.735  35.577   0.190
48869W        W15278   8.781  21.485  13.501
48870W        W15279   4.409   4.977  12.077
48871W        W15280  13.451   7.897   2.730
48872W        W15281  24.280  23.649   0.356
48873W        W15282   0.677   7.389  14.354
48874W        W15283  22.742  33.789   2.479
48875W        W15284  26.472  26.641  12.370
48876W        W15285  28.822   9.512   3.189
48877W        W15286  17.042  38.001  14.409
48878W        W15287  28.093  33.612  12.341
48879W        W15288  18.147  33.325  13.430
48880W        W15289  23.642   5.205  12.631
48881W        W15290   7.861  41.911   1.826
48882W        W15291  17.038   7.000  13.488
48883W        W15292  18.972  41.891  10.557
48884W        W15293   6.070  13.776   0.242
48885W        W15294   7.469  19.620  11.098
48886W        W15295  36.996   9.938   1.350
48887W        W15296  22.766  11.875   4.865
48888W        W15297  17.253  42.399   2.680
48889W        W15298   0.818   8.973  13.376
48890W        W15299   8.655  12.289  12.936
48891W        W15300  41.842  33.122   0.537
48892W        W15301  40.361   5.754   3.669
48893W        W15302  22.093  34.142  14.965
48894W        W15303  12.902   3.815  10.134
48895W        W15304   9.445   5.824  14.447
48896W        W15305   7.392  18.109  14.978
48897W        W15306  33.172  12.551  13.373
48898W        W15307  37.626  13.131  13.842
48899W        W15308  23.712  26.052  13.433
48900W        W15309  37.448  23.529  14.227
48901W        W15310  27.026   1.834   1.924
48902W        W15311  22.756  35.413   2.792
48903W        W15312   7.755  19.163  14.160
48904W        W15313  22.240  40.935  10.919
48905W        W15314   4.628  37.423   3.133
48906W        W15315  44.797  24.093   0.449
48907W        W15316   2.728   6.895  12.634
48908W        W15317  16.060  30.753   4.899
48909W        W15318   3.693   5.067  14.852
48910W        W15319  13.156  20.731  10.713
48911W        W15320  28.168  18.069  13.521
48912W        W15321  38.165  29.171   3.784
48913W        W15322  31.651  31.668  10.812
48914W        W15323  12.378  16.310  13.889
48915W        W15324  16.233   1.075  12.934
48916W        W15325  31.548  21.314  11.459
48917W        W15326   2.776  32.669  12.592
48918W        W15327   5.943  39.756  11.158
48919W        W15328  16.633  20.272  13.073
48920W        W15329   1.958  36.871   3.151
48921W        W15330  28.590  34.285  12.555
48922W        W15331  35.998  32.862  12.503
48923W        W15332   6.640  35.960   3.621
48924W        W15333  26.208  18.566  14.369
48925W        W15334  19.107  34.242  14.867
48926W        W15335  40.394  14.885  14.728
48927W        W15336   9.869   9.306   0.942
48928W        W15337  29.922  11.197   1.766
48929W        W15338  28.172  35.245   4.007
48930W        W15339  13.877   9.232   3.304
48931W        W15340  41.478  22.118  14.822
48932W        W15341  16.785  16.256  13.946
48933W        W15342  10.774  16.555  10.912
48934W        W15343  25.001  40.097   1.935
48935W        W15344  15.797   9.710  12.817
48936W        W15345  11.570   2.426   0.419
48937W        W15346  18.010  34.498  10.631
48938W        W15347  30.713  14.923   4.741
48939W        W15348  27.880   2.794  11.795
48940W        W15349   4.376  36.105   2.261
48941W        W15350  32.545  16.117  14.935
48942W        W15351   9.234  41.734   1.480
48943W        W15352  23.686   5.685  12.406
48944W        W15353  26.117  23.986  11.995
48945W        W15354  34.463  23.219  12.986
48946W        W15355   9.598  19.255   1.449
48947W        W15356  36.334   6.873   1.911
48948W        W15357  28.917   0.634  11.249
48949W        W15358  36.457  11.382   3.446
48950W        W15359  44.373  16.823   1.757
48951W        W15360   9.682   9.300   3.644
48952W        W15361  23.276  44.458   1.766
48953W        W15362  15.174  41.007  13.371
48954W        W15363  33.448  13.583  10.706
48955W        W15364  36.592  37.108  11.655
48956W        W15365  17.002  41.982  12.276
48957W        W15366  30.339  27.045   0.422
48958W        W15367  41.840   7.653   1.316
48959W        W15368  19.934  26.205  11.952
48960W        W15369  27.658  28.127  14.536
48961W        W15370  13.128  40.618   0.240
48962W        W15371   4.487  34.909   2.238
48963W        W15372  37.080   4.655   1.790
48964W        W15373  35.626  24.953  12.175
48965W        W15374  19.193  34.945   4.735
48966W        W15375  44.217  35.494   3.741
48967W        W15376  28.013   5.006   2.845
48968W        W15377   9.195  13.203  12.421
48969W        W15378  12.050  34.118   1.665
48970W        W15379   7.324   7.176   4.489
48971W        W15380  18.423   2.715   2.722
48972W        W15381  22.792  30.603  13.537
48973W        W15382  29.915  16.273  10.778
48974W        W15383   3.184  36.384   5.072
48975W        W15384  16.185  17.845  10.406
48976W        W15385  37.627  14.104  12.000
48977W        W15386   1.704  12.955  12.529
48978W        W15387  35.453   3.272  11.741
48979W        W15388  37.929  44.599  10.242
48980W        W15389  37.086   3.923   4.486
48981W        W15390  30.940   9.304   2.881
48982W        W15391  16.764   0.889   2.957
48983W        W15392  43.513  31.117   1.675
48984W        W15393   3.740  27.119   3.777
48985W        W15394   8.293   5.560   1.340
48986W        W15395   9.146  23.615  12.900
48987W        W15396  42.248  30.036   3.097
48988W        W15397  17.784  19.246   4.149
48989W        W15398  21.991   4.225   2.393
48990W        W15399   1.773   4.258   1.131
48991W        W15400  31.761   0.703   5.191
48992W        W15401  31.098   3.876   0.869
48993W        W15402  17.366  11.592   3.218
48994W        W15403   6.573  42.910   4.085
48995W        W15404   1.407   3.752  11.964
48996W        W15405  36.676  28.944   0.789
48997W        W15406  25.491  17.830  10.613
48998W        W15407  41.069  31.442  13.579
48999W        W15408  29.206  24.551  12.006
49000W        W15409   2.703   9.603   0.441
49001W        W15410  15.742  14.867  11.707
49002W        W15411  20.640  26.259  10.032
49003W        W15412  19.816   9.496   3.182
49004W        W15413  18.159  29.974   3.907
49005W        W15414  22.510   2.465   0.529
49006W        W15415  31.028  36.042   3.453
49007W        W15416  26.694  10.748   1.643
49008W        W15417  24.704   0.963  13.450
49009W        W15418  27.097  38.567  14.521
49010W        W15419  35.856  21.606  10.974
49011W        W15420  17.055  18.651   1.873
49012W        W15421  33.351  25.371   0.870
49013W        W15422  10.800  34.397   2.794
49014W        W15423  36.573  10.530  12.478
49015W        W15424   5.844  14.202   4.531
49016W        W15425  25.953  42.895   0.953
49017W        W15426  44.790  17.045   1.479
49018W        W15427  43.517  30.117   2.471
49019W        W15428  37.512  31.536  11.595
49020W        W15429   7.307   8.736   4.052
49021W        W15430  31.139   3.236  14.313
49022W        W15431  34.010   2.874  11.924
49023W        W15432  34.196  14.032  13.429
49024W        W15433  44.253   1.739  12.044
49025W        W15434  27.700  27.695   4.232
49026W        W15435  14.818  29.474  10.497
49027W        W15436  26.944   1.836   2.879
49028W        W15437   1.263  10.629  11.559
49029W        W15438  19.596  17.777  10.794
49030W        W15439  36.144  20.928  10.604
49031W        W15440  22.286  33.857  11.162
49032W        W15441  24.780  37.934   2.935
49033W        W15442  44.845   8.841  12.605
49034W        W15443  27.686  32.884   4.151
49035W        W15444   3.238  36.138  14.300
49036W        W15445  16.143  31.064   1.911
49037W        W15446   3.386  10.284   1.225
49038W        W15447  38.149  44.141   3.590
49039W        W15448  40.725  40.583   1.658
49040W        W15449  26.353  39.452  13.032
49041W        W15450  13.266  39.437  13.122
49042W        W15451   7.804  35.615   0.222
49043W        W15452  27.501  38.251  14.359
49044W        W15453  35.381  21.146  14.288
49045W        W15454   3.159  26.068  11.036
49046W        W15455  20.814   9.165   1.062
49047W        W15456  22.759  13.535  14.937
49048W        W15457  16.560   2.613   1.945
49049W        W15458  35.454  44.839   1.690
49050W        W15459  30.176  20.641   2.341
49051W        W15460  25.364   3.264   1.472
49052W        W15461  14.315   6.393  13.172
49053W        W15462  19.172   4.480   1.920
49054W        W15463  15.130  34.007  12.922
49055W        W15464  21.699  10.312   3.724
49056W        W15465   4.895  23.106   0.325
49057W        W15466   2.828  37.976   2.949
49058W        W15467   0.472  42.744   2.782
49059W        W15468   7.941   2.028  13.183
49060W        W15469  17.297  20.664  13.445
49061W        W15470  22.940  38.664   2.259
49062W        W15471  22.140   3.086   1.515
49063W        W15472  18.130   9.193   4.162
49064W        W15473  18.039  16.268   1.712
49065W        W15474  26.383  31.135  13.387
49066W        W15475  40.276  21.064   1.819
49067W        W15476  22.492  29.959  14.878
49068W        W15477   2.216  14.719   2.696
49069W        W15478  10.227  25.048   2.183
49070W        W15479  17.383   5.827   1.279
49071W        W15480   3.485   4.315   2.318
49072W        W15481  21.532  42.578  11.149
49073W        W15482  15.739  37.984  11.889
49074W        W15483  39.494  16.362   1.014
49075W        W15484   2.562  23.905   5.072
49076W        W15485  36.482  11.596   2.972
49077W        W15486  17.660  17.054  11.096
49078W        W15487  18.750   6.996   3.198
49079W        W15488  28.074  43.374   4.148
49080W        W15489  15.322  36.592   2.718
49081W        W15490  23.138  39.343  14.174
49082W        W15491  27.219  43.940  13.009
49083W        W15492  34.888  12.802   0.462
49084W        W15493  15.759  11.603  11.175
49085W        W15494  20.574  36.650   1.776
49086W        W15495  27.602  39.388   4.130
49087W        W15496  29.882  22.167   1.434
49088W        W15497  22.499  18.182  12.160
49089W        W15498  12.706  30.241  12.549
49090W        W15499   1.302   7.431   2.255
49091W        W15500  25.019  17.828  13.832
49092W        W15501  24.108   5.947  12.152
49093W        W15502  18.309  39.619  10.052
49094W        W15503   0.912  30.083  11.066
49095W        W15504   9.645  33.093   2.328
49096W        W15505  43.195  18.683   3.157
49097W        W15506  18.315  12.275   3.750
49098W        W15507   8.346  28.297  14.985
49099W        W15508   2.997   9.304  10.773
49100W        W15509  19.782   0.860  14.488
49101W        W15510   6.315  29.616   4.443
49102W        W15511  15.891  23.848   4.108
49103W        W15512  21.324  37.256  13.420
49104W        W15513  42.550  28.989   1.824
49105W        W15514  29.370   0.685  12.062
49106W        W15515   9.572  34.989   4.927
49107W        W15516  36.803  39.756   4.153
49108W        W15517   2.829  11.087  13.222
49109W        W15518  32.912  22.654   3.490
49110W        W15519  37.033  43.985  12.901
49111W        W15520   9.874  30.562   4.287
49112W        W15521   4.324   8.263  13.442
49113W        W15522  11.558  13.701   0.757
49114W        W15523  21.856   7.313  11.062
49115W        W15524  11.311  19.281   3.243
49116W        W15525  41.841  19.660   2.461
49117W        W15526   8.379  12.140   2.552
49118W        W15527   8.217  29.034  14.564
49119W        W15528  28.094  35.577   1.899
49120W        W15529  36.029  38.502   1.205
49121W        W15530  28.708   6.737  14.496
49122W        W15531  37.316  15.854   2.731
49123W        W15532  11.206   5.897  14.850
49124W        W15533  33.518  14.269   3.067
49125W        W15534  38.304  42.455   2.277
49126W        W15535  14.392   4.014   1.425
49127W        W15536  11.163  26.163  12.173
49128W        W15537  41.425  41.029  13.319
49129W        W15538  36.195  31.116   1.381
49130W        W15539  37.004   6.257  11.151
49131W        W15540   4.190  16.072   0.454
49132W        W15541   2.353  24.744  11.977
49133W        W15542  29.543   5.793  14.413
49134W        W15543  32.378  30.424   0.450
49135W        W15544  43.459  38.032  11.527
49136W        W15545  39.032  16.137   4.599
49137W        W15546  33.537  37.985  10.683
49138W        W15547  37.519  44.405  14.480
49139W        W15548   9.648  18.575   1.953
49140W        W15549  20.727  17.042  11.861
49141W        W15550   6.118  43.822  10.854
49142W        W15551   0.384   1.928   0.447
49143W        W15552  32.706   8.723  14.902
49144W        W15553  39.339  44.949   3.764
49145W        W15554  35.050  32.423  14.432
49146W        W15555   7.731  33.083   1.950
49147W        W15556  20.436   8.907  12.147
49148W        W15557   0.709  13.090   2.576
49149W        W15558  44.958  40.673   2.270
49150W        W15559  14.989  22.559  11.655
49151W        W15560  40.144  39.040  12.897
49152W        W15561   9.456  37.938  12.008
49153W        W15562  17.466  21.356   2.066
49154W        W15563  38.069  20.892  10.539
49155W        W15564  26.033   3.410   2.727
49156W        W15565  42.208  33.761   3.249
49157W        W15566  27.600  11.911  10.886
49158W        W15567   2.139   1.918   3.270
49159W        W15568  38.268  42.817  12.840
49160W        W15569  25.728  42.806  12.971
49161W        W15570  43.743  27.085   0.824
49162W        W15571  44.413  24.315  14.280
49163W        W15572   1.283  37.982   0.339
49164W        W15573   7.858  21.621  13.361
49165W        W15574  15.039  27.001  13.837
49166W        W15575  38.876  24.974  11.352
49167W        W15576  32.085  38.438  12.777
49168W        W15577  13.926  38.985   4.767
49169W        W15578  39.484  43.485   0.967
49170W        W15579  28.510  41.654   0.373
49171W        W15580  16.644  38.972   1.920
49172W        W15581  40.910  28.347   1.854
49173W        W15582  39.804  12.744   1.331
49174W        W15583  27.474  35.035   3.842
49175W        W15584  17.065   9.979   2.116
49176W        W15585   0.645  40.441  12.483
49177W        W15586   0.658  17.546  11.274
49178W        W15587   8.594  27.763   2.799
49179W        W15588  16.626   1.541   0.253
49180W        W15589  29.012  36.627  12.905
49181W        W15590  31.625   6.660  10.453
49182W        W15591  40.363  27.642   1.668
49183W        W15592  18.169   1.461   4.605
49184W        W15593  44.920  22.252   2.332
49185W        W15594  40.568  44.828   2.517
49186W        W15595   1.683   2.966   4.206
49187W        W15596  44.912  43.093   1.267
49188W        W15597  35.826  37.567   1.128
49189W        W15598  21.120  20.232  14.889
49190W        W15599  14.572  36.966  13.096
49191W        W15600  24.949  15.737  12.949
49192W        W15601  19.511  12.521   2.307
49193W        W15602  13.577  16.091   0.818
49194W        W15603  24.797  26.175  12.297
49195W        W15604  26.287  42.797   5.110
49196W        W15605  20.984  18.642   0.318
49197W        W15606  21.036  42.728   4.472
49198W        W15607  23.043  28.219  11.490
49199W        W15608  19.087   7.755  14.419
49200W        W15609  32.125  17.989   0.388
49201W        W15610  28.856   5.431  14.889
49202W        W15611  23.549  14.572  13.733
49203W        W15612  13.367  30.771   2.601
49204W        W15613  26.591  19.356  11.168
49205W        W15614  18.816  32.602   0.235
49206W        W15615   6.403  18.673   3.258
49207W        W15616  13.277  37.575   1.509
49208W        W15617   6.461   7.920   0.489
49209W        W15618  14.772   9.081   4.294
49210W        W15619  31.574  37.494   1.959
49211W        W15620   9.195  31.753   5.011
49212W        W15621  13.104  26.523   0.457
49213W        W15622  40.809  22.735  11.547
49214W        W15623   0.749  27.058  14.375
49215W        W15624   6.945  15.121   4.605
49216W        W15625   9.611  24.636  14.025
49217W        W15626  21.679  13.676  14.705
49218W        W15627  15.246  44.976  10.856
49219W        W15628  34.073  22.353   1.210
49220W        W15629  14.795   1.449   0.713
49221W        W15630  28.212  27.069   3.812
49222W        W15631  27.517  21.619   2.786
49223W        W15632   2.703  19.630  10.716
49224W        W15633  28.487  29.447  10.175
49225W        W15634   4.315  12.358   4.632
49226W        W15635  22.993  19.021   0.441
49227W        W15636  39.794  40.360   3.339
49228W        W15637  38.025  23.123   2.409
49229W        W15638  10.778  27.494   4.445
49230W        W15639  14.744  30.148  13.728
49231W        W15640  36.919  44.346   2.502
49232W        W15641  14.790  34.970  11.675
49233W        W15642  43.358  22.362   1.484
49234W        W15643  27.109  11.655   3.211
49235W        W15644  28.055  37.677  14.929
49236W        W15645   4.115  22.606  10.395
49237W        W15646   4.257  31.533  13.382
49238W        W15647   6.787  41.559   4.216
49239W        W15648  38.432  10.962  14.038
49240W        W15649  17.082  34.666   4.121
49241W        W15650  37.688  30.548   2.425
49242W        W15651  27.316  21.643  11.403
49243W        W15652  43.288  10.245   1.651
49244W        W15653   8.889  35.188  11.586
49245W        W15654   3.409  33.581   4.105
49246W        W15655  27.146  18.335  11.550
49247W        W15656   9.685  30.997  14.860
49248W        W15657  25.647  20.706   3.815
49249W        W15658  35.896  31.829   0.737
49250W        W15659  22.117   3.007  11.609
49251W        W15660  33.885  38.323   3.239
49252W        W15661  17.722   2.032  13.955
49253W        W15662  29.317  14.278   2.290
49254W        W15663  33.485  16.590  11.406
49255W        W15664  27.682   4.970   2.168
49256W        W15665  26.521  12.429  11.865
49257W        W15666  14.768  13.201   0.529
49258W        W15667  22.751  16.765   1.303
49259W        W15668  25.636  33.424  14.709
49260W        W15669  29.964  13.424   0.509
49261W        W15670  12.742  18.582   3.935
49262W        W15671  20.357  29.821  13.517
49263W        W15672  27.312  10.432   0.482
49264W        W15673  28.113  16.671   2.206
49265W        W15674   5.257  40.557  13.807
49266W        W15675  22.666   4.207  13.951
49267W        W15676  16.351  16.560   2.394
49268W        W15677  37.040  13.219  11.918
49269W        W15678  34.156  34.146   2.281
49270W        W15679  14.578  18.478  13.337
49271W        W15680  33.325  28.196  10.538
49272W        W15681  15.624   0.394  13.315
49273W        W15682  27.755  24.132  11.186
49274W        W15683   6.955  31.177   4.057
49275W        W15684  32.874  25.146  14.356
49276W        W15685  27.642  40.267  14.018
49277W        W15686   0.313  24.187   0.386
49278W        W15687  10.782  11.102   4.962
49279W        W15688  14.653  40.535  11.187
49280W        W15689  27.178  33.042  12.887
49281W        W15690   6.709  26.777  12.008
49282W        W15691   1.291  25.276  13.985
49283W        W15692  36.795  28.259   4.552
49284W        W15693  40.080  23.981  12.437
49285W        W15694  43.422  20.852  11.357
49286W        W15695  39.115  15.105  11.005
49287W        W15696  41.346  35.582  11.222
49288W        W15697  43.528  11.668  12.911
49289W        W15698  29.994   1.939  10.391
49290W        W15699  43.646  18.296  13.538
49291W        W15700   6.284  24.547  13.436
49292W        W15701   1.072   3.855   2.744
49293W        W15702  32.000  40.373   1.447
49294W        W15703  37.462   6.987   0.954
49295W        W15704  28.576   8.894  13.062
49296W        W15705  13.360  33.889   2.762
49297W        W15706  41.846  15.920   2.908
49298W        W15707  28.214   6.382  12.797
49299W        W15708  28.117  23.609  10.637
49300W        W15709  40.773  38.364   0.094
49301W        W15710  32.413  12.110   0.291
49302W        W15711  12.062  10.279   4.113
49303W        W15712   3.009  20.731  14.967
49304W        W15713  43.795   7.155   0.365
49305W        W15714  20.720  38.535   2.253
49306W        W15715  30.743   7.185  11.990
49307W        W15716  14.847  27.321  11.205
49308W        W15717  15.670  40.733   3.396
49309W        W15718  28.443  32.499  12.929
49310W        W15719  40.584  20.969  13.379
49311W        W15720   8.159  14.072  12.533
49312W        W15721  28.219  31.028   3.042
49313W        W15722   2.434  16.062   4.886
49314W        W15723  10.214  21.287  10.064
49315W        W15724  15.859  17.840  13.337
49316W        W15725  17.056  36.752   0.496
49317W        W15726  19.614  23.460   0.312
49318W        W15727  17.134  17.903  13.635
49319W        W15728   6.730   7.730  12.909
49320W        W15729   5.957  33.375   4.115
49321W        W15730  37.081   1.194   2.304
49322W        W15731  35.461  15.204  11.130
49323W        W15732  34.928  23.220  12.435
49324W        W15733   3.974  44.038   0.015
49325W        W15734   3.945  11.447   2.645
49326W        W15735  40.977  17.225  14.833
49327W        W15736  12.674  18.686  12.010
49328W        W15737  10.829  40.504   4.456
49329W        W15738  39.307  36.163  11.227
49330W        W15739  17.785  15.521  12.093
49331W        W15740  17.787  18.316   4.561
49332W        W15741   1.286  23.778   4.458
49333W        W15742  40.853  39.371  11.484
49334W        W15743  18.480  17.660   1.461
49335W        W15744  26.668  34.076   2.523
49336W        W15745  37.846  12.396  12.045
49337W        W15746  38.998  24.479  11.035
49338W        W15747   9.125  30.081   0.459
49339W        W15748   4.875  10.063  13.431
49340W        W15749  42.002  12.525   0.842
49341W        W15750  11.709  31.856   1.148
49342W        W15751  13.430  32.763   1.961
49343W        W15752  11.403   7.772   1.286
49344W        W15753  12.806  38.947  14.802
49345W        W15754  22.773  32.471   1.821
49346W        W15755   0.451  15.872  13.309
49347W        W15756  37.089  44.674   4.388
49348W        W15757   1.834   0.300   4.569
49349W        W15758  20.356  37.536  11.156
49350W        W15759   4.142  20.760  14.309
49351W        W15760   2.518  31.613   2.965
49352W        W15761  30.164  42.313   2.638
49353W        W15762   5.362  21.810  10.844
49354W        W15763  27.816  19.589   2.333
49355W        W15764  43.509  29.619  14.203
49356W        W15765   0.713  36.887   0.237
49357W        W15766  25.885  15.044   3.888
49358W        W15767  32.093  18.345  13.470
49359W        W15768  40.500   5.405   0.937
49360W        W15769  42.330   5.973   0.782
49361W        W15770  15.705  25.105   4.496
49362W        W15771  13.243   2.676   1.436
49363W        W15772  32.571  11.164   2.301
49364W        W15773  26.296  34.558   2.300
49365W        W15774  28.953  22.139  11.504
49366W        W15775  10.083  37.073   4.657
49367W        W15776   7.894  22.270  14.973
49368W        W15777  30.725   1.070  13.758
49369W        W15778  15.832  42.819  11.565
49370W        W15779  22.046  33.613  11.539
49371W        W15780  41.954  35.347   1.230
49372W        W15781   6.305  43.200   3.448
49373W        W15782  14.604  25.421  13.868
49374W        W15783  33.317   0.547  12.031
49375W        W15784  38.148  31.604  11.590
49376W        W15785   9.600  20.204  12.814
49377W        W15786  32.315  36.263  13.951
49378W        W15787  43.434  34.010  12.306
49379W        W15788  27.053  16.759  10.632
49380W        W15789   5.302   5.007   3.607
49381W        W15790  44.309  32.167   5.045
49382W        W15791  33.158  15.842   1.404
49383W        W15792  24.658  42.560  11.998
49384W        W15793  30.598  12.318   3.256
49385W        W15794  17.592  25.768   1.746
49386W        W15795  28.607  25.257  13.533
49387W        W15796   7.118  16.554  12.087
49388W        W15797   0.023  43.986  10.669
49389W        W15798  17.328  22.158   3.130
49390W        W15799  15.073  32.539   0.835
49391W        W15800  33.859   3.369  12.532
49392W        W15801  25.289  18.281  12.576
49393W        W15802  24.580  29.474  10.737
49394W        W15803  41.876  34.552   3.142
49395W        W15804   2.697  33.632  12.085
49396W        W15805  26.269  15.924  12.566
49397W        W15806   4.787  11.165  11.663
49398W        W15807  39.542  10.582   2.195
49399W        W15808  38.567  41.469   0.378
49400W        W15809  36.527   3.924   1.782
49401W        W15810  20.526  40.541  12.893
49402W        W15811  19.691  10.390  10.670
49403W        W15812  32.856  27.146  12.598
49404W        W15813   3.398  43.404  13.088
49405W        W15814   4.490  21.199   0.402
49406W        W15815  28.651  35.619  11.021
49407W        W15816  39.355  30.984  13.500
49408W        W15817  36.527  16.799   2.710
49409W        W15818  17.533  25.413   2.764
49410W        W15819   9.715  14.197   3.859
49411W        W15820  35.181  20.566   3.921
49412W        W15821   2.153  31.830  12.205
49413W        W15822   8.902  21.628   0.329
49414W        W15823  19.658  37.357  10.472
49415W        W15824  34.020  44.726   1.512
49416W        W15825  34.560  32.388  14.573
49417W        W15826   7.702  31.001  13.682
49418W        W15827  29.042  32.348  14.417
49419W        W15828  15.224  19.566   0.008
49420W        W15829   2.861   3.441  11.617
49421W        W15830  43.427  31.439  12.660
49422W        W15831  23.984  22.588   1.739
49423W        W15832  44.588   7.359   4.403
49424W        W15833  41.947  25.497  11.424
49425W        W15834  32.872  26.541   4.540
49426W        W15835  13.110   7.361  12.038
49427W        W15836  42.457  43.804  14.018
49428W        W15837  38.030  19.950   1.312
49429W        W15838   9.371  23.043  13.074
49430W        W15839  16.126  12.364   1.204
49431W        W15840  37.133  12.801  12.222
49432W        W15841  23.839  16.670  13.352
49433W        W15842   4.682  38.150   4.250
49434W        W15843  38.360  27.012   0.664
49435W        W15844  39.479  12.349  12.488
49436W        W15845   9.111  27.721  12.488
49437W        W15846  32.484   2.579  13.459
49438W        W15847  19.297  13.215   3.538
49439W        W15848  36.410  43.439  14.311
49440W        W15849  44.949  31.124   1.665
49441W        W15850  20.251  35.353  14.521
49442W        W15851  11.272  32.154  10.996
49443W        W15852  27.883  39.369   1.755
49444W        W15853  38.405   1.302  12.493
49445W        W15854  18.891  18.624   2.225
49446W        W15855   2.304  40.289   0.739
49447W        W15856  27.880  11.468  10.564
49448W        W15857  26.694  20.713  13.094
49449W        W15858  24.739  26.556  11.128
49450W        W15859  10.394  21.120  13.779
49451W        W15860  14.102  27.037   1.190
49452W        W15861  14.668  14.507  11.206
49453W        W15862  20.622   9.041   5.029
49454W        W15863  12.125  28.645  10.740
49455W        W15864   4.643  43.350  12.444
49456W        W15865   9.679  24.061   1.314
49457W        W15866  10.129   4.619  11.151
49458W        W15867  15.365  26.866   1.977
49459W        W15868  26.830   5.151   4.922
49460W        W15869   2.013  33.072  14.215
49461W        W15870   8.675  20.611   2.779
49462W        W15871  25.647  29.333   2.644
49463W        W15872  32.921  14.657   4.618
49464W        W15873  41.744  44.352  13.367
49465W        W15874  14.476  20.206   3.690
49466W        W15875  15.458  32.874  14.805
49467W        W15876   1.312  16.041   2.462
49468W        W15877  10.646  10.603  11.020
49469W        W15878  33.925   3.913   1.264
49470W        W15879  34.461  22.402  12.582
49471W        W15880  13.375   7.732   4.116
49472W        W15881   0.292  17.566   3.140
49473W        W15882  13.323  12.228  13.058
49474W        W15883  11.672  41.420  12.705
49475W        W15884  33.139  26.083   4.536
49476W        W15885  13.596   7.481   0.339
49477W        W15886  14.723  17.080   1.900
49478W        W15887  27.161  40.847  14.295
49479W        W15888  42.071  18.766   0.742
49480W        W15889  25.758   3.915   0.329
49481W        W15890   6.821  27.297  12.081
49482W        W15891  36.848  36.419   3.885
49483W        W15892   3.853   6.705   4.290
49484W        W15893  40.750   6.686  12.201
49485W        W15894  28.794  39.892  13.964
49486W        W15895  39.840  11.325   0.985
49487W        W15896   2.516  14.617  13.911
49488W        W15897  23.445  21.153   3.742
49489W        W15898   1.186  15.113   0.849
49490W        W15899   7.277  20.463   3.150
49491W        W15900  25.657   3.062  10.262
49492W        W15901  40.309  44.352  14.916
49493W        W15902  32.107  30.898   3.700
49494W        W15903  12.666  10.176  14.793
49495W        W15904  33.606  27.371   5.358
49496W        W15905  16.124  44.069  14.302
49497W        W15906  21.602  31.191   4.616
49498W        W15907  23.622  17.950  11.140
49499W        W15908  13.443  33.420  10.792
49500W        W15909  42.388  35.444  13.532
49501W        W15910  23.236  37.550  10.977
49502W        W15911  19.101  40.776   2.245
49503W        W15912  32.413   9.701  12.404
49504W        W15913  18.558  12.762  12.927
49505W        W15914  16.347  31.982  10.573
49506W        W15915  34.922  17.071  10.316
49507W        W15916  28.457  26.111   0.332
49508W        W15917  42.792  31.132   2.276
49509W        W15918  26.071   8.284  11.884
49510W        W15919   7.245  21.804   3.725
49511W        W15920  13.934  20.333  11.606
49512W        W15921  40.193  43.187   2.684
49513W        W15922   6.443   7.929  11.094
49514W        W15923  29.320  19.466  13.727
49515W        W15924  12.845  12.982   4.922
49516W        W15925  41.458  21.269  11.899
49517W        W15926   4.659  12.605  10.289
49518W        W15927  34.595   5.804   0.331
49519W        W15928  44.953  24.442  11.558
49520W        W15929   2.178  22.621  14.202
49521W        W15930  28.115  44.478  11.021
49522W        W15931  31.903   5.719   3.654
49523W        W15932  23.873   8.216  13.772
49524W        W15933  41.465   7.346  12.555
49525W        W15934  14.134  26.390  11.836
49526W        W15935  10.655  41.305  14.289
49527W        W15936  10.309  38.967  12.497
49528W        W15937   9.911  13.732  12.335
49529W        W15938  32.674  35.882  12.843
49530W        W15939  21.759   5.795   4.647
49531W        W15940  20.458   9.613   0.431
49532W        W15941  27.972  14.713  10.789
49533W        W15942  15.640   3.656  12.681
49534W        W15943  44.548  22.235  11.115
49535W        W15944  31.139   2.671   3.189
49536W        W15945   5.590  25.926   0.340
49537W        W15946  38.999  14.548  12.512
49538W        W15947  34.816  42.592  14.971
49539W        W15948   6.882  42.103  14.420
49540W        W15949  33.608  18.826   2.292
49541W        W15950  25.971  33.579  13.569
49542W        W15951  43.769  11.725  14.111
49543W        W15952  28.438  20.207  12.332
49544W        W15953   7.768  13.129  14.316
49545W        W15954  16.209  33.221  14.511
49546W        W15955  23.559  36.589   3.601
49547W        W15956  35.078  23.952  11.088
49548W        W15957  43.755   4.440  10.671
49549W        W15958  23.999  43.690  13.470
49550W        W15959  25.569   6.400  14.354
49551W        W15960  25.524  37.144  10.674
49552W        W15961   7.264   9.478  13.966
49553W        W15962  43.994   4.874   4.483
49554W        W15963  20.590  14.838   2.386
49555W        W15964  11.451   4.772  13.138
49556W        W15965  24.795  10.776  10.435
49557W        W15966   0.746   0.348   4.062
49558W        W15967  22.158  11.545  12.529
49559W        W15968  43.940  32.174   3.252
49560W        W15969  44.128  18.560   2.100
49561W        W15970  20.720  35.906  13.495
49562W        W15971  17.063  40.312  12.446
49563W        W15972  34.968  16.123   1.201
49564W        W15973  20.150  19.996  12.864
49565W        W15974  20.190  37.162  12.561
49566W        W15975   6.684  29.488   4.095
49567W        W15976  42.246  25.745  11.092
49568W        W15977  14.729  26.685  12.440
49569W        W15978  17.227  15.849  13.390
49570W        W15979  10.581  30.498  11.825
49571W        W15980  38.557   8.544   3.655
49572W        W15981  34.627  15.803   4.884
49573W        W15982  41.938  38.967  14.613
49574W        W15983  16.839  20.066  10.184
49575W        W15984  35.604  44.193   1.380
49576W        W15985  30.580  32.535   3.925
49577W        W15986  35.560  22.228   2.292
49578W        W15987  15.540  21.539  12.097
49579W        W15988  40.337  25.641   1.242
49580W        W15989  30.234  25.118  14.903
49581W        W15990  25.085  14.172   3.205
49582W        W15991  33.434  40.533   3.698
49583W        W15992  20.795  20.644   2.773
49584W        W15993  26.921  26.036  14.351
49585W        W15994  28.615   4.751  12.772
49586W        W15995  15.523   8.364   2.552
49587W        W15996  42.389  43.466  10.921
49588W        W15997   2.629   6.661   1.271
49589W        W15998   4.639  43.203   3.753
49590W        W15999  36.451  15.592  10.195
49591W        W16000   7.376  26.072   0.906
49592W        W16001  31.091  36.329   0.007
49593W        W16002  44.373  28.553   3.706
49594W        W16003  11.079   2.206   0.272
49595W        W16004  14.103  35.517   1.918
49596W        W16005   7.399  22.911  12.406
49597W        W16006  41.772  41.821  14.351
49598W        W16007   8.149  28.978  11.905
49599W        W16008  31.156   0.779  10.416
49600W        W16009  26.185   7.927   0.808
49601W        W16010  37.338  32.407   2.361
49602W        W16011   8.371  33.422   3.120
49603W        W16012  10.755  40.569   0.321
49604W        W16013   5.377  27.022   4.228
49605W        W16014   2.772  43.274   2.665
49606W        W16015   4.165  16.825   4.601
49607W        W16016  16.497  15.624   1.526
49608W        W16017  20.808   0.485   3.237
49609W        W16018  17.207   4.434  11.662
49610W        W16019  26.602  42.369   2.654
49611W        W16020   2.937  36.335  13.880
49612W        W16021  34.324  37.840  11.303
49613W        W16022   3.831  15.145   2.447
49614W        W16023  28.481  37.335  14.857
49615W        W16024  14.332  31.286   5.048
49616W        W16025  41.797  39.048   0.100
49617W        W16026  10.655  14.266   4.780
49618W        W16027  40.833  31.035  14.360
49619W        W16028  25.425  19.046   1.488
49620W        W16029   8.292  40.564  14.514
49621W        W16030  32.580  37.563   1.558
49622W        W16031   0.373  31.527   1.394
49623W        W16032  21.241  37.742   2.238
49624W        W16033  29.761  35.577   4.046
49625W        W16034  22.742   1.532  10.947
49626W        W16035  17.290  37.808  14.830
49627W        W16036  34.680   9.694   0.409
49628W        W16037   4.252  37.934   1.028
49629W        W16038  11.057   6.880   3.269
49630W        W16039  37.250  36.193  12.837
49631W        W16040   5.731  28.409   0.283
49632W        W16041  41.711   4.984   3.334
49633W        W16042   2.734   3.189   0.323
49634W        W16043  23.530   2.838  13.037
49635W        W16044  41.871  27.587   1.231
49636W        W16045  23.851  37.844   0.021
49637W        W16046   2.529  18.903  11.848
49638W        W16047  12.446  32.510  11.802
49639W        W16048  21.148  12.834  13.034
49640W        W16049  44.956  39.551   4.706
49641W        W16050  14.378   6.690   3.019
49642W        W16051  34.015  16.014  13.008
49643W        W16052  33.989   7.749  11.269
49644W        W16053   4.779   9.251  13.120
49645W        W16054   0.939  25.660   2.694
49646W        W16055  13.769  37.675  12.048
49647W        W16056  38.752  18.164   3.353
49648W        W16057  26.109   1.928   4.177
49649W        W16058  34.921   7.674  11.695
49650W        W16059  28.405  19.146  14.978
49651W        W16060  25.226  24.190  14.416
49652W        W16061   2.058  17.398  14.735
49653W        W16062   0.014  19.080  11.153
49654W        W16063   0.410   8.171   4.864
49655W        W16064  42.788  16.046   1.653
49656W        W16065   2.915  11.350   1.903
49657W        W16066  30.690  23.694   3.732
49658W        W16067   1.691   8.642   1.165
49659W        W16068  38.582   9.930   0.228
49660W        W16069   9.407  23.674   5.114
49661W        W16070  20.283  21.770  14.730
49662W        W16071  12.797  12.919   0.662
49663W        W16072  38.844  26.838  12.588
49664W        W16073  30.107   5.006  11.441
49665W        W16074  44.195  32.608  13.627
49666W        W16075  10.868   7.009   0.939
49667W        W16076   0.438  11.598   4.391
49668W        W16077  35.835   7.192   0.738
49669W        W16078   3.842   7.193  11.790
49670W        W16079  43.159  12.185  11.324
49671W        W16080  10.684  17.192   1.797
49672W        W16081  40.380  27.475   2.158
49673W        W16082  39.569   6.227  14.396
49674W        W16083  28.360  34.433   2.912
49675W        W16084  19.824  21.380  13.869
49676W        W16085  35.400  34.239  12.692
49677W        W16086  11.529   2.547   2.580
49678W        W16087   3.071  38.542   0.582
49679W        W16088  35.838  20.721   0.899
49680W        W16089  21.748  13.563   2.746
49681W        W16090  19.535  34.143  11.052
49682W        W16091  15.619  26.557  11.118
49683W        W16092  42.116  39.965   4.576
49684W        W16093  21.042  39.433  11.041
49685W        W16094  28.108  31.949   0.562
49686W        W16095   4.413  20.272  10.523
49687W        W16096  18.484   7.214  14.799
49688W        W16097   3.861  35.489   0.251
49689W        W16098   1.205   0.829   3.027
49690W        W16099  29.979  39.858   1.349
49691W        W16100  41.201  16.299  13.426
49692W        W16101  44.943  30.535  11.086
49693W        W16102  43.934  30.403   2.724
49694W        W16103   8.610  44.687   2.132
49695W        W16104  32.514   8.680  11.197
49696W        W16105  12.863  35.486   2.642
49697W        W16106  30.074  35.817  14.306
49698W        W16107  40.775  22.184   1.696
49699W        W16108  32.439  29.725   1.838
49700W        W16109  24.814  24.219   4.970
49701W        W16110  39.905  35.822   3.770
49702W        W16111  34.084  12.249   0.875
49703W        W16112  10.450  27.287   4.035
49704W        W16113   6.526  24.880  10.761
49705W        W16114  22.034  13.659   4.388
49706W        W16115  39.513  41.479   2.806
49707W        W16116  19.005  41.936   0.176
49708W        W16117  24.202  36.286  14.439
49709W        W16118   0.209   6.820   3.722
49710W        W16119  10.904  16.304   2.843
49711W        W16120  33.158  24.101  13.201
49712W        W16121  19.937   9.517  10.552
49713W        W16122  13.406   3.992  10.144
49714W        W16123  38.877  22.523   2.168
49715W        W16124  37.016  36.715   2.155
49716W        W16125  27.981  13.439   2.365
49717W        W16126  22.521  10.713  14.694
49718W        W16127  24.460  44.350   2.660
49719W        W16128  27.084  19.324  13.351
49720W        W16129  40.412  20.717   2.172
49721W        W16130  28.304  26.984  10.677
49722W        W16131  27.977  26.959  10.254
49723W        W16132  34.936   0.881   4.723
49724W        W16133  22.043  40.983  11.447
49725W        W16134   0.979   8.680   1.823
49726W        W16135  16.159  36.297  12.522
49727W        W16136  38.463   3.518   0.379
49728W        W16137  15.768   1.257  11.095
49729W        W16138   6.606  42.774  11.880
49730W        W16139  32.794   6.619  11.052
49731W        W16140  32.582  29.540   3.198
49732W        W16141  38.927  22.458  11.673
49733W        W16142   8.724   3.869  14.040
49734W        W16143  39.879  10.936   2.397
49735W        W16144   7.942   5.434   3.887
49736W        W16145   5.474  32.374   2.678
49737W        W16146  18.741  39.804   2.741
49738W        W16147   9.890   9.237  12.832
49739W        W16148  38.147  10.188   3.041
49740W        W16149   2.801  32.707   0.027
49741W        W16150  23.620   3.761   3.505
49742W        W16151  22.701  22.221   1.919
49743W        W16152  30.122  38.981  14.276
49744W        W16153  16.801  39.522   2.747
49745W        W16154  43.417  23.117   4.437
49746W        W16155   9.135  23.660  10.911
49747W        W16156  36.302  18.999   2.209
49748W        W16157  36.923  26.001  10.685
49749W        W16158   6.084   0.644  14.012
49750W        W16159   3.350  17.225   3.282
49751W        W16160  17.110   4.290   4.847
49752W        W16161  20.235  40.341  13.399
49753W        W16162  37.090  20.810   4.106
49754W        W16163  43.255  28.503   0.639
49755W        W16164  13.172  39.402   4.093
49756W        W16165  33.791  14.826   4.210
49757W        W16166  17.133  34.949   4.593
49758W        W16167  19.611  42.367  13.781
49759W        W16168   6.794   4.705   0.259
49760W        W16169  20.995   8.304  11.128
49761W        W16170  37.888   4.464   1.360
49762W        W16171  27.983  11.101  12.451
49763W        W16172  40.982  40.735   3.716
49764W        W16173  40.910  25.455  14.827
49765W        W16174   2.990   1.963  14.889
49766W        W16175  13.295  40.815   4.516
49767W        W16176  38.302  34.358   2.270
49768W        W16177  26.908  14.182  12.068
49769W        W16178  26.189  10.601  13.858
49770W        W16179  32.552  44.815   4.036
49771W        W16180  27.153  31.076   3.839
49772W        W16181  16.055  18.052   2.248
49773W        W16182  32.114  14.388   9.833
49774W        W16183  26.948  30.593  11.097
49775W        W16184  16.149   0.622  12.640
49776W        W16185  11.144  24.782  11.101
49777W        W16186   2.202   8.642  13.012
49778W        W16187   3.157  16.632  14.608
49779W        W16188  36.124   4.461  14.444
49780W        W16189  22.144  17.079  10.423
49781W        W16190   7.488  24.182  13.519
49782W        W16191   4.473  24.415  12.340
49783W        W16192   0.957  36.854  10.599
49784W        W16193  38.307  39.909  14.853
49785W        W16194   1.694  30.985  10.526
49786W        W16195  26.572  11.924  11.945
49787W        W16196  43.795   0.904   0.801
49788W        W16197  44.520  14.240   2.911
49789W        W16198  33.894  18.586   1.753
49790W        W16199  25.972  38.518  10.709
49791W        W16200   4.263  12.088  14.023
49792W        W16201  26.146  33.288  13.955
49793W        W16202  34.113  34.778   2.927
49794W        W16203  30.953  21.235  14.411
49795W        W16204   2.891  40.328  13.959
49796W        W16205  18.704  21.711  10.697
49797W        W16206   7.297   5.875   0.833
49798W        W16207  12.189   5.698  10.476
49799W        W16208  11.161  17.359   3.419
49800W        W16209  13.777  32.213   5.122
49801W        W16210  13.692  22.868  14.720
49802W        W16211  34.538  11.123  12.993
49803W        W16212   6.901  13.169   4.596
49804W        W16213  11.234  31.958   2.865
49805W        W16214  35.000  14.670  11.742
49806W        W16215   0.571   1.772  10.454
49807W        W16216   6.561  31.844   5.152
49808W        W16217  40.448  40.950   4.372
49809W        W16218  39.231  30.026  12.968
49810W        W16219   2.852  10.309   1.181
49811W        W16220  18.212  26.537  11.133
49812W        W16221  24.722  28.588   1.988
49813W        W16222   9.872   3.024  11.143
49814W        W16223  12.587  12.615   2.670
49815W        W16224  25.930  14.879  14.453
49816W        W16225  17.789  40.575  13.646
49817W        W16226  19.309  20.913   4.130
49818W        W16227  26.907  38.520   4.143
49819W        W16228  15.345  32.097   3.635
49820W        W16229  41.862  14.622   3.152
49821W        W16230  32.550  34.877  13.621
49822W        W16231   5.202  14.652   4.137
49823W        W16232  26.027  20.711   2.094
49824W        W16233  20.629  42.475  11.110
49825W        W16234  33.526  18.529  12.533
49826W        W16235   8.363  13.216  12.147
49827W        W16236  26.240  20.594   1.139
49828W        W16237  26.399   6.975  10.771
49829W        W16238  29.828   3.811  11.887
49830W        W16239  28.407  23.090   0.915
49831W        W16240  31.552  24.363   2.006
49832W        W16241   4.032  36.579   1.911
49833W        W16242  39.063  11.233  11.918
49834W        W16243  36.121  23.509  12.089
49835W        W16244  16.156  29.214  13.440
49836W        W16245   6.208  21.261   1.250
49837W        W16246  44.801  18.283   2.775
49838W        W16247  19.108  23.464   3.890
49839W        W16248  29.457  42.079  13.382
49840W        W16249  43.444  31.860   4.035
49841W        W16250  24.158  38.682   1.353
49842W        W16251  17.326  31.934   3.278
49843W        W16252  27.162   8.890   4.333
49844W        W16253   8.765  34.553   4.871
49845W        W16254  35.556  21.468   0.463
49846W        W16255  17.262   6.263   4.681
49847W        W16256  41.393  25.751   4.599
49848W        W16257  12.149  25.001   0.986
49849W        W16258   7.200  31.655  13.336
49850W        W16259  17.804  17.780  13.816
49851W        W16260   0.828  28.998  12.956
49852W        W16261  35.655   1.379   3.098
49853W        W16262  33.320  36.131   1.880
49854W        W16263  19.342  12.824  14.586
49855W        W16264  31.138  25.467   2.387
49856W        W16265  41.353  10.645   2.094
49857W        W16266  37.317   6.131   4.093
49858W        W16267  28.183   9.050  13.376
49859W        W16268  34.891  43.495   3.839
49860W        W16269  39.578  24.720   0.572
49861W        W16270  23.742   0.899  13.624
49862W        W16271  20.242  33.397  12.116
49863W        W16272   5.199  42.905  10.744
49864W        W16273   1.961  26.005   1.419
49865W        W16274  15.752  31.675   2.284
49866W        W16275  12.013  10.726  13.933
49867W        W16276   4.041   9.277   0.096
49868W        W16277  33.872   7.775   2.852
49869W        W16278  10.354  11.406   4.934
49870W        W16279  26.091  16.263   4.718
49871W        W16280  31.488  16.862   2.224
49872W        W16281  24.976  41.828  12.417
49873W        W16282  21.343   2.560  10.504
49874W        W16283  42.016   8.397   4.762
49875W        W16284  11.807   2.172   0.827
49876W        W16285  20.245  16.945  10.719
49877W        W16286  44.820  13.138   4.604
49878W        W16287  15.861  11.061  14.007
49879W        W16288   4.156  12.291  12.996
49880W        W16289  37.038  21.246  10.694
49881W        W16290  16.813  13.995  11.152
49882W        W16291  28.125   3.275   3.638
49883W        W16292  25.537   3.816   4.587
49884W        W16293   2.954   2.404   3.235
49885W        W16294   1.745   9.362  12.429
49886W        W16295   0.011  16.492  11.956
49887W        W16296  20.200  31.597  14.020
49888W        W16297   4.234   9.121  12.864
49889W        W16298  16.732  28.223  12.661
49890W        W16299  43.658  43.227  14.899
49891W        W16300  40.094  11.810   3.283
49892W        W16301  44.527  29.248   3.208
49893W        W16302   1.344   8.829   5.477
49894W        W16303  14.874  16.333  11.023
49895W        W16304  24.265  17.090  14.279
49896W        W16305  28.511  42.028  10.772
49897W        W16306  32.796  13.510   4.079
49898W        W16307   0.011  30.890  12.503
49899W        W16308   6.434  13.245   2.620
49900W        W16309  32.357  27.594  13.849
49901W        W16310  12.787   3.304  10.220
49902W        W16311  33.424  22.680  13.850
49903W        W16312  27.599  29.263  14.418
49904W        W16313  43.937  33.003   4.275
49905W        W16314  13.197   6.414  12.032
49906W        W16315  24.542  11.657   4.405
49907W        W16316  40.868   6.877   3.642
49908W        W16317  15.582  38.289  10.969
49909W        W16318  14.715   3.562   1.797
49910W        W16319  16.792  37.828   0.378
49911W        W16320  22.145   6.026  10.707
49912W        W16321  20.161  16.057  10.826
49913W        W16322  24.376  26.841  10.912
49914W        W16323  12.694  25.911  14.047
49915W        W16324  43.946  43.463  12.069
49916W        W16325  32.767   3.454  14.254
49917W        W16326  44.996  38.270   2.788
49918W        W16327   8.924  30.166  10.111
49919W        W16328   3.770  42.719   0.303
49920W        W16329  17.002  12.434   3.360
49921W        W16330   7.489  30.014  11.194
49922W        W16331   4.355  27.681  13.917
49923W        W16332  17.601   2.989  13.736
49924W        W16333  14.698  38.868  11.768
49925W        W16334   2.975  27.480   4.271
49926W        W16335  40.021  39.938   3.143
49927W        W16336  17.715  35.163  13.482
49928W        W16337  22.089   0.210   9.991
49929W        W16338  31.529  32.785  11.482
49930W        W16339  23.415  18.066   1.877
49931W        W16340  27.193  40.404   4.716
49932W        W16341  26.819  32.641   2.336
49933W        W16342   2.107  17.929  14.880
49934W        W16343   9.661  10.339  10.201
49935W        W16344  33.277  44.832   2.145
49936W        W16345   1.428  23.563   2.248
49937W        W16346  19.624  10.338   3.089
49938W        W16347  35.350  15.656   3.690
49939W        W16348   6.128  18.236  11.040
49940W        W16349   8.092  15.767  12.889
49941W        W16350  38.814  42.812   0.872
49942W        W16351  34.840   8.226  14.406
49943W        W16352   8.187  35.591  11.955
49944W        W16353  27.669   8.147   0.931
49945W        W16354  17.969   9.437   1.924
49946W        W16355  43.299  35.561   4.895
49947W        W16356  23.781  27.911   1.792
49948W        W16357  35.833  18.039  13.128
49949W        W16358  24.806  42.348  12.504
49950W        W16359   8.564  20.177  14.660
49951W        W16360  21.365  37.486   3.568
49952W        W16361  15.036  25.931   1.389
49953W        W16362  11.124  10.107  14.566
49954W        W16363   0.202  31.420  12.908
49955W        W16364  38.041  14.275   3.739
49956W        W16365  18.805  41.966   1.939
49957W        W16366  30.396  11.226  11.215
49958W        W16367  24.548  24.081   3.193
49959W        W16368   2.782  30.370  12.128
49960W        W16369  28.450  14.616  14.831
49961W        W16370  42.173  43.204   4.857
49962W        W16371  27.393  44.431  14.971
49963W        W16372  12.875  42.037  14.351
49964W        W16373   4.913  25.133  13.889
49965W        W16374   8.620  40.815  12.574
49966W        W16375  12.147  27.122  11.130
49967W        W16376  43.960   5.900  12.473
49968W        W16377   5.284  37.384  11.024
49969W        W16378  39.056   1.212   0.398
49970W        W16379   7.272  18.304   0.453
49971W        W16380  24.884   7.553   1.370
49972W        W16381  33.950   8.902  13.455
49973W        W16382  16.439  28.505  11.961
49974W        W16383  18.182  25.799  14.405
49975W        W16384  31.897  12.978   0.772
49976W        W16385  42.568  29.194   0.875
49977W        W16386  32.467  16.684   2.167
49978W        W16387   7.108  33.166   2.791
49979W        W16388  29.875  30.537  12.505
49980W        W16389  13.223  19.042   4.977
49981W        W16390  19.284  21.337  11.027
49982W        W16391  36.574  20.673  14.751
49983W        W16392  16.815  29.897  10.433
49984W        W16393  42.394  24.230   2.455
49985W        W16394   3.257  16.790  10.447
49986W        W16395  43.880  24.473   0.728
49987W        W16396  11.388   6.111  13.046
49988W        W16397  36.299  30.941  12.485
49989W        W16398  15.664  30.310  10.168
49990W        W16399  24.138   4.418  13.066
49991W        W16400  39.597  13.424   0.793
49992W        W16401  41.784  43.105  12.931
49993W        W16402  17.231  18.916  13.433
49994W        W16403  22.137  14.759   1.383
49995W        W16404  17.681   5.388   0.673
49996W        W16405   1.421  28.430   4.215
49997W        W16406  34.833  16.790   3.289
49998W        W16407  33.104  23.717   1.320
49999W        W16408   0.049  13.623  11.989
50000W        W16409  10.740  19.810   3.720
50001W        W16410  39.517  39.142   0.673
50002W        W16411  28.127  38.001   1.008
50003W        W16412  26.989  38.527  12.862
50004W        W16413   3.351  40.890  14.394
50005W        W16414  11.604  28.925  13.794
50006W        W16415  28.142  44.197  14.537
50007W        W16416   3.824   0.744   1.297
50008W        W16417  13.557  35.901   4.337
50009W        W16418   4.118  24.591  10.211
50010W        W16419   0.801  11.368  13.165
50011W        W16420  24.522   8.015  13.467
50012W        W16421  30.823   4.274   2.792
50013W        W16422   1.211   5.976  13.288
50014W        W16423  11.228  15.901   2.789
50015W        W16424  13.202  11.348  14.571
50016W        W16425  29.263  35.783   4.069
50017W        W16426  29.622   4.782   2.825
50018W        W16427   3.747  34.004   3.242
50019W        W16428  23.185  32.142   2.253
50020W        W16429   3.476  35.337   1.914
50021W        W16430  36.090   0.444  10.767
50022W        W16431  24.302  38.769   4.053
50023W        W16432  37.635  35.287  11.563
50024W        W16433  18.292  35.170   1.881
50025W        W16434  37.135  43.464   4.907
50026W        W16435  36.323  44.349   3.778
50027W        W16436  43.336  12.032  13.901
50028W        W16437  27.378  27.417  12.336
50029W        W16438   8.836  13.296  14.333
50030W        W16439  43.476  39.118   4.125
50031W        W16440  32.986  33.359  12.025
50032W        W16441   4.800  32.518  11.657
50033W        W16442   5.836  11.737  11.572
50034W        W16443  43.793  21.003   3.141
50035W        W16444  38.017  19.703   3.392
50036W        W16445  11.309  38.017  10.723
50037W        W16446  42.794  18.850  11.270
50038W        W16447  14.370  29.690  12.801
50039W        W16448  27.288  30.574  11.495
50040W        W16449  27.751  11.622  12.612
50041W        W16450  17.971   9.901   3.768
50042W        W16451  17.487  19.821   0.712
50043W        W16452  22.605  14.208   2.833
50044W        W16453  19.097  28.165  12.602
50045W        W16454   3.340  12.644  13.925
50046W        W16455  21.676  27.401   0.260
50047W        W16456   3.244  20.613  10.467
50048W        W16457  30.646  44.896   1.315
50049W        W16458   5.521  35.595   1.740
50050W        W16459  37.085   8.405   2.731
50051W        W16460   5.362  38.939   2.917
50052W        W16461  41.284  25.482   4.144
50053W        W16462  18.762  11.874  13.096
50054W        W16463  19.258  32.945  10.988
50055W        W16464   8.261  28.135  10.338
50056W        W16465  26.909   0.450   4.130
50057W        W16466  44.858  11.097   1.852
50058W        W16467   7.697   6.551  14.436
50059W        W16468   7.884  27.861  10.568
50060W        W16469  24.493  28.154  11.592
50061W        W16470   3.171  23.193  12.922
50062W        W16471  14.766  43.767   0.960
50063W        W16472  35.368  40.092  11.980
50064W        W16473   8.224   4.957   3.237
50065W        W16474  14.717  11.618   2.248
50066W        W16475  20.513  30.412   4.916
50067W        W16476  40.961  16.409   0.947
50068W        W16477  43.373   3.691   0.870
50069W        W16478  21.075  17.549   3.621
50070W        W16479   1.453   7.428   0.869
50071W        W16480  21.877  12.329  12.832
50072W        W16481  42.004  30.730  13.813
50073W        W16482  19.815  11.803   2.687
50074W        W16483  28.741   5.919   2.716
50075W        W16484  32.170  33.469   0.761
50076W        W16485  39.799  23.626  12.710
50077W        W16486  43.620   5.204   0.907
50078W        W16487  23.626   0.421   3.453
50079W        W16488  24.463  33.917  14.598
50080W        W16489  24.551   2.825   1.628
50081W        W16490  26.245  17.607  13.214
50082W        W16491  32.236   4.812  11.526
50083W        W16492   3.261  32.896   1.856
50084W        W16493   3.029   4.670  12.000
50085W        W16494  34.886  31.668  13.492
50086W        W16495  13.535  40.365  12.229
50087W        W16496   7.458   8.637  11.669
50088W        W16497  30.280  43.218   1.381
50089W        W16498  41.665  26.015   0.781
50090W        W16499  21.119  41.368  13.836
50091W        W16500  33.291  11.760   4.537
50092W        W16501  28.648  42.554   3.329
50093W        W16502   2.511  26.029  12.537
50094W        W16503  15.729  13.526   0.582
50095W        W16504  21.055  14.583  11.128
50096W        W16505   8.275   5.854  13.427
50097W        W16506  16.327  36.636   1.236
50098W        W16507  27.147  23.741  13.768
50099W        W16508  44.293   7.165   3.429
50100W        W16509  32.110  22.594  14.346
50101W        W16510  42.032  42.001  10.675
50102W        W16511  29.402   9.279  14.974
50103W        W16512  30.884  33.319   4.169
50104W        W16513  21.604  43.378  11.654
50105W        W16514  24.989   0.992  11.191
50106W        W16515   5.991  29.545   1.779
50107W        W16516  28.349  16.118  12.974
50108W        W16517  38.397  39.893   1.819
50109W        W16518   9.126  27.427   3.621
50110W        W16519  19.982  39.976  11.546
50111W        W16520  24.231   8.729   3.210
50112W        W16521  18.670   6.448  13.459
50113W        W16522  40.244  20.983  12.118
50114W        W16523  44.157  41.779  12.103
50115W        W16524   3.507   8.736  12.127
50116W        W16525  26.506   4.042   1.453
50117W        W16526   8.710  22.011   1.908
50118W        W16527   1.409  18.288   2.155
50119W        W16528  39.288  14.329  13.521
50120W        W16529  31.988   6.449   1.628
50121W        W16530   0.492   3.643   1.380
50122W        W16531   1.705  42.087  10.716
50123W        W16532  14.801  22.529  13.302
50124W        W16533   9.756  15.881   0.152
50125W        W16534  26.650  34.090   1.548
50126W        W16535  38.014  28.505  11.776
50127W        W16536   3.478  36.877   0.933
50128W        W16537   7.264  16.708   4.083
50129W        W16538   5.424  33.582  12.079
50130W        W16539  14.465  13.294   0.960
50131W        W16540  30.154  31.232   0.018
50132W        W16541  31.108   3.954   3.638
50133W        W16542  26.527  30.218   3.693
50134W        W16543   5.996   4.466  13.716
50135W        W16544  15.251   6.289   4.536
50136W        W16545  22.515   6.451  13.487
50137W        W16546  29.365  20.638  13.129
50138W        W16547  17.803   7.401  14.425
50139W        W16548  40.093  11.757  14.867
50140W        W16549  36.749  44.054   0.322
50141W        W16550  42.037  42.695   4.983
50142W        W16551  16.825  37.545   2.684
50143W        W16552   7.171  28.903   3.868
50144W        W16553  44.392   9.278  14.588
50145W        W16554  42.751  14.147   2.287
50146W        W16555  12.881  17.286   3.776
50147W        W16556  19.521  26.006   2.947
50148W        W16557  35.416  12.314   0.895
50149W        W16558   0.086  18.300   4.555
50150W        W16559  28.717   0.423  13.958
50151W        W16560  22.213  41.739  12.778
50152W        W16561  15.658  29.567   2.352
50153W        W16562  12.672  35.892  10.592
50154W        W16563  44.520  17.372   1.173
50155W        W16564  17.055  36.905  13.627
50156W        W16565  42.523  41.598   3.915
50157W        W16566  19.109  24.125  11.336
50158W        W16567  27.661   2.513   3.417
50159W        W16568  24.178  10.378   0.201
50160W        W16569   3.513  36.488   2.236
50161W        W16570  29.188  33.200  11.175
50162W        W16571  31.177  20.255  11.629
50163W        W16572  30.419  22.624   1.771
50164W        W16573  36.350  14.879  13.441
50165W        W16574  12.788   4.346   2.889
50166W        W16575   6.323   7.441  10.961
50167W        W16576  15.744  16.985   1.742
50168W        W16577  18.352  36.607  12.046
50169W        W16578  28.453   3.195  12.383
50170W        W16579   8.709  16.591   3.571
50171W        W16580  36.608  25.080  11.647
50172W        W16581   9.173  41.370   3.853
50173W        W16582  18.677   6.149  13.914
50174W        W16583  35.511  16.774   0.906
50175W        W16584  27.930  13.251  12.876
50176W        W16585  28.186  17.020  12.634
50177W        W16586  26.687  17.641   3.778
50178W        W16587  31.925  37.900   4.303
50179W        W16588  12.077  29.475   3.710
50180W        W16589  10.357  15.337   3.316
50181W        W16590  35.378  30.486  14.770
50182W        W16591   0.876   0.235   5.082
50183W        W16592  37.956  16.535   9.927
50184W        W16593  20.539  34.640  14.914
50185W        W16594   5.958  34.942  11.150
50186W        W16595  37.901  22.760  10.274
50187W        W16596   7.603   9.108  11.511
50188W        W16597  18.621  40.344  13.320
50189W        W16598  10.770  40.489  11.346
50190W        W16599  23.278   3.620   4.001
50191W        W16600   4.459   6.161  14.837
50192W        W16601   6.290  19.637   5.019
50193W        W16602  43.867  38.469   1.209
50194W        W16603  30.894   2.866  11.694
50195W        W16604   4.646  28.726   0.907
50196W        W16605  44.291  15.181  14.833
50197W        W16606   1.838   8.319  13.223
50198W        W16607   2.142  39.035  14.815
50199W        W16608   7.405  36.704  13.858
50200W        W16609  10.628  22.808  12.331
50201W        W16610  20.651  32.084   1.256
50202W        W16611   7.903   0.853  11.557
50203W        W16612  43.927  11.333   4.584
50204W        W16613  36.838  11.767  13.376
50205W        W16614   1.462  38.376  11.157
50206W        W16615  34.456  44.775  10.802
50207W        W16616  35.761   1.532  13.436
50208W        W16617  30.193  35.365  13.459
50209W        W16618  36.305  17.063  11.179
50210W        W16619  35.908   6.330   4.393
50211W        W16620  16.658  24.167  14.274
50212W        W16621  34.556   9.371   0.807
50213W        W16622  26.515  19.982   1.431
50214W        W16623  28.930  18.164  12.091
50215W        W16624  28.445  19.575  13.790
50216W        W16625  23.283  40.013  11.258
50217W        W16626  13.722  35.366   2.273
50218W        W16627  30.217  24.592   0.473
50219W        W16628  42.563  37.967   1.786
50220W        W16629  42.472   6.674  13.416
50221W        W16630  40.995  18.673  14.382
50222W        W16631   4.488  19.307  14.594
50223W        W16632   5.598  27.399  12.967
50224W        W16633  21.718  18.147   2.543
50225W        W16634  13.502  44.456   4.725
50226W        W16635  41.431   6.799   4.841
50227W        W16636  41.587  13.124   2.771
50228W        W16637  11.649   1.771   2.275
50229W        W16638  38.344   2.245   3.640
50230W        W16639  19.262  43.875  14.678
50231W        W16640  32.429  11.689   3.841
50232W        W16641   6.720  32.061   3.432
50233W        W16642  17.598  18.749  10.125
50234W        W16643  40.090  43.349   1.845
50235W        W16644   5.798   0.283   1.879
50236W        W16645  44.451   4.913  10.551
50237W        W16646  13.151  43.251  14.170
50238W        W16647  16.089  24.598  14.764
50239W        W16648  32.977  42.906   2.326
50240W        W16649  28.203  32.406  14.811
50241W        W16650  20.559  16.762   3.747
50242W        W16651   0.868  40.933   4.930
50243W        W16652  10.121  40.541  11.939
50244W        W16653  36.781  14.399  10.752
50245W        W16654  22.335  29.051  12.917
50246W        W16655  33.847  26.198  12.017
50247W        W16656   4.324  14.094   2.734
50248W        W16657   0.181  25.472   3.678
50249W        W16658  39.733  18.153  10.061
50250W        W16659  10.778  12.657  13.473
50251W        W16660  17.335   3.884   4.562
50252W        W16661  27.325   2.460  12.416
50253W        W16662   6.683   6.660  11.882
50254W        W16663   6.676  29.187  10.614
50255W        W16664  27.625  35.438   2.056
50256W        W16665  37.351  36.304   4.749
50257W        W16666   4.990  12.698   5.100
50258W        W16667  33.671  38.448   4.157
50259W        W16668  29.556  28.597   4.245
50260W        W16669  20.803  41.418  12.048
50261W        W16670   1.957   2.272  10.720
50262W        W16671  11.395  35.825  11.721
50263W        W16672   8.503  23.228   2.683
50264W        W16673   3.919  40.810   1.862
50265W        W16674   1.626  25.090   2.789
50266W        W16675  37.261   6.972  11.197
50267W        W16676  23.203   2.018   1.270
50268W        W16677  13.348  16.790   4.875
50269W        W16678   7.924  42.011  11.249
50270W        W16679  26.418   4.904  11.049
50271W        W16680  22.952  39.033   0.933
50272W        W16681  15.647   8.522   1.251
50273W        W16682  20.571   2.963   1.936
50274W        W16683  13.346  40.294   4.634
50275W        W16684  12.836  25.536  10.936
50276W        W16685   4.863  27.063   0.519
50277W        W16686   0.034  38.722  14.332
50278W        W16687   9.365   0.471   0.832
50279W        W16688  25.609  42.828  10.043
50280W        W16689  33.388  20.366  11.998
50281W        W16690  40.420  27.561   3.711
50282W        W16691  12.169  32.611  10.664
50283W        W16692   1.612  26.696   4.866
50284W        W16693  31.685  24.650   3.693
50285W        W16694  30.508  17.539  10.905
50286W        W16695  39.851  37.580  10.977
50287W        W16696  42.552   4.301  12.846
50288W        W16697  17.770  26.388   4.093
50289W        W16698  28.518  24.662  14.296
50290W        W16699  40.856  43.066   3.285
50291W        W16700  32.912  18.641  13.990
50292W        W16701   8.619  42.612  13.366
50293W        W16702  17.446   8.793   1.364
50294W        W16703  40.001  26.472   0.733
50295W        W16704  36.609  41.852  11.596
50296W        W16705  12.532  10.416  13.439
50297W        W16706   0.469  10.268  11.219
50298W        W16707  35.749   7.244  14.209
50299W        W16708  24.964  28.520  14.021
50300W        W16709  33.527  24.050  10.479
50301W        W16710   8.362  34.497   0.476
50302W        W16711   7.269  34.408   0.347
50303W        W16712   8.959  24.583   3.273
50304W        W16713  34.320   4.464  10.394
50305W        W16714  27.067  44.798  13.573
50306W        W16715  32.643  22.567   4.208
50307W        W16716  10.412  43.261  11.477
50308W        W16717  16.678  36.341  12.494
50309W        W16718   4.496  41.364  11.946
50310W        W16719  12.665  20.228   1.428
50311W        W16720  31.115  27.072  13.841
50312W        W16721   0.431   3.167   2.744
50313W        W16722  16.774  36.327  10.725
50314W        W16723  30.359   5.644  12.091
50315W        W16724  21.715  15.791  10.626
50316W        W16725  21.183  30.089  10.794
50317W        W16726   2.436  12.703   1.912
50318W        W16727  18.454  16.638   0.384
50319W        W16728  29.704  37.821   3.636
50320W        W16729   6.683  28.665   4.729
50321W        W16730  15.758   0.555   1.475
50322W        W16731   8.880  17.697  14.868
50323W        W16732  37.276   3.093  11.038
50324W        W16733  25.169  34.317   0.485
50325W        W16734  39.975  41.829  13.722
50326W        W16735  20.852  11.814  10.566
50327W        W16736  27.409  10.853   4.511
50328W        W16737   1.012  39.061   1.330
50329W        W16738  31.049  23.970   1.255
50330W        W16739  24.455  32.266  14.646
50331W        W16740  23.961  22.406  14.847
50332W        W16741  43.454  15.625  11.811
50333W        W16742  42.312  15.218  10.693
50334W        W16743  17.790  29.337  13.422
50335W        W16744  38.464  38.091  11.162
50336W        W16745  14.364   2.436   3.617
50337W        W16746  37.843   6.438  11.620
50338W        W16747  41.276  35.383   2.797
50339W        W16748  35.714   3.553   0.371
50340W        W16749  28.976   7.268   0.702
50341W        W16750  30.462  38.864   2.146
50342W        W16751  11.662  25.026  12.919
50343W        W16752   8.307  24.363  11.209
50344W        W16753  17.541   2.709  13.276
50345W        W16754  41.513  16.667   3.094
50346W        W16755   7.427  21.924  13.341
50347W        W16756  20.604  29.576  12.418
50348W        W16757   1.789  33.113   3.327
50349W        W16758  39.897  42.707   3.143
50350W        W16759  18.684  19.671   5.354
50351W        W16760  32.612  43.309  11.421
50352W        W16761  31.938  39.781   4.732
50353W        W16762  27.252  33.331  13.905
50354W        W16763  27.733  23.753  12.962
50355W        W16764  38.416  36.423   1.374
50356W        W16765   8.883   3.516   2.920
50357W        W16766  13.177   3.829   2.277
50358W        W16767  26.508  37.203   4.132
50359W        W16768  17.051  19.119  12.065
50360W        W16769  40.379  12.095  14.547
50361W        W16770  12.052  41.357  11.396
50362W        W16771   2.267  29.970  14.272
50363W        W16772  39.343  44.992  12.588
50364W        W16773  40.935  15.202  13.005
50365W        W16774   5.047  27.671  14.715
50366W        W16775   8.653  11.772  13.293
50367W        W16776  34.891  33.586  10.702
50368W        W16777   6.694  17.615   0.380
50369W        W16778  14.105  34.027  14.738
50370W        W16779  25.209  26.551  10.910
50371W        W16780  34.954  37.815   1.798
50372W        W16781  22.744  15.672  12.036
50373W        W16782  43.485  19.568   3.559
50374W        W16783  16.034  11.297   0.374
50375W        W16784  36.886  24.943   3.471
50376W        W16785  17.334  19.197  11.619
50377W        W16786  40.723  16.521  11.644
50378W        W16787  19.834  15.375  11.886
50379W        W16788  17.214  29.986   0.277
50380W        W16789  31.454  26.286  14.323
50381W        W16790  11.401   0.806   1.845
50382W        W16791   9.189  27.477   1.741
50383W        W16792   6.305  35.355   0.033
50384W        W16793  36.119  44.053   1.277
50385W        W16794  27.585   7.355   9.788
50386W        W16795  28.643  17.820  13.469
50387W        W16796  35.471  29.640   1.009
50388W        W16797  33.464  24.656   4.653
50389W        W16798   7.087  14.696  13.458
50390W        W16799  13.204  42.963   1.218
50391W        W16800   4.292  22.691  12.135
50392W        W16801  25.950  16.539   2.674
50393W        W16802   7.832  36.143   4.008
50394W        W16803  28.001   2.663  10.450
50395W        W16804  31.848   9.231  14.727
50396W        W16805   3.682  11.895   0.143
50397W        W16806  41.877  39.584  11.907
50398W        W16807  24.034   9.799  12.170
50399W        W16808  43.834  44.817  12.057
50400W        W16809  21.518  17.708   3.838
50401W        W16810  42.540  38.625  12.941
50402W        W16811  41.257  31.526   3.200
50403W        W16812  31.046  28.569   2.686
50404W        W16813  27.012  35.110  11.420
50405W        W16814  38.784  23.575   2.179
50406W        W16815   6.469  37.503  11.672
50407W        W16816  36.445  15.035  11.929
50408W        W16817  32.733   3.476   4.040
50409W        W16818   4.002  34.923  14.549
50410W        W16819  26.507  19.456   1.353
50411W        W16820  26.685  44.000   0.667
50412W        W16821   2.440  21.472   3.711
50413W        W16822  16.131  28.688  10.624
50414W        W16823  39.400  32.511   4.046
50415W        W16824   3.386  22.370   0.009
50416W        W16825   0.169  28.099  14.347
50417W        W16826   1.497  37.369  14.033
50418W        W16827  36.442   8.964  12.502
50419W        W16828  44.145  16.153   2.184
50420W        W16829  22.879  14.053  12.400
50421W        W16830   9.237  11.841   4.337
50422W        W16831   6.805  26.064  14.293
50423W        W16832   2.555  29.960  13.801
50424W        W16833  27.631  38.220  11.153
50425W        W16834  10.750   1.914  14.972
50426W        W16835  17.245  37.398   3.641
50427W        W16836  26.525   6.285   0.491
50428W        W16837  23.953  22.487   3.574
50429W        W16838   2.561  18.643  13.602
50430W        W16839   4.623  42.071   4.593
50431W        W16840  28.009  19.987   0.731
50432W        W16841  18.669  42.217  14.902
50433W        W16842  13.545  16.632  13.086
50434W        W16843  26.016  40.011  14.493
50435W        W16844  41.837  26.468   4.141
50436W        W16845  43.358  41.583  12.505
50437W        W16846  11.343  14.508  11.677
50438W        W16847  19.012   9.154  10.937
50439W        W16848  22.102  16.670  12.187
50440W        W16849   2.396   1.787   1.154
50441W        W16850   8.670  41.300   2.710
50442W        W16851  20.990  24.941  12.922
50443W        W16852  43.520   9.100  14.511
50444W        W16853  44.052  35.498  12.088
50445W        W16854  15.396  37.730  12.181
50446W        W16855  42.909  29.859  14.780
50447W        W16856  41.236  44.271  13.483
50448W        W16857  29.534  35.054  14.275
50449W        W16858  33.609   8.248   2.775
50450W        W16859  25.430  17.622   4.147
50451W        W16860  13.835   0.192   2.386
50452W        W16861  14.581   0.860   2.467
50453W        W16862   9.184  20.417   1.959
50454W        W16863   6.155  26.125  12.001
50455W        W16864  31.570  39.097   0.284
50456W        W16865   1.010  33.020  14.255
50457W        W16866  34.095  10.687   1.206
50458W        W16867  15.311  15.285  10.555
50459W        W16868  40.061   1.661  12.073
50460W        W16869  20.578  10.083  13.121
50461W        W16870  30.810  17.742   4.537
50462W        W16871   3.277  19.236  13.851
50463W        W16872  39.419   8.598   4.911
50464W        W16873  22.005  39.780   0.182
50465W        W16874  38.949  32.950  13.051
50466W        W16875  15.702   9.031   1.261
50467W        W16876   1.970  39.059  12.533
50468W        W16877   2.641  30.519   2.336
50469W        W16878  15.562  35.890   0.794
50470W        W16879  42.861  36.303  14.426
50471W        W16880  10.309   1.946   0.895
50472W        W16881  12.493  40.091   4.492
50473W        W16882   9.500   0.445  12.533
50474W        W16883   7.708  32.838  13.659
50475W        W16884  20.159   0.709   3.600
50476W        W16885  13.743  19.586   4.536
50477W        W16886  42.988  43.994  14.679
50478W        W16887  31.659  16.669  13.478
50479W        W16888  42.422  21.483  12.536
50480W        W16889  18.575   1.468  11.604
50481W        W16890   6.351   2.907  14.937
50482W        W16891  28.641  17.643  11.940
50483W        W16892   9.443  17.966   3.575
50484W        W16893  39.891   4.417   3.733
50485W        W16894  24.078  25.677   0.439
50486W        W16895  41.749  28.097   0.343
50487W        W16896  20.542  24.476   1.399
50488W        W16897  16.875  16.370  14.858
50489W        W16898  34.666   8.468   1.939
50490W        W16899  32.063   8.933   4.732
50491W        W16900   0.130  13.580  12.880
50492W        W16901  29.979  23.862   1.153
50493W        W16902  20.404   4.859  11.869
50494W        W16903  33.812  31.370   2.371
50495W        W16904  41.183  17.916  11.098
50496W        W16905  31.389   5.600  12.984
50497W        W16906   3.866  23.751   0.399
50498W        W16907  21.318  22.130  10.934
50499W        W16908  19.727  41.074  12.111
50500W        W16909  20.520   3.349   4.571
50501W        W16910   6.832  17.231   4.688
50502W        W16911  41.729  11.292  11.735
50503W        W16912  33.416  12.613  11.169
50504W        W16913  43.469  13.796   4.395
50505W        W16914  19.503   9.768  14.934
50506W        W16915  23.406  21.728   9.724
50507W        W16916  22.721   9.212   3.595
50508W        W16917  19.625  23.346   3.580
50509W        W16918  39.422  14.767   1.268
50510W        W16919  18.157  43.400   3.983
50511W        W16920  11.802  39.797  13.383
50512W        W16921  22.700   5.707  13.045
50513W        W16922  38.899  16.618   4.785
50514W        W16923  13.840  16.574   3.595
50515W        W16924   7.469  43.446  13.331
50516W        W16925  17.752  33.468   4.369
50517W        W16926   8.281  23.808  11.190
50518W        W16927  22.235   9.352   3.795
50519W        W16928   3.235  44.332  14.308
50520W        W16929  14.613   3.245   3.111
50521W        W16930  23.746  13.779   1.409
50522W        W16931   7.816  33.872   3.589
50523W        W16932  15.432  20.657   1.311
50524W        W16933  28.389  37.613   4.016
50525W        W16934   0.486   7.796  14.616
50526W        W16935  28.562   5.975  12.927
50527W        W16936  31.801  22.747   4.532
50528W        W16937  34.082  26.612   5.065
50529W        W16938   4.968  15.626  11.200
50530W        W16939  22.224  33.840   2.317
50531W        W16940  44.293  10.278  14.386
50532W        W16941   1.205  17.526  11.170
50533W        W16942  14.678  23.167   2.089
50534W        W16943   7.355  35.333   1.518
50535W        W16944  41.762  35.470   1.720
50536W        W16945   4.178  27.593   2.257
50537W        W16946  44.320  44.690  13.452
50538W        W16947  18.779  33.542  12.482
50539W        W16948   5.569  21.842   0.085
50540W        W16949  10.432   0.626  12.496
50541W        W16950  32.295   8.958  13.856
50542W        W16951   9.171  22.667  13.482
50543W        W16952  44.697  33.946   2.697
50544W        W16953  32.886  38.649   0.061
50545W        W16954  43.437  43.801  14.474
50546W        W16955  38.494   0.924  12.889
50547W        W16956  14.745  40.070  12.114
50548W        W16957  10.738   7.177  12.587
50549W        W16958   5.295  19.196  11.624
50550W        W16959  18.201  21.991  12.843
50551W        W16960  33.781  17.987  12.966
50552W        W16961  39.313  31.912   1.836
50553W        W16962   2.402  38.370   4.318
50554W        W16963   6.579  27.215  12.855
50555W        W16964   0.801  19.751   1.013
50556W        W16965  35.079  44.389  11.809
50557W        W16966  31.208  19.818   0.520
50558W        W16967  18.327  36.430  12.531
50559W        W16968  13.859  15.356  11.396
50560W        W16969  22.612  12.305   3.148
50561W        W16970  22.502  31.436  11.157
50562W        W16971  21.501   7.777  13.107
50563W        W16972  15.126  22.823  12.091
50564W        W16973  12.271  27.681   3.324
50565W        W16974  20.132   8.114   4.606
50566W        W16975  19.803   1.655  11.751
50567W        W16976  28.135  30.945  11.677
50568W        W16977  38.627  43.933   4.114
50569W        W16978  32.905  40.068   0.253
50570W        W16979  37.492   1.481   2.296
50571W        W16980   2.019  25.008   0.754
50572W        W16981  34.341  29.175  11.122
50573W        W16982  12.763  33.687  11.928
50574W        W16983  44.007  30.598   4.221
50575W        W16984  39.079  24.014  10.733
50576W        W16985  36.624  30.859   1.261
50577W        W16986  27.182  43.099  13.163
50578W        W16987   0.454  24.969   4.671
50579W        W16988   5.212  25.260  14.822
50580W        W16989  20.697  44.599   4.744
50581W        W16990  15.262  36.761   3.189
50582W        W16991   1.771  13.799   2.636
50583W        W16992  44.841  33.041   1.898
50584W        W16993  41.055  28.039   2.269
50585W        W16994   6.788  28.196  11.779
50586W        W16995  23.879  43.739   0.275
50587W        W16996  39.852  22.959  10.736
50588W        W16997  13.174  43.636   0.450
50589W        W16998  16.086  30.335  11.460
50590W        W16999   4.304  14.762   1.249
50591W        W17000   1.819  33.195   3.838
50592W        W17001  18.121  18.979  14.690
50593W        W17002  23.053  25.876  14.265
50594W        W17003  43.687   3.244  12.464
50595W        W17004   5.628  33.130   0.208
50596W        W17005  26.030  22.653   3.182
50597W        W17006  36.574   7.708  11.121
50598W        W17007  33.404  14.128   3.544
50599W        W17008  24.199  44.236  10.739
50600W        W17009  16.871  38.317   3.887
50601W        W17010  41.295  42.987   4.594
50602W        W17011   3.194  40.352  13.510
50603W        W17012  38.043  16.776  13.501
50604W        W17013  41.421  30.987   0.451
50605W        W17014  24.451  31.216  14.970
50606W        W17015   6.312  15.347  11.613
50607W        W17016  18.684   0.896  13.399
50608W        W17017  32.495  42.429  13.581
50609W        W17018  44.283  35.153  13.495
50610W        W17019   0.261  27.073  11.406
50611W        W17020  32.878  14.719   3.705
50612W        W17021  28.627  21.734  11.646
50613W        W17022  17.513  15.308  11.666
50614W        W17023  18.676   7.343  12.029
50615W        W17024   8.007  12.755  10.001
50616W        W17025  12.675  35.853   4.076
50617W        W17026  12.142   3.854  11.258
50618W        W17027  32.793  28.350   1.721
50619W        W17028  33.744  29.038   2.223
50620W        W17029   6.255  16.599   4.238
50621W        W17030  40.874   6.557   0.666
50622W        W17031  21.043  18.057   9.568
50623W        W17032  11.303  44.893  10.077
50624W        W17033   5.154  28.572  12.114
50625W        W17034   9.507   6.666   4.177
50626W        W17035   2.962   5.196   2.583
50627W        W17036  30.410  34.115   1.860
50628W        W17037  21.935   3.287   0.370
50629W        W17038   5.731  17.612   3.562
50630W        W17039   9.873  34.110  13.545
50631W        W17040  24.495  35.880  12.076
50632W        W17041   1.764  13.144   3.430
50633W        W17042   5.365  10.601  12.393
50634W        W17043   9.113  25.879   1.788
50635W        W17044  35.093   9.318  14.947
50636W        W17045  26.284   1.451  13.507
50637W        W17046  35.540  24.770   3.058
50638W        W17047   1.039  36.862   2.261
50639W        W17048  10.846  34.141  12.899
50640W        W17049  14.133   9.934   3.278
50641W        W17050   1.963  32.417  12.701
50642W        W17051  39.479   3.323  14.394
50643W        W17052  11.785  14.484   4.897
50644W        W17053   3.354  30.455   1.813
50645W        W17054   7.374  18.772  12.073
50646W        W17055  25.951   5.208   3.438
50647W        W17056  40.738  38.458  12.810
50648W        W17057  32.875  15.485  11.166
50649W        W17058   6.413   0.129   1.318
50650W        W17059   5.865   1.408  11.237
50651W        W17060  19.615  33.181   3.228
50652W        W17061  17.275  25.772  11.892
50653W        W17062  18.952   0.941   2.249
50654W        W17063  11.306  31.165  11.953
50655W        W17064  42.269  43.492   0.286
50656W        W17065  28.666  41.440   0.821
50657W        W17066  30.673  15.783   2.403
50658W        W17067  41.382   1.567   2.130
50659W        W17068   9.686  24.817  11.136
50660W        W17069   2.191  38.844  12.069
50661W        W17070  30.480   7.899   3.265
50662W        W17071  23.734  32.477  13.529
50663W        W17072  42.246   7.134  10.283
50664W        W17073  36.809   3.195  10.810
50665W        W17074  12.626  26.023   2.748
50666W        W17075  38.515  38.335   4.158
50667W        W17076  39.579  27.514  10.716
50668W        W17077  10.934  31.795   5.483
50669W        W17078  11.107   3.890  11.610
50670W        W17079  30.926  24.140   3.714
50671W        W17080  20.617  12.673  10.304
50672W        W17081  36.148  30.662   1.157
50673W        W17082  27.650   3.912   4.119
50674W        W17083  23.957   6.268   0.377
50675W        W17084   8.932  25.640  11.711
50676W        W17085  21.038  19.121  12.552
50677W        W17086   7.806  20.523  13.792
50678W        W17087  27.660  33.957  12.895
50679W        W17088  41.001   5.857   4.856
50680W        W17089  34.109  29.684  10.649
50681W        W17090  27.119  20.737   1.407
50682W        W17091  14.732  42.538   1.378
50683W        W17092  26.092  23.194  12.516
50684W        W17093  34.975  12.144   1.801
50685W        W17094  20.295   3.948  13.945
50686W        W17095  16.605   4.994   1.337
50687W        W17096  25.553  21.703   1.194
50688W        W17097  34.176  27.414   3.785
50689W        W17098   5.935  15.751   2.362
50690W        W17099  35.443  13.570   4.075
50691W        W17100  43.441   4.195   0.902
50692W        W17101  38.463  13.054  11.925
50693W        W17102  13.743  21.708   0.223
50694W        W17103  37.011  26.192   3.337
50695W        W17104  32.372  11.654   4.349
50696W        W17105   3.838  22.119   0.191
50697W        W17106  12.337   8.913   4.033
50698W        W17107  21.369  44.909  11.377
50699W        W17108  32.050  34.660   0.012
50700W        W17109  30.633   1.293   0.886
50701W        W17110  26.379  13.892   3.071
50702W        W17111  12.042  43.609  14.955
50703W        W17112  21.714   3.332  13.449
50704W        W17113  34.596  20.983  13.861
50705W        W17114  30.793  26.972   3.263
50706W        W17115  30.993  35.027  11.545
50707W        W17116   1.699  25.085  12.372
50708W        W17117  15.459  34.046  14.268
50709W        W17118  31.932   7.479   4.528
50710W        W17119  42.346  31.019  13.023
50711W        W17120  27.604  30.841   4.776
50712W        W17121   3.825  28.219   3.761
50713W        W17122  38.794  37.536   2.515
50714W        W17123  32.632  42.224  10.590
50715W        W17124  22.054  31.765   5.002
50716W        W17125  35.928  44.734   1.913
50717W        W17126   7.641  14.033  12.567
50718W        W17127  39.644   6.910  11.502
50719W        W17128  38.305   4.209  11.052
50720W        W17129  12.295  40.957   3.960
50721W        W17130  37.929  44.976   4.922
50722W        W17131  26.047  19.600  11.554
50723W        W17132  44.834  39.013   2.240
50724W        W17133   9.963  35.039  11.047
50725W        W17134  32.972  14.507   2.379
50726W        W17135  35.833  13.833  12.094
50727W        W17136  17.607  14.777   4.690
50728W        W17137  17.252  27.262   4.662
50729W        W17138  20.541  23.451   1.343
50730W        W17139  40.597  20.829  12.485
50731W        W17140  26.448  10.085  10.734
50732W        W17141   1.917  15.161  11.957
50733W        W17142  34.813  43.764  10.710
50734W        W17143   6.125  43.903  13.830
50735W        W17144   6.854  29.111   0.290
50736W        W17145  37.854  12.074   0.314
50737W        W17146   9.142  10.843  13.017
50738W        W17147   9.094   4.210   4.106
50739W        W17148   7.919  15.542  10.935
50740W        W17149  28.433   5.268   3.048
50741W        W17150  25.167  38.326   3.619
50742W        W17151  27.996  22.842   5.323
50743W        W17152  24.279   9.353  12.079
50744W        W17153  33.234   1.240  14.344
50745W        W17154  17.107   1.346   0.186
50746W        W17155  38.098  38.683   4.260
50747W        W17156  26.181  19.142   3.768
50748W        W17157   4.394  34.505  14.067
50749W        W17158   5.591  28.521   2.674
50750W        W17159  43.990  32.395  14.044
50751W        W17160  30.313  36.668   1.785
50752W        W17161  28.491  37.456   0.384
50753W        W17162  34.504   3.430  14.887
50754W        W17163  44.268  26.192   1.064
50755W        W17164   4.457  14.611   2.671
50756W        W17165   2.149  29.146  14.606
50757W        W17166  37.864  31.404  10.759
50758W        W17167  39.392  26.014   3.460
50759W        W17168  19.327  22.549  11.675
50760W        W17169   0.542   4.188   4.387
50761W        W17170  22.489  23.976  10.602
50762W        W17171  24.963   9.164   1.744
50763W        W17172   4.010  15.230   4.237
50764W        W17173  43.340   8.673   2.460
50765W        W17174  28.519  30.475   3.758
50766W        W17175  32.862  17.450  12.809
50767W        W17176  41.985  15.835  11.596
50768W        W17177   1.712  34.914  14.865
50769W        W17178  36.645  35.017   9.839
50770W        W17179   6.281  32.729   4.939
50771W        W17180  43.823  12.619   4.156
50772W        W17181   4.202   8.700   1.724
50773W        W17182  31.034  28.907  13.940
50774W        W17183  12.224  36.387   0.813
50775W        W17184   7.647   6.859   3.689
50776W        W17185  37.565  30.364  14.495
50777W        W17186  25.621  20.536   1.844
50778W        W17187   6.852  18.224  13.456
50779W        W17188  19.014  35.120   3.821
50780W        W17189  39.148  26.270  11.159
50781W        W17190  20.172  16.577   3.205
50782W        W17191  22.749   9.903  12.529
50783W        W17192  38.831   6.283   3.558
50784W        W17193  43.823  21.585  13.454
50785W        W17194   9.753  18.677   1.013
50786W        W17195  26.281  39.842   2.978
50787W        W17196  32.616  30.854  13.924
50788W        W17197   5.060   9.974   4.206
50789W        W17198   7.613   5.007  11.613
50790W        W17199   5.627   2.836   2.365
50791W        W17200  37.851  16.382   0.704
50792W        W17201   6.900  14.739   0.374
50793W        W17202   9.433  42.840  13.830
50794W        W17203  15.752  31.713   1.360
50795W        W17204  23.788  44.903  13.123
50796W        W17205  33.895  42.830   1.026
50797W        W17206  37.103  29.404   2.366
50798W        W17207  10.629   9.128   4.865
50799W        W17208   0.504  21.742  13.867
50800W        W17209  35.604  16.561  11.154
50801W        W17210  44.853   5.813   0.664
50802W        W17211  31.800   0.477   2.923
50803W        W17212   1.531  11.170  12.391
50804W        W17213  31.995   2.513   1.579
50805W        W17214  43.084   7.318   1.111
50806W        W17215  29.604  16.094  13.526
50807W        W17216  37.049  29.883  10.474
50808W        W17217  30.616  13.567   1.752
50809W        W17218   1.778  27.149   3.672
50810W        W17219  19.144  35.655  11.085
50811W        W17220  11.125  33.909  14.333
50812W        W17221  24.505  42.406   1.365
50813W        W17222  27.716  22.298   1.717
50814W        W17223   8.546  25.077  13.835
50815W        W17224  44.713  31.374  14.351
50816W        W17225  28.149  12.283  10.272
50817W        W17226  36.570  24.018  13.477
50818W        W17227   9.791   9.954   2.162
50819W        W17228  18.042  14.852  11.597
50820W        W17229  28.151   9.352   1.867
50821W        W17230   1.209  35.063  14.814
50822W        W17231  41.785  42.395   1.959
50823W        W17232   0.436  14.067   1.747
50824W        W17233  12.295  12.619  11.117
50825W        W17234  17.547   3.950  11.632
50826W        W17235  40.674  28.055   0.264
50827W        W17236  34.438  34.961   1.287
50828W        W17237   4.742  15.600  11.655
50829W        W17238  24.723  33.553  13.700
50830W        W17239  12.200   5.164  14.373
50831W        W17240  18.972  40.071  13.952
50832W        W17241  28.124  17.861   1.347
50833W        W17242   7.911  30.362   1.901
50834W        W17243  12.203  14.273   2.224
50835W        W17244  38.463  26.571  13.329
50836W        W17245  23.262  13.217   3.641
50837W        W17246  15.724  22.857  14.742
50838W        W17247  27.878  22.614   0.950
50839W        W17248   4.235  33.601   1.898
50840W        W17249  26.454  12.924   4.013
50841W        W17250  29.559  26.849   0.110
50842W        W17251  35.540   8.318   1.067
50843W        W17252  28.145   3.447  12.851
50844W        W17253  33.967   6.315  13.804
50845W        W17254  13.888  39.423  14.016
50846W        W17255  29.520  14.698   0.044
50847W        W17256  39.387   1.727   3.684
50848W        W17257  26.275  21.225  13.908
50849W        W17258  38.897  29.526  13.778
50850W        W17259  35.529   4.717   2.924
50851W        W17260   2.887  13.283  14.318
50852W        W17261   5.808   4.947   1.309
50853W        W17262  25.023  36.637   2.344
50854W        W17263   0.420   7.311   3.816
50855W        W17264  34.031  26.947   0.944
50856W        W17265  11.222  33.941   1.885
50857W        W17266  12.702  12.347  12.195
50858W        W17267  43.385  30.645   4.797
50859W        W17268  15.093  28.553  13.883
50860W        W17269  33.975  12.620   1.918
50861W        W17270  44.829  41.008  12.162
50862W        W17271  13.149  17.297   1.010
50863W        W17272  39.819  42.907   1.748
50864W        W17273  14.847  42.347  13.295
50865W        W17274  43.451  39.057   1.735
50866W        W17275  33.427  36.822  13.566
50867W        W17276  43.749   3.321   0.234
50868W        W17277  44.515  43.948  10.683
50869W        W17278  18.660   5.838  11.149
50870W        W17279  41.380  30.117  12.548
50871W        W17280  23.286  25.277  12.878
50872W        W17281   7.670  18.114   4.990
50873W        W17282   8.327   3.918  10.498
50874W        W17283   5.196  14.635   1.937
50875W        W17284   1.946  21.340   1.745
50876W        W17285  14.386  39.381  11.577
50877W        W17286  32.858  41.618  11.766
50878W        W17287  42.290  11.821  12.420
50879W        W17288   9.126  38.351   4.100
50880W        W17289   2.419  39.976   2.629
50881W        W17290  41.256  12.684   3.448
50882W        W17291   6.890  32.167   9.509
50883W        W17292  18.475   8.560   0.735
50884W        W17293  39.828  38.864   1.883
50885W        W17294  13.618  16.635  13.595
50886W        W17295   3.288  32.324  10.356
50887W        W17296  12.839  27.498  11.110
50888W        W17297  26.933   3.696  11.184
50889W        W17298  19.704  44.485  14.244
50890W        W17299  20.285  29.133   3.663
50891W        W17300  16.724  44.535   2.323
50892W        W17301   7.892  30.494  14.969
50893W        W17302   1.290  19.937   0.891
50894W        W17303  30.705  30.645   2.283
50895W        W17304   9.052  41.335  11.637
50896W        W17305  24.528  21.098   0.821
50897W        W17306  13.178   0.971   0.437
50898W        W17307   3.334  29.483   0.882
50899W        W17308  19.072   0.593   1.015
50900W        W17309  39.085  30.821   3.239
50901W        W17310   4.775   0.985  13.049
50902W        W17311  17.710  20.390   5.022
50903W        W17312  22.982  32.872   3.256
50904W        W17313  18.337  36.102   2.764
50905W        W17314  41.297  15.994   1.192
50906W        W17315  25.790  30.004   3.219
50907W        W17316  44.454  12.465  11.169
50908W        W17317  20.944   0.352   0.229
50909W        W17318  44.774  17.860   4.594
50910W        W17319  13.276  38.775  12.496
50911W        W17320  24.437  17.264   1.882
50912W        W17321  17.731   2.434   3.351
50913W        W17322   5.757  34.731  12.848
50914W        W17323   8.953  39.828  13.071
50915W        W17324  10.314  39.133  14.026
50916W        W17325  32.420  37.147   4.158
50917W        W17326  34.106  12.106   1.876
50918W        W17327   5.475  38.887   1.285
50919W        W17328  31.820  14.451   5.191
50920W        W17329  10.860  13.319   2.995
50921W        W17330  12.736  11.972   1.712
50922W        W17331  27.348  36.356   3.951
50923W        W17332  13.745  24.149   2.410
50924W        W17333  30.376   2.389  14.858
50925W        W17334  19.106  15.048  14.025
50926W        W17335   2.456  19.021   4.187
50927W        W17336  11.442  13.135   0.441
50928W        W17337  13.579  15.338  12.588
50929W        W17338  15.626  32.678   0.761
50930W        W17339   0.501  41.495  11.084
50931W        W17340   3.175  36.972   1.865
50932W        W17341  39.584  29.641   4.200
50933W        W17342  29.957   3.809  13.233
50934W        W17343  20.750  23.910   2.269
50935W        W17344   9.612  18.786  12.577
50936W        W17345  31.664  26.660   4.009
50937W        W17346  40.890  23.006   2.937
50938W        W17347  29.610   6.848   3.200
50939W        W17348  15.638  35.040  12.981
50940W        W17349   1.756   8.871  14.785
50941W        W17350  26.475  33.362  13.313
50942W        W17351  18.234  26.611   2.680
50943W        W17352   9.733  33.426   3.535
50944W        W17353  17.818  21.912  10.234
50945W        W17354  43.436  40.592  13.748
50946W        W17355   9.172  23.682  10.393
50947W        W17356   9.128   3.963   3.633
50948W        W17357  35.433  43.844   1.743
50949W        W17358   3.272  38.806   3.521
50950W        W17359   0.680   9.853   2.267
50951W        W17360   4.404  41.544   2.765
50952W        W17361   0.197  21.448   3.254
50953W        W17362  21.079   1.632   2.808
50954W        W17363  41.591  21.864   3.045
50955W        W17364   8.331  35.260  14.300
50956W        W17365   6.634   8.831  13.619
50957W        W17366  11.267  41.492  13.073
50958W        W17367  12.615  39.869  12.947
50959W        W17368  33.961  41.409   2.226
50960W        W17369  25.400  30.095   1.461
50961W        W17370  25.340   7.796   2.294
50962W        W17371  10.818  42.851   2.765
50963W        W17372   2.105  38.837  11.150
50964W        W17373   8.294  43.423  13.112
50965W        W17374  36.232  10.676   2.317
50966W        W17375  13.157  14.099   0.301
50967W        W17376  42.771  38.359  12.539
50968W        W17377  25.595   3.374  13.126
50969W        W17378   1.967  37.957   0.869
50970W        W17379  41.966  22.720  13.900
50971W        W17380  39.028  25.426   4.939
50972W        W17381  25.735   1.345   3.625
50973W        W17382   5.254  39.129  11.391
50974W        W17383  19.696   9.951  13.427
50975W        W17384   4.103  15.595   0.816
50976W        W17385  11.795  16.684  11.543
50977W        W17386   0.738  33.821   1.355
50978W        W17387   5.761  30.500   1.351
50979W        W17388   4.221  26.068  11.310
50980W        W17389  14.501  42.758  10.521
50981W        W17390  39.452  42.068  13.508
50982W        W17391  39.805  22.016  12.437
50983W        W17392  10.421  35.955  13.581
50984W        W17393   6.135  33.412   1.909
50985W        W17394  31.066  15.698  13.941
50986W        W17395  41.453  16.285  14.914
50987W        W17396   6.761  23.774  13.270
50988W        W17397  34.802  10.283   3.298
50989W        W17398  42.273  23.022  10.665
50990W        W17399  42.549  31.087  12.116
50991W        W17400  26.201  23.286  13.426
50992W        W17401  27.958  34.709  13.395
50993W        W17402  25.170  42.913  11.328
50994W        W17403   2.358  16.083   0.376
50995W        W17404   8.752   5.189  11.042
50996W        W17405  14.865  20.989  12.458
50997W        W17406  33.533   8.379  14.001
50998W        W17407  28.977   1.439  12.945
50999W        W17408  26.487  12.540   4.931
51000W        W17409   8.920  20.695   1.185
51001W        W17410  10.597  23.504  14.930
51002W        W17411  38.481   9.619  12.102
51003W        W17412  43.761  19.733   1.770
51004W        W17413   5.999   9.696  14.462
51005W        W17414  28.755  42.074   0.559
51006W        W17415   9.966  22.531  11.638
51007W        W17416  35.331  30.136  11.061
51008W        W17417  11.909   2.740   4.445
51009W        W17418   9.455  31.793   9.910
51010W        W17419   3.741   1.260   1.329
51011W        W17420   2.190  34.106  12.513
51012W        W17421  44.746   8.357  13.904
51013W        W17422   8.632  42.897   3.250
51014W        W17423  37.056  26.194   1.814
51015W        W17424   3.755  12.843   3.960
51016W        W17425   7.143  15.657   2.007
51017W        W17426  14.541  35.854   0.975
51018W        W17427   6.619  19.117   0.205
51019W        W17428  25.478  15.988  11.226
51020W        W17429  44.209  32.121  11.810
51021W        W17430  40.532  38.997   5.225
51022W        W17431  13.911  25.829   2.888
51023W        W17432  42.987  21.145  13.354
51024W        W17433  44.833  13.867  14.254
51025W        W17434   0.909  42.231   4.888
51026W        W17435  15.386  37.852  13.053
51027W        W17436  28.573  21.781  14.538
51028W        W17437  15.114  33.489  13.495
51029W        W17438   5.534   4.499  12.974
51030W        W17439   7.180  27.024   1.184
51031W        W17440  17.558   9.286  13.196
51032W        W17441  12.763   2.697  13.072
51033W        W17442  43.058  18.309   2.407
51034W        W17443  13.405  28.119   2.698
51035W        W17444  43.288  27.610   4.752
51036W        W17445  40.780  11.418   2.007
51037W        W17446  39.733  13.522  13.810
51038W        W17447  12.883  30.914  11.619
51039W        W17448  11.180  11.870  10.461
51040W        W17449  35.925  30.426   3.058
51041W        W17450  27.459  19.588   3.602
51042W        W17451   9.342  42.996   4.369
51043W        W17452  10.321  33.604   9.829
51044W        W17453   3.781  43.849   3.660
51045W        W17454  42.817  15.894   2.159
51046W        W17455  16.262  29.497   4.078
51047W        W17456  43.471  32.620  13.970
51048W        W17457   1.472  22.055  11.276
51049W        W17458  25.593  43.058  10.621
51050W        W17459  11.697   0.618  13.779
51051W        W17460  33.576   2.675   1.450
51052W        W17461  29.828  29.188  14.422
51053W        W17462  28.038  20.909   4.128
51054W        W17463  40.878  21.619   4.620
51055W        W17464   4.244  38.375   4.049
51056W        W17465  34.124  35.523  13.608
51057W        W17466  27.615  41.530   1.101
51058W        W17467  23.056  20.113  12.656
51059W        W17468   7.043  18.832  11.671
51060W        W17469  23.412  19.522  11.513
51061W        W17470   3.900  27.845   0.481
51062W        W17471   2.858  28.257  13.373
51063W        W17472  14.883  35.107  11.181
51064W        W17473  31.171  25.080   3.284
51065W        W17474   8.879  30.533  11.488
51066W        W17475   2.929  18.597  11.639
51067W        W17476  25.641   7.932   1.865
51068W        W17477  29.180  40.013   1.891
51069W        W17478  19.272  32.485  13.138
51070W        W17479  21.346  39.109   5.037
51071W        W17480  29.490   6.297  11.706
51072W        W17481  31.950  40.992   0.285
51073W        W17482  30.129  40.489  12.089
51074W        W17483  41.585   4.232   2.763
51075W        W17484  27.460  33.999   3.408
51076W        W17485   7.548  21.304  13.789
51077W        W17486   2.668   4.179  13.760
51078W        W17487  33.626  21.226  14.673
51079W        W17488   2.727  19.973   4.120
51080W        W17489  24.390  15.657  11.043
51081W        W17490  18.554  10.979   3.255
51082W        W17491   8.772   8.168  11.149
51083W        W17492  25.001  40.855  14.102
51084W        W17493  28.040  11.376  11.946
51085W        W17494  39.283  29.908   2.483
51086W        W17495  20.925  38.416   1.160
51087W        W17496  16.798   6.502  13.890
51088W        W17497  28.284  12.481   9.799
51089W        W17498  17.843  24.688   0.062
51090W        W17499  29.152  32.600  12.000
51091W        W17500  23.860  17.142   3.702
51092W        W17501  28.290  19.546   4.233
51093W        W17502  41.736  24.018  10.309
51094W        W17503   8.267  11.681  13.944
51095W        W17504   8.483  28.246   0.818
51096W        W17505   7.132  26.427  12.024
51097W        W17506  13.414   2.198   1.242
51098W        W17507   3.874  43.945  10.364
51099W        W17508  26.693  23.063  13.386
51100W        W17509  14.591   3.579   2.708
51101W        W17510  28.756  30.396   4.204
51102W        W17511   5.451  43.392  11.174
51103W        W17512  42.866   7.338  14.567
51104W        W17513  24.474  33.134   3.340
51105W        W17514  41.885  38.768   0.503
51106W        W17515   7.821   3.922   1.032
51107W        W17516   8.325  15.310  10.653
51108W        W17517  35.898  23.772  11.694
51109W        W17518  43.623  32.894  14.392
51110W        W17519   4.749  37.228  10.309
51111W        W17520   1.795  37.897   3.312
51112W        W17521  12.026   0.061  10.176
51113W        W17522  37.096  27.058   3.140
51114W        W17523  14.594   5.230  14.833
51115W        W17524  22.500   0.716   3.879
51116W        W17525   7.485  32.973   0.022
51117W        W17526  30.410   5.881   3.654
51118W        W17527   5.349  21.384   0.211
51119W        W17528  10.760  42.325  12.944
51120W        W17529   6.185  12.916   1.317
51121W        W17530  21.611  30.597   3.384
51122W        W17531   2.397  35.581  12.181
51123W        W17532  41.049  36.837  11.631
51124W        W17533   5.897  27.158  10.769
51125W        W17534  24.645   3.434   2.042
51126W        W17535   2.908   6.781   3.956
51127W        W17536   2.774  36.744  14.757
51128W        W17537  26.023  35.013  12.102
51129W        W17538   6.415  19.796  14.960
51130W        W17539   9.404  25.725   4.194
51131W        W17540  36.983   4.733   4.100
51132W        W17541  31.440  24.186   3.815
51133W        W17542   2.355  42.021   3.813
51134W        W17543   3.795   2.837   3.071
51135W        W17544  44.480  29.925   1.450
51136W        W17545  12.304  25.000  10.641
51137W        W17546  28.988  39.085  14.804
51138W        W17547  36.770  12.833  14.860
51139W        W17548  20.661  12.266   1.732
51140W        W17549  17.258  34.558   2.751
51141W        W17550  40.474  12.804  13.947
51142W        W17551  20.484  32.087  11.229
51143W        W17552  38.272  22.615   0.599
51144W        W17553   6.267   3.653  13.798
51145W        W17554  38.148  11.217   0.586
51146W        W17555  33.903  27.391  11.630
51147W        W17556  13.252  38.221   2.125
51148W        W17557   0.675  31.892   4.646
51149W        W17558  13.523  25.334   5.118
51150W        W17559  23.158   7.804  11.575
51151W        W17560   5.720   4.853  11.158
51152W        W17561  39.471  40.294  13.602
51153W        W17562   4.570   8.237   1.814
51154W        W17563  35.085  26.202   3.503
51155W        W17564  37.040  28.193  11.462
51156W        W17565  44.441  39.023   3.091
51157W        W17566  11.755  20.238   4.554
51158W        W17567  41.122  11.244   0.260
51159W        W17568  23.114  29.683  11.757
51160W        W17569   8.908   4.485   2.607
51161W        W17570   7.353   9.206   4.216
51162W        W17571   1.197  24.620   3.892
51163W        W17572  25.553   4.058  11.873
51164W        W17573  35.295  21.534  13.928
51165W        W17574   4.710  27.634  14.333
51166W        W17575  35.931   8.957  12.878
51167W        W17576   4.848  11.608  11.942
51168W        W17577   7.762  14.551  12.448
51169W        W17578   2.061  34.392   0.474
51170W        W17579   4.272  29.706   2.573
51171W        W17580  39.411  23.817   0.496
51172W        W17581   9.201  41.598   0.796
51173W        W17582  43.102  32.453   3.752
51174W        W17583  39.023  43.760   1.016
51175W        W17584   3.348  40.031   2.888
51176W        W17585  37.900  17.600   2.510
51177W        W17586  21.292  25.416   3.773
51178W        W17587  32.807  15.868   4.297
51179W        W17588   9.868  29.522   0.081
51180W        W17589  36.648  33.995   0.983
51181W        W17590  18.497  44.515  13.237
51182W        W17591  41.809  31.654   3.749
51183W        W17592  22.623  33.189   1.203
51184W        W17593  24.995  35.911   2.853
51185W        W17594  18.319  37.980  13.860
51186W        W17595  23.642  24.185   4.143
51187W        W17596  41.988  28.397   1.770
51188W        W17597  13.575  26.942   4.744
51189W        W17598  42.278  39.372  12.146
51190W        W17599  43.040  25.398   0.360
51191W        W17600   1.767  15.289   1.574
51192W        W17601   4.665  25.382   4.987
51193W        W17602  23.523  28.132  13.428
51194W        W17603   0.482  43.723   0.838
51195W        W17604   3.362  34.387  14.286
51196W        W17605  24.437  44.436  14.297
51197W        W17606  33.448   6.414  12.087
51198W        W17607  18.625   3.206   4.169
51199W        W17608  29.477   0.539   4.545
51200W        W17609  17.308  22.798  11.443
51201W        W17610   8.022  14.146   4.763
51202W        W17611  21.545   9.907  10.723
51203W        W17612  31.688  38.481  13.131
51204W        W17613   1.640  13.680  13.142
51205W        W17614  39.317  25.813   2.251
51206W        W17615  14.128   7.268  13.756
51207W        W17616  35.518   1.182  14.230
51208W        W17617  14.800  15.075   2.807
51209W        W17618  32.506   7.284   0.015
51210W        W17619  13.122  16.614  14.509
51211W        W17620  33.598  31.627  14.907
51212W        W17621  15.731  24.924  12.494
51213W        W17622  21.093  10.779  12.069
51214W        W17623  18.648  23.654   4.071
51215W        W17624   9.709  21.522   1.901
51216W        W17625  30.679  12.515   0.901
51217W        W17626   5.654  13.219  10.732
51218W        W17627  22.054  34.161   3.222
51219W        W17628  27.778  39.702  12.556
51220W        W17629  40.101   9.329   1.338
51221W        W17630  34.989  34.374   2.683
51222W        W17631  15.050  20.533   0.269
51223W        W17632   0.278   0.292   0.918
51224W        W17633  42.198  18.153   4.640
51225W        W17634  33.158  32.242   0.656
51226W        W17635  39.006  19.690   2.174
51227W        W17636  16.501  35.400  13.927
51228W        W17637  44.445   3.491  12.830
51229W        W17638  24.476  30.443   1.713
51230W        W17639  21.106  33.420  14.707
51231W        W17640   0.408  11.112  10.477
51232W        W17641  31.842  28.872  13.426
51233W        W17642  33.186  31.963  12.060
51234W        W17643  26.098  20.692   4.085
51235W        W17644  41.875  41.375  14.054
51236W        W17645   0.529  36.925   2.231
51237W        W17646  26.121  17.723  14.997
51238W        W17647  40.356  21.749  12.833
51239W        W17648  42.436  26.020  12.551
51240W        W17649   2.846  11.814   0.733
51241W        W17650  13.218   3.513  11.071
51242W        W17651  14.241  35.879   1.415
51243W        W17652  34.081  32.497   0.817
51244W        W17653  39.227   2.952   0.380
51245W        W17654  25.831  25.682   3.664
51246W        W17655  16.125  17.353  10.624
51247W        W17656  24.743  31.679   1.040
51248W        W17657  44.681  23.594  10.387
51249W        W17658  40.621  37.555  11.508
51250W        W17659  11.824  14.361  14.055
51251W        W17660  32.690  23.079  13.073
51252W        W17661  24.265  43.492  14.296
51253W        W17662  23.966  14.871  11.162
51254W        W17663  10.792  44.468  13.076
51255W        W17664  43.856  42.569   1.172
51256W        W17665  18.848  22.690  14.777
51257W        W17666  39.032  11.257   1.332
51258W        W17667  44.746  25.090   0.513
51259W        W17668  43.017  25.032   3.994
51260W        W17669  28.073  16.353   2.600
51261W        W17670  42.736  38.488  14.596
51262W        W17671  16.358  14.000   2.707
51263W        W17672  12.171   9.810   1.198
51264W        W17673   3.283   7.817   2.867
51265W        W17674  18.609  15.020  14.246
51266W        W17675  10.701   7.505   3.935
51267W        W17676  22.722   1.969   0.489
51268W        W17677  24.610  11.682  10.384
51269W        W17678  20.903  41.847   0.324
51270W        W17679  24.252  28.079   3.646
51271W        W17680  22.488   4.937  13.300
51272W        W17681   7.251   0.915   3.111
51273W        W17682   4.824   4.906  14.088
51274W        W17683  36.377  44.068   0.703
51275W        W17684   1.878  18.569  13.776
51276W        W17685  36.501   4.383   2.975
51277W        W17686  18.395   6.639  10.839
51278W        W17687  23.421  22.505  11.698
51279W        W17688   5.860  15.073  11.585
51280W        W17689  12.367  27.420  14.776
51281W        W17690  27.522  34.423   1.644
51282W        W17691  38.691   4.217  12.584
51283W        W17692  33.363  14.824   3.857
51284W        W17693   7.470   1.699   2.127
51285W        W17694  44.282   4.455  10.705
51286W        W17695   1.776  22.934   3.751
51287W        W17696   0.789  12.973   4.130
51288W        W17697  36.014   6.459  10.227
51289W        W17698  30.055  40.106   4.965
51290W        W17699  18.534  18.921  11.605
51291W        W17700  41.506   2.286   4.386
51292W        W17701  16.210  18.387   2.633
51293W        W17702   3.463  26.256   1.278
51294W        W17703  13.559  22.148   0.932
51295W        W17704  44.819  16.066   2.812
51296W        W17705  16.510  21.555   1.666
51297W        W17706  18.632  38.981  13.421
51298W        W17707  36.878  18.169  13.973
51299W        W17708  22.830  30.460   2.768
51300W        W17709  29.532  31.947  13.389
51301W        W17710   3.438  10.233   3.532
51302W        W17711  31.681  13.812  12.110
51303W        W17712  42.478   8.493   9.952
51304W        W17713  26.350  10.948  10.986
51305W        W17714  16.810  41.997   1.801
51306W        W17715  41.560   8.080   2.131
51307W        W17716  26.741   7.443  12.037
51308W        W17717  15.904   7.767  10.800
51309W        W17718  24.960  41.336   1.274
51310W        W17719  43.449   4.952   2.731
51311W        W17720  16.215  14.201   2.243
51312W        W17721  32.008  11.674  12.461
51313W        W17722  10.730  25.149  12.154
51314W        W17723   3.053  18.304  13.954
51315W        W17724  29.168  29.393   2.931
51316W        W17725  32.623  38.798  11.077
51317W        W17726  14.793  18.257  10.987
51318W        W17727  31.388   7.902  14.511
51319W        W17728  41.558  11.372   3.050
51320W        W17729  32.366   4.788   1.438
51321W        W17730   9.618   4.867  10.570
51322W        W17731  19.550  14.274   4.175
51323W        W17732  29.432  12.841   4.623
51324W        W17733  14.350  38.567   2.609
51325W        W17734  17.563  39.282   3.185
51326W        W17735  24.394   3.080   9.899
51327W        W17736  11.865   0.367   3.803
51328W        W17737  14.143  36.589   3.226
51329W        W17738  27.456  43.661   0.670
51330W        W17739  36.059  38.924   2.409
51331W        W17740  22.078  10.853  13.048
51332W        W17741   9.402  31.140   2.176
51333W        W17742  24.469  29.899  13.880
51334W        W17743  43.229  14.638   0.762
51335W        W17744  27.119  36.307   1.296
51336W        W17745  27.622  39.572   1.341
51337W        W17746   8.089  33.294  12.346
51338W        W17747  13.507  32.478  12.888
51339W        W17748  44.533   8.586   4.974
51340W        W17749  44.696   1.491  12.139
51341W        W17750  39.946  22.290  13.398
51342W        W17751  30.875   3.778   0.430
51343W        W17752   0.495  14.663  13.793
51344W        W17753  14.818   2.150  14.534
51345W        W17754  18.475  38.064   2.251
51346W        W17755  41.773  10.867  11.423
51347W        W17756   3.781  12.563  12.351
51348W        W17757   1.268   8.865  11.132
51349W        W17758   0.185  43.311  13.517
51350W        W17759   6.078  22.506  13.979
51351W        W17760   1.033   5.195   2.372
51352W        W17761   5.143  40.058   0.060
51353W        W17762   9.437  39.366   1.324
51354W        W17763  43.728  10.529  14.432
51355W        W17764  37.380   5.452  13.879
51356W        W17765  12.563  19.786   1.787
51357W        W17766  11.554  12.881   1.864
51358W        W17767  33.800  38.621  14.852
51359W        W17768  16.432   4.965  12.518
51360W        W17769  34.982  11.655   0.477
51361W        W17770  21.243  25.957   4.488
51362W        W17771  14.053   9.694  13.879
51363W        W17772  23.572   9.394   3.332
51364W        W17773  27.652  29.058   4.114
51365W        W17774  12.819  15.072   4.802
51366W        W17775  43.671  14.129  14.821
51367W        W17776   0.113  38.434   4.005
51368W        W17777   8.728  24.002  11.012
51369W        W17778  37.333  12.777  14.954
51370W        W17779  31.939  30.978   5.073
51371W        W17780  11.255  31.692  13.924
51372W        W17781   2.647   4.735  12.770
51373W        W17782  11.693  19.153  11.971
51374W        W17783  33.354  37.864  12.140
51375W        W17784  10.229   4.956   2.629
51376W        W17785  21.495  15.143   3.781
51377W        W17786  35.916  32.536  12.957
51378W        W17787   5.677  39.810   0.347
51379W        W17788  28.417  13.799   5.065
51380W        W17789  43.400  25.772  10.892
51381W        W17790  35.556  40.282  10.707
51382W        W17791  40.279  14.204   2.318
51383W        W17792  18.095  15.308  12.519
51384W        W17793  22.751  37.424  10.203
51385W        W17794  32.552  44.136   2.728
51386W        W17795  15.921   5.469   1.239
51387W        W17796   2.996   0.888  12.119
51388W        W17797  40.224  39.840  12.612
51389W        W17798   4.180  43.019   1.230
51390W        W17799  27.386  24.574   0.329
51391W        W17800   0.787  14.476   1.733
51392W        W17801  32.704  35.602  11.595
51393W        W17802  17.286  17.816  12.112
51394W        W17803   2.367  40.784   1.751
51395W        W17804  22.356  33.972   4.545
51396W        W17805  29.027   3.147  13.622
51397W        W17806  23.529   4.305   4.754
51398W        W17807   7.461  28.611  11.636
51399W        W17808   1.531  11.480  11.054
51400W        W17809  40.027  35.660  11.582
51401W        W17810  37.464  23.038   0.459
51402W        W17811   8.928  21.970  11.095
51403W        W17812  26.338  44.248   0.989
51404W        W17813  37.882  41.469   2.203
51405W        W17814  15.756   6.083  14.496
51406W        W17815   8.212  37.547  13.293
51407W        W17816  26.659  35.470   2.964
51408W        W17817  24.500  35.917  14.691
51409W        W17818  28.992  11.138  12.921
51410W        W17819   5.321  17.944  13.862
51411W        W17820  12.438  40.860  12.051
51412W        W17821  11.259  38.539  10.818
51413W        W17822  44.762  27.955  13.935
51414W        W17823  20.018  31.323  10.160
51415W        W17824   0.298  44.309   1.677
51416W        W17825  17.023   5.188  14.396
51417W        W17826   8.367   7.139   0.676
51418W        W17827  29.595  14.412   1.507
51419W        W17828  27.162  24.746  11.178
51420W        W17829   9.911  42.460   0.942
51421W        W17830  34.478  11.078   0.051
51422W        W17831   8.211   6.374   3.813
51423W        W17832  28.488   6.468   1.567
51424W        W17833  10.699  16.541  10.396
51425W        W17834  30.258  36.321   1.233
51426W        W17835  12.885   6.935  14.347
51427W        W17836  34.592  16.541  13.400
51428W        W17837   7.938  28.051   0.944
51429W        W17838  39.886  15.071  12.567
51430W        W17839  19.668  30.320  11.126
51431W        W17840  12.655  38.824  12.022
51432W        W17841  37.766  25.734  11.058
51433W        W17842  16.233  32.854  10.715
51434W        W17843  24.902  19.052  10.452
51435W        W17844  44.880  18.155   5.031
51436W        W17845  40.998   0.240   0.709
51437W        W17846   6.354  30.938  11.155
51438W        W17847  37.001  34.046  11.595
51439W        W17848  18.305  24.235   2.399
51440W        W17849  43.005  14.585   2.228
51441W        W17850  27.628  34.742  12.572
51442W        W17851  17.477  22.743  12.112
51443W        W17852  44.370   8.070   2.460
51444W        W17853  36.955   3.799  12.368
51445W        W17854   9.114   8.595   5.425
51446W        W17855  21.623  41.837   2.703
51447W        W17856  36.756  41.360  12.445
51448W        W17857  41.361  19.124   4.343
51449W        W17858  35.246  10.292  14.111
51450W        W17859  16.492  43.860  10.592
51451W        W17860  16.083  18.677   4.035
51452W        W17861  44.519  39.588  14.914
51453W        W17862  38.977  16.406   5.252
51454W        W17863  44.907  43.029  13.140
51455W        W17864   8.156  17.597   1.688
51456W        W17865  28.376  34.789  11.637
51457W        W17866  13.690  39.074  13.310
51458W        W17867  21.107  39.539   2.048
51459W        W17868  20.912  33.710   4.978
51460W        W17869   7.457  15.567   2.411
51461W        W17870   2.256   2.421   2.397
51462W        W17871   7.171   3.862  13.840
51463W        W17872  24.618  35.300   2.448
51464W        W17873  34.492  36.069   1.073
51465W        W17874  22.979  38.042   3.400
51466W        W17875  25.042  26.100  11.237
51467W        W17876  18.156  43.026   3.631
51468W        W17877  40.015  24.204   2.233
51469W        W17878  38.334   4.698   2.824
51470W        W17879  43.354   5.265   1.360
51471W        W17880   8.369  35.071  12.904
51472W        W17881   9.662   4.256   3.213
51473W        W17882  33.156  29.506  14.469
51474W        W17883  39.227   5.786  12.368
51475W        W17884  18.756  14.728  12.021
51476W        W17885   1.031  21.570   3.704
51477W        W17886  27.250  33.901   0.229
51478W        W17887  26.521   1.183  13.001
51479W        W17888  36.561  36.933   0.437
51480W        W17889   3.923  15.074  13.017
51481W        W17890   6.935  16.671  14.829
51482W        W17891  29.729  12.530   1.149
51483W        W17892  11.752  35.729  13.358
51484W        W17893  12.077  21.584  11.438
51485W        W17894  41.573  14.915   2.647
51486W        W17895  23.007  36.827   0.295
51487W        W17896  26.531  10.696   2.340
51488W        W17897   1.570  29.962   2.163
51489W        W17898  37.080  39.820  12.926
51490W        W17899  34.122  31.953   0.721
51491W        W17900  34.031  13.812   0.626
51492W        W17901  41.962  38.484   4.640
51493W        W17902  40.939  44.200   4.703
51494W        W17903   9.024   0.053  11.685
51495W        W17904  33.412  22.856   0.778
51496W        W17905  10.863  36.701   4.682
51497W        W17906  20.160   6.392   1.437
51498W        W17907  41.405  41.105  12.086
51499W        W17908  28.136  39.371   0.416
51500W        W17909   6.835   9.378   2.403
51501W        W17910  36.415  31.893   3.669
51502W        W17911   4.319  11.742   2.358
51503W        W17912  25.606  20.647   2.374
51504W        W17913  19.633  20.311   0.790
51505W        W17914  38.340  26.225  10.875
51506W        W17915  35.793  33.916  12.955
51507W        W17916  17.033  36.007   1.397
51508W        W17917  37.126  29.201   0.810
51509W        W17918  41.972  22.583   4.613
51510W        W17919   8.002  24.769   3.351
51511W        W17920  43.984  10.694  12.976
51512W        W17921  27.845  44.456   3.294
51513W        W17922  12.321  32.047  11.988
51514W        W17923  34.905  30.418   1.721
51515W        W17924   2.947  23.776   4.776
51516W        W17925  40.521  31.204  12.539
51517W        W17926   3.923   5.912   4.853
51518W        W17927  36.863  10.795  13.264
51519W        W17928  34.071   3.862   1.780
51520W        W17929  18.672  26.505   2.371
51521W        W17930  19.805  13.642  12.582
51522W        W17931  43.651   3.835   4.741
51523W        W17932  14.202  10.314   4.574
51524W        W17933  29.913  37.480  12.642
51525W        W17934  44.434  19.821  12.885
51526W        W17935  37.495  10.720  11.555
51527W        W17936   7.099  20.723  12.923
51528W        W17937  13.113  11.012  11.232
51529W        W17938  20.997   1.814  10.512
51530W        W17939  20.795  43.802  14.852
51531W        W17940  18.967  26.069  11.996
51532W        W17941  26.584   9.102  14.649
51533W        W17942  15.352  39.645   5.044
51534W        W17943  14.384   6.357   4.770
51535W        W17944   2.408   2.051  14.292
51536W        W17945  15.021  28.135  13.356
51537W        W17946  37.811  38.160   1.879
51538W        W17947  17.664  21.257  12.987
51539W        W17948  43.186  36.516  14.064
51540W        W17949   6.910  10.814   3.181
51541W        W17950  15.901  31.011  13.926
51542W        W17951  21.433  37.018   3.349
51543W        W17952  35.519  37.035   3.787
51544W        W17953  34.625  11.010   2.296
51545W        W17954  16.889  14.988  11.100
51546W        W17955  26.466  11.227   2.367
51547W        W17956  35.139  44.908  12.056
51548W        W17957  15.859   6.676   4.514
51549W        W17958   2.388  17.484   1.364
51550W        W17959  38.666  13.275   3.149
51551W        W17960  42.940  28.547   2.541
51552W        W17961  12.669  28.276  11.145
51553W        W17962  17.129  34.136  13.072
51554W        W17963  31.186  25.537  14.759
51555W        W17964  29.667  15.836  14.756
51556W        W17965  24.559  13.122  13.833
51557W        W17966  17.080  42.687   3.289
51558W        W17967  31.177  31.463  10.777
51559W        W17968  39.480  26.693  14.823
51560W        W17969  43.307  18.294   4.785
51561W        W17970  35.090   4.970  14.851
51562W        W17971  14.578  19.761  11.545
51563W        W17972  17.234   1.989   1.673
51564W        W17973   5.846   9.400   2.353
51565W        W17974  22.261  16.781   2.405
51566W        W17975   6.723  19.334   3.024
51567W        W17976  33.579  42.285  12.885
51568W        W17977  24.714  16.060   1.611
51569W        W17978   7.637  17.807   2.869
51570W        W17979  19.766  44.735  14.715
51571W        W17980  30.681  11.943  13.365
51572W        W17981  22.681  32.333  10.713
51573W        W17982  42.815  33.693   0.023
51574W        W17983  16.012   7.947  14.442
51575W        W17984  24.475   5.001  14.224
51576W        W17985  10.036  32.081   5.039
51577W        W17986  26.077  10.176  14.577
51578W        W17987  16.735  11.948  13.811
51579W        W17988   8.448  38.911  13.344
51580W        W17989  14.082  43.816   1.251
51581W        W17990  35.942  23.460   0.027
51582W        W17991  36.071  24.410  13.413
51583W        W17992  29.478  23.111   0.278
51584W        W17993  36.325  29.980   0.807
51585W        W17994  36.935   3.946   0.461
51586W        W17995  23.344  25.855  11.902
51587W        W17996  16.757  42.302  12.639
51588W        W17997  21.627   8.508   1.689
51589W        W17998  34.284   4.871   4.118
51590W        W17999   8.416  28.241   2.703
51591W        W18000   5.272  41.694   3.268
51592W        W18001  15.834  30.719   3.676
51593W        W18002  30.499  13.347  11.553
51594W        W18003  39.085   0.987  10.566
51595W        W18004  13.628  42.798   2.741
51596W        W18005   0.492  20.309  11.673
51597W        W18006  14.203  21.479   0.441
51598W        W18007  37.655   0.314  12.458
51599W        W18008   1.433   0.383  10.664
51600W        W18009  33.111   7.287  13.238
51601W        W18010  21.199  13.183  12.367
51602W        W18011   5.914   3.910   0.810
51603W        W18012   0.513   3.254  12.028
51604W        W18013  11.094  21.298  10.152
51605W        W18014  16.226  22.583   3.846
51606W        W18015  43.974   5.685  10.302
51607W        W18016  36.195  30.890  11.596
51608W        W18017   5.930   0.921   3.808
51609W        W18018  19.777  30.583   2.735
51610W        W18019   9.724  28.510   4.539
51611W        W18020   9.426  20.410  11.984
51612W        W18021  28.481  25.743   2.239
51613W        W18022  13.257   3.478   2.678
51614W        W18023  26.110  38.009  11.879
51615W        W18024   7.661  38.895  10.657
51616W        W18025  23.531  27.052  11.113
51617W        W18026  28.044   6.236  10.586
51618W        W18027  12.619   3.692  11.115
51619W        W18028   3.252  16.877  12.017
51620W        W18029  28.807  26.609   2.729
51621W        W18030  16.754  19.649   0.079
51622W        W18031  13.818  33.433   4.232
51623W        W18032  17.812  36.636  13.394
51624W        W18033  39.497   2.520   4.805
51625W        W18034   0.881  18.557  12.111
51626W        W18035  40.797  40.080  14.116
51627W        W18036  17.130  16.883   0.574
51628W        W18037   8.360  27.786   0.073
51629W        W18038  19.061  11.280   2.174
51630W        W18039  32.163   5.778   0.328
51631W        W18040  11.751  32.937  11.540
51632W        W18041   2.017  21.710  14.063
51633W        W18042  30.121   5.510  14.987
51634W        W18043  20.570  24.005  12.899
51635W        W18044  31.463  37.806   3.364
51636W        W18045  38.314   0.857   4.698
51637W        W18046  12.634  15.922  12.021
51638W        W18047  31.008  22.642  10.846
51639W        W18048  41.567  34.135  13.948
51640W        W18049  33.909  33.409  13.524
51641W        W18050   4.225  19.377   3.168
51642W        W18051   5.199  41.395  13.399
51643W        W18052  15.765  40.858   2.349
51644W        W18053  14.006   5.789   3.372
51645W        W18054  44.352  17.793   0.936
51646W        W18055  27.261  30.938   0.353
51647W        W18056   5.939  34.955  10.640
51648W        W18057   8.303  22.523  10.889
51649W        W18058  27.238   0.812   2.125
51650W        W18059   2.145  33.380   2.127
51651W        W18060   0.083   8.681   4.960
51652W        W18061  20.559   7.421   0.808
51653W        W18062  28.361  42.831   0.504
51654W        W18063  15.154  31.864  11.148
51655W        W18064  15.561  42.444   3.175
51656W        W18065   6.734  11.243  10.974
51657W        W18066  33.578   2.758  11.676
51658W        W18067  28.437  10.464   1.926
51659W        W18068   1.737   1.016  11.153
51660W        W18069  43.772  37.842   1.333
51661W        W18070  14.690  34.200  12.569
51662W        W18071  33.638  13.600   0.889
51663W        W18072   9.277  26.241   3.154
51664W        W18073  40.256  11.139   0.757
51665W        W18074  21.595  21.167   3.390
51666W        W18075  22.998  33.479  14.765
51667W        W18076   2.897  28.193   4.543
51668W        W18077   1.353  30.199  12.608
51669W        W18078  44.047  29.607  11.512
51670W        W18079  24.175  25.183  10.768
51671W        W18080   1.990  44.710   0.997
51672W        W18081  24.227  27.433  13.447
51673W        W18082  15.904  18.852   0.284
51674W        W18083   9.305  39.007   4.654
51675W        W18084  23.092  23.656  14.291
51676W        W18085  10.591  27.293  12.425
51677W        W18086  35.786  26.662   3.357
51678W        W18087  18.171  40.587  12.914
51679W        W18088  29.525  42.347   0.228
51680W        W18089   1.797  27.080  12.896
51681W        W18090  32.653  24.035  13.093
51682W        W18091  11.947  35.085   0.079
51683W        W18092  38.906  27.652   2.794
51684W        W18093  16.292   4.790  14.028
51685W        W18094  19.307  10.381  13.758
51686W        W18095  15.293  35.938   0.362
51687W        W18096  40.585   4.313   1.842
51688W        W18097  32.536   2.982  14.324
51689W        W18098  42.610  23.574   1.776
51690W        W18099  43.713  41.158   1.244
51691W        W18100  16.597   6.264  11.349
51692W        W18101  25.710  40.453   2.407
51693W        W18102  40.996  33.804  13.959
51694W        W18103  23.550  40.984   2.930
51695W        W18104  17.108   3.261   2.133
51696W        W18105  17.807  43.499   0.365
51697W        W18106  19.429  18.349   2.913
51698W        W18107   7.904  11.317  13.791
51699W        W18108  32.907  28.144  10.145
51700W        W18109  16.788  28.411  14.500
51701W        W18110  29.664  16.287   4.737
51702W        W18111  20.221   2.859  13.862
51703W        W18112  33.190  31.645   1.255
51704W        W18113  16.288  21.737   0.281
51705W        W18114  33.158   8.119  13.255
51706W        W18115   6.277  31.514   2.342
51707W        W18116  44.956  41.396   0.898
51708W        W18117   9.263  36.137   5.128
51709W        W18118  42.784  17.839   1.708
51710W        W18119  43.828  10.859   0.670
51711W        W18120   8.363  11.966   4.926
51712W        W18121  35.949   0.311  13.113
51713W        W18122  39.735  22.334   2.670
51714W        W18123   0.030  35.005  12.037
51715W        W18124  28.933  27.988   0.044
51716W        W18125  25.171  35.414   0.458
51717W        W18126  39.408  37.908   4.339
51718W        W18127  17.329  14.552   1.377
51719W        W18128  37.096   5.682   3.271
51720W        W18129  39.914  18.688   0.571
51721W        W18130  20.324  32.184  13.436
51722W        W18131  12.692  37.107  13.344
51723W        W18132   1.368  12.579  13.085
51724W        W18133  26.021  42.705   1.458
51725W        W18134  43.378  21.386  10.586
51726W        W18135  42.036  35.525   2.170
51727W        W18136  26.796  31.484   3.780
51728W        W18137  10.264  38.324  14.267
51729W        W18138   3.721  31.100  11.562
51730W        W18139  18.179   7.488  10.963
51731W        W18140   7.433  13.614   0.918
51732W        W18141   5.853  13.685  10.575
51733W        W18142  27.509  12.083   0.398
51734W        W18143  11.121  10.587   3.777
51735W        W18144  16.082   8.963  11.163
51736W        W18145   9.305  13.181   4.287
51737W        W18146  26.244  17.560   1.235
51738W        W18147  34.436  38.789   1.516
51739W        W18148  37.090  38.875  11.506
51740W        W18149   3.902  31.085   3.314
51741W        W18150  21.213  12.778  14.546
51742W        W18151   0.474  15.182  14.323
51743W        W18152   9.847  25.187  12.417
51744W        W18153   9.598  35.022  11.996
51745W        W18154  27.695  26.615   0.239
51746W        W18155  36.238  11.325  14.306
51747W        W18156   4.984   3.232  11.564
51748W        W18157   6.660  26.418   3.247
51749W        W18158  40.720  21.145  12.069
51750W        W18159  17.903  29.603   2.313
51751W        W18160  27.715   5.929   1.958
51752W        W18161  20.138  16.328  14.959
51753W        W18162  26.155  28.927  13.470
51754W        W18163   9.142  36.526   4.264
51755W        W18164  41.792   3.016  13.440
51756W        W18165  14.672  43.552  12.487
51757W        W18166   3.323  36.929  13.826
51758W        W18167  21.208  28.458  10.596
51759W        W18168   6.213  38.922  10.330
51760W        W18169   6.310  11.305   4.807
51761W        W18170   0.329  30.328   2.133
51762W        W18171  33.365  43.700   0.847
51763W        W18172  21.531  16.740  11.562
51764W        W18173  23.251  18.656  13.874
51765W        W18174  37.885  22.510   3.131
51766W        W18175  25.981  20.310  13.871
51767W        W18176  32.499  31.478   4.807
51768W        W18177  15.330   5.850   3.623
51769W        W18178  22.362   2.992  12.090
51770W        W18179  22.065  20.947   4.080
51771W        W18180  18.834  17.382   3.590
51772W        W18181  38.071  38.636  11.141
51773W        W18182   3.369  31.470  11.599
51774W        W18183  24.287  11.286   4.091
51775W        W18184  23.040  40.864   1.663
51776W        W18185  30.512  39.227   2.835
51777W        W18186  19.580  11.155   4.258
51778W        W18187  25.135  36.245  12.936
51779W        W18188  14.308   2.396  13.873
51780W        W18189  26.111  16.003  13.219
51781W        W18190   2.452  31.001   2.396
51782W        W18191  26.413  10.420  13.416
51783W        W18192  11.349   7.174  13.852
51784W        W18193  31.754  31.891   3.627
51785W        W18194  10.935  43.896  11.387
51786W        W18195  25.485  14.625   0.316
51787W        W18196  37.420  38.920   2.843
51788W        W18197  21.692  13.068  13.394
51789W        W18198  38.821  35.395  11.127
51790W        W18199  23.378  21.472   0.483
51791W        W18200   2.896  34.094   2.093
51792W        W18201  38.866  27.361   4.483
51793W        W18202   9.219  37.527   0.526
51794W        W18203  39.575  15.055   3.702
51795W        W18204  14.627  16.239   3.706
51796W        W18205  26.444  10.743   3.677
51797W        W18206  33.824   8.804  13.956
51798W        W18207  21.982  31.414  11.185
51799W        W18208  14.957  34.237  12.126
51800W        W18209  43.049  22.936  11.185
51801W        W18210  13.069  15.760   2.591
51802W        W18211  22.203  17.242   4.103
51803W        W18212  37.343  15.678  12.792
51804W        W18213  16.966  40.836  13.776
51805W        W18214  41.457  30.544  14.440
51806W        W18215   1.975  42.444   4.868
51807W        W18216  36.423   7.902   2.343
51808W        W18217  32.065  35.726  14.005
51809W        W18218   3.084  17.556  10.942
51810W        W18219  11.826  34.386  13.982
51811W        W18220  19.550  31.112   0.765
51812W        W18221  23.651  37.883  14.512
51813W        W18222  21.722  36.306  14.038
51814W        W18223  30.844  43.343   2.148
51815W        W18224  37.389  14.743  13.339
51816W        W18225  26.224  41.110  13.452
51817W        W18226   2.955  29.506   1.451
51818W        W18227  30.922  13.627   1.335
51819W        W18228  15.828  41.404  10.670
51820W        W18229  36.643   3.717   2.224
51821W        W18230  11.158   9.893   0.857
51822W        W18231   4.285  33.870   3.272
51823W        W18232   5.287  42.335   4.175
51824W        W18233   3.468  38.824  12.426
51825W        W18234   3.238  30.742   4.985
51826W        W18235  13.336  43.959   0.834
51827W        W18236  43.014  39.351  12.840
51828W        W18237  12.532   2.698   5.439
51829W        W18238  37.677  33.993   3.349
51830W        W18239  33.500   1.323  11.570
51831W        W18240  10.235  23.197   2.052
51832W        W18241  11.284  23.600  13.538
51833W        W18242  38.539  21.692   2.129
51834W        W18243  12.117  40.391   1.486
51835W        W18244  11.425  17.166  13.336
51836W        W18245   1.766   0.251   1.698
51837W        W18246  37.487  35.569   1.849
51838W        W18247  18.643   7.118   0.721
51839W        W18248  34.392   1.968  14.847
51840W        W18249   6.648  23.781   2.864
51841W        W18250  19.920  12.820   0.954
51842W        W18251   7.360  32.799  10.936
51843W        W18252  37.711  30.051   2.164
51844W        W18253  34.039  43.212   3.593
51845W        W18254  39.502  28.074   4.616
51846W        W18255  34.481  27.197   1.851
51847W        W18256  24.421   4.341  13.480
51848W        W18257  12.895  10.383  13.965
51849W        W18258   2.588   9.358   3.014
51850W        W18259  10.904  14.323  14.989
51851W        W18260   5.449  11.258   3.730
51852W        W18261   5.752  16.269   2.266
51853W        W18262  12.374   6.552   2.298
51854W        W18263  17.421  14.312  14.034
51855W        W18264  17.245  10.481  14.889
51856W        W18265  21.595  27.425  12.127
51857W        W18266  37.585  15.190  12.839
51858W        W18267   1.328   7.225  13.351
51859W        W18268   8.196  10.212  11.483
51860W        W18269  24.401   0.166   3.751
51861W        W18270  27.973  24.133  10.714
51862W        W18271  43.941  35.441   4.173
51863W        W18272  20.657  17.710   0.217
51864W        W18273   6.173  23.659  10.701
51865W        W18274  32.102  42.264  14.522
51866W        W18275   9.250  43.460   1.216
51867W        W18276  40.223  23.588  11.222
51868W        W18277   9.370   9.187  12.963
51869W        W18278  25.524   7.152  10.627
51870W        W18279  44.587  21.983   4.102
51871W        W18280  22.523  43.471   4.494
51872W        W18281  21.523  13.992  13.955
51873W        W18282  21.706  30.220  10.784
51874W        W18283  13.558   7.157  10.848
51875W        W18284  22.008  17.210   2.219
51876W        W18285  33.617   4.702   0.898
51877W        W18286  34.866  23.025  14.777
51878W        W18287  34.325   3.457   2.356
51879W        W18288  10.967  33.479  12.936
51880W        W18289  38.277  39.190  10.280
51881W        W18290  16.236  24.296   4.900
51882W        W18291  43.221  33.915  13.339
51883W        W18292   7.501  39.149  11.954
51884W        W18293  40.004  41.616   0.563
51885W        W18294  44.993  20.659   0.474
51886W        W18295   5.658   4.381   0.923
51887W        W18296  32.195  39.666  14.873
51888W        W18297  32.026   7.236  13.761
51889W        W18298  40.795  29.078   3.653
51890W        W18299  16.864  40.934   0.423
51891W        W18300  23.989  21.593   3.377
51892W        W18301   1.434  26.993  14.661
51893W        W18302  21.758   6.733   3.218
51894W        W18303  12.265  38.312   2.719
51895W        W18304   2.817  27.839   1.140
51896W        W18305  20.527  20.343   3.113
51897W        W18306  23.993  25.640  13.545
51898W        W18307  20.273  26.224  14.050
51899W        W18308  24.133  37.228  10.517
51900W        W18309  18.668  41.619  12.967
51901W        W18310  39.594  44.058  14.737
51902W        W18311  21.315  34.523   1.937
51903W        W18312  31.089  17.166  13.899
51904W        W18313  33.856  27.485  10.698
51905W        W18314  40.769  18.762  12.068
51906W        W18315  33.821   0.381   0.405
51907W        W18316   1.456  31.641   3.267
51908W        W18317  25.908  20.855  13.931
51909W        W18318   2.721   7.880  11.078
51910W        W18319  13.830   4.315   4.995
51911W        W18320  23.009  41.021  12.941
51912W        W18321   7.479  24.092  12.637
51913W        W18322  13.090  31.540  12.237
51914W        W18323  43.332  36.504   0.741
51915W        W18324  31.874  41.340   1.311
51916W        W18325  43.969  25.461   0.353
51917W        W18326  32.684  11.092  13.491
51918W        W18327  11.346  38.641  13.599
51919W        W18328  36.045  34.935  11.546
51920W        W18329  14.190  41.329   2.651
51921W        W18330  41.850  28.402   4.149
51922W        W18331  41.575   4.917  12.510
51923W        W18332  34.957  17.980   2.880
51924W        W18333  36.522  36.914  13.033
51925W        W18334  36.331  19.757   4.388
51926W        W18335  34.591  31.940   3.725
51927W        W18336  26.852  13.638   3.220
51928W        W18337  22.870  18.623  11.194
51929W        W18338  16.215   9.889  14.299
51930W        W18339  33.681  25.724  10.157
51931W        W18340  19.859   2.851   0.932
51932W        W18341  20.099  17.329  13.917
51933W        W18342  39.586  31.651   2.846
51934W        W18343  16.385  18.563   0.279
51935W        W18344  11.922  30.086  14.314
51936W        W18345   4.976  10.158  14.742
51937W        W18346  32.530  30.620  10.760
51938W        W18347  30.468  43.914  10.930
51939W        W18348  16.110  15.840   3.296
51940W        W18349  41.033  10.752   1.253
51941W        W18350   1.437   9.881   0.950
51942W        W18351  33.630  19.207  13.453
51943W        W18352  29.772  10.315  11.714
51944W        W18353  42.377  41.306  11.323
51945W        W18354   9.188  21.426   4.506
51946W        W18355  15.823  23.015   2.806
51947W        W18356   1.790  12.306   4.028
51948W        W18357  34.968  28.704   4.619
51949W        W18358  22.903  32.209  12.604
51950W        W18359   8.183   2.380   3.237
51951W        W18360  13.599  15.615   3.938
51952W        W18361   6.672  42.063   4.138
51953W        W18362  41.427  43.910   4.603
51954W        W18363  22.571  33.006   2.951
51955W        W18364  22.597  20.580  14.476
51956W        W18365   8.535  29.878   1.262
51957W        W18366  32.544  37.867  14.413
51958W        W18367  23.622  22.046   3.022
51959W        W18368   0.417   7.821  13.555
51960W        W18369  31.212  43.402  12.589
51961W        W18370  31.891  10.141   0.338
51962W        W18371  14.761  26.702   5.024
51963W        W18372  12.154  31.329  13.000
51964W        W18373   3.286   3.273  14.499
51965W        W18374  21.203  22.418  10.520
51966W        W18375  28.189  13.521   1.268
51967W        W18376  38.510  35.676   1.771
51968W        W18377  28.545  22.665   2.724
51969W        W18378  43.557  22.609  13.795
51970W        W18379  42.375  36.795  10.779
51971W        W18380  15.674   9.612   1.015
51972W        W18381  44.938  44.144   3.767
51973W        W18382   0.883  33.331  10.728
51974W        W18383  13.084  19.589   2.733
51975W        W18384   5.311  16.520  13.976
51976W        W18385  37.003   1.052  14.533
51977W        W18386  18.118  43.182   1.703
51978W        W18387  34.756  12.300   2.584
51979W        W18388   6.943  20.895   0.386
51980W        W18389  18.264   7.793  11.642
51981W        W18390   2.783  31.169   3.162
51982W        W18391  25.103  39.391   0.401
51983W        W18392  30.438  19.990  11.026
51984W        W18393  14.528   4.830   3.745
51985W        W18394  36.030  19.138  13.270
51986W        W18395  25.542   9.779   5.057
51987W        W18396  39.824   3.767  14.215
51988W        W18397  20.817  13.740   1.902
51989W        W18398  30.000  23.971   0.657
51990W        W18399   8.923  31.188   3.983
51991W        W18400  39.581   0.441   4.477
51992W        W18401  34.067   3.802  12.350
51993W        W18402   0.125  17.717   3.685
51994W        W18403  21.171  29.203   4.085
51995W        W18404  40.189  40.990   2.225
51996W        W18405  18.710  37.949   1.771
51997W        W18406   1.821  26.201   1.881
51998W        W18407  41.917  21.789  10.764
51999W        W18408  40.009  15.725  10.746
52000W        W18409  17.047  41.530   1.693
52001W        W18410  10.960   8.760  12.951
52002W        W18411  11.068  28.212   3.798
52003W        W18412  11.131  38.528   3.974
52004W        W18413  21.172  41.488  11.619
52005W        W18414  31.693  16.017   2.181
52006W        W18415   7.551  29.162   4.180
52007W        W18416  11.934   7.078  10.155
52008W        W18417  13.181   9.332   0.075
52009W        W18418  20.474  29.011   2.343
52010W        W18419   9.100  29.078  12.124
52011W        W18420  20.175  20.856  14.521
52012W        W18421  39.720  13.142   4.444
52013W        W18422   5.463  24.418  14.396
52014W        W18423  38.555  42.237  10.621
52015W        W18424  30.869  42.436  11.844
52016W        W18425  36.362  25.175  14.039
52017W        W18426  16.377  13.219   3.810
52018W        W18427  36.562  28.910  11.511
52019W        W18428  17.470  13.144   1.793
52020W        W18429  26.842  26.097   4.245
52021W        W18430   6.161  15.485   5.086
52022W        W18431  32.983  31.697   2.736
52023W        W18432  42.748  42.856  10.891
52024W        W18433  39.037  18.755  12.724
52025W        W18434  19.713  40.318   2.686
52026W        W18435  16.975  29.715   1.186
52027W        W18436  35.031  17.079   2.263
52028W        W18437  37.984  36.216   3.342
52029W        W18438  44.838   8.186   4.117
52030W        W18439  37.817  41.387  14.872
52031W        W18440  17.751  11.837  14.831
52032W        W18441  44.321  44.653  12.237
52033W        W18442  40.253  29.650  11.167
52034W        W18443  16.574   3.811  10.737
52035W        W18444  10.304   0.182   1.714
52036W        W18445  21.056   4.593   0.649
52037W        W18446  36.570   4.036   2.618
52038W        W18447  21.136   9.705  12.872
52039W        W18448   3.316  11.346  10.697
52040W        W18449  37.802  14.802   1.713
52041W        W18450  12.283  43.364  12.625
52042W        W18451  23.461  12.712  12.069
52043W        W18452  25.206  31.398   0.867
52044W        W18453  40.839  29.012  14.069
52045W        W18454  15.398  28.688  13.397
52046W        W18455  36.318  35.432   1.443
52047W        W18456   1.807   5.218   0.997
52048W        W18457   0.874   0.528  11.618
52049W        W18458  11.933  23.510  12.424
52050W        W18459  37.435  34.025   0.559
52051W        W18460   0.060   2.449  14.363
52052W        W18461  28.686  10.857   2.137
52053W        W18462  15.776   9.762   2.780
52054W        W18463  30.866  43.070   3.741
52055W        W18464  12.373  26.185   2.325
52056W        W18465  20.425  12.384   2.313
52057W        W18466  28.674  41.219  11.151
52058W        W18467  26.186  29.223   4.309
52059W        W18468  31.584   9.886   3.381
52060W        W18469   0.746  11.092  11.890
52061W        W18470  14.871  30.768  11.662
52062W        W18471  34.129   0.482   3.240
52063W        W18472  22.240  42.654  14.257
52064W        W18473  23.586  29.958  11.428
52065W        W18474  35.200   3.265   5.022
52066W        W18475  15.574  43.408   3.087
52067W        W18476  31.885  36.367   0.809
52068W        W18477  32.835  12.152  11.688
52069W        W18478  19.043  24.988  14.905
52070W        W18479  33.850  39.013  10.671
52071W        W18480   3.749  31.514   1.367
52072W        W18481   9.310  11.366  14.278
52073W        W18482   3.326   3.392   4.215
52074W        W18483   9.369  40.095   0.742
52075W        W18484  44.812  41.699   2.341
52076W        W18485  22.526  32.079   0.422
52077W        W18486  19.223   9.376  14.723
52078W        W18487   2.385   2.428  11.658
52079W        W18488   3.093  22.517   3.294
52080W        W18489   3.297   8.996   2.637
52081W        W18490  39.205   0.042   4.656
52082W        W18491   9.791  26.888   2.204
52083W        W18492  39.435  34.041  14.448
52084W        W18493  20.771  43.418   0.609
52085W        W18494   1.813  13.812  10.613
52086W        W18495  39.286  17.178  14.017
52087W        W18496  15.434  30.852  11.604
52088W        W18497  12.116  28.652   3.409
52089W        W18498  13.773  35.645  14.963
52090W        W18499  31.343  17.309   0.809
52091W        W18500  22.670  24.065   0.610
52092W        W18501  33.639  37.458  12.014
52093W        W18502   7.744  43.829   1.470
52094W        W18503   1.650  39.782   2.866
52095W        W18504  37.615   1.907  13.522
52096W        W18505  18.033  11.725  10.490
52097W        W18506   9.696  35.026   2.696
52098W        W18507  29.688  13.186   4.120
52099W        W18508  13.098  39.774  14.862
52100W        W18509  38.472  21.016  10.215
52101W        W18510  24.016  13.775   1.912
52102W        W18511   8.511   6.906   4.151
52103W        W18512  40.973   4.331  13.824
52104W        W18513  16.304  21.833   3.208
52105W        W18514  21.646  34.502  12.795
52106W        W18515  26.602  12.802  12.215
52107W        W18516  13.750   9.894  14.272
52108W        W18517  42.047   5.300   4.112
52109W        W18518  32.571   3.912   3.763
52110W        W18519  42.523   5.188  12.741
52111W        W18520  26.541  42.421  13.500
52112W        W18521  36.533  38.289  12.918
52113W        W18522  40.291   7.784   0.400
52114W        W18523  29.585  19.028  10.748
52115W        W18524  20.148  35.110  10.746
52116W        W18525  19.086   2.066  13.514
52117W        W18526   6.500  10.818   2.579
52118W        W18527  13.561  43.386   1.360
52119W        W18528  27.603  23.625   0.286
52120W        W18529  32.520  32.904   2.175
52121W        W18530  23.527   0.205  11.474
52122W        W18531  27.368  42.997  13.636
52123W        W18532  13.363  43.523  13.562
52124W        W18533  10.225   9.586   3.170
52125W        W18534  24.008  36.035   3.309
52126W        W18535  40.046   1.983   2.969
52127W        W18536  24.911  36.544   1.011
52128W        W18537  44.359  17.081   2.355
52129W        W18538  44.914  12.218  14.793
52130W        W18539  22.971  24.530  14.997
52131W        W18540   3.170  24.522   2.507
52132W        W18541   7.394  13.026   2.909
52133W        W18542   6.454  34.483   0.842
52134W        W18543  14.744  18.070   4.961
52135W        W18544  18.634   4.984  13.396
52136W        W18545  39.025  12.665   0.058
52137W        W18546   7.635  42.255  12.722
52138W        W18547  14.205  14.850   4.678
52139W        W18548  43.011  11.621   4.143
52140W        W18549  19.638  10.142  14.377
52141W        W18550  42.439  31.863   2.869
52142W        W18551  17.290  38.807  11.957
52143W        W18552   7.245   0.886  13.861
52144W        W18553  30.969   0.313   2.359
52145W        W18554  43.054   6.041   2.671
52146W        W18555  44.668  11.012   3.722
52147W        W18556   6.170  11.135  10.874
52148W        W18557  11.882  22.562   2.242
52149W        W18558  42.812  11.850  14.978
52150W        W18559   1.406  21.537  12.795
52151W        W18560  24.205  10.104   3.547
52152W        W18561  30.786  20.094   1.376
52153W        W18562  18.239   7.571   0.259
52154W        W18563  36.314  24.311  13.866
52155W        W18564   5.269  16.605  13.082
52156W        W18565   6.337  22.855   5.526
52157W        W18566  22.594  27.171  14.476
52158W        W18567  25.232  23.078  14.410
52159W        W18568   0.895  30.173  11.957
52160W        W18569  34.439   4.924   3.274
52161W        W18570  40.407  28.932  11.706
52162W        W18571  19.211  39.571   2.888
52163W        W18572   1.337  22.916  12.751
52164W        W18573  38.572  12.815   1.872
52165W        W18574  39.841  22.186   4.927
52166W        W18575   2.584  11.248   1.025
52167W        W18576  36.804  31.371   0.727
52168W        W18577  17.499  17.291  14.963
52169W        W18578  38.528  42.494  14.297
52170W        W18579  32.262  34.655  10.717
52171W        W18580  40.754   8.085  13.584
52172W        W18581  26.956  44.325  11.572
52173W        W18582  22.710   9.275  13.015
52174W        W18583  10.901  35.695   4.708
52175W        W18584   8.652  36.341  12.075
52176W        W18585  11.677   1.243   2.147
52177W        W18586  43.073  26.490  10.716
52178W        W18587  20.634  33.342  12.445
52179W        W18588  43.799   5.525  14.923
52180W        W18589  14.689  22.000  13.343
52181W        W18590  43.422  31.131  13.958
52182W        W18591  41.029  44.812   3.341
52183W        W18592  40.260  22.530   3.296
52184W        W18593  15.577  16.378   0.526
52185W        W18594  15.572  10.911   4.205
52186W        W18595  32.327  33.231   0.313
52187W        W18596  33.009  11.839   3.721
52188W        W18597  29.390  13.182   1.746
52189W        W18598  15.361   3.309   3.813
52190W        W18599  17.646  16.250   2.448
52191W        W18600  14.239  21.488  12.097
52192W        W18601  25.142  32.278  13.128
52193W        W18602  23.209  16.842  11.213
52194W        W18603  18.558  26.403  12.046
52195W        W18604  38.516  31.239   1.227
52196W        W18605  32.091  32.489  12.352
52197W        W18606  36.451  10.510  14.570
52198W        W18607  24.935  11.987  10.049
52199W        W18608  25.965  11.048  14.060
52200W        W18609  40.597   2.129   3.659
52201W        W18610  13.504   5.870   3.166
52202W        W18611  35.526  13.561   1.844
52203W        W18612   8.584   1.809  13.878
52204W        W18613   8.826  11.809   5.131
52205W        W18614  22.494  16.259   4.776
52206W        W18615  20.678  14.178  11.177
52207W        W18616  35.594  33.526  13.477
52208W        W18617  42.239   1.311   0.249
52209W        W18618   9.707  15.788   2.370
52210W        W18619  21.541  34.938   1.184
52211W        W18620  34.140  17.844   1.352
52212W        W18621  32.414  35.382   1.376
52213W        W18622  22.548  43.729   2.751
52214W        W18623  24.095  18.742   1.981
52215W        W18624   6.924  33.527   4.080
52216W        W18625  26.610  42.747  12.532
52217W        W18626  36.118  16.544   2.910
52218W        W18627  19.837  42.381   4.807
52219W        W18628  31.787   2.147   1.958
52220W        W18629   8.404  32.045  12.906
52221W        W18630  38.489  41.793   3.583
52222W        W18631  40.625  27.888   4.948
52223W        W18632  32.604  27.586  12.669
52224W        W18633  17.552   2.476  10.725
52225W        W18634   2.381  35.838   3.749
52226W        W18635  41.997  42.427  11.626
52227W        W18636   1.536   6.415   0.835
52228W        W18637  31.442  39.824  13.259
52229W        W18638  44.210  11.329   0.109
52230W        W18639  32.091   6.365  14.068
52231W        W18640  39.288   6.194   0.318
52232W        W18641  14.818  36.185  12.465
52233W        W18642  30.959  35.958   0.355
52234W        W18643   5.904  38.394  13.545
52235W        W18644  34.411   1.916   2.619
52236W        W18645   2.601   3.590   4.767
52237W        W18646   7.894  19.746   3.516
52238W        W18647  40.721  22.319   0.517
52239W        W18648  25.761   3.741   3.116
52240W        W18649  34.048   9.861   2.926
52241W        W18650   0.293  15.400   3.729
52242W        W18651  41.725  16.318  13.374
52243W        W18652   6.397   3.771   0.690
52244W        W18653   7.181  44.427  14.892
52245W        W18654  22.553  17.393  12.515
52246W        W18655  14.761  27.010   3.328
52247W        W18656   2.203  44.944   0.070
52248W        W18657  15.868   4.489  12.088
52249W        W18658  30.965  29.148  14.947
52250W        W18659  20.433  13.244  11.394
52251W        W18660  17.891   3.327   1.559
52252W        W18661   7.793   5.119  14.304
52253W        W18662   6.661  41.859  14.824
52254W        W18663  24.881  35.312   3.818
52255W        W18664  36.629  35.990  10.493
52256W        W18665  25.739  13.848  13.145
52257W        W18666  32.461  19.767  13.081
52258W        W18667  37.609  27.803   3.349
52259W        W18668  15.933  32.626  13.726
52260W        W18669   2.308  39.363  14.170
52261W        W18670  26.259  34.579   4.671
52262W        W18671   5.674  29.025  12.933
52263W        W18672  44.226  34.543  14.023
52264W        W18673  35.649  28.464  11.576
52265W        W18674  10.830  31.320   1.369
52266W        W18675  19.082  35.881   4.504
52267W        W18676   7.708   1.458  13.515
52268W        W18677   9.778  38.895  12.487
52269W        W18678   7.386  25.717   3.901
52270W        W18679  15.638  19.811   0.230
52271W        W18680  10.595   4.504   4.366
52272W        W18681  35.014  43.623   0.389
52273W        W18682  29.946   7.843  13.607
52274W        W18683  38.580   6.351   2.677
52275W        W18684  16.231  34.990  12.461
52276W        W18685   1.865   7.873  12.969
52277W        W18686  38.046  40.598   1.823
52278W        W18687   7.154  28.989  10.497
52279W        W18688   6.521  22.923   1.754
52280W        W18689  18.601   9.431  11.118
52281W        W18690  35.010  31.654   4.531
52282W        W18691  44.608  29.696  14.527
52283W        W18692   2.223   8.417   3.786
52284W        W18693  12.137  13.447   4.138
52285W        W18694  25.947  30.013  12.401
52286W        W18695  43.186  37.708  11.989
52287W        W18696   3.777  14.140  14.613
52288W        W18697  36.820  33.835  12.453
52289W        W18698  44.534  19.308  11.342
52290W        W18699   2.399   6.168  10.485
52291W        W18700  13.299  25.939   4.618
52292W        W18701  11.270  33.175   2.307
52293W        W18702  16.268  24.018   1.502
52294W        W18703  10.666  30.085  12.611
52295W        W18704  34.667  29.889  14.507
52296W        W18705  25.978  17.175   3.840
52297W        W18706  43.784  32.575   0.331
52298W        W18707  24.271  29.659   2.282
52299W        W18708  26.583  11.294   4.424
52300W        W18709   0.416  38.041   1.848
52301W        W18710  13.027   5.853  14.334
52302W        W18711   8.725   0.255   4.259
52303W        W18712   3.853  15.596   2.813
52304W        W18713   8.815  26.974  12.035
52305W        W18714  16.522  34.553   0.767
52306W        W18715  21.368   1.727  12.124
52307W        W18716  24.683  36.510  12.878
52308W        W18717  16.219  30.096  14.854
52309W        W18718   8.745  31.662   3.755
52310W        W18719   0.007  32.831  13.406
52311W        W18720  35.333  36.514  12.967
52312W        W18721   9.005  28.997   0.003
52313W        W18722  10.097  13.762   2.570
52314W        W18723   8.612   4.884   2.804
52315W        W18724  29.558  19.147   0.485
52316W        W18725  41.766  26.936   0.883
52317W        W18726  22.172  39.656   4.576
52318W        W18727  22.717  28.019  14.929
52319W        W18728  31.368  40.613   0.269
52320W        W18729  27.179   8.061  10.713
52321W        W18730   5.687  10.828   3.617
52322W        W18731  18.280  19.805   0.422
52323W        W18732  28.705  13.687   1.335
52324W        W18733  30.103  28.885   2.924
52325W        W18734  17.105  20.835   0.935
52326W        W18735   0.736  23.220  14.877
52327W        W18736  25.758  16.072  12.577
52328W        W18737  18.777  37.534   0.800
52329W        W18738  33.968   4.899  11.201
52330W        W18739  32.523   3.174   1.424
52331W        W18740  43.807   2.268  10.380
52332W        W18741  24.490  18.573   4.560
52333W        W18742  17.159  14.321  13.013
52334W        W18743   5.251  20.777  12.069
52335W        W18744  33.229  21.393  11.963
52336W        W18745   7.347  31.869   2.262
52337W        W18746  17.025  42.796   0.303
52338W        W18747  33.075  36.524  11.493
52339W        W18748   8.901   1.880  14.375
52340W        W18749  40.540   8.436   1.270
52341W        W18750  30.677  40.650  12.104
52342W        W18751  19.098   2.986   3.313
52343W        W18752  14.426  29.923   2.632
52344W        W18753  16.856   0.396  14.552
52345W        W18754  29.887  22.491   3.560
52346W        W18755  27.294  38.683   4.662
52347W        W18756  40.618  39.357  13.373
52348W        W18757  37.612  34.577  14.919
52349W        W18758   4.249   1.478   1.811
52350W        W18759  43.428   7.671   5.101
52351W        W18760  42.604  18.529  11.630
52352W        W18761  41.279  32.317   3.741
52353W        W18762  12.810  24.502   3.272
52354W        W18763  23.178  32.901  14.339
52355W        W18764  10.178  10.637   0.553
52356W        W18765   6.931  11.908   0.866
52357W        W18766  31.505  13.883   0.541
52358W        W18767  30.882  41.014   4.142
52359W        W18768  32.789  29.725   4.142
52360W        W18769  35.486  41.276   4.401
52361W        W18770  25.758  41.337   2.719
52362W        W18771   9.855  20.415  11.252
52363W        W18772   4.950  23.117  14.780
52364W        W18773   2.298  30.446  13.533
52365W        W18774  17.018   8.424   1.413
52366W        W18775  23.709  21.679   2.414
52367W        W18776  15.303  19.856  14.535
52368W        W18777  36.146  28.508   2.113
52369W        W18778  23.037  22.000   2.305
52370W        W18779  29.734  41.882  11.557
52371W        W18780  30.366  35.554  10.577
52372W        W18781  17.971  38.348  13.757
52373W        W18782  17.316  43.420  12.158
52374W        W18783  30.023  32.516  13.818
52375W        W18784  12.607  25.207   0.454
52376W        W18785  27.953   9.120  11.110
52377W        W18786  24.752   1.210   3.562
52378W        W18787  17.697  21.753  14.839
52379W        W18788  36.872  32.360  11.022
52380W        W18789  38.667  15.198   5.095
52381W        W18790   7.714   7.576  14.277
52382W        W18791  24.610  20.827  10.133
52383W        W18792  10.870  35.637  14.414
52384W        W18793  39.511  10.578  10.620
52385W        W18794  37.300  19.393   0.738
52386W        W18795  23.472  28.284   4.153
52387W        W18796   3.535   1.707   2.334
52388W        W18797  16.612   6.085  13.468
52389W        W18798   5.208  14.814  13.619
52390W        W18799  16.627  35.212   3.831
52391W        W18800  43.478  21.748  11.775
52392W        W18801  28.173  20.800  13.847
52393W        W18802  10.318  40.752   4.634
52394W        W18803  43.490  10.716   4.931
52395W        W18804  12.822  13.681  11.685
52396W        W18805   7.807   6.292  13.565
52397W        W18806  37.110   3.443   0.464
52398W        W18807  23.370  33.008  12.463
52399W        W18808  25.298  20.175  12.961
52400W        W18809  18.625  35.188  14.333
52401W        W18810  10.540  33.583  13.753
52402W        W18811  14.800   1.373   0.177
52403W        W18812  16.767  36.806   0.976
52404W        W18813  36.406  19.106  14.466
52405W        W18814  27.366  19.016  11.547
52406W        W18815  15.344  34.925  14.324
52407W        W18816   8.216  27.721   1.881
52408W        W18817  15.754   2.879  14.751
52409W        W18818  36.854  12.128  14.594
52410W        W18819  15.676   4.142   2.692
52411W        W18820  17.469  21.740   1.396
52412W        W18821  23.407  16.528   1.657
52413W        W18822  41.892  41.785  13.369
52414W        W18823  21.756  37.886   1.252
52415W        W18824  27.393  23.185   1.711
52416W        W18825   0.682  25.004  12.442
52417W        W18826  36.856  42.395   4.264
52418W        W18827  27.203  41.055  12.442
52419W        W18828  33.192  44.934  14.802
52420W        W18829  27.524  17.700   4.642
52421W        W18830  25.913  29.518  14.036
52422W        W18831   9.271  10.380  14.300
52423W        W18832  21.063  26.677   3.387
52424W        W18833  23.485   1.805   4.405
52425W        W18834  13.801  28.472  11.188
52426W        W18835  42.029  13.198   4.313
52427W        W18836   7.555  33.669   4.954
52428W        W18837  15.119  34.959  10.632
52429W        W18838  29.090  32.675  11.063
52430W        W18839  24.033  15.722  11.609
52431W        W18840  12.577   4.193  10.986
52432W        W18841  29.926  32.175  11.670
52433W        W18842   5.786  32.803   3.283
52434W        W18843  10.759  30.559  12.808
52435W        W18844   4.938  33.317  12.619
52436W        W18845  12.805  26.112   4.305
52437W        W18846  44.892   7.113   2.627
52438W        W18847   8.877  13.318  11.429
52439W        W18848  37.803  44.390  14.913
52440W        W18849   8.421  41.960   2.301
52441W        W18850  24.038   9.512  13.458
52442W        W18851  38.941  30.656   3.730
52443W        W18852  32.289   8.127   2.748
52444W        W18853   5.898   0.268   1.353
52445W        W18854   8.472  24.242   1.850
52446W        W18855   6.453  29.071   1.133
52447W        W18856   2.298  38.113   0.080
52448W        W18857  16.724   6.692  12.131
52449W        W18858  13.134   4.427  13.782
52450W        W18859   5.359   7.681  13.980
52451W        W18860  22.637  19.364  13.385
52452W        W18861  44.025  13.327   0.859
52453W        W18862  23.459  39.486   1.530
52454W        W18863   6.867  39.258   2.829
52455W        W18864  33.820  31.692   1.056
52456W        W18865  44.938  20.645  14.952
52457W        W18866   5.740  44.680  14.025
52458W        W18867  21.003  17.836  11.491
52459W        W18868   1.867  19.551   2.130
52460W        W18869   7.464  11.382  12.980
52461W        W18870  24.081  36.852   2.719
52462W        W18871  26.364   4.459  14.960
52463W        W18872  11.745  31.968  11.170
52464W        W18873   6.860  16.093  12.154
52465W        W18874  44.863   1.970   3.824
52466W        W18875   0.227  23.024  11.276
52467W        W18876  24.611  19.324   0.336
52468W        W18877  17.793  43.211  14.895
52469W        W18878  33.332   0.557  13.996
52470W        W18879  23.819  29.605  13.307
52471W        W18880  15.404  14.268   1.684
52472W        W18881  21.078  28.502   4.199
52473W        W18882   5.314  18.595   4.143
52474W        W18883  21.683  16.273  14.079
52475W        W18884  35.654   2.294   2.217
52476W        W18885  12.201  44.186   5.133
52477W        W18886  34.235  23.086   1.700
52478W        W18887  37.326  31.470   0.738
52479W        W18888   5.924   6.711   0.978
52480W        W18889  18.196  22.400   4.191
52481W        W18890  39.002   0.720  12.997
52482W        W18891  22.517  35.616  11.189
52483W        W18892  31.719  36.631   1.317
52484W        W18893  21.926  32.962  13.954
52485W        W18894  24.442   1.533   3.228
52486W        W18895  18.222  26.244   2.332
52487W        W18896  36.109  28.111  14.050
52488W        W18897  36.867  23.003  14.900
52489W        W18898  14.676  16.280  11.907
52490W        W18899  44.281  35.020   3.606
52491W        W18900   4.745  25.688  12.511
52492W        W18901  12.373  21.527   2.393
52493W        W18902   5.759  28.915   2.351
52494W        W18903  23.063   9.901  14.193
52495W        W18904  24.200  14.938   4.219
52496W        W18905  44.524   0.102   2.264
52497W        W18906  15.903  17.006   3.126
52498W        W18907  33.160  21.228  12.883
52499W        W18908  19.566   3.928  12.044
52500W        W18909  11.909  12.921   0.259
52501W        W18910   5.472  44.986  11.517
52502W        W18911  38.358   6.039   0.539
52503W        W18912  21.092  38.934  14.605
52504W        W18913  27.634   6.347   1.220
52505W        W18914  34.479   1.810   2.114
52506W        W18915  24.999   5.233   0.497
52507W        W18916   1.432  43.858  10.720
52508W        W18917  15.537   1.617  10.698
52509W        W18918  14.665  19.247   5.372
52510W        W18919  15.154  25.058  14.604
52511W        W18920  39.944  17.400  13.447
52512W        W18921  25.594  39.376  12.328
52513W        W18922   9.930  11.804  12.863
52514W        W18923  13.871   6.723   1.293
52515W        W18924  14.668  29.586   3.714
52516W        W18925  41.451  27.672  13.100
52517W        W18926  11.130  41.964  12.902
52518W        W18927  38.636  12.599   2.342
52519W        W18928  19.451  26.207   0.829
52520W        W18929   3.261   0.346  14.101
52521W        W18930   6.767  44.869  14.301
52522W        W18931  35.677  26.556   4.600
52523W        W18932   4.278  25.205  10.287
52524W        W18933  12.685  19.150  14.319
52525W        W18934   5.591  27.547   4.093
52526W        W18935  28.046  23.013   0.075
52527W        W18936  37.645   4.934   4.655
52528W        W18937  34.988  39.110   0.339
52529W        W18938  17.557  39.900   1.836
52530W        W18939   5.910  17.638   2.716
52531W        W18940   6.943  26.859   4.894
52532W        W18941  17.563  27.476   2.718
52533W        W18942  23.509  15.110  11.123
52534W        W18943  24.530  20.550  12.568
52535W        W18944  16.338  40.420   3.474
52536W        W18945   8.784  17.548   4.542
52537W        W18946  24.414  16.159   0.667
52538W        W18947  12.541  13.439  11.313
52539W        W18948  12.856  12.745  12.830
52540W        W18949   3.821  29.398  11.086
52541W        W18950   2.695  35.681   0.013
52542W        W18951  32.049  43.241  12.175
52543W        W18952  37.937   9.594  12.045
52544W        W18953  35.958  27.637  12.903
52545W        W18954  23.798  34.782  13.315
52546W        W18955  44.153  14.302  14.883
52547W        W18956  20.187   6.907   1.415
52548W        W18957   1.804   0.499  12.337
52549W        W18958  37.005  34.384   1.675
52550W        W18959   8.443   0.235   9.985
52551W        W18960  23.443   9.067   2.787
52552W        W18961  26.445  25.647   1.775
52553W        W18962  18.323   9.296   3.292
52554W        W18963  31.571  40.375  14.828
52555W        W18964  12.222  35.339  14.412
52556W        W18965   3.833  11.877   3.099
52557W        W18966  29.157  25.423  12.489
52558W        W18967  21.275  21.866  10.485
52559W        W18968  11.591  19.517   2.885
52560W        W18969  11.208  34.703   1.670
52561W        W18970  12.768   9.781   3.177
52562W        W18971   0.248   0.826   0.773
52563W        W18972   6.711  35.931   0.810
52564W        W18973  19.796  16.038   3.730
52565W        W18974  23.448  15.701  13.351
52566W        W18975  31.611  29.328   0.154
52567W        W18976  41.064  20.287   3.103
52568W        W18977  35.769  21.758   0.861
52569W        W18978  17.301  28.045  12.025
52570W        W18979  24.488   6.128  12.934
52571W        W18980  37.593   1.154  12.424
52572W        W18981  25.276  30.469   2.794
52573W        W18982  39.746  30.647   2.097
52574W        W18983  31.538   5.675   1.640
52575W        W18984  22.692  41.397  14.056
52576W        W18985  12.630  29.199   4.153
52577W        W18986  30.675  41.773   1.483
52578W        W18987  32.885  41.245   0.809
52579W        W18988  23.183  35.105   0.747
52580W        W18989   8.813  34.375   1.337
52581W        W18990  20.807   4.236   4.171
52582W        W18991  30.115  38.560   3.404
52583W        W18992  29.711  12.522   3.338
52584W        W18993  41.629  31.564   1.909
52585W        W18994  29.326  30.499  10.710
52586W        W18995   8.419  36.827  11.180
52587W        W18996   0.343  32.896   1.662
52588W        W18997   3.191   3.998   3.333
52589W        W18998  33.959  21.561   4.620
52590W        W18999  12.230  16.885   3.204
52591W        W19000  31.336  15.898  11.135
52592W        W19001  33.831  14.372   1.824
52593W        W19002  38.930  21.530  12.135
52594W        W19003   2.331  38.635   0.135
52595W        W19004  13.339  31.987  12.425
52596W        W19005  17.124  15.525  10.810
52597W        W19006  29.876  40.465   3.265
52598W        W19007   0.704  24.601  14.983
52599W        W19008  10.714  18.604   1.913
52600W        W19009  16.073   6.201   0.786
52601W        W19010   0.246  42.642   0.813
52602W        W19011  19.110  38.354   3.083
52603W        W19012   0.877  25.913   0.154
52604W        W19013  41.560  30.488   3.233
52605W        W19014   5.175  19.844  10.629
52606W        W19015  34.320  33.527  13.845
52607W        W19016  10.918  23.203  10.631
52608W        W19017  43.712   9.199   1.227
52609W        W19018  40.290  31.792   4.692
52610W        W19019  44.030   4.493  11.149
52611W        W19020  27.630  23.650   1.729
52612W        W19021  34.634  33.719   0.991
52613W        W19022  39.823   7.367   1.745
52614W        W19023  13.297  19.296   1.871
52615W        W19024  14.807  40.047  11.131
52616W        W19025   3.920  16.992  13.061
52617W        W19026  44.746   0.268  11.135
52618W        W19027  21.162  33.458   3.655
52619W        W19028  24.075   4.831  14.495
52620W        W19029  15.616  39.752   3.090
52621W        W19030  31.027  31.877   4.160
52622W        W19031  23.782  16.835   1.332
52623W        W19032   6.966  13.722   1.837
52624W        W19033  35.699  26.585  13.702
52625W        W19034  22.388  23.785   5.029
52626W        W19035  23.728  27.420  13.274
52627W        W19036  44.339  20.334   3.232
52628W        W19037  16.335  29.380   0.569
52629W        W19038  31.679  36.941  14.916
52630W        W19039  25.164   7.307  14.520
52631W        W19040   3.497  33.169  14.318
52632W        W19041  13.292  26.243   4.171
52633W        W19042  13.473  10.619  13.849
52634W        W19043  31.540   8.356   1.163
52635W        W19044  30.932  32.792   4.212
52636W        W19045  35.892  12.732  10.701
52637W        W19046  12.463  15.585  11.684
52638W        W19047   8.792  35.157   1.657
52639W        W19048  25.245  26.476   1.410
52640W        W19049  21.579  39.326  12.443
52641W        W19050   7.010  43.944   0.890
52642W        W19051   2.616   0.471   4.020
52643W        W19052  43.492   2.441   4.590
52644W        W19053   4.633  17.052   4.445
52645W        W19054  22.996   0.955  11.419
52646W        W19055  14.600   1.905   0.859
52647W        W19056  41.495  23.984  13.494
52648W        W19057  12.250   4.302  13.748
52649W        W19058  15.550  16.629  14.721
52650W        W19059   7.194  11.157   0.322
52651W        W19060  38.280   0.754  13.339
52652W        W19061  44.359   4.721  11.962
52653W        W19062  43.088   4.810  12.384
52654W        W19063  29.253   5.463   3.943
52655W        W19064  35.051   3.995  10.879
52656W        W19065   9.148  26.161  14.408
52657W        W19066  26.663  23.160   9.756
52658W        W19067  12.749   8.662   4.205
52659W        W19068  44.087  10.425  12.562
52660W        W19069  30.342   6.274   4.028
52661W        W19070   4.048  11.698  10.107
52662W        W19071  25.933   2.864  12.038
52663W        W19072  42.900  21.253  12.470
52664W        W19073  36.500  25.989  13.385
52665W        W19074   5.529  21.780   4.263
52666W        W19075  31.440   8.822   0.409
52667W        W19076   1.432   9.710   9.684
52668W        W19077   5.758  19.093  11.012
52669W        W19078   8.762  35.050  12.491
52670W        W19079  36.300  17.301   4.563
52671W        W19080  29.964  38.554  11.214
52672W        W19081  35.543   9.807   4.418
52673W        W19082  27.124  37.792  11.054
52674W        W19083   7.719  36.140  11.208
52675W        W19084  25.493  33.433  13.726
52676W        W19085  27.360  15.116   1.486
52677W        W19086   6.389  16.504  14.834
52678W        W19087  41.378  23.323   1.331
52679W        W19088  30.646  28.963   1.109
52680W        W19089  15.163   1.918  10.520
52681W        W19090  35.773  43.086   2.336
52682W        W19091  29.247   8.438   2.184
52683W        W19092  17.665  20.525   0.291
52684W        W19093  39.856  39.944  13.556
52685W        W19094  37.050  25.458   0.842
52686W        W19095  12.213   1.439  10.349
52687W        W19096  34.548  25.206   2.506
52688W        W19097  32.310  36.072   0.681
52689W        W19098  31.415  24.750   4.660
52690W        W19099  21.713  42.997   1.445
52691W        W19100  44.434  27.191   1.384
52692W        W19101  44.388  10.290   1.064
52693W        W19102  44.024  15.274   2.842
52694W        W19103  12.879  21.178  13.904
52695W        W19104   3.141  10.527  12.557
52696W        W19105  21.247   3.365  13.623
52697W        W19106   7.171  41.354   2.140
52698W        W19107  40.097  24.912  11.176
52699W        W19108  20.486  28.653  12.221
52700W        W19109  39.142  17.301  13.005
52701W        W19110  10.873   2.815   3.437
52702W        W19111  15.838  17.251  12.928
52703W        W19112  31.624   6.489   0.348
52704W        W19113  40.708   8.221  14.476
52705W        W19114  28.050  30.616   3.595
52706W        W19115  42.704  27.045   4.268
52707W        W19116  11.554  44.621   4.724
52708W        W19117  34.438   4.357   4.163
52709W        W19118  28.967   7.754   5.289
52710W        W19119  22.055   4.153  12.417
52711W        W19120  34.410   4.879   1.313
52712W        W19121  21.625  24.998   3.756
52713W        W19122  18.672  36.096  14.818
52714W        W19123  35.964  20.731  11.757
52715W        W19124   9.356   3.482   2.715
52716W        W19125  13.659  32.138   2.823
52717W        W19126  18.234   5.326  13.964
52718W        W19127  35.199   3.747   0.837
52719W        W19128  32.116  30.172   2.717
52720W        W19129  19.695  12.749  13.813
52721W        W19130  11.477  31.410  13.552
52722W        W19131  29.132  42.536  12.544
52723W        W19132  29.853  43.071  14.477
52724W        W19133  29.296  35.844   3.173
52725W        W19134   4.095  32.535   0.807
52726W        W19135  29.408   9.463   4.343
52727W        W19136  36.502  14.242   3.813
52728W        W19137  24.031  20.088  14.665
52729W        W19138  30.488  29.348  14.904
52730W        W19139  38.859   1.611  14.334
52731W        W19140  36.666  24.636  12.454
52732W        W19141   3.631  34.513   3.209
52733W        W19142  21.413   0.355  11.136
52734W        W19143  35.034  21.668   4.469
52735W        W19144  23.507  18.228  14.014
52736W        W19145  42.331  37.966  10.573
52737W        W19146   8.662  26.174   3.202
52738W        W19147  37.762  42.367  13.522
52739W        W19148  34.077  30.543  13.855
52740W        W19149  34.458  27.980  14.444
52741W        W19150   7.391  33.450  11.026
52742W        W19151  40.705  35.314   0.397
52743W        W19152  14.033  10.181   2.292
52744W        W19153  20.111  19.790   2.225
52745W        W19154   8.245  24.167   3.576
52746W        W19155  37.256  42.325  13.430
52747W        W19156  43.883  24.187   3.484
52748W        W19157  40.319  36.484   1.742
52749W        W19158  43.332  44.106   3.322
52750W        W19159  11.746  16.239  12.578
52751W        W19160  23.121   6.571  10.437
52752W        W19161  39.462  40.869   0.775
52753W        W19162  43.803  39.575   4.206
52754W        W19163  42.426  11.606   0.778
52755W        W19164   1.221   9.315  12.428
52756W        W19165  24.924   2.955  12.014
52757W        W19166  33.375   7.409  11.447
52758W        W19167   9.972  29.449  10.549
52759W        W19168  33.144  13.674   3.709
52760W        W19169  11.131  44.021   1.244
52761W        W19170  31.113  16.201  14.819
52762W        W19171  36.929  21.594  11.075
52763W        W19172  24.203  25.811   4.615
52764W        W19173  32.295   6.577  11.152
52765W        W19174   0.725  31.888   0.268
52766W        W19175  36.548  11.062  12.524
52767W        W19176  26.580  34.653   1.862
52768W        W19177  28.298  19.695   5.119
52769W        W19178  41.764  38.921   4.958
52770W        W19179   1.473   6.432  11.915
52771W        W19180  27.209  44.774  11.609
52772W        W19181  11.717  16.784  13.981
52773W        W19182   1.382  39.416   4.952
52774W        W19183  19.102  25.504   0.852
52775W        W19184  43.533  20.682  13.993
52776W        W19185   7.190  27.113   3.083
52777W        W19186  32.323  12.899   2.705
52778W        W19187   8.640  36.462   4.169
52779W        W19188  41.378  25.585  13.034
52780W        W19189  31.529  32.989   3.429
52781W        W19190  20.754  19.282  11.094
52782W        W19191  29.775  18.547  10.820
52783W        W19192   8.137  43.365   0.323
52784W        W19193   8.496  24.465   0.232
52785W        W19194  19.638  31.977   0.758
52786W        W19195  21.491  39.423  11.926
52787W        W19196  11.410  10.957  10.660
52788W        W19197  25.438  39.500   1.939
52789W        W19198  31.288  20.210   1.393
52790W        W19199  26.639  25.023  13.854
52791W        W19200  41.562  20.945   4.390
52792W        W19201  12.504   8.451  14.436
52793W        W19202  26.254  39.279  14.910
52794W        W19203  13.596   9.134   1.310
52795W        W19204  23.206  39.076  13.054
52796W        W19205   9.206  33.060  12.712
52797W        W19206   3.040  34.864   1.290
52798W        W19207  29.388   7.973   1.354
52799W        W19208  19.033   6.776  14.366
52800W        W19209  27.939  18.226  13.957
52801W        W19210  12.593  18.294  11.410
52802W        W19211  34.460  26.689   1.868
52803W        W19212  34.832  22.202  14.675
52804W        W19213   6.151   7.917  12.343
52805W        W19214  25.660   8.389   0.263
52806W        W19215  27.673   4.240  12.920
52807W        W19216   6.717  43.180  12.464
52808W        W19217  16.137  17.017   2.180
52809W        W19218  16.809  38.638  13.286
52810W        W19219  17.422  27.574  11.078
52811W        W19220   7.800  21.761   0.015
52812W        W19221  11.418   9.117   0.434
52813W        W19222   8.992  16.267   0.491
52814W        W19223  12.077  28.018   1.123
52815W        W19224  17.536   6.224  14.314
52816W        W19225  18.601  18.256  14.782
52817W        W19226  13.778  14.839  11.561
52818W        W19227  38.342  41.259  14.930
52819W        W19228  43.542  28.674  11.716
52820W        W19229   4.799   5.167   2.838
52821W        W19230  19.811   5.600  14.430
52822W        W19231  23.584  13.722  11.567
52823W        W19232  32.589  10.703   0.190
52824W        W19233  11.180  36.128  10.922
52825W        W19234  23.609  44.001  13.315
52826W        W19235  43.835   8.393  14.956
52827W        W19236  35.998  25.335  12.176
52828W        W19237  26.141  11.338  14.454
52829W        W19238  42.002  20.028  14.330
52830W        W19239  22.153   3.420   3.385
52831W        W19240  25.542  33.106  10.722
52832W        W19241  37.449  21.632   3.618
52833W        W19242   4.409  36.723   5.102
52834W        W19243  38.958  32.708   0.268
52835W        W19244  24.670  29.189   0.844
52836W        W19245  19.695  30.688  12.937
52837W        W19246  41.419  10.761   1.605
52838W        W19247  35.053  12.819   3.309
52839W        W19248  30.342   1.861  12.879
52840W        W19249   4.205  14.734   3.091
52841W        W19250  44.574  41.995  14.263
52842W        W19251  13.009  18.715  13.964
52843W        W19252  34.808   5.617  10.254
52844W        W19253   1.617  12.806  10.660
52845W        W19254  11.627  21.624  11.700
52846W        W19255  27.968  17.683  11.637
52847W        W19256  36.685  10.732  13.763
52848W        W19257  23.209   4.689   2.690
52849W        W19258   9.126   1.329  11.696
52850W        W19259  38.157   1.364  10.644
52851W        W19260  31.838  12.705   1.378
52852W        W19261  11.872  39.508   1.146
52853W        W19262   4.378  38.894  12.902
52854W        W19263  35.524  44.919   3.683
52855W        W19264  23.965  36.588  12.329
52856W        W19265  12.633   7.728   2.372
52857W        W19266  41.115  22.366   1.312
52858W        W19267   6.345  14.041   3.287
52859W        W19268  11.861  43.206  10.540
52860W        W19269  35.532  41.813   3.738
52861W        W19270  18.253  29.165  10.894
52862W        W19271  31.058   1.877  12.462
52863W        W19272  39.266  18.822   0.025
52864W        W19273   0.626  12.777  10.339
52865W        W19274  28.098   7.812   1.819
52866W        W19275  13.867  23.551   0.789
52867W        W19276   3.477  34.912   2.258
52868W        W19277  22.960  41.950   3.754
52869W        W19278  30.977  43.164  12.980
52870W        W19279  37.260   6.669  13.443
52871W        W19280  39.907  22.645   4.577
52872W        W19281  38.179   5.982  13.588
52873W        W19282   7.856  36.945  13.753
52874W        W19283   0.891  15.867  13.587
52875W        W19284   9.633   2.140  10.893
52876W        W19285  16.157  11.639   0.753
52877W        W19286  35.099  19.012  14.467
52878W        W19287   0.236  12.642   4.178
52879W        W19288  34.529   1.952  13.927
52880W        W19289  32.722   0.938  13.085
52881W        W19290   8.467  25.523   1.294
52882W        W19291  11.222  26.938   4.103
52883W        W19292  36.089  21.281  13.819
52884W        W19293  25.178  25.716  14.375
52885W        W19294  20.140  11.603   1.760
52886W        W19295  26.653  43.909  12.869
52887W        W19296  21.040  19.233  11.526
52888W        W19297  12.264  44.807   9.790
52889W        W19298   6.696  14.640  12.886
52890W        W19299  21.040   9.227  11.040
52891W        W19300  41.779  27.164  12.923
52892W        W19301   8.828  40.950   1.358
52893W        W19302  37.111  18.441   4.167
52894W        W19303  42.527  18.266   1.661
52895W        W19304   2.354   1.323   1.414
52896W        W19305  25.469   1.386   0.024
52897W        W19306   1.255  36.468   3.798
52898W        W19307  36.547  39.865   2.259
52899W        W19308  17.524   8.664   2.432
52900W        W19309   0.442  12.270   2.124
52901W        W19310  32.932  29.923   3.164
52902W        W19311  16.532  29.958  14.443
52903W        W19312   7.471  38.919   4.282
52904W        W19313  43.152   8.207  10.320
52905W        W19314  19.229  22.725  12.588
52906W        W19315   9.678  42.503   4.979
52907W        W19316  44.776   0.745  11.271
52908W        W19317  14.224   0.005  12.014
52909W        W19318  10.796   1.502  13.461
52910W        W19319  13.827  28.425   0.258
52911W        W19320  27.037  29.055  13.550
52912W        W19321  19.617   7.857   3.864
52913W        W19322  31.910  41.586   4.124
52914W        W19323   1.234  34.478  10.695
52915W        W19324  17.543  35.625   1.322
52916W        W19325  41.722   3.731   2.679
52917W        W19326  18.865  41.153  12.987
52918W        W19327   7.669   2.197   1.442
52919W        W19328  29.422  38.532   3.771
52920W        W19329  14.094  24.594   4.107
52921W        W19330  34.653  34.222   0.842
52922W        W19331  30.920  16.528   4.227
52923W        W19332  21.222  28.527   1.608
52924W        W19333   4.251  35.913  12.081
52925W        W19334  35.551  27.926  14.824
52926W        W19335  39.799  28.430   1.199
52927W        W19336  10.205  31.191  13.897
52928W        W19337  20.612  12.840   1.900
52929W        W19338  43.081   0.829   4.519
52930W        W19339   5.743  29.233  10.624
52931W        W19340  13.698   9.179  12.871
52932W        W19341  32.966  39.151   2.792
52933W        W19342  34.345  15.671  14.940
52934W        W19343  35.072  21.331  11.174
52935W        W19344   3.654   5.591  11.218
52936W        W19345  21.751  28.130   1.229
52937W        W19346  35.407  14.778   3.211
52938W        W19347  42.355  18.647   9.907
52939W        W19348   5.412   4.881   1.774
52940W        W19349   4.209  32.035  14.962
52941W        W19350  42.220  40.242   1.771
52942W        W19351   9.922  13.090   0.413
52943W        W19352  11.473  34.080  11.303
52944W        W19353  15.809  15.737  12.640
52945W        W19354  43.737   0.353  12.388
52946W        W19355   2.693  14.634   1.959
52947W        W19356  43.280  43.551  13.002
52948W        W19357  42.351  39.447  10.703
52949W        W19358  30.061  34.362   3.222
52950W        W19359  42.807  24.849   2.624
52951W        W19360   0.690  40.974  11.546
52952W        W19361   8.177  36.389  11.383
52953W        W19362  25.875   7.753   1.442
52954W        W19363  30.976  25.283  11.034
52955W        W19364  10.717  26.986  12.848
52956W        W19365  29.579  24.624  10.452
52957W        W19366   9.836   5.154   3.652
52958W        W19367  39.578  43.112  13.450
52959W        W19368  30.807  11.228   1.500
52960W        W19369   4.284  27.345  14.304
52961W        W19370   9.711  37.651  13.105
52962W        W19371  41.291  26.647  13.748
52963W        W19372  24.533  29.393  13.719
52964W        W19373   5.457   3.470   4.554
52965W        W19374  39.823  44.275   2.097
52966W        W19375   9.435  27.066  11.126
52967W        W19376  20.140  30.811  11.976
52968W        W19377  44.032   8.208  11.437
52969W        W19378  32.729  21.279  13.907
52970W        W19379  26.087  24.612  14.943
52971W        W19380  25.200  22.303   4.127
52972W        W19381  37.758   7.162  11.186
52973W        W19382   4.454  29.630  13.095
52974W        W19383  31.506  41.997   0.848
52975W        W19384   2.727  10.583  14.603
52976W        W19385   0.456  12.592   3.681
52977W        W19386  42.281   4.945   1.901
52978W        W19387   3.409  11.560   3.770
52979W        W19388   6.092  25.323  13.549
52980W        W19389  13.768   1.104  13.850
52981W        W19390  18.197  34.866  14.268
52982W        W19391  38.424  25.224  10.613
52983W        W19392  22.308  35.581   4.192
52984W        W19393   9.314  36.509   4.765
52985W        W19394   8.973  20.254   0.532
52986W        W19395  40.120  16.303  10.829
52987W        W19396  41.743  26.701   1.346
52988W        W19397  34.935   3.668   3.293
52989W        W19398  36.300  21.466  11.123
52990W        W19399  16.845  13.573   1.174
52991W        W19400   5.798  11.951   2.277
52992W        W19401  41.558  20.673   0.811
52993W        W19402  31.615  20.102   4.293
52994W        W19403  37.510   8.777  11.113
52995W        W19404  16.282  42.104   4.576
52996W        W19405  19.057   3.732   2.408
52997W        W19406  36.527   7.212   0.321
52998W        W19407  11.276   1.467  13.244
52999W        W19408   1.990  10.450   2.745
53000W        W19409   5.491   1.257  13.564
53001W        W19410  43.402  37.689  11.152
53002W        W19411  28.209  19.215   5.039
53003W        W19412  30.090  16.600  12.429
53004W        W19413  34.949  24.158   2.924
53005W        W19414  44.972  22.561  14.828
53006W        W19415  11.808  29.538  10.954
53007W        W19416  20.791   4.219  11.094
53008W        W19417  21.021  17.804   4.106
53009W        W19418  35.979   4.427   1.681
53010W        W19419  34.956  12.416  12.759
53011W        W19420  33.680  23.472  12.338
53012W        W19421  37.048  17.698  12.412
53013W        W19422  26.229  14.721   2.524
53014W        W19423  43.701  30.190  13.411
53015W        W19424   9.648  12.681   0.229
53016W        W19425  16.036  23.731   3.321
53017W        W19426  41.939  26.851   3.789
53018W        W19427   5.806  30.587  12.065
53019W        W19428   6.412  44.790  10.628
53020W        W19429  41.798  27.535  13.880
53021W        W19430  38.726  34.936  13.835
53022W        W19431  26.548   2.098   0.150
53023W        W19432  26.546  22.311  12.012
53024W        W19433  11.165  37.622   0.296
53025W        W19434  18.559  40.058  10.240
53026W        W19435  22.286  43.834   3.190
53027W        W19436  35.086  31.683  13.975
53028W        W19437  25.001   6.846   1.594
53029W        W19438  41.258  18.664  10.675
53030W        W19439   2.376  12.363  14.997
53031W        W19440  30.063  17.248  13.605
53032W        W19441  22.059   7.620   1.702
53033W        W19442   8.663  15.781   3.243
53034W        W19443  20.619  44.026  11.104
53035W        W19444  26.206  23.734  12.858
53036W        W19445  20.423  11.361  13.507
53037W        W19446  20.348  31.029   3.177
53038W        W19447  15.694  32.037  11.927
53039W        W19448   7.444  24.253   1.830
53040W        W19449  26.696  10.591  13.875
53041W        W19450  18.443   3.420  13.919
53042W        W19451  37.847   3.402  10.619
53043W        W19452  22.331   2.288   1.842
53044W        W19453  42.831  38.117  10.528
53045W        W19454  16.694   3.549   4.289
53046W        W19455   7.564   3.621  14.151
53047W        W19456  31.514  41.753   2.363
53048W        W19457  23.032   8.163  13.420
53049W        W19458   9.175  19.713  14.817
53050W        W19459   2.153  43.276  14.322
53051W        W19460  41.600  32.034  12.115
53052W        W19461  20.047  18.284  12.599
53053W        W19462  22.544  18.112   3.379
53054W        W19463  40.430  42.029   3.720
53055W        W19464   6.648  37.885  14.822
53056W        W19465   5.891  40.862  14.426
53057W        W19466  14.775  26.579  13.550
53058W        W19467  35.159   1.413   3.231
53059W        W19468  31.503  40.896  14.776
53060W        W19469  10.444  40.280  12.730
53061W        W19470  14.973  11.867  13.552
53062W        W19471   0.798   3.534  11.446
53063W        W19472  31.025  37.820   0.386
53064W        W19473  29.648  36.772  14.843
53065W        W19474  37.217  37.207   2.193
53066W        W19475  14.908  41.715   4.270
53067W        W19476   6.391  27.883   4.211
53068W        W19477  25.467   2.001   1.748
53069W        W19478  41.053  35.893  13.417
53070W        W19479   8.807   1.948  10.189
53071W        W19480  44.783  20.694   3.149
53072W        W19481   0.472  31.611   3.857
53073W        W19482   2.970  43.886  10.724
53074W        W19483  37.484  39.509   2.140
53075W        W19484  42.425  26.260  13.076
53076W        W19485  26.539  40.429   4.115
53077W        W19486  14.854  35.136  12.543
53078W        W19487  37.104  36.068   0.600
53079W        W19488  20.804  34.476  14.200
53080W        W19489  14.655  10.389   4.830
53081W        W19490   2.190  27.240  12.124
53082W        W19491  16.331  28.966  12.188
53083W        W19492  23.121   0.311   3.398
53084W        W19493  31.961  24.928   2.169
53085W        W19494  10.182  34.304   0.739
53086W        W19495   2.515  44.883  13.669
53087W        W19496  28.658  37.598   4.461
53088W        W19497  13.150  10.324  14.992
53089W        W19498   6.633  38.344   2.390
53090W        W19499  15.917  29.030  11.593
53091W        W19500  20.274  29.002  11.237
53092W        W19501  28.149  32.070  12.584
53093W        W19502  33.802  39.387   2.342
53094W        W19503  43.956   8.357  10.956
53095W        W19504  23.656   5.851  12.918
53096W        W19505   8.347  12.153  13.499
53097W        W19506  16.482  29.068  12.666
53098W        W19507  40.346  39.429  10.502
53099W        W19508  10.623  22.947  10.967
53100W        W19509  11.588  43.476  13.104
53101W        W19510   5.587  26.774   4.659
53102W        W19511   3.838  33.669  10.425
53103W        W19512  26.047   5.413   2.658
53104W        W19513  43.437  31.437  11.118
53105W        W19514  10.732   0.574   0.139
53106W        W19515  23.016  24.775   2.293
53107W        W19516  42.182  22.934  11.470
53108W        W19517  34.726  31.122  11.591
53109W        W19518  22.282   0.726   0.224
53110W        W19519  15.610  39.510   4.633
53111W        W19520   3.987  19.714  14.407
53112W        W19521  44.494   5.348  12.966
53113W        W19522  25.935  23.279  12.994
53114W        W19523  17.408  30.425   0.966
53115W        W19524   0.543   3.039   1.313
53116W        W19525   9.449   9.372   4.131
53117W        W19526  34.774  36.434   1.835
53118W        W19527   4.846  31.442   3.245
53119W        W19528  31.710   9.627  10.832
53120W        W19529  28.765  43.540  14.579
53121W        W19530  37.983   4.832  11.555
53122W        W19531  40.039  16.425   2.240
53123W        W19532   9.158   3.252  14.274
53124W        W19533  36.911  41.485   4.834
53125W        W19534  16.313  19.861  12.894
53126W        W19535   5.142  14.120   4.201
53127W        W19536   1.246  22.696   3.681
53128W        W19537  23.160  32.626  12.855
53129W        W19538   2.086   5.746  10.580
53130W        W19539  19.972   7.258  11.656
53131W        W19540  41.248   7.241   2.290
53132W        W19541  18.258  10.304  10.819
53133W        W19542  39.976  41.953   2.157
53134W        W19543  31.562   6.217  14.041
53135W        W19544   6.508   1.733   2.226
53136W        W19545   9.658   3.317  10.777
53137W        W19546  40.843  30.181   1.409
53138W        W19547  42.403   6.681   2.683
53139W        W19548  18.850   0.851  14.340
53140W        W19549   8.741  32.590   3.334
53141W        W19550  16.348  44.423   3.990
53142W        W19551   6.334  18.219  13.493
53143W        W19552  29.752  25.175   3.453
53144W        W19553  12.940  11.915   0.789
53145W        W19554  13.549  31.721   3.852
53146W        W19555  44.098  32.136  11.306
53147W        W19556   0.499  10.093  10.256
53148W        W19557  43.899   6.018  14.828
53149W        W19558  11.722  20.029   3.320
53150W        W19559  14.740   1.957   9.801
53151W        W19560  42.511  36.151   2.402
53152W        W19561  11.320  18.323  10.419
53153W        W19562  27.882   9.627  12.503
53154W        W19563   2.312  14.378   1.352
53155W        W19564  22.055   3.669  12.589
53156W        W19565  18.733  38.024   4.035
53157W        W19566   5.306   6.166  13.534
53158W        W19567  36.496  33.137  11.204
53159W        W19568   2.522  18.909   0.031
53160W        W19569  15.320  32.477   0.384
53161W        W19570   1.314  33.446  11.004
53162W        W19571   1.721  30.447  12.333
53163W        W19572   9.961  16.638   4.954
53164W        W19573  17.244  24.213   3.133
53165W        W19574  20.848  23.057  11.092
53166W        W19575   1.424  37.518   1.372
53167W        W19576  41.915   6.210  11.246
53168W        W19577  26.130  16.742  14.152
53169W        W19578  43.314  17.207   0.423
53170W        W19579  19.526  27.670   0.497
53171W        W19580  41.124   1.672   3.153
53172W        W19581  32.471  28.460   3.775
53173W        W19582  26.652  20.478   1.501
53174W        W19583   8.872   7.627   1.949
53175W        W19584  40.368   3.269   0.372
53176W        W19585  26.196  27.000  12.081
53177W        W19586  19.531   4.853   3.291
53178W        W19587   5.188  23.049   1.039
53179W        W19588  19.932  37.465  11.568
53180W        W19589  33.259   7.054   1.557
53181W        W19590  43.983   1.698  14.299
53182W        W19591   4.275  35.496  14.956
53183W        W19592  11.241   1.749   0.078
53184W        W19593  18.706  25.758  12.862
53185W        W19594  29.175   3.980   2.292
53186W        W19595  32.388  22.574  13.884
53187W        W19596  16.667  24.124   0.214
53188W        W19597  43.043  11.185  12.200
53189W        W19598  26.569  31.109   2.947
53190W        W19599  37.676  13.301  11.206
53191W        W19600  29.058  15.545   0.757
53192W        W19601   9.645  14.311  11.520
53193W        W19602  10.289  37.779   1.045
53194W        W19603  16.993  12.100  13.368
53195W        W19604  23.403  13.734   3.759
53196W        W19605  13.353   0.713   1.301
53197W        W19606  16.790  11.668   1.382
53198W        W19607  18.646   9.858   1.248
53199W        W19608  23.084  17.099   3.109
53200W        W19609  39.084  10.183   3.444
53201W        W19610  39.507   8.229  12.635
53202W        W19611  21.271  12.250  11.979
53203W        W19612  40.344  25.984  11.579
53204W        W19613  20.932   3.319   4.061
53205W        W19614  26.746  10.803   0.157
53206W        W19615   7.194   6.778  12.126
53207W        W19616  28.536  27.191   1.296
53208W        W19617  17.044  25.930  14.338
53209W        W19618  30.149  21.150  11.689
53210W        W19619  35.799  11.295  14.711
53211W        W19620  31.759   6.784  11.783
53212W        W19621  24.714   9.727   2.684
53213W        W19622  40.687  14.180  12.613
53214W        W19623  31.469  25.578   0.229
53215W        W19624   2.512  22.794  11.848
53216W        W19625  42.456  20.641   3.360
53217W        W19626  35.435  12.318  12.958
53218W        W19627   8.127  28.584   3.685
53219W        W19628  12.567  14.221   1.379
53220W        W19629  21.812   2.023  13.351
53221W        W19630   3.285  34.029   1.757
53222W        W19631  25.493  43.731   0.740
53223W        W19632  21.525  17.039   0.860
53224W        W19633  31.964  37.447  12.381
53225W        W19634   6.112  34.341   3.279
53226W        W19635  20.972  17.277   4.252
53227W        W19636  35.866  19.254  10.243
53228W        W19637  19.970   0.154  14.502
53229W        W19638   3.401   7.739  10.600
53230W        W19639  40.624  18.312   9.956
53231W        W19640  39.012   5.744   1.945
53232W        W19641  37.751  26.734   1.878
53233W        W19642  32.469   6.234  14.988
53234W        W19643  20.239  20.351  14.683
53235W        W19644  21.179  11.506  11.429
53236W        W19645   8.667  37.891  11.061
53237W        W19646  15.832  29.593   0.375
53238W        W19647   4.400   2.407  12.809
53239W        W19648   9.790  13.351  11.421
53240W        W19649  28.522  44.295   0.327
53241W        W19650  29.121   1.095  14.950
53242W        W19651  28.476  42.390   0.279
53243W        W19652  19.692  37.350   0.896
53244W        W19653   1.896   0.997  12.457
53245W        W19654  15.662  25.999   2.945
53246W        W19655  18.584  33.594  13.493
53247W        W19656  24.725   1.521   1.510
53248W        W19657   6.793  41.596  14.370
53249W        W19658   7.958  19.740   4.765
53250W        W19659  29.662  11.376   0.257
53251W        W19660  39.000   3.536   3.794
53252W        W19661   0.747  24.086  11.539
53253W        W19662   8.932   6.882  11.564
53254W        W19663  39.466  32.405   4.550
53255W        W19664  39.365  11.796  11.994
53256W        W19665  22.079  15.900  12.637
53257W        W19666   1.407  19.215   2.635
53258W        W19667  34.108   2.903  11.408
53259W        W19668   9.708  29.857   4.606
53260W        W19669  35.082   7.383  13.806
53261W        W19670   2.832  34.040  14.968
53262W        W19671  22.072  11.820   1.025
53263W        W19672  35.460  22.605   0.916
53264W        W19673   8.815  19.114   3.717
53265W        W19674  33.920  25.653  10.622
53266W        W19675  39.390  15.228  13.872
53267W        W19676  36.397  13.655   0.299
53268W        W19677  19.070   4.132  12.271
53269W        W19678  23.143   3.388  11.993
53270W        W19679   6.270  31.575  12.474
53271W        W19680  41.828  41.351   4.442
53272W        W19681   0.228  12.656  10.683
53273W        W19682   4.408   7.697   2.645
53274W        W19683  17.039  30.508   4.588
53275W        W19684  30.557  28.528   0.307
53276W        W19685  21.563   5.333   3.140
53277W        W19686   3.302  44.010  12.526
53278W        W19687  14.636  18.133  12.944
53279W        W19688  12.151  34.482   3.584
53280W        W19689  25.587  43.841  14.510
53281W        W19690  25.259  41.282   2.804
53282W        W19691  39.904  28.849   3.656
53283W        W19692  29.141  41.354   4.470
53284W        W19693  35.005   9.431  14.111
53285W        W19694  11.679  21.143   4.184
53286W        W19695  24.335  12.295  12.479
53287W        W19696  13.239  31.478   3.255
53288W        W19697  28.858  11.605  10.901
53289W        W19698  37.248  22.671   3.312
53290W        W19699  27.950  26.174   0.385
53291W        W19700  22.342  26.233  13.059
53292W        W19701  31.504  23.195  14.616
53293W        W19702  30.563  32.064  14.365
53294W        W19703  14.442  38.803  10.456
53295W        W19704  19.682  43.861  13.922
53296W        W19705  42.668  35.918  11.241
53297W        W19706  17.582  35.343  11.313
53298W        W19707  24.120  22.565  13.436
53299W        W19708  15.280  20.314  10.249
53300W        W19709  40.509  33.430   2.286
53301W        W19710  18.981   0.019   3.269
53302W        W19711  42.931  23.731  10.639
53303W        W19712  27.654  44.857  12.453
53304W        W19713  40.902  14.343   3.556
53305W        W19714   3.697   4.681   1.151
53306W        W19715   5.697   8.979  11.102
53307W        W19716  17.618  14.200   4.791
53308W        W19717  38.886  10.618  14.704
53309W        W19718  18.370  37.519  10.979
53310W        W19719  42.803  42.583  14.798
53311W        W19720   5.441  39.545  14.715
53312W        W19721  16.399  14.760   1.400
53313W        W19722  33.000  33.564  13.891
53314W        W19723  26.157  22.363   0.268
53315W        W19724  41.322  30.604   4.106
53316W        W19725   1.513  19.324  13.894
53317W        W19726  36.583  31.997  10.761
53318W        W19727  23.216  31.587   0.429
53319W        W19728  34.132  15.751  14.423
53320W        W19729  30.916  26.518   4.980
53321W        W19730  37.566  35.374   4.509
53322W        W19731  22.859  14.163   3.401
53323W        W19732  16.830  20.671   4.627
53324W        W19733  36.434  20.488  14.277
53325W        W19734  34.254  28.033   1.576
53326W        W19735  38.484  20.245  13.475
53327W        W19736  39.615   9.598   4.729
53328W        W19737  11.671  33.784   1.682
53329W        W19738  32.666  18.146   3.679
53330W        W19739  29.504  14.589   4.669
53331W        W19740   7.791  19.623   2.099
53332W        W19741   2.653  41.988   2.344
53333W        W19742  39.272  25.142   4.581
53334W        W19743   8.873  27.202   2.307
53335W        W19744  16.547  13.520   4.295
53336W        W19745  12.441  36.463  14.892
53337W        W19746  31.091  31.832  14.084
53338W        W19747   3.757   4.410  10.487
53339W        W19748  19.934  16.024   3.244
53340W        W19749  37.590  30.537  12.446
53341W        W19750   1.495   9.236  12.863
53342W        W19751  21.706  24.963   4.674
53343W        W19752   2.631  35.465   2.210
53344W        W19753  18.525  32.989   2.572
53345W        W19754  44.939  11.612  12.151
53346W        W19755  41.979  11.630   0.498
53347W        W19756   3.334  25.226   0.342
53348W        W19757  37.007   4.891   0.431
53349W        W19758  31.424   7.895   3.057
53350W        W19759  34.880  31.615   1.339
53351W        W19760  17.278  42.315   1.817
53352W        W19761  42.171  19.800   5.283
53353W        W19762  43.762  40.053   4.943
53354W        W19763   9.084  21.781   3.087
53355W        W19764  14.073   5.376   3.725
53356W        W19765  30.914  13.695   2.144
53357W        W19766  14.562  32.137   3.199
53358W        W19767   9.766  18.102  13.781
53359W        W19768   6.746   7.521   4.216
53360W        W19769  42.472   0.407  10.898
53361W        W19770   6.747   6.451  13.437
53362W        W19771  32.996  37.091  12.428
53363W        W19772  28.084  14.330  13.579
53364W        W19773  32.529   3.578   0.528
53365W        W19774   0.988  13.706  11.889
53366W        W19775   5.794  37.517  11.013
53367W        W19776  27.458  38.033   3.749
53368W        W19777  31.714  13.221   1.187
53369W        W19778  29.207  21.058   0.241
53370W        W19779  26.974  37.911   4.419
53371W        W19780  16.219  18.365  13.953
53372W        W19781  11.643  35.909  11.264
53373W        W19782  30.805  34.290  11.087
53374W        W19783   5.964  20.102   4.167
53375W        W19784   9.231  34.341   3.194
53376W        W19785  11.934  26.449  12.586
53377W        W19786  26.684  36.972  11.164
53378W        W19787  43.451  28.619   2.403
53379W        W19788  24.551  28.921   0.412
53380W        W19789   6.204   6.802  12.764
53381W        W19790  39.037   7.177   0.257
53382W        W19791   7.873   3.699  10.580
53383W        W19792   1.156  29.952   4.309
53384W        W19793   0.279  26.496   2.799
53385W        W19794  13.638  11.353  14.285
53386W        W19795  16.799  14.122   1.968
53387W        W19796  13.113   2.131   3.260
53388W        W19797  41.939  12.706   2.778
53389W        W19798  25.173  30.426  13.413
53390W        W19799  25.614  17.367   1.701
53391W        W19800  12.245  30.572   5.251
53392W        W19801  28.754  23.803  12.995
53393W        W19802  28.138   5.865  12.661
53394W        W19803   9.675   7.833   0.289
53395W        W19804  33.202  20.100   1.243
53396W        W19805  28.190  18.379  13.118
53397W        W19806  17.056  27.635   0.406
53398W        W19807  25.590  25.008  12.857
53399W        W19808  43.470  40.301  12.886
53400W        W19809  18.719  17.278   1.201
53401W        W19810  27.800  18.535   4.991
53402W        W19811  41.825  44.086  11.443
53403W        W19812   6.820  40.784   3.773
53404W        W19813  19.672  27.476  14.430
53405W        W19814  15.609  21.546  10.313
53406W        W19815   1.320  19.928   4.629
53407W        W19816  25.390  41.015  11.615
53408W        W19817  34.649   7.246   2.654
53409W        W19818  26.134  13.824  12.435
53410W        W19819   9.631   1.160  10.982
53411W        W19820  28.395  44.061   4.185
53412W        W19821  37.798  10.130   5.067
53413W        W19822  40.018  43.570   4.277
53414W        W19823  29.110  40.418   2.686
53415W        W19824  16.060  34.041   4.759
53416W        W19825  36.341  43.703  12.905
53417W        W19826  20.804  34.373  11.564
53418W        W19827  37.415   5.883   3.638
53419W        W19828  14.205  18.848  13.294
53420W        W19829   5.468   6.228  14.007
53421W        W19830  12.824  14.711  13.932
53422W        W19831  30.493  21.777   0.805
53423W        W19832  13.435  10.252  10.181
53424W        W19833  26.238  30.024  12.807
53425W        W19834  10.384  16.835   2.291
53426W        W19835   4.750  14.299   1.951
53427W        W19836  29.224  18.095  11.473
53428W        W19837  37.345  26.701  12.160
53429W        W19838   1.842   7.885  11.492
53430W        W19839  37.492   9.348  11.630
53431W        W19840  36.195  43.031   3.759
53432W        W19841  17.821  38.807   4.569
53433W        W19842   3.433   8.833   2.170
53434W        W19843   9.286   4.366  12.531
53435W        W19844   2.650  35.444  11.421
53436W        W19845   1.320  14.157   3.126
53437W        W19846  26.359  37.530   4.557
53438W        W19847  27.419  13.703  12.071
53439W        W19848  32.485   0.884  13.867
53440W        W19849  37.938  20.320  14.799
53441W        W19850   6.772  27.372   1.194
53442W        W19851  37.792  28.160   4.790
53443W        W19852  12.584  19.543   2.701
53444W        W19853  39.571   1.360  13.964
53445W        W19854  28.067   8.889  14.232
53446W        W19855  44.394  20.318  11.018
53447W        W19856   3.219  39.621   2.576
53448W        W19857  38.029  41.045   4.212
53449W        W19858   0.609  42.773   1.887
53450W        W19859  18.252  28.638   1.277
53451W        W19860  15.283  10.794   0.501
53452W        W19861  13.287  31.082   2.204
53453W        W19862  17.284   8.778   3.734
53454W        W19863   3.519  37.076  14.295
53455W        W19864   2.336  38.556   2.769
53456W        W19865  25.981  34.844  10.608
53457W        W19866  43.262  29.943  12.482
53458W        W19867  33.054  19.499  11.196
53459W        W19868  14.734  23.674   4.223
53460W        W19869  35.466  22.811   1.387
53461W        W19870  33.638  24.664  14.492
53462W        W19871  40.344   9.131  11.247
53463W        W19872  44.868  29.122   1.225
53464W        W19873  41.905  35.562  13.320
53465W        W19874  33.909  35.968  13.790
53466W        W19875  43.972  29.368  12.955
53467W        W19876  28.994  42.968  12.093
53468W        W19877   8.827  23.194  10.703
53469W        W19878   7.681  41.368   1.933
53470W        W19879  39.756   9.469   3.060
53471W        W19880  36.917   2.253  13.317
53472W        W19881  35.447  28.876   3.808
53473W        W19882  11.778   4.514  13.533
53474W        W19883  32.456  32.750  11.529
53475W        W19884  36.016  30.006  11.293
53476W        W19885  40.962  29.584   3.450
53477W        W19886   6.666   8.903  11.158
53478W        W19887  44.718   8.689  11.094
53479W        W19888  16.007  30.207   0.772
53480W        W19889  34.647   5.863  12.848
53481W        W19890  14.230  27.483   4.291
53482W        W19891  21.993   4.347  12.892
53483W        W19892  30.619  35.670   1.885
53484W        W19893  15.167  12.672   0.812
53485W        W19894  23.510  28.179   1.364
53486W        W19895   1.929  23.797  11.645
53487W        W19896   2.698  32.161   1.870
53488W        W19897  33.615  11.084   1.499
53489W        W19898  38.367   2.544   2.270
53490W        W19899   8.252  43.451  11.486
53491W        W19900  23.089  11.612   3.085
53492W        W19901  35.636  36.408   5.119
53493W        W19902   6.966   1.996  13.373
53494W        W19903  24.741  22.236   1.624
53495W        W19904  15.271  28.891   3.735
53496W        W19905   5.193  43.975   2.760
53497W        W19906  32.506  33.976   1.322
53498W        W19907   2.640   9.862  14.965
53499W        W19908  33.458   7.885  14.866
53500W        W19909  42.475  27.533   3.490
53501W        W19910  43.802  28.290  11.442
53502W        W19911  15.229  24.578   4.843
53503W        W19912  16.696  14.285   1.484
53504W        W19913  27.422  18.696   3.587
53505W        W19914  25.088  33.502   2.599
53506W        W19915  44.546  22.916  13.526
53507W        W19916   1.656   8.878  13.923
53508W        W19917   8.829  36.340  13.031
53509W        W19918  29.377   4.306   2.840
53510W        W19919  42.600   3.695   4.606
53511W        W19920  22.576  29.669  13.531
53512W        W19921  37.129  23.058   1.831
53513W        W19922  12.961  10.125  13.467
53514W        W19923  37.350   8.522   1.944
53515W        W19924  32.396   1.775   4.998
53516W        W19925  19.087  27.615   0.214
53517W        W19926  30.575  41.049   2.249
53518W        W19927  30.138  26.533   4.563
53519W        W19928  37.006  41.878  14.552
53520W        W19929  17.030   2.925  11.601
53521W        W19930  40.647  44.056   1.303
53522W        W19931   6.817  15.066  14.956
53523W        W19932  40.302  23.953  14.259
53524W        W19933  11.084  17.912  12.661
53525W        W19934  39.385   1.628   0.297
53526W        W19935   2.679  39.630   4.634
53527W        W19936  27.908   7.628  10.593
53528W        W19937  16.854   9.492   1.426
53529W        W19938  41.471  37.279   2.377
53530W        W19939   2.115  19.747  11.574
53531W        W19940  40.316  14.809   3.126
53532W        W19941  29.404   5.937   3.816
53533W        W19942  20.903   9.943  11.536
53534W        W19943  42.495  43.856   4.608
53535W        W19944  27.151  12.561  11.423
53536W        W19945  28.508   3.844  13.592
53537W        W19946   0.730  27.669  14.890
53538W        W19947  15.327   8.878  10.637
53539W        W19948  27.398  15.602  13.973
53540W        W19949  37.631  28.265  12.581
53541W        W19950  15.253  15.074   0.069
53542W        W19951  30.367   4.568   4.603
53543W        W19952  27.732   2.439   0.748
53544W        W19953   9.674  37.444  11.352
53545W        W19954  37.978  24.959  10.765
53546W        W19955  31.218  28.078   3.619
53547W        W19956  39.343  23.267   0.503
53548W        W19957  26.947   1.266  13.964
53549W        W19958  19.422  31.783   3.793
53550W        W19959  33.644   1.927  13.919
53551W        W19960  10.955  26.231  12.663
53552W        W19961  37.562  42.193  10.715
53553W        W19962  10.110  37.802   3.286
53554W        W19963  29.628  44.827   2.239
53555W        W19964   1.921  14.600   4.122
53556W        W19965  37.783  14.401   0.337
53557W        W19966  20.171  41.270   4.925
53558W        W19967  36.582  31.407   1.215
53559W        W19968  18.484  17.936  12.535
53560W        W19969  26.020  15.264  13.297
53561W        W19970  19.023  35.434   4.765
53562W        W19971  44.966  30.566  14.571
53563W        W19972  14.728  29.693  14.512
53564W        W19973  36.907   5.903  11.829
53565W        W19974  44.325  22.697   4.162
53566W        W19975  25.097   9.884   0.854
53567W        W19976  37.989  19.084  13.630
53568W        W19977  28.406  24.091  12.037
53569W        W19978  25.942  20.051   3.752
53570W        W19979   7.686  15.309  11.702
53571W        W19980  31.457  20.513   1.781
53572W        W19981  41.985  40.014  14.951
53573W        W19982  27.866  36.416   3.908
53574W        W19983  36.600  36.862   2.939
53575W        W19984   9.247  38.350  11.798
53576W        W19985   3.668  15.496  10.666
53577W        W19986  26.581  11.867  11.019
53578W        W19987  24.740  25.138  13.328
53579W        W19988  42.282  27.721   4.695
53580W        W19989  35.378   5.022   0.429
53581W        W19990  41.807  33.521  14.772
53582W        W19991  32.508  35.599   0.477
53583W        W19992  17.138  16.961   2.442
53584W        W19993  15.070  21.753   1.817
53585W        W19994  17.333   8.217  14.616
53586W        W19995   1.300  26.139  14.413
53587W        W19996  37.208  43.841   3.744
53588W        W19997  44.279  32.204   2.872
53589W        W19998  20.770   5.230  13.022
53590W        W19999  24.023   8.112  12.480
53591W        W20000  10.320   4.202   2.330
53592W        W20001  25.429   4.234  12.630
53593W        W20002  22.191   8.722  14.911
53594W        W20003  37.216  38.119  11.798
53595W        W20004   8.730  41.474  14.295
53596W        W20005  12.655  29.556  14.129
53597W        W20006  18.515   7.698   4.167
53598W        W20007  11.207  28.715   4.429
53599W        W20008  41.304   4.822   1.315
53600W        W20009  33.378  30.052  10.440
53601W        W20010  10.418  33.359  11.563
53602W        W20011  29.493  39.579  13.645
53603W        W20012  13.743  24.582  13.781
53604W        W20013  39.961  10.165  12.186
53605W        W20014  32.088  42.807  11.180
53606W        W20015   9.644  42.376   0.318
53607W        W20016   2.809  28.985  13.966
53608W        W20017   4.242  37.414  12.354
53609W        W20018  13.916   8.675   1.213
53610W        W20019  13.508  42.065  13.438
53611W        W20020  16.429  13.248   4.717
53612W        W20021  37.060  27.955  11.916
53613W        W20022  39.315  40.230  14.108
53614W        W20023  32.353  13.563  12.810
53615W        W20024  29.701   9.878  11.459
53616W        W20025  41.378  39.092   2.879
53617W        W20026  22.500  35.415  12.486
53618W        W20027  27.038  26.552   3.035
53619W        W20028  32.601   0.828   1.794
53620W        W20029  33.662  25.492  11.454
53621W        W20030   1.442  35.524  12.990
53622W        W20031  12.859   4.236  11.624
53623W        W20032   5.732  10.153   0.203
53624W        W20033  31.710  17.881   4.562
53625W        W20034  15.670  44.365   3.451
53626W        W20035  14.611   0.554   5.457
53627W        W20036   8.766   3.344  13.953
53628W        W20037  42.822  18.816  14.050
53629W        W20038  42.892   7.201   0.084
53630W        W20039  34.638  10.834   4.134
53631W        W20040   9.212  39.789  10.142
53632W        W20041  18.493  20.682  12.838
53633W        W20042  29.293  33.453  11.626
53634W        W20043  33.474   1.490  12.999
53635W        W20044  31.467  22.153  13.885
53636W        W20045  32.264   2.472   0.608
53637W        W20046  23.725  30.654   2.968
53638W        W20047   0.863  11.465  10.482
53639W        W20048  15.243   4.687   0.069
53640W        W20049   2.343   9.536  12.001
53641W        W20050  39.074  24.716  12.072
53642W        W20051  37.618  37.563  14.795
53643W        W20052   3.444  31.104   2.241
53644W        W20053  31.173  26.764  13.405
53645W        W20054  22.032  16.752   1.943
53646W        W20055  28.527  13.139   2.877
53647W        W20056  44.366  38.115  11.594
53648W        W20057  34.975  15.597   1.258
53649W        W20058  26.628  44.068  12.371
53650W        W20059  24.113  11.009   2.380
53651W        W20060  38.912  33.058  14.565
53652W        W20061  30.600  13.675   0.889
53653W        W20062  30.487  26.475  12.395
53654W        W20063  20.127  17.075   1.814
53655W        W20064   1.388  27.527  11.726
53656W        W20065   4.815  43.326   1.883
53657W        W20066  12.716  41.893  13.894
53658W        W20067  18.270  26.630   3.191
53659W        W20068   4.233  26.243   1.783
53660W        W20069   6.328  17.795  11.232
53661W        W20070  18.297  34.513  13.904
53662W        W20071   2.160   1.277   2.894
53663W        W20072  39.520  31.055   0.397
53664W        W20073  32.501   8.222  10.986
53665W        W20074  36.951  24.817   0.388
53666W        W20075  37.533  36.438   0.931
53667W        W20076  10.733  44.947  14.500
53668W        W20077   5.162   5.735   4.161
53669W        W20078  17.700  24.211  10.649
53670W        W20079  25.729  30.093  11.085
53671W        W20080  29.499   0.720   0.008
53672W        W20081  39.913  23.411   1.802
53673W        W20082  34.570   6.907   3.094
53674W        W20083  19.796  11.888  13.459
53675W        W20084  25.087   0.285   1.270
53676W        W20085  13.255  12.310  14.483
53677W        W20086   1.770  32.106   0.955
53678W        W20087  13.282  33.574   1.446
53679W        W20088  31.310   0.215  14.772
53680W        W20089   9.641  17.149  10.687
53681W        W20090  16.158  20.911  12.812
53682W        W20091  20.108  39.773   2.252
53683W        W20092  42.133  11.147  11.991
53684W        W20093  41.033  20.042  12.567
53685W        W20094  35.380  43.572  11.890
53686W        W20095  25.309  11.479  13.538
53687W        W20096  37.546  10.226  11.354
53688W        W20097   0.931   8.325   0.953
53689W        W20098   0.749   1.152  12.886
53690W        W20099   8.271  31.806  12.457
53691W        W20100  24.532  32.380  11.599
53692W        W20101  33.686  41.395  12.940
53693W        W20102   8.204  41.282   4.065
53694W        W20103   7.904  32.045  12.138
53695W        W20104  23.063  25.492  13.319
53696W        W20105  42.420  26.481  14.557
53697W        W20106   5.333   0.811  12.308
53698W        W20107   6.291  20.846   3.682
53699W        W20108  29.544  43.301   0.266
53700W        W20109  34.062  11.853   3.652
53701W        W20110   5.329   2.179   3.398
53702W        W20111  43.325   7.239  14.782
53703W        W20112  10.205  35.615  12.415
53704W        W20113   2.419  29.496  12.995
53705W        W20114  15.472  17.743   0.835
53706W        W20115  30.566   4.337  13.800
53707W        W20116  43.525  30.526  13.053
53708W        W20117  16.667   5.797  12.067
53709W        W20118   7.721  38.486  13.587
53710W        W20119  25.623  42.244  13.481
53711W        W20120  17.530  27.695  13.319
53712W        W20121  11.696  37.762  12.051
53713W        W20122  39.971  34.068  11.623
53714W        W20123  31.421   2.395  12.022
53715W        W20124  20.830   6.961  14.642
53716W        W20125  13.387  20.529  12.465
53717W        W20126  20.978  33.177   3.114
53718W        W20127   7.230  21.562  11.943
53719W        W20128  31.680   9.754   1.882
53720W        W20129  27.943  41.668   3.265
53721W        W20130   9.196  19.561   5.328
53722W        W20131   9.651  15.513   0.965
53723W        W20132  27.481  13.149  13.901
53724W        W20133  40.896  36.361  14.705
53725W        W20134  33.655   6.496   3.934
53726W        W20135  36.413   8.268  13.872
53727W        W20136   3.926   1.826  14.954
53728W        W20137  35.225  30.616   0.708
53729W        W20138   4.495  39.378  13.024
53730W        W20139  20.093  41.018   1.863
53731W        W20140  19.829  24.612  11.116
53732W        W20141   9.626  12.163   1.903
53733W        W20142  18.569  15.543  13.370
53734W        W20143  32.616  14.743   0.410
53735W        W20144  38.324   6.417   3.658
53736W        W20145   2.289  17.501  14.041
53737W        W20146  13.244  41.112   5.044
53738W        W20147  10.100  13.320  10.767
53739W        W20148   7.839   8.659  12.540
53740W        W20149  19.157  32.174  11.629
53741W        W20150   3.463  16.004   1.228
53742W        W20151  29.056  43.267  12.911
53743W        W20152  44.925  34.746  11.598
53744W        W20153  42.381   3.938  13.614
53745W        W20154  30.613  21.758   2.641
53746W        W20155  18.313   8.450   3.324
53747W        W20156  10.778  29.499   4.380
53748W        W20157  15.692  40.018   5.133
53749W        W20158  13.929  14.801  13.438
53750W        W20159   0.395  20.668   1.309
53751W        W20160   3.812  18.274   3.630
53752W        W20161   5.187   0.931  11.521
53753W        W20162  11.752   7.698   0.436
53754W        W20163  17.159   4.289  14.737
53755W        W20164  25.619  43.035   1.326
53756W        W20165   2.435  34.327  12.958
53757W        W20166  10.247  18.234   3.149
53758W        W20167  24.776  29.530   2.499
53759W        W20168  11.208  42.247   3.374
53760W        W20169  39.360  33.015   2.388
53761W        W20170  28.592  34.688  13.981
53762W        W20171  38.528  31.121   2.605
53763W        W20172  22.027  30.100   0.064
53764W        W20173  16.407  20.668   1.271
53765W        W20174  41.141  15.785   2.137
53766W        W20175  32.624  25.959  12.656
53767W        W20176  43.830  28.434  14.865
53768W        W20177  40.305  31.160  14.423
53769W        W20178  44.638  16.774  13.963
53770W        W20179   1.757  32.016  11.935
53771W        W20180  14.207  40.775  11.073
53772W        W20181  11.427  41.941  11.151
53773W        W20182  17.657  35.433   3.680
53774W        W20183  10.302  37.802  11.928
53775W        W20184  44.725  23.676  10.893
53776W        W20185  39.950  38.643  12.023
53777W        W20186  44.919  25.557   4.553
53778W        W20187  15.731   3.777   0.995
53779W        W20188   0.017  14.689  11.538
53780W        W20189  14.343  25.321   3.622
53781W        W20190  28.609  17.854  12.408
53782W        W20191  28.957  28.647  14.441
53783W        W20192  41.248  24.479   0.017
53784W        W20193  28.687  35.176   2.302
53785W        W20194  12.319  36.024  12.103
53786W        W20195  27.949  34.960  12.924
53787W        W20196  17.976  21.208   2.459
53788W        W20197   4.539  11.759  13.635
53789W        W20198  33.733  25.952   3.850
53790W        W20199  34.637  13.653  10.626
53791W        W20200  44.538  26.599  10.597
53792W        W20201  43.743  31.629   4.801
53793W        W20202   6.149  11.846  11.175
53794W        W20203  38.841  21.455  11.617
53795W        W20204  27.203   4.965  13.944
53796W        W20205   6.127  26.069   1.654
53797W        W20206  29.507  37.003  10.958
53798W        W20207  35.106  10.650   4.202
53799W        W20208  26.106   6.915  11.861
53800W        W20209  42.334  42.110  11.067
53801W        W20210  11.725  27.422  12.392
53802W        W20211  17.160  17.846   1.364
53803W        W20212  44.452  22.479  14.846
53804W        W20213  41.367   2.431   2.810
53805W        W20214  22.243   6.279   3.528
53806W        W20215  23.696  30.979   2.123
53807W        W20216  38.478  21.270  14.288
53808W        W20217   5.922   4.814   4.348
53809W        W20218  11.245  36.225  11.420
53810W        W20219  34.329  32.894  10.451
53811W        W20220  28.204  41.549  14.825
53812W        W20221  18.169  44.360   3.178
53813W        W20222  22.621  41.291   3.271
53814W        W20223  12.745  26.268   1.724
53815W        W20224  35.481  39.922   4.801
53816W        W20225  20.853   4.407   2.392
53817W        W20226  28.927  26.955   0.267
53818W        W20227  42.469  40.157   4.228
53819W        W20228   2.431   6.936  11.055
53820W        W20229  24.913  34.609  13.617
53821W        W20230   2.798   7.794  14.883
53822W        W20231  27.044  13.548   4.191
53823W        W20232  18.267   2.399   3.101
53824W        W20233  11.180  16.755   0.757
53825W        W20234   0.736  19.754  11.621
53826W        W20235  10.299  22.395   0.850
53827W        W20236  31.915   9.506  14.257
53828W        W20237  15.880  30.489  12.154
53829W        W20238  27.680   0.460   3.325
53830W        W20239  26.659  42.601  13.993
53831W        W20240  19.560   2.887   0.512
53832W        W20241  23.618  36.408  13.996
53833W        W20242  20.010  16.260   4.168
53834W        W20243   5.322  10.291  11.991
53835W        W20244  21.293  43.913  10.394
53836W        W20245  23.114  16.227  13.594
53837W        W20246   2.527  42.475  12.261
53838W        W20247  24.223  35.142  11.536
53839W        W20248  15.704   0.772  14.167
53840W        W20249  30.022  34.509   0.727
53841W        W20250  27.023  28.838  12.484
53842W        W20251  17.188  34.478  12.620
53843W        W20252  39.435  19.836  12.146
53844W        W20253  36.157  18.571  12.126
53845W        W20254  15.652   3.555   4.443
53846W        W20255  12.528  21.487  11.984
53847W        W20256  19.912  10.726   1.358
53848W        W20257   5.820  24.286   2.615
53849W        W20258  36.801  21.141  12.608
53850W        W20259  20.490  36.808  13.458
53851W        W20260  22.111   5.145  10.845
53852W        W20261  30.045  20.727   1.339
53853W        W20262  13.908  33.338   1.220
53854W        W20263  41.408  44.933   0.799
53855W        W20264  39.851  28.137  14.853
53856W        W20265  20.280  18.689  11.470
53857W        W20266  31.288  39.498  14.045
53858W        W20267   4.074   3.626  11.604
53859W        W20268   4.819  28.456   3.120
53860W        W20269  16.556   5.442   4.261
53861W        W20270  13.530   3.960  10.944
53862W        W20271  30.708   5.345  10.479
53863W        W20272  34.066  28.048  11.863
53864W        W20273  15.054   7.723  11.161
53865W        W20274   7.181  34.933   4.545
53866W        W20275  12.419   4.315  11.955
53867W        W20276  23.349   7.702   2.537
53868W        W20277  12.417  36.421  11.430
53869W        W20278  25.007  18.458  14.764
53870W        W20279  33.379  14.279   0.169
53871W        W20280   0.719  22.136  11.893
53872W        W20281  43.656  43.416   1.326
53873W        W20282  41.800  25.143  11.781
53874W        W20283   0.236  22.736   3.749
53875W        W20284  39.245  10.072  11.536
53876W        W20285  42.495   3.870  11.630
53877W        W20286   6.970  42.480   0.754
53878W        W20287  22.655  32.599   4.293
53879W        W20288  23.697  38.992   0.422
53880W        W20289  42.546  26.668   3.144
53881W        W20290  30.072  30.155  11.087
53882W        W20291  20.617  44.422   0.917
53883W        W20292   9.932  34.121   0.315
53884W        W20293  17.553  16.280   1.939
53885W        W20294  40.937   2.001  11.053
53886W        W20295   8.181  32.192  11.576
53887W        W20296  16.601   2.339  14.863
53888W        W20297  36.224  39.434  12.870
53889W        W20298   5.985  33.548  13.500
53890W        W20299   0.864  23.080   3.614
53891W        W20300  16.672   4.031   4.139
53892W        W20301  31.678  27.223   2.855
53893W        W20302  42.882  36.087   4.069
53894W        W20303  33.913  43.873   2.803
53895W        W20304  33.442  43.977   2.599
53896W        W20305  35.280  13.116   1.742
53897W        W20306  44.012   1.683   1.307
53898W        W20307  29.722  12.219   4.290
53899W        W20308  33.371  25.140   1.969
53900W        W20309   3.496  40.918   4.730
53901W        W20310  16.687  36.857   5.519
53902W        W20311   5.013   6.977  11.034
53903W        W20312  35.314  14.792   4.661
53904W        W20313  12.291  12.767   1.336
53905W        W20314  35.860  35.396   3.836
53906W        W20315  20.763  21.547   4.864
53907W        W20316  27.588   6.211  14.475
53908W        W20317   7.180   2.266  12.997
53909W        W20318  41.485   0.021   2.277
53910W        W20319  19.050  11.788  13.873
53911W        W20320  24.281  16.128   2.804
53912W        W20321  19.573  11.389  13.557
53913W        W20322  13.375  31.544   0.969
53914W        W20323   1.288   6.884  10.809
53915W        W20324   0.202  39.927  12.891
53916W        W20325  37.828  36.596  13.924
53917W        W20326  19.207   5.344   3.440
53918W        W20327  33.034  14.143   1.896
53919W        W20328  42.501  40.770  14.974
53920W        W20329  12.974  17.716  14.858
53921W        W20330  35.626   9.002   2.215
53922W        W20331  25.773  13.254  11.200
53923W        W20332  16.020   9.331   3.777
53924W        W20333  10.864  44.284   3.598
53925W        W20334  23.747  38.543   4.608
53926W        W20335  27.915  15.255   2.372
53927W        W20336   0.799  43.273  14.422
53928W        W20337  19.609   0.300  13.009
53929W        W20338   5.073  24.046   3.633
53930W        W20339  26.523  32.636   1.784
53931W        W20340  20.112  40.018  13.794
53932W        W20341  21.411  26.388   0.555
53933W        W20342  29.071  43.560   2.641
53934W        W20343  34.809  30.258  12.513
53935W        W20344  20.994  37.925  14.946
53936W        W20345  41.333  14.354   2.279
53937W        W20346  24.394  24.573  14.496
53938W        W20347   4.499  39.466  12.062
53939W        W20348  41.904   8.312   2.742
53940W        W20349   1.943  27.080   0.434
53941W        W20350   0.009  26.501   2.327
53942W        W20351  19.286  21.232  10.108
53943W        W20352  32.413   9.335  14.248
53944W        W20353  12.165   3.802   2.187
53945W        W20354  34.428  31.454  10.608
53946W        W20355  26.957  44.947   0.947
53947W        W20356  28.769  30.496  11.700
53948W        W20357  43.045  40.739  14.056
53949W        W20358   9.214  44.871  13.906
53950W        W20359  25.287  33.515  12.352
53951W        W20360  42.425  17.351  10.504
53952W        W20361  42.071   1.439  14.391
53953W        W20362   5.749  29.093   1.811
53954W        W20363  39.039   3.939   2.461
53955W        W20364  26.936  14.768   4.449
53956W        W20365   2.006  25.096  11.946
53957W        W20366  28.737  11.772  10.386
53958W        W20367  16.802  33.377   3.107
53959W        W20368   9.341   4.967  11.676
53960W        W20369  27.837   8.289   3.128
53961W        W20370  28.885   8.398   3.908
53962W        W20371  17.148  44.504   2.796
53963W        W20372  15.783  36.073  13.940
53964W        W20373  12.250  27.110   4.084
53965W        W20374  35.802   6.716   2.727
53966W        W20375  14.888  21.302   2.298
53967W        W20376  10.982  26.267  13.933
53968W        W20377  27.096   3.028  11.625
53969W        W20378  14.872  15.011  10.625
53970W        W20379  11.943  37.935  14.862
53971W        W20380  39.456   0.677   2.702
53972W        W20381  17.702  39.462  13.511
53973W        W20382  23.999   3.967   2.166
53974W        W20383  24.979  30.926   3.553
53975W        W20384  33.474  39.331  13.760
53976W        W20385  23.107  44.053  13.405
53977W        W20386   6.728  32.105  13.964
53978W        W20387  38.447  41.795   2.386
53979W        W20388  25.192   8.660   5.396
53980W        W20389   6.495  11.633  14.760
53981W        W20390  43.869   5.396   1.357
53982W        W20391  31.381   8.430  11.947
53983W        W20392  12.186  21.017   4.282
53984W        W20393  24.654  23.356  13.597
53985W        W20394  33.024  37.266  12.942
53986W        W20395  33.525  37.470   0.906
53987W        W20396   3.759   7.339   2.278
53988W        W20397  36.325  39.725  11.878
53989W        W20398  11.113   8.948   4.744
53990W        W20399  14.209   9.426  12.552
53991W        W20400  18.555  15.279   4.942
53992W        W20401  12.653  42.920   0.473
53993W        W20402   2.207   7.744   4.544
53994W        W20403  36.842  10.382  12.943
53995W        W20404  22.519  43.239  13.457
53996W        W20405   9.637  14.884  13.456
53997W        W20406  43.992  40.295  12.964
53998W        W20407  18.662  32.107   0.865
53999W        W20408  21.651  40.877   2.195
54000W        W20409  18.646  11.432  14.677
54001W        W20410  34.717  10.873  14.181
54002W        W20411   1.498  10.439  11.978
54003W        W20412  33.875  12.928   3.561
54004W        W20413  21.173  24.566   0.353
54005W        W20414  24.428  34.551   4.215
54006W        W20415  14.622  11.697  13.074
54007W        W20416   2.217  39.605   4.362
54008W        W20417  14.751   6.276   4.425
54009W        W20418   4.461  38.165   3.623
54010W        W20419  18.286   1.203   3.579
54011W        W20420  36.050   4.034   5.080
54012W        W20421  20.086  31.164   3.727
54013W        W20422  18.748  33.277   2.192
54014W        W20423  28.716   8.875  14.839
54015W        W20424  39.983  26.070  13.908
54016W        W20425  30.323  17.992  11.061
54017W        W20426  30.534  27.578   1.180
54018W        W20427  40.619   8.669   3.796
54019W        W20428   6.393   4.260   0.174
54020W        W20429  10.407  44.427   4.173
54021W        W20430  15.906  12.288   3.691
54022W        W20431  14.159   3.379  14.979
54023W        W20432  26.167  39.445  14.412
54024W        W20433  31.824  39.418  13.970
54025W        W20434  38.520  43.956  11.048
54026W        W20435  10.725  42.663   1.240
54027W        W20436  16.274  17.854  12.109
54028W        W20437  26.820   2.560  12.510
54029W        W20438   3.963  37.973  14.648
54030W        W20439  32.657  36.317   2.980
54031W        W20440  20.498  21.379  14.479
54032W        W20441  35.456  14.324   2.948
54033W        W20442  32.484  34.183   0.396
54034W        W20443   7.296  36.915  12.453
54035W        W20444  28.935  26.737  14.790
54036W        W20445  39.972  12.314   3.313
54037W        W20446  30.095  14.591   2.269
54038W        W20447   7.638  25.112  11.622
54039W        W20448  35.966   2.387  13.427
54040W        W20449  11.383   4.330  11.661
54041W        W20450  12.123  31.190   2.533
54042W        W20451  10.772  14.582   2.588
54043W        W20452  20.153  33.524   2.639
54044W        W20453  26.199   1.516  11.608
54045W        W20454  25.183   8.685  13.483
54046W        W20455  20.954   2.324   0.723
54047W        W20456  29.031   9.188  12.517
54048W        W20457  29.181  19.513   5.191
54049W        W20458   0.982   3.565  10.451
54050W        W20459  33.016  22.528   2.644
54051W        W20460  33.965  19.652   3.054
54052W        W20461  34.369  44.832  13.251
54053W        W20462  11.940  35.259  12.079
54054W        W20463  18.666  23.259  14.083
54055W        W20464  25.469   2.396  13.924
54056W        W20465   9.622  39.851   4.925
54057W        W20466  14.111  37.835  12.408
54058W        W20467   9.931  28.069  12.250
54059W        W20468  42.935  14.148  10.431
54060W        W20469  40.699  27.031   2.228
54061W        W20470  44.938  12.663  12.939
54062W        W20471  22.868  43.213   1.776
54063W        W20472   9.097  11.911  13.024
54064W        W20473   7.608   6.366  13.081
54065W        W20474   4.758  44.794   1.887
54066W        W20475  39.006  39.954  10.517
54067W        W20476  17.723   2.701   3.818
54068W        W20477  21.179  12.145   1.795
54069W        W20478   1.904  31.067  13.993
54070W        W20479  30.895  31.575  13.633
54071W        W20480  29.613  39.871   0.761
54072W        W20481  32.034  25.202   1.687
54073W        W20482  17.094  38.798   2.239
54074W        W20483  29.710   9.812   1.812
54075W        W20484  33.417  30.108  10.986
54076W        W20485  30.943   4.490  11.888
54077W        W20486   4.914  16.739  14.898
54078W        W20487  38.895  23.021  10.343
54079W        W20488  36.102  43.962  11.982
54080W        W20489  29.876  25.516  11.640
54081W        W20490   1.881  36.108  13.948
54082W        W20491  43.635  27.184  11.071
54083W        W20492   9.608   4.438  13.934
54084W        W20493  24.753  40.100   4.115
54085W        W20494  10.242   1.433   0.464
54086W        W20495  29.691  11.747   2.226
54087W        W20496  11.838  32.310  14.005
54088W        W20497  41.867   8.380  10.659
54089W        W20498   5.509  13.066   3.133
54090W        W20499  16.430  27.520   4.806
54091W        W20500  39.540   3.848  10.643
54092W        W20501  39.508  23.082  11.109
54093W        W20502   0.496  43.998   0.395
54094W        W20503  28.369  27.524   2.860
54095W        W20504  20.767  12.813   3.710
54096W        W20505   5.670   2.722  12.297
54097W        W20506  12.260  13.717  14.727
54098W        W20507  27.684  13.770   0.391
54099W        W20508  28.040  14.338   2.788
54100W        W20509  36.362  29.772   1.280
54101W        W20510  21.219   0.798  11.280
54102W        W20511   3.529  41.456  14.888
54103W        W20512   5.401   8.877  10.529
54104W        W20513  21.053  11.112   0.873
54105W        W20514  35.129   8.657  14.369
54106W        W20515  21.705  17.199  14.388
54107W        W20516   8.718  32.405  14.765
54108W        W20517   6.298  28.644  11.004
54109W        W20518  14.221   3.214  13.469
54110W        W20519  31.229  22.229   1.900
54111W        W20520  19.520   6.694   2.106
54112W        W20521  15.181  33.896   3.130
54113W        W20522  39.272  38.619   2.814
54114W        W20523   5.746  37.955  10.731
54115W        W20524  25.536   5.057  13.365
54116W        W20525  11.729  31.394   2.260
54117W        W20526   0.228  28.568   1.196
54118W        W20527  21.570   1.694  12.930
54119W        W20528  24.737  21.217   0.346
54120W        W20529  33.447  44.852   3.932
54121W        W20530  29.659   9.884   2.904
54122W        W20531  19.713  35.102  10.462
54123W        W20532  39.075  44.966  14.888
54124W        W20533   3.448  25.754  11.953
54125W        W20534  40.948  19.342   0.283
54126W        W20535  12.264  23.750   1.430
54127W        W20536  15.264   2.722  14.881
54128W        W20537   2.936  14.237  13.141
54129W        W20538   2.344  42.852   1.403
54130W        W20539  17.578   1.885  13.471
54131W        W20540  44.271  22.458  13.559
54132W        W20541  21.676  34.250   0.639
54133W        W20542   7.679  31.122  10.866
54134W        W20543  31.303  37.082  11.168
54135W        W20544  15.548   2.138  10.862
54136W        W20545   2.723   6.842   1.768
54137W        W20546   4.761  29.680  11.965
54138W        W20547  41.155   8.258   0.378
54139W        W20548  44.203   0.264   3.399
54140W        W20549  35.401   4.248   4.514
54141W        W20550  21.713  39.253  11.481
54142W        W20551  22.024  22.658  14.991
54143W        W20552  43.049  25.728  10.527
54144W        W20553  25.949   0.801   2.800
54145W        W20554  44.650  36.542  13.868
54146W        W20555  28.508   5.811  14.735
54147W        W20556   6.503  27.369  14.911
54148W        W20557  21.201   6.902   0.449
54149W        W20558  24.679   8.657   0.229
54150W        W20559  19.569  43.340  12.354
54151W        W20560  26.578  37.158  12.032
54152W        W20561  23.227  39.273  11.629
54153W        W20562  27.914  41.465  11.534
54154W        W20563  18.669  15.526  14.248
54155W        W20564  44.755  26.346   2.758
54156W        W20565  32.882  34.601  12.917
54157W        W20566  30.659  28.100  12.805
54158W        W20567  24.616  12.546  11.554
54159W        W20568   5.332  28.625   3.135
54160W        W20569  16.407  32.078   3.706
54161W        W20570   0.268   4.386   1.756
54162W        W20571  26.221   3.817   3.322
54163W        W20572   4.551  14.206   1.428
54164W        W20573  41.794  15.672   4.570
54165W        W20574  15.813   2.111   0.168
54166W        W20575  35.910  12.892   2.360
54167W        W20576  26.863   2.770   4.765
54168W        W20577  13.284   9.177  12.131
54169W        W20578  33.521  35.585   2.921
54170W        W20579  43.846   9.837  10.304
54171W        W20580  14.618  39.281  10.293
54172W        W20581   9.729  34.818  13.996
54173W        W20582   4.635  16.526  10.848
54174W        W20583  33.934  36.379  14.572
54175W        W20584  41.932   3.445   0.011
54176W        W20585   8.489  38.029  13.342
54177W        W20586  15.880  30.101   0.279
54178W        W20587  23.375  11.158   2.189
54179W        W20588  44.329  18.615   1.591
54180W        W20589   2.654  10.380  12.460
54181W        W20590  29.494   2.282   3.714
54182W        W20591  27.699  26.569   1.539
54183W        W20592  32.419  44.495  11.899
54184W        W20593  12.376  27.671   2.245
54185W        W20594  31.176  27.964  11.955
54186W        W20595  12.377  41.964   0.028
54187W        W20596  28.020  36.521   4.881
54188W        W20597  15.433  31.981   0.275
54189W        W20598  33.519  31.481   2.788
54190W        W20599  25.661   3.525  11.990
54191W        W20600  41.891  43.388  14.441
54192W        W20601  34.389  22.045   3.929
54193W        W20602  13.859  39.399   3.289
54194W        W20603  32.963  30.830  12.950
54195W        W20604  21.739   5.802  14.843
54196W        W20605  27.371  28.130  13.888
54197W        W20606  28.565  30.888  11.375
54198W        W20607  34.069  37.392   2.201
54199W        W20608  37.198  33.998   3.166
54200W        W20609   1.074  11.445  14.912
54201W        W20610  21.504  23.639   1.705
54202W        W20611   0.283  10.109  13.883
54203W        W20612  33.537  36.358  13.796
54204W        W20613  20.576  23.923  12.267
54205W        W20614  42.769   6.382  11.176
54206W        W20615  31.458  20.688  13.819
54207W        W20616  37.276  22.149   1.896
54208W        W20617  26.727  27.627  10.814
54209W        W20618  33.984  13.664  14.618
54210W        W20619  23.265  31.217  13.916
54211W        W20620  12.537   3.817  11.622
54212W        W20621  37.000  20.335  14.818
54213W        W20622  10.536  35.145  10.246
54214W        W20623  43.010  39.592   3.763
54215W        W20624  31.517  12.670  12.962
54216W        W20625  24.285  17.788  14.861
54217W        W20626  40.831   4.777   3.047
54218W        W20627   6.115   9.797   2.647
54219W        W20628   4.356   6.469  10.527
54220W        W20629  40.806   3.756   2.545
54221W        W20630  18.244  41.947  13.020
54222W        W20631  17.805  44.359   4.545
54223W        W20632  27.265  29.539   0.346
54224W        W20633   5.132  28.176  12.495
54225W        W20634   6.725   5.190  12.897
54226W        W20635  23.118  26.635   2.840
54227W        W20636  12.108   8.329  11.331
54228W        W20637  23.203   6.240   2.304
54229W        W20638  37.573  17.381   0.108
54230W        W20639  22.236  35.853   3.689
54231W        W20640  14.522  36.231   3.207
54232W        W20641  15.175  33.217  14.068
54233W        W20642  12.706  28.209  13.499
54234W        W20643   4.713  39.517   1.265
54235W        W20644  26.975  17.294  13.493
54236W        W20645  14.919  38.781  13.074
54237W        W20646  11.721  23.712  12.025
54238W        W20647  32.633  10.388   3.793
54239W        W20648  35.058  31.435   1.814
54240W        W20649  10.099  26.256   4.866
54241W        W20650  15.661  29.491  12.673
54242W        W20651   3.460   5.136  14.387
54243W        W20652  14.268  42.122   3.793
54244W        W20653  23.795   4.406   2.388
54245W        W20654  12.684   3.835   1.314
54246W        W20655  24.972  33.994   2.896
54247W        W20656  21.203  32.959  14.960
54248W        W20657   5.747   2.274  11.161
54249W        W20658  26.638   3.648   0.486
54250W        W20659  17.505  39.386   1.848
54251W        W20660  44.455  33.625  10.941
54252W        W20661  32.547  27.468  11.210
54253W        W20662  16.090  30.113  13.501
54254W        W20663  32.123  44.394  14.052
54255W        W20664  41.080  11.472   3.183
54256W        W20665  17.690  31.383  11.622
54257W        W20666  20.931  33.510  13.328
54258W        W20667  26.267  25.288   5.467
54259W        W20668  32.547  43.348   3.080
54260W        W20669  28.465  27.813   2.282
54261W        W20670  36.490   5.306  11.964
54262W        W20671  14.924   8.941  12.467
54263W        W20672  27.032   9.440   0.359
54264W        W20673  22.514  41.065  11.702
54265W        W20674   1.032  12.377  14.805
54266W        W20675   8.613  37.152  14.406
54267W        W20676   3.800   6.676   3.770
54268W        W20677  20.731  21.551  13.826
54269W        W20678  32.473  44.517   2.318
54270W        W20679  13.861  31.102  11.245
54271W        W20680  15.644  28.717   3.416
54272W        W20681  42.891   4.804  13.936
54273W        W20682  36.623  20.077   2.293
54274W        W20683   3.022  25.791  11.683
54275W        W20684   3.222  23.605  14.019
54276W        W20685   9.643  24.584  10.663
54277W        W20686  38.294  36.072  11.597
54278W        W20687  27.508  29.536  10.734
54279W        W20688   8.630  38.253   1.403
54280W        W20689  14.110   7.572   0.409
54281W        W20690  31.582  10.153  14.144
54282W        W20691  15.327  34.254   2.740
54283W        W20692  36.644   8.979  14.284
54284W        W20693  38.460  32.814   3.362
54285W        W20694   1.761  30.235  11.439
54286W        W20695  29.595  42.586  14.506
54287W        W20696  38.618  34.716   4.159
54288W        W20697   6.852  35.388  10.273
54289W        W20698  16.542  31.312  11.994
54290W        W20699  44.637  31.624  12.938
54291W        W20700   3.978  37.416  10.599
54292W        W20701  15.569  11.272  10.799
54293W        W20702  37.864  19.007   1.253
54294W        W20703  24.453  37.533  13.883
54295W        W20704  17.724  29.399   4.225
54296W        W20705  12.002  41.887   2.213
54297W        W20706  18.141  17.744   4.352
54298W        W20707   8.240  23.519  10.760
54299W        W20708  36.649  40.088  12.043
54300W        W20709  27.923  39.556  14.967
54301W        W20710   8.656  38.554   4.094
54302W        W20711  40.484   1.296  12.449
54303W        W20712  37.363   4.246   0.051
54304W        W20713  35.094  16.676  14.434
54305W        W20714  27.522  43.653   3.544
54306W        W20715  29.651  42.113   2.350
54307W        W20716  15.045   2.455   4.245
54308W        W20717  38.244  38.135  14.479
54309W        W20718  25.044  43.257  13.961
54310W        W20719  21.123   3.876   0.336
54311W        W20720  17.241  44.823  11.689
54312W        W20721  14.915  44.161   0.016
54313W        W20722  21.987  35.039   0.941
54314W        W20723  37.396  35.863  13.391
54315W        W20724   5.426   8.164   3.186
54316W        W20725  35.461  27.904   3.626
54317W        W20726  11.951   2.595  10.778
54318W        W20727  26.937  43.571   0.834
54319W        W20728  32.040  13.538   1.874
54320W        W20729  38.995   4.766  10.843
54321W        W20730  10.258  27.021   2.430
54322W        W20731  17.111  28.730  13.279
54323W        W20732  24.738  25.091   4.940
54324W        W20733  13.513   8.784   4.563
54325W        W20734  23.645   3.323   2.590
54326W        W20735  30.632  38.484  10.752
54327W        W20736  39.958  38.126  13.076
54328W        W20737  42.352   0.839  14.508
54329W        W20738  14.327  12.311  12.969
54330W        W20739  41.638   8.859   3.608
54331W        W20740  23.180  28.037   2.642
54332W        W20741  18.125  28.173  10.655
54333W        W20742  21.090   6.111   4.608
54334W        W20743  39.556  35.502  11.427
54335W        W20744  22.213   1.468   4.768
54336W        W20745  15.363  41.889   3.027
54337W        W20746   9.714  35.479   5.101
54338W        W20747  16.633  36.754   2.888
54339W        W20748  31.627   1.228   1.682
54340W        W20749  35.156  20.220   4.790
54341W        W20750  27.190  38.019   1.413
54342W        W20751  43.909  13.365   5.353
54343W        W20752  40.870   0.918  14.398
54344W        W20753  24.724  27.813  11.928
54345W        W20754  42.814   9.633  13.881
54346W        W20755   6.368  19.995  13.896
54347W        W20756  43.730  44.717   2.895
54348W        W20757  35.853  29.613  12.031
54349W        W20758  32.028  14.682   0.227
54350W        W20759   3.365  26.745   5.086
54351W        W20760   5.444  43.926  12.367
54352W        W20761  42.223  33.558   4.598
54353W        W20762   6.852   0.359   1.045
54354W        W20763  15.128  23.346  12.053
54355W        W20764  16.223   6.888  11.341
54356W        W20765  20.216  41.295  10.346
54357W        W20766  24.924  26.886  13.524
54358W        W20767   7.858   4.843  10.787
54359W        W20768   8.757  30.756   1.897
54360W        W20769  13.345  32.203  13.314
54361W        W20770  29.587  42.204  11.928
54362W        W20771   1.474  13.114  13.030
54363W        W20772  27.217  43.924  14.847
54364W        W20773   7.277  10.197   2.805
54365W        W20774  40.512  43.538  13.548
54366W        W20775  31.139   4.736   0.725
54367W        W20776  28.266  17.209   2.828
54368W        W20777  26.546  30.638  13.299
54369W        W20778   3.255  33.719   2.765
54370W        W20779  40.558  18.360  14.336
54371W        W20780  32.615  15.383   1.970
54372W        W20781   9.454  27.493   3.195
54373W        W20782  31.170  30.948  11.550
54374W        W20783  25.734  23.089  12.138
54375W        W20784   2.958  40.074   4.651
54376W        W20785  24.184  24.721  13.921
54377W        W20786  15.230  31.492  14.428
54378W        W20787  11.099   6.306   1.706
54379W        W20788   4.330   5.188   2.006
54380W        W20789  23.305  18.755   2.681
54381W        W20790  21.723  36.839   1.359
54382W        W20791  13.337   8.236  12.126
54383W        W20792  34.975   5.612  12.555
54384W        W20793  29.582  18.186   4.714
54385W        W20794  39.334  19.095  13.313
54386W        W20795  39.230   6.136   5.105
54387W        W20796  42.636  40.058  11.175
54388W        W20797  26.541   3.873   1.947
54389W        W20798  12.036  29.765  14.777
54390W        W20799  28.216  19.947   3.914
54391W        W20800  15.619  10.793  12.463
54392W        W20801  30.842  30.293   3.682
54393W        W20802  24.203   0.264   1.391
54394W        W20803  17.805  17.479   0.341
54395W        W20804  12.799  12.754  13.788
54396W        W20805  37.289   2.173   3.652
54397W        W20806  44.285  20.845   3.293
54398W        W20807  11.844   3.905  14.370
54399W        W20808   0.273   5.153   1.387
54400W        W20809  44.244   5.842   1.242
54401W        W20810   8.989   4.958  14.330
54402W        W20811  34.849  33.948  11.085
54403W        W20812  27.671  21.612   9.625
54404W        W20813   3.402   7.207  11.504
54405W        W20814  28.469   3.794  13.062
54406W        W20815  34.964  35.238   3.899
54407W        W20816  12.579  16.905  11.159
54408W        W20817   4.291  25.422   0.829
54409W        W20818  13.351  21.553   0.525
54410W        W20819   6.811  31.723  10.254
54411W        W20820   9.046  33.391   1.696
54412W        W20821  14.669   5.249  12.049
54413W        W20822  15.615  34.502  14.455
54414W        W20823  23.960  30.152  14.193
54415W        W20824  22.558  22.540   0.213
54416W        W20825  22.417   5.863   2.723
54417W        W20826   6.182  13.601  14.772
54418W        W20827  21.181  23.083  12.470
54419W        W20828   4.791  38.921   3.273
54420W        W20829  22.086  27.182   0.010
54421W        W20830  21.273  22.820   0.724
54422W        W20831  24.574  36.052  14.199
54423W        W20832  26.832  16.324  13.896
54424W        W20833  17.069  20.610   1.841
54425W        W20834  22.753  28.515   2.359
54426W        W20835  15.497   6.328   3.220
54427W        W20836  18.371  34.597   4.269
54428W        W20837  27.960  24.124  14.307
54429W        W20838  10.892  36.772   0.584
54430W        W20839  41.296  13.552   3.796
54431W        W20840  31.585  23.121  10.668
54432W        W20841   9.818   4.774  11.548
54433W        W20842  27.221   0.246   1.261
54434W        W20843  36.095  10.509   4.556
54435W        W20844   9.260   7.404   4.636
54436W        W20845  29.207  16.264  11.581
54437W        W20846  33.450   3.910   3.179
54438W        W20847  34.024  22.461   4.630
54439W        W20848  20.112  39.332   4.846
54440W        W20849   4.523  21.466  12.535
54441W        W20850   8.707  33.984   2.451
54442W        W20851  10.124  35.799   4.208
54443W        W20852   8.869   1.045  14.255
54444W        W20853  20.173   5.618  11.124
54445W        W20854   4.657  20.738   1.009
54446W        W20855  33.679   5.002   1.810
54447W        W20856  23.036  42.711  13.158
54448W        W20857   0.943  30.522  10.726
54449W        W20858  28.765  33.015   3.673
54450W        W20859  17.095  43.956  11.011
54451W        W20860  29.264  15.749  14.417
54452W        W20861  37.103   2.775  10.672
54453W        W20862  28.008  39.775  14.512
54454W        W20863  12.093   5.830   4.406
54455W        W20864  41.413  18.773   2.379
54456W        W20865  20.943   7.319  13.788
54457W        W20866  30.230  30.137  14.557
54458W        W20867  40.878  33.599  10.418
54459W        W20868  40.466  29.023  12.565
54460W        W20869  12.794   9.828  12.074
54461W        W20870  18.685  32.002   4.230
54462W        W20871  32.561   2.270   2.403
54463W        W20872  34.083  32.104   4.678
54464W        W20873  27.571  12.828  11.622
54465W        W20874   9.587  27.659  11.545
54466W        W20875  12.862  31.852   3.187
54467W        W20876  13.265  37.057   0.336
54468W        W20877  22.524  27.074   4.330
54469W        W20878   5.885   9.753   3.125
54470W        W20879   1.564  15.122  11.142
54471W        W20880  26.217   0.786   1.179
54472W        W20881   8.120  24.664  13.818
54473W        W20882  17.145   8.767  12.914
54474W        W20883  34.795  11.520  14.991
54475W        W20884   0.019  43.435   0.335
54476W        W20885   7.519   5.527  11.504
54477W        W20886  26.498  17.789  11.903
54478W        W20887  16.262  39.988  14.767
54479W        W20888  25.555   2.505   4.610
54480W        W20889  44.330  34.064  10.730
54481W        W20890   0.877  16.174   2.244
54482W        W20891  31.448  38.925  12.155
54483W        W20892  15.569   7.544   2.345
54484W        W20893  25.695  13.594  10.813
54485W        W20894  28.756  44.448  10.278
54486W        W20895  10.060  28.961  10.380
54487W        W20896  31.980  44.021   1.770
54488W        W20897  24.294  28.089  12.080
54489W        W20898  21.121  20.747  12.305
54490W        W20899  14.154  40.029   1.687
54491W        W20900   5.876  21.639   3.296
54492W        W20901  16.625  44.198  13.066
54493W        W20902  42.191  15.628  11.104
54494W        W20903   7.897  18.027  11.951
54495W        W20904   4.335   5.704   2.141
54496W        W20905  12.169  42.783   3.384
54497W        W20906  12.883  41.121   0.380
54498W        W20907   5.920  19.690  11.796
54499W        W20908   8.163  37.274  12.055
54500W        W20909  12.232  43.241   3.126
54501W        W20910  18.078   6.745  12.906
54502W        W20911  35.316   3.327   4.092
54503W        W20912  31.854  26.035  13.409
54504W        W20913  33.091  27.074  11.888
54505W        W20914  27.664  14.183  13.861
54506W        W20915   4.708  26.358  13.032
54507W        W20916  18.199  37.520  14.763
54508W        W20917   8.711  23.944  11.987
54509W        W20918  19.873  36.073   4.315
54510W        W20919  29.862  16.803  12.002
54511W        W20920  32.959   9.786   4.362
54512W        W20921   7.591  30.166   1.450
54513W        W20922   6.657  17.170   2.404
54514W        W20923  25.923  21.138   2.401
54515W        W20924   9.412  25.305   5.036
54516W        W20925  33.185   5.256   2.189
54517W        W20926   3.365  43.835  14.379
54518W        W20927  14.219   3.451  13.018
54519W        W20928  30.489  17.578   1.547
54520W        W20929   7.684  15.741   3.144
54521W        W20930  16.707  12.193   0.366
54522W        W20931  16.646   7.202  14.336
54523W        W20932  11.438   1.257  12.800
54524W        W20933   0.317  27.174   2.329
54525W        W20934   8.778  12.896  12.177
54526W        W20935  37.596  36.958  10.425
54527W        W20936   0.922  17.837   1.207
54528W        W20937  19.023  22.125  10.547
54529W        W20938   7.406  15.285  10.766
54530W        W20939   7.765   6.126   0.856
54531W        W20940  36.419   6.269   1.400
54532W        W20941   2.228  18.215  14.475
54533W        W20942  10.157   7.453   5.000
54534W        W20943  17.591   4.976   0.360
54535W        W20944  21.127  11.325  12.155
54536W        W20945  42.230  19.240   4.609
54537W        W20946  13.636  35.087   3.048
54538W        W20947  37.005  19.368  11.600
54539W        W20948   6.382  10.028   3.642
54540W        W20949   9.696  28.835  14.342
54541W        W20950   4.334  14.691   0.690
54542W        W20951   3.459  33.498  14.728
54543W        W20952  27.764  27.049  12.912
54544W        W20953   3.331  43.741  11.062
54545W        W20954   1.988  43.783   4.878
54546W        W20955  38.347  27.158  10.681
54547W        W20956   9.420  10.455  12.810
54548W        W20957  23.047  34.550   4.681
54549W        W20958   3.936  16.290   1.284
54550W        W20959  43.487  17.130   2.793
54551W        W20960  29.865  11.470  12.358
54552W        W20961  35.027   7.356   0.291
54553W        W20962  10.694  14.861  14.927
54554W        W20963  42.534  30.065   4.067
54555W        W20964  13.902  27.233  12.343
54556W        W20965  11.340   2.213   2.905
54557W        W20966   1.642  31.474   1.203
54558W        W20967   4.338  20.962   2.804
54559W        W20968  26.167  37.062   4.537
54560W        W20969  26.695  38.426   3.603
54561W        W20970   8.705  44.947   4.664
54562W        W20971  44.919  44.366   2.495
54563W        W20972  19.399  32.575   4.314
54564W        W20973   6.178  28.183   1.634
54565W        W20974  23.392  44.299  11.029
54566W        W20975  21.749  35.907  10.720
54567W        W20976  22.507  36.304  12.064
54568W        W20977  22.417  11.337   3.115
54569W        W20978  21.240  23.892   0.925
54570W        W20979   7.756   3.134   5.036
54571W        W20980  15.327  14.406  13.933
54572W        W20981  32.913  34.572  14.366
54573W        W20982  25.119  29.400   4.602
54574W        W20983  21.551  16.677   3.805
54575W        W20984  37.639   0.348   4.377
54576W        W20985  27.056  34.939   1.496
54577W        W20986   6.485  21.272  10.650
54578W        W20987  37.921   1.016   1.528
54579W        W20988   4.164  30.435  11.083
54580W        W20989   1.754   5.850   4.863
54581W        W20990  28.366   7.720  10.321
54582W        W20991  42.559  16.618   0.469
54583W        W20992  14.847  17.145   4.689
54584W        W20993  12.584   9.131   2.441
54585W        W20994  42.919  14.646  10.651
54586W        W20995  25.069  23.906   3.183
54587W        W20996  25.537  20.634  12.954
54588W        W20997  42.581  39.586   0.432
54589W        W20998  20.722  41.319  11.017
54590W        W20999  43.993  30.278   1.307
54591W        W21000   8.871   7.186  13.909
54592W        W21001  29.143  11.680   3.297
54593W        W21002  31.947  31.983  12.518
54594W        W21003  36.879  23.572  13.515
54595W        W21004  25.167  43.857  12.383
54596W        W21005  39.351  39.544   1.563
54597W        W21006   7.413  42.752  13.990
54598W        W21007   8.782  21.707   1.130
54599W        W21008  12.845  38.202   1.030
54600W        W21009  42.315   5.248  10.446
54601W        W21010  40.314  32.494  13.814
54602W        W21011   8.172  18.217  12.554
54603W        W21012   8.318  24.067   0.491
54604W        W21013  40.576   9.969   1.336
54605W        W21014   6.712  30.473  14.328
54606W        W21015  31.099  18.773  10.959
54607W        W21016  43.855  43.926   1.893
54608W        W21017  41.493  11.879  12.845
54609W        W21018   9.431  39.451  10.453
54610W        W21019  30.186   8.377   1.224
54611W        W21020  28.558  37.364  12.140
54612W        W21021  38.851  12.785  12.902
54613W        W21022  37.578  24.062   1.914
54614W        W21023  30.478  26.631  14.228
54615W        W21024  44.541   3.304   1.429
54616W        W21025  42.275  16.076   1.485
54617W        W21026  34.387  35.945  11.950
54618W        W21027  31.206   4.252  10.578
54619W        W21028  42.696  40.858   2.301
54620W        W21029   2.904   0.665   0.266
54621W        W21030  17.085  27.724  13.927
54622W        W21031  19.708  33.395  12.665
54623W        W21032   2.851  44.822  14.813
54624W        W21033  33.998   2.326  10.261
54625W        W21034   9.915  11.799   3.646
54626W        W21035  31.960  13.276   4.101
54627W        W21036   4.230  41.493   0.726
54628W        W21037  15.051  33.393   2.894
54629W        W21038   5.210  10.316   4.629
54630W        W21039   8.607  25.428  13.437
54631W        W21040  30.158  37.012  12.466
54632W        W21041  17.291  29.152  12.059
54633W        W21042  37.180  33.020  11.629
54634W        W21043  26.177  44.182   0.362
54635W        W21044   9.068  12.585   1.554
54636W        W21045   6.906  14.746  11.903
54637W        W21046  36.801  13.898   5.114
54638W        W21047  13.248   4.962  11.102
54639W        W21048  10.097  39.114  11.512
54640W        W21049  13.913  10.073   9.929
54641W        W21050  20.875   1.890   2.388
54642W        W21051  22.191  23.751   0.488
54643W        W21052  20.048   2.957   2.740
54644W        W21053   9.652  22.720  14.783
54645W        W21054  24.120  42.366   0.756
54646W        W21055  35.039   1.286   3.744
54647W        W21056   9.335  16.146   2.417
54648W        W21057  11.621  41.904   1.381
54649W        W21058  13.583   4.460  14.483
54650W        W21059  40.850  12.473   3.233
54651W        W21060  44.532  33.360  13.096
54652W        W21061   3.149  16.236   2.749
54653W        W21062  11.952  20.811  10.287
54654W        W21063   2.002  36.172   1.226
54655W        W21064  40.633  21.144  14.686
54656W        W21065   3.405   6.227   0.852
54657W        W21066   5.784  31.573   2.149
54658W        W21067  22.234  34.445   1.433
54659W        W21068  39.737  43.862  14.269
54660W        W21069  43.751  36.801   2.364
54661W        W21070  32.160  26.667   1.912
54662W        W21071  16.703  35.999  14.986
54663W        W21072  26.015  31.610  12.099
54664W        W21073  23.246  28.446   2.297
54665W        W21074   6.881  37.321   4.734
54666W        W21075  26.653  26.678   2.324
54667W        W21076  30.883  21.346   3.568
54668W        W21077  40.038  36.259  11.950
54669W        W21078  26.214  10.189  12.083
54670W        W21079  32.191  19.274  11.164
54671W        W21080  35.525  44.578  10.588
54672W        W21081   6.244   0.983   2.025
54673W        W21082  43.297  36.055   1.002
54674W        W21083  15.316  40.943   4.812
54675W        W21084   1.026  43.392  13.961
54676W        W21085  35.662  37.977  10.732
54677W        W21086  17.621  41.726   4.730
54678W        W21087   3.974  10.153   0.020
54679W        W21088  26.052  27.514  14.929
54680W        W21089  36.666  22.411   0.399
54681W        W21090  11.715  29.425   0.459
54682W        W21091  36.679  18.731   4.148
54683W        W21092  36.883  32.438   2.095
54684W        W21093  24.289  14.763   2.354
54685W        W21094  30.333  23.485   2.358
54686W        W21095  40.212  30.873   2.262
54687W        W21096  44.721  29.983   3.748
54688W        W21097  42.356  42.798  11.688
54689W        W21098  35.092  42.813  10.362
54690W        W21099   3.732  41.593  11.130
54691W        W21100  44.379  42.589  13.398
54692W        W21101  31.212  13.162   1.358
54693W        W21102   2.005   1.040   2.411
54694W        W21103   8.783  44.948  12.125
54695W        W21104  39.839  28.459  13.426
54696W        W21105  38.381   1.792   4.700
54697W        W21106   1.819  25.428   3.147
54698W        W21107  12.429  39.316   2.977
54699W        W21108  40.678   6.069   2.969
54700W        W21109  29.133  35.993  13.383
54701W        W21110  44.754   2.754  11.166
54702W        W21111   5.912   9.644  13.899
54703W        W21112  10.719   6.902  11.788
54704W        W21113   2.004  29.891   4.686
54705W        W21114   7.926  11.732  10.761
54706W        W21115  31.598  42.353  14.479
54707W        W21116  20.747   4.834   0.286
54708W        W21117  31.333  26.899   4.327
54709W        W21118   4.973  16.319   4.168
54710W        W21119  34.185  19.119  11.599
54711W        W21120  37.319  10.378   2.889
54712W        W21121  18.324  19.165   3.969
54713W        W21122  19.684   5.244   4.113
54714W        W21123  20.560  22.465   1.405
54715W        W21124  16.136   3.726   1.353
54716W        W21125  14.726  31.096   3.853
54717W        W21126  12.687  29.499   1.969
54718W        W21127  16.263   0.540  12.143
54719W        W21128  19.091  31.499   3.092
54720W        W21129   3.929  33.711  14.667
54721W        W21130  21.546  17.166  13.853
54722W        W21131  10.126   6.456   0.730
54723W        W21132  16.055  29.998   4.133
54724W        W21133  24.739   5.348   0.979
54725W        W21134   9.338  40.734  13.631
54726W        W21135   2.725  23.655  12.283
54727W        W21136  38.353  36.884  12.868
54728W        W21137  17.979  31.110  12.413
54729W        W21138  44.430  32.698  14.073
54730W        W21139  25.515  41.539   5.054
54731W        W21140   4.253   5.707   3.626
54732W        W21141   5.192   3.971  11.077
54733W        W21142  39.270   6.852  12.408
54734W        W21143  10.382  34.270   3.636
54735W        W21144  38.077  30.172  11.566
54736W        W21145  39.501  12.764  11.266
54737W        W21146  25.624   7.790   5.597
54738W        W21147  40.029  21.313   2.789
54739W        W21148  31.047  20.604   2.283
54740W        W21149  29.984  18.010   2.505
54741W        W21150  17.729  17.230  11.563
54742W        W21151  29.227   4.521   4.115
54743W        W21152  40.902   6.602  14.799
54744W        W21153   0.823   8.280   3.922
54745W        W21154  35.498   3.153   1.104
54746W        W21155  37.609  43.687  12.989
54747W        W21156  22.911  10.202   4.250
54748W        W21157   3.864  40.059  11.133
54749W        W21158  15.409  28.673  12.032
54750W        W21159  33.789  32.012   4.245
54751W        W21160  29.562  40.341  11.996
54752W        W21161  28.721  25.943  14.037
54753W        W21162  19.614  18.802  13.954
54754W        W21163  36.503  36.788  12.513
54755W        W21164  24.480  29.856   1.567
54756W        W21165   9.630  38.293  14.831
54757W        W21166  19.694  32.945   0.893
54758W        W21167   9.625   3.042   2.724
54759W        W21168   9.595  15.730  11.505
54760W        W21169  36.463  21.216   0.819
54761W        W21170  22.929  21.512   2.404
54762W        W21171  35.251  26.456   2.928
54763W        W21172  16.502  31.457   0.760
54764W        W21173  18.695  32.732   4.829
54765W        W21174   5.853  27.171  12.173
54766W        W21175  33.372  12.812   1.044
54767W        W21176   9.399  41.079   0.404
54768W        W21177   2.455  31.474  11.965
54769W        W21178  35.577  22.331  11.250
54770W        W21179  31.329  42.315  11.132
54771W        W21180  38.964   8.250  10.829
54772W        W21181   6.869  16.409  11.189
54773W        W21182  23.456  43.462  12.644
54774W        W21183  28.758  16.249  13.275
54775W        W21184  12.235  36.635   4.917
54776W        W21185  15.132  19.255  11.620
54777W        W21186  19.256  15.596   4.644
54778W        W21187  39.114  33.122   0.562
54779W        W21188  19.043  37.635   5.056
54780W        W21189   9.615  40.553  11.004
54781W        W21190   6.948  29.092   4.852
54782W        W21191  31.153   5.280   3.866
54783W        W21192  39.941  39.032   3.001
54784W        W21193  32.937   1.952   1.213
54785W        W21194  38.025  20.025  13.406
54786W        W21195  44.776  29.680   4.178
54787W        W21196   9.564  35.047   0.459
54788W        W21197  26.602   9.269   0.165
54789W        W21198  30.331   0.503  14.964
54790W        W21199   7.753  26.179  14.370
54791W        W21200  19.061   0.111  13.306
54792W        W21201  39.326  32.425   0.063
54793W        W21202  31.066  37.084  11.600
54794W        W21203  35.881  12.450   1.621
54795W        W21204  39.609  25.934  11.196
54796W        W21205  11.146  35.968  10.406
54797W        W21206  21.637  23.891   9.932
54798W        W21207  41.285  24.754   1.367
54799W        W21208  37.263  43.883  13.926
54800W        W21209  20.689  33.105  11.991
54801W        W21210  25.688   2.918   3.316
54802W        W21211   0.683  34.019  11.150
54803W        W21212  19.972  38.738   0.453
54804W        W21213  20.703  17.440   1.725
54805W        W21214   5.920  41.523   4.886
54806W        W21215  27.374  29.579   4.102
54807W        W21216   5.850  14.788   3.213
54808W        W21217  28.703  13.760   0.416
54809W        W21218  26.430  20.366   2.297
54810W        W21219  44.617  43.107   3.252
54811W        W21220  22.715  39.589  12.872
54812W        W21221   4.495   9.839   4.357
54813W        W21222   0.016  41.571  12.977
54814W        W21223   2.807   1.903   1.438
54815W        W21224  14.087  41.584  14.775
54816W        W21225  20.714  25.226   4.708
54817W        W21226  15.314   0.288   1.398
54818W        W21227  43.314  29.426   3.266
54819W        W21228  18.758  12.227  11.181
54820W        W21229  30.265   5.649   1.381
54821W        W21230   3.234   0.853  13.974
54822W        W21231  21.963  11.331   1.262
54823W        W21232  41.393   8.641  13.935
54824W        W21233  30.070  15.531  12.989
54825W        W21234  28.523  23.016   3.700
54826W        W21235   1.492  26.618  14.269
54827W        W21236  31.902  11.724   2.782
54828W        W21237  14.459  41.765   2.841
54829W        W21238  24.102  20.144   1.210
54830W        W21239  39.559   1.147   0.439
54831W        W21240  11.855  26.465   1.857
54832W        W21241   8.683  43.814   2.298
54833W        W21242   9.245  35.086  13.878
54834W        W21243  11.186   5.226  13.017
54835W        W21244  23.209  20.708   3.722
54836W        W21245  20.173  17.227   2.710
54837W        W21246   8.599  43.564   4.519
54838W        W21247  24.520  11.840  13.464
54839W        W21248  13.286  34.548  12.886
54840W        W21249  37.537  31.350   3.605
54841W        W21250  22.565  18.089   2.854
54842W        W21251  11.734  24.633   4.404
54843W        W21252  34.417  13.070   4.119
54844W        W21253  44.389  18.673  10.680
54845W        W21254  40.744  20.126   0.765
54846W        W21255  36.106  43.974  13.355
54847W        W21256   1.471  14.020   0.470
54848W        W21257  37.850  17.092  14.784
54849W        W21258  44.987  44.728  13.761
54850W        W21259  17.810  33.988   2.255
54851W        W21260  29.448  27.447  14.521
54852W        W21261   2.167   5.268  14.710
54853W        W21262  38.536  39.154   1.307
54854W        W21263  29.864  18.712   3.693
54855W        W21264   6.152  17.182  12.896
54856W        W21265  27.193  24.421   1.222
54857W        W21266  22.716  26.398   1.715
54858W        W21267   9.291  40.068  11.153
54859W        W21268  23.993  29.155  11.525
54860W        W21269  31.406  42.278   1.297
54861W        W21270  34.856  40.696  14.912
54862W        W21271   3.850  19.686   4.996
54863W        W21272  33.644   4.350   4.486
54864W        W21273  27.484  19.328  14.536
54865W        W21274   3.227  13.202   1.876
54866W        W21275  31.377  23.224  13.438
54867W        W21276   6.816   0.299  11.411
54868W        W21277  42.752  18.616  13.030
54869W        W21278  18.515  24.853   0.822
54870W        W21279  43.092   0.816  12.532
54871W        W21280  31.107  37.575  11.102
54872W        W21281  28.289  44.228  13.737
54873W        W21282   5.824  11.318  12.370
54874W        W21283  33.075  35.076   3.943
54875W        W21284  41.790   7.519  12.950
54876W        W21285  21.276  10.118   5.182
54877W        W21286  27.442  30.174  14.475
54878W        W21287  17.043  26.763  14.892
54879W        W21288   8.728  37.122  11.538
54880W        W21289  12.375  36.007  14.040
54881W        W21290  26.457   0.958  11.875
54882W        W21291  24.994  35.278  14.209
54883W        W21292   3.491  21.973  10.454
54884W        W21293  18.451  14.530  14.256
54885W        W21294  14.301   3.735  12.608
54886W        W21295   5.186  28.992   9.956
54887W        W21296   8.566  33.846  12.904
54888W        W21297  27.252   1.722  13.370
54889W        W21298  41.747  19.212  12.415
54890W        W21299  17.602  43.981  11.094
54891W        W21300  26.555  17.541  14.751
54892W        W21301  36.997  38.876   2.460
54893W        W21302   5.192   8.392  12.144
54894W        W21303  34.499   2.212  10.236
54895W        W21304  43.300  15.220  10.598
54896W        W21305   0.821  34.889   1.372
54897W        W21306  23.542   8.196   1.528
54898W        W21307   8.691  27.731  13.569
54899W        W21308  17.569   0.695   2.681
54900W        W21309  25.951  28.256  12.863
54901W        W21310  34.468  33.191   0.912
54902W        W21311  38.986  19.456   1.292
54903W        W21312  35.581  28.470  14.847
54904W        W21313  14.759  39.736   2.971
54905W        W21314  30.388  24.218   1.045
54906W        W21315  44.461   5.032  11.044
54907W        W21316  27.967  29.699   1.918
54908W        W21317  16.889  32.640   4.501
54909W        W21318  29.962  23.023   2.704
54910W        W21319  41.941  34.443  13.713
54911W        W21320  16.308  27.487   3.926
54912W        W21321  37.026  20.526  11.964
54913W        W21322  21.284  38.600  10.527
54914W        W21323   0.058  27.967   0.296
54915W        W21324  34.556   3.516  13.971
54916W        W21325  24.771  42.406   1.995
54917W        W21326  32.610  10.442   2.847
54918W        W21327  12.163   9.635   3.765
54919W        W21328  39.510   1.305  10.569
54920W        W21329  42.818  10.256   2.451
54921W        W21330  43.486  39.952   3.123
54922W        W21331  12.753  10.583  11.569
54923W        W21332  44.316   2.518   0.205
54924W        W21333  24.457   9.938   4.025
54925W        W21334  28.442  34.961   3.249
54926W        W21335   5.775  41.033   2.089
54927W        W21336  23.374  28.205  12.474
54928W        W21337   7.828  26.869  12.551
54929W        W21338  21.719  24.727  13.883
54930W        W21339  31.822   1.402   9.837
54931W        W21340  34.090   4.476  10.847
54932W        W21341  41.557  11.837  13.359
54933W        W21342  13.449  17.049  12.013
54934W        W21343  20.474   7.900   3.043
54935W        W21344  15.231   8.796   9.846
54936W        W21345  22.081  39.108   3.674
54937W        W21346   8.006   6.646  13.242
54938W        W21347  40.560   4.892  10.836
54939W        W21348  13.518  22.121   4.950
54940W        W21349  29.722  27.506   1.889
54941W        W21350   3.387  36.464   1.255
54942W        W21351  22.074  44.676   4.070
54943W        W21352  28.734  28.801   2.209
54944W        W21353  14.301  44.481  12.083
54945W        W21354  20.602  33.871  12.399
54946W        W21355  28.615  28.138  13.228
54947W        W21356  24.144   0.346   4.703
54948W        W21357  35.632  38.535   2.738
54949W        W21358  24.278  12.851  12.461
54950W        W21359  35.408   9.095  14.325
54951W        W21360  30.077  27.247   2.348
54952W        W21361  15.926  36.587  12.882
54953W        W21362   9.855  30.657   3.360
54954W        W21363   1.563   8.082   5.024
54955W        W21364  19.231  43.569   2.424
54956W        W21365  19.821  32.158   3.691
54957W        W21366  24.368  11.508   3.067
54958W        W21367  12.208  42.541  10.787
54959W        W21368  33.848  20.301  11.209
54960W        W21369  44.783  32.975   2.945
54961W        W21370  19.387  37.945   3.193
54962W        W21371  21.010  36.185  12.413
54963W        W21372  39.131  17.043   4.587
54964W        W21373  40.516  21.112   2.800
54965W        W21374  13.343  21.446   3.181
54966W        W21375  44.707  20.173   1.826
54967W        W21376  27.992  44.160   2.202
54968W        W21377  23.476   6.379   0.215
54969W        W21378   2.999   2.172  13.908
54970W        W21379  16.147   9.094  12.620
54971W        W21380  12.729   2.138   1.975
54972W        W21381  14.919  38.757   4.750
54973W        W21382  29.707  20.428   2.249
54974W        W21383   7.910  24.237  14.619
54975W        W21384  19.612   9.544   4.179
54976W        W21385  23.988  33.060   1.275
54977W        W21386  29.585  44.449   4.311
54978W        W21387  23.219  30.556   3.099
54979W        W21388   0.250  31.632  11.141
54980W        W21389  22.701   2.477  10.678
54981W        W21390  14.675  19.317   4.455
54982W        W21391  34.555  40.436  13.444
54983W        W21392  20.309  25.081  13.425
54984W        W21393  11.599  31.469  14.834
54985W        W21394  28.887  36.952  14.264
54986W        W21395   9.828  37.218   1.688
54987W        W21396  21.760  44.763  14.381
54988W        W21397  22.075   4.712  10.518
54989W        W21398  42.407  40.569   1.371
54990W        W21399  11.805  10.569  14.916
54991W        W21400  23.546   5.841   4.638
54992W        W21401  31.995  26.116  14.930
54993W        W21402  36.734  23.245   2.721
54994W        W21403   5.161  16.577  10.845
54995W        W21404   7.276  19.184  13.889
54996W        W21405  20.234  31.710   4.658
54997W        W21406  14.436  20.788   2.890
54998W        W21407  30.449   6.145   3.168
54999W        W21408  20.258  39.828  13.311
55000W        W21409   7.738  20.306  10.662
55001W        W21410  26.992  31.007   2.438
55002W        W21411   9.599  32.333  14.880
55003W        W21412  21.542  25.739   0.912
55004W        W21413  30.313  30.900   3.186
55005W        W21414  32.106  14.566   2.202
55006W        W21415  14.051  36.119  14.687
55007W        W21416  21.076  35.476   0.702
55008W        W21417  38.921   4.419  13.099
55009W        W21418  31.654   8.464   3.858
55010W        W21419  33.413  33.671  13.541
55011W        W21420  26.490  42.424   4.201
55012W        W21421  37.339   9.375   2.981
55013W        W21422  22.221  20.182   1.581
55014W        W21423  22.413  13.362   9.939
55015W        W21424  35.434  37.418   2.417
55016W        W21425  15.265   0.807   9.992
55017W        W21426  26.690  38.957  11.984
55018W        W21427  43.792  11.178  12.904
55019W        W21428  18.770  37.128   0.435
55020W        W21429  41.010  42.761   2.378
55021W        W21430  37.639  25.693   0.406
55022W        W21431  31.617  18.148  10.621
55023W        W21432  27.714  40.889  14.270
55024W        W21433  34.080   3.527   3.257
55025W        W21434  19.961  21.031   1.378
55026W        W21435  13.263  43.509   1.883
55027W        W21436  17.923  37.046   0.292
55028W        W21437  15.122  28.536  11.584
55029W        W21438  14.287  24.242  11.209
55030W        W21439  22.885  18.370  12.581
55031W        W21440  38.086  44.909  11.969
55032W        W21441  32.345  39.021   4.459
55033W        W21442  24.347  34.375  12.097
55034W        W21443   8.871   6.164   3.241
55035W        W21444  44.355  23.177  13.947
55036W        W21445  21.773  14.786  10.869
55037W        W21446  31.526  28.067  11.551
55038W        W21447  17.603  25.549   4.329
55039W        W21448   9.163  20.934   1.997
55040W        W21449  15.278  32.938   1.069
55041W        W21450  11.625  16.200   3.283
55042W        W21451  17.780  25.324  11.123
55043W        W21452  22.992   8.350   4.116
55044W        W21453  22.061  25.287   3.187
55045W        W21454  19.022  38.673  13.144
55046W        W21455  37.811  37.401   3.746
55047W        W21456  28.444  39.987  10.730
55048W        W21457  38.240   5.384  11.983
55049W        W21458  23.442  33.722   4.233
55050W        W21459  30.663  24.594   3.777
55051W        W21460  41.354  11.439   1.633
55052W        W21461  36.856  21.790  11.544
55053W        W21462  13.197  22.977   0.611
55054W        W21463  23.779  24.878  12.061
55055W        W21464  15.351  43.598  11.583
55056W        W21465   9.931   4.964  12.855
55057W        W21466  41.018  43.427  13.771
55058W        W21467  35.955  26.229  13.379
55059W        W21468  35.901  20.606  13.583
55060W        W21469   6.272  14.823  10.697
55061W        W21470  21.088  30.545  12.806
55062W        W21471  25.582  12.388   4.044
55063W        W21472  22.507  18.250  14.948
55064W        W21473  28.645   7.434  11.118
55065W        W21474   2.377  10.831  14.892
55066W        W21475   0.277   0.414  13.790
55067W        W21476  34.710  40.735   3.300
55068W        W21477  10.616  30.540   0.848
55069W        W21478  25.748  23.978   3.415
55070W        W21479  27.276   3.685  13.526
55071W        W21480  29.904   5.948   3.729
55072W        W21481  13.375  12.254   3.724
55073W        W21482  13.706  26.975   2.134
55074W        W21483  44.411  37.903  14.312
55075W        W21484  27.391  21.627   0.277
55076W        W21485  31.000  25.980   2.335
55077W        W21486  35.459   7.976  14.808
55078W        W21487   9.685  33.610  13.514
55079W        W21488   4.783  26.871  13.000
55080W        W21489  40.602  26.452  12.925
55081W        W21490   1.409  19.206   3.203
55082W        W21491  36.017  21.039  11.086
55083W        W21492  21.585  34.884  12.435
55084W        W21493   5.706  34.471  11.058
55085W        W21494   0.882  16.288  11.022
55086W        W21495  16.084  20.863   0.704
55087W        W21496  19.589  28.769  11.678
55088W        W21497  26.048  39.814  12.831
55089W        W21498  25.805  43.532  10.579
55090W        W21499  32.628  38.364  12.581
55091W        W21500   0.743  39.251  13.428
55092W        W21501   9.870  14.848  14.322
55093W        W21502  36.335  17.707   9.762
55094W        W21503  28.953   6.763   4.071
55095W        W21504   9.262  32.460   2.879
55096W        W21505  43.115   8.672   3.771
55097W        W21506  13.810  21.420  13.918
55098W        W21507  40.437  25.173   1.956
55099W        W21508  27.476  32.640   3.762
55100W        W21509  31.469  40.117   0.317
55101W        W21510   1.917  42.361  11.102
55102W        W21511  17.495  36.316  11.227
55103W        W21512   1.964  44.236   2.995
55104W        W21513   8.408  20.931   4.050
55105W        W21514  13.162  13.307  13.024
55106W        W21515  29.641  27.568  12.064
55107W        W21516  37.610   7.872  11.195
55108W        W21517  14.778  39.867   2.469
55109W        W21518  16.794   7.853  14.932
55110W        W21519  36.279  26.081  12.033
55111W        W21520  36.562  34.100   4.445
55112W        W21521  20.109  33.970   1.807
55113W        W21522  13.325  30.423   5.233
55114W        W21523  24.958  22.750   1.860
55115W        W21524  34.027  14.175  12.558
55116W        W21525  35.683   5.683  14.875
55117W        W21526  15.725   1.279   0.416
55118W        W21527  43.288  23.449  12.214
55119W        W21528  15.206  39.114  13.491
55120W        W21529  23.671  21.654   1.327
55121W        W21530  40.566  20.777  11.174
55122W        W21531  21.575  23.726  11.977
55123W        W21532   9.200  14.002  12.838
55124W        W21533   6.734  42.296  12.637
55125W        W21534  15.785  22.844   5.079
55126W        W21535  12.603   9.368   4.062
55127W        W21536  32.347  30.015   0.859
55128W        W21537  39.025   4.760   3.896
55129W        W21538   4.215  36.125   3.728
55130W        W21539   6.206   0.852  12.374
55131W        W21540  42.722   1.788  14.342
55132W        W21541  36.825   8.393   0.762
55133W        W21542   8.905  14.578   0.942
55134W        W21543  25.698   4.013   1.694
55135W        W21544   6.673  31.433   2.866
55136W        W21545  24.034  39.895   1.840
55137W        W21546  33.453  11.848  13.444
55138W        W21547  28.234  39.837  12.390
55139W        W21548  14.583   7.306  14.014
55140W        W21549  21.708  43.307   2.765
55141W        W21550  14.744  42.114  13.802
55142W        W21551  22.233  30.193  10.760
55143W        W21552  15.480  12.619  12.129
55144W        W21553   2.560   1.593  10.525
55145W        W21554  21.023   5.838   1.194
55146W        W21555  36.883  37.211  12.092
55147W        W21556  23.970  34.993   1.197
55148W        W21557  20.339  25.987   3.298
55149W        W21558  23.241  29.015  12.101
55150W        W21559   5.351  11.095  12.487
55151W        W21560  44.844  42.402  11.968
55152W        W21561  35.770  26.727   4.106
55153W        W21562   8.176   3.373   4.140
55154W        W21563  28.021  16.306  14.719
55155W        W21564   0.172  19.538  10.632
55156W        W21565   5.537  18.786   4.638
55157W        W21566  30.194  28.923  11.572
55158W        W21567   2.355  32.441   2.148
55159W        W21568  29.777  43.255   3.578
55160W        W21569  26.493  28.937   1.719
55161W        W21570  42.717   3.842  12.129
55162W        W21571  27.701  29.988  12.098
55163W        W21572  23.240  32.193  13.829
55164W        W21573   4.733  23.513  10.659
55165W        W21574   2.223  34.431  10.745
55166W        W21575  15.647  41.100   4.434
55167W        W21576  30.352  36.113   1.701
55168W        W21577  21.204  16.323   0.336
55169W        W21578  44.916  27.246   1.218
55170W        W21579  31.991   0.759  13.926
55171W        W21580   2.258  20.078   3.388
55172W        W21581  12.337  13.659   3.072
55173W        W21582   2.164  44.332  12.981
55174W        W21583  37.108   9.414   1.370
55175W        W21584   4.521  32.164   2.842
55176W        W21585  42.917  29.142  11.194
55177W        W21586  10.442   1.533  14.784
55178W        W21587  17.152   9.426  13.713
55179W        W21588  38.286  21.289   5.156
55180W        W21589  31.552  12.353  12.083
55181W        W21590  33.822  41.230   4.244
55182W        W21591  12.820  19.112   4.651
55183W        W21592  21.001  37.908   4.246
55184W        W21593  42.261   6.215  10.447
55185W        W21594   9.660  18.707   0.494
55186W        W21595  36.936   3.652   0.906
55187W        W21596  19.585  14.223   0.743
55188W        W21597  42.692   8.988  11.503
55189W        W21598   3.993  25.256  14.787
55190W        W21599  42.270  39.461  11.601
55191W        W21600  29.532  31.892  10.808
55192W        W21601  18.030  34.478   2.381
55193W        W21602   9.297  16.138   4.912
55194W        W21603  30.269  17.167   4.121
55195W        W21604  28.544  25.578  11.670
55196W        W21605   4.745  44.408  14.031
55197W        W21606  42.959  13.200   2.692
55198W        W21607  23.090   0.446  11.289
55199W        W21608   2.716  37.986   4.446
55200W        W21609  11.724  40.906   1.267
55201W        W21610  12.237  30.198  14.972
55202W        W21611  25.013   3.830   2.670
55203W        W21612   4.333   0.416  14.303
55204W        W21613  33.047   9.885  11.135
55205W        W21614  11.326   8.161  14.011
55206W        W21615   2.333  39.988   2.117
55207W        W21616   2.923  20.082  10.487
55208W        W21617  40.029   0.350  14.695
55209W        W21618   0.402  39.557  13.169
55210W        W21619  20.024   4.859   4.095
55211W        W21620   4.197  29.043   1.916
55212W        W21621  24.292  19.809   3.544
55213W        W21622  43.917  28.576   1.742
55214W        W21623  30.093  15.648   0.009
55215W        W21624  21.478  25.563   0.425
55216W        W21625  22.792   3.845   2.892
55217W        W21626  22.298  13.865  14.947
55218W        W21627   0.203  19.134  12.169
55219W        W21628  29.141  22.410   0.460
55220W        W21629   1.282  13.065   0.463
55221W        W21630   1.224  25.809  12.933
55222W        W21631  25.848  23.886   3.979
55223W        W21632   1.273  36.869  12.954
55224W        W21633   9.224  25.671  14.269
55225W        W21634  14.630  16.112   4.928
55226W        W21635   5.364  44.836   2.455
55227W        W21636  11.290  24.136   1.678
55228W        W21637   1.361  20.495   1.918
55229W        W21638   2.875  32.204  10.718
55230W        W21639  26.961  32.960  10.509
55231W        W21640  29.596  42.308   2.817
55232W        W21641  11.757  29.419  11.752
55233W        W21642  20.925   7.763   1.762
55234W        W21643   6.653  44.988  11.040
55235W        W21644  26.938  14.280   2.376
55236W        W21645  41.995  33.084   4.502
55237W        W21646  32.098  39.949   2.389
55238W        W21647  33.658  29.695   0.188
55239W        W21648  17.739  22.804  13.001
55240W        W21649  27.484  18.683  12.902
55241W        W21650   0.158   5.588  11.593
55242W        W21651  40.901   3.757   0.006
55243W        W21652  31.981  23.556   3.632
55244W        W21653  20.052  31.442   1.192
55245W        W21654   4.446   5.215  14.576
55246W        W21655  42.289  30.663  13.389
55247W        W21656  33.178  35.915  12.757
55248W        W21657  44.487  30.362  11.317
55249W        W21658  42.891  16.737   3.200
55250W        W21659  23.602  23.230  10.933
55251W        W21660  24.345  24.691   0.309
55252W        W21661  32.123  16.559  14.782
55253W        W21662  40.467  13.492   3.691
55254W        W21663  31.221  11.447  14.871
55255W        W21664   6.463  23.624   3.679
55256W        W21665  14.896  20.185  11.414
55257W        W21666   7.902  41.832   3.619
55258W        W21667  28.657   7.160  12.007
55259W        W21668   9.994  40.300   4.570
55260W        W21669  42.536  32.168  14.934
55261W        W21670  27.214   7.487   2.728
55262W        W21671   6.656  30.063   3.393
55263W        W21672  13.196  38.268   0.204
55264W        W21673  13.798  13.035  13.003
55265W        W21674  23.353  44.831  11.768
55266W        W21675  32.493   5.684   2.417
55267W        W21676   4.758  20.140  11.855
55268W        W21677  12.335  17.803   2.067
55269W        W21678  39.891   2.903  12.849
55270W        W21679  15.740  21.091   2.376
55271W        W21680  37.463  19.120  14.256
55272W        W21681   5.360   0.969  10.626
55273W        W21682   7.988  39.780  11.657
55274W        W21683  36.469  14.523   2.490
55275W        W21684   1.814  28.416   2.736
55276W        W21685  23.180  13.860  14.997
55277W        W21686  30.403  19.062   1.358
55278W        W21687  37.316  11.779  12.491
55279W        W21688  29.798  11.405   2.676
55280W        W21689   3.205  37.022  10.958
55281W        W21690  16.703  26.187  12.023
55282W        W21691  33.208  16.207  13.731
55283W        W21692  32.358  28.465  13.961
55284W        W21693  26.929  22.550  12.516
55285W        W21694  22.190  12.569   3.302
55286W        W21695  14.272  31.102   1.374
55287W        W21696  18.266  38.543   4.650
55288W        W21697  14.824  37.264   1.921
55289W        W21698  10.421  26.517  14.515
55290W        W21699  19.845   1.722  11.224
55291W        W21700  28.539  30.609   1.841
55292W        W21701  36.714  10.363   0.424
55293W        W21702  17.179  37.937  11.721
55294W        W21703  31.070   8.876  14.360
55295W        W21704  15.747   0.383  12.828
55296W        W21705  14.097   6.433   1.683
55297W        W21706  41.302  44.434   0.798
55298W        W21707  14.833  32.693   0.382
55299W        W21708  22.342  32.398  14.548
55300W        W21709  31.824  23.572  10.521
55301W        W21710  21.696  41.689  10.724
55302W        W21711  34.949  21.254   5.259
55303W        W21712  36.138  33.068   3.219
55304W        W21713  12.861  21.722  14.770
55305W        W21714  11.769  35.724   2.118
55306W        W21715  29.929  18.304  14.579
55307W        W21716  41.476  43.656  14.286
55308W        W21717  44.667  36.417   1.393
55309W        W21718  20.260   8.680  10.655
55310W        W21719  36.997  14.207   4.732
55311W        W21720  27.050  34.929  10.932
55312W        W21721  24.559  33.199   1.893
55313W        W21722  33.103  33.308   1.649
55314W        W21723  17.015  42.266  14.397
55315W        W21724  22.842  44.367   1.497
55316W        W21725  27.765  30.559  13.328
55317W        W21726   2.031  19.524  13.967
55318W        W21727  23.300  37.786  12.422
55319W        W21728  14.751  25.703   4.777
55320W        W21729  44.165   6.734  13.627
55321W        W21730   0.694  11.388   3.189
55322W        W21731   5.162  33.498   0.369
55323W        W21732  10.355  15.251  11.219
55324W        W21733   7.297  37.634   3.881
55325W        W21734   3.163   4.508   3.356
55326W        W21735  13.373  44.816   1.397
55327W        W21736  42.309   4.762  12.092
55328W        W21737  38.402  17.307   4.172
55329W        W21738   1.856  36.624  14.053
55330W        W21739  16.979  44.122   9.955
55331W        W21740  24.227   7.421   0.376
55332W        W21741  42.316  10.331  14.304
55333W        W21742  24.751  19.134   2.726
55334W        W21743  27.102  41.035  10.439
55335W        W21744  37.740   7.854   1.532
55336W        W21745  23.068  43.444  14.875
55337W        W21746  17.670  32.256  11.949
55338W        W21747  31.586   1.677   1.455
55339W        W21748  21.785  14.079  14.401
55340W        W21749   3.028   1.733  13.091
55341W        W21750  33.918  17.332  11.122
55342W        W21751  10.545  15.205   4.280
55343W        W21752  40.042  12.628   0.896
55344W        W21753  14.241   8.710   1.624
55345W        W21754  29.609  17.608   0.938
55346W        W21755  12.220   9.437  13.528
55347W        W21756   8.077   8.621  13.139
55348W        W21757   9.799   8.297  14.975
55349W        W21758   3.163  39.911   4.173
55350W        W21759  44.596  29.088   0.785
55351W        W21760  31.824  36.624   2.802
55352W        W21761  12.363  41.871   3.908
55353W        W21762  13.861  33.906   3.323
55354W        W21763  30.110   3.373  10.631
55355W        W21764   9.831  11.675  10.749
55356W        W21765  17.819   7.394   1.376
55357W        W21766  21.558   6.976   2.715
55358W        W21767  41.990  22.617  12.982
55359W        W21768  12.904   0.752   1.565
55360W        W21769  29.181  36.127   0.892
55361W        W21770  41.402  18.531   1.354
55362W        W21771   5.231  44.782  11.078
55363W        W21772  21.139   1.442  13.040
55364W        W21773  21.806  28.707   3.183
55365W        W21774  15.498  19.027  10.488
55366W        W21775   8.142   8.979   1.467
55367W        W21776   2.023  32.905  13.387
55368W        W21777  26.210  20.085   1.854
55369W        W21778  34.610  27.894  10.658
55370W        W21779  43.873  40.076   4.435
55371W        W21780   8.383  36.594  12.924
55372W        W21781   7.175  11.804   1.319
55373W        W21782  32.577  23.613  12.041
55374W        W21783  20.131   8.812  12.549
55375W        W21784  19.768  37.306   2.458
55376W        W21785  16.094  16.221  14.224
55377W        W21786  20.202  15.463  12.878
55378W        W21787  15.542  44.933  10.044
55379W        W21788  20.131  18.194  12.078
55380W        W21789  42.516  16.666   4.043
55381W        W21790  10.339  40.554   2.818
55382W        W21791   3.255   6.860   1.824
55383W        W21792   7.197  38.565   2.384
55384W        W21793  42.589  35.047  11.100
55385W        W21794  28.484  23.951   1.393
55386W        W21795   6.391  34.989   1.014
55387W        W21796   9.881   3.514   3.854
55388W        W21797   2.790  15.109  11.647
55389W        W21798  28.031  25.604  14.255
55390W        W21799   4.341  40.746  12.669
55391W        W21800  41.575   2.387   4.900
55392W        W21801  14.695   0.394   2.645
55393W        W21802  16.669   2.424   2.898
55394W        W21803  22.307  12.097   4.600
55395W        W21804  17.397  31.878   2.767
55396W        W21805  14.106  42.515  12.648
55397W        W21806   4.851  41.840  14.743
55398W        W21807  16.626  33.239   2.211
55399W        W21808  38.152  37.248  13.180
55400W        W21809  13.194  36.725  11.694
55401W        W21810  14.109  17.025  11.040
55402W        W21811  36.972  43.177   2.421
55403W        W21812  22.756  36.973  10.499
55404W        W21813  32.338  24.448  13.082
55405W        W21814  38.827  15.727  10.663
55406W        W21815  13.650   0.247   3.331
55407W        W21816   5.610  44.979   3.622
55408W        W21817  19.035  39.396  10.723
55409W        W21818   0.442   9.718   0.826
55410W        W21819  12.700  29.741   4.156
55411W        W21820   4.046   3.259   0.064
55412W        W21821  34.569  15.399  14.490
55413W        W21822  41.032  17.551  13.907
55414W        W21823  11.951   0.756  11.835
55415W        W21824  26.639  41.914  13.577
55416W        W21825  18.666  20.255   4.615
55417W        W21826  44.748   4.831  13.991
55418W        W21827  10.807  26.267   0.339
55419W        W21828   2.086  29.985   1.984
55420W        W21829  26.528  22.940   2.191
55421W        W21830  36.047   9.419  14.975
55422W        W21831  19.168  39.765  11.998
55423W        W21832   8.875  14.271   4.223
55424W        W21833   3.343  15.527  12.372
55425W        W21834  44.298   8.813   2.912
55426W        W21835  21.808  24.234   2.799
55427W        W21836  29.077   9.855   1.243
55428W        W21837  24.398  42.947   2.591
55429W        W21838   0.299  38.919   1.756
55430W        W21839  17.064   6.017   0.876
55431W        W21840   1.348  13.796   4.895
55432W        W21841  36.743  28.691  11.085
55433W        W21842  44.479  32.748   3.717
55434W        W21843  32.537  20.801  12.395
55435W        W21844  39.912  43.218   3.236
55436W        W21845  33.465  16.097   1.800
55437W        W21846  44.313  37.063   0.361
55438W        W21847  19.540  25.567   3.229
55439W        W21848  41.297  44.012  14.919
55440W        W21849  22.974  30.057   0.033
55441W        W21850  35.167  12.249   2.281
55442W        W21851  26.249   7.319  12.164
55443W        W21852  39.287  15.293  10.571
55444W        W21853  20.799  26.165   4.279
55445W        W21854   1.981  14.481  11.548
55446W        W21855  34.856   4.785  12.726
55447W        W21856  36.345  28.011  14.952
55448W        W21857  41.495   5.893   2.097
55449W        W21858   4.758  34.240   2.694
55450W        W21859  35.643  36.227  14.306
55451W        W21860  18.226  17.602   3.321
55452W        W21861  30.037  17.690   1.244
55453W        W21862   0.337  34.179   2.162
55454W        W21863  11.183  10.950   1.824
55455W        W21864  43.556  32.614   1.000
55456W        W21865  21.570  32.098   3.242
55457W        W21866   2.485  35.228  10.994
55458W        W21867  42.227   3.743   2.102
55459W        W21868   7.898  44.797   1.390
55460W        W21869   1.378  35.595   0.255
55461W        W21870   2.914  22.168  14.884
55462W        W21871   5.761  20.975   2.508
55463W        W21872  27.499  11.421  13.058
55464W        W21873   3.785  31.211   0.893
55465W        W21874  29.756  15.339  12.007
55466W        W21875  20.077  35.566  10.394
55467W        W21876  40.935   2.522   1.885
55468W        W21877  32.703  39.855  12.891
55469W        W21878  31.911  42.820   0.412
55470W        W21879  20.522  44.171  10.252
55471W        W21880  25.035  31.627  12.494
55472W        W21881  42.455  37.934  12.421
55473W        W21882  12.529  16.387  11.233
55474W        W21883  10.119   6.155  14.837
55475W        W21884  11.376  26.281  11.534
55476W        W21885  14.373  14.311  13.798
55477W        W21886   0.247  11.360   0.224
55478W        W21887  11.672  43.766   4.877
55479W        W21888  28.215  35.570  10.233
55480W        W21889  22.283   9.100   3.324
55481W        W21890  42.505  13.653  11.196
55482W        W21891  35.687  13.160   3.844
55483W        W21892   7.944  16.165   2.201
55484W        W21893   0.927  28.182   4.151
55485W        W21894  44.988   1.262   1.939
55486W        W21895  24.094  39.803  13.815
55487W        W21896  10.162  20.074   3.251
55488W        W21897  42.550  27.894  13.772
55489W        W21898   2.266  17.480   3.185
55490W        W21899   4.330   3.387  12.840
55491W        W21900  20.171  37.417   0.735
55492W        W21901   9.331  28.632   1.307
55493W        W21902  29.720   6.507  12.545
55494W        W21903   6.334   6.410   3.521
55495W        W21904  35.571  22.397  13.412
55496W        W21905  33.527   9.128  11.150
55497W        W21906   2.361   3.350   5.183
55498W        W21907  30.571   9.831  11.138
55499W        W21908  44.551  26.687   3.277
55500W        W21909  24.148  41.042   0.837
55501W        W21910  18.684  11.780   4.942
55502W        W21911  36.803  21.724  14.776
55503W        W21912  30.998  41.227   0.739
55504W        W21913  20.603  20.965   2.375
55505W        W21914  24.439   6.434   0.322
55506W        W21915  21.240  17.584  13.794
55507W        W21916   7.929  32.849  13.151
55508W        W21917  18.751   3.000  13.973
55509W        W21918  40.150  40.095   4.464
55510W        W21919   3.296   7.360  12.487
55511W        W21920  42.799  36.364  13.568
55512W        W21921  22.826  33.076   4.382
55513W        W21922  15.301   9.390  11.709
55514W        W21923  34.828   6.157  10.204
55515W        W21924  44.274  20.657  11.379
55516W        W21925  16.117  10.965  12.441
55517W        W21926  32.037  24.981  10.868
55518W        W21927  33.034   8.744   1.285
55519W        W21928   9.887  30.922  14.354
55520W        W21929  32.114  37.566   1.266
55521W        W21930  31.517  13.987  12.853
55522W        W21931   3.789  19.339   1.615
55523W        W21932  16.342   2.489   0.791
55524W        W21933  30.083  30.093  12.633
55525W        W21934  41.917   8.193  12.038
55526W        W21935  18.714  27.169  13.767
55527W        W21936  25.640  41.768   3.645
55528W        W21937   8.259  28.454   2.227
55529W        W21938  23.643   7.711   1.679
55530W        W21939  19.679   4.282   3.312
55531W        W21940  11.301  18.550   0.664
55532W        W21941  39.118  25.943   4.734
55533W        W21942   0.822  26.657  12.825
55534W        W21943   4.412  25.458  14.482
55535W        W21944   2.315  26.699   4.207
55536W        W21945  23.984  32.172  14.872
55537W        W21946  22.596  10.337   3.858
55538W        W21947  26.889  36.367  11.144
55539W        W21948  18.033  33.460  10.732
55540W        W21949  14.202  40.334   3.400
55541W        W21950  32.647   1.856   0.181
55542W        W21951   2.550  44.506   1.258
55543W        W21952  20.783  38.629  13.359
55544W        W21953  13.935  26.005   2.378
55545W        W21954  27.838  10.419   4.973
55546W        W21955  41.498  42.351   0.210
55547W        W21956  13.631  15.678   1.389
55548W        W21957   0.718  19.251   0.760
55549W        W21958  28.433  12.880  11.237
55550W        W21959  38.532  41.449  14.475
55551W        W21960  19.063  22.739   3.201
55552W        W21961   6.474   9.171   0.020
55553W        W21962  10.375  20.783   2.408
55554W        W21963  20.778  19.145   3.753
55555W        W21964  30.646  38.148   1.732
55556W        W21965   4.051  10.381  12.881
55557W        W21966  26.815   3.982   4.004
55558W        W21967  10.440  36.519   3.781
55559W        W21968  42.939  33.054   2.625
55560W        W21969  21.890  19.304  11.910
55561W        W21970  42.626  18.103  13.368
55562W        W21971  36.247  13.097   4.542
55563W        W21972  16.366  41.030   2.878
55564W        W21973  19.515  16.643  11.523
55565W        W21974   0.214   9.936  13.374
55566W        W21975  41.993  39.440   4.719
55567W        W21976  10.809   2.802  14.951
55568W        W21977   0.604  26.406  12.414
55569W        W21978  32.924  18.116  10.522
55570W        W21979  18.830   7.865   2.888
55571W        W21980  20.783  33.865  10.768
55572W        W21981  34.808  31.818  12.970
55573W        W21982  11.405  11.855  11.974
55574W        W21983  31.931  18.750   0.992
55575W        W21984  42.256   6.895   1.220
55576W        W21985  26.683  11.169  11.579
55577W        W21986  15.512   9.458   1.479
55578W        W21987  40.947  44.242   2.307
55579W        W21988  28.660  10.727  14.019
55580W        W21989  29.366  27.050  11.191
55581W        W21990  22.244  27.049   3.582
55582W        W21991   0.833  17.243  10.027
55583W        W21992  21.749  12.723  11.836
55584W        W21993  10.638   2.872  14.081
55585W        W21994  13.395  29.490  12.225
55586W        W21995   2.903  34.437  12.682
55587W        W21996  27.566  36.972   4.271
55588W        W21997  39.512  31.155  14.887
55589W        W21998  28.653  22.824   3.215
55590W        W21999  14.375  27.927   1.754
55591W        W22000  40.038  25.678  13.157
55592W        W22001  14.991  10.064  13.240
55593W        W22002  42.915  32.086  13.593
55594W        W22003  43.764   4.218   0.476
55595W        W22004  12.862  20.653   4.884
55596W        W22005   7.768   0.191  10.141
55597W        W22006  39.526  42.588  13.391
55598W        W22007  42.836  37.046  14.947
55599W        W22008  40.973  26.099  12.338
55600W        W22009  37.086  44.693  14.102
55601W        W22010   4.353  40.589   4.681
55602W        W22011   1.946  41.076   1.823
55603W        W22012  27.721  38.462  13.404
55604W        W22013  44.310   7.161  13.868
55605W        W22014  30.209  29.985  12.151
55606W        W22015  20.752  34.577   0.756
55607W        W22016  35.677   6.082  10.918
55608W        W22017  14.179  37.059   1.935
55609W        W22018  25.992  15.807   3.377
55610W        W22019   1.814  38.559  10.786
55611W        W22020  24.073  11.749  11.620
55612W        W22021  44.741  11.857   0.828
55613W        W22022   8.817  20.483  12.428
55614W        W22023  38.564   3.036   2.258
55615W        W22024  25.132   7.951   2.791
55616W        W22025  12.098   7.700   2.459
55617W        W22026  16.088   0.432   4.149
55618W        W22027  23.762  44.090   0.629
55619W        W22028  28.286  38.447   1.897
55620W        W22029  34.361  11.125  12.503
55621W        W22030   1.382  40.442   2.342
55622W        W22031  24.232  21.179   3.180
55623W        W22032  23.687  34.053  13.831
55624W        W22033  40.583  40.385   2.818
55625W        W22034  34.642   1.428   2.436
55626W        W22035  38.219  21.069   1.919
55627W        W22036  31.983  44.712  12.061
55628W        W22037   9.909  41.263   0.226
55629W        W22038  39.488  42.657  10.799
55630W        W22039  16.862  28.872  11.954
55631W        W22040  33.178  23.209  13.172
55632W        W22041  15.676  16.546  14.201
55633W        W22042  39.663  17.269  11.914
55634W        W22043  21.291  44.091   4.095
55635W        W22044  12.325   8.780  11.080
55636W        W22045  42.973  13.051  12.157
55637W        W22046  28.916  11.794   4.178
55638W        W22047  31.083  37.335  14.677
55639W        W22048  41.936   6.734  14.306
55640W        W22049  12.381  14.956  10.673
55641W        W22050  31.624  28.420   4.786
55642W        W22051  41.906   1.755  13.793
55643W        W22052  40.288   0.845  11.302
55644W        W22053  37.846  40.715  10.597
55645W        W22054  39.579  17.497   0.465
55646W        W22055   5.739   5.513  13.061
55647W        W22056  44.505   2.694   2.668
55648W        W22057  25.576   2.489  13.432
55649W        W22058  17.255  40.309   3.067
55650W        W22059  37.078   1.610   1.975
55651W        W22060  24.168  25.305   4.560
55652W        W22061  42.654  18.116   2.145
55653W        W22062  20.057   6.750   4.591
55654W        W22063  26.665   0.812  13.985
55655W        W22064  10.746  40.225   4.020
55656W        W22065   9.847   1.243  12.382
55657W        W22066   7.806  21.508  11.821
55658W        W22067  38.468  38.845   1.752
55659W        W22068  44.966  17.785   0.311
55660W        W22069  34.538  44.998   1.461
55661W        W22070  17.198  14.562  10.631
55662W        W22071  35.911  31.385   2.257
55663W        W22072  30.969  17.618   2.931
55664W        W22073  20.365   5.900  10.712
55665W        W22074   5.863  26.534   1.740
55666W        W22075  28.077  20.670  12.357
55667W        W22076  16.572  30.585  14.853
55668W        W22077  44.760  13.728  11.564
55669W        W22078  17.008  17.430  12.419
55670W        W22079  36.971  42.296  11.754
55671W        W22080  32.326  15.269  10.386
55672W        W22081   0.406  30.240  14.018
55673W        W22082  27.320   0.179  10.581
55674W        W22083  32.650  12.047   4.167
55675W        W22084  23.718   7.856   0.745
55676W        W22085  33.467  43.318   3.388
55677W        W22086  37.432  11.243   0.806
55678W        W22087  28.892  34.278   4.314
55679W        W22088   9.558   3.322   0.937
55680W        W22089   2.729   9.009  12.405
55681W        W22090  32.975  16.194  10.667
55682W        W22091  13.350  31.910   4.562
55683W        W22092   1.628  24.985  12.866
55684W        W22093   2.880  38.042  12.070
55685W        W22094  11.226  25.508   0.398
55686W        W22095  17.740  16.066   0.452
55687W        W22096  37.778  43.159  12.970
55688W        W22097   6.276  28.931  11.551
55689W        W22098  34.916  17.059  12.888
55690W        W22099   5.812   7.819  14.236
55691W        W22100  31.513  25.095   2.371
55692W        W22101   6.893   0.895   1.233
55693W        W22102  17.611  34.092   1.367
55694W        W22103  14.693   3.169  11.086
55695W        W22104  43.876  38.274  13.792
55696W        W22105  19.785  34.482  12.585
55697W        W22106  34.074   2.943   1.343
55698W        W22107  34.886  22.561   4.496
55699W        W22108  10.918  44.782   3.422
55700W        W22109  32.073  38.746  13.496
55701W        W22110  11.448   7.213   3.587
55702W        W22111  38.297   1.693   0.259
55703W        W22112  21.737   8.180   4.681
55704W        W22113  20.116  19.372   3.259
55705W        W22114  26.741  15.704   2.682
55706W        W22115  40.037  33.400   0.635
55707W        W22116   0.696  36.929  11.418
55708W        W22117  18.865   6.139   3.407
55709W        W22118  12.379  39.030   0.601
55710W        W22119  34.983  10.732   0.904
55711W        W22120  39.365   0.391   3.469
55712W        W22121  19.395  30.917  12.556
55713W        W22122  40.225  32.101  11.071
55714W        W22123   5.848  31.458  11.509
55715W        W22124  13.704  39.440   4.646
55716W        W22125  21.635   9.723  14.456
55717W        W22126   5.504   0.353   3.214
55718W        W22127   5.651  43.840   4.478
55719W        W22128  23.062   7.152  13.404
55720W        W22129  20.898  30.162   3.215
55721W        W22130   2.910   1.906  10.883
55722W        W22131   7.374  14.826   3.750
55723W        W22132   5.746   4.545  10.718
55724W        W22133  42.851  23.778   4.252
55725W        W22134  22.806   4.558   2.355
55726W        W22135  14.324  25.710   2.611
55727W        W22136  30.653   9.329  11.181
55728W        W22137  43.413  29.654  14.704
55729W        W22138  28.735  23.124   4.197
55730W        W22139  37.593  28.376   0.881
55731W        W22140   8.114  40.208   0.326
55732W        W22141  27.424  26.075  14.425
55733W        W22142  20.523  28.400  10.726
55734W        W22143  33.110   3.765   1.870
55735W        W22144  23.178  30.940   0.266
55736W        W22145  26.238  16.093  14.827
55737W        W22146  13.214  18.408  14.308
55738W        W22147  35.546  27.739   4.112
55739W        W22148  21.031   5.719   2.177
55740W        W22149   5.428  42.744   2.430
55741W        W22150  33.961  31.605   4.547
55742W        W22151  19.144  25.407   2.280
55743W        W22152  43.260  33.349   3.830
55744W        W22153   0.809  41.800   0.530
55745W        W22154   5.365  16.920  12.566
55746W        W22155  19.372  30.547  10.749
55747W        W22156  10.504   2.375  14.991
55748W        W22157   3.464  19.694  11.667
55749W        W22158  38.165  40.372  12.030
55750W        W22159  24.238  26.073  13.398
55751W        W22160  12.878  39.438  14.076
55752W        W22161  22.099  18.291   2.870
55753W        W22162  33.447   1.964  10.685
55754W        W22163  43.120   5.526   4.944
55755W        W22164  14.357   5.162   0.318
55756W        W22165  14.749  37.802  11.573
55757W        W22166  39.602   0.859   3.594
55758W        W22167  35.851  36.546  12.970
55759W        W22168  29.847   1.303   2.716
55760W        W22169  26.000  39.768  14.029
55761W        W22170  13.310  34.422   0.877
55762W        W22171   7.493  23.931  14.367
55763W        W22172   0.405  25.733   0.237
55764W        W22173  29.243  37.302   3.254
55765W        W22174  30.203  21.395   4.105
55766W        W22175   8.202   0.208   4.276
55767W        W22176  31.131  37.422   1.136
55768W        W22177   8.317  44.808  13.596
55769W        W22178  25.435   5.323  11.888
55770W        W22179  35.221  26.581   0.453
55771W        W22180  44.849  32.957  13.896
55772W        W22181  25.640   0.857   3.747
55773W        W22182  42.511  23.170  12.362
55774W        W22183  44.871   7.848   4.531
55775W        W22184  17.334  31.347  11.117
55776W        W22185  12.203  19.509  11.006
55777W        W22186  26.306  33.894  10.491
55778W        W22187  35.110  24.252  11.538
55779W        W22188   9.967  26.008  13.991
55780W        W22189   6.268  13.806  14.298
55781W        W22190  32.813   6.875   3.186
55782W        W22191  21.095  40.080   3.739
55783W        W22192  31.795   4.737   1.345
55784W        W22193   6.130  40.113  12.382
55785W        W22194   9.200   1.393  11.206
55786W        W22195  37.797  43.895   1.751
55787W        W22196  44.754  18.108   3.685
55788W        W22197  11.939  28.594   0.759
55789W        W22198   3.024  41.318   1.706
55790W        W22199  31.187  10.262  12.490
55791W        W22200  39.018   5.769   3.457
55792W        W22201  41.888  18.479   1.140
55793W        W22202   4.363  17.831   4.765
55794W        W22203  37.487  42.777   2.848
55795W        W22204  44.537   0.565  10.764
55796W        W22205  18.080   5.413  10.578
55797W        W22206   5.632  28.695  10.186
55798W        W22207  35.319  27.109   1.471
55799W        W22208   3.595   2.990  14.065
55800W        W22209  43.267  17.983  14.805
55801W        W22210   9.362   4.680   3.185
55802W        W22211  34.824  13.763   3.274
55803W        W22212  27.570  10.933  12.898
55804W        W22213  25.515  19.509   0.737
55805W        W22214   6.887  16.893  11.026
55806W        W22215  16.719   9.659   0.315
55807W        W22216  18.820  41.043   3.171
55808W        W22217  33.964   7.267   2.912
55809W        W22218  44.831   2.314   1.906
55810W        W22219   5.493   3.983   2.828
55811W        W22220  24.957  12.662  10.637
55812W        W22221  25.163  26.163   3.592
55813W        W22222  40.932  43.735   4.963
55814W        W22223  34.932  17.121   0.326
55815W        W22224  28.681  12.133  12.918
55816W        W22225   8.306  16.745   0.785
55817W        W22226  17.858  25.975   2.113
55818W        W22227  41.035  20.657  14.948
55819W        W22228   4.733  40.814   0.837
55820W        W22229  43.845  18.634  10.705
55821W        W22230   1.852   4.168  12.953
55822W        W22231  24.898  11.180  13.466
55823W        W22232  18.246  18.001   0.699
55824W        W22233  37.335  38.812   0.818
55825W        W22234  10.743  30.769  10.226
55826W        W22235  42.408  41.634  10.943
55827W        W22236  20.784  32.505   4.876
55828W        W22237   2.521  15.853  13.377
55829W        W22238  10.497  31.888   5.204
55830W        W22239  39.097  28.942  10.634
55831W        W22240  22.917  41.033  13.767
55832W        W22241  12.005  19.161  13.520
55833W        W22242  28.958  18.536  11.548
55834W        W22243  42.789  22.522  14.308
55835W        W22244  23.404  37.442   1.221
55836W        W22245  13.129  18.087  11.345
55837W        W22246  37.407  42.624   2.354
55838W        W22247  26.043  32.810  12.488
55839W        W22248  34.177  39.012  10.252
55840W        W22249  10.107   3.524   4.503
55841W        W22250   8.333   7.240  11.920
55842W        W22251  36.964   9.410  14.988
55843W        W22252  34.190  18.643  12.093
55844W        W22253  21.321  22.586   4.518
55845W        W22254  15.624  17.755   2.364
55846W        W22255  41.348  22.691  11.499
55847W        W22256  36.028  10.835  11.543
55848W        W22257  17.809  11.073  11.188
55849W        W22258  26.878  24.418  13.351
55850W        W22259  20.720   4.724  12.935
55851W        W22260   9.383  30.514   4.463
55852W        W22261  43.500  44.899  10.682
55853W        W22262  26.772   5.811   0.469
55854W        W22263   4.940   8.583   0.386
55855W        W22264  24.428   3.311  11.153
55856W        W22265  29.190  19.109   2.338
55857W        W22266   3.894  26.597   2.765
55858W        W22267  35.099   6.142  12.830
55859W        W22268  16.167  14.530  12.716
55860W        W22269  39.402   5.505  10.691
55861W        W22270  32.513   7.382  13.444
55862W        W22271  22.118  24.672   4.895
55863W        W22272  35.816  11.344   5.062
55864W        W22273  12.934  31.077   4.533
55865W        W22274   4.999   3.819   2.804
55866W        W22275  43.224   4.785   1.203
55867W        W22276  34.565  43.639   4.875
55868W        W22277   4.573  41.691   3.613
55869W        W22278   3.818  39.302  14.082
55870W        W22279  28.620  44.415  10.773
55871W        W22280   7.643  17.757  12.334
55872W        W22281  33.944  16.037  14.813
55873W        W22282  14.385   9.944  10.175
55874W        W22283  38.414  31.813  10.861
55875W        W22284  13.624  42.641  12.593
55876W        W22285  43.552  33.581   2.891
55877W        W22286   3.385   5.344   1.861
55878W        W22287  19.688  22.678  10.699
55879W        W22288  12.791  41.002   2.703
55880W        W22289   2.301  20.189   0.260
55881W        W22290   2.729  38.640  11.572
55882W        W22291  18.255  32.981   1.355
55883W        W22292  21.237  37.805  12.052
55884W        W22293  13.348  16.437   3.874
55885W        W22294   9.658  44.395   3.757
55886W        W22295  41.722  36.120   3.434
55887W        W22296  25.769  10.818   1.749
55888W        W22297  23.863  21.605   2.888
55889W        W22298  12.351  29.331  12.919
55890W        W22299  38.778   3.923  12.003
55891W        W22300  27.389  30.471   1.657
55892W        W22301  29.905  25.522   1.284
55893W        W22302  10.824  44.072  14.051
55894W        W22303  12.274  26.074   4.464
55895W        W22304  36.388  27.878   3.763
55896W        W22305  12.829  35.554  11.833
55897W        W22306  31.385  16.722  10.767
55898W        W22307  36.560  42.733  13.658
55899W        W22308  19.152   2.500   4.597
55900W        W22309  26.469   4.757  13.586
55901W        W22310  38.207  43.457  10.457
55902W        W22311   7.455   2.754  11.619
55903W        W22312  31.604  37.596   3.821
55904W        W22313  35.858  26.175   0.040
55905W        W22314   6.723   7.780   0.942
55906W        W22315  36.814   7.875  11.545
55907W        W22316  31.592  28.283  14.830
55908W        W22317  18.698   8.089  11.489
55909W        W22318  40.914  20.556  10.444
55910W        W22319  25.174  22.963  14.917
55911W        W22320  23.713   7.140  14.446
55912W        W22321   2.425   2.626  13.419
55913W        W22322  21.330  23.993   2.787
55914W        W22323  16.587   2.734  13.789
55915W        W22324   2.947  21.026  10.682
55916W        W22325  15.564  22.849  10.243
55917W        W22326  33.120  28.641  11.376
55918W        W22327  42.520  29.700   2.867
55919W        W22328  12.573   4.848   1.363
55920W        W22329   5.291   5.712   2.340
55921W        W22330  33.086  39.551   0.258
55922W        W22331   6.345  32.635  14.415
55923W        W22332   1.310  11.127   3.208
55924W        W22333   9.271   9.339  14.218
55925W        W22334  12.546   5.216  13.941
55926W        W22335  38.362   9.742  14.800
55927W        W22336  21.718  32.931   0.708
55928W        W22337   0.868  40.292   3.211
55929W        W22338  18.037  22.700   1.163
55930W        W22339  27.636  37.359   3.618
55931W        W22340  17.312  32.014  11.609
55932W        W22341   8.306   5.899   2.873
55933W        W22342   6.314  35.079  12.217
55934W        W22343   2.883  25.411  14.155
55935W        W22344  41.006  11.873   4.578
55936W        W22345   1.406  12.154  12.337
55937W        W22346   9.181  40.915   4.095
55938W        W22347   5.914  29.952   0.243
55939W        W22348   8.433   5.443  11.571
55940W        W22349  38.993  40.390  11.032
55941W        W22350   7.134  30.522  12.542
55942W        W22351  36.129   4.810   4.594
55943W        W22352  18.532  22.479  11.337
55944W        W22353  29.380   4.295  11.703
55945W        W22354  41.044  39.108   2.160
55946W        W22355  31.809   8.521  11.669
55947W        W22356  10.404  20.408  11.519
55948W        W22357   1.390  15.672   4.837
55949W        W22358  37.065  30.944  13.047
55950W        W22359  42.219  42.158   3.291
55951W        W22360  22.676  37.675  14.418
55952W        W22361  40.830   1.731  10.605
55953W        W22362  36.625  30.807  13.305
55954W        W22363   7.855  27.644  11.274
55955W        W22364  16.050  30.613  14.857
55956W        W22365  28.055  14.290  12.157
55957W        W22366   7.361   8.658  12.181
55958W        W22367  10.695  31.078   2.739
55959W        W22368   1.215   2.458  13.751
55960W        W22369   8.177  31.451   4.536
55961W        W22370  26.683  27.062  13.009
55962W        W22371  31.908  33.078  14.255
55963W        W22372  13.676  36.704   3.756
55964W        W22373  33.472  24.265  14.186
55965W        W22374  23.147  15.074   2.813
55966W        W22375  29.982  29.580   3.214
55967W        W22376   8.178  29.721   2.562
55968W        W22377  42.565  39.239   1.743
55969W        W22378  39.223  28.021  12.115
55970W        W22379  38.545  15.606  11.985
55971W        W22380  42.250  36.117   0.994
55972W        W22381  34.420  39.132  13.028
55973W        W22382  29.942  23.332  12.821
55974W        W22383  30.672  14.083   1.812
55975W        W22384   1.668   8.516  14.375
55976W        W22385   3.794  41.259  11.504
55977W        W22386  22.672  15.525   1.309
55978W        W22387  26.139  29.535   5.325
55979W        W22388  19.276  25.110  11.536
55980W        W22389  44.965  40.215  13.271
55981W        W22390  33.455  30.902  13.083
55982W        W22391   7.429  28.208   2.753
55983W        W22392  11.104  41.965   4.144
55984W        W22393  11.259  14.751  12.120
55985W        W22394   0.284  17.788   4.570
55986W        W22395  19.491   7.742   0.746
55987W        W22396   2.107  30.093  14.765
55988W        W22397  18.084   8.251  13.880
55989W        W22398  29.982  25.267   2.291
55990W        W22399  26.981  19.549  13.802
55991W        W22400  33.562  44.856   1.717
55992W        W22401  38.049  24.001  12.497
55993W        W22402  37.753  10.515   0.195
55994W        W22403  29.741  30.087  14.428
55995W        W22404   6.757  44.959  13.467
55996W        W22405  16.723  25.964  11.553
55997W        W22406  28.173   8.643  12.857
55998W        W22407  15.781  19.974  14.738
55999W        W22408   3.815  15.610  14.026
56000W        W22409  35.522  31.524  14.739
56001W        W22410   3.521   4.198  14.955
56002W        W22411  20.108  38.228  11.866
56003W        W22412  22.414  16.781  13.916
56004W        W22413  19.583  31.944   0.223
56005W        W22414  37.018  36.071  11.227
56006W        W22415  42.395   4.048   0.365
56007W        W22416  24.065   3.244   2.891
56008W        W22417  36.859   0.209  11.575
56009W        W22418  31.541  13.256   4.922
56010W        W22419  18.788  13.317  13.018
56011W        W22420  19.112  40.259   2.191
56012W        W22421  22.059  28.091  13.852
56013W        W22422   4.887   9.896   4.687
56014W        W22423  42.291  40.064  14.246
56015W        W22424  27.880  32.752   2.024
56016W        W22425  24.596  42.646  14.375
56017W        W22426  34.019  38.447  14.400
56018W        W22427  40.071  38.078  10.820
56019W        W22428  42.008  20.928  14.250
56020W        W22429  11.719  36.739  11.800
56021W        W22430  27.954  28.027  10.663
56022W        W22431   0.765   9.179   0.684
56023W        W22432  44.477   4.160   2.375
56024W        W22433  32.669   7.838   1.445
56025W        W22434  36.419  25.448   2.233
56026W        W22435  34.604  33.212  14.952
56027W        W22436  27.670  34.002   2.441
56028W        W22437   3.816  10.162   4.535
56029W        W22438  36.647  29.689   2.446
56030W        W22439   3.863  27.052  13.552
56031W        W22440   5.895  12.067   0.199
56032W        W22441  34.105   9.810  13.193
56033W        W22442  22.667  39.942   3.358
56034W        W22443   9.125  24.493  13.924
56035W        W22444  19.030  23.890  10.394
56036W        W22445  15.154  16.849   3.335
56037W        W22446  25.012  27.933   4.210
56038W        W22447  30.903  11.138  13.960
56039W        W22448  13.876  41.251  12.051
56040W        W22449  38.053   9.756  12.887
56041W        W22450  36.379   3.836  11.583
56042W        W22451  44.857  16.738   3.770
56043W        W22452   0.048   6.301   9.927
56044W        W22453  44.584  10.551  12.462
56045W        W22454  37.416  26.109   0.204
56046W        W22455  26.773  16.757   3.585
56047W        W22456  31.151   1.269  10.651
56048W        W22457  30.920  24.534   3.179
56049W        W22458  23.500  36.676  13.572
56050W        W22459   4.447   4.256   3.610
56051W        W22460  43.174   5.747   3.068
56052W        W22461   2.837  33.896   4.376
56053W        W22462   1.543  40.809   1.660
56054W        W22463  32.575  39.569   1.435
56055W        W22464  11.362  43.191   9.694
56056W        W22465  34.161   6.182  11.458
56057W        W22466  23.570   5.319   4.573
56058W        W22467  27.171  21.057   1.851
56059W        W22468  26.975  15.165  14.182
56060W        W22469   1.588  16.043   0.678
56061W        W22470  36.036   2.789   0.485
56062W        W22471   3.234  21.597  11.433
56063W        W22472   7.282   6.830  14.554
56064W        W22473  26.683  18.010  14.445
56065W        W22474  10.020  43.193   1.779
56066W        W22475   7.908   3.501   1.983
56067W        W22476   4.459  42.870  14.446
56068W        W22477  25.721  18.641   0.280
56069W        W22478  20.689  39.145  13.282
56070W        W22479  25.614  16.606   0.462
56071W        W22480  12.348  24.720   2.337
56072W        W22481   7.632   3.252  10.615
56073W        W22482  12.537  34.004   1.785
56074W        W22483  15.247  23.783   2.176
56075W        W22484  43.319  18.733   1.789
56076W        W22485  35.578  39.181  13.479
56077W        W22486  29.122  26.329  10.766
56078W        W22487  28.636   2.428   1.430
56079W        W22488   3.622  41.520  14.377
56080W        W22489  18.520  36.688   1.363
56081W        W22490  30.416  26.427   4.995
56082W        W22491  44.535  40.264   3.717
56083W        W22492  34.354  27.467  13.760
56084W        W22493  34.786  42.578   2.719
56085W        W22494  37.916  22.517   2.615
56086W        W22495  29.239  35.295   3.220
56087W        W22496  36.670  17.182   0.398
56088W        W22497  18.276  27.151   4.875
56089W        W22498   5.428  24.562  11.894
56090W        W22499  40.543  41.973  12.929
56091W        W22500  16.649  25.454   3.684
56092W        W22501  16.772  41.807  11.214
56093W        W22502  37.777  42.050   3.298
56094W        W22503  41.620   3.493   4.238
56095W        W22504  10.368  10.178   1.250
56096W        W22505   2.470   8.173   4.207
56097W        W22506  11.619   1.158   4.321
56098W        W22507   1.385  38.610   2.875
56099W        W22508  13.274   1.778   3.653
56100W        W22509  14.275  20.709   0.773
56101W        W22510  10.646  37.405  11.174
56102W        W22511  43.847   5.292  13.580
56103W        W22512  18.968  19.202  14.265
56104W        W22513   6.895  14.294   1.262
56105W        W22514  31.166  11.943   1.695
56106W        W22515  25.622   9.416  14.295
56107W        W22516   6.884  17.635  13.997
56108W        W22517  12.108  17.152  11.453
56109W        W22518   6.489  20.695   0.517
56110W        W22519  19.988   8.293  11.047
56111W        W22520  28.246  12.800  13.936
56112W        W22521  23.982  27.497  14.547
56113W        W22522  21.030  29.089   1.438
56114W        W22523  37.920  36.303  10.430
56115W        W22524   7.392  27.174  10.120
56116W        W22525  39.151  29.983   4.246
56117W        W22526   1.456  34.016  10.806
56118W        W22527  43.925  10.913   5.293
56119W        W22528   0.447  35.778  12.936
56120W        W22529   2.428  26.676  14.338
56121W        W22530  42.938  21.147   1.875
56122W        W22531   7.427  39.031   3.326
56123W        W22532   7.902   2.019   0.983
56124W        W22533  40.052   0.173   3.147
56125W        W22534  44.052  31.332   4.485
56126W        W22535  35.614  33.971  10.441
56127W        W22536  38.435   5.937  11.107
56128W        W22537   1.529  39.905  14.818
56129W        W22538   8.951  28.174  13.476
56130W        W22539  14.680  26.397   2.574
56131W        W22540  36.877  18.564   1.403
56132W        W22541  43.946   4.416   0.980
56133W        W22542  18.503  31.550   3.819
56134W        W22543  40.241  44.143   9.953
56135W        W22544  30.388  36.158  14.524
56136W        W22545   0.893  14.379  13.366
56137W        W22546  34.124  32.850  11.742
56138W        W22547  28.412  14.349   2.369
56139W        W22548  41.852   5.339  14.735
56140W        W22549  44.111  42.526  12.477
56141W        W22550   3.164  17.568   3.643
56142W        W22551   9.236   6.840   1.704
56143W        W22552   6.702  31.839  13.502
56144W        W22553  37.529  10.719   3.241
56145W        W22554  33.123  27.998   3.493
56146W        W22555  21.843  30.053  12.538
56147W        W22556  12.077  44.015   0.928
56148W        W22557  36.501  23.807  13.942
56149W        W22558  10.875  42.909   3.815
56150W        W22559  19.682  18.905   1.772
56151W        W22560  25.207   0.784   1.367
56152W        W22561  43.021  43.048   0.531
56153W        W22562  16.165  41.424   9.677
56154W        W22563  33.699   8.396   1.796
56155W        W22564   2.352  43.593   4.558
56156W        W22565  30.219  15.850  10.684
56157W        W22566  33.599  11.221   3.233
56158W        W22567  18.263   6.893  13.895
56159W        W22568   5.802  29.588  11.046
56160W        W22569  22.654  35.177   4.168
56161W        W22570  32.471  16.127  10.456
56162W        W22571   2.715  22.057  12.507
56163W        W22572   4.994  26.119   0.823
56164W        W22573   4.225  16.050  12.344
56165W        W22574   7.125  25.642   4.544
56166W        W22575  31.876  20.321   3.696
56167W        W22576   7.708  26.921   3.155
56168W        W22577  26.056  17.998   2.125
56169W        W22578   7.677  24.539  12.855
56170W        W22579  39.255  43.080   3.643
56171W        W22580  10.698  28.614   3.818
56172W        W22581  27.378   5.687   2.743
56173W        W22582  15.542  35.926  14.867
56174W        W22583  27.084   9.717  12.933
56175W        W22584  34.454  40.109   1.027
56176W        W22585   9.639   3.861  10.744
56177W        W22586  30.170  41.808  14.744
56178W        W22587  17.152  42.807   1.692
56179W        W22588   5.533  38.252   4.101
56180W        W22589  40.296  22.558  11.493
56181W        W22590  32.927   4.463   1.753
56182W        W22591  38.541   1.230   0.396
56183W        W22592  18.813   1.928   1.329
56184W        W22593  35.079   7.261  12.900
56185W        W22594  39.658   1.283  12.976
56186W        W22595   1.060  27.267  14.858
56187W        W22596  43.034  41.842  12.166
56188W        W22597  30.822  16.760   4.687
56189W        W22598   8.111  20.298   3.363
56190W        W22599   0.832  23.094  13.013
56191W        W22600  11.880  41.377  10.398
56192W        W22601   6.323  21.222   2.752
56193W        W22602   1.434   4.776   4.710
56194W        W22603  42.082  30.446   3.314
56195W        W22604  27.546  43.601  12.437
56196W        W22605  41.532  16.157   4.595
56197W        W22606   1.366   5.238   2.806
56198W        W22607  36.831  41.243   2.209
56199W        W22608  19.097  13.713  13.286
56200W        W22609  38.372  10.541  11.902
56201W        W22610  30.046  23.114  13.266
56202W        W22611   6.672   4.232   2.224
56203W        W22612  34.809  24.742  10.654
56204W        W22613  15.550   2.459   4.945
56205W        W22614  44.245   6.004  11.114
56206W        W22615   0.861  42.989   1.480
56207W        W22616   0.879  13.184  11.611
56208W        W22617   1.541  32.093  10.730
56209W        W22618  22.606   8.610  14.337
56210W        W22619  27.241  34.583   3.706
56211W        W22620  31.828  19.511  14.763
56212W        W22621  31.050  24.293  12.047
56213W        W22622   1.686  17.750  12.089
56214W        W22623  33.562  19.955   4.164
56215W        W22624  21.366  41.411   4.206
56216W        W22625  21.864  16.189  13.064
56217W        W22626  26.545   2.619   0.299
56218W        W22627  43.908  39.349  11.578
56219W        W22628  10.703  42.983   4.834
56220W        W22629  15.088   9.586   1.206
56221W        W22630  35.118   5.151  12.406
56222W        W22631  25.518  32.980   4.930
56223W        W22632  43.389  12.251   9.938
56224W        W22633  30.374  18.685   2.831
56225W        W22634   3.865  22.222   3.838
56226W        W22635  39.050  29.771   3.493
56227W        W22636  12.845   6.836   3.663
56228W        W22637  33.407   9.898  13.927
56229W        W22638  21.582  38.182  14.362
56230W        W22639  42.509  19.158   0.015
56231W        W22640   7.823  34.570  11.154
56232W        W22641  42.295   7.383   3.298
56233W        W22642  44.257   2.756   2.222
56234W        W22643  39.553  17.988  12.423
56235W        W22644  41.829  27.523   4.518
56236W        W22645  35.417  23.081  11.162
56237W        W22646  32.915   4.587   4.253
56238W        W22647   4.865   4.275   1.889
56239W        W22648   0.550   8.730   0.964
56240W        W22649  42.695  16.586  12.539
56241W        W22650  32.950   4.757   2.292
56242W        W22651  37.485  16.623   0.435
56243W        W22652  21.760   3.725  12.179
56244W        W22653   7.300  16.550   3.184
56245W        W22654  14.982   3.003   1.271
56246W        W22655  27.767  17.330   2.815
56247W        W22656  22.075  23.951  10.239
56248W        W22657  24.582  10.089  12.515
56249W        W22658   1.717   8.460   3.833
56250W        W22659  28.388  35.265  12.893
56251W        W22660   7.605  34.870  13.864
56252W        W22661  44.533  17.594   0.474
56253W        W22662  20.043  18.433  13.086
56254W        W22663  19.551  11.325  14.954
56255W        W22664  24.103  13.390  10.765
56256W        W22665  26.796  24.772   2.839
56257W        W22666  23.201  35.045  13.005
56258W        W22667  13.579  35.946  14.573
56259W        W22668   6.592   8.170   1.834
56260W        W22669  44.299  38.563   3.285
56261W        W22670  42.224   3.650   1.255
56262W        W22671  23.212  22.597  14.379
56263W        W22672   9.749  12.349   2.587
56264W        W22673  37.404  11.898   2.787
56265W        W22674  26.390  36.461  11.131
56266W        W22675   4.388   8.821   3.208
56267W        W22676   8.215  37.148  14.065
56268W        W22677  15.194  16.248  12.841
56269W        W22678  28.986  44.374  14.556
56270W        W22679   5.912  41.779  11.053
56271W        W22680  35.376  19.140   3.923
56272W        W22681  10.014  39.471   0.198
56273W        W22682  38.456   0.174   3.692
56274W        W22683   7.703  13.256  11.427
56275W        W22684  44.558   1.950  10.782
56276W        W22685  23.856  34.970   1.985
56277W        W22686  12.779   3.368   2.821
56278W        W22687   1.769   6.666   2.856
56279W        W22688  12.682  20.192   4.528
56280W        W22689  26.401  34.362  10.881
56281W        W22690  29.792  41.408  10.298
56282W        W22691  26.641  36.848   3.793
56283W        W22692   6.692  16.911  13.010
56284W        W22693  33.857  12.810  14.418
56285W        W22694  30.565   9.081  13.384
56286W        W22695  24.389  28.927  13.576
56287W        W22696   4.272  22.786  14.155
56288W        W22697  37.432  19.894   0.523
56289W        W22698   3.541  38.572  11.948
56290W        W22699  11.684  14.094   0.428
56291W        W22700  28.997   4.321   0.277
56292W        W22701   4.412  30.860  11.247
56293W        W22702  12.338  38.987   0.079
56294W        W22703  24.023  19.075  13.497
56295W        W22704  11.360  23.030   2.839
56296W        W22705  36.052  32.630  11.104
56297W        W22706  14.582  22.696  13.777
56298W        W22707  20.484  17.025   4.224
56299W        W22708  37.058   1.385   1.361
56300W        W22709  37.718  24.029   9.823
56301W        W22710  16.264  15.029  10.632
56302W        W22711  16.145  19.262  14.535
56303W        W22712  34.362  25.957   3.113
56304W        W22713  17.176  30.748   1.276
56305W        W22714  16.850  15.857  14.893
56306W        W22715  28.398  38.452   2.810
56307W        W22716  30.526  35.478   1.316
56308W        W22717  19.884  30.622  10.774
56309W        W22718   4.333  10.320  11.932
56310W        W22719  12.770  25.401  14.046
56311W        W22720  42.439  35.870   2.845
56312W        W22721  21.312  31.531  14.743
56313W        W22722   9.898  35.980   0.830
56314W        W22723   5.837   6.328  13.568
56315W        W22724  21.608  40.067   0.001
56316W        W22725  40.366  33.517   4.343
56317W        W22726  36.378   0.080   2.680
56318W        W22727  19.737  35.568   4.261
56319W        W22728   7.247  18.803   2.708
56320W        W22729  18.341  13.142  14.005
56321W        W22730   5.819   9.220   3.308
56322W        W22731  28.965  41.289  14.497
56323W        W22732   8.988  26.562   0.252
56324W        W22733   9.744  13.622  10.994
56325W        W22734  38.893  13.049  11.590
56326W        W22735  29.670   2.050   3.274
56327W        W22736   7.762   1.424  11.509
56328W        W22737  34.650  20.100   2.264
56329W        W22738  39.795  21.978   0.767
56330W        W22739  10.387  25.707  14.948
56331W        W22740  21.042  30.690   0.366
56332W        W22741  26.424  38.886   3.589
56333W        W22742  35.113  31.417  13.088
56334W        W22743  15.290  42.092   0.143
56335W        W22744  24.576  37.034  10.967
56336W        W22745   5.920  22.193   4.170
56337W        W22746   7.582  38.261  11.761
56338W        W22747  20.736  10.622  14.964
56339W        W22748   2.660  40.214  12.973
56340W        W22749  27.048  36.593  14.530
56341W        W22750  33.956   6.443  14.309
56342W        W22751  34.882  26.933   4.231
56343W        W22752   8.159  27.146   3.868
56344W        W22753   2.704  38.539  14.300
56345W        W22754  24.798   3.788   0.261
56346W        W22755   5.314   2.709   3.237
56347W        W22756  37.745  17.772  13.540
56348W        W22757  15.569  36.521   4.533
56349W        W22758   1.751  12.158  11.841
56350W        W22759  16.345   8.447   2.783
56351W        W22760  16.641   9.373  13.806
56352W        W22761   4.256  17.568   2.812
56353W        W22762  24.031  27.974  13.154
56354W        W22763  23.732  19.787   1.282
56355W        W22764  43.509   6.676  11.116
56356W        W22765  33.540  43.983   3.172
56357W        W22766  35.558   0.395  11.544
56358W        W22767  22.721  11.347   1.859
56359W        W22768  40.297   4.603  12.979
56360W        W22769   0.329   2.830  12.288
56361W        W22770  15.671  13.517  14.356
56362W        W22771   9.600  19.112  10.751
56363W        W22772  24.800   7.683  12.434
56364W        W22773  33.062   0.852   5.438
56365W        W22774  29.375  29.538  13.616
56366W        W22775  20.237   8.320  14.840
56367W        W22776  13.208  38.523   4.394
56368W        W22777  15.906  41.322  14.306
56369W        W22778  12.025  12.449  12.356
56370W        W22779  33.390  42.742  13.847
56371W        W22780   1.399  44.769   4.625
56372W        W22781  27.579  36.818  10.702
56373W        W22782   2.727  38.119  11.576
56374W        W22783  29.639  23.790   1.845
56375W        W22784  22.629  13.298  12.108
56376W        W22785  26.043  10.412  10.728
56377W        W22786  38.269  29.868   2.856
56378W        W22787  36.918   4.329   4.771
56379W        W22788   1.861  40.514   3.279
56380W        W22789  14.079  14.278  10.967
56381W        W22790   9.258  18.785   0.847
56382W        W22791  21.521  37.155  14.341
56383W        W22792  42.752   2.238   1.911
56384W        W22793  13.954   6.144   5.013
56385W        W22794  38.159  30.200   3.230
56386W        W22795  13.755  36.433  12.382
56387W        W22796  27.401   5.774  14.144
56388W        W22797  30.769  38.085  14.960
56389W        W22798  20.620  38.126  14.375
56390W        W22799  14.679  25.000  14.847
56391W        W22800  13.729  28.985   4.588
56392W        W22801  13.774  12.843   2.214
56393W        W22802  38.283  30.147  10.147
56394W        W22803  22.711  42.188  14.910
56395W        W22804   8.646  39.427   1.062
56396W        W22805  14.859  21.137  11.620
56397W        W22806   2.647  30.553  12.591
56398W        W22807   3.706  44.339   3.864
56399W        W22808  39.314  37.029   0.406
56400W        W22809  27.615   9.262   9.755
56401W        W22810  19.600   5.401   1.845
56402W        W22811  32.969  18.279   4.411
56403W        W22812  30.118  10.279   3.868
56404W        W22813  16.360   2.202   1.224
56405W        W22814  14.664  44.380   3.197
56406W        W22815  28.558   8.906  11.617
56407W        W22816  25.425  18.729  12.767
56408W        W22817  43.752  24.589   2.107
56409W        W22818  15.780  10.896   3.296
56410W        W22819  12.587  28.003   1.218
56411W        W22820  29.936  30.051   1.460
56412W        W22821  23.007  26.653   4.730
56413W        W22822   3.501  14.833  14.152
56414W        W22823  11.349  32.442  14.788
56415W        W22824  13.888  15.611   5.009
56416W        W22825   1.828  16.190  10.788
56417W        W22826  21.907  20.073  14.462
56418W        W22827  40.813  26.185   4.097
56419W        W22828  31.545   2.776   0.246
56420W        W22829  41.747  37.441  14.355
56421W        W22830  23.644  42.463  14.917
56422W        W22831  25.188  11.357  13.030
56423W        W22832  41.079  35.599   3.238
56424W        W22833  18.611  19.175  11.160
56425W        W22834  27.250  36.006  14.367
56426W        W22835  13.335  19.692   1.316
56427W        W22836   0.119  43.976   4.660
56428W        W22837   8.969  17.367  14.487
56429W        W22838   4.824   2.551  14.114
56430W        W22839  26.003  36.475   0.447
56431W        W22840  29.935   7.966   4.178
56432W        W22841  33.639  37.346   4.624
56433W        W22842  34.203  26.695   0.319
56434W        W22843   9.850  21.527   3.061
56435W        W22844  12.251  14.290   2.732
56436W        W22845  22.287  40.507  14.446
56437W        W22846  19.521  19.224  12.410
56438W        W22847  20.621  18.047  11.954
56439W        W22848  23.266  20.955  13.304
56440W        W22849  25.288  29.667   0.374
56441W        W22850  25.554   7.645   2.749
56442W        W22851  25.471  28.008  12.852
56443W        W22852   3.578   8.395  10.968
56444W        W22853  23.510  19.258  10.658
56445W        W22854   9.925  11.354  11.148
56446W        W22855   9.660   5.465  12.911
56447W        W22856   5.905  17.157  14.265
56448W        W22857  24.678  29.517  14.206
56449W        W22858  37.409  23.056  12.015
56450W        W22859  40.363  32.872   1.448
56451W        W22860  29.442   8.133   4.197
56452W        W22861  22.221  39.292  11.568
56453W        W22862  28.095   9.943   5.002
56454W        W22863  40.542  18.625  12.513
56455W        W22864  25.226  25.490  12.032
56456W        W22865  41.963   9.643   0.086
56457W        W22866  20.652  13.573   4.031
56458W        W22867  31.699  20.536  12.177
56459W        W22868  22.934  21.605  14.269
56460W        W22869  43.018  17.742   1.270
56461W        W22870   3.663   4.766  13.023
56462W        W22871  20.236  12.279  10.247
56463W        W22872  22.274   9.257  13.997
56464W        W22873   7.512  28.611  14.925
56465W        W22874  17.161  26.947  14.406
56466W        W22875  16.784   2.371   4.461
56467W        W22876  41.657  15.251  14.982
56468W        W22877  29.334  37.750  14.818
56469W        W22878  14.876  29.868  12.848
56470W        W22879  17.748  16.852   2.236
56471W        W22880  34.695   0.411  12.816
56472W        W22881  35.115  13.322  12.253
56473W        W22882  37.765   8.721   3.494
56474W        W22883  25.705   0.867   4.676
56475W        W22884  34.180  20.086  13.504
56476W        W22885  12.174  40.070   0.834
56477W        W22886  34.327  15.484  11.578
56478W        W22887  34.898  18.915  12.506
56479W        W22888   6.140  17.648  12.171
56480W        W22889  19.887   6.296  12.139
56481W        W22890  18.330  36.191   2.253
56482W        W22891   9.784  29.053  13.348
56483W        W22892   7.222   9.414   0.305
56484W        W22893  26.007  35.629   1.193
56485W        W22894  44.737  36.035   1.751
56486W        W22895  44.450  12.364  10.215
56487W        W22896  43.861  35.789   2.235
56488W        W22897  32.870  11.359   3.671
56489W        W22898  34.346  32.825  14.346
56490W        W22899  36.295  26.548   3.378
56491W        W22900  19.175  39.584   4.679
56492W        W22901  28.253  24.093  13.365
56493W        W22902  38.297  41.356   3.850
56494W        W22903  14.433  31.278  12.509
56495W        W22904  18.956  37.849   2.224
56496W        W22905  25.675  30.923  12.821
56497W        W22906  23.767  23.426  13.230
56498W        W22907   2.145  25.462   0.051
56499W        W22908  29.573  15.770   4.706
56500W        W22909  33.995  30.461   5.092
56501W        W22910   6.229   3.162   1.312
56502W        W22911   7.179   0.435   1.964
56503W        W22912   4.965  31.111   2.321
56504W        W22913  32.581  39.813  11.065
56505W        W22914   6.776  15.607  11.493
56506W        W22915  30.062  31.876   2.309
56507W        W22916  20.649   2.480   4.547
56508W        W22917  38.021  38.044   0.676
56509W        W22918   3.392   9.184  13.999
56510W        W22919   2.703  40.858  12.145
56511W        W22920  25.153  22.890  13.052
56512W        W22921  24.144  43.838  13.932
56513W        W22922  28.334  28.659   3.482
56514W        W22923  31.337   8.397   0.147
56515W        W22924   3.680  21.167   0.613
56516W        W22925   2.130  20.057   1.255
56517W        W22926   4.711  43.812   2.808
56518W        W22927  25.114  40.148   0.790
56519W        W22928  25.704  11.273  13.086
56520W        W22929   2.980   4.626   2.864
56521W        W22930  39.392  16.252   1.503
56522W        W22931  28.567  23.355   9.620
56523W        W22932  11.936  45.000   3.412
56524W        W22933   5.199  37.405   4.032
56525W        W22934  13.143   3.192  13.774
56526W        W22935  36.385   8.227   0.282
56527W        W22936  30.498  24.412   0.041
56528W        W22937  44.389  35.306  11.300
56529W        W22938   1.364  26.679  11.469
56530W        W22939  29.208   5.682  13.566
56531W        W22940  22.129  34.173   1.864
56532W        W22941   8.780   1.892   4.103
56533W        W22942   4.733  37.996  10.680
56534W        W22943  39.057   7.833   3.722
56535W        W22944  34.179  13.730   3.714
56536W        W22945  44.731  43.215   0.784
56537W        W22946   8.482  14.086   4.514
56538W        W22947   3.094   0.376   3.194
56539W        W22948  20.081  24.473  13.465
56540W        W22949  37.368  33.060  12.510
56541W        W22950  15.671  44.479  13.430
56542W        W22951  28.074  30.123   3.364
56543W        W22952  11.487   5.412   3.272
56544W        W22953   9.742  17.366   3.717
56545W        W22954  39.536  30.541   1.624
56546W        W22955  14.294  35.772   3.265
56547W        W22956  12.697   7.077  12.420
56548W        W22957   8.943  14.088  13.939
56549W        W22958   0.369   0.955   3.994
56550W        W22959  40.597  35.008  13.273
56551W        W22960  11.553   5.638  12.785
56552W        W22961  34.885  33.905   3.698
56553W        W22962  26.284  36.359  11.988
56554W        W22963  27.691  19.977   3.852
56555W        W22964  40.016  24.312   5.245
56556W        W22965   7.698  29.649   4.815
56557W        W22966  24.713  24.727  14.946
56558W        W22967  19.942  40.021   1.827
56559W        W22968   2.748  41.735   1.621
56560W        W22969  19.325  29.130   3.679
56561W        W22970  28.696  20.949   0.029
56562W        W22971   4.953  30.509  11.521
56563W        W22972  37.532  11.299   1.348
56564W        W22973  38.614  44.471  12.604
56565W        W22974  24.711  22.287  14.341
56566W        W22975  32.498  21.459  13.388
56567W        W22976  20.554   4.815   2.282
56568W        W22977  18.832  10.849   2.360
56569W        W22978  26.745  41.601   0.788
56570W        W22979  35.933  33.153  12.062
56571W        W22980  14.866  40.048   0.373
56572W        W22981  27.532  18.806   1.373
56573W        W22982  12.298   3.347  11.936
56574W        W22983   9.909  24.745  13.593
56575W        W22984  31.557   6.999   0.382
56576W        W22985  38.613  37.044   3.846
56577W        W22986  36.390   9.186   0.711
56578W        W22987  15.510  18.136  12.127
56579W        W22988  30.227  18.468   4.144
56580W        W22989   4.927  43.447   0.840
56581W        W22990  17.596   3.987   3.301
56582W        W22991  37.068  30.253  14.557
56583W        W22992  29.057   7.153   2.560
56584W        W22993   8.239  40.310   1.209
56585W        W22994  12.885  40.250  14.917
56586W        W22995  19.691  28.483   2.889
56587W        W22996  18.193  37.101   1.261
56588W        W22997  39.859  44.013  12.541
56589W        W22998  29.551  14.703  10.441
56590W        W22999  34.817   4.768   4.083
56591W        W23000   5.549   7.412   1.865
56592W        W23001  11.902  11.368  13.528
56593W        W23002   8.725  13.602  13.924
56594W        W23003  42.360   9.878   1.431
56595W        W23004  23.401  35.573  13.624
56596W        W23005  15.065  23.175  14.486
56597W        W23006  12.427  31.528   0.804
56598W        W23007  30.752  17.839  14.531
56599W        W23008   9.236  44.264   4.774
56600W        W23009  16.508  44.457   0.560
56601W        W23010  12.065  34.076   4.574
56602W        W23011  38.890  39.219  11.599
56603W        W23012  22.989  44.214   4.135
56604W        W23013  21.018  37.010  14.355
56605W        W23014   9.811  17.049  11.855
56606W        W23015  35.378  23.491  12.476
56607W        W23016  17.067   8.677  14.544
56608W        W23017  44.255   4.246  14.871
56609W        W23018  10.687  34.149  11.991
56610W        W23019  14.161   5.409   0.778
56611W        W23020  17.126  31.925  13.114
56612W        W23021  34.403  39.333  11.537
56613W        W23022  24.697  34.092   0.480
56614W        W23023  30.473  15.779   3.767
56615W        W23024  23.864  25.549  11.032
56616W        W23025   0.014  29.424   4.567
56617W        W23026  28.114  19.012   0.649
56618W        W23027  34.998  20.114  12.609
56619W        W23028  42.947   2.983   0.646
56620W        W23029  33.065  11.327   2.342
56621W        W23030   1.990  13.591   1.692
56622W        W23031  44.942  12.741   3.784
56623W        W23032  12.795  20.102  11.941
56624W        W23033   8.303   2.176  13.569
56625W        W23034  33.403  23.853   1.790
56626W        W23035  31.106  33.329  12.146
56627W        W23036   1.923   1.515  12.586
56628W        W23037  24.451  26.640   4.489
56629W        W23038  15.190  44.399   1.227
56630W        W23039   2.870  35.075  12.011
56631W        W23040  30.579   1.777   2.168
56632W        W23041  40.372   4.609   5.008
56633W        W23042  17.164  11.148   4.659
56634W        W23043  24.193   6.890  12.316
56635W        W23044  26.948  11.171   3.157
56636W        W23045   2.262  37.944   4.058
56637W        W23046  38.594   0.236   4.204
56638W        W23047   3.752  11.918   3.601
56639W        W23048  44.965   2.525  11.578
56640W        W23049  11.295   4.476   4.686
56641W        W23050  40.500  19.813  14.569
56642W        W23051  31.899  35.325   1.021
56643W        W23052   3.779  12.897  14.040
56644W        W23053  17.762  27.132  13.450
56645W        W23054  35.233  20.578  13.433
56646W        W23055  38.048  34.593  12.767
56647W        W23056  39.445  27.182   0.723
56648W        W23057  21.435   1.879   3.141
56649W        W23058  13.349  18.021   2.188
56650W        W23059  26.972   5.809  10.363
56651W        W23060  11.867  16.248   4.687
56652W        W23061  13.981  44.597  12.477
56653W        W23062  12.731  17.253  14.829
56654W        W23063  44.434  40.790   1.259
56655W        W23064   8.421  40.055  11.534
56656W        W23065  37.934  23.970   3.094
56657W        W23066  38.583   4.884  14.708
56658W        W23067  28.890  37.310   4.082
56659W        W23068  21.970   6.595  14.496
56660W        W23069  31.190  35.008   1.316
56661W        W23070  10.098  37.941  10.755
56662W        W23071  37.747  18.628  13.797
56663W        W23072   0.850  13.410  10.095
56664W        W23073  36.412  29.559   4.340
56665W        W23074   9.932   6.895  13.244
56666W        W23075  15.656  40.257   0.869
56667W        W23076  16.137   3.414   1.781
56668W        W23077   9.807  43.385  10.608
56669W        W23078  28.112  14.117   4.779
56670W        W23079  33.621  22.732  14.335
56671W        W23080   0.868  11.859  13.379
56672W        W23081  32.185   3.970   1.790
56673W        W23082   4.683  29.017  11.402
56674W        W23083  20.064  39.859   3.525
56675W        W23084   0.885  28.402  11.472
56676W        W23085  21.332  30.989   1.393
56677W        W23086  12.140  30.870   2.939
56678W        W23087   6.156  14.229   0.481
56679W        W23088  36.629  44.836  12.019
56680W        W23089   0.145  19.595   2.910
56681W        W23090  37.142  34.176  13.913
56682W        W23091  19.477  44.959  14.311
56683W        W23092   1.132  44.446  13.470
56684W        W23093   6.193   7.759   1.829
56685W        W23094   7.191  33.489  12.183
56686W        W23095   1.293  42.519   0.737
56687W        W23096   3.839  14.746   0.453
56688W        W23097  33.038  41.890  10.704
56689W        W23098  37.407   3.235   4.551
56690W        W23099  18.414  38.483  14.030
56691W        W23100  42.425  40.415  14.591
56692W        W23101   1.067   6.179   0.872
56693W        W23102  15.866   4.378  11.176
56694W        W23103  38.028  29.706   2.432
56695W        W23104  10.688   1.522  12.506
56696W        W23105  22.711   2.229  12.925
56697W        W23106  38.888  30.563   4.226
56698W        W23107  29.398  20.011  10.678
56699W        W23108  19.246  27.408   3.131
56700W        W23109  27.035  21.408  14.316
56701W        W23110   2.269  18.329  12.519
56702W        W23111  34.523   3.262  13.485
56703W        W23112  21.323  18.084   4.535
56704W        W23113   1.041   8.848   1.062
56705W        W23114  24.479  24.450   1.821
56706W        W23115  37.921  42.092   1.617
56707W        W23116  29.645   5.224   1.795
56708W        W23117   9.378  22.767   2.814
56709W        W23118  12.530  32.816  14.375
56710W        W23119  28.116  10.142   2.215
56711W        W23120  17.302  18.821   0.230
56712W        W23121  35.524  14.346   3.456
56713W        W23122  44.287  37.470  13.590
56714W        W23123  34.556  14.332  11.091
56715W        W23124  35.932  10.585  11.092
56716W        W23125   9.624  11.813   0.566
56717W        W23126   5.746   5.643   0.146
56718W        W23127   1.941   8.451   5.015
56719W        W23128   6.743   5.245   0.244
56720W        W23129  40.437   3.400   4.649
56721W        W23130   9.759  35.995   4.979
56722W        W23131   1.516  37.820  11.433
56723W        W23132   4.848  20.734   3.390
56724W        W23133  40.411  26.960  11.544
56725W        W23134   0.166   9.074   1.829
56726W        W23135  29.921  17.591   4.294
56727W        W23136   3.515  20.228   2.054
56728W        W23137   3.118  21.389  14.936
56729W        W23138  32.674  22.807   1.270
56730W        W23139   2.217   7.276   0.416
56731W        W23140  42.052  31.706  10.638
56732W        W23141  24.944  26.318  14.373
56733W        W23142  17.512  22.273  14.857
56734W        W23143  40.293   9.233  14.466
56735W        W23144  40.623  32.420  14.217
56736W        W23145  24.397  16.179  11.979
56737W        W23146  36.030  10.843  14.557
56738W        W23147  36.358  33.110  13.453
56739W        W23148  29.938  38.700  14.781
56740W        W23149   1.249   3.597   5.046
56741W        W23150  43.381  28.170   1.003
56742W        W23151   9.380   1.899  13.417
56743W        W23152  32.105  11.615   0.215
56744W        W23153  44.278   2.240  14.751
56745W        W23154  35.999  39.869   1.374
56746W        W23155   0.178  15.758  10.022
56747W        W23156  42.880  11.240  12.675
56748W        W23157   9.620  14.000   0.432
56749W        W23158  29.779  33.551  14.941
56750W        W23159   6.772  38.347  11.285
56751W        W23160   5.711  29.797  11.533
56752W        W23161   6.721  12.641   0.360
56753W        W23162  42.250  37.862   2.939
56754W        W23163   9.934  28.126  10.925
56755W        W23164  38.904  31.567   4.545
56756W        W23165   2.174  16.793  13.463
56757W        W23166  27.020  16.512   2.763
56758W        W23167  16.487  18.677  10.725
56759W        W23168   4.355  41.603  14.866
56760W        W23169  30.158  29.149  12.264
56761W        W23170  44.807   6.044   4.667
56762W        W23171  42.006  18.667  14.631
56763W        W23172  15.642   3.589   1.880
56764W        W23173  40.248  11.783   4.142
56765W        W23174  35.186  31.049  13.438
56766W        W23175  21.971  14.755   2.288
56767W        W23176  19.863   2.936  13.055
56768W        W23177  40.996  20.139  14.929
56769W        W23178   7.231  35.850  12.451
56770W        W23179  12.375  37.053   1.678
56771W        W23180  25.512  13.533   0.354
56772W        W23181  22.466  17.501  11.691
56773W        W23182  25.173  21.624   2.141
56774W        W23183  36.951  43.043   1.618
56775W        W23184  28.495  28.589   4.460
56776W        W23185  22.753  18.001  14.402
56777W        W23186  43.031  26.384  12.401
56778W        W23187   7.409  11.652   0.870
56779W        W23188   8.687  40.600  11.932
56780W        W23189  18.229  25.033   1.773
56781W        W23190  20.794  15.170  14.511
56782W        W23191  44.831   5.892  12.365
56783W        W23192  34.863  38.095  11.934
56784W        W23193  35.302  18.681  13.924
56785W        W23194  14.372   4.199  14.283
56786W        W23195  21.740   6.444  12.488
56787W        W23196  13.321  24.447   2.350
56788W        W23197  39.864  41.983  11.727
56789W        W23198  37.102  34.534  14.325
56790W        W23199  44.228  18.002   3.767
56791W        W23200  35.101  17.079  10.790
56792W        W23201  11.395   7.883  13.491
56793W        W23202  13.444   8.755  13.057
56794W        W23203   6.837  34.292   2.252
56795W        W23204   0.795  23.075  13.905
56796W        W23205  26.097  30.077   2.103
56797W        W23206   8.257  41.636  14.441
56798W        W23207  12.290  11.096   3.668
56799W        W23208   0.508  35.291   2.945
56800W        W23209  12.616   4.820   3.108
56801W        W23210  27.486   1.896   4.591
56802W        W23211   5.528  18.620   1.346
56803W        W23212  12.879   1.639   1.861
56804W        W23213  20.495   9.592  11.572
56805W        W23214  30.395  21.899   4.029
56806W        W23215   8.194  14.227  14.410
56807W        W23216  36.520  23.196   4.564
56808W        W23217  23.858  42.553  11.469
56809W        W23218  40.528  41.593  11.196
56810W        W23219  31.380   8.698  13.960
56811W        W23220  42.502  43.465  12.429
56812W        W23221   2.736  20.809  11.209
56813W        W23222   8.373   2.465  14.029
56814W        W23223  37.770   2.850   4.111
56815W        W23224   8.224  19.548  10.674
56816W        W23225  23.714   7.390   0.353
56817W        W23226  19.632  16.014   2.733
56818W        W23227  24.963   9.786   1.361
56819W        W23228  31.639   4.730   0.822
56820W        W23229  41.124   0.021   4.186
56821W        W23230   9.261  34.859   3.097
56822W        W23231  24.300  31.703  12.957
56823W        W23232  34.672  26.891  11.624
56824W        W23233   6.296  12.996   5.075
56825W        W23234  40.911   9.058  11.893
56826W        W23235  14.723  31.357  10.756
56827W        W23236  34.844  29.504  11.996
56828W        W23237  40.880  36.058  10.721
56829W        W23238  43.522  40.857  14.914
56830W        W23239  32.504  18.353   0.489
56831W        W23240   4.729  41.459   4.051
56832W        W23241  10.676   7.154   4.462
56833W        W23242  37.606  11.295   0.260
56834W        W23243  19.181  36.189  11.091
56835W        W23244  10.072   7.577   2.243
56836W        W23245  30.343  35.566   2.769
56837W        W23246  43.047  43.243   2.964
56838W        W23247  19.160  28.342   0.710
56839W        W23248   6.343  36.654  14.218
56840W        W23249   5.714  19.260   4.071
56841W        W23250   7.841  41.297  13.875
56842W        W23251  26.090  31.498  10.759
56843W        W23252  32.730   6.202  12.559
56844W        W23253  30.577  18.126  10.623
56845W        W23254  39.207  16.119   2.790
56846W        W23255  39.067  44.263   2.877
56847W        W23256  43.194  27.359  12.454
56848W        W23257  28.434  34.114   4.135
56849W        W23258  39.351  12.106   3.903
56850W        W23259   2.826   3.684  12.050
56851W        W23260   9.837  16.389  12.451
56852W        W23261   6.875   1.500  13.328
56853W        W23262   5.836  24.645   2.261
56854W        W23263   8.156   0.757  13.995
56855W        W23264  43.537   6.375   1.298
56856W        W23265  37.122  28.447  13.391
56857W        W23266  29.720  19.660   3.966
56858W        W23267  38.062  15.055  11.165
56859W        W23268  42.496   6.191  13.640
56860W        W23269   3.414  33.535  12.567
56861W        W23270  16.352  28.912  11.222
56862W        W23271  23.022  35.036   1.245
56863W        W23272  17.001   9.152   3.512
56864W        W23273  18.278  40.566   4.109
56865W        W23274  32.110  30.699  13.898
56866W        W23275  31.049  33.579  11.253
56867W        W23276   6.732  22.819  14.391
56868W        W23277  18.125   4.065  12.018
56869W        W23278   1.303  27.915  12.079
56870W        W23279  27.538  23.163  11.560
56871W        W23280   3.695  37.299  13.051
56872W        W23281   2.813  44.356   4.410
56873W        W23282  16.562  12.821   4.142
56874W        W23283  11.590  26.564   0.288
56875W        W23284  22.265  30.693  11.567
56876W        W23285  36.550  30.953   3.740
56877W        W23286  38.277   2.402  14.296
56878W        W23287   4.625  23.561  13.515
56879W        W23288  10.773  43.943  13.106
56880W        W23289   4.551   1.502   2.250
56881W        W23290  18.778  35.953  10.876
56882W        W23291  24.523  28.485  11.190
56883W        W23292   1.081  36.375  13.057
56884W        W23293  11.210  28.142  12.444
56885W        W23294   1.790  11.169   3.351
56886W        W23295  22.788  25.045  12.841
56887W        W23296   6.761  22.810  13.567
56888W        W23297  36.836  11.799   4.736
56889W        W23298  11.532   2.958  11.464
56890W        W23299  14.097  14.204  14.232
56891W        W23300  30.213  12.070   4.171
56892W        W23301  43.664  44.323   0.865
56893W        W23302  10.735   0.164   3.816
56894W        W23303  28.416  16.674  10.682
56895W        W23304  17.751   0.208  14.038
56896W        W23305  41.791  24.683   3.211
56897W        W23306   1.320  16.342  12.492
56898W        W23307  44.139   7.034   9.784
56899W        W23308  23.174  27.220  11.699
56900W        W23309  29.917   9.564   4.316
56901W        W23310   3.221  20.642   2.255
56902W        W23311  23.433   5.297   3.306
56903W        W23312  10.865   6.806  10.754
56904W        W23313  16.555  19.527   0.533
56905W        W23314   6.014  13.120  13.343
56906W        W23315  36.962   6.193   0.736
56907W        W23316  38.596  24.582   4.831
56908W        W23317  11.851   2.684   0.792
56909W        W23318  25.926   7.118  12.517
56910W        W23319   3.898   5.345   1.715
56911W        W23320   1.329  28.720  10.742
56912W        W23321  35.275  38.815   0.018
56913W        W23322  29.162   2.010   4.034
56914W        W23323  42.094  25.551  10.596
56915W        W23324   5.812  22.849  14.755
56916W        W23325  26.010  10.064   0.105
56917W        W23326  21.753  33.801  10.491
56918W        W23327  25.733  20.677  12.021
56919W        W23328  18.516  23.565   0.787
56920W        W23329   5.815  27.710   3.042
56921W        W23330  33.442  31.276   0.937
56922W        W23331  33.571   4.008   1.659
56923W        W23332  27.265  28.427  14.333
56924W        W23333   9.569   7.299  12.891
56925W        W23334  10.099  33.332   2.352
56926W        W23335  18.195  17.167  13.055
56927W        W23336  31.212  33.429   1.653
56928W        W23337   9.750  39.060   2.944
56929W        W23338   1.423  20.782   2.364
56930W        W23339  27.593   5.302  13.778
56931W        W23340  25.838   4.225   2.452
56932W        W23341   3.439  10.614   5.191
56933W        W23342  29.968  27.056   1.836
56934W        W23343  35.501   2.046  10.084
56935W        W23344   8.352  40.315  13.655
56936W        W23345  24.701  33.584  14.928
56937W        W23346  11.328   1.687   1.883
56938W        W23347  32.782  17.680   1.053
56939W        W23348  20.179  23.768   4.694
56940W        W23349   9.271  34.150  12.455
56941W        W23350  12.042   3.777  11.757
56942W        W23351  35.508  18.669   2.451
56943W        W23352  35.880   5.884  13.824
56944W        W23353  39.024  44.745  13.850
56945W        W23354  14.115   4.338  12.781
56946W        W23355  17.059  41.949  13.311
56947W        W23356   0.008  20.671  13.608
56948W        W23357  13.722  38.332   2.679
56949W        W23358   4.222  30.997  10.760
56950W        W23359  34.434   0.982  11.581
56951W        W23360  22.802  18.760  14.869
56952W        W23361  10.650  28.376   2.380
56953W        W23362  35.381   6.941  14.952
56954W        W23363  43.796  27.016  10.393
56955W        W23364  32.474  10.445  10.098
56956W        W23365  28.573  25.227   4.584
56957W        W23366  15.616  18.857   1.432
56958W        W23367   7.888   4.346   2.782
56959W        W23368  38.568  35.790   4.128
56960W        W23369  43.975  19.138   3.227
56961W        W23370  11.606  16.636   3.584
56962W        W23371  21.666  41.457   0.264
56963W        W23372   7.634  25.665   4.548
56964W        W23373  21.574  40.882   2.720
56965W        W23374  37.742  24.047  12.012
56966W        W23375  14.194   3.525   1.418
56967W        W23376  24.148  40.852   2.274
56968W        W23377  33.313  27.929   4.179
56969W        W23378   1.916  31.854  10.980
56970W        W23379  15.627   6.880   0.032
56971W        W23380  18.269   8.186   1.404
56972W        W23381  11.681  22.166   3.069
56973W        W23382  28.380  30.746   4.196
56974W        W23383  10.122  15.299  14.392
56975W        W23384   8.987  37.347   1.451
56976W        W23385  39.633  31.292   4.159
56977W        W23386  13.304  30.990  10.508
56978W        W23387  42.432  37.911   0.312
56979W        W23388  30.229  22.101   3.605
56980W        W23389  44.922  16.655   2.472
56981W        W23390   7.191  35.461   1.041
56982W        W23391  13.129  14.076  14.413
56983W        W23392  23.043   2.477  12.545
56984W        W23393  39.025   7.234   2.313
56985W        W23394  39.005  31.102  10.645
56986W        W23395  42.247  21.790   1.862
56987W        W23396  13.741  15.628   2.346
56988W        W23397  34.135  39.383   4.102
56989W        W23398   2.832  19.602  13.655
56990W        W23399   6.420  33.347   1.473
56991W        W23400  41.896   8.111   3.856
56992W        W23401  12.909  16.588   0.429
56993W        W23402  19.757  19.162  11.940
56994W        W23403  27.716   1.718  10.768
56995W        W23404  33.918  35.869  10.753
56996W        W23405  30.458   9.583  11.601
56997W        W23406  25.664  39.885   0.805
56998W        W23407  36.351  14.243  11.680
56999W        W23408  37.668  37.094  13.060
57000W        W23409  38.905   9.264  14.230
57001W        W23410  40.882  11.695  11.089
57002W        W23411  30.074  27.976  12.736
57003W        W23412  37.218  28.498  11.089
57004W        W23413  17.475  28.937   3.203
57005W        W23414   9.224  11.533   3.454
57006W        W23415  12.046  36.803  14.930
57007W        W23416  23.734   8.191  12.902
57008W        W23417  12.614  19.508   3.249
57009W        W23418  31.952  21.915   2.277
57010W        W23419   1.442  18.985  13.452
57011W        W23420  42.406  14.694  12.039
57012W        W23421   1.850  12.160   3.075
57013W        W23422  38.123  22.025  10.632
57014W        W23423   2.554  16.581  13.066
57015W        W23424  37.406   9.241  14.764
57016W        W23425  18.130   8.749   1.061
57017W        W23426  30.203   6.879   2.158
57018W        W23427   0.891  33.539   4.648
57019W        W23428  32.334  13.409  13.980
57020W        W23429  44.431  25.112  10.992
57021W        W23430  27.638   9.388   2.411
57022W        W23431  33.266   6.771  10.979
57023W        W23432  35.412  22.466   1.851
57024W        W23433   0.207  18.366   1.059
57025W        W23434  38.165   1.195  11.124
57026W        W23435  32.965  12.806  12.892
57027W        W23436  21.634  11.211   3.571
57028W        W23437  42.394  25.627  12.177
57029W        W23438  32.981  20.801  12.656
57030W        W23439  37.674  11.648  14.372
57031W        W23440  17.816  14.006  11.256
57032W        W23441  11.921  17.755   2.980
57033W        W23442   7.696  33.753  12.962
57034W        W23443   9.867  38.992  14.966
57035W        W23444  40.712  44.380  13.557
57036W        W23445  20.113  31.192   4.615
57037W        W23446  22.130  21.452  10.743
57038W        W23447  14.878  28.526   0.129
57039W        W23448  38.339   7.317   0.546
57040W        W23449  12.697  11.160  12.455
57041W        W23450  34.864  11.442  11.095
57042W        W23451  14.725  36.790  10.637
57043W        W23452  39.400  37.458   3.620
57044W        W23453  42.793   0.813   4.094
57045W        W23454  22.600  38.014   3.049
57046W        W23455  17.271  43.994   2.777
57047W        W23456  17.160   6.277   1.446
57048W        W23457  30.839  18.841   3.659
57049W        W23458  38.088  43.916   2.741
57050W        W23459   8.020  42.359   3.648
57051W        W23460   4.274   9.618   3.630
57052W        W23461  32.605  35.435   3.359
57053W        W23462  18.842   9.030   0.801
57054W        W23463  30.063   5.788  10.720
57055W        W23464  26.382   6.316   3.296
57056W        W23465   4.670  11.855   0.392
57057W        W23466   7.173   5.197  13.662
57058W        W23467  22.116  11.813   4.196
57059W        W23468  18.661   2.325   1.022
57060W        W23469   6.780  37.657  13.393
57061W        W23470  10.036   1.826   3.241
57062W        W23471  17.088  13.729   3.866
57063W        W23472  19.665   7.459   3.543
57064W        W23473   1.394  26.687  13.354
57065W        W23474  42.878  31.879  13.131
57066W        W23475  41.678   8.199  13.721
57067W        W23476  23.672   4.916   0.424
57068W        W23477   1.782   3.177   0.849
57069W        W23478  38.866  43.973  12.478
57070W        W23479  19.931  33.001  14.006
57071W        W23480  42.708   6.847  14.719
57072W        W23481  10.716  38.290  13.143
57073W        W23482   5.344  10.624   2.385
57074W        W23483  35.455   0.900   2.432
57075W        W23484   6.437  43.949  13.421
57076W        W23485   8.171  20.206   4.879
57077W        W23486  30.777  39.562  14.246
57078W        W23487  18.589  11.202  10.661
57079W        W23488  29.113  41.252  13.163
57080W        W23489  18.220  18.535   4.391
57081W        W23490   0.903  35.050  13.826
57082W        W23491  12.745  33.140  11.079
57083W        W23492   9.936   4.188   0.958
57084W        W23493  25.225  13.993   2.208
57085W        W23494  34.777   2.168   5.442
57086W        W23495   7.667  35.650   1.188
57087W        W23496   8.413  28.948  11.457
57088W        W23497  29.381  39.888  12.848
57089W        W23498  12.288  12.306  13.161
57090W        W23499  17.942  37.916   2.166
57091W        W23500  41.783  36.624   1.677
57092W        W23501  24.251  39.802  12.093
57093W        W23502  21.048  39.174  11.933
57094W        W23503  24.336  25.730  13.989
57095W        W23504  38.529  29.092  12.361
57096W        W23505   0.808  25.178   4.151
57097W        W23506   9.954  25.233   2.589
57098W        W23507  22.718  15.045   4.396
57099W        W23508   9.216  26.743   4.077
57100W        W23509   3.024   9.840   1.306
57101W        W23510  22.582  31.273  14.597
57102W        W23511  16.274  34.503  12.636
57103W        W23512  33.159  25.537  13.471
57104W        W23513  20.553  12.284   4.656
57105W        W23514   4.971  22.521   1.387
57106W        W23515   4.995  12.867  11.232
57107W        W23516  40.196  23.656   2.172
57108W        W23517  23.030  22.519   2.290
57109W        W23518  22.290  31.214  11.596
57110W        W23519  38.801  24.974  10.866
57111W        W23520   4.989  26.041   4.046
57112W        W23521  40.532   5.223  14.500
57113W        W23522   5.486   7.225   3.230
57114W        W23523   6.251   0.484   1.721
57115W        W23524  39.248  37.898   4.820
57116W        W23525   4.632   6.376  12.336
57117W        W23526  43.461  44.963  13.066
57118W        W23527  37.013  25.162  14.507
57119W        W23528  19.507   4.120   3.801
57120W        W23529  28.607   0.128   4.935
57121W        W23530  14.836  30.038  10.712
57122W        W23531  39.860   6.440  12.178
57123W        W23532  18.133  28.941  13.358
57124W        W23533  39.445  40.946  13.339
57125W        W23534  26.194  24.175  14.031
57126W        W23535  14.385   1.301   4.903
57127W        W23536   6.844  36.325   3.224
57128W        W23537  27.671  21.564   5.074
57129W        W23538  30.069  25.651   4.108
57130W        W23539  15.732   1.317   2.313
57131W        W23540  33.638  24.125   0.175
57132W        W23541   4.232  30.412  14.824
57133W        W23542  23.661  11.851  14.479
57134W        W23543   6.934  11.159  13.282
57135W        W23544  41.810   5.752   4.172
57136W        W23545   1.829  26.994  14.318
57137W        W23546  32.355  41.922  13.531
57138W        W23547  14.165   5.274  11.250
57139W        W23548  21.726  44.717   1.901
57140W        W23549   4.049  36.380  12.024
57141W        W23550  28.562   7.846  13.101
57142W        W23551   3.759  38.851  14.875
57143W        W23552  17.888   7.564   3.396
57144W        W23553  16.278   1.601  12.895
57145W        W23554  41.495  42.546  14.677
57146W        W23555  12.833  33.886  11.447
57147W        W23556  36.289  13.234  12.472
57148W        W23557  35.035  35.750   3.814
57149W        W23558  38.923  29.624   3.973
57150W        W23559  14.116  28.771   1.920
57151W        W23560  11.234  33.661   1.425
57152W        W23561   0.173   1.563   4.832
57153W        W23562   4.789  41.033  12.655
57154W        W23563  44.810  26.884   1.590
57155W        W23564  19.033  42.544   0.837
57156W        W23565  26.081  13.622  14.061
57157W        W23566  13.093  12.785  11.457
57158W        W23567  19.450  44.898  11.047
57159W        W23568  42.439  14.811   4.411
57160W        W23569  36.107  38.830   3.448
57161W        W23570  19.693  41.961   3.620
57162W        W23571  27.389  19.320   0.487
57163W        W23572  37.004  29.724   4.567
57164W        W23573  22.012  39.165   4.611
57165W        W23574  43.077  28.159  11.007
57166W        W23575  15.185  19.051  13.007
57167W        W23576  20.672  12.785   4.561
57168W        W23577  23.999  14.352   0.092
57169W        W23578  21.748   1.891   0.748
57170W        W23579   0.212   2.615   1.261
57171W        W23580  12.875  13.067  14.419
57172W        W23581  25.404  32.919   0.014
57173W        W23582  16.672  38.164  13.453
57174W        W23583  40.030  13.876  10.715
57175W        W23584  17.153  28.981  10.103
57176W        W23585  43.982  43.947   3.752
57177W        W23586  33.026  37.585   0.786
57178W        W23587  24.535  37.479   4.064
57179W        W23588  22.006  42.033   2.390
57180W        W23589  28.264  36.457  12.311
57181W        W23590  40.709  18.211  10.985
57182W        W23591  25.065  39.259  11.146
57183W        W23592   1.780  25.678   2.680
57184W        W23593   0.994  37.331  14.981
57185W        W23594   6.831  16.334   3.213
57186W        W23595  27.351  43.912  11.188
57187W        W23596  19.247  44.046  10.723
57188W        W23597  41.861  38.566  12.040
57189W        W23598   2.946  40.297  10.685
57190W        W23599   3.194  10.232   4.037
57191W        W23600  27.922  28.744   3.799
57192W        W23601  35.003   4.777  13.213
57193W        W23602  31.686  21.192  13.934
57194W        W23603  38.226   6.798  13.548
57195W        W23604  33.546  10.250   3.866
57196W        W23605  11.303  42.846   4.108
57197W        W23606  16.908  26.636   0.394
57198W        W23607  43.004   2.795  11.629
57199W        W23608  30.506   2.225  14.375
57200W        W23609  26.885  28.710   0.656
57201W        W23610   4.404  27.632  11.497
57202W        W23611  28.551  21.379   4.665
57203W        W23612   9.350  23.355   4.226
57204W        W23613  29.813  14.172   2.456
57205W        W23614  20.157  40.849  13.429
57206W        W23615  34.039   7.533   4.247
57207W        W23616  12.312   0.772  14.811
57208W        W23617  37.421  11.306   4.577
57209W        W23618  12.659  30.653   4.393
57210W        W23619   3.955  23.454   1.353
57211W        W23620   6.385  44.589   3.278
57212W        W23621  15.062  23.038  12.567
57213W        W23622  42.415  17.476  12.416
57214W        W23623   6.210   4.916  14.455
57215W        W23624  44.460  21.950  14.813
57216W        W23625   0.178  34.787  12.793
57217W        W23626   4.250  34.939   0.001
57218W        W23627   7.388  35.503  10.395
57219W        W23628  20.552  30.005  13.066
57220W        W23629  17.567   0.780  10.938
57221W        W23630  25.945  36.852   4.085
57222W        W23631  44.566  42.476   4.829
57223W        W23632  18.090  33.398   3.674
57224W        W23633  37.061  12.798   4.764
57225W        W23634  23.220   1.429   3.066
57226W        W23635  32.160  36.220   2.845
57227W        W23636   1.023   1.941   4.393
57228W        W23637  40.422   6.417  14.897
57229W        W23638   8.363  33.420  14.627
57230W        W23639   8.131  17.000  10.569
57231W        W23640  42.499   2.582  12.573
57232W        W23641  32.103  12.638   0.402
57233W        W23642   9.808  25.651  12.243
57234W        W23643  31.492  26.035   1.534
57235W        W23644  27.251  34.513  12.066
57236W        W23645  18.102   0.252  14.447
57237W        W23646  37.016  15.341  13.493
57238W        W23647  32.635  13.662  11.932
57239W        W23648  12.183  26.148  13.031
57240W        W23649   3.993   1.519  13.982
57241W        W23650  31.018  40.009   2.805
57242W        W23651  31.051   9.250   3.862
57243W        W23652  36.409  11.154  11.698
57244W        W23653  10.640  35.292   4.138
57245W        W23654  28.415   5.236  13.442
57246W        W23655  33.620   8.200  13.499
57247W        W23656  18.600  44.552   1.847
57248W        W23657  12.594  18.119  13.699
57249W        W23658   8.975  22.542  11.919
57250W        W23659  12.702   5.352   1.245
57251W        W23660  28.374  14.111   3.692
57252W        W23661  12.346  34.034  11.526
57253W        W23662  14.263   5.036   4.121
57254W        W23663  28.065   5.122  10.792
57255W        W23664  39.135  25.674  13.855
57256W        W23665  43.440  11.976   2.527
57257W        W23666  31.486  42.558  10.694
57258W        W23667  28.089  21.567   2.900
57259W        W23668  25.722  17.755  12.291
57260W        W23669  11.168  44.999   0.832
57261W        W23670   9.294  12.252  12.463
57262W        W23671   6.867  36.431   3.715
57263W        W23672   2.115  28.538  11.378
57264W        W23673  10.147   4.409  14.667
57265W        W23674   0.441  16.496   0.513
57266W        W23675  13.241  17.239  11.585
57267W        W23676  29.037  25.921   1.089
57268W        W23677  30.998  43.406   4.479
57269W        W23678  31.590  25.601  12.494
57270W        W23679  43.917  30.594  12.539
57271W        W23680   0.954   2.020  10.753
57272W        W23681   4.988  26.214   2.752
57273W        W23682  14.755  39.360   0.700
57274W        W23683  18.337  30.506  10.727
57275W        W23684  33.387  27.165  10.670
57276W        W23685  42.485  41.327   0.906
57277W        W23686  17.678   8.835   0.820
57278W        W23687   7.297  36.585   3.259
57279W        W23688  24.980  23.751  14.259
57280W        W23689  35.378   7.350  13.340
57281W        W23690  26.151   7.246   3.611
57282W        W23691   8.289  36.419   1.446
57283W        W23692  14.433  22.065   3.087
57284W        W23693  25.541   7.160   2.840
57285W        W23694   8.538   2.843  14.843
57286W        W23695   5.858  30.690   2.713
57287W        W23696  29.102  13.375  14.121
57288W        W23697   5.812  38.845   4.568
57289W        W23698  10.704   5.225  13.623
57290W        W23699  29.672  24.220  12.734
57291W        W23700  18.086  32.398  12.565
57292W        W23701  10.727  21.771   2.694
57293W        W23702  10.471  23.512   2.411
57294W        W23703   5.836   7.987   4.018
57295W        W23704  27.689   2.260   4.192
57296W        W23705  32.823  41.512  14.310
57297W        W23706  23.070   8.319  11.667
57298W        W23707  13.861  25.925  14.060
57299W        W23708  35.304  23.315   1.381
57300W        W23709  11.927  42.737   1.973
57301W        W23710  26.750  30.678  12.373
57302W        W23711   6.617   9.614   0.297
57303W        W23712  25.145  28.780   2.218
57304W        W23713  12.370  18.153  12.826
57305W        W23714  24.434  21.107   5.404
57306W        W23715  31.831  30.643   2.717
57307W        W23716  38.801  25.410  14.812
57308W        W23717   9.608  31.026   2.654
57309W        W23718  21.108  26.656  11.126
57310W        W23719  22.081  37.943   0.291
57311W        W23720   3.659  19.179  13.019
57312W        W23721  37.621  30.284   1.682
57313W        W23722  32.396  12.098   2.461
57314W        W23723  27.413  19.582  13.045
57315W        W23724   3.752  28.952  13.974
57316W        W23725  14.373  18.214   1.164
57317W        W23726  13.446   5.315   2.391
57318W        W23727  11.757  12.742   0.709
57319W        W23728  21.677  41.529   3.753
57320W        W23729  18.546  43.473  11.460
57321W        W23730   5.880  12.470   2.236
57322W        W23731   2.331  31.124   2.904
57323W        W23732   5.819   4.958   2.310
57324W        W23733  21.855  41.921  14.808
57325W        W23734  35.624  29.408  12.546
57326W        W23735  10.885   7.520  14.977
57327W        W23736  42.496  22.774  12.789
57328W        W23737  30.543  37.261   3.129
57329W        W23738  41.545  12.258   0.923
57330W        W23739  17.217  25.613  12.963
57331W        W23740  23.742  31.651  10.854
57332W        W23741  18.965  25.899   4.336
57333W        W23742  13.798   6.872  13.610
57334W        W23743  32.436   9.827  13.564
57335W        W23744  29.980  27.157  11.997
57336W        W23745  42.281  26.896   0.932
57337W        W23746  27.589  27.312  11.146
57338W        W23747  11.387  17.701  13.087
57339W        W23748   1.525  37.341   4.972
57340W        W23749  29.299  21.163   5.216
57341W        W23750  16.189   5.983  11.213
57342W        W23751  32.026  29.116  12.131
57343W        W23752  41.338  40.989   0.515
57344W        W23753   8.666  30.814   0.889
57345W        W23754  27.122  35.419   2.731
57346W        W23755  28.240  13.572   2.829
57347W        W23756  40.157  25.637   0.332
57348W        W23757  36.797  35.560  12.633
57349W        W23758  18.059  39.969   3.152
57350W        W23759  24.222  11.604   0.408
57351W        W23760  17.203  12.930  12.535
57352W        W23761  21.031  21.119   2.647
57353W        W23762  40.560  14.629  10.457
57354W        W23763   5.786  34.091   4.537
57355W        W23764  17.863  24.900   4.022
57356W        W23765   5.094  16.608  14.440
57357W        W23766  37.381   2.576  11.078
57358W        W23767   1.450   7.355  10.934
57359W        W23768  31.976  40.287   0.935
57360W        W23769  12.070  28.094   2.217
57361W        W23770  22.548  32.548  12.472
57362W        W23771  41.687  23.818   4.748
57363W        W23772  24.549  13.110  14.340
57364W        W23773  27.985  18.540  11.159
57365W        W23774  31.700  20.215  11.572
57366W        W23775  41.175   9.718  11.788
57367W        W23776  26.223  37.128  14.745
57368W        W23777  42.301   5.844   4.271
57369W        W23778  35.847  13.731   1.140
57370W        W23779   6.247  19.690   3.222
57371W        W23780  27.445  14.722   1.812
57372W        W23781  32.514   7.046  12.429
57373W        W23782  44.372  13.401   4.142
57374W        W23783  11.459  15.690   3.208
57375W        W23784  27.202   9.786  14.301
57376W        W23785  16.857  30.965  13.949
57377W        W23786  12.726   6.655  11.207
57378W        W23787   1.919  13.138   1.952
57379W        W23788  43.995   2.366   3.893
57380W        W23789   9.126  21.012   2.576
57381W        W23790   0.342  12.714  11.194
57382W        W23791  43.514  16.721   3.786
57383W        W23792  37.681  10.012   0.374
57384W        W23793  29.503  24.129   0.382
57385W        W23794  19.584  21.096  10.645
57386W        W23795  15.135   2.259   9.679
57387W        W23796  26.218   5.148  13.105
57388W        W23797   3.359  36.987  12.306
57389W        W23798  14.764  22.256  12.016
57390W        W23799  16.468  13.389   2.560
57391W        W23800  40.449  27.250   1.324
57392W        W23801  42.015  35.849   4.521
57393W        W23802  12.127  31.123   1.024
57394W        W23803  20.720  25.769   4.635
57395W        W23804  14.100  24.432  11.656
57396W        W23805  16.800  15.839   2.571
57397W        W23806  32.623  37.882   3.634
57398W        W23807  16.640  17.506  12.019
57399W        W23808  13.806  14.058  14.670
57400W        W23809  31.466  29.664  12.536
57401W        W23810   2.960  43.862  13.340
57402W        W23811  40.482  16.592  14.513
57403W        W23812  41.157   4.600  14.689
57404W        W23813  15.887  20.651  12.445
57405W        W23814  42.300   0.862   1.328
57406W        W23815   0.573  35.607   4.472
57407W        W23816  17.788  39.322   1.385
57408W        W23817  38.939  11.643   1.710
57409W        W23818  44.413  16.834  10.185
57410W        W23819  31.826  26.438   4.984
57411W        W23820  17.561  32.976   2.307
57412W        W23821  26.654  27.173  13.516
57413W        W23822   1.245   8.218  14.442
57414W        W23823  27.203   4.850   4.748
57415W        W23824  24.704  42.487   0.237
57416W        W23825  34.914  18.542   1.908
57417W        W23826  10.881  12.771   1.296
57418W        W23827  37.954  20.751   4.083
57419W        W23828  18.697  39.473  12.387
57420W        W23829   1.331  16.405   2.841
57421W        W23830  32.310  35.041   2.760
57422W        W23831   5.275  37.895  12.318
57423W        W23832  20.654  40.721   2.837
57424W        W23833  23.568  32.866   1.532
57425W        W23834  34.070  20.622   3.479
57426W        W23835   4.825   4.004  10.665
57427W        W23836  39.214   0.444  13.414
57428W        W23837  40.657   5.344   4.446
57429W        W23838  16.672   4.957   4.348
57430W        W23839  31.884  18.505  11.399
57431W        W23840  10.849  37.900  14.968
57432W        W23841  39.389   4.443  10.649
57433W        W23842  12.248  34.604   2.746
57434W        W23843  21.314  33.625  14.271
57435W        W23844   7.195  42.188  11.528
57436W        W23845  39.042  28.444  11.907
57437W        W23846  39.753   3.606  13.728
57438W        W23847  19.033  42.577   2.319
57439W        W23848   8.636  27.001   3.208
57440W        W23849  34.109   9.332   1.641
57441W        W23850  21.698  24.395   5.024
57442W        W23851  20.752  23.192  10.590
57443W        W23852  10.246  32.362   3.248
57444W        W23853   8.355  29.452   3.098
57445W        W23854  15.712   5.533   0.392
57446W        W23855  25.578  41.505   3.182
57447W        W23856  26.606  29.116  11.935
57448W        W23857  14.708  24.468  14.815
57449W        W23858  12.838  13.832   4.349
57450W        W23859  14.738   5.964  10.713
57451W        W23860   1.174  43.967   1.936
57452W        W23861  28.077  31.458  13.446
57453W        W23862  37.961  39.353  10.651
57454W        W23863  24.476  41.509   2.334
57455W        W23864   5.468  23.618  11.989
57456W        W23865  42.471   2.862   0.874
57457W        W23866   1.517  27.548   3.857
57458W        W23867  26.943   1.263  14.895
57459W        W23868  44.674  34.957   3.933
57460W        W23869  20.656   7.523  13.395
57461W        W23870  21.854   1.674   2.158
57462W        W23871  13.734  38.982   0.205
57463W        W23872  34.136  40.998   1.926
57464W        W23873   8.048  31.544  12.029
57465W        W23874  35.013  17.552  13.950
57466W        W23875  32.087  41.583  12.054
57467W        W23876  37.427  41.078   2.225
57468W        W23877   5.934   0.313  11.923
57469W        W23878  10.618   3.895  12.530
57470W        W23879  13.256   7.423   4.563
57471W        W23880  14.261   3.027  12.077
57472W        W23881  12.196   5.017   3.990
57473W        W23882  25.980  15.846  11.584
57474W        W23883   5.572  16.871   4.490
57475W        W23884  19.105  18.580   1.189
57476W        W23885   1.183  37.073  11.415
57477W        W23886  13.036   9.735  13.831
57478W        W23887   9.885   7.043  10.156
57479W        W23888  28.921   5.987  12.157
57480W        W23889   2.375   0.827   2.740
57481W        W23890  22.933  44.753  12.073
57482W        W23891  27.186   7.282  11.098
57483W        W23892  30.606   0.826  11.164
57484W        W23893   3.304  11.279   4.395
57485W        W23894   3.328   0.427   0.874
57486W        W23895  32.467  40.805  12.949
57487W        W23896  25.821  30.756   0.835
57488W        W23897  42.084  37.722   3.492
57489W        W23898  29.867  26.913  10.681
57490W        W23899  31.443  37.669   4.298
57491W        W23900   5.162  34.165  13.394
57492W        W23901  13.553  29.961  14.339
57493W        W23902  42.013   8.236   0.089
57494W        W23903  33.481  21.229  14.188
57495W        W23904  24.422   9.279   1.814
57496W        W23905  39.264  31.595  14.722
57497W        W23906  21.930  19.909  13.020
57498W        W23907  34.976  32.246   0.793
57499W        W23908  23.762  15.308  12.370
57500W        W23909  11.057  32.745  12.479
57501W        W23910  38.294  12.344   4.842
57502W        W23911  19.699  25.688  13.816
57503W        W23912  16.473  41.702   9.371
57504W        W23913  34.797  38.509   3.850
57505W        W23914  16.080  29.112   1.851
57506W        W23915   6.327   8.695   2.390
57507W        W23916  13.898  10.259   3.753
57508W        W23917  17.495   0.711   1.293
57509W        W23918  23.227  33.839  11.114
57510W        W23919  21.684  30.975  12.553
57511W        W23920  31.166  41.787  11.107
57512W        W23921  43.657  35.077  14.599
57513W        W23922  35.110   0.003   0.398
57514W        W23923  15.643  44.217  10.721
57515W        W23924  38.885  36.248  10.520
57516W        W23925  39.794  32.464   0.315
57517W        W23926  31.386   5.742  12.340
57518W        W23927  30.247  28.266   3.716
57519W        W23928  11.724   8.166   1.410
57520W        W23929  23.447   8.869  12.811
57521W        W23930  36.911  32.814  12.614
57522W        W23931  35.048  15.775  13.487
57523W        W23932  38.391  23.750   4.228
57524W        W23933   0.622  19.713   2.790
57525W        W23934   9.795   7.425  13.994
57526W        W23935  26.659  40.280  12.211
57527W        W23936  15.997  25.445   1.286
57528W        W23937  40.047  14.745  14.368
57529W        W23938  25.456  38.531  13.730
57530W        W23939  18.629  21.560  11.723
57531W        W23940  25.460  20.228  11.163
57532W        W23941  32.105   2.809   3.323
57533W        W23942  30.297  20.010  13.700
57534W        W23943  17.257   4.889   3.634
57535W        W23944  10.569  34.567  14.835
57536W        W23945  21.273  22.104   4.287
57537W        W23946   6.347  44.725   4.973
57538W        W23947  41.381  24.493  12.630
57539W        W23948   3.231  29.792  14.044
57540W        W23949  39.844  25.511   1.320
57541W        W23950   1.739  19.621   5.112
57542W        W23951  23.090  28.572   2.789
57543W        W23952   4.814  11.287  14.990
57544W        W23953   4.954  41.767  13.697
57545W        W23954  19.668  43.504   2.718
57546W        W23955  31.660  41.799  13.841
57547W        W23956  30.185  36.345  10.505
57548W        W23957   2.395  22.746   2.745
57549W        W23958  26.910  11.755   2.118
57550W        W23959  36.891  29.430  14.931
57551W        W23960  26.095  14.143   0.725
57552W        W23961  26.622  40.319   1.417
57553W        W23962  21.015   9.127   2.853
57554W        W23963  27.464   7.589   1.838
57555W        W23964  10.663  27.085   2.116
57556W        W23965   6.504  20.130   3.365
57557W        W23966  23.439   8.456  12.010
57558W        W23967   4.841  21.125   4.285
57559W        W23968  20.688  32.388   3.394
57560W        W23969  35.389  41.959   3.220
57561W        W23970  38.491  26.568   1.396
57562W        W23971  15.687  32.082  12.439
57563W        W23972  10.766  12.595  12.173
57564W        W23973  23.351  44.013  10.598
57565W        W23974  35.946  16.044  13.952
57566W        W23975  10.264  26.232   0.852
57567W        W23976  13.880   1.885   2.850
57568W        W23977   8.303   9.370  11.932
57569W        W23978  44.858  36.300  12.487
57570W        W23979  34.999  22.715  12.453
57571W        W23980   8.429  16.038  12.614
57572W        W23981  25.872  19.185   1.705
57573W        W23982   4.319  27.483   0.313
57574W        W23983   8.727  19.212  10.731
57575W        W23984   4.857  14.895   2.865
57576W        W23985  41.678   5.689  12.951
57577W        W23986  23.016  30.493  14.428
57578W        W23987  10.595  36.462   2.100
57579W        W23988  27.977  30.049   2.295
57580W        W23989  13.638   4.361   3.098
57581W        W23990   0.546   5.899   2.730
57582W        W23991  28.219   6.727  11.615
57583W        W23992  27.981  33.609   2.359
57584W        W23993  17.106   6.365  11.501
57585W        W23994  13.898   9.287   3.818
57586W        W23995  30.540  16.174  13.516
57587W        W23996  35.971  36.802   3.937
57588W        W23997  29.757   4.832   9.884
57589W        W23998  21.620   2.194  11.234
57590W        W23999  33.588  23.784  11.949
57591W        W24000  35.454  40.732   4.355
57592W        W24001  41.825   7.293  13.878
57593W        W24002  42.513  30.163   2.647
57594W        W24003   1.878  36.377  13.505
57595W        W24004  24.478  39.024   1.676
57596W        W24005  27.429  38.991  11.468
57597W        W24006  11.108  21.583  11.769
57598W        W24007  33.387  38.598   3.737
57599W        W24008  12.266  29.714   4.682
57600W        W24009  18.674  19.292   4.793
57601W        W24010  22.304  27.031  11.624
57602W        W24011  43.324   2.691   0.868
57603W        W24012   3.318   2.683  11.041
57604W        W24013  43.294  35.851  10.735
57605W        W24014  19.798  24.450   2.805
57606W        W24015  13.547   6.352  11.427
57607W        W24016  15.951  34.090  14.399
57608W        W24017  34.244  18.210  13.005
57609W        W24018   9.903  32.106  13.001
57610W        W24019   9.767   5.717  14.864
57611W        W24020  21.713  10.783   4.393
57612W        W24021   3.955  13.869  13.781
57613W        W24022  37.474   6.187  13.423
57614W        W24023  32.687  28.125   0.790
57615W        W24024  40.290   6.846  10.997
57616W        W24025  22.980  19.585  13.925
57617W        W24026  17.268  15.241   3.849
57618W        W24027   0.439  22.982   2.146
57619W        W24028  30.082  37.998   0.567
57620W        W24029  30.386  37.116  14.402
57621W        W24030   5.610  32.553  11.142
57622W        W24031  10.598   2.285   1.387
57623W        W24032  29.149  14.245   1.243
57624W        W24033  14.413  19.661  12.532
57625W        W24034  38.931  40.745   3.299
57626W        W24035  24.602  34.066  12.403
57627W        W24036  41.525  35.421   2.315
57628W        W24037  43.125  18.208  13.512
57629W        W24038  23.146   7.201  12.334
57630W        W24039  42.887  22.403   4.547
57631W        W24040   1.415  18.817  13.947
57632W        W24041  37.211  28.085   3.506
57633W        W24042   1.387   4.990  12.999
57634W        W24043  16.288  38.774  12.025
57635W        W24044  12.270  11.190  13.888
57636W        W24045   7.276   9.675   3.935
57637W        W24046   4.237   5.678  14.672
57638W        W24047   2.477  18.807   0.804
57639W        W24048  27.409  17.462   1.936
57640W        W24049   4.689  33.369  12.195
57641W        W24050  23.962   0.963   2.783
57642W        W24051  25.153  31.978  10.218
57643W        W24052  11.783  36.881   1.403
57644W        W24053  43.719  18.682  14.389
57645W        W24054  38.192  18.630  13.531
57646W        W24055  13.220  44.541  13.365
57647W        W24056   4.408   0.926  13.442
57648W        W24057   5.335  29.911  12.539
57649W        W24058  22.042  24.778  11.111
57650W        W24059   6.430  13.286  14.434
57651W        W24060   3.941  33.727   3.631
57652W        W24061   9.726   1.554   2.771
57653W        W24062  11.821   8.586   2.650
57654W        W24063  27.587  30.812   3.755
57655W        W24064  32.911  43.055   3.328
57656W        W24065  34.167  38.585  11.566
57657W        W24066  18.226  27.265   1.420
57658W        W24067   8.837  37.679  14.878
57659W        W24068   5.675  36.066   1.984
57660W        W24069  16.700  37.492   3.498
57661W        W24070  14.611  38.717  13.500
57662W        W24071  44.530   2.781  13.549
57663W        W24072  38.071  31.329   2.785
57664W        W24073  22.872  29.578   4.074
57665W        W24074  30.875  15.485   4.522
57666W        W24075  10.733  40.539   2.180
57667W        W24076  37.254  27.129   2.154
57668W        W24077   1.906  26.694  12.100
57669W        W24078  32.072  21.862  13.471
57670W        W24079  23.491  34.108  14.921
57671W        W24080  12.242  22.554  12.597
57672W        W24081  22.206  11.402  13.902
57673W        W24082  33.436  24.471   3.259
57674W        W24083  28.676  26.687   1.382
57675W        W24084  11.671   6.837  12.398
57676W        W24085  43.274  42.407  14.900
57677W        W24086  28.575  24.064   0.581
57678W        W24087  39.342  32.037  10.755
57679W        W24088  31.337   9.741   0.904
57680W        W24089  13.592  29.242   4.122
57681W        W24090  33.974  28.502  12.146
57682W        W24091  17.093  13.555   4.362
57683W        W24092  25.943   2.317  12.515
57684W        W24093  24.016   8.155  14.304
57685W        W24094  43.437   1.718   0.887
57686W        W24095  35.755  38.502   3.595
57687W        W24096   7.501  35.747  11.631
57688W        W24097  36.058   4.287  12.583
57689W        W24098  41.935  44.794  11.147
57690W        W24099  33.361  20.473   2.585
57691W        W24100  12.738  36.109  14.555
57692W        W24101  21.806   4.250  11.184
57693W        W24102  25.174  42.051   3.760
57694W        W24103  25.588  38.506   3.403
57695W        W24104   4.797  36.048  10.226
57696W        W24105  15.338  34.128  11.161
57697W        W24106  29.581  20.375  11.916
57698W        W24107  18.976  42.116  12.172
57699W        W24108  18.576  43.926   2.663
57700W        W24109   9.301  29.991   1.778
57701W        W24110   2.541   4.206  11.204
57702W        W24111  38.328  22.632   0.088
57703W        W24112  11.162  41.008   1.537
57704W        W24113  36.501  28.274   5.330
57705W        W24114   2.865  28.809  13.444
57706W        W24115  35.389  30.955   4.142
57707W        W24116  32.923   4.063  13.505
57708W        W24117  37.810  39.055  11.018
57709W        W24118   7.634  24.830  13.961
57710W        W24119  10.572  42.582   3.202
57711W        W24120  16.365  42.881  14.385
57712W        W24121   0.684  25.537   3.810
57713W        W24122  25.451   3.027   5.126
57714W        W24123  37.729  11.245  10.375
57715W        W24124  32.506  28.629   3.285
57716W        W24125  30.780   9.180   4.599
57717W        W24126  20.709  44.281   2.807
57718W        W24127  23.747   0.952  12.463
57719W        W24128  21.303  19.017  13.001
57720W        W24129  24.386  33.015  14.934
57721W        W24130  22.061  28.801  12.512
57722W        W24131  13.021  34.797  12.502
57723W        W24132  22.173  35.941   1.269
57724W        W24133  33.197  40.784  12.132
57725W        W24134   0.906  24.613  12.655
57726W        W24135  20.499   8.263  13.700
57727W        W24136  20.809  22.234  11.072
57728W        W24137  30.110  34.752  11.576
57729W        W24138   8.692  14.323  14.318
57730W        W24139  39.025  10.714  11.698
57731W        W24140  21.541  15.278  11.551
57732W        W24141  18.724  18.366  12.390
57733W        W24142  32.931  24.335   3.952
57734W        W24143   3.686  19.671   2.351
57735W        W24144   0.009  19.036   4.124
57736W        W24145   4.950  27.245  12.106
57737W        W24146  32.025  16.108   1.274
57738W        W24147   1.054   8.246   4.381
57739W        W24148  31.398  27.139   1.769
57740W        W24149   1.520  34.542   4.243
57741W        W24150  34.627   2.808   3.046
57742W        W24151   3.149  27.093   3.780
57743W        W24152   1.458  16.631  14.903
57744W        W24153  11.709  18.370  14.327
57745W        W24154  20.851  12.441  12.775
57746W        W24155  17.707  30.201   3.790
57747W        W24156  35.395  18.832  11.096
57748W        W24157  10.056   4.157  13.833
57749W        W24158   5.214  27.240  13.292
57750W        W24159  31.131  13.726  14.055
57751W        W24160   8.377  40.710   1.979
57752W        W24161  16.300  15.525  10.446
57753W        W24162  12.689  19.510  10.283
57754W        W24163  13.834  17.793   1.437
57755W        W24164  22.555  30.255   3.649
57756W        W24165  43.891   5.400  12.215
57757W        W24166  34.961  27.421  12.943
57758W        W24167  42.344  12.255   1.716
57759W        W24168  39.963  30.803  10.388
57760W        W24169  39.132  18.341   0.864
57761W        W24170  41.028  34.115   2.770
57762W        W24171  35.443  22.468   3.831
57763W        W24172  19.620  41.329   0.244
57764W        W24173  30.914  25.124  14.298
57765W        W24174  40.559  21.287  11.066
57766W        W24175  35.018  38.309   1.928
57767W        W24176  43.499  30.453   4.323
57768W        W24177   3.374  20.198  10.771
57769W        W24178  30.655  26.887  13.331
57770W        W24179  31.390  13.209  14.825
57771W        W24180  35.452  38.077   3.676
57772W        W24181  21.064  43.323  13.423
57773W        W24182  13.855  27.498   1.288
57774W        W24183   2.735  19.553   2.270
57775W        W24184  21.307   3.923   4.580
57776W        W24185  39.027  43.237  12.857
57777W        W24186  37.362  32.558  12.671
57778W        W24187  12.827  16.487   4.207
57779W        W24188  17.191  42.877  12.833
57780W        W24189   5.498  41.851   4.148
57781W        W24190  34.860  24.147  13.893
57782W        W24191  40.910  28.960  11.131
57783W        W24192  19.110  16.190  14.764
57784W        W24193  11.320  20.637   2.615
57785W        W24194  32.434  22.038   3.328
57786W        W24195  31.393  34.940  11.162
57787W        W24196  35.103  44.152   0.276
57788W        W24197  30.702   6.353  12.400
57789W        W24198  32.082  15.477  11.667
57790W        W24199   4.307   6.010  12.137
57791W        W24200  12.555  42.287  11.936
57792W        W24201  16.770  38.546  11.316
57793W        W24202  24.609  33.546   0.846
57794W        W24203  14.094   1.494  14.043
57795W        W24204  40.605  42.952  14.392
57796W        W24205  44.299  32.166   0.391
57797W        W24206  11.647   8.902   2.278
57798W        W24207  42.782  22.275  12.473
57799W        W24208  21.653  26.766  11.943
57800W        W24209  13.764  19.791   0.401
57801W        W24210  30.578  43.351  14.620
57802W        W24211  14.549   2.935   0.018
57803W        W24212  24.067  37.352   1.810
57804W        W24213  17.740  37.322   1.374
57805W        W24214  20.143  29.190   2.713
57806W        W24215  25.943  36.342   2.188
57807W        W24216   3.177  35.394  12.841
57808W        W24217   7.497  36.438   1.897
57809W        W24218  17.495  25.176  12.975
57810W        W24219  36.518  34.558   1.773
57811W        W24220  23.757  25.554  14.976
57812W        W24221  17.371  13.662   2.766
57813W        W24222   0.430   3.835   4.037
57814W        W24223   6.934  44.629  13.867
57815W        W24224  37.492  33.503   3.315
57816W        W24225  41.990   2.265   2.567
57817W        W24226   3.821  11.049  14.882
57818W        W24227   0.873  15.373   4.979
57819W        W24228  12.441   9.413   2.032
57820W        W24229  39.450   8.246  11.993
57821W        W24230  24.243  31.954  14.247
57822W        W24231  30.992  33.468  13.194
57823W        W24232  38.557  30.174  14.324
57824W        W24233   3.869  24.564  13.026
57825W        W24234  39.892  38.268   0.743
57826W        W24235  25.804  36.614   0.902
57827W        W24236  32.433  23.491   1.790
57828W        W24237   4.202  19.195   2.659
57829W        W24238  30.551   1.711  11.093
57830W        W24239  38.062   5.921   3.235
57831W        W24240  35.120  25.455   1.908
57832W        W24241  17.062   0.197   1.992
57833W        W24242   9.627  44.914  11.665
57834W        W24243  43.058  15.705  13.304
57835W        W24244  16.128  34.795   2.232
57836W        W24245  16.455  13.779   0.780
57837W        W24246  42.712  19.718  11.235
57838W        W24247  11.909  16.359   2.732
57839W        W24248  29.077  34.464  10.635
57840W        W24249  41.312  29.977   0.280
57841W        W24250  31.894  37.238  10.674
57842W        W24251   0.365  30.044  11.036
57843W        W24252  29.957  44.753   4.520
57844W        W24253   4.186  32.031   4.130
57845W        W24254   4.306  44.031  10.674
57846W        W24255  13.769  17.132   4.804
57847W        W24256  27.246  16.315   4.570
57848W        W24257  30.083  18.766  13.439
57849W        W24258  11.719  28.846   4.459
57850W        W24259  34.293  17.521   3.408
57851W        W24260  37.419  18.379  12.560
57852W        W24261   8.117  18.575  11.188
57853W        W24262  19.692  11.915   3.724
57854W        W24263  22.425   8.084   2.836
57855W        W24264  34.816  41.745  12.551
57856W        W24265  13.163   4.213   3.212
57857W        W24266  41.987  44.013   4.715
57858W        W24267  35.645  34.124   0.850
57859W        W24268   2.849  14.678  13.502
57860W        W24269   5.930  33.019   4.676
57861W        W24270  33.642  16.655   4.113
57862W        W24271  24.274  34.534   2.639
57863W        W24272  25.106  33.410  14.064
57864W        W24273  14.038  24.125   0.294
57865W        W24274   1.446  24.210   1.610
57866W        W24275  42.964  14.866  14.743
57867W        W24276  30.101  40.805  14.984
57868W        W24277  34.962  15.178  11.005
57869W        W24278   0.421  11.927  11.564
57870W        W24279  19.503  11.463   2.892
57871W        W24280  25.505  33.595   2.218
57872W        W24281  39.596  41.129  12.543
57873W        W24282  19.171  18.354  12.050
57874W        W24283  25.721  28.998   3.026
57875W        W24284  44.208  21.181   0.199
57876W        W24285  17.276  10.972   0.049
57877W        W24286  24.952   2.237  14.413
57878W        W24287   3.800  27.365  13.098
57879W        W24288  21.366  37.997  11.572
57880W        W24289   5.603  10.644   4.074
57881W        W24290  42.104  17.604  14.092
57882W        W24291  29.686   5.326  14.238
57883W        W24292   5.939  36.894  12.949
57884W        W24293  39.894   9.521   4.306
57885W        W24294  30.851  25.948  11.154
57886W        W24295   4.771  34.870  12.549
57887W        W24296  36.253  26.209  14.693
57888W        W24297  33.971  21.698  10.715
57889W        W24298  30.798  32.378  11.744
57890W        W24299  10.920  30.085  14.564
57891W        W24300  28.809  12.665  10.888
57892W        W24301   9.059   3.977  10.757
57893W        W24302  20.253  28.613   4.660
57894W        W24303  40.828  33.831   1.237
57895W        W24304  39.518  39.033   0.171
57896W        W24305   2.210  15.091  12.639
57897W        W24306  30.631   5.380   3.758
57898W        W24307  20.674  25.515  14.917
57899W        W24308  28.710  31.183  14.878
57900W        W24309   5.280   4.990   0.321
57901W        W24310   0.549  39.616  11.522
57902W        W24311  30.071   3.658  12.413
57903W        W24312  12.438  14.582  13.588
57904W        W24313   1.822  39.454   4.660
57905W        W24314  20.376  20.547  10.689
57906W        W24315  37.740  37.029  12.217
57907W        W24316  20.085  22.259  12.945
57908W        W24317  24.502  32.609   3.527
57909W        W24318  28.885  19.312   0.103
57910W        W24319  33.391  20.499  10.668
57911W        W24320   7.167  10.656  12.095
57912W        W24321  42.776  11.772  11.510
57913W        W24322  10.319  14.693   2.861
57914W        W24323  18.002  40.098  13.930
57915W        W24324   2.294   9.134   2.650
57916W        W24325   3.000  25.001  13.842
57917W        W24326   0.179  32.081  14.431
57918W        W24327  32.678  36.057   0.312
57919W        W24328   9.325  43.666   3.139
57920W        W24329  12.708  18.100   0.900
57921W        W24330  30.015  37.158   0.659
57922W        W24331  25.683  28.677  13.425
57923W        W24332  16.349  30.142  13.012
57924W        W24333  24.008   8.990   0.932
57925W        W24334  31.428   9.233   1.693
57926W        W24335  17.322   2.111  10.327
57927W        W24336  10.349   9.641  13.821
57928W        W24337  41.930   0.180   0.918
57929W        W24338   7.679  33.933  10.604
57930W        W24339   9.245  37.010   2.621
57931W        W24340  29.871  17.029   0.484
57932W        W24341   9.371   1.471  12.482
57933W        W24342  21.549  33.371  10.724
57934W        W24343  37.277  43.367  10.803
57935W        W24344  34.459   0.532   1.268
57936W        W24345  24.260  20.034  13.308
57937W        W24346  33.682  38.380  14.000
57938W        W24347  43.316  30.648  14.852
57939W        W24348   4.996  20.461  11.181
57940W        W24349  28.737  15.397  11.143
57941W        W24350  40.322  40.445  13.343
57942W        W24351  27.955   8.399   0.050
57943W        W24352   2.129  23.567   1.904
57944W        W24353   7.268  36.384  12.445
57945W        W24354  26.044  37.416   4.141
57946W        W24355  31.044   0.805  10.915
57947W        W24356   4.899  41.693  12.004
57948W        W24357  25.114  16.009   3.957
57949W        W24358  15.118   8.575   1.252
57950W        W24359  38.103  15.174   3.538
57951W        W24360  17.613  39.403   0.203
57952W        W24361  38.838  43.846  11.450
57953W        W24362  44.463  35.485  13.884
57954W        W24363   4.442   9.358  13.899
57955W        W24364   6.160  18.327   4.949
57956W        W24365   3.907   2.328  12.547
57957W        W24366  22.568   0.811  13.088
57958W        W24367  19.611  38.083  12.063
57959W        W24368  29.957   0.744   1.780
57960W        W24369   1.222   1.965   0.046
57961W        W24370  37.580  12.529   0.325
57962W        W24371   2.977  38.505  11.122
57963W        W24372  42.631  12.696  11.903
57964W        W24373  17.680  34.810   0.076
57965W        W24374  30.079  19.730   0.002
57966W        W24375  10.275  40.045   2.808
57967W        W24376  37.857   9.734   3.278
57968W        W24377  33.414  22.001   2.406
57969W        W24378  21.594  38.618  14.040
57970W        W24379  35.081  27.692  10.773
57971W        W24380  41.388  11.802  11.119
57972W        W24381   3.727  38.329  12.365
57973W        W24382  23.900  18.368  11.111
57974W        W24383  29.639   2.760   1.856
57975W        W24384  28.159   3.774   2.356
57976W        W24385  24.966  12.693   3.277
57977W        W24386  23.270  33.141   4.646
57978W        W24387  25.224  10.242  11.154
57979W        W24388   3.738  40.007   3.214
57980W        W24389  43.987  22.116  11.962
57981W        W24390  37.095  22.669   1.463
57982W        W24391   3.515  11.831  10.321
57983W        W24392  17.946  35.886   1.161
57984W        W24393  10.789  29.352   0.247
57985W        W24394   6.233  31.217   1.895
57986W        W24395  19.110  29.439  11.554
57987W        W24396  42.720  33.076   3.116
57988W        W24397  31.977  39.119  12.464
57989W        W24398  22.276  25.541  14.887
57990W        W24399  30.057  12.563  13.003
57991W        W24400  22.096   9.436  14.462
57992W        W24401  15.691  33.897  11.518
57993W        W24402  37.586  39.846  12.918
57994W        W24403  16.191  19.147  10.699
57995W        W24404  20.407  42.012   1.857
57996W        W24405  28.126  43.766   4.500
57997W        W24406  37.387  15.131  10.237
57998W        W24407  31.696  40.987  14.297
57999W        W24408  28.510  40.530  13.411
58000W        W24409  20.107  39.320  10.970
58001W        W24410  14.281  14.735  12.975
58002W        W24411  34.650   2.335   3.280
58003W        W24412  37.972  31.940   1.308
58004W        W24413  44.635  28.408   4.121
58005W        W24414   7.110  36.560   4.138
58006W        W24415  35.604   4.752   4.588
58007W        W24416  37.554  33.700  12.978
58008W        W24417  16.764  10.794   4.632
58009W        W24418  24.159  24.747  12.935
58010W        W24419  42.334  19.791  11.988
58011W        W24420   3.829   1.447   0.693
58012W        W24421  16.580  11.690  12.933
58013W        W24422  34.816   1.682   2.883
58014W        W24423  30.717  21.509   4.035
58015W        W24424  20.693   5.273   0.558
58016W        W24425  43.210  40.818  11.982
58017W        W24426  13.092  41.352   1.847
58018W        W24427  15.784  13.414  11.659
58019W        W24428   6.675  18.713   1.597
58020W        W24429  42.896   3.880  13.506
58021W        W24430  16.246   5.741  10.765
58022W        W24431  40.349   3.386  11.666
58023W        W24432   1.946   9.204  13.489
58024W        W24433   1.215  32.185  14.379
58025W        W24434  20.298  43.569  11.483
58026W        W24435  34.474  25.285  12.862
58027W        W24436  18.644  22.424   1.275
58028W        W24437  42.767   0.444   3.402
58029W        W24438  13.216  38.150   1.489
58030W        W24439  19.066  44.855   4.087
58031W        W24440   4.986  35.227   2.790
58032W        W24441  28.655  19.497  14.670
58033W        W24442  29.733   1.519  10.658
58034W        W24443   7.164  40.016   2.817
58035W        W24444  11.791   5.323  10.878
58036W        W24445  12.699  25.671   3.708
58037W        W24446   4.676  10.040  12.209
58038W        W24447  29.169   2.835  10.284
58039W        W24448  26.329  19.869   2.304
58040W        W24449  36.881  35.352   1.441
58041W        W24450  38.483  19.121  11.123
58042W        W24451  35.999  39.316  11.181
58043W        W24452  12.238  38.293   2.182
58044W        W24453  25.781  37.130   0.718
58045W        W24454   3.480  38.268   1.246
58046W        W24455  37.346  33.233   4.061
58047W        W24456  40.908  19.048  12.941
58048W        W24457  10.122  13.416  12.673
58049W        W24458  11.730  42.733  10.700
58050W        W24459  37.108  21.001  13.001
58051W        W24460   5.443  41.834  13.440
58052W        W24461   7.898  32.174  14.976
58053W        W24462  23.188  16.813   2.651
58054W        W24463  15.772  15.787   3.721
58055W        W24464  38.348  44.037  11.525
58056W        W24465  33.069  43.354  10.534
58057W        W24466  30.966  44.783   2.726
58058W        W24467  15.086  29.066  12.040
58059W        W24468  36.516  39.616   0.874
58060W        W24469  27.589   6.011   0.002
58061W        W24470  10.146  11.852  14.074
58062W        W24471  44.975  27.694  12.201
58063W        W24472  40.386  41.669  10.323
58064W        W24473   7.744  40.753  12.459
58065W        W24474   5.930  29.087  11.919
58066W        W24475  11.318  32.387  12.758
58067W        W24476  33.379  31.776   0.771
58068W        W24477  38.333   5.428   2.406
58069W        W24478  24.594   4.407   4.667
58070W        W24479  31.128  31.283  14.038
58071W        W24480  36.289  21.693   0.915
58072W        W24481   7.183  33.842   3.746
58073W        W24482  32.009  13.293   2.627
58074W        W24483  26.073  24.707   3.545
58075W        W24484   5.731  39.372   1.105
58076W        W24485  26.728  25.291   2.768
58077W        W24486  11.571   8.600  10.645
58078W        W24487  35.650  44.336   2.803
58079W        W24488  12.949  21.826   5.331
58080W        W24489  30.590  19.604  14.013
58081W        W24490   4.149  11.887   0.348
58082W        W24491  14.048  23.928  11.529
58083W        W24492  34.394  43.863   1.664
58084W        W24493  21.713  37.994   2.223
58085W        W24494  22.726  14.092  14.819
58086W        W24495   7.366   8.204  11.947
58087W        W24496  25.135  36.996  12.259
58088W        W24497  32.816  28.081   3.901
58089W        W24498  17.537  11.733  10.648
58090W        W24499  44.322  29.172  11.485
58091W        W24500  39.839  34.961   2.194
58092W        W24501  17.667  35.436  10.819
58093W        W24502  27.174  32.893   4.134
58094W        W24503  27.692  38.555  13.931
58095W        W24504  34.627  42.453  11.949
58096W        W24505  14.525  31.319   0.091
58097W        W24506  20.443   0.018   4.537
58098W        W24507   1.688  16.184  12.827
58099W        W24508  41.597  43.784   0.695
58100W        W24509   9.483  25.815   3.369
58101W        W24510  25.285  27.080  14.795
58102W        W24511  42.674   6.891  12.098
58103W        W24512  40.086  44.104   2.896
58104W        W24513  29.621   6.406   2.751
58105W        W24514  37.067   2.700  14.885
58106W        W24515  39.608  27.131   1.527
58107W        W24516  11.127   2.712  14.451
58108W        W24517  26.093  31.181  14.866
58109W        W24518  36.764   1.219   0.882
58110W        W24519  20.140  12.878  13.502
58111W        W24520  12.147  27.733   0.126
58112W        W24521  28.481   4.259  11.616
58113W        W24522  43.807  14.138   0.332
58114W        W24523  42.004  34.383   4.600
58115W        W24524   4.778  33.940   3.138
58116W        W24525   5.515  23.868   3.863
58117W        W24526   7.906  35.329  13.000
58118W        W24527   3.765  43.488  12.164
58119W        W24528  16.174  41.602   4.616
58120W        W24529  38.233  33.567   1.661
58121W        W24530  22.499  12.892   2.296
58122W        W24531  18.538  35.133   1.180
58123W        W24532  41.344   8.675   3.208
58124W        W24533   3.355  13.280  12.403
58125W        W24534  19.087  41.478  14.944
58126W        W24535  37.438  17.176   2.349
58127W        W24536  23.476  37.496   0.724
58128W        W24537   2.711  36.567   4.076
58129W        W24538  28.109   5.161  13.854
58130W        W24539   0.352  24.266  13.292
58131W        W24540  14.822  20.072  10.200
58132W        W24541   9.437   5.721  12.492
58133W        W24542  41.366  32.021  10.244
58134W        W24543   0.888  36.431  14.434
58135W        W24544  16.984   0.531   4.246
58136W        W24545   4.026  34.824   1.376
58137W        W24546  16.271   9.151  12.110
58138W        W24547  38.891  10.565  14.200
58139W        W24548  43.521  41.391  14.310
58140W        W24549  20.643   5.675   3.193
58141W        W24550   3.041  43.717  12.869
58142W        W24551  14.065   0.522   5.153
58143W        W24552  19.239   5.835   3.676
58144W        W24553  10.184  12.929   4.585
58145W        W24554  23.502   3.691   1.989
58146W        W24555  24.079  13.131  14.058
58147W        W24556  32.520   0.879  10.763
58148W        W24557  12.135  34.438  14.961
58149W        W24558  21.629  28.767  14.308
58150W        W24559  24.470   1.497  11.055
58151W        W24560  18.650  44.900  13.570
58152W        W24561  29.100  42.853   1.894
58153W        W24562  14.923  35.571  13.489
58154W        W24563  15.117  29.435  11.557
58155W        W24564   8.675  10.276  11.237
58156W        W24565  44.622  18.441  14.046
58157W        W24566  16.017  37.063   1.330
58158W        W24567  17.709   9.519  12.629
58159W        W24568   0.499  39.007   2.791
58160W        W24569   8.246  32.078   1.891
58161W        W24570   0.802  44.551   3.935
58162W        W24571  14.122  16.244   3.874
58163W        W24572  14.706   1.785  10.722
58164W        W24573   1.175  42.201  14.848
58165W        W24574  38.379   5.079  13.293
58166W        W24575  24.101  30.198  10.780
58167W        W24576  37.834  22.088   3.842
58168W        W24577   9.755  23.233  13.946
58169W        W24578  19.360  24.647   0.906
58170W        W24579   7.591  42.386   2.761
58171W        W24580  33.746  11.844  11.581
58172W        W24581  18.513  12.796  10.359
58173W        W24582  24.945  14.646   3.681
58174W        W24583  43.933  25.659  10.599
58175W        W24584   1.859  18.090   0.819
58176W        W24585   4.316  32.543   4.063
58177W        W24586  41.671  17.700   0.722
58178W        W24587  25.401   1.354  13.857
58179W        W24588  35.151   5.691  10.691
58180W        W24589  11.518  34.856  13.269
58181W        W24590  32.027   1.271  13.893
58182W        W24591  32.991   0.504  11.545
58183W        W24592   5.541  35.003  13.736
58184W        W24593   3.837  34.582   0.125
58185W        W24594  38.421  30.223   1.331
58186W        W24595  12.588  21.353  10.213
58187W        W24596   6.257   0.354  14.900
58188W        W24597  14.163  20.564   3.891
58189W        W24598   4.759  12.195   2.914
58190W        W24599  37.556  13.634   0.481
58191W        W24600  44.595  21.516  13.939
58192W        W24601  26.345   2.588  12.903
58193W        W24602  16.072  31.676   3.471
58194W        W24603  38.262  35.236  12.064
58195W        W24604  27.882  33.935   3.682
58196W        W24605  37.765  36.106   3.796
58197W        W24606  41.942  12.590  10.349
58198W        W24607  18.795  13.069  11.614
58199W        W24608   2.188  36.889  12.921
58200W        W24609  19.410  36.107  13.823
58201W        W24610  11.913  19.016   0.502
58202W        W24611  24.128  38.683  14.920
58203W        W24612   8.439   1.540   2.347
58204W        W24613  12.298  32.539  12.331
58205W        W24614  11.722  25.720  11.767
58206W        W24615  41.253   3.465   0.268
58207W        W24616   4.932  20.247  10.383
58208W        W24617   2.961  24.017  13.519
58209W        W24618  33.167  38.625   0.512
58210W        W24619  13.300  24.492   4.593
58211W        W24620  11.205  39.097   0.335
58212W        W24621  44.083   1.858  13.438
58213W        W24622  39.137  12.067   1.956
58214W        W24623  34.173  16.257  13.449
58215W        W24624  20.052  34.416  13.016
58216W        W24625  21.755  17.653  13.793
58217W        W24626  22.129  20.548   3.735
58218W        W24627  43.243  23.685  13.915
58219W        W24628  30.697  23.693  11.646
58220W        W24629  41.619  40.889   3.241
58221W        W24630   0.658  40.253   0.947
58222W        W24631  43.106  27.288   1.426
58223W        W24632   5.213  16.712   0.319
58224W        W24633  24.076   3.369   4.367
58225W        W24634   6.623  23.723   0.419
58226W        W24635  44.355  39.532   2.737
58227W        W24636  21.737  21.864   0.094
58228W        W24637   7.415  11.258  14.444
58229W        W24638  44.824   8.809  13.630
58230W        W24639  20.882  20.692   3.323
58231W        W24640   4.924  27.760   5.037
58232W        W24641  37.831  28.306   3.255
58233W        W24642  27.083  27.064   1.369
58234W        W24643  10.738   2.886  12.116
58235W        W24644  34.659  39.306  11.993
58236W        W24645  30.962  23.950   1.804
58237W        W24646  27.876  11.852  14.479
58238W        W24647  42.146  12.749  12.627
58239W        W24648   0.228   4.715   2.210
58240W        W24649  24.667  36.124  10.762
58241W        W24650  43.566  35.199  13.016
58242W        W24651  41.010   1.411  14.544
58243W        W24652  42.061   9.181   3.590
58244W        W24653  37.267  40.403   2.312
58245W        W24654   6.213  19.826   4.538
58246W        W24655   0.415  31.803   0.709
58247W        W24656   4.024  11.168   1.277
58248W        W24657  24.494   5.600  14.856
58249W        W24658  21.491  23.066   2.849
58250W        W24659   3.315  11.610   0.392
58251W        W24660  16.400  13.522   3.039
58252W        W24661  26.647   3.535  10.770
58253W        W24662  41.829  36.955   3.291
58254W        W24663  17.900   0.578   4.059
58255W        W24664  16.295  10.834  11.098
58256W        W24665  44.853  29.178  11.977
58257W        W24666  23.547  23.361   4.539
58258W        W24667   5.958  29.435   4.772
58259W        W24668  15.341  36.350  12.213
58260W        W24669  14.694   2.406   0.099
58261W        W24670  25.190  38.246   2.580
58262W        W24671  19.831   5.037   4.553
58263W        W24672   2.366  12.834  12.126
58264W        W24673  28.446  26.230   3.276
58265W        W24674  31.227  20.811   0.709
58266W        W24675  12.888   8.812   3.744
58267W        W24676  14.567  33.873  12.167
58268W        W24677   3.488  25.121  14.841
58269W        W24678  41.944   5.701  12.496
58270W        W24679  26.687  18.907  10.903
58271W        W24680  20.986  32.016   0.293
58272W        W24681  21.202  14.860  11.541
58273W        W24682  21.243  30.098   0.901
58274W        W24683  34.109  18.331  11.245
58275W        W24684  37.994  41.141  14.453
58276W        W24685  12.269  30.110   1.477
58277W        W24686  37.921   1.016   2.900
58278W        W24687  41.313  43.296   0.302
58279W        W24688  16.734  18.335   2.745
58280W        W24689  28.727   2.264  10.543
58281W        W24690  21.090  25.717  12.065
58282W        W24691   3.147  33.341  12.146
58283W        W24692  39.878  14.108  12.986
58284W        W24693  15.023   5.302   1.394
58285W        W24694  19.520  15.714  11.677
58286W        W24695  34.636  34.197  14.103
58287W        W24696   8.131  30.981   3.621
58288W        W24697  17.908  28.058  13.309
58289W        W24698  32.021  34.402  10.324
58290W        W24699  31.989   2.907  11.359
58291W        W24700  44.321  14.804   0.829
58292W        W24701  24.492  13.885  13.109
58293W        W24702   7.433  40.911   1.881
58294W        W24703  17.554  37.481   0.904
58295W        W24704  25.785  19.249   4.672
58296W        W24705  22.174  38.468  12.444
58297W        W24706  35.054  17.569  12.887
58298W        W24707  32.613  32.827   4.536
58299W        W24708  41.627   3.499  13.324
58300W        W24709  44.290  33.791   1.523
58301W        W24710  26.043  29.464  10.600
58302W        W24711  28.774  31.849  11.196
58303W        W24712  44.921  44.021   1.235
58304W        W24713  10.551  39.276  11.174
58305W        W24714  30.555   6.168  11.953
58306W        W24715  24.879   9.272  10.276
58307W        W24716  39.401  16.350  12.080
58308W        W24717   7.318  13.264   4.279
58309W        W24718  26.422  16.634  11.462
58310W        W24719  30.011  14.646   3.596
58311W        W24720  32.321   7.690  13.793
58312W        W24721  42.599  31.388  11.522
58313W        W24722  19.611   3.597  14.412
58314W        W24723   1.534  40.101   3.270
58315W        W24724  44.799  19.291   2.640
58316W        W24725   7.603  29.055  10.211
58317W        W24726  22.052  27.421  10.504
58318W        W24727  34.932  10.659  11.997
58319W        W24728  23.624  11.657   4.304
58320W        W24729  22.739  21.340  10.086
58321W        W24730  43.014  32.828  11.926
58322W        W24731  41.953  30.479  14.256
58323W        W24732  18.580   3.134   5.045
58324W        W24733  15.137  35.123  12.022
58325W        W24734   4.909   3.185   0.571
58326W        W24735  44.955  14.102   1.980
58327W        W24736  16.005  31.739  12.198
58328W        W24737  28.680  43.900  11.482
58329W        W24738   7.195  15.507  13.784
58330W        W24739   7.659  20.249  12.656
58331W        W24740   4.208  25.255  13.605
58332W        W24741  42.905  42.299  11.906
58333W        W24742  18.828   2.039   4.993
58334W        W24743   8.153  17.555   0.291
58335W        W24744   9.803  43.563  13.842
58336W        W24745  37.329   9.964   4.212
58337W        W24746  41.963  23.317   2.399
58338W        W24747  37.226   9.727   0.396
58339W        W24748  22.545   6.641   2.850
58340W        W24749   6.550   3.085  13.163
58341W        W24750  39.131  32.500  12.834
58342W        W24751  40.468   0.609  14.560
58343W        W24752  22.064  35.457   4.683
58344W        W24753  11.178  44.880  10.576
58345W        W24754  17.746   3.214   3.791
58346W        W24755   6.050   7.852   3.536
58347W        W24756   3.918  21.610   0.876
58348W        W24757  24.802  27.958   0.628
58349W        W24758  44.344  21.115   4.271
58350W        W24759  26.682  25.226  14.388
58351W        W24760   9.125  44.266   0.194
58352W        W24761  31.965  11.453  12.933
58353W        W24762   2.499  28.857  14.920
58354W        W24763   7.119   6.681   4.525
58355W        W24764  15.240  18.246   1.747
58356W        W24765  32.616  34.876   3.758
58357W        W24766  38.633  44.253   3.714
58358W        W24767   4.013   3.871  14.403
58359W        W24768   8.466  24.983   2.820
58360W        W24769  35.302   5.945   1.935
58361W        W24770   4.672  43.464  13.876
58362W        W24771   2.830  21.936  13.367
58363W        W24772  13.745  22.189  11.304
58364W        W24773   7.335  26.556  10.671
58365W        W24774  42.466   7.927   4.099
58366W        W24775  19.936  23.254  13.058
58367W        W24776  10.109  38.624   1.329
58368W        W24777  37.161   8.272  10.690
58369W        W24778  25.989  39.050  10.636
58370W        W24779  44.865  19.991   1.186
58371W        W24780  32.584  23.195   4.187
58372W        W24781  11.821  29.052   1.958
58373W        W24782  13.369   3.226   1.432
58374W        W24783  33.952  18.559   4.614
58375W        W24784  18.017   4.890  11.689
58376W        W24785  34.608  37.981  13.524
58377W        W24786  18.065  40.252   0.409
58378W        W24787  36.412  23.918  11.049
58379W        W24788  17.678  30.913  14.361
58380W        W24789  17.600  31.140   0.545
58381W        W24790   0.619  31.347   3.143
58382W        W24791   2.186  15.748   4.013
58383W        W24792  29.767  42.359   0.688
58384W        W24793  16.179  18.080  11.287
58385W        W24794   6.882  21.377  14.611
58386W        W24795   2.299  41.771   3.345
58387W        W24796   4.745  34.558  13.278
58388W        W24797  14.142   9.801  12.927
58389W        W24798  17.835  43.975   3.324
58390W        W24799   3.466   3.247  12.814
58391W        W24800   6.979  32.750  14.819
58392W        W24801   8.818   9.690  12.420
58393W        W24802  29.907  39.321  12.416
58394W        W24803  32.803   8.544   0.789
58395W        W24804  32.515  10.725  11.971
58396W        W24805  20.175   2.340  13.813
58397W        W24806  30.606  31.376   0.837
58398W        W24807  33.490  33.350  12.114
58399W        W24808  12.828  40.696  13.589
58400W        W24809  38.442  23.133  11.212
58401W        W24810  24.083  32.480   2.303
58402W        W24811  13.662  36.948  14.318
58403W        W24812  24.914  37.344   0.328
58404W        W24813  44.952  30.360  12.518
58405W        W24814  16.088  44.811  10.566
58406W        W24815   6.772  16.645   2.753
58407W        W24816  33.752  11.744   5.076
58408W        W24817   8.908  29.144   1.835
58409W        W24818  10.823  19.395   0.890
58410W        W24819  10.533  41.577   3.682
58411W        W24820  23.164  22.690   5.332
58412W        W24821   7.567  18.189  13.094
58413W        W24822   4.207  22.954  11.091
58414W        W24823  42.877  18.937  11.783
58415W        W24824  12.874  34.932  10.658
58416W        W24825  24.957   9.709  12.506
58417W        W24826  23.265  34.537   2.563
58418W        W24827  34.329  44.828  11.473
58419W        W24828  30.678  44.428   1.942
58420W        W24829  24.426  36.309   3.434
58421W        W24830  16.699  13.404   3.446
58422W        W24831  43.306   5.356  13.515
58423W        W24832  21.710  26.891  13.491
58424W        W24833  13.078  18.309   1.840
58425W        W24834  25.644  20.651   4.324
58426W        W24835  28.163  38.764  11.625
58427W        W24836  14.393   7.274   1.901
58428W        W24837  35.011   0.217   3.566
58429W        W24838  14.805  23.877  13.835
58430W        W24839   9.410  43.919   3.957
58431W        W24840  31.040  24.981  10.605
58432W        W24841  35.006   3.483  10.861
58433W        W24842  28.149  29.370  14.402
58434W        W24843  14.359  30.666  13.006
58435W        W24844  31.056   2.822  12.905
58436W        W24845   3.480  40.926  12.626
58437W        W24846  38.019  30.461  11.107
58438W        W24847  12.394  10.318   0.262
58439W        W24848   0.458   9.606  14.819
58440W        W24849  17.756  29.453  10.433
58441W        W24850  27.386   6.116   4.196
58442W        W24851  17.181  31.496  11.584
58443W        W24852   2.475  15.831   1.844
58444W        W24853   7.097   7.672  14.953
58445W        W24854   0.548  12.761  14.503
58446W        W24855  31.020  25.021  12.860
58447W        W24856  23.537   8.757   0.841
58448W        W24857  22.569  28.679   1.228
58449W        W24858  44.799  11.414   4.050
58450W        W24859  23.235  42.664  11.051
58451W        W24860  25.821   9.899  11.566
58452W        W24861  14.744   3.240  13.454
58453W        W24862  42.243  44.440  13.408
58454W        W24863  23.256  38.482  14.268
58455W        W24864  19.555   6.931  10.918
58456W        W24865   5.876  26.958   3.406
58457W        W24866  27.897  23.241   1.534
58458W        W24867  28.272  35.289  11.679
58459W        W24868  17.247  10.925  12.415
58460W        W24869  43.622  13.081  12.032
58461W        W24870   9.190  44.147  11.361
58462W        W24871   3.021  29.381   2.833
58463W        W24872  37.630  28.207  13.876
58464W        W24873  38.843  29.501   4.466
58465W        W24874  27.589  30.666  14.356
58466W        W24875   6.284  32.855   2.250
58467W        W24876  29.161  38.995   2.657
58468W        W24877  20.181   3.277   0.898
58469W        W24878  29.420  17.574  13.092
58470W        W24879  19.902   9.409  13.454
58471W        W24880  35.643   3.577   5.081
58472W        W24881  21.529   9.943  13.087
58473W        W24882  39.955  26.988   0.541
58474W        W24883   9.302  33.054  11.721
58475W        W24884   1.287  35.539  12.438
58476W        W24885   4.597  36.484   3.794
58477W        W24886  39.946  29.909   0.299
58478W        W24887  26.026  19.606   3.451
58479W        W24888  35.421  24.637  11.774
58480W        W24889   2.499  16.487  13.927
58481W        W24890  34.719  17.825   4.295
58482W        W24891   0.024  23.233   1.959
58483W        W24892   6.303   1.816  12.495
58484W        W24893  44.802   8.016   0.355
58485W        W24894  36.391  43.844  10.777
58486W        W24895   0.342  28.943  11.756
58487W        W24896  12.318   6.097  12.424
58488W        W24897  29.135  16.685  11.224
58489W        W24898  22.241  29.183   4.175
58490W        W24899  20.971   7.820   3.215
58491W        W24900  38.486  38.621   1.215
58492W        W24901  18.760   1.022  10.812
58493W        W24902  42.090  23.625   1.798
58494W        W24903  19.385  36.124  13.005
58495W        W24904  43.867  39.083  13.261
58496W        W24905  39.500  36.531  11.562
58497W        W24906  37.813  34.966  13.330
58498W        W24907  21.180  41.952   0.761
58499W        W24908   3.406   9.738  13.150
58500W        W24909  38.853  17.750   3.054
58501W        W24910  14.772  32.033   1.684
58502W        W24911  28.617  44.902  14.627
58503W        W24912  16.253   3.645   2.237
58504W        W24913  34.532  26.910  14.953
58505W        W24914  28.767  33.785   4.427
58506W        W24915   7.059  14.354   0.771
58507W        W24916   4.724   0.010   3.230
58508W        W24917  26.358  18.453  10.186
58509W        W24918  33.360  12.563  14.291
58510W        W24919   3.658  36.105  12.615
58511W        W24920  27.250   5.249   0.806
58512W        W24921  27.159  40.998   3.209
58513W        W24922  31.716  13.178  10.635
58514W        W24923   3.944  35.425   0.743
58515W        W24924  33.330  28.475  14.059
58516W        W24925  23.762  14.315   3.146
58517W        W24926  36.661  17.682  10.636
58518W        W24927  44.291  12.158  14.003
58519W        W24928  30.381  10.253  12.080
58520W        W24929  19.751  12.693   0.261
58521W        W24930  16.033   2.775   4.127
58522W        W24931   2.394   9.150   0.760
58523W        W24932  31.521  26.200  10.427
58524W        W24933  39.375  24.474  12.821
58525W        W24934  12.695   5.199   3.907
58526W        W24935  14.904   8.317   4.720
58527W        W24936   3.239   1.776   1.756
58528W        W24937  14.135  33.810   4.066
58529W        W24938  12.694  14.602   4.959
58530W        W24939  30.663  35.472   3.372
58531W        W24940  16.978  29.157  14.820
58532W        W24941   1.842   6.944   2.383
58533W        W24942  32.760   0.455   1.386
58534W        W24943  23.083  32.686   1.470
58535W        W24944  18.183  11.192  13.052
58536W        W24945  22.170  41.302  13.046
58537W        W24946  24.929   5.796   0.828
58538W        W24947  43.025  33.020   4.493
58539W        W24948  28.394  12.185  14.992
58540W        W24949  21.572   4.163  13.105
58541W        W24950  32.543   9.118  10.952
58542W        W24951  25.956  22.198  13.987
58543W        W24952   7.610  31.114  10.350
58544W        W24953  21.575  14.352  12.145
58545W        W24954  23.238  28.405   0.252
58546W        W24955  21.255  41.990  11.574
58547W        W24956  33.074  35.779   2.282
58548W        W24957  11.774   1.884  12.027
58549W        W24958   7.660  34.296  13.041
58550W        W24959  43.450  41.223   5.301
58551W        W24960  35.614   9.836  10.710
58552W        W24961   3.291   6.354   0.366
58553W        W24962  41.013  35.570  12.507
58554W        W24963  13.281  17.254  14.854
58555W        W24964  12.910   6.305   0.751
58556W        W24965  14.437  30.415  10.792
58557W        W24966   1.822  26.041   0.914
58558W        W24967   3.286   6.883  13.396
58559W        W24968  32.605  15.042  14.432
58560W        W24969  31.074   9.729  14.674
58561W        W24970  39.076  26.706   2.243
58562W        W24971  17.207   6.778   4.635
58563W        W24972  27.367   5.252  11.902
58564W        W24973  13.716   0.152   5.374
58565W        W24974   4.314   3.201   0.979
58566W        W24975  20.268  39.356  14.740
58567W        W24976  12.290  11.155  11.236
58568W        W24977  12.687   8.713   3.265
58569W        W24978  22.798   9.864   0.482
58570W        W24979  16.867  43.943   3.205
58571W        W24980  16.511  18.717  12.491
58572W        W24981  30.373  38.789   0.803
58573W        W24982  26.031  10.263   0.611
58574W        W24983   9.261   9.630  14.867
58575W        W24984  31.960  31.670   4.076
58576W        W24985  24.766  32.191  11.194
58577W        W24986  43.378  32.048   2.625
58578W        W24987   7.400   3.912   4.134
58579W        W24988  38.501  36.865  12.379
58580W        W24989  29.036   6.256   1.439
58581W        W24990  32.241  32.894  11.984
58582W        W24991  21.113  21.220   3.632
58583W        W24992  31.097  28.999   2.364
58584W        W24993   3.687  44.805   0.470
58585W        W24994  22.341  44.426   1.421
58586W        W24995  36.218   8.119  11.092
58587W        W24996  35.371  14.545  14.720
58588W        W24997  28.159  22.668   3.315
58589W        W24998  28.933  22.166  14.479
58590W        W24999  42.169  31.105   1.368
58591W        W25000  37.920  12.063  10.668
58592W        W25001   2.926  37.903   2.456
58593W        W25002  23.095  36.263   2.868
58594W        W25003  43.249  42.474  14.007
58595W        W25004  18.969  28.537  13.581
58596W        W25005  31.091  14.918   3.911
58597W        W25006  37.619   1.220   4.559
58598W        W25007  12.824   8.672  11.021
58599W        W25008  28.874  34.375   0.400
58600W        W25009  11.161  39.443  13.272
58601W        W25010  15.804  34.483   4.531
58602W        W25011  20.804  32.929   1.854
58603W        W25012  22.711   1.949  10.650
58604W        W25013  40.423   9.662  11.236
58605W        W25014  33.221  14.621   2.833
58606W        W25015  42.830  23.765  12.972
58607W        W25016   9.738  29.452  11.902
58608W        W25017  10.222  40.028  14.465
58609W        W25018  10.808   4.032   0.593
58610W        W25019   0.335  33.881   0.783
58611W        W25020  35.570  12.113   1.359
58612W        W25021  20.720  20.526  14.812
58613W        W25022  25.613  23.437  11.447
58614W        W25023   8.237  14.949  13.813
58615W        W25024  12.143   7.897  11.075
58616W        W25025  21.756  30.495  12.834
58617W        W25026  38.835  24.499  14.919
58618W        W25027  14.683  35.908   2.827
58619W        W25028   4.201  43.574   2.754
58620W        W25029  31.887   6.280  11.632
58621W        W25030   2.312  33.844  12.977
58622W        W25031  43.864  13.809   1.800
58623W        W25032   9.797  41.941   0.842
58624W        W25033  14.549  13.303  10.684
58625W        W25034   9.388   9.382  11.053
58626W        W25035   1.103  15.714   5.287
58627W        W25036  34.811   1.760   1.195
58628W        W25037  30.188  11.946   2.250
58629W        W25038  13.192  15.837   1.156
58630W        W25039  33.987  17.668   4.465
58631W        W25040  44.378  18.267   1.205
58632W        W25041  26.487  38.558  12.983
58633W        W25042  25.966  37.807   2.299
58634W        W25043  33.283  14.339  13.626
58635W        W25044   3.646  37.844   4.541
58636W        W25045  20.895   6.315  14.952
58637W        W25046  31.334  43.488  11.138
58638W        W25047  19.651  37.350  10.994
58639W        W25048   5.149   6.946   3.728
58640W        W25049   3.706  38.631   3.280
58641W        W25050  22.452   5.632   3.186
58642W        W25051  23.609  13.135   2.734
58643W        W25052  38.326  39.069  10.979
58644W        W25053   7.740  22.046   0.453
58645W        W25054  23.181   3.839  10.697
58646W        W25055  32.433   0.362  10.681
58647W        W25056  20.550  41.444   0.346
58648W        W25057  43.785   3.842  12.212
58649W        W25058  39.978   1.715  11.186
58650W        W25059  33.089  29.771  13.055
58651W        W25060  38.284   9.776   2.765
58652W        W25061  34.070  21.062  14.907
58653W        W25062  44.839  30.671   3.339
58654W        W25063  14.229  42.001  12.901
58655W        W25064  21.323  20.358  13.894
58656W        W25065  12.377  13.199   0.550
58657W        W25066  18.900   7.013  11.491
58658W        W25067  10.051  26.560   1.278
58659W        W25068  22.920   5.810   2.935
58660W        W25069  15.862  23.615   1.307
58661W        W25070  28.463  44.461  14.840
58662W        W25071  32.810  42.519   1.537
58663W        W25072  28.577  35.141   1.323
58664W        W25073   8.187  41.447  14.901
58665W        W25074  14.311  13.928   3.480
58666W        W25075  40.781   6.710  11.125
58667W        W25076  13.076  29.159  11.021
58668W        W25077  22.168  38.421  11.511
58669W        W25078  23.714  36.786   2.328
58670W        W25079  10.968  10.280   3.056
58671W        W25080  10.767   4.824  11.397
58672W        W25081   2.334  17.488   4.152
58673W        W25082   9.542  11.486  10.347
58674W        W25083  13.679  39.065   1.317
58675W        W25084  26.031  16.597   1.670
58676W        W25085   4.271  37.883   1.540
58677W        W25086  36.522  28.034   9.799
58678W        W25087  24.612   4.361   1.935
58679W        W25088  26.257  38.469  13.968
58680W        W25089  36.137  24.145  14.368
58681W        W25090  39.962  43.076   4.350
58682W        W25091   1.763  13.276   4.440
58683W        W25092  32.847  42.999   1.819
58684W        W25093  30.805  32.078   1.239
58685W        W25094  33.357  36.967  12.091
58686W        W25095   3.771  34.984   4.118
58687W        W25096  32.169  27.523   1.953
58688W        W25097  18.958  35.617  14.328
58689W        W25098  26.930  42.054   2.333
58690W        W25099  40.384   5.683   4.165
58691W        W25100  31.635  16.742  11.200
58692W        W25101  11.047  12.108   4.045
58693W        W25102   8.653  40.203   5.098
58694W        W25103  26.691  43.011  12.999
58695W        W25104   2.329  25.077   2.291
58696W        W25105  10.338  38.373   4.892
58697W        W25106  16.612   8.310   1.761
58698W        W25107   5.996  21.461   4.150
58699W        W25108  12.732  12.873   3.551
58700W        W25109   2.737   1.502   2.235
58701W        W25110  18.094  27.927   3.116
58702W        W25111   6.302   2.903  12.740
58703W        W25112  14.295  42.440   1.649
58704W        W25113  10.793  34.372   0.274
58705W        W25114  18.782  18.738  14.422
58706W        W25115  28.131  17.734   2.707
58707W        W25116  37.877  34.967   3.690
58708W        W25117  10.035  44.306  11.125
58709W        W25118  39.930  33.708  13.789
58710W        W25119  35.657  37.802  11.926
58711W        W25120  30.243  22.689   2.399
58712W        W25121  36.484  27.981   4.911
58713W        W25122   1.987  22.068  13.384
58714W        W25123  15.775  18.517   4.743
58715W        W25124  22.645   7.884  14.893
58716W        W25125  13.793  13.584  14.877
58717W        W25126   2.394  28.648   1.916
58718W        W25127  18.285   2.967   2.257
58719W        W25128  30.894  16.620  10.739
58720W        W25129  10.268   4.491   4.760
58721W        W25130  12.475  28.203   4.076
58722W        W25131   9.365  26.710  13.408
58723W        W25132  31.958  38.905  13.003
58724W        W25133  34.453  17.882   0.262
58725W        W25134   2.916  41.262  13.027
58726W        W25135  41.830   5.851   2.542
58727W        W25136  35.006  22.108   4.773
58728W        W25137  39.555  29.081  10.405
58729W        W25138  26.065  30.446   3.291
58730W        W25139   3.526   9.820   2.213
58731W        W25140   7.650  26.119   0.424
58732W        W25141  33.994  32.993  11.261
58733W        W25142  34.095   2.826   0.281
58734W        W25143   3.419  40.867  11.428
58735W        W25144   7.648   7.404   1.340
58736W        W25145   3.240  29.098  11.052
58737W        W25146  41.317  27.450  14.068
58738W        W25147  34.047  35.352   3.744
58739W        W25148  21.106   7.803   2.708
58740W        W25149  20.617  20.103   4.385
58741W        W25150  26.578  30.589  14.295
58742W        W25151  28.112  29.193   3.659
58743W        W25152  26.409  27.258  10.661
58744W        W25153  10.827  13.362  11.106
58745W        W25154  35.727  14.350   4.143
58746W        W25155  34.126  29.176  10.599
58747W        W25156  35.627   0.176  14.359
58748W        W25157  17.759  41.852   4.264
58749W        W25158   9.275   6.473   1.306
58750W        W25159   6.670  29.719  10.715
58751W        W25160  13.139  10.584   3.732
58752W        W25161  28.421  19.612   0.213
58753W        W25162  15.558  20.550  12.045
58754W        W25163   1.547   5.771   4.376
58755W        W25164   6.149  39.415   1.499
58756W        W25165  28.973  27.531   1.240
58757W        W25166  36.560  17.243   2.441
58758W        W25167  16.891  34.115  11.205
58759W        W25168   6.014  22.763   2.775
58760W        W25169  13.655  33.275   0.749
58761W        W25170  36.549  33.578  13.387
58762W        W25171  37.914  17.988   3.320
58763W        W25172  13.653  38.791  14.737
58764W        W25173   6.731  39.698  13.782
58765W        W25174  32.019  30.189  13.831
58766W        W25175   1.435  36.400  11.180
58767W        W25176  35.705   5.437   0.366
58768W        W25177  40.030  15.133   1.921
58769W        W25178   0.239  39.420   1.007
58770W        W25179  40.421  42.556   4.846
58771W        W25180  42.227  13.164   1.350
58772W        W25181  41.377  25.050   0.939
58773W        W25182  16.967  43.476   0.832
58774W        W25183   4.239  21.091  11.131
58775W        W25184  42.670   5.334  10.818
58776W        W25185  13.103  15.571  14.454
58777W        W25186  29.160   5.710   3.429
58778W        W25187  39.668  35.127   3.368
58779W        W25188  33.369  14.110  10.433
58780W        W25189  17.647  26.083  10.586
58781W        W25190  18.006  31.852   0.272
58782W        W25191  36.157   3.659   2.040
58783W        W25192  30.253  27.057   3.270
58784W        W25193  39.540   1.932   0.699
58785W        W25194  19.531   3.932  11.501
58786W        W25195  29.523  27.546  11.062
58787W        W25196  22.265  26.009   2.757
58788W        W25197  27.037  10.799   9.964
58789W        W25198   4.004  25.035   1.543
58790W        W25199  41.429  12.317  11.153
58791W        W25200  21.617  38.515   2.278
58792W        W25201  42.362   2.686   4.714
58793W        W25202  12.739  44.441   4.045
58794W        W25203  25.985  25.878  13.312
58795W        W25204  10.099  13.738   0.901
58796W        W25205   7.889  44.767   4.261
58797W        W25206  30.400  35.090  13.867
58798W        W25207  26.635  18.483  14.681
58799W        W25208  40.522  31.605  14.495
58800W        W25209  15.643  43.256   0.892
58801W        W25210  21.043  13.127  14.218
58802W        W25211  12.418  35.312  14.897
58803W        W25212  41.047  31.494   4.083
58804W        W25213  33.109   6.930   1.093
58805W        W25214   2.843  16.145  12.949
58806W        W25215  25.451   6.617  11.545
58807W        W25216   4.284  13.347   1.255
58808W        W25217  29.111  12.729   1.747
58809W        W25218  10.313  37.540   3.709
58810W        W25219  31.946  30.049   1.762
58811W        W25220  33.965   3.347   0.953
58812W        W25221  23.835  18.626  14.692
58813W        W25222  10.769   9.169  12.076
58814W        W25223  34.445  13.251  11.919
58815W        W25224  15.799  27.089  12.054
58816W        W25225  21.659  23.286  12.435
58817W        W25226  32.952  26.149   0.956
58818W        W25227  32.520  18.323   1.940
58819W        W25228  11.861  39.684   1.918
58820W        W25229  34.985  18.892   4.650
58821W        W25230  36.913  25.046   2.956
58822W        W25231  21.514   1.247  14.958
58823W        W25232  16.188  34.820  10.721
58824W        W25233   2.919  19.644  14.166
58825W        W25234  12.072  36.698  10.899
58826W        W25235   1.495   7.346   9.951
58827W        W25236   6.663  39.419   4.359
58828W        W25237  21.461  41.590  11.177
58829W        W25238  23.423   6.885   1.466
58830W        W25239  14.846  20.820   2.103
58831W        W25240  36.809  10.885   0.402
58832W        W25241  12.747  11.335  11.098
58833W        W25242   8.280   1.344  11.176
58834W        W25243   5.289  33.451   3.612
58835W        W25244   4.333  31.630  11.530
58836W        W25245  23.623   4.350  13.094
58837W        W25246  10.735  33.575  10.719
58838W        W25247  35.519  23.944  10.611
58839W        W25248  18.852  35.896   1.678
58840W        W25249  16.124  23.404  13.830
58841W        W25250  29.062  38.901   4.663
58842W        W25251  21.003  11.278  14.466
58843W        W25252  37.591  30.340   0.319
58844W        W25253  41.177  33.457   1.382
58845W        W25254  39.659   5.330   2.696
58846W        W25255  13.661  18.462   4.072
58847W        W25256  18.036   5.332  11.286
58848W        W25257   0.620  16.696  11.142
58849W        W25258  39.380  25.631  12.436
58850W        W25259   3.535   6.987   2.695
58851W        W25260   5.477  26.100   2.614
58852W        W25261  17.003  16.686  13.096
58853W        W25262  14.695  29.711  11.504
58854W        W25263  23.540   7.361  13.257
58855W        W25264   3.398  30.122   0.454
58856W        W25265  37.804   1.421  13.488
58857W        W25266  40.289  29.215  12.119
58858W        W25267  40.748  11.732  12.421
58859W        W25268   3.872  17.553  14.994
58860W        W25269   1.329  21.467  11.831
58861W        W25270  11.704  37.047   5.062
58862W        W25271   9.346  41.030  12.630
58863W        W25272  44.274  11.167  13.660
58864W        W25273  41.906  31.185   0.398
58865W        W25274   4.126  24.072  10.358
58866W        W25275  40.312  38.545   0.853
58867W        W25276  28.045  40.797  12.637
58868W        W25277  40.289  28.204  13.515
58869W        W25278  18.166   2.225   0.885
58870W        W25279   2.220  36.888   4.595
58871W        W25280  36.638  26.872  12.955
58872W        W25281  33.442  31.139   1.876
58873W        W25282   5.121  10.501   4.172
58874W        W25283  35.138  15.669  10.089
58875W        W25284   6.991  16.234  10.719
58876W        W25285  39.716  36.863   0.050
58877W        W25286  32.943   7.293  14.769
58878W        W25287  21.895  30.579   4.281
58879W        W25288  28.085  35.961   0.988
58880W        W25289   1.319  13.302   3.707
58881W        W25290  24.834  18.238  12.356
58882W        W25291  28.470  11.694   0.626
58883W        W25292  15.739  27.006   1.665
58884W        W25293   0.236  24.227  12.775
58885W        W25294  30.081  36.055   0.814
58886W        W25295  30.402  42.912   0.427
58887W        W25296  27.884  15.505  14.633
58888W        W25297  23.560  32.086   1.885
58889W        W25298  29.959  39.433  11.561
58890W        W25299  30.459  37.662   4.098
58891W        W25300  36.641   0.505   4.111
58892W        W25301  36.130  28.853   1.720
58893W        W25302  40.935  41.239  11.181
58894W        W25303   5.129  26.223  11.202
58895W        W25304  25.012  14.149   2.680
58896W        W25305  11.515  30.358  11.913
58897W        W25306  25.491  12.633  11.920
58898W        W25307  22.052   6.225  13.574
58899W        W25308  21.988  24.361   9.907
58900W        W25309  33.352   3.986   0.380
58901W        W25310  40.439  24.158   0.238
58902W        W25311  16.621  44.315  11.642
58903W        W25312  22.776   0.885  14.360
58904W        W25313  38.844  16.527   4.247
58905W        W25314  40.941   6.269  10.899
58906W        W25315   6.582  42.772   3.341
58907W        W25316  16.799  23.206  10.617
58908W        W25317  43.570   2.592  13.348
58909W        W25318  32.486   4.946   0.149
58910W        W25319  34.610  24.637   0.424
58911W        W25320  34.945  22.428   4.005
58912W        W25321  43.478   4.776   3.746
58913W        W25322  37.080  23.261   4.578
58914W        W25323  44.300  17.725  12.972
58915W        W25324  25.701  30.709   5.160
58916W        W25325  34.311  40.905  13.478
58917W        W25326  31.117  40.547   4.328
58918W        W25327  18.844  24.453   0.826
58919W        W25328  25.252  36.532   3.727
58920W        W25329   6.174   0.996   3.347
58921W        W25330  24.153  43.777   2.434
58922W        W25331  16.849   7.869  12.035
58923W        W25332  31.402  32.197   1.890
58924W        W25333  17.654  37.215   5.654
58925W        W25334  42.390  12.109  14.839
58926W        W25335   6.388  41.909  12.423
58927W        W25336  36.381  18.729   3.722
58928W        W25337  18.535  21.234  10.580
58929W        W25338  30.999  36.444   1.077
58930W        W25339  39.925  33.950   3.208
58931W        W25340  40.244  20.239   0.853
58932W        W25341  22.687  16.298   4.208
58933W        W25342  38.112  22.183  14.517
58934W        W25343  38.926  18.101  11.141
58935W        W25344  31.104  10.663  12.163
58936W        W25345  24.729  31.906  14.404
58937W        W25346  38.271   8.753   1.287
58938W        W25347  42.171  40.947  12.935
58939W        W25348  33.005   0.498  12.459
58940W        W25349  36.701  43.138  13.380
58941W        W25350  20.038   7.207   1.824
58942W        W25351   2.777  37.822  13.906
58943W        W25352  16.496  40.512   2.791
58944W        W25353   7.241  36.611   2.323
58945W        W25354  39.074  41.987  10.983
58946W        W25355  43.855  42.734   4.328
58947W        W25356  17.418  12.766  11.999
58948W        W25357  31.922  41.308  12.483
58949W        W25358   6.781   6.601  11.374
58950W        W25359  36.869  42.502   1.656
58951W        W25360   8.204   9.369   4.804
58952W        W25361  33.234  26.067   2.777
58953W        W25362  26.516  19.662   1.847
58954W        W25363  36.080  12.409  13.504
58955W        W25364  17.751  38.820  11.071
58956W        W25365  21.242  21.475  13.926
58957W        W25366   3.904  11.957   2.593
58958W        W25367  35.336  21.083   3.954
58959W        W25368  43.933  30.903   2.707
58960W        W25369  19.721  14.569  12.538
58961W        W25370  17.236   2.229   1.188
58962W        W25371  34.502   3.344   0.754
58963W        W25372  24.714  42.034   3.107
58964W        W25373  19.472  21.553  11.687
58965W        W25374  11.370   3.395   2.681
58966W        W25375  18.683  39.940  11.931
58967W        W25376  19.740   0.753   4.898
58968W        W25377  29.723  15.569   3.203
58969W        W25378  44.388  38.848   1.641
58970W        W25379  11.593  28.878   3.261
58971W        W25380   1.653   5.650   1.366
58972W        W25381  36.601  17.761   4.531
58973W        W25382  24.487  32.809   2.236
58974W        W25383  18.788   3.703   4.130
58975W        W25384  38.601  14.182  14.752
58976W        W25385   0.870  12.380  13.351
58977W        W25386  19.536  24.520  13.497
58978W        W25387  16.913   2.277  11.103
58979W        W25388  22.505  12.390  12.569
58980W        W25389  29.404  10.121  13.410
58981W        W25390   8.513  19.255  11.425
58982W        W25391   0.790  26.437   4.992
58983W        W25392  36.672  26.519   0.943
58984W        W25393  12.399  40.588   4.780
58985W        W25394  22.652  14.991  10.882
58986W        W25395  35.507   8.704  13.083
58987W        W25396   7.146  18.103  14.015
58988W        W25397   0.769  22.683  14.340
58989W        W25398  14.339   8.299   1.963
58990W        W25399   7.370  10.086   1.858
58991W        W25400  32.625  42.039  12.625
58992W        W25401  42.318  11.939  11.718
58993W        W25402   8.266  11.191   1.210
58994W        W25403  35.869  31.902  11.480
58995W        W25404   5.755  28.542   4.185
58996W        W25405  24.435  44.003   1.379
58997W        W25406   2.252   7.700   0.809
58998W        W25407   6.259  15.227   0.320
58999W        W25408  35.431  21.926   1.784
59000W        W25409  34.047  11.370  13.035
59001W        W25410   5.192  40.413   2.551
59002W        W25411  10.566  40.857  14.050
59003W        W25412  16.484   9.660  10.411
59004W        W25413  13.108  29.049   4.162
59005W        W25414  24.185  36.623  11.520
59006W        W25415   9.691   4.927  11.072
59007W        W25416  34.859  43.934   2.601
59008W        W25417  27.004  32.973  12.338
59009W        W25418  39.124  27.397   0.373
59010W        W25419  30.102   8.512   4.925
59011W        W25420   1.036  28.661  14.954
59012W        W25421   0.981  28.428  14.304
59013W        W25422  42.595  10.114  13.926
59014W        W25423  15.474  34.126  12.016
59015W        W25424  27.550   3.236   2.179
59016W        W25425  24.117  28.734   4.123
59017W        W25426   7.674   0.520  13.469
59018W        W25427  33.906  36.133   5.095
59019W        W25428  12.413  16.399   0.416
59020W        W25429  43.916  18.915  11.130
59021W        W25430  31.054  16.648  14.041
59022W        W25431   8.920  20.642   5.050
59023W        W25432  38.988   8.920  12.920
59024W        W25433  31.920  42.969   3.728
59025W        W25434  44.837  23.110  12.145
59026W        W25435   1.494  11.841  12.861
59027W        W25436  12.736  44.832   2.808
59028W        W25437  44.733  41.231  12.658
59029W        W25438   4.332  11.164  14.846
59030W        W25439   7.631  15.721  13.624
59031W        W25440  27.060  31.427  11.000
59032W        W25441  29.616  35.875  13.871
59033W        W25442  15.425  41.393  10.347
59034W        W25443   6.678   1.379   1.368
59035W        W25444  12.678  25.228  13.552
59036W        W25445  10.079  36.007  12.130
59037W        W25446  32.372  37.494  10.679
59038W        W25447   5.025  18.198   0.096
59039W        W25448  26.690   4.381  14.469
59040W        W25449   1.185   7.191   2.720
59041W        W25450  16.229  27.565   2.922
59042W        W25451  28.503  20.695   4.059
59043W        W25452   9.518  13.617  12.652
59044W        W25453  15.262   5.105  12.148
59045W        W25454  29.046   6.359  13.384
59046W        W25455  36.844   4.268   3.751
59047W        W25456  39.445  30.705   3.599
59048W        W25457   4.711  35.962   3.762
59049W        W25458  43.960  10.867   4.779
59050W        W25459  15.924  20.769   1.363
59051W        W25460  15.167  33.994   4.763
59052W        W25461   1.240  39.466  14.894
59053W        W25462  34.815  12.729   1.523
59054W        W25463  37.868  27.488   2.637
59055W        W25464  32.553  26.597   1.047
59056W        W25465  11.986  28.088   4.160
59057W        W25466  19.229  10.644   1.083
59058W        W25467  25.501  13.076  14.413
59059W        W25468  20.027  43.309  14.350
59060W        W25469  38.304  23.571  14.761
59061W        W25470  16.611  22.661  14.259
59062W        W25471   3.868  29.159  11.541
59063W        W25472  25.147  36.697  13.980
59064W        W25473  29.326   2.757  13.468
59065W        W25474  35.346  18.628   3.832
59066W        W25475  14.070  37.059  12.986
59067W        W25476  32.044  26.020   4.181
59068W        W25477  27.487  12.914  13.441
59069W        W25478   4.364  33.900   4.296
59070W        W25479  31.065  12.624   4.131
59071W        W25480  36.185  27.578  13.362
59072W        W25481  41.432  20.686  11.561
59073W        W25482  21.855  23.123  11.112
59074W        W25483   7.234  17.675  13.077
59075W        W25484  32.021  30.486   0.806
59076W        W25485  37.853  31.197  14.848
59077W        W25486   3.771  44.933  11.636
59078W        W25487  23.254  40.402   0.710
59079W        W25488   7.772  43.025  14.255
59080W        W25489   7.324  19.761  11.579
59081W        W25490  11.928   0.806   1.821
59082W        W25491  25.740  33.616   0.201
59083W        W25492  23.718  37.021  12.102
59084W        W25493  23.441  29.086  13.333
59085W        W25494   5.951  23.119  12.548
59086W        W25495   9.671  17.164  13.943
59087W        W25496   3.487   1.654   3.868
59088W        W25497   8.242  41.681  13.083
59089W        W25498  34.127  16.676   1.479
59090W        W25499  24.430  10.326   1.955
59091W        W25500  35.214  29.183   4.582
59092W        W25501  41.455  34.634   0.091
59093W        W25502  36.522  32.627  13.431
59094W        W25503  11.605  12.705  11.465
59095W        W25504  11.683   4.163   3.801
59096W        W25505  21.984  17.649  11.544
59097W        W25506  17.460  22.203   4.558
59098W        W25507  19.225  31.564  11.060
59099W        W25508  30.888  22.010   4.195
59100W        W25509  31.940  20.289  11.107
59101W        W25510   1.422  15.560   0.758
59102W        W25511  40.892  21.616  12.628
59103W        W25512   9.826  40.831  12.549
59104W        W25513   2.580   3.513  12.484
59105W        W25514  41.461  20.350  11.154
59106W        W25515   4.428   0.914  12.071
59107W        W25516  34.966  28.004  12.090
59108W        W25517  10.353   4.185  14.254
59109W        W25518   0.445  37.197  12.502
59110W        W25519  26.736  39.119   0.051
59111W        W25520   0.810  33.913   2.738
59112W        W25521  17.620   3.810  11.121
59113W        W25522   9.932  23.718   5.192
59114W        W25523  43.974   3.238  11.971
59115W        W25524  25.281  27.773   4.619
59116W        W25525  22.165  29.416   3.739
59117W        W25526  30.540   0.620  12.500
59118W        W25527  20.618   2.785   2.796
59119W        W25528  29.608  10.865   3.312
59120W        W25529   2.576  30.701   0.401
59121W        W25530  20.246  24.009   2.429
59122W        W25531  12.567   2.982  10.603
59123W        W25532  11.679   8.358   4.604
59124W        W25533  12.412  38.411  10.146
59125W        W25534  43.433  15.034   1.552
59126W        W25535  26.497  30.415   2.136
59127W        W25536   0.203  18.353   3.748
59128W        W25537  30.514  41.389   4.146
59129W        W25538  10.264  31.232  13.011
59130W        W25539   5.409  43.188  12.063
59131W        W25540  19.784  36.142   1.352
59132W        W25541  27.982   1.192   1.330
59133W        W25542  43.806   4.462  14.047
59134W        W25543  22.278  31.434   0.001
59135W        W25544  21.679  27.751   4.057
59136W        W25545   1.849  11.388   2.316
59137W        W25546  11.233   5.083   2.142
59138W        W25547  25.014  22.798  13.990
59139W        W25548   3.300  26.685  13.883
59140W        W25549   6.155  21.914   0.680
59141W        W25550  34.166  37.362  11.194
59142W        W25551  42.772  18.657   2.146
59143W        W25552  24.159  19.728  13.716
59144W        W25553  25.120  24.253  10.273
59145W        W25554   3.543  26.948  12.686
59146W        W25555  18.092   1.716   0.765
59147W        W25556  19.907  18.625  11.862
59148W        W25557  22.589  13.673   4.103
59149W        W25558   4.953  42.782  14.651
59150W        W25559  30.993  17.454  11.107
59151W        W25560   2.920   5.335  10.660
59152W        W25561  20.267  44.998   0.825
59153W        W25562  41.858  12.088   2.231
59154W        W25563   3.560  34.886   4.596
59155W        W25564   9.082  12.730   4.211
59156W        W25565  22.527  34.454   4.704
59157W        W25566  37.166  10.777   0.757
59158W        W25567  23.204  18.325  13.465
59159W        W25568   7.748  29.353  10.663
59160W        W25569  24.604  33.426   3.754
59161W        W25570  19.256  23.483  13.514
59162W        W25571  21.088   2.200  11.312
59163W        W25572  35.669  18.120   0.796
59164W        W25573  28.926  20.609  12.900
59165W        W25574  40.880   9.283   2.083
59166W        W25575  37.987  33.069   2.777
59167W        W25576  35.596  38.931   3.323
59168W        W25577  33.564  25.212  12.984
59169W        W25578   9.185  32.488   1.011
59170W        W25579  38.582  13.273   1.586
59171W        W25580  32.493  40.205   2.109
59172W        W25581  44.027   5.264   3.195
59173W        W25582  26.331  43.842   4.113
59174W        W25583  28.959   4.858   3.348
59175W        W25584   6.831  42.516   4.317
59176W        W25585  35.257  12.794  13.052
59177W        W25586  23.207  41.467  13.826
59178W        W25587  18.045  34.569  12.960
59179W        W25588   7.583  38.538   3.820
59180W        W25589  19.695  43.313  13.390
59181W        W25590  17.245   1.649  12.029
59182W        W25591   1.767  17.634  10.709
59183W        W25592  30.947   3.834  13.140
59184W        W25593   6.847   6.185  12.986
59185W        W25594  12.762  22.679  11.935
59186W        W25595   6.905  28.059  14.602
59187W        W25596  40.741   4.138   1.294
59188W        W25597   2.853   9.445  12.655
59189W        W25598  12.650  26.415  14.108
59190W        W25599   9.165   8.503   0.972
59191W        W25600   5.602  25.937   4.887
59192W        W25601  36.500  27.128   0.362
59193W        W25602  11.202  21.297   0.725
59194W        W25603  20.777  36.381   3.611
59195W        W25604   8.862  10.476   0.538
59196W        W25605   9.276  14.830  10.718
59197W        W25606   5.175   3.194  13.288
59198W        W25607   8.366   8.873  11.783
59199W        W25608  42.817  10.238  13.141
59200W        W25609  12.155  26.829  10.715
59201W        W25610  33.939  14.267   0.878
59202W        W25611  11.335  40.578   1.778
59203W        W25612  34.885  23.552  14.682
59204W        W25613  10.238   2.432   1.045
59205W        W25614  15.465  17.677   4.899
59206W        W25615  13.914  43.940  14.936
59207W        W25616  24.545  26.825   2.963
59208W        W25617  14.719  23.348   4.645
59209W        W25618  24.850  13.921  13.555
59210W        W25619  24.463   0.940   0.858
59211W        W25620  34.485   0.391   5.325
59212W        W25621  22.372  34.088   3.647
59213W        W25622  41.408  29.971  13.913
59214W        W25623  10.857  15.829  13.178
59215W        W25624  35.881  21.903   2.751
59216W        W25625  10.177  32.988  12.299
59217W        W25626  25.466  40.382   3.906
59218W        W25627  39.395  29.908  14.421
59219W        W25628  12.593  44.768  10.195
59220W        W25629  20.724  24.767  13.349
59221W        W25630  27.135  32.373   4.144
59222W        W25631  22.205   8.198   0.820
59223W        W25632  28.281  25.756   4.133
59224W        W25633  41.253   2.024   2.353
59225W        W25634  18.007  44.362   2.257
59226W        W25635  22.082  33.701   3.490
59227W        W25636   6.361  23.542  14.893
59228W        W25637   2.025  40.175   2.901
59229W        W25638  18.426  28.659   0.069
59230W        W25639  17.299  12.222  14.822
59231W        W25640  20.532  22.664  11.061
59232W        W25641  29.476  11.213  11.583
59233W        W25642  34.198   5.796   2.485
59234W        W25643  38.887  33.948  14.330
59235W        W25644  38.934  39.405   4.524
59236W        W25645  23.641  19.013  13.834
59237W        W25646   2.989  26.474  14.906
59238W        W25647  44.734  27.103  11.408
59239W        W25648  35.281  28.479  12.482
59240W        W25649  12.209  22.688  14.106
59241W        W25650  16.367   4.501  12.005
59242W        W25651  34.345   7.274   0.926
59243W        W25652  29.582   7.986  12.937
59244W        W25653  13.074   7.180  10.682
59245W        W25654  17.723  36.111  11.657
59246W        W25655  13.275  29.426   0.905
59247W        W25656  34.354  23.475   0.407
59248W        W25657   4.009  40.245  13.952
59249W        W25658  22.387  32.180   5.026
59250W        W25659   2.331  13.811   4.633
59251W        W25660  24.247  16.784   1.576
59252W        W25661   6.386   5.612  13.480
59253W        W25662  25.962   5.862  11.952
59254W        W25663  36.787  16.657   4.682
59255W        W25664  15.542   0.795  14.991
59256W        W25665  36.636  19.351  10.674
59257W        W25666   9.713  14.343   4.928
59258W        W25667   1.564  31.336   2.205
59259W        W25668   4.772  41.997   2.277
59260W        W25669  20.055  17.139  12.100
59261W        W25670  34.715  14.783   0.633
59262W        W25671   4.624  15.625  14.488
59263W        W25672  22.775  29.025  10.934
59264W        W25673  12.091   6.113  11.462
59265W        W25674  35.610  23.090  14.034
59266W        W25675  40.973  28.983  13.565
59267W        W25676   6.250  39.475   4.796
59268W        W25677  11.543  15.800   4.005
59269W        W25678  39.375  27.912  10.443
59270W        W25679  18.096   9.978   2.730
59271W        W25680  37.372  10.865   1.605
59272W        W25681  30.096  23.300   3.250
59273W        W25682  33.572  18.047   0.959
59274W        W25683   2.969  33.539  14.935
59275W        W25684  43.946  38.736  13.999
59276W        W25685  35.238  42.771   0.361
59277W        W25686  16.393  34.480  14.003
59278W        W25687  34.545   1.442  13.904
59279W        W25688  26.262  24.013   3.666
59280W        W25689  18.967  11.563  10.656
59281W        W25690  43.779  17.555   0.907
59282W        W25691   1.648   1.382   3.781
59283W        W25692  37.501  11.718   0.549
59284W        W25693  32.461   1.804  11.379
59285W        W25694  39.385  12.042  14.359
59286W        W25695  13.869   0.508   9.934
59287W        W25696   0.817   3.413  12.411
59288W        W25697  12.936  18.715  13.075
59289W        W25698  40.257  33.652   4.838
59290W        W25699   1.877  28.902   4.595
59291W        W25700   6.916  28.866  10.976
59292W        W25701  28.877   5.830   3.875
59293W        W25702  22.153  37.522  14.547
59294W        W25703  31.927  29.382  12.590
59295W        W25704   2.808  19.253   1.499
59296W        W25705  38.459   2.460   0.793
59297W        W25706  12.275   7.418  11.075
59298W        W25707  35.904  21.119  13.366
59299W        W25708  12.636  33.699   3.578
59300W        W25709  26.683  42.913   4.124
59301W        W25710  37.855  14.910   0.343
59302W        W25711  43.327   9.349   1.692
59303W        W25712   3.072  40.651   3.350
59304W        W25713  24.680  38.332  12.580
59305W        W25714   4.294   0.998  14.355
59306W        W25715  24.656  39.521  11.978
59307W        W25716  36.633  23.536  11.966
59308W        W25717  34.568  28.940   3.584
59309W        W25718  36.831  44.861   2.398
59310W        W25719  11.189   1.265   0.247
59311W        W25720   1.013  16.458   3.242
59312W        W25721  23.990  28.186  11.629
59313W        W25722  15.482   9.176   1.916
59314W        W25723  19.646  14.445  10.485
59315W        W25724  31.965  12.015   3.210
59316W        W25725  23.577  31.481   2.222
59317W        W25726   1.292  29.702   1.832
59318W        W25727  24.193   0.284  14.804
59319W        W25728  20.235  15.532  10.735
59320W        W25729  23.731  31.509   0.402
59321W        W25730  13.285   5.208   3.279
59322W        W25731  27.200  40.324  14.302
59323W        W25732  18.587  38.920  14.366
59324W        W25733   2.883  24.136   2.013
59325W        W25734  36.352  23.573   4.154
59326W        W25735  13.423   0.141  14.304
59327W        W25736  33.463   9.823   3.606
59328W        W25737  38.975  41.920   2.423
59329W        W25738  29.665   6.901   3.724
59330W        W25739  17.843   4.904   0.829
59331W        W25740  38.627  34.418   0.016
59332W        W25741   4.272  25.581   3.663
59333W        W25742  38.900  21.868  14.117
59334W        W25743  15.827  37.462  12.173
59335W        W25744   8.729  29.187   3.394
59336W        W25745  31.634   6.063   2.782
59337W        W25746   0.136  36.666  13.772
59338W        W25747  37.048  27.028  13.827
59339W        W25748  17.292  21.838  12.621
59340W        W25749  43.292  11.408   0.301
59341W        W25750  42.979  32.406  14.887
59342W        W25751   1.850  41.840  11.179
59343W        W25752  44.351   7.313  10.897
59344W        W25753  24.990   6.935   3.651
59345W        W25754  26.766   9.765  13.899
59346W        W25755   1.021  16.657   1.338
59347W        W25756  27.721   7.848  11.536
59348W        W25757   5.211  28.254   3.501
59349W        W25758   5.385  32.384  11.918
59350W        W25759   8.001  11.612   5.065
59351W        W25760  34.361   7.095  12.323
59352W        W25761   0.551   1.807  11.465
59353W        W25762   6.271   3.347  14.686
59354W        W25763  22.153  41.020   2.235
59355W        W25764  25.792  13.040  12.139
59356W        W25765  17.758   8.957  14.304
59357W        W25766   5.084  39.615  13.773
59358W        W25767  27.206   4.420  14.361
59359W        W25768  16.517  19.918   4.957
59360W        W25769   1.297  16.193  13.495
59361W        W25770   2.840  35.873  14.091
59362W        W25771  15.121  20.967   4.497
59363W        W25772  29.983  14.866   0.178
59364W        W25773  11.445  39.476   0.832
59365W        W25774  14.755  13.630  13.791
59366W        W25775  36.625  43.276  11.614
59367W        W25776  36.765  22.553   3.504
59368W        W25777   3.871  28.123   1.733
59369W        W25778   0.383   4.439   0.912
59370W        W25779  24.036   1.807   3.067
59371W        W25780  23.961   0.253  10.722
59372W        W25781  15.237  36.586  10.747
59373W        W25782  38.241  16.366   2.863
59374W        W25783  25.270  42.267  11.186
59375W        W25784  31.957  24.692   3.141
59376W        W25785  28.593  35.930  13.361
59377W        W25786  44.597  23.439  13.559
59378W        W25787  39.809  42.342  14.494
59379W        W25788   6.390  25.776  10.927
59380W        W25789  36.634  17.591   0.767
59381W        W25790  17.118   8.297  14.162
59382W        W25791  42.524  35.633   2.367
59383W        W25792   2.292  19.889  14.824
59384W        W25793  26.533  32.671  13.965
59385W        W25794   9.710  15.654  12.780
59386W        W25795   5.729  22.995   1.450
59387W        W25796   4.408  38.343   0.727
59388W        W25797  44.925   1.238   3.230
59389W        W25798  27.212   5.871   1.382
59390W        W25799  37.882  23.757   4.063
59391W        W25800  30.698  35.111   4.239
59392W        W25801  22.035   7.473   0.438
59393W        W25802  32.470  34.846  13.108
59394W        W25803  29.835   1.256   4.125
59395W        W25804  30.988  33.125   2.243
59396W        W25805  37.304  29.886  13.052
59397W        W25806  37.918  21.748  14.799
59398W        W25807  22.797   6.355   1.985
59399W        W25808   1.860  20.497   1.197
59400W        W25809  26.033   2.679  10.553
59401W        W25810   1.930  23.754   2.341
59402W        W25811  37.574  13.402   1.766
59403W        W25812  31.647  22.249   4.651
59404W        W25813  17.760  33.425  12.538
59405W        W25814  10.342  33.924  13.420
59406W        W25815   6.395   3.022   1.792
59407W        W25816   1.431  41.367   4.277
59408W        W25817  21.257   5.644   3.797
59409W        W25818  34.666  24.211  11.262
59410W        W25819  35.438   6.760   3.075
59411W        W25820  26.154  38.977  11.991
59412W        W25821  24.455   7.612  14.404
59413W        W25822  38.548  19.212   1.472
59414W        W25823  39.576   1.757  12.198
59415W        W25824  23.164  14.713   1.452
59416W        W25825  35.594   4.108   0.852
59417W        W25826  34.671  34.661  11.978
59418W        W25827   9.315  38.990  11.103
59419W        W25828  28.811  23.452   2.418
59420W        W25829  16.162   6.234  12.537
59421W        W25830  42.378  31.890   0.373
59422W        W25831  40.494  42.396   2.324
59423W        W25832  29.159  36.615   3.640
59424W        W25833   3.647  28.423  13.886
59425W        W25834  14.390  35.475   2.824
59426W        W25835  39.967  40.750  12.423
59427W        W25836  37.269   8.496  12.835
59428W        W25837  36.872  21.351  13.550
59429W        W25838  37.301  16.952   3.677
59430W        W25839  30.237   2.864  11.225
59431W        W25840  34.127  18.276   0.368
59432W        W25841  40.285  30.462   4.016
59433W        W25842  13.279  30.532   4.301
59434W        W25843   1.832  26.928  13.382
59435W        W25844  33.091  35.516   4.751
59436W        W25845   7.597  27.948   3.160
59437W        W25846  43.755  20.708   2.688
59438W        W25847  19.214  34.295  12.545
59439W        W25848  40.910   9.516  12.197
59440W        W25849  30.082   4.195  10.981
59441W        W25850  18.082  34.064   0.552
59442W        W25851  25.629  35.548  12.111
59443W        W25852  14.618  37.905  13.935
59444W        W25853   5.951  13.030   3.958
59445W        W25854  27.437  35.947   2.174
59446W        W25855   2.797  31.166  14.986
59447W        W25856  15.787  14.174  13.826
59448W        W25857   1.582   7.146   4.245
59449W        W25858  34.372  24.789  13.956
59450W        W25859  25.186  44.706   2.257
59451W        W25860  10.840  12.300  11.042
59452W        W25861  44.843  15.168  10.691
59453W        W25862  13.298  25.607  11.163
59454W        W25863  24.535  44.722   1.858
59455W        W25864  10.885   9.671   4.176
59456W        W25865  19.578  17.850  12.508
59457W        W25866  27.892   5.451   1.376
59458W        W25867  38.523  10.061  14.354
59459W        W25868  23.896  15.761  13.013
59460W        W25869  43.467  39.027  12.914
59461W        W25870   2.840  42.776   4.553
59462W        W25871  26.483  25.283   1.402
59463W        W25872  33.327  33.662   3.177
59464W        W25873  17.593  25.124  10.687
59465W        W25874  33.674  18.808  14.947
59466W        W25875  19.284  26.962   2.245
59467W        W25876  26.634  13.373  11.244
59468W        W25877  30.101  32.797   1.424
59469W        W25878  24.935  21.068  11.783
59470W        W25879   4.264   8.592  14.549
59471W        W25880  22.544  43.336  11.253
59472W        W25881  37.973  15.697  14.245
59473W        W25882  31.321  30.041   3.751
59474W        W25883   8.302  13.236  14.314
59475W        W25884   7.295   4.451   4.896
59476W        W25885   2.709  28.529   2.818
59477W        W25886  30.682  43.384  12.589
59478W        W25887  22.100  21.406   4.780
59479W        W25888  32.067  40.191  14.869
59480W        W25889  32.991  30.201   4.061
59481W        W25890  22.987  18.288  12.079
59482W        W25891  34.380  44.506   0.514
59483W        W25892  18.333  32.841   3.764
59484W        W25893  21.865  29.084   1.069
59485W        W25894  26.517  29.783  13.547
59486W        W25895  14.044  21.178   0.842
59487W        W25896  40.559  27.020   3.762
59488W        W25897   0.818   9.303   4.020
59489W        W25898  43.525  35.831  13.948
59490W        W25899  22.444   4.480   0.378
59491W        W25900  18.718  25.094   1.991
59492W        W25901  39.314  32.898   4.419
59493W        W25902   9.299  10.385  13.745
59494W        W25903  20.012  35.574   4.747
59495W        W25904   8.267  44.056   1.415
59496W        W25905   6.987  36.880  12.997
59497W        W25906  16.502   7.439   0.700
59498W        W25907  22.091  18.526  11.778
59499W        W25908  29.729  14.645  11.154
59500W        W25909   6.051   3.509   4.521
59501W        W25910  12.793  30.816   0.310
59502W        W25911  35.552   9.621   0.700
59503W        W25912   7.707  27.648   4.912
59504W        W25913  16.092   0.512  13.863
59505W        W25914   6.397  12.609  12.463
59506W        W25915  36.804  16.695  11.987
59507W        W25916   9.889  44.956  14.577
59508W        W25917  40.351  35.848  11.968
59509W        W25918   0.726   0.716  13.818
59510W        W25919   4.484  34.461   4.588
59511W        W25920  10.711  22.307  12.084
59512W        W25921  32.587  43.415  13.814
59513W        W25922  17.546  15.246   4.336
59514W        W25923  41.805  10.561  13.718
59515W        W25924  20.590   4.898  13.403
59516W        W25925  43.870  31.702  13.475
59517W        W25926  10.884  27.178   0.274
59518W        W25927   8.752  23.186  12.481
59519W        W25928  38.520  21.422   4.096
59520W        W25929  35.455  41.744  12.976
59521W        W25930  19.084  10.266   4.182
59522W        W25931  38.394  18.821  11.543
59523W        W25932   9.456   5.949  13.001
59524W        W25933  18.621  24.420   3.379
59525W        W25934   9.555  40.823  12.078
59526W        W25935  27.315  26.575   1.191
59527W        W25936   6.048  44.788   1.173
59528W        W25937  20.022  10.293   4.032
59529W        W25938  17.326  29.178  10.568
59530W        W25939  30.696  35.404  13.379
59531W        W25940  23.292  16.041   2.587
59532W        W25941  18.345  22.001  11.073
59533W        W25942  32.205  32.301  13.973
59534W        W25943   0.001   8.839   0.149
59535W        W25944  18.155  16.071  13.819
59536W        W25945   0.262  32.874   2.184
59537W        W25946  17.321  39.106  13.482
59538W        W25947  22.732  38.984   1.418
59539W        W25948  41.836  39.594  10.797
59540W        W25949  40.845  11.878   2.302
59541W        W25950  14.261  18.074   2.215
59542W        W25951  10.884   5.911   3.654
59543W        W25952  32.954   7.914   4.875
59544W        W25953   6.984  27.164  14.703
59545W        W25954  31.434   4.471  13.809
59546W        W25955  41.673  37.074   2.809
59547W        W25956   6.646  20.044   2.489
59548W        W25957  10.012  19.720   9.872
59549W        W25958   1.599  42.491   4.145
59550W        W25959  17.689  38.424   0.642
59551W        W25960  42.490  40.340   2.223
59552W        W25961  37.710   5.444   4.491
59553W        W25962  15.306   8.109   3.535
59554W        W25963  13.154  27.356   0.842
59555W        W25964  35.470  27.564   1.692
59556W        W25965  20.799   2.250  14.378
59557W        W25966  10.634  10.094   4.501
59558W        W25967  34.875  11.381  13.299
59559W        W25968  27.247  35.624  12.611
59560W        W25969  37.903  18.875  10.324
59561W        W25970  29.472  39.387  12.652
59562W        W25971  19.330  37.060  12.856
59563W        W25972  40.437  23.967  13.415
59564W        W25973  38.443  16.609   1.946
59565W        W25974   5.474  35.120  11.237
59566W        W25975  40.266  44.282   3.334
59567W        W25976   1.424  40.313   1.820
59568W        W25977  17.003  12.666   0.374
59569W        W25978  36.621  44.678  13.031
59570W        W25979  15.222   7.971  11.579
59571W        W25980  15.671  41.280   1.688
59572W        W25981  31.398   4.138  12.017
59573W        W25982  39.113  19.575   3.111
59574W        W25983  23.970  30.209   2.814
59575W        W25984  37.946  39.369   3.652
59576W        W25985   8.143   6.430   2.810
59577W        W25986   0.810  18.357   4.653
59578W        W25987   8.196  23.036   3.637
59579W        W25988  30.589   1.206  11.536
59580W        W25989  21.616  35.856   1.609
59581W        W25990  12.355  19.044   4.462
59582W        W25991  29.488   0.384  12.481
59583W        W25992  18.995  20.136  10.729
59584W        W25993  31.314  43.951  10.566
59585W        W25994   1.402  44.031   2.820
59586W        W25995  34.967  37.441   4.577
59587W        W25996  24.518  33.389  11.474
59588W        W25997  32.335  18.563  12.915
59589W        W25998  36.187  13.568  13.055
59590W        W25999  18.295  10.626   4.422
59591W        W26000   9.244  42.817  10.803
59592W        W26001  25.390  37.005   4.111
59593W        W26002  38.751  26.033  14.411
59594W        W26003   1.828  24.158   1.241
59595W        W26004  27.051  28.129  11.601
59596W        W26005  12.202  28.127  10.811
59597W        W26006  14.311  17.112   4.660
59598W        W26007   0.243  41.156   0.061
59599W        W26008  44.397  40.531  14.973
59600W        W26009   7.641  18.246   0.884
59601W        W26010  39.980   0.445   2.668
59602W        W26011  25.237  19.879   3.719
59603W        W26012  23.477  26.222   4.154
59604W        W26013   1.972  34.397   4.585
59605W        W26014  31.581  41.745   4.675
59606W        W26015  13.577  28.205   3.329
59607W        W26016  29.583  31.818  11.710
59608W        W26017  13.375  39.794  12.398
59609W        W26018  20.793  15.634   1.202
59610W        W26019  15.747  40.552  10.104
59611W        W26020  39.082  39.972   1.405
59612W        W26021  14.671  24.213   3.208
59613W        W26022  16.713  30.184   1.929
59614W        W26023   8.326  14.057   0.416
59615W        W26024  26.191  44.421  10.473
59616W        W26025  32.488  29.530   0.625
59617W        W26026   7.716   6.956   0.490
59618W        W26027  19.660  32.194  12.914
59619W        W26028  21.027  39.692  11.927
59620W        W26029  29.007  28.119  14.106
59621W        W26030  28.768  24.978   0.533
59622W        W26031   2.369  23.693  11.115
59623W        W26032   9.195   6.144  11.135
59624W        W26033  35.291  14.091   5.133
59625W        W26034   7.132  14.700  13.986
59626W        W26035   7.425   8.349  10.382
59627W        W26036  33.071  23.160  11.674
59628W        W26037  27.310   3.898   3.729
59629W        W26038   6.776  13.579  11.649
59630W        W26039  13.330  21.575  13.049
59631W        W26040  28.339   6.595   2.031
59632W        W26041  33.948  39.085   1.484
59633W        W26042  31.241  39.269   1.090
59634W        W26043  15.247  23.310   4.506
59635W        W26044   1.306  25.326  11.145
59636W        W26045   4.283  14.706  10.490
59637W        W26046  43.988  28.606  14.239
59638W        W26047   7.164  34.088  14.929
59639W        W26048  38.326  15.925  13.262
59640W        W26049   7.228  39.092   2.406
59641W        W26050  12.345   7.246  14.046
59642W        W26051  28.582  21.983   3.549
59643W        W26052  31.975   6.777  12.883
59644W        W26053  42.804  18.166   4.741
59645W        W26054   4.199  34.065   0.924
59646W        W26055   2.763  24.039  12.993
59647W        W26056  42.478  42.800  13.929
59648W        W26057  43.068   6.386   4.106
59649W        W26058  28.015   4.316   3.684
59650W        W26059   8.254  31.445   2.172
59651W        W26060   6.502  29.493   0.813
59652W        W26061  38.988  36.389   3.155
59653W        W26062  25.158  12.244  13.005
59654W        W26063  39.604   5.583  12.060
59655W        W26064  33.703   8.556  13.114
59656W        W26065  18.180  28.104   3.806
59657W        W26066  27.447  13.280  13.046
59658W        W26067  20.395  29.599  14.833
59659W        W26068  25.593   5.644   3.546
59660W        W26069  18.576  44.667   3.192
59661W        W26070  17.689   9.426   4.348
59662W        W26071  27.421  35.763  13.897
59663W        W26072  35.469   3.716   3.275
59664W        W26073  44.322  27.956   4.095
59665W        W26074  26.802  23.734   2.735
59666W        W26075  37.872  21.063  13.526
59667W        W26076  19.349  43.634  13.603
59668W        W26077  33.293  39.433  14.796
59669W        W26078  14.092  16.696   3.133
59670W        W26079  33.727  41.111  11.063
59671W        W26080  39.639  35.895  14.036
59672W        W26081  20.149  17.343   4.506
59673W        W26082  33.937  35.902   2.732
59674W        W26083  28.633  27.035  12.896
59675W        W26084   5.951  29.014  11.043
59676W        W26085  43.449  42.995  12.654
59677W        W26086  29.574  35.393  11.321
59678W        W26087  20.754  35.832   1.220
59679W        W26088  14.372  12.596   4.035
59680W        W26089   9.244  33.981  11.946
59681W        W26090  41.933  19.959  10.318
59682W        W26091  13.668  27.609  11.559
59683W        W26092   7.396  23.011  14.797
59684W        W26093  16.222  21.192   2.082
59685W        W26094  11.740  23.645   4.789
59686W        W26095   0.011  43.129   3.570
59687W        W26096   4.033  11.459   3.684
59688W        W26097   7.796  27.172   4.686
59689W        W26098  37.334  15.139  14.733
59690W        W26099  26.741  33.971   0.321
59691W        W26100   5.423  44.961  14.936
59692W        W26101  34.778  21.467  13.992
59693W        W26102  36.981   4.686   0.951
59694W        W26103  38.453   7.517   3.813
59695W        W26104  15.388  22.169   3.551
59696W        W26105   3.838  29.076   4.836
59697W        W26106  40.303  13.858  14.837
59698W        W26107  24.258   5.757   1.309
59699W        W26108  21.194  18.044  14.534
59700W        W26109  34.503  16.843   0.232
59701W        W26110  37.743  27.761  14.359
59702W        W26111  37.840  44.547   3.461
59703W        W26112  17.774  10.343  14.788
59704W        W26113  20.000  23.745   0.763
59705W        W26114  33.895  14.740   3.707
59706W        W26115  12.961  44.960  14.164
59707W        W26116   4.790  13.612   4.597
59708W        W26117  12.229  30.067  12.420
59709W        W26118   1.569  40.887   2.170
59710W        W26119   3.666   1.720   5.250
59711W        W26120  15.653  12.325  13.516
59712W        W26121  11.232   5.137  11.520
59713W        W26122  11.054  41.485   3.921
59714W        W26123  40.356   9.957  10.738
59715W        W26124  33.628   4.988  12.048
59716W        W26125  28.140  23.802  11.114
59717W        W26126   3.896  41.940   2.841
59718W        W26127  23.558  18.704   4.179
59719W        W26128  37.939  16.241  13.407
59720W        W26129   8.683  38.634   2.251
59721W        W26130   2.089  28.528  14.973
59722W        W26131  41.299  23.548   4.058
59723W        W26132  10.405  17.718   2.733
59724W        W26133  29.361  18.301   0.242
59725W        W26134   2.346  12.270   2.747
59726W        W26135  43.192  12.834  12.583
59727W        W26136   5.969  39.264  12.964
59728W        W26137   2.035  18.461  14.897
59729W        W26138  16.529   4.788  10.712
59730W        W26139  20.521  24.103   0.492
59731W        W26140  29.588   4.143  10.760
59732W        W26141  40.015  10.369  10.791
59733W        W26142  22.898   7.776  14.434
59734W        W26143  25.152  25.916  13.008
59735W        W26144  40.298   8.853  12.957
59736W        W26145  34.928  28.655   1.207
59737W        W26146   1.732   4.322   4.589
59738W        W26147  39.209  26.782  11.102
59739W        W26148  16.516  29.423   1.933
59740W        W26149  36.929   9.968   0.052
59741W        W26150  38.300   6.835   2.326
59742W        W26151  33.037  18.569  13.498
59743W        W26152  22.374   6.775   2.337
59744W        W26153  35.491  14.241  10.670
59745W        W26154  33.627  26.237  13.848
59746W        W26155  23.266   8.695   0.358
59747W        W26156  29.663  16.294   3.844
59748W        W26157   9.483  20.118   0.540
59749W        W26158  15.858   3.326   2.279
59750W        W26159  44.276   4.408  14.391
59751W        W26160  40.637  22.627   1.981
59752W        W26161  15.365  27.373  11.113
59753W        W26162  31.564  12.885  12.064
59754W        W26163  35.644   6.327  11.609
59755W        W26164  19.444  12.641   1.032
59756W        W26165  25.865   9.763   0.590
59757W        W26166  20.230  12.049   1.983
59758W        W26167   6.411  31.116   3.279
59759W        W26168  10.280   2.770  10.861
59760W        W26169  40.788  39.819   0.529
59761W        W26170  21.875  40.637  11.098
59762W        W26171  44.421  17.927  11.718
59763W        W26172  10.413  29.095  14.458
59764W        W26173  14.620   7.269   0.974
59765W        W26174  21.115  20.744   4.422
59766W        W26175   5.505   3.463   3.646
59767W        W26176  23.142  33.925  14.526
59768W        W26177   1.787  28.667  12.892
59769W        W26178  42.783  35.484   2.907
59770W        W26179  21.482   2.673  13.997
59771W        W26180   8.935  37.553  10.754
59772W        W26181  30.984  41.136  10.330
59773W        W26182  32.341  18.539  11.779
59774W        W26183  26.608   2.582   1.200
59775W        W26184   3.855   7.586  10.795
59776W        W26185   8.768  13.579   0.661
59777W        W26186   4.239  16.747   2.393
59778W        W26187  10.901  43.567   2.330
59779W        W26188  38.112  21.803   0.844
59780W        W26189  21.028   5.396  10.766
59781W        W26190   5.334  29.584  10.758
59782W        W26191  32.199  33.476   2.120
59783W        W26192  39.787  15.232   2.380
59784W        W26193  33.010   3.940   1.363
59785W        W26194  32.939  25.149   2.254
59786W        W26195  30.952   1.863  10.179
59787W        W26196  42.499   0.343  12.931
59788W        W26197   6.172  26.654  11.964
59789W        W26198  28.504  11.816   1.156
59790W        W26199  13.943   5.347  10.773
59791W        W26200  15.642  19.614   3.457
59792W        W26201  25.620  30.669   0.362
59793W        W26202  13.634  43.213  12.137
59794W        W26203  21.957  36.639  11.610
59795W        W26204  38.976  14.332  12.039
59796W        W26205   4.284  35.063   2.687
59797W        W26206  13.629  19.978  10.636
59798W        W26207  26.239  41.070   1.843
59799W        W26208  20.852  37.980   2.535
59800W        W26209  31.060  16.778   3.215
59801W        W26210   7.885  24.625  11.577
59802W        W26211  36.750  15.618  14.930
59803W        W26212  30.968   7.985   1.396
59804W        W26213  26.774  37.324   3.638
59805W        W26214   9.204  19.380   4.810
59806W        W26215  40.855  29.639   2.384
59807W        W26216  14.694   7.194  12.392
59808W        W26217  40.133  14.125  11.172
59809W        W26218   1.831  34.381  14.496
59810W        W26219  15.448  39.087  10.554
59811W        W26220  34.167   2.444  14.805
59812W        W26221  31.605  15.475  11.339
59813W        W26222  36.054   9.064   3.568
59814W        W26223  23.979  15.354   1.196
59815W        W26224  35.575  13.643  10.679
59816W        W26225  35.313  44.947  11.574
59817W        W26226   0.259   1.338   4.358
59818W        W26227  26.116  11.812  11.201
59819W        W26228  15.857  34.144  11.083
59820W        W26229  15.306  24.200   1.871
59821W        W26230  44.972   7.873  13.950
59822W        W26231  38.459   1.413  11.451
59823W        W26232  18.271  42.450  14.691
59824W        W26233   2.746   2.384   2.679
59825W        W26234   7.355  36.949   1.947
59826W        W26235  33.973  37.374   3.729
59827W        W26236  43.049  15.755  12.094
59828W        W26237  40.855  31.571   1.458
59829W        W26238  43.264  21.550   4.084
59830W        W26239  34.060  36.601   1.048
59831W        W26240  21.980  20.497   4.356
59832W        W26241  42.131   5.496   4.598
59833W        W26242   6.066  31.675   1.709
59834W        W26243  43.005   6.458  14.511
59835W        W26244  12.808  13.677   1.958
59836W        W26245  12.144  20.648  14.972
59837W        W26246  23.670  37.435  10.684
59838W        W26247  35.971   9.404   0.915
59839W        W26248  15.807  30.195   3.699
59840W        W26249  13.932  29.664   1.480
59841W        W26250  32.064   7.961   4.569
59842W        W26251  18.482  38.470  12.036
59843W        W26252  22.499  35.873   1.665
59844W        W26253  28.640  38.513  13.432
59845W        W26254  26.487   8.017   1.211
59846W        W26255  33.028  30.430  14.825
59847W        W26256  36.977  27.110  10.711
59848W        W26257  35.905  39.567  13.263
59849W        W26258   6.926  32.561  10.801
59850W        W26259  14.971  18.728  11.666
59851W        W26260  16.087  15.978   5.000
59852W        W26261  31.503  28.630  14.401
59853W        W26262   5.406   7.217  11.572
59854W        W26263  13.356  24.045  10.674
59855W        W26264  42.974  31.843  14.031
59856W        W26265  12.223  24.637   4.656
59857W        W26266  24.520   3.652   3.615
59858W        W26267  33.998  15.216  11.940
59859W        W26268  23.070  18.593  11.664
59860W        W26269  11.668  26.954  10.966
59861W        W26270  29.966  28.661   2.420
59862W        W26271   2.515   1.424  13.801
59863W        W26272  36.598  19.749   4.832
59864W        W26273  28.899   3.268  11.117
59865W        W26274   2.010   6.695   0.789
59866W        W26275  28.519  16.631  13.542
59867W        W26276   3.269  39.983  11.017
59868W        W26277  25.932   8.928  13.090
59869W        W26278   8.783   3.977   0.928
59870W        W26279  42.609  43.453   2.819
59871W        W26280  27.435  44.906   0.204
59872W        W26281  20.081  21.837   1.590
59873W        W26282  13.843  33.976   2.351
59874W        W26283  10.151  26.195   1.627
59875W        W26284   5.631  21.180   3.297
59876W        W26285  26.586  13.420   0.891
59877W        W26286  31.499  31.560   2.896
59878W        W26287  27.369  39.679  12.241
59879W        W26288  35.615  23.119   0.333
59880W        W26289   4.941   5.332   3.318
59881W        W26290  30.021  42.168   4.126
59882W        W26291  19.462  35.503  14.307
59883W        W26292  31.901  43.475   3.847
59884W        W26293  25.589  17.141  13.819
59885W        W26294   9.655  24.323  11.120
59886W        W26295   1.666  25.657   0.003
59887W        W26296  34.413  11.226  13.485
59888W        W26297  21.780   0.479  14.994
59889W        W26298  12.740  42.045   3.565
59890W        W26299  15.055  35.090   2.584
59891W        W26300  33.803  17.270  11.968
59892W        W26301  37.078  35.946  12.401
59893W        W26302  23.651  18.196   1.409
59894W        W26303  22.718  25.952  13.279
59895W        W26304  38.515   5.681   1.925
59896W        W26305  27.728   4.297  10.396
59897W        W26306  41.082  17.500  10.568
59898W        W26307  27.183  22.823  10.388
59899W        W26308  42.214  29.397  12.082
59900W        W26309   4.147  28.838  12.766
59901W        W26310   5.392  40.281   3.663
59902W        W26311  38.632  43.717  10.587
59903W        W26312  15.844  32.680  11.001
59904W        W26313  27.602  16.669   1.425
59905W        W26314  16.634  43.102   4.475
59906W        W26315  34.894   6.266   1.848
59907W        W26316   2.005  38.175  13.482
59908W        W26317  30.978  27.855   4.119
59909W        W26318  13.658  20.057   4.701
59910W        W26319   1.714  10.639   3.378
59911W        W26320   7.991  15.836  13.970
59912W        W26321  33.725   7.125   3.372
59913W        W26322   0.921  42.110  13.059
59914W        W26323  38.596  21.762  13.487
59915W        W26324  10.386  12.167   0.284
59916W        W26325  38.904   8.204  11.332
59917W        W26326   3.728  28.719  12.511
59918W        W26327   5.303  29.145   3.123
59919W        W26328  25.881  15.237   2.188
59920W        W26329  11.258   5.023  13.532
59921W        W26330   7.449  40.013   3.238
59922W        W26331  17.020  25.971  12.650
59923W        W26332  28.381   9.310   1.418
59924W        W26333  35.164  19.839  12.211
59925W        W26334  31.766  27.979   3.696
59926W        W26335  44.895  26.423   1.394
59927W        W26336   4.712  11.757   3.167
59928W        W26337  37.049  36.204   4.320
59929W        W26338  41.400   1.822  12.103
59930W        W26339  33.869   9.274   1.182
59931W        W26340  30.188  30.891  10.691
59932W        W26341  11.652  30.673   4.143
59933W        W26342  20.675   3.760   2.838
59934W        W26343   0.832  43.427   2.281
59935W        W26344  43.432  43.864   1.501
59936W        W26345   2.852  27.415  10.725
59937W        W26346  21.647   0.955   4.025
59938W        W26347  29.730  35.073  13.424
59939W        W26348  40.145  42.338  13.036
59940W        W26349  37.578  39.396   2.663
59941W        W26350  37.334  25.362   4.874
59942W        W26351  33.918  18.806  11.161
59943W        W26352  31.393  27.628   3.808
59944W        W26353  42.350  32.408   0.362
59945W        W26354  14.578  21.648   1.857
59946W        W26355   4.627  27.642   4.091
59947W        W26356  13.030  21.278   0.821
59948W        W26357   4.845   4.012   2.349
59949W        W26358  20.947  35.478  10.826
59950W        W26359  15.865  25.553  12.956
59951W        W26360  22.280  35.623   0.301
59952W        W26361  35.590  23.755   2.274
59953W        W26362  17.848  31.319  11.150
59954W        W26363  20.995  16.740   2.857
59955W        W26364  39.777   8.295  14.261
59956W        W26365  28.065  18.195   1.761
59957W        W26366   2.957   8.140   4.079
59958W        W26367  25.038  26.739   1.837
59959W        W26368  13.077  24.309   5.048
59960W        W26369  40.910  32.007   1.741
59961W        W26370  12.154  22.697  10.765
59962W        W26371  17.207  12.182  13.851
59963W        W26372  30.145  10.098  10.987
59964W        W26373  29.877  25.731  14.400
59965W        W26374  24.069  37.103   4.882
59966W        W26375  37.555   1.878   1.971
59967W        W26376   0.000  13.669   3.380
59968W        W26377  14.185   6.679  11.092
59969W        W26378  27.999  11.632  11.036
59970W        W26379  26.961  27.217  13.933
59971W        W26380  14.813   5.001  13.319
59972W        W26381  39.257  44.037  14.302
59973W        W26382  37.393   5.316  13.381
59974W        W26383  37.286  23.497  11.226
59975W        W26384  35.591  38.361  12.978
59976W        W26385   3.615  39.609  11.144
59977W        W26386  11.236  33.434  14.495
59978W        W26387  19.694  31.881   2.595
59979W        W26388  14.122  37.545   0.816
59980W        W26389  40.804   2.869   0.812
59981W        W26390  10.394  25.396   3.485
59982W        W26391   3.938   3.550  14.018
59983W        W26392   8.858  22.991   0.351
59984W        W26393   7.268  15.542   4.757
59985W        W26394   9.445  29.111  11.629
59986W        W26395  34.469  12.107   4.447
59987W        W26396  39.485  12.934   1.679
59988W        W26397   3.232   7.667   2.042
59989W        W26398  33.288  10.678  12.542
59990W        W26399  13.028  10.510  11.135
59991W        W26400  10.685   2.525   0.440
59992W        W26401   1.507  19.200  14.898
59993W        W26402  22.138  22.187   0.165
59994W        W26403  23.734  36.938  14.936
59995W        W26404  36.983  11.896  12.898
59996W        W26405   6.813  22.570   3.307
59997W        W26406  34.123  14.666  14.947
59998W        W26407  32.551  14.307   4.671
59999W        W26408  19.181  25.929   2.347
60000W        W26409  13.321  43.465   3.944
60001W        W26410  12.857   4.826   5.118
60002W        W26411  13.799  18.124   1.867
60003W        W26412  39.924  16.906   3.611
60004W        W26413  19.333   3.417  10.056
60005W        W26414  36.143  15.228   2.180
60006W        W26415  28.716  17.642   1.445
60007W        W26416  11.372  41.842   3.679
60008W        W26417  39.603  15.314   0.923
60009W        W26418  19.662  39.242  11.202
60010W        W26419  14.326  19.503  11.154
60011W        W26420  28.786  42.093  12.080
60012W        W26421  36.478  15.661  10.718
60013W        W26422  18.645  15.102   1.375
60014W        W26423  25.094  24.207   5.406
60015W        W26424  36.524  29.870   2.947
60016W        W26425   5.652  42.405   2.846
60017W        W26426  33.513  21.734   3.741
60018W        W26427  34.480  13.134  10.626
60019W        W26428  24.437   6.866  11.518
60020W        W26429  23.590  42.872  10.049
60021W        W26430  14.791  38.835   0.780
60022W        W26431   9.031   9.241  12.514
60023W        W26432  40.467  13.724  10.990
60024W        W26433  27.736  39.912  13.615
60025W        W26434   4.838  11.639  11.434
60026W        W26435   0.378  22.232  13.905
60027W        W26436   7.582   7.396  12.921
60028W        W26437  33.024  40.643  14.393
60029W        W26438  13.013   4.701  11.466
60030W        W26439  42.155  41.202  10.243
60031W        W26440  26.436  44.388  12.793
60032W        W26441   5.905  38.457  11.997
60033W        W26442  23.745  17.255  11.769
60034W        W26443  44.915  24.552  12.522
60035W        W26444   5.168  35.762   1.384
60036W        W26445  10.302  21.569   2.849
60037W        W26446   3.799   4.622   0.107
60038W        W26447  38.095   1.382   1.222
60039W        W26448  26.030  15.212  13.822
60040W        W26449  22.308  12.042  11.173
60041W        W26450  26.559  20.563   2.781
60042W        W26451   3.332   8.890  14.459
60043W        W26452  18.853   0.418   1.966
60044W        W26453  36.511  38.079   1.944
60045W        W26454  24.538  18.481  13.976
60046W        W26455   1.332  13.283  11.784
60047W        W26456   9.642  20.123   2.398
60048W        W26457  12.794  14.166  13.972
60049W        W26458   8.892  12.868  11.682
60050W        W26459  41.772  27.184  12.030
60051W        W26460  39.079  10.219  12.455
60052W        W26461  40.353  29.204  13.416
60053W        W26462  31.180  22.198  14.328
60054W        W26463  30.130  13.253   0.966
60055W        W26464   2.739  38.885   2.780
60056W        W26465  10.161   7.065   2.261
60057W        W26466   3.698  10.523  14.755
60058W        W26467   2.388   0.737   4.952
60059W        W26468  38.465  16.648   3.774
60060W        W26469  25.253  21.310  12.966
60061W        W26470  10.295  30.482  11.409
60062W        W26471  24.722  30.550   0.792
60063W        W26472  34.460  21.216  14.318
60064W        W26473   2.655  44.528  12.972
60065W        W26474   8.396   6.260  13.927
60066W        W26475  39.471   5.434   0.917
60067W        W26476  35.388  31.979  11.220
60068W        W26477  42.994   7.901  12.937
60069W        W26478  21.401  42.747   3.698
60070W        W26479  15.909   8.933  14.409
60071W        W26480  27.667  29.082   3.085
60072W        W26481  34.339  44.801  13.993
60073W        W26482   5.093   9.947  10.243
60074W        W26483  13.657  35.290   3.557
60075W        W26484  43.492  10.471   4.478
60076W        W26485  18.339  26.940   0.023
60077W        W26486  34.806  19.179   2.731
60078W        W26487  23.811  25.268   0.769
60079W        W26488  13.340  34.560  10.240
60080W        W26489  19.119  44.326   2.778
60081W        W26490   1.812  37.277  11.090
60082W        W26491   0.788  42.767  12.048
60083W        W26492  11.597  35.966   1.677
60084W        W26493   5.186  23.508   4.711
60085W        W26494  14.330  33.361  14.067
60086W        W26495  13.028  20.539   4.388
60087W        W26496  20.223  20.240   4.687
60088W        W26497  12.317  30.138   4.392
60089W        W26498  15.372  34.509  10.594
60090W        W26499  20.084   1.866   4.200
60091W        W26500  13.339   7.917  13.864
60092W        W26501  12.881  18.324  12.749
60093W        W26502  27.622  30.999  11.558
60094W        W26503  35.470  31.058   1.793
60095W        W26504  34.446  30.946  10.647
60096W        W26505  11.234  11.399   4.656
60097W        W26506  40.409  10.803  11.783
60098W        W26507   6.418  19.343   4.557
60099W        W26508  41.435   0.524   2.212
60100W        W26509  31.038  44.829  11.111
60101W        W26510  23.195  38.939  14.493
60102W        W26511   1.724  11.794  13.381
60103W        W26512  27.085  11.558  14.744
60104W        W26513  12.797  42.559   3.634
60105W        W26514  21.224  22.370   1.972
60106W        W26515  38.420  21.017   3.326
60107W        W26516  14.869  19.539  10.281
60108W        W26517  11.742  21.627   1.889
60109W        W26518  25.928  44.105  13.569
60110W        W26519   5.268  30.674   3.140
60111W        W26520   4.974  37.558  10.622
60112W        W26521  42.322   5.862   2.366
60113W        W26522   3.339   7.774   1.503
60114W        W26523  27.400  34.509   2.547
60115W        W26524   3.877  40.332  10.415
60116W        W26525  22.323  15.387   4.489
60117W        W26526   6.763  31.233  10.428
60118W        W26527  40.320  31.654  14.999
60119W        W26528   5.847  38.737  13.045
60120W        W26529  30.551  44.887  10.882
60121W        W26530   9.470  29.878  12.145
60122W        W26531  35.766  23.608   0.512
60123W        W26532  43.781   5.797  11.874
60124W        W26533  41.912  23.013   3.802
60125W        W26534  15.798  11.752   0.384
60126W        W26535  26.599  30.438  10.751
60127W        W26536  33.490   6.875  10.533
60128W        W26537   5.009  25.940  12.894
60129W        W26538  42.291  22.643  11.852
60130W        W26539  18.648  18.815  10.687
60131W        W26540  11.272  22.570   0.598
60132W        W26541  35.608   4.680   1.399
60133W        W26542  33.871  10.172  14.070
60134W        W26543  25.275  27.265   0.451
60135W        W26544  32.149  13.712   3.819
60136W        W26545  30.479  13.840   4.433
60137W        W26546  35.969  37.165   3.554
60138W        W26547   1.354  11.634  10.583
60139W        W26548  14.039  35.633   0.988
60140W        W26549  22.315  20.506  12.550
60141W        W26550   6.853  36.163   1.346
60142W        W26551  10.214   4.911   3.156
60143W        W26552  35.963  13.203   3.412
60144W        W26553  21.075  30.089  13.050
60145W        W26554   1.426  21.554   1.898
60146W        W26555  20.531  13.298   1.275
60147W        W26556  40.306   5.822  12.579
60148W        W26557  30.077  25.461  12.665
60149W        W26558  13.652  32.473  13.617
60150W        W26559  40.530  19.693  13.202
60151W        W26560  19.170  39.359   0.562
60152W        W26561  44.486  14.209  14.491
60153W        W26562  33.964  22.234  12.357
60154W        W26563   2.198  26.185  12.937
60155W        W26564  13.538  19.809   0.863
60156W        W26565  10.249  22.132   3.626
60157W        W26566  34.943  12.851  13.481
60158W        W26567  25.086  27.625  13.727
60159W        W26568  32.968  30.617   4.400
60160W        W26569  38.454  43.419   2.163
60161W        W26570  35.921  39.438   4.834
60162W        W26571  30.881  41.965   0.203
60163W        W26572  16.007  43.542   1.160
60164W        W26573  16.265  30.683  12.485
60165W        W26574  21.983  44.069  13.904
60166W        W26575  42.330  27.497  12.103
60167W        W26576  28.450  20.138  10.508
60168W        W26577   2.819   3.713   0.284
60169W        W26578  42.961  27.872  12.885
60170W        W26579   6.801  13.458   0.656
60171W        W26580  36.849  32.159   0.288
60172W        W26581  24.989   6.864  14.334
60173W        W26582  32.795  21.595  12.852
60174W        W26583  27.056  25.720  11.249
60175W        W26584  26.625   2.830  11.556
60176W        W26585  19.613   3.200   5.032
60177W        W26586  18.500  41.714  10.407
60178W        W26587  34.682   9.879   2.412
60179W        W26588   3.577   1.910  11.787
60180W        W26589   6.366  20.719  12.422
60181W        W26590   6.832  36.272   2.227
60182W        W26591  32.326  24.158  13.579
60183W        W26592  41.341  28.728   0.678
60184W        W26593  21.545  25.485   4.614
60185W        W26594   5.904  13.101  12.028
60186W        W26595  11.100   0.427  11.819
60187W        W26596  19.073   4.467  10.671
60188W        W26597  43.769  31.832   3.637
60189W        W26598  38.030  25.686   0.767
60190W        W26599   4.784  40.103  12.455
60191W        W26600  24.486   3.413  14.642
60192W        W26601  28.706  22.598   1.340
60193W        W26602  16.488  10.366  11.144
60194W        W26603   6.833  19.089   2.578
60195W        W26604   3.959  19.509  11.646
60196W        W26605   5.666  21.021   0.023
60197W        W26606   4.251  39.993  14.872
60198W        W26607   1.973  12.475  14.656
60199W        W26608   1.706  26.926  10.556
60200W        W26609  38.321  14.811   2.807
60201W        W26610  37.083  44.998  11.101
60202W        W26611   9.319  14.021   4.156
60203W        W26612  12.831  39.881  13.433
60204W        W26613  38.370   8.347   0.976
60205W        W26614   5.655  27.676  12.142
60206W        W26615  38.821   2.289   2.356
60207W        W26616  20.103  34.635   2.301
60208W        W26617  30.536  38.795  13.964
60209W        W26618   9.283  34.537  11.126
60210W        W26619   2.341  20.266   0.839
60211W        W26620  23.569  41.405  11.672
60212W        W26621  43.515   9.464  10.491
60213W        W26622   9.723  18.178   4.328
60214W        W26623  44.011  44.495   3.915
60215W        W26624   9.355  17.284   1.028
60216W        W26625  11.115  23.579  11.948
60217W        W26626  36.095  11.263  12.603
60218W        W26627  35.003  17.054  13.821
60219W        W26628  10.649  39.356  13.321
60220W        W26629  30.668  22.797   3.733
60221W        W26630  43.394   8.732  14.149
60222W        W26631  21.612  42.848  12.615
60223W        W26632  18.764  27.719  14.460
60224W        W26633  17.533  28.124  10.540
60225W        W26634   1.434  12.285   0.795
60226W        W26635  25.957  20.631  12.628
60227W        W26636  31.580  35.468   4.376
60228W        W26637  18.401  44.963   2.753
60229W        W26638  10.133   5.399   4.666
60230W        W26639  33.066  15.716  14.495
60231W        W26640  16.801   4.108  12.694
60232W        W26641  10.259  22.584  12.048
60233W        W26642  25.939  16.719  11.143
60234W        W26643  21.508  27.447  12.645
60235W        W26644  34.606   0.861   0.176
60236W        W26645  14.785  40.998   2.317
60237W        W26646  34.994  13.785  12.497
60238W        W26647  12.930  21.840   1.378
60239W        W26648  39.536  33.188  14.813
60240W        W26649  19.490   7.363   4.559
60241W        W26650  13.356   0.360   3.767
60242W        W26651  17.860  22.051   0.677
60243W        W26652  11.375  44.464   3.190
60244W        W26653  10.201  13.134  14.664
60245W        W26654  19.484  27.222   1.822
60246W        W26655  44.992  36.899   4.092
60247W        W26656  30.949  16.101   1.307
60248W        W26657  11.273  23.480   3.073
60249W        W26658   0.293   6.428   4.052
60250W        W26659  15.668  18.504   3.649
60251W        W26660  14.735   1.459  12.781
60252W        W26661  19.240  19.375   1.898
60253W        W26662   0.188  26.637  12.628
60254W        W26663  42.656  26.643  12.127
60255W        W26664   5.768   7.756   0.771
60256W        W26665  33.158  26.473   1.789
60257W        W26666  22.185  40.294  13.955
60258W        W26667  24.967  16.324   1.969
60259W        W26668  37.054  30.635   4.335
60260W        W26669  33.477  43.252  13.899
60261W        W26670  29.939  13.357   3.675
60262W        W26671   2.487  24.389   3.065
60263W        W26672  25.330  40.587   0.982
60264W        W26673  34.481  10.905  12.044
60265W        W26674  25.644  18.335   4.756
60266W        W26675  27.419   8.920   2.346
60267W        W26676  43.388  31.895  12.411
60268W        W26677  22.413  41.314  11.236
60269W        W26678  12.722   9.169   0.334
60270W        W26679  18.691  31.628  14.910
60271W        W26680   0.801  28.619  13.843
60272W        W26681  42.056  33.481   4.109
60273W        W26682  39.797  27.575   2.406
60274W        W26683  39.346  13.582   0.370
60275W        W26684  32.024   7.825  12.377
60276W        W26685  10.665  15.135   4.846
60277W        W26686   3.366   6.481   4.120
60278W        W26687  17.092  16.534  10.712
60279W        W26688  19.129  32.316  12.143
60280W        W26689  44.981  36.024  12.048
60281W        W26690  22.315  28.582   3.232
60282W        W26691   4.642  17.896   2.194
60283W        W26692  11.820  23.471   0.348
60284W        W26693  33.948  15.267   3.675
60285W        W26694   3.072  41.786   4.548
60286W        W26695  22.730   7.185   4.070
60287W        W26696   0.961  33.057   3.691
60288W        W26697   3.966   1.792   3.689
60289W        W26698  21.077   4.316   3.750
60290W        W26699   6.683  21.176  11.116
60291W        W26700  27.002  32.854   3.622
60292W        W26701  40.483  24.947  13.717
60293W        W26702  32.588  19.198  10.816
60294W        W26703  34.292  34.145   4.168
60295W        W26704  19.922  42.039  12.032
60296W        W26705  10.972   5.160  12.123
60297W        W26706  19.674  23.026  13.451
60298W        W26707  20.711   6.081   1.924
60299W        W26708  36.965  41.002  10.792
60300W        W26709  21.008   5.223   1.925
60301W        W26710   4.640  36.638  13.489
60302W        W26711  44.010  19.966   2.299
60303W        W26712  15.557  14.833   4.023
60304W        W26713  38.881  14.394  11.513
60305W        W26714  10.927  24.737   4.952
60306W        W26715   3.796  10.686   1.328
60307W        W26716   0.632  24.118  13.897
60308W        W26717  14.768  11.758  12.464
60309W        W26718  35.359  27.670  12.057
60310W        W26719  15.136  31.071  11.978
60311W        W26720   9.364  40.367   3.187
60312W        W26721  33.110   0.808   1.530
60313W        W26722  16.110  26.542  10.946
60314W        W26723   7.010  24.145  14.426
60315W        W26724  42.542  42.945  12.976
60316W        W26725  42.353   8.986   1.392
60317W        W26726  19.626  28.211  12.637
60318W        W26727   0.343   7.347   2.437
60319W        W26728  18.206  10.668  12.029
60320W        W26729  42.836  27.949  14.840
60321W        W26730  21.307  34.142   2.388
60322W        W26731   3.247  32.530  10.823
60323W        W26732   0.324  31.446   4.864
60324W        W26733  31.482  44.417   2.182
60325W        W26734   3.825  40.317   2.799
60326W        W26735  34.029  30.916   2.219
60327W        W26736   8.847   5.844   2.828
60328W        W26737  17.581  38.358   3.290
60329W        W26738  22.552  27.201  13.143
60330W        W26739  30.548  15.863  13.093
60331W        W26740  42.005  28.385   2.650
60332W        W26741  24.452  23.570   1.083
60333W        W26742  18.669  35.141  11.594
60334W        W26743  44.986  21.650   2.782
60335W        W26744  43.633  30.371   0.927
60336W        W26745  31.618  27.259   3.416
60337W        W26746  33.599  26.519  14.495
60338W        W26747  27.238  26.291  13.992
60339W        W26748  13.812  16.673  14.061
60340W        W26749  39.304  39.635   4.825
60341W        W26750  36.899  39.046  12.119
60342W        W26751  42.899  36.420   2.683
60343W        W26752  27.616  20.400   3.570
60344W        W26753  27.701  22.491  11.005
60345W        W26754   0.817  35.859  11.547
60346W        W26755  25.651  12.886  13.951
60347W        W26756  27.498   3.273   2.717
60348W        W26757   1.063   8.886   3.139
60349W        W26758  40.703  32.527   1.223
60350W        W26759  29.458   7.400   0.788
60351W        W26760  34.378  30.990   4.738
60352W        W26761  22.677   1.370  11.423
60353W        W26762  28.092  26.196  11.944
60354W        W26763   6.496  38.775  11.214
60355W        W26764  29.198  40.154  12.398
60356W        W26765  26.529  25.294  12.313
60357W        W26766  34.923   4.317   4.339
60358W        W26767   8.472   3.165   3.750
60359W        W26768   1.115   2.635   3.429
60360W        W26769  39.076   7.310   4.643
60361W        W26770  42.433  16.544   3.555
60362W        W26771  35.004  16.726   0.959
60363W        W26772  33.892  40.414   4.879
60364W        W26773  44.400  27.006   1.886
60365W        W26774  28.349  24.666   3.996
60366W        W26775  32.626  43.906  13.703
60367W        W26776  43.812  34.101  11.934
60368W        W26777  32.913   5.659   3.731
60369W        W26778  27.998  31.423   2.687
60370W        W26779  10.829  36.141  14.478
60371W        W26780  16.975  29.663   4.629
60372W        W26781   6.689  43.481   2.762
60373W        W26782  35.540   5.552   2.359
60374W        W26783  26.746  41.875   0.337
60375W        W26784  16.646  38.338  12.914
60376W        W26785  13.078  17.134   3.249
60377W        W26786  39.796  42.766  12.959
60378W        W26787  31.384   5.261  12.096
60379W        W26788  23.015  24.617  13.753
60380W        W26789  29.994  17.172  11.663
60381W        W26790  21.001  28.663   1.149
60382W        W26791   6.652  41.450  12.497
60383W        W26792   4.788  36.398  13.919
60384W        W26793  18.066   4.844   4.034
60385W        W26794  27.416  33.657   3.797
60386W        W26795   7.382   3.228  12.748
60387W        W26796  27.087  35.966   0.814
60388W        W26797  21.514   7.269  13.531
60389W        W26798  11.625  35.324   0.434
60390W        W26799  34.184  32.406   1.679
60391W        W26800  35.857   3.379   3.890
60392W        W26801  43.433  22.259   4.537
60393W        W26802   0.461  27.562   0.895
60394W        W26803  20.673  32.566  12.872
60395W        W26804  37.599   6.210  14.350
60396W        W26805  40.784  14.327  14.394
60397W        W26806   1.581  44.509  11.226
60398W        W26807   3.003   3.338   2.593
60399W        W26808  28.539  37.062   3.312
60400W        W26809  11.673   5.376  14.277
60401W        W26810  20.363  23.575  12.582
60402W        W26811  19.474  26.451  14.814
60403W        W26812   6.908   3.263   1.847
60404W        W26813  37.957  42.953   2.712
60405W        W26814   2.378  40.938  12.541
60406W        W26815   8.349  24.052  11.629
60407W        W26816  22.019  18.572  12.832
60408W        W26817   0.359  21.232   3.705
60409W        W26818  43.725  17.076   1.187
60410W        W26819  19.222   0.846   2.667
60411W        W26820  22.769  32.545   4.907
60412W        W26821  24.046  35.274  14.308
60413W        W26822  27.079   6.107  13.307
60414W        W26823  13.693  28.889   1.216
60415W        W26824  36.408   5.338  13.451
60416W        W26825  44.498  20.588  13.788
60417W        W26826  19.965  38.448  10.869
60418W        W26827  13.873  37.548   1.585
60419W        W26828  41.193  34.909  14.309
60420W        W26829  26.339  20.181  14.343
60421W        W26830   9.562  36.831   3.563
60422W        W26831   9.260  40.595   1.712
60423W        W26832   5.697  38.862  11.714
60424W        W26833   7.394  19.135   0.445
60425W        W26834  15.395  18.822   0.430
60426W        W26835  38.151  16.071  10.156
60427W        W26836  30.165  43.051   2.220
60428W        W26837  25.243  18.131  11.504
60429W        W26838  15.404  16.069   4.400
60430W        W26839  30.617  40.773  13.015
60431W        W26840  31.684  33.856  14.934
60432W        W26841  13.131  22.463  12.529
60433W        W26842  27.064   5.208  10.461
60434W        W26843  36.819  29.706  13.093
60435W        W26844  30.885  35.139   3.737
60436W        W26845  39.325  22.661   2.512
60437W        W26846  30.073   8.391  13.291
60438W        W26847  30.697  18.616   1.400
60439W        W26848   3.725  19.747  14.906
60440W        W26849   4.377  38.812   2.452
60441W        W26850  29.348  42.398  13.770
60442W        W26851  31.922  32.466   5.091
60443W        W26852  34.525  27.699   1.945
60444W        W26853  35.057  30.984  11.198
60445W        W26854   2.708   9.706  13.472
60446W        W26855  21.739  33.922   1.008
60447W        W26856   3.490  26.575  10.214
60448W        W26857  40.382  30.987  10.676
60449W        W26858  29.962   5.670   0.905
60450W        W26859  39.726  36.072  11.555
60451W        W26860   0.973  26.669   0.681
60452W        W26861   0.437  23.545  12.648
60453W        W26862  22.174   0.285   0.919
60454W        W26863  25.538  25.220  11.009
60455W        W26864   5.898   1.211   2.883
60456W        W26865  22.089  19.429  13.027
60457W        W26866  14.151   1.697  11.421
60458W        W26867   7.258  25.116  11.999
60459W        W26868   3.205   5.010   3.363
60460W        W26869  27.245   3.178   3.812
60461W        W26870  31.682   3.378  13.396
60462W        W26871  39.995  21.515  12.358
60463W        W26872  35.433  11.357  11.442
60464W        W26873  17.707  34.990   4.621
60465W        W26874  36.111  32.613   3.858
60466W        W26875  34.834   1.333   0.916
60467W        W26876   1.207  16.925   0.918
60468W        W26877  16.607  35.747   2.683
60469W        W26878  32.151  36.608   1.653
60470W        W26879   9.362  43.820   0.296
60471W        W26880  35.791  41.630   3.321
60472W        W26881   3.002   0.127   0.239
60473W        W26882  37.499   6.782  12.559
60474W        W26883  13.006  19.882   0.816
60475W        W26884  25.466  30.055  11.525
60476W        W26885  21.196  10.906  13.502
60477W        W26886  19.733  24.525   3.325
60478W        W26887  40.499  32.155   5.016
60479W        W26888  34.481   1.399  10.297
60480W        W26889   8.473  28.918   3.860
60481W        W26890  31.465  43.782   3.799
60482W        W26891  32.112  41.363   3.240
60483W        W26892  37.586  33.777   2.275
60484W        W26893  20.752  40.875   2.008
60485W        W26894  37.287  14.305   4.286
60486W        W26895  32.331  33.876  14.110
60487W        W26896  33.021   6.430  13.862
60488W        W26897   7.221  40.563  11.124
60489W        W26898  27.515   5.264   4.698
60490W        W26899  12.410  26.735  13.786
60491W        W26900   1.018  21.563   1.279
60492W        W26901  24.837  43.379   3.683
60493W        W26902   8.712  25.945   1.454
60494W        W26903  37.600  44.582  13.999
60495W        W26904  44.862  18.623  11.952
60496W        W26905  36.649   8.305  11.354
60497W        W26906  32.115  27.071   3.244
60498W        W26907   6.170  21.865   3.870
60499W        W26908  21.038  25.696  11.160
60500W        W26909  22.130  16.517   3.782
60501W        W26910  12.107  22.179   3.419
60502W        W26911   8.642  28.926  11.975
60503W        W26912  22.808   0.213   1.737
60504W        W26913  33.337   1.787  11.733
60505W        W26914   2.274  41.841   0.387
60506W        W26915  26.327   4.053   4.199
60507W        W26916  33.841  20.496  13.095
60508W        W26917   7.826  18.209  11.466
60509W        W26918   4.552  26.707   1.248
60510W        W26919  35.942  27.596   3.745
60511W        W26920   2.187  24.257   2.652
60512W        W26921  28.532  40.471   2.855
60513W        W26922   0.615  31.161  14.489
60514W        W26923  38.871  31.533   1.478
60515W        W26924  28.935  27.009  11.461
60516W        W26925  26.069  35.295   4.658
60517W        W26926  41.353  25.719   3.679
60518W        W26927  30.176   2.531   2.709
60519W        W26928  42.914  22.497   0.728
60520W        W26929  12.552  42.873  14.952
60521W        W26930   5.820  10.771  12.547
60522W        W26931  40.909  37.524   1.324
60523W        W26932  24.691  36.512   4.584
60524W        W26933   6.443  24.221  14.411
60525W        W26934  11.946   0.395  12.910
60526W        W26935  41.067  39.121  14.413
60527W        W26936  38.336  15.322  11.490
60528W        W26937  22.977  22.833  12.494
60529W        W26938  33.302  38.311   1.362
60530W        W26939  42.570  41.914  11.913
60531W        W26940  40.374  21.724   4.468
60532W        W26941   6.234   3.292   3.181
60533W        W26942  18.332  37.368   0.272
60534W        W26943  22.455  35.019   1.604
60535W        W26944  24.980   8.229  11.026
60536W        W26945  17.063  37.839   1.747
60537W        W26946  22.224  37.005  13.695
60538W        W26947  28.116   8.926  11.926
60539W        W26948  19.840  10.867   2.284
60540W        W26949  22.454  31.734   2.724
60541W        W26950  25.611  31.661  10.901
60542W        W26951   6.701  40.923  12.512
60543W        W26952  37.050  18.843  11.475
60544W        W26953   1.204   8.477   2.262
60545W        W26954  11.310  42.923   2.615
60546W        W26955  10.722   6.828  14.628
60547W        W26956  12.704  25.114   2.659
60548W        W26957  17.024  34.613  12.138
60549W        W26958  10.766  10.628  14.720
60550W        W26959  38.446  42.972  11.186
60551W        W26960  28.570  34.911  10.734
60552W        W26961   7.714  44.923   2.284
60553W        W26962   6.688  37.086   1.863
60554W        W26963  30.200  35.745   3.240
60555W        W26964  14.680  33.040  11.396
60556W        W26965  32.317  23.057   2.837
60557W        W26966   3.308  29.328   4.121
60558W        W26967  24.076   4.814  13.432
60559W        W26968  15.228  38.363   1.713
60560W        W26969  25.888  29.391   1.403
60561W        W26970   3.595   3.603  12.470
60562W        W26971   6.222  24.053   1.384
60563W        W26972  36.763  20.605  11.157
60564W        W26973  40.167  21.261   3.674
60565W        W26974  20.055   8.384  13.428
60566W        W26975  36.862  32.120  14.376
60567W        W26976  34.958  16.321  12.505
60568W        W26977  32.858  22.101  10.701
60569W        W26978  20.944   4.390   1.108
60570W        W26979  12.330  17.217  13.401
60571W        W26980  34.001  26.665   1.638
60572W        W26981  19.243   2.663  12.262
60573W        W26982  33.237  21.335  13.762
60574W        W26983  17.629  22.105   4.065
60575W        W26984  19.981   8.787  14.975
60576W        W26985  35.999  31.485  14.402
60577W        W26986   4.863  22.408  11.474
60578W        W26987   5.228   5.594  14.795
60579W        W26988  41.018  37.970   0.841
60580W        W26989  44.770  20.481  12.076
60581W        W26990  12.642   9.466  10.492
60582W        W26991  35.631   2.465  13.867
60583W        W26992  37.308   8.352   0.975
60584W        W26993  13.208  41.327   4.073
60585W        W26994  15.267  38.057   3.286
60586W        W26995   2.721   0.500  11.950
60587W        W26996  21.407   3.447   0.312
60588W        W26997  21.129  41.880   2.518
60589W        W26998  10.905  38.355   2.027
60590W        W26999   0.463  17.691   0.318
60591W        W27000   3.456  11.310  12.164
60592W        W27001  26.523   7.226   0.879
60593W        W27002   1.490   7.725  11.829
60594W        W27003  24.440  20.481   3.320
60595W        W27004   2.808   3.962  14.843
60596W        W27005  26.600  15.636   1.149
60597W        W27006  11.098  42.457   0.419
60598W        W27007  16.046  34.120   3.253
60599W        W27008  32.359  23.946  14.072
60600W        W27009  14.263  31.571  10.673
60601W        W27010  44.593  16.664   5.050
60602W        W27011  12.621   2.938   2.585
60603W        W27012  14.189  29.476   3.969
60604W        W27013  22.759  22.072   3.935
60605W        W27014   6.258   4.723   1.032
60606W        W27015  27.951  33.247   0.960
60607W        W27016   4.181   7.798   3.182
60608W        W27017   3.736  38.410  11.489
60609W        W27018  19.666  21.711   1.879
60610W        W27019  30.402  42.557   3.284
60611W        W27020   4.105   3.674  12.490
60612W        W27021   4.435  36.008  12.919
60613W        W27022  42.870   6.186   0.525
60614W        W27023   6.680  21.055   2.390
60615W        W27024   0.907  17.402   0.358
60616W        W27025  39.297  37.653   2.716
60617W        W27026  35.419   6.366   1.187
60618W        W27027  12.165  26.680   2.297
60619W        W27028   5.775  16.381   1.768
60620W        W27029  30.881  42.554  14.853
60621W        W27030   3.875  37.487  14.805
60622W        W27031   1.863  37.792  11.852
60623W        W27032  14.149  24.293   3.693
60624W        W27033  21.272  28.682   3.188
60625W        W27034   6.287  20.139  14.396
60626W        W27035   7.701  27.201   3.616
60627W        W27036  36.967   9.762  14.588
60628W        W27037  44.901  43.033  12.606
60629W        W27038  29.971  20.129  11.657
60630W        W27039  10.273   1.003  12.179
60631W        W27040  33.647  42.594  14.291
60632W        W27041   7.675  33.362   3.644
60633W        W27042  34.177  37.044   3.383
60634W        W27043  29.813  23.325  10.654
60635W        W27044  31.035  43.594   1.754
60636W        W27045  24.240  12.704  13.757
60637W        W27046  12.198  40.096  14.194
60638W        W27047   0.806  25.052  12.938
60639W        W27048  19.939  36.317  13.831
60640W        W27049  19.075   2.785  12.734
60641W        W27050  27.270  21.098   2.772
60642W        W27051   9.895  35.611   3.780
60643W        W27052  36.494  34.694  11.538
60644W        W27053   0.629  40.951   3.907
60645W        W27054  10.295  20.869  10.542
60646W        W27055  15.250  25.684  10.729
60647W        W27056  44.764   8.779   4.558
60648W        W27057  18.213  28.487   4.158
60649W        W27058  26.627  22.673   3.856
60650W        W27059  35.553  16.277  10.362
60651W        W27060  43.445  20.633  12.781
60652W        W27061  44.854  34.670  10.826
60653W        W27062   2.903  24.531  12.916
60654W        W27063  40.797  23.766  13.103
60655W        W27064  25.949   7.399  12.953
60656W        W27065  18.974   4.208  13.685
60657W        W27066  27.497  21.687  14.411
60658W        W27067  16.420  21.324   0.618
60659W        W27068  20.090   4.642  14.817
60660W        W27069   7.332  32.982   0.925
60661W        W27070  10.805  37.172   4.889
60662W        W27071   7.494  37.084  12.919
60663W        W27072  39.607  43.766  12.939
60664W        W27073  21.973  35.169   1.892
60665W        W27074  10.855  17.368   2.666
60666W        W27075  11.770   2.812   3.960
60667W        W27076  36.463  30.056  14.014
60668W        W27077  16.960  42.632   4.992
60669W        W27078   9.492  19.903  10.666
60670W        W27079  39.808  27.110  12.920
60671W        W27080  37.309  25.240   3.263
60672W        W27081  15.687  18.283   3.175
60673W        W27082  40.014   5.246  14.358
60674W        W27083  21.484  20.826   1.909
60675W        W27084  28.889  24.102  14.690
60676W        W27085  40.917  18.018  12.898
60677W        W27086   0.688  38.991  10.288
60678W        W27087   2.951  15.145   3.289
60679W        W27088  38.468  13.774   4.412
60680W        W27089  18.157   1.455   1.377
60681W        W27090  32.662   5.219   9.790
60682W        W27091  28.428  31.071  13.549
60683W        W27092   4.391  21.596   3.737
60684W        W27093  37.914  41.871   3.783
60685W        W27094  23.488  29.229   1.803
60686W        W27095   8.313   8.339  11.304
60687W        W27096  44.939  21.931  13.950
60688W        W27097   2.968  29.133  14.927
60689W        W27098  24.421   5.873   0.787
60690W        W27099  18.906  39.407   0.065
60691W        W27100  27.684  21.487  14.860
60692W        W27101  40.044  44.725   3.437
60693W        W27102  16.229  28.168  10.608
60694W        W27103  32.455  24.996  11.165
60695W        W27104  24.828  40.502  11.042
60696W        W27105  26.155  19.266  13.752
60697W        W27106  21.443  12.367   3.803
60698W        W27107  37.323  37.412   0.208
60699W        W27108  41.494  39.807  12.901
60700W        W27109  29.001   0.371   1.917
60701W        W27110  30.986   7.821  10.613
60702W        W27111   5.083  27.944   0.877
60703W        W27112  20.650  26.488  13.292
60704W        W27113  35.873  11.721  12.604
60705W        W27114   0.975  13.536   4.034
60706W        W27115  14.842  35.045  13.443
60707W        W27116  37.294  10.350   3.583
60708W        W27117  20.090  43.398   1.005
60709W        W27118  19.340  23.581  14.880
60710W        W27119  13.742  26.562   1.694
60711W        W27120  30.485  43.789  12.357
60712W        W27121  18.257  21.620   9.930
60713W        W27122  23.501   4.234  12.598
60714W        W27123  16.564  40.944  10.724
60715W        W27124  39.057  32.788   3.793
60716W        W27125  17.580  22.627   3.791
60717W        W27126  23.540  17.629   4.065
60718W        W27127   7.701  34.898   0.810
60719W        W27128  27.072   8.299  11.685
60720W        W27129  20.140  40.928   4.474
60721W        W27130  39.784  15.273   0.029
60722W        W27131  42.938  12.378   0.968
60723W        W27132  41.337  26.175   0.413
60724W        W27133   2.432  14.705  14.904
60725W        W27134  38.816  20.466  14.346
60726W        W27135   3.743  11.810   0.657
60727W        W27136   9.110  16.809   2.740
60728W        W27137  41.408  42.355  10.921
60729W        W27138  11.073  11.360  10.569
60730W        W27139   1.264  31.652   1.906
60731W        W27140  36.317  20.255   3.141
60732W        W27141  32.606  30.838   4.924
60733W        W27142  34.389  12.593  12.362
60734W        W27143  20.450  16.135   3.213
60735W        W27144   7.709  39.490   0.185
60736W        W27145  32.807  44.168  10.953
60737W        W27146  39.870   5.922   1.685
60738W        W27147  22.737  12.359  13.381
60739W        W27148   9.653  19.467  12.042
60740W        W27149  14.735  23.575   1.316
60741W        W27150  17.084  36.600  11.074
60742W        W27151  19.242  20.525  12.970
60743W        W27152  14.603  33.402   3.789
60744W        W27153  26.487  24.181  13.049
60745W        W27154   0.351  14.586  11.912
60746W        W27155  36.586  10.957  10.613
60747W        W27156  31.196  14.261  14.296
60748W        W27157  13.686  14.781   4.104
60749W        W27158  44.949   8.466   3.653
60750W        W27159  43.242  44.814  12.640
60751W        W27160  20.239  14.534  12.455
60752W        W27161   6.611   6.823   3.767
60753W        W27162  33.876   4.835   3.217
60754W        W27163  37.331  38.376   3.686
60755W        W27164  33.485  34.798   4.127
60756W        W27165  35.957  25.741   3.595
60757W        W27166  31.907   5.422  10.806
60758W        W27167  17.747  44.562   4.053
60759W        W27168  40.530  30.125  11.082
60760W        W27169  11.201  11.790   1.315
60761W        W27170  26.108  43.958   4.661
60762W        W27171  37.822  27.860   1.127
60763W        W27172   4.203  40.866   2.303
60764W        W27173  13.995  17.530  11.042
60765W        W27174  25.507  40.419  12.429
60766W        W27175  17.728  25.680  12.939
60767W        W27176   3.082  42.560   4.051
60768W        W27177  20.201  36.659  12.563
60769W        W27178  10.659   9.433  11.627
60770W        W27179  20.178   5.935  14.615
60771W        W27180   0.998  24.095  10.540
60772W        W27181  20.687  36.994  11.422
60773W        W27182   9.543  10.264  10.696
60774W        W27183  15.540  43.510   1.370
60775W        W27184  26.436  17.389  11.003
60776W        W27185  22.015  18.132   3.385
60777W        W27186   9.708   7.850   3.892
60778W        W27187  40.864  41.489  12.467
60779W        W27188   3.522  29.716   1.314
60780W        W27189  21.092   4.421   2.853
60781W        W27190  15.993  25.047  12.991
60782W        W27191   2.984  15.361  14.439
60783W        W27192   2.142  22.061   4.631
60784W        W27193   2.097  42.975   0.508
60785W        W27194   5.728  39.432  12.538
60786W        W27195  27.451   4.881  14.388
60787W        W27196  43.801  28.683  11.095
60788W        W27197   3.262   2.268   2.814
60789W        W27198   4.849  16.291  12.350
60790W        W27199   5.449   4.985  12.064
60791W        W27200  17.188  30.204  10.627
60792W        W27201  10.740   1.776  12.963
60793W        W27202  24.853  20.347   2.195
60794W        W27203  23.982  38.095   2.335
60795W        W27204   3.687  15.107   3.855
60796W        W27205  10.137  36.564  12.362
60797W        W27206   0.713   3.416   4.160
60798W        W27207  38.534  35.499  14.972
60799W        W27208  12.970  29.572   2.472
60800W        W27209   0.516   4.280   2.194
60801W        W27210  22.978   3.659   2.026
60802W        W27211  11.357   2.962  13.167
60803W        W27212  26.951  37.586  12.940
60804W        W27213  20.057  24.200  14.834
60805W        W27214   2.404  16.713   4.685
60806W        W27215   7.211  11.879  11.497
60807W        W27216  28.954  37.803   4.024
60808W        W27217  35.635  41.948  12.133
60809W        W27218  36.332  19.868  12.861
60810W        W27219   5.495  39.343   0.205
60811W        W27220  44.906  23.082   0.487
60812W        W27221  24.183  29.750  12.877
60813W        W27222  41.182  30.051   2.356
60814W        W27223  32.648  20.854  14.194
60815W        W27224  40.393  32.232  10.570
60816W        W27225   0.458  24.682   0.421
60817W        W27226  14.130   7.427  14.246
60818W        W27227   9.698  41.279  12.326
60819W        W27228  10.937  16.623  13.465
60820W        W27229  28.514  34.062  14.662
60821W        W27230  31.081  25.075  11.486
60822W        W27231  43.997  35.634   1.669
60823W        W27232  11.593  17.159  11.492
60824W        W27233   3.358   1.979  10.302
60825W        W27234  12.668  23.230   0.717
60826W        W27235  28.047  36.355  11.321
60827W        W27236  17.676   1.277  12.140
60828W        W27237  34.692   0.434   1.727
60829W        W27238  39.492  37.982  12.377
60830W        W27239  43.335  27.537   1.942
60831W        W27240  33.857  40.934   2.400
60832W        W27241   6.861  38.618  14.616
60833W        W27242   7.654  39.516   3.275
60834W        W27243  18.017  37.529   4.918
60835W        W27244  40.584  40.026   2.266
60836W        W27245  17.664  18.472  11.623
60837W        W27246  13.683  30.171  12.878
60838W        W27247  18.733  42.638  12.053
60839W        W27248  11.757   9.567   1.440
60840W        W27249   3.410  33.801  11.181
60841W        W27250   5.763   0.050  13.085
60842W        W27251  17.197  30.191   2.248
60843W        W27252  34.412   0.964   2.628
60844W        W27253  40.058  33.421  14.234
60845W        W27254  25.613   1.027  13.084
60846W        W27255  14.336   8.599   3.422
60847W        W27256  31.885  26.532   2.340
60848W        W27257  18.498  29.725   0.652
60849W        W27258  42.077  35.016  11.904
60850W        W27259   5.271   5.870  14.354
60851W        W27260  20.072  17.625   3.042
60852W        W27261  10.007  16.673  14.722
60853W        W27262  37.338  32.006   1.487
60854W        W27263  25.891  13.976   1.184
60855W        W27264  13.118  43.034   0.691
60856W        W27265  27.920   7.152   3.237
60857W        W27266  19.744  15.669   4.916
60858W        W27267  12.401  18.286   1.309
60859W        W27268   1.032  33.382   0.427
60860W        W27269  26.522  30.631   0.241
60861W        W27270  36.738  43.244  14.897
60862W        W27271  37.153  18.812  12.330
60863W        W27272  23.596   9.380  10.665
60864W        W27273  32.188   7.366   4.107
60865W        W27274  30.691  39.945  11.745
60866W        W27275  32.151   1.224   2.994
60867W        W27276  43.975   7.173  13.366
60868W        W27277   9.978  22.258  10.621
60869W        W27278  39.399  37.752  11.929
60870W        W27279  21.763  39.737  12.208
60871W        W27280  20.609  37.031   4.640
60872W        W27281  36.461   8.163   4.651
60873W        W27282   2.788  39.778  14.907
60874W        W27283  35.149  10.241  14.711
60875W        W27284   8.349  24.286  12.081
60876W        W27285  19.682   7.654  13.449
60877W        W27286  33.387  32.013   2.025
60878W        W27287   6.627  41.539   0.859
60879W        W27288  31.854  35.340  11.208
60880W        W27289  26.179  24.995  13.105
60881W        W27290  12.384   0.633   3.968
60882W        W27291  35.575   4.772   9.897
60883W        W27292  14.900  41.884  14.819
60884W        W27293  12.823  12.701  10.750
60885W        W27294  31.694  37.378   4.635
60886W        W27295  17.772  13.834  12.561
60887W        W27296  43.326  12.051   2.001
60888W        W27297  27.205  38.804   0.980
60889W        W27298  27.094  36.126   2.895
60890W        W27299  16.749  39.915   0.450
60891W        W27300   2.282  44.279   1.645
60892W        W27301   1.247  44.873   1.894
60893W        W27302  33.038  36.028  13.779
60894W        W27303   9.862  24.594   1.364
60895W        W27304  41.051  24.292   1.300
60896W        W27305  26.579  17.031   4.636
60897W        W27306  22.711  15.763   4.679
60898W        W27307  11.320  27.596  12.091
60899W        W27308  19.702  44.814  13.855
60900W        W27309  27.839  37.507  10.644
60901W        W27310  16.536   5.991   0.780
60902W        W27311  14.366  39.426   3.111
60903W        W27312   7.042  11.386   4.107
60904W        W27313   1.844  27.155  14.921
60905W        W27314  39.385  21.979   4.729
60906W        W27315  35.783  13.696  14.884
60907W        W27316  10.266   2.759   2.252
60908W        W27317   8.305  23.013  10.733
60909W        W27318  26.865  42.143   4.974
60910W        W27319   8.585  21.767  10.159
60911W        W27320  22.781  33.645  12.025
60912W        W27321  39.745  42.554  11.603
60913W        W27322   1.280  39.968  13.465
60914W        W27323  40.259  31.507  14.006
60915W        W27324  18.889  35.830  12.984
60916W        W27325  10.196  37.301   4.167
60917W        W27326  28.250   2.256   3.185
60918W        W27327  25.759  30.087  13.905
60919W        W27328  34.389  29.228  12.053
60920W        W27329  23.282  13.235  11.871
60921W        W27330  14.800  34.983   5.074
60922W        W27331  29.668  22.449  13.433
60923W        W27332  41.351  20.006   2.765
60924W        W27333   7.432   2.765   3.188
60925W        W27334  14.860  23.509  11.608
60926W        W27335  44.506  39.065  10.105
60927W        W27336   9.325  15.257   4.803
60928W        W27337  29.028  35.657  14.581
60929W        W27338  12.143  28.829   1.189
60930W        W27339  24.159  33.363  11.003
60931W        W27340  10.322  39.359   0.752
60932W        W27341  36.562  31.871  13.537
60933W        W27342  12.785  38.622   3.596
60934W        W27343  39.175  13.909  10.693
60935W        W27344  37.881   4.174   3.599
60936W        W27345  16.186  15.231   1.134
60937W        W27346  23.179  24.980   2.776
60938W        W27347  31.922  38.892  13.964
60939W        W27348  20.698  27.685   1.888
60940W        W27349  10.775  35.420  13.936
60941W        W27350  20.198   7.623   4.730
60942W        W27351  39.044   2.505  12.454
60943W        W27352  18.091  38.033  11.597
60944W        W27353  34.498  15.527  11.090
60945W        W27354  21.259   4.800   0.233
60946W        W27355  35.491  25.126   0.296
60947W        W27356   5.919  41.955  13.302
60948W        W27357  32.558  33.863   2.011
60949W        W27358  14.427   0.147  12.476
60950W        W27359  29.873  44.426  11.838
60951W        W27360  44.333   8.913   0.475
60952W        W27361  29.081  20.004   2.901
60953W        W27362  12.847  35.974   1.345
60954W        W27363   8.761  32.585   1.290
60955W        W27364  32.060  10.443  13.991
60956W        W27365  37.526  17.686  14.253
60957W        W27366  35.534  25.488  10.722
60958W        W27367  41.977   0.227  12.019
60959W        W27368  20.213  30.938   1.293
60960W        W27369  38.579   2.844   3.709
60961W        W27370   3.627  12.094  13.482
60962W        W27371  16.833  30.192  13.920
60963W        W27372   9.836  37.673  14.054
60964W        W27373  34.125   7.840  13.035
60965W        W27374  26.143  25.124   4.600
60966W        W27375  41.037  41.326  14.498
60967W        W27376  24.795  32.398   2.247
60968W        W27377  21.529  18.148   3.553
60969W        W27378  33.394  35.049   3.099
60970W        W27379   9.264  21.653  12.824
60971W        W27380  27.840  13.603   9.938
60972W        W27381  43.349  36.945   4.871
60973W        W27382  36.952   1.558  14.599
60974W        W27383  23.595  26.378  11.562
60975W        W27384  23.164  30.170  11.632
60976W        W27385  12.403  26.616  12.385
60977W        W27386   9.321  39.947  12.168
60978W        W27387  24.245  21.551   3.830
60979W        W27388  16.593  10.676  13.757
60980W        W27389  44.578  15.982   0.445
60981W        W27390   6.292  25.187   3.503
60982W        W27391  22.569  30.100   1.327
60983W        W27392  12.620  32.639   9.812
60984W        W27393  23.059  22.326   3.601
60985W        W27394  26.918  29.216   0.544
60986W        W27395  20.619  36.027  11.000
60987W        W27396  14.093   8.880  13.678
60988W        W27397  35.948  22.642   1.169
60989W        W27398   6.789  13.040   3.683
60990W        W27399  32.989  20.634   4.326
60991W        W27400  43.313  44.731  12.116
60992W        W27401  38.219  22.856  13.339
60993W        W27402   9.709  33.050  14.377
60994W        W27403  32.961  38.146   2.881
60995W        W27404  16.341  32.644   2.887
60996W        W27405  34.662  41.440   4.955
60997W        W27406  43.650  36.336  13.969
60998W        W27407  42.096  25.397  13.552
60999W        W27408   1.496  26.667   2.258
61000W        W27409  11.510  33.605   2.141
61001W        W27410  40.377  25.390  11.249
61002W        W27411  40.194   6.561   4.156
61003W        W27412  11.283   3.273  12.403
61004W        W27413  11.060  44.798   4.649
61005W        W27414  27.205   0.916   4.715
61006W        W27415  42.767  31.887   3.766
61007W        W27416   3.384  23.960   4.940
61008W        W27417  16.811  35.418   1.702
61009W        W27418  43.367  35.705   2.386
61010W        W27419  11.930  30.342   2.133
61011W        W27420  31.130   7.820  12.979
61012W        W27421  42.255  34.813   4.376
61013W        W27422   3.978  33.425  13.429
61014W        W27423   6.993  35.679  10.707
61015W        W27424  33.020  42.503  13.558
61016W        W27425  35.058  25.700  13.369
61017W        W27426  31.966  18.835  11.004
61018W        W27427  27.654   1.799   2.258
61019W        W27428  14.823  34.000  13.464
61020W        W27429  19.696  42.958  14.972
61021W        W27430  31.939   1.060  10.199
61022W        W27431  42.253   4.941   0.901
61023W        W27432  36.376  30.071   2.199
61024W        W27433  11.338  29.815   0.930
61025W        W27434  31.065  19.600  13.835
61026W        W27435  23.558  38.038   0.442
61027W        W27436  28.262  34.332   3.660
61028W        W27437  20.674  35.101   0.784
61029W        W27438  21.723  16.216  11.557
61030W        W27439  44.222   0.155   1.015
61031W        W27440  24.431   6.649   2.410
61032W        W27441  36.785  39.020  11.117
61033W        W27442  25.353   0.986  10.836
61034W        W27443   1.833  36.747  14.626
61035W        W27444  29.444   6.847   4.194
61036W        W27445  26.943  29.107   1.916
61037W        W27446  10.206   0.177  10.532
61038W        W27447  30.438  17.601   3.219
61039W        W27448  16.718  22.038   1.349
61040W        W27449  25.792  21.476  13.918
61041W        W27450   8.864  24.729   1.215
61042W        W27451  26.166  31.352   4.166
61043W        W27452  10.311  11.158   1.415
61044W        W27453   9.515  29.809  13.845
61045W        W27454   0.445   8.285   0.719
61046W        W27455  20.063   9.307   0.320
61047W        W27456  34.797  28.460   4.136
61048W        W27457  17.471  31.675  11.998
61049W        W27458  35.086   8.401   2.843
61050W        W27459   9.472  17.181  14.470
61051W        W27460  27.509  26.943   4.644
61052W        W27461  36.790  15.100  14.807
61053W        W27462   3.255   2.483   1.245
61054W        W27463  19.521  21.098  11.453
61055W        W27464  28.002  43.390  13.937
61056W        W27465  23.330  27.736  11.180
61057W        W27466  32.895   4.941  10.185
61058W        W27467  41.170  40.883  12.843
61059W        W27468  29.528  40.978  10.904
61060W        W27469  18.592  40.271  12.811
61061W        W27470  35.346  33.936  11.195
61062W        W27471  20.518  37.872  11.978
61063W        W27472   4.865  22.133  12.313
61064W        W27473  22.795  25.059   1.872
61065W        W27474  44.815  18.983   1.659
61066W        W27475  27.483  27.609   3.425
61067W        W27476  39.976  16.273   0.837
61068W        W27477  22.562   4.466  11.197
61069W        W27478  34.297  40.068   2.776
61070W        W27479  28.119   0.172  11.981
61071W        W27480  39.980  12.720  14.157
61072W        W27481  35.126  29.012   1.678
61073W        W27482  18.548  42.282   1.593
61074W        W27483   1.646   0.689   1.451
61075W        W27484  26.310   4.533   2.282
61076W        W27485  42.638  27.616  11.611
61077W        W27486   4.369  30.167   2.367
61078W        W27487   2.206  31.683   4.743
61079W        W27488  31.830  15.389  12.121
61080W        W27489  32.606  33.415  14.808
61081W        W27490  15.818  17.741  11.900
61082W        W27491  29.915  18.994   2.759
61083W        W27492  20.808  12.911  14.914
61084W        W27493  40.723  32.842  13.909
61085W        W27494  13.190  44.531   2.744
61086W        W27495   5.882  32.394  14.437
61087W        W27496  42.530  39.955   2.628
61088W        W27497  40.698  21.532   1.399
61089W        W27498  35.392  16.885  12.999
61090W        W27499  34.571  25.957   4.010
61091W        W27500  31.490  20.578  11.176
61092W        W27501  42.994  21.026  12.025
61093W        W27502  11.501  41.656   4.153
61094W        W27503  40.822  14.240   2.259
61095W        W27504   4.292  18.038   1.826
61096W        W27505  16.950  17.855   2.799
61097W        W27506  15.131  22.822  13.053
61098W        W27507  44.506   2.725  14.762
61099W        W27508   2.063  20.054  13.823
61100W        W27509   5.783  21.291   4.690
61101W        W27510  13.633  40.966   2.530
61102W        W27511  36.447  18.039  12.383
61103W        W27512  20.306  19.458  14.568
61104W        W27513  18.687  40.335   4.700
61105W        W27514  35.865  17.057  13.826
61106W        W27515  10.894  14.283   3.437
61107W        W27516  32.317  29.670  14.732
61108W        W27517  39.307   8.833  10.317
61109W        W27518  18.767  40.009   3.595
61110W        W27519   6.977   5.405  14.254
61111W        W27520   8.256  27.483  14.187
61112W        W27521  39.048  38.121  12.103
61113W        W27522  35.568   5.837  11.856
61114W        W27523  13.867  16.266  10.976
61115W        W27524  31.104   5.321  12.533
61116W        W27525  26.790  10.706  10.452
61117W        W27526  43.036   2.474   4.323
61118W        W27527  19.379   7.858  12.014
61119W        W27528  38.262  23.247   3.372
61120W        W27529   6.752  32.089   1.722
61121W        W27530  24.341  16.547  13.411
61122W        W27531  16.219   5.494  12.097
61123W        W27532  29.900  14.457  10.725
61124W        W27533   7.613  13.572   4.572
61125W        W27534  30.598  41.795  13.877
61126W        W27535  43.448  27.647  14.514
61127W        W27536  39.814  44.851   0.563
61128W        W27537   1.888  26.210   4.063
61129W        W27538   5.539  20.576  13.791
61130W        W27539  43.395  24.905   5.094
61131W        W27540  31.173  31.459  14.953
61132W        W27541  34.409  12.236   3.422
61133W        W27542  15.770  15.316   4.802
61134W        W27543  40.864  42.024  12.488
61135W        W27544  15.515  30.677  13.864
61136W        W27545  11.792   7.860   0.953
61137W        W27546  12.753  43.729  10.714
61138W        W27547   6.761  35.671   1.258
61139W        W27548  36.558  17.536  12.477
61140W        W27549   4.045  39.017   3.287
61141W        W27550  25.119   9.182   0.459
61142W        W27551  26.283   4.630   4.140
61143W        W27552   7.485  22.034   1.356
61144W        W27553   6.557  18.837  14.380
61145W        W27554   8.718  27.312  12.425
61146W        W27555  20.300  37.041  13.895
61147W        W27556  34.982   3.878  14.745
61148W        W27557  15.718  25.920  13.893
61149W        W27558  33.666  11.087  11.854
61150W        W27559  30.102   3.522   3.879
61151W        W27560  24.414  43.270  11.459
61152W        W27561  43.318  25.421   3.314
61153W        W27562  24.492   0.955  13.957
61154W        W27563  19.305  28.106   0.265
61155W        W27564   1.924  26.152  13.818
61156W        W27565  31.884  24.707  14.909
61157W        W27566  40.469  43.676   0.983
61158W        W27567  33.988  17.041   3.646
61159W        W27568  37.111   5.228   3.811
61160W        W27569  11.877   6.379   2.210
61161W        W27570  17.687  43.495   1.899
61162W        W27571   2.339  20.974   2.357
61163W        W27572  39.686  13.131  12.951
61164W        W27573  19.959  30.757  14.802
61165W        W27574  28.066  41.771  10.698
61166W        W27575   6.356  38.577  14.372
61167W        W27576  34.077   0.229   3.731
61168W        W27577  32.322  41.274   4.139
61169W        W27578   1.630  11.572  14.704
61170W        W27579  28.386   5.519   1.278
61171W        W27580  34.032  18.020   2.657
61172W        W27581   2.916  11.831   1.688
61173W        W27582  21.259  38.106  13.926
61174W        W27583  19.536  43.110  11.009
61175W        W27584   9.303  10.404   4.195
61176W        W27585  22.971  31.490   4.804
61177W        W27586   7.291   0.937   3.620
61178W        W27587  28.082  33.778   9.764
61179W        W27588  12.339  36.178   1.294
61180W        W27589   4.299  25.406  13.121
61181W        W27590  11.107  15.657   4.927
61182W        W27591   0.175  27.852  11.541
61183W        W27592   2.464  10.671   3.639
61184W        W27593  39.836  31.564  14.829
61185W        W27594  34.472  29.656  14.087
61186W        W27595  35.163  37.865   3.287
61187W        W27596  11.276  13.206   2.204
61188W        W27597  11.411   4.558  14.317
61189W        W27598   6.259  34.395   4.561
61190W        W27599  16.520  43.681  13.015
61191W        W27600  35.814   6.691   1.868
61192W        W27601   3.703  44.967   0.980
61193W        W27602   4.373   0.650  12.998
61194W        W27603  29.164  42.891  13.876
61195W        W27604   7.375  21.573  14.766
61196W        W27605  19.263  21.446   0.761
61197W        W27606   3.585   1.830  13.074
61198W        W27607  19.118  26.241  14.443
61199W        W27608  14.053  15.240  12.365
61200W        W27609  26.520  44.802   4.707
61201W        W27610  44.122  21.204  14.320
61202W        W27611  13.647  36.371   0.510
61203W        W27612  29.699  35.674   2.353
61204W        W27613  24.049   5.247   2.722
61205W        W27614  24.540  44.862  11.936
61206W        W27615  31.897  35.003   3.721
61207W        W27616  17.792  21.445   2.902
61208W        W27617  44.331  32.770  10.822
61209W        W27618   8.960  37.539  12.478
61210W        W27619  24.221  35.894  10.804
61211W        W27620  23.041  27.526   3.405
61212W        W27621  26.014  38.081  12.364
61213W        W27622  15.374  14.738   1.208
61214W        W27623   0.908  22.089   1.272
61215W        W27624  12.822  44.271  11.426
61216W        W27625  14.261   6.423  10.642
61217W        W27626   5.626  28.587   4.697
61218W        W27627  44.434  26.280   4.036
61219W        W27628   0.562  44.746   0.826
61220W        W27629  30.566  27.225   3.674
61221W        W27630  22.221  35.947   2.205
61222W        W27631  40.469  16.159   3.536
61223W        W27632   7.435  25.047   0.308
61224W        W27633  39.073  25.606   1.844
61225W        W27634  37.138  41.849  11.592
61226W        W27635  44.299  39.095  14.910
61227W        W27636  23.371  23.672  10.224
61228W        W27637  20.799  28.998  11.293
61229W        W27638  31.203  22.082   0.344
61230W        W27639  13.493  43.240   0.393
61231W        W27640  43.357   0.410   2.712
61232W        W27641  21.123  39.495   1.511
61233W        W27642   6.003   3.160   2.741
61234W        W27643  18.349  14.676   1.325
61235W        W27644  18.881  32.609   0.743
61236W        W27645  12.505   7.204   4.687
61237W        W27646  40.324  34.806   2.335
61238W        W27647  18.139  11.800  13.854
61239W        W27648  30.119  18.454  11.192
61240W        W27649  31.421  10.948  10.842
61241W        W27650   9.843  22.728  13.897
61242W        W27651  28.470   6.232   0.560
61243W        W27652   5.711  12.165  12.962
61244W        W27653  33.493  41.464   1.996
61245W        W27654  16.108  33.348  10.567
61246W        W27655  22.915  11.132   3.118
61247W        W27656  36.426  39.308  10.914
61248W        W27657   3.174  38.804   3.027
61249W        W27658  40.450  32.109   1.957
61250W        W27659  13.779  29.531  14.557
61251W        W27660   8.199  38.304   4.175
61252W        W27661  28.726  22.486  13.965
61253W        W27662  18.006   1.225  12.945
61254W        W27663  15.714  17.528  14.490
61255W        W27664  41.756  32.311   9.991
61256W        W27665  36.818  34.021  11.083
61257W        W27666  26.410  26.098  14.342
61258W        W27667  10.941  36.611  14.288
61259W        W27668  39.948  20.179   4.562
61260W        W27669   2.921  21.727  13.846
61261W        W27670  19.806   4.611   1.752
61262W        W27671   6.446  12.728   4.647
61263W        W27672  43.464   9.616  14.321
61264W        W27673  35.746  22.802  11.429
61265W        W27674  33.384   4.023  13.779
61266W        W27675   6.378  24.510  14.834
61267W        W27676  21.147  15.261  12.999
61268W        W27677   5.708  12.736  14.414
61269W        W27678   5.523  19.858   0.115
61270W        W27679   0.377  32.067   3.099
61271W        W27680  18.981   8.480   0.823
61272W        W27681   0.924  25.920  11.609
61273W        W27682  43.750   4.862   1.284
61274W        W27683  27.602  21.612  10.982
61275W        W27684  33.060  17.958  14.733
61276W        W27685  42.430  14.241  11.179
61277W        W27686  17.348  12.234  12.989
61278W        W27687  23.721   3.672  14.311
61279W        W27688  20.794  22.363   2.782
61280W        W27689  10.650  16.084  13.556
61281W        W27690  11.809  19.354   5.323
61282W        W27691  26.662  39.624  14.863
61283W        W27692  23.493   0.035  13.561
61284W        W27693   8.764   8.766   2.199
61285W        W27694   8.030  25.925  11.569
61286W        W27695   0.004  25.281  11.945
61287W        W27696  41.150  31.613   5.133
61288W        W27697  18.329  14.165  11.231
61289W        W27698  42.317  24.005   2.938
61290W        W27699   1.893  27.571  10.629
61291W        W27700   9.159  19.136   2.387
61292W        W27701  40.554  36.155   2.248
61293W        W27702  13.228   0.258   2.221
61294W        W27703  18.204  14.045  13.807
61295W        W27704  31.591  30.992   3.748
61296W        W27705   3.605   1.402  11.076
61297W        W27706  23.635  24.619  11.113
61298W        W27707  15.585  13.441   0.099
61299W        W27708   8.939  30.063  11.284
61300W        W27709  24.776  18.838  11.155
61301W        W27710  24.835  27.115  12.574
61302W        W27711  40.782  31.564  11.974
61303W        W27712   6.235   2.254   3.909
61304W        W27713  10.353   7.632   3.192
61305W        W27714  33.320   1.427   2.731
61306W        W27715  22.700   2.256  14.193
61307W        W27716  25.793   5.551   3.094
61308W        W27717  10.585  12.886   2.841
61309W        W27718  12.745  14.660   1.131
61310W        W27719   1.931   6.449  13.162
61311W        W27720  30.585   4.965   2.479
61312W        W27721  40.321  23.663  13.818
61313W        W27722  27.433   0.348  14.927
61314W        W27723   9.322  42.899  12.954
61315W        W27724  38.907   7.825   4.702
61316W        W27725  35.055  43.965  11.128
61317W        W27726  10.402   8.186  11.992
61318W        W27727   4.915  42.489   3.316
61319W        W27728  15.734  18.611   5.263
61320W        W27729  33.097  29.003  10.585
61321W        W27730   7.932  30.455   3.676
61322W        W27731  32.893  23.146   3.314
61323W        W27732  31.793  26.599  10.661
61324W        W27733  16.156   9.419   0.967
61325W        W27734  39.606  22.711   1.085
61326W        W27735  43.237  25.702   1.264
61327W        W27736  22.492  42.083  13.030
61328W        W27737  16.183  25.499  10.608
61329W        W27738  28.976  22.993  11.876
61330W        W27739  40.346  15.289   3.281
61331W        W27740  33.344   7.740  10.914
61332W        W27741   5.235   1.833  13.798
61333W        W27742  26.063  15.158  12.803
61334W        W27743  22.158  23.271  14.181
61335W        W27744  21.129   4.238  12.494
61336W        W27745  40.409  20.764  10.555
61337W        W27746  17.726  40.753  12.679
61338W        W27747  23.649  27.151  14.875
61339W        W27748  15.325  22.521  12.494
61340W        W27749  36.366   3.662   1.358
61341W        W27750  14.714  14.576  14.751
61342W        W27751  27.679  20.924  13.845
61343W        W27752  17.561  15.264   0.912
61344W        W27753  43.569   1.989   1.322
61345W        W27754  41.230   8.576  11.164
61346W        W27755  42.403   8.929  12.494
61347W        W27756  40.799  14.340   0.847
61348W        W27757  11.952  19.331   3.872
61349W        W27758   2.245  10.897   2.784
61350W        W27759  34.521   7.398  11.910
61351W        W27760   6.016   5.870  12.225
61352W        W27761  23.490  22.777   1.712
61353W        W27762  25.609  22.539   2.060
61354W        W27763  33.081  41.566   3.196
61355W        W27764  17.552   1.223   2.713
61356W        W27765  23.728  40.853  12.115
61357W        W27766  28.912  35.582  12.063
61358W        W27767  12.065  21.272  13.313
61359W        W27768  40.662   3.483   1.878
61360W        W27769  17.525   6.218  11.804
61361W        W27770  28.245  21.124  12.139
61362W        W27771  15.106  23.048  11.615
61363W        W27772  37.782   4.751  14.365
61364W        W27773  26.027  25.975   4.908
61365W        W27774  43.047  11.651   1.854
61366W        W27775  29.716  36.710   2.129
61367W        W27776   2.722   7.700  13.595
61368W        W27777   9.438  32.412   3.897
61369W        W27778  20.511  22.940   1.215
61370W        W27779  43.453  24.422   3.248
61371W        W27780  21.765  33.871  11.021
61372W        W27781   5.856  37.013  14.971
61373W        W27782   7.245  39.970   1.821
61374W        W27783   5.900  19.171   4.554
61375W        W27784  29.454  35.770  11.862
61376W        W27785  39.928   2.104  14.706
61377W        W27786  41.796  36.067   0.722
61378W        W27787   3.692  40.527  14.249
61379W        W27788   9.654  29.650   3.326
61380W        W27789   6.404  25.718   3.506
61381W        W27790  23.103   4.746  14.290
61382W        W27791  10.884  27.896  11.462
61383W        W27792  37.235   2.959   4.113
61384W        W27793  26.155  11.933  10.682
61385W        W27794   1.216  40.084   0.291
61386W        W27795  34.189  24.647  14.469
61387W        W27796  26.698  33.539  11.342
61388W        W27797   8.159  12.641  13.594
61389W        W27798  30.617  40.846  14.816
61390W        W27799  22.048  15.145   3.669
61391W        W27800  34.687   5.916  11.904
61392W        W27801  40.421   7.699  13.602
61393W        W27802   0.421   3.459  14.749
61394W        W27803  34.457  36.106  12.627
61395W        W27804   1.850  14.582  13.607
61396W        W27805  17.069  27.484   2.827
61397W        W27806  24.246   1.323   4.770
61398W        W27807  44.425  28.229   1.542
61399W        W27808  14.782  26.056   3.915
61400W        W27809  36.872  10.709  14.303
61401W        W27810   2.719  17.211  12.554
61402W        W27811  16.786  14.868   2.252
61403W        W27812  24.549  19.518  13.974
61404W        W27813   7.953  42.571  11.156
61405W        W27814  30.140  43.958   2.476
61406W        W27815  37.380  23.614  10.334
61407W        W27816   8.322  19.354  14.953
61408W        W27817  44.912  17.572   1.422
61409W        W27818   0.015   2.423   2.424
61410W        W27819  14.674  41.034  14.522
61411W        W27820  39.166  15.126   5.228
61412W        W27821   2.972   6.987   0.947
61413W        W27822  22.325  15.600   1.668
61414W        W27823  33.472   3.181   1.394
61415W        W27824  27.899  18.779   4.095
61416W        W27825   9.658  21.543   1.350
61417W        W27826  44.343   3.893  14.526
61418W        W27827  26.407  16.274   1.928
61419W        W27828   4.107  13.192   1.722
61420W        W27829  36.278  26.493   2.859
61421W        W27830  31.423  31.719   2.340
61422W        W27831   2.381  15.060   0.287
61423W        W27832  39.893  26.915  14.514
61424W        W27833   6.133  44.773  12.811
61425W        W27834  26.027  13.055  14.904
61426W        W27835   3.478  15.124   3.361
61427W        W27836  36.791  15.687   4.710
61428W        W27837  12.198  24.267   4.294
61429W        W27838  42.696  18.977  12.633
61430W        W27839  34.867  36.055   4.221
61431W        W27840  25.539  21.987  11.611
61432W        W27841   0.516  18.166   4.293
61433W        W27842  28.976   5.892   1.797
61434W        W27843  11.388  43.375  13.569
61435W        W27844  44.834  11.859   3.794
61436W        W27845  41.078  21.293   2.178
61437W        W27846   5.259  31.392   4.540
61438W        W27847  37.506   9.674  10.720
61439W        W27848  38.151  10.317  13.233
61440W        W27849  40.774  25.941  14.492
61441W        W27850   8.086  13.161   3.654
61442W        W27851  34.088  27.156  12.085
61443W        W27852   8.127  25.073  14.733
61444W        W27853  12.353  41.432   4.176
61445W        W27854  11.073   8.225   3.686
61446W        W27855  42.350  22.825   3.203
61447W        W27856   0.927   2.844  13.397
61448W        W27857  12.088  11.353  14.384
61449W        W27858  12.885   9.460   4.484
61450W        W27859  24.118  39.306  12.083
61451W        W27860  15.260  41.614  12.466
61452W        W27861  10.879  11.142  12.160
61453W        W27862   2.373  42.768   3.248
61454W        W27863  28.765   7.369   2.935
61455W        W27864  29.321   6.511   2.329
61456W        W27865   8.668  29.876  12.574
61457W        W27866  42.327  36.035   3.898
61458W        W27867  12.161  34.163   4.066
61459W        W27868   2.241  13.242  13.943
61460W        W27869  40.791  44.303   0.836
61461W        W27870  17.169  23.840   2.789
61462W        W27871  23.244  12.371   1.796
61463W        W27872  41.481  19.053   1.377
61464W        W27873   4.844  28.878   2.266
61465W        W27874  28.930  27.697   2.090
61466W        W27875  29.636  13.611  12.075
61467W        W27876  31.522  44.864  13.601
61468W        W27877  40.149  21.441  11.878
61469W        W27878  27.349   3.701  14.871
61470W        W27879   9.893   4.423  10.719
61471W        W27880  30.477  28.143   0.773
61472W        W27881  14.397  38.008  12.814
61473W        W27882   5.818  22.915   5.421
61474W        W27883  42.945  10.707  11.033
61475W        W27884  27.176  11.831   2.698
61476W        W27885   1.300  20.195   4.154
61477W        W27886   4.387  30.315   4.743
61478W        W27887  22.797  39.981  12.038
61479W        W27888   6.077  20.279  12.465
61480W        W27889  18.617  27.591   3.978
61481W        W27890  25.693  22.814  13.018
61482W        W27891  30.320   1.242  11.105
61483W        W27892   3.496  17.309  11.261
61484W        W27893  21.976  42.818   4.160
61485W        W27894  35.998   9.532   3.716
61486W        W27895   9.751  12.794   2.866
61487W        W27896  28.174  27.522   4.106
61488W        W27897  16.993  17.362  14.999
61489W        W27898  43.888  20.728  13.075
61490W        W27899  26.761  36.328   4.458
61491W        W27900   0.381   1.344  10.763
61492W        W27901  13.757  28.876  12.399
61493W        W27902  23.807  23.512   0.441
61494W        W27903  18.744  29.822  13.371
61495W        W27904   0.300  15.844   1.661
61496W        W27905  44.205  41.051  14.259
61497W        W27906  41.743  27.825   3.499
61498W        W27907  25.937  16.073   1.896
61499W        W27908  30.623  41.094  14.373
61500W        W27909  12.555  33.104   1.870
61501W        W27910  18.517  15.022   3.944
61502W        W27911   4.693  25.688  13.589
61503W        W27912   8.967  39.973   2.223
61504W        W27913   2.914   8.306  14.924
61505W        W27914  13.192  29.596  10.783
61506W        W27915   9.186   0.857  13.884
61507W        W27916  12.811  35.600  14.719
61508W        W27917  30.890  15.525   0.360
61509W        W27918  22.563  15.721   2.621
61510W        W27919   2.318  31.202  12.375
61511W        W27920   1.217  33.756   1.110
61512W        W27921  13.838  16.175  13.407
61513W        W27922  18.353  30.450   2.670
61514W        W27923  13.584  17.832  12.215
61515W        W27924  41.936  35.552   0.732
61516W        W27925  17.721   4.217   1.983
61517W        W27926  38.829  16.985   1.619
61518W        W27927  37.436   3.786   0.262
61519W        W27928  15.301  34.832   5.015
61520W        W27929   0.382   6.884   2.172
61521W        W27930  12.127  20.776  13.386
61522W        W27931  31.646  31.130   0.910
61523W        W27932  13.831   2.894   4.158
61524W        W27933  34.040  17.252   2.183
61525W        W27934  42.489   7.287   3.767
61526W        W27935  38.361  18.431  14.899
61527W        W27936  37.553  39.017   0.256
61528W        W27937  38.063   2.639  11.810
61529W        W27938  40.718  10.008   2.737
61530W        W27939  23.307  43.325   3.912
61531W        W27940  41.859  38.879  11.151
61532W        W27941  31.131   0.143  12.124
61533W        W27942  44.505  32.546  11.749
61534W        W27943  21.065  10.085   3.070
61535W        W27944  37.482  18.651  14.483
61536W        W27945  27.343  36.147  12.581
61537W        W27946   2.520   1.688   0.105
61538W        W27947  12.264  30.081   3.386
61539W        W27948  20.230   1.485  10.714
61540W        W27949  38.457   3.853  11.567
61541W        W27950  27.625  31.417   4.459
61542W        W27951  29.845  19.005   1.373
61543W        W27952  37.380   3.451   2.298
61544W        W27953  44.504  43.232   0.307
61545W        W27954  23.775  42.906  11.934
61546W        W27955  16.640   5.844  12.972
61547W        W27956   3.762  42.791  10.210
61548W        W27957  43.741  16.385   0.001
61549W        W27958  28.922  28.064   2.922
61550W        W27959   2.316   2.266   0.915
61551W        W27960  18.346   4.923   0.938
61552W        W27961   9.286  34.557  14.479
61553W        W27962   0.299   1.392   0.653
61554W        W27963   2.260   2.551   0.494
61555W        W27964  20.159  14.250  11.152
61556W        W27965  41.878  19.753  11.661
61557W        W27966  19.217  44.438  12.983
61558W        W27967  35.798  36.551   0.157
61559W        W27968  22.069  11.187  12.149
61560W        W27969  14.870  38.473   2.627
61561W        W27970  21.641  32.179  11.655
61562W        W27971  15.796  18.101  12.571
61563W        W27972  15.340  37.586  13.501
61564W        W27973   5.340  33.341   1.257
61565W        W27974  32.123  13.212   0.384
61566W        W27975  25.221  31.121  14.525
61567W        W27976   4.307  16.854   1.297
61568W        W27977  19.526  40.292  12.919
61569W        W27978  43.523  20.525   4.350
61570W        W27979  28.177  14.811   2.287
61571W        W27980  16.593  39.513  11.187
61572W        W27981  15.761  37.319  13.546
61573W        W27982  34.881  19.325   2.231
61574W        W27983  41.243  10.904  14.366
61575W        W27984  22.788  16.793  14.981
61576W        W27985  26.571  34.817  10.722
61577W        W27986   5.467  28.654   3.740
61578W        W27987  31.856  11.312  13.744
61579W        W27988   6.908  24.618   4.541
61580W        W27989   3.164  29.909   2.756
61581W        W27990  34.624  33.905  13.653
61582W        W27991  40.329  33.922   1.363
61583W        W27992  25.903  14.992   4.473
61584W        W27993  24.925  30.073  10.695
61585W        W27994  19.231  36.965  14.847
61586W        W27995  10.129  23.679  10.712
61587W        W27996   6.285  19.927   0.814
61588W        W27997  39.555  16.267   2.402
61589W        W27998   7.182  13.568   4.853
61590W        W27999  29.163  19.671   2.286
61591W        W28000  37.897   7.729  14.486
61592W        W28001   0.523  43.277  12.592
61593W        W28002  17.374  42.639  14.454
61594W        W28003   6.819  21.377   0.549
61595W        W28004  43.740   7.798  12.556
61596W        W28005  18.608  12.067  11.670
61597W        W28006  34.840   2.923  13.080
61598W        W28007  41.813  10.243  14.424
61599W        W28008  22.171  31.639  12.492
61600W        W28009  31.619  19.708   2.164
61601W        W28010  31.499   4.316  13.322
61602W        W28011   7.914  21.953  11.532
61603W        W28012  18.678   2.160  11.525
61604W        W28013  17.708  27.772   0.886
61605W        W28014  31.641   8.132   2.142
61606W        W28015  30.979  39.911  13.024
61607W        W28016  19.244  28.572   1.183
61608W        W28017  35.087   9.854  14.396
61609W        W28018  40.527  15.621  10.793
61610W        W28019  10.233  32.313  10.644
61611W        W28020   6.190  20.848  10.647
61612W        W28021  28.889  12.016   5.037
61613W        W28022   7.016  41.811  13.908
61614W        W28023   4.806  31.124  12.681
61615W        W28024  38.452  16.412  13.371
61616W        W28025   9.909   1.954  13.023
61617W        W28026   9.255   5.717  13.964
61618W        W28027  14.698  44.308   1.863
61619W        W28028  17.117   5.205  12.121
61620W        W28029  19.082   8.787   2.446
61621W        W28030  35.935  38.929   0.841
61622W        W28031  21.485  19.650   3.266
61623W        W28032  28.711  13.128  12.166
61624W        W28033  12.420   3.183  14.406
61625W        W28034  10.300   5.343   3.734
61626W        W28035  40.878  41.558   4.120
61627W        W28036  12.172  22.480  13.630
61628W        W28037  34.635  19.832   3.629
61629W        W28038  41.888  25.207  14.770
61630W        W28039   7.862   7.376   1.853
61631W        W28040  37.715  11.497   2.809
61632W        W28041  37.592  35.412   3.604
61633W        W28042  11.697  22.600   1.752
61634W        W28043  16.680   3.407   2.413
61635W        W28044   0.755  33.053  13.806
61636W        W28045  13.519   2.171  13.921
61637W        W28046  17.071  40.641  10.073
61638W        W28047  31.125  18.070  13.920
61639W        W28048   6.096  24.833   1.849
61640W        W28049  25.790  32.165  11.033
61641W        W28050  13.353  38.287   0.919
61642W        W28051  19.977   0.454   4.159
61643W        W28052  22.114   1.501   3.692
61644W        W28053  18.225  16.994   3.202
61645W        W28054  25.031   8.137  12.387
61646W        W28055   2.482  40.136  10.506
61647W        W28056  29.112  17.575   3.686
61648W        W28057   9.241  43.757  14.352
61649W        W28058  30.031  31.913   4.348
61650W        W28059  13.548  17.674   1.874
61651W        W28060  34.042  22.704  12.522
61652W        W28061   0.397  28.063   1.255
61653W        W28062  34.185  12.039  14.405
61654W        W28063   9.206  20.565   3.726
61655W        W28064  24.202  20.240  13.796
61656W        W28065  31.911   2.378   0.249
61657W        W28066   5.129  43.453   2.776
61658W        W28067  40.106  28.600   2.712
61659W        W28068  17.655  41.501   2.335
61660W        W28069  29.137  42.074  11.149
61661W        W28070   5.835  25.605   3.612
61662W        W28071  43.406  20.271   3.392
61663W        W28072  36.837  19.118  13.066
61664W        W28073  37.847  44.334  13.471
61665W        W28074  40.752  32.179  10.952
61666W        W28075  38.036  41.366   4.721
61667W        W28076   8.117   0.338   1.657
61668W        W28077  12.592  42.910  12.609
61669W        W28078  42.789  27.936  10.634
61670W        W28079  21.375  12.994  11.549
61671W        W28080  31.628  17.211  11.518
61672W        W28081  31.014  39.460   2.834
61673W        W28082  37.036  10.851   2.748
61674W        W28083  16.185   4.000  11.017
61675W        W28084   8.314  39.081   3.690
61676W        W28085   4.852  19.701  13.948
61677W        W28086  32.337  41.613  12.545
61678W        W28087  16.363   9.643  13.457
61679W        W28088   4.843  44.943   4.112
61680W        W28089   0.682  37.311   1.866
61681W        W28090   1.382   0.044  12.901
61682W        W28091  39.721  11.830  12.406
61683W        W28092  38.383  41.808  12.945
61684W        W28093  42.581  21.343   2.244
61685W        W28094  27.365  44.062   2.751
61686W        W28095  27.933  33.915  13.938
61687W        W28096  16.769  28.400  13.540
61688W        W28097  40.925  13.228   3.654
61689W        W28098  34.888  31.106   0.051
61690W        W28099   3.069  27.111   1.547
61691W        W28100  28.210  17.024   4.362
61692W        W28101  13.200  11.344  14.035
61693W        W28102  16.576  37.803   0.923
61694W        W28103  43.932  32.476  10.942
61695W        W28104  28.038   9.741   0.702
61696W        W28105   3.630  31.404   1.872
61697W        W28106  18.373  17.005   2.222
61698W        W28107  22.645   8.914  14.784
61699W        W28108   4.234   7.827   1.766
61700W        W28109  29.405  40.425   1.627
61701W        W28110   4.140  44.078   1.969
61702W        W28111  16.747   1.648  13.973
61703W        W28112  25.745   2.999   0.318
61704W        W28113  44.169  32.332   3.682
61705W        W28114  19.153  11.170   0.350
61706W        W28115   5.832  30.311  11.611
61707W        W28116  12.729  20.592   2.240
61708W        W28117  31.208  44.408  14.897
61709W        W28118  37.191  44.021   2.791
61710W        W28119  37.551  29.240  10.767
61711W        W28120  10.367  17.194   2.813
61712W        W28121  41.014  10.182  13.980
61713W        W28122  25.426  26.059   0.220
61714W        W28123  24.986   3.275   2.433
61715W        W28124  28.131  39.501  12.907
61716W        W28125  38.971   4.467  14.937
61717W        W28126   7.120  34.471   2.784
61718W        W28127  33.544   6.313   2.922
61719W        W28128   4.666  18.863  11.732
61720W        W28129   8.844  20.662   0.236
61721W        W28130  14.070  17.536  14.998
61722W        W28131  17.954   9.813  10.936
61723W        W28132  14.823   8.021  14.836
61724W        W28133  31.379  41.548  13.475
61725W        W28134   7.235   9.751   1.108
61726W        W28135  21.796   5.023   0.852
61727W        W28136  34.911  14.772  14.756
61728W        W28137  43.128   6.859   9.957
61729W        W28138  29.945  10.896   4.701
61730W        W28139   9.421   5.387   2.772
61731W        W28140  13.368  41.805  11.143
61732W        W28141  35.872  17.089  12.895
61733W        W28142  29.062  28.595  13.928
61734W        W28143  13.657  27.376   2.736
61735W        W28144  33.350  38.948   0.066
61736W        W28145  22.789  23.455  13.470
61737W        W28146  31.016  44.307  10.815
61738W        W28147  28.784  22.641  13.085
61739W        W28148  37.861   7.735   0.010
61740W        W28149  38.606  25.508   2.704
61741W        W28150  37.971  12.248   3.287
61742W        W28151   0.331  30.087   4.974
61743W        W28152   7.214  15.868  13.392
61744W        W28153  30.575   9.771  12.054
61745W        W28154  15.756  40.076  14.946
61746W        W28155  32.410  31.337   3.759
61747W        W28156  33.112  31.098   0.542
61748W        W28157  19.245   9.898   3.811
61749W        W28158  32.223  16.988   0.488
61750W        W28159  35.851  27.715  12.002
61751W        W28160   8.839   9.700   0.316
61752W        W28161  25.866  43.477  12.476
61753W        W28162  35.397  36.626   2.813
61754W        W28163  38.983  37.505  12.865
61755W        W28164  20.774  15.271   2.037
61756W        W28165  17.011   2.857   1.815
61757W        W28166  14.827  31.982   3.646
61758W        W28167   1.335  24.362   4.663
61759W        W28168  40.621  21.625  11.875
61760W        W28169  36.391   5.057   2.387
61761W        W28170  14.833  16.598  14.066
61762W        W28171   9.981  27.574   3.268
61763W        W28172  15.970  15.610   1.422
61764W        W28173  34.801  32.467   1.769
61765W        W28174  43.558   1.263  14.365
61766W        W28175  27.774  12.636   1.488
61767W        W28176   0.424   7.882  11.781
61768W        W28177  38.528  35.582  10.728
61769W        W28178  41.993  37.584   4.488
61770W        W28179  29.403   0.318   4.072
61771W        W28180  36.952  40.794   2.472
61772W        W28181  28.042  24.210   0.529
61773W        W28182  10.312   6.523  14.522
61774W        W28183  26.013  30.098   4.621
61775W        W28184  40.452  23.313   3.614
61776W        W28185   4.399  23.697  12.942
61777W        W28186  14.428   0.641  12.363
61778W        W28187  43.030  39.995   3.398
61779W        W28188  23.167  11.341   2.647
61780W        W28189  34.969  33.899  12.673
61781W        W28190  10.897   2.254  14.225
61782W        W28191  17.214   8.977   2.844
61783W        W28192  34.027  36.310  12.933
61784W        W28193  15.391  12.160   0.871
61785W        W28194  12.639   7.471   1.340
61786W        W28195  25.430  29.566   1.282
61787W        W28196  24.994  14.570  12.075
61788W        W28197   4.885  27.633  13.853
61789W        W28198   3.467  44.652   2.174
61790W        W28199  44.505   9.132   3.785
61791W        W28200  31.466  37.179   0.846
61792W        W28201  39.052  31.707   0.476
61793W        W28202  14.625  23.242  12.028
61794W        W28203  39.367  11.639   1.231
61795W        W28204  18.531  41.819   4.618
61796W        W28205   4.226   0.935   4.408
61797W        W28206  44.935  20.806  14.443
61798W        W28207  32.859   1.525  11.052
61799W        W28208  41.282  39.083  11.514
61800W        W28209  27.445  10.840   0.896
61801W        W28210  24.485  12.820  11.137
61802W        W28211  42.151   6.867  13.833
61803W        W28212  29.049  21.516   4.637
61804W        W28213  26.640  27.408   1.775
61805W        W28214  12.010  29.176   3.284
61806W        W28215  27.214  17.303  14.828
61807W        W28216   7.194  29.662  14.955
61808W        W28217   8.430  27.022  13.957
61809W        W28218  13.165  44.303   3.248
61810W        W28219  35.519   2.260  10.957
61811W        W28220   3.282  13.554   1.229
61812W        W28221  25.514   9.589   0.974
61813W        W28222  38.792  14.744   4.679
61814W        W28223   2.444  16.021   4.368
61815W        W28224  26.528  27.039   4.474
61816W        W28225   6.475  44.904  14.727
61817W        W28226  19.730  39.661   3.854
61818W        W28227   4.919   0.769   3.680
61819W        W28228   7.722  41.834  13.017
61820W        W28229  20.119   1.524   1.695
61821W        W28230   4.988   2.720   0.827
61822W        W28231  24.921   2.770  14.369
61823W        W28232  16.773  32.950  10.474
61824W        W28233   4.527  43.018  10.085
61825W        W28234  37.591   1.413   1.333
61826W        W28235  36.268  17.864   4.143
61827W        W28236  21.198  37.097  11.362
61828W        W28237  26.484  35.804   1.249
61829W        W28238  33.379  22.191   2.890
61830W        W28239   9.655   3.647  14.342
61831W        W28240   4.407   5.660  13.468
61832W        W28241  27.041  29.202  14.543
61833W        W28242  20.650  13.638   0.857
61834W        W28243  18.829  17.529  14.542
61835W        W28244  26.665  41.427  13.438
61836W        W28245  22.694   7.215  14.315
61837W        W28246   0.794  36.511   2.912
61838W        W28247  42.215  40.095  12.379
61839W        W28248   2.744  42.501   2.296
61840W        W28249  21.543  11.803  11.224
61841W        W28250  25.274  21.255   0.320
61842W        W28251  31.310  17.938  14.510
61843W        W28252  30.140   1.817  14.273
61844W        W28253  13.033   5.667   3.261
61845W        W28254  18.544  23.057  14.540
61846W        W28255  13.300  42.403   2.733
61847W        W28256   1.663   1.081   4.186
61848W        W28257  12.174  14.768   2.402
61849W        W28258  43.253   7.440   2.740
61850W        W28259  40.757  34.674   0.810
61851W        W28260  16.291  39.631  13.708
61852W        W28261   8.403  20.172  12.327
61853W        W28262  17.488  17.654  11.643
61854W        W28263  18.797  43.185   1.373
61855W        W28264   8.004  11.027   0.284
61856W        W28265  13.210  15.279  13.511
61857W        W28266  21.771   5.091   2.733
61858W        W28267   3.571  43.358  14.421
61859W        W28268  29.725  13.864   0.401
61860W        W28269   2.772  42.910  10.918
61861W        W28270  21.052   4.753  12.559
61862W        W28271  41.968  35.571  14.338
61863W        W28272  13.654  20.707   4.069
61864W        W28273  17.863   8.393  12.520
61865W        W28274  22.798  39.428   1.745
61866W        W28275  17.854  12.219  11.522
61867W        W28276  13.726  31.057   1.352
61868W        W28277   7.500  10.590   1.722
61869W        W28278   6.022   9.478   4.246
61870W        W28279   7.664  42.757   3.270
61871W        W28280   3.193   8.303  12.267
61872W        W28281  19.814  30.417   3.576
61873W        W28282  32.874   1.530   3.320
61874W        W28283  44.401  25.072   2.684
61875W        W28284  42.799  14.735  14.185
61876W        W28285  36.366  22.926   2.855
61877W        W28286  32.260   4.571  10.334
61878W        W28287  19.025  17.161   1.636
61879W        W28288   2.903  23.571   4.288
61880W        W28289  36.806  18.218   2.843
61881W        W28290  25.584  38.047   4.169
61882W        W28291  13.684  12.791  14.262
61883W        W28292   4.045  38.000  14.150
61884W        W28293   7.721  38.597  12.107
61885W        W28294  16.553   9.777   0.827
61886W        W28295   8.254   3.131   0.308
61887W        W28296  11.377  24.563  14.466
61888W        W28297   2.269  30.609   3.130
61889W        W28298  43.510  24.742  11.591
61890W        W28299  26.947   3.207   0.522
61891W        W28300  12.628   2.974  12.626
61892W        W28301  40.606  31.744  11.197
61893W        W28302  25.950  11.686   0.799
61894W        W28303  11.282  34.889   4.534
61895W        W28304  42.654  18.612  10.341
61896W        W28305  28.962  39.808  10.690
61897W        W28306  33.756  10.679   2.373
61898W        W28307  24.649  23.572   1.890
61899W        W28308   3.655  27.856  13.874
61900W        W28309  34.221  42.744   3.683
61901W        W28310  44.096   6.207   0.302
61902W        W28311  28.077  27.548   4.613
61903W        W28312  38.867  43.770  14.020
61904W        W28313  13.713  26.654  13.037
61905W        W28314   8.257   8.714  12.257
61906W        W28315  17.581  31.594  10.725
61907W        W28316  23.515   5.199   1.890
61908W        W28317  19.306  39.954   1.264
61909W        W28318  35.291  35.631  10.686
61910W        W28319   6.151  22.188  12.119
61911W        W28320   4.216  43.495   3.641
61912W        W28321   9.346   3.443  14.703
61913W        W28322  13.701   8.938   0.320
61914W        W28323  30.888  15.761   1.739
61915W        W28324  32.026  32.081  14.419
61916W        W28325  17.154  28.695  14.711
61917W        W28326  29.048  25.941  12.591
61918W        W28327  25.967  28.949   4.725
61919W        W28328  32.090   1.367  12.508
61920W        W28329  42.698  23.037   2.854
61921W        W28330   8.630   6.720  14.000
61922W        W28331  18.859  16.789  13.756
61923W        W28332  23.635  25.245   2.817
61924W        W28333   0.991  38.066   2.652
61925W        W28334  44.870  40.450  10.002
61926W        W28335   5.917  27.493  12.576
61927W        W28336  37.942   3.228  10.098
61928W        W28337  16.142  14.683   0.925
61929W        W28338  13.296   3.467   1.916
61930W        W28339  32.440  15.627   0.822
61931W        W28340  33.511   2.755  13.444
61932W        W28341  28.217  36.042  10.950
61933W        W28342  37.229   0.891  11.228
61934W        W28343  13.134  11.365   3.546
61935W        W28344  24.157   5.471  12.304
61936W        W28345  16.860  39.698  14.997
61937W        W28346   5.271  15.268  14.549
61938W        W28347  36.589  27.657   3.291
61939W        W28348  22.589  41.333   2.177
61940W        W28349   3.945  27.060  10.830
61941W        W28350  35.537  18.290  14.134
61942W        W28351  26.056   2.713  13.575
61943W        W28352  28.788   9.237   3.652
61944W        W28353  25.096  39.773  10.354
61945W        W28354   7.246  27.663   0.326
61946W        W28355  18.567  42.932   3.331
61947W        W28356  37.065  22.679  11.751
61948W        W28357  21.368  24.173   4.231
61949W        W28358  35.481  33.798   0.402
61950W        W28359  26.103   8.359   3.023
61951W        W28360  28.968  10.944   1.335
61952W        W28361  36.675  31.912   4.601
61953W        W28362   0.002  28.492   3.563
61954W        W28363  17.922  36.985   4.071
61955W        W28364   2.925  34.619  13.662
61956W        W28365  21.123  30.412  14.929
61957W        W28366   8.311  34.925   4.685
61958W        W28367  17.085  26.781   4.576
61959W        W28368   8.393   9.732  13.246
61960W        W28369  19.682  42.554   4.349
61961W        W28370  40.441  29.948   4.052
61962W        W28371  14.522  32.044  11.674
61963W        W28372  36.103  30.678   3.963
61964W        W28373  38.340  32.038  11.319
61965W        W28374  44.022  39.961   0.805
61966W        W28375  23.491  16.060  12.046
61967W        W28376  40.986  41.844   0.130
61968W        W28377  38.483  19.267  14.290
61969W        W28378   5.036  20.476   2.919
61970W        W28379  13.007  30.389  13.322
61971W        W28380  33.866  24.979  13.320
61972W        W28381  33.584  21.484   4.176
61973W        W28382   4.218   4.896   4.224
61974W        W28383  44.281   4.624  13.923
61975W        W28384  28.959  41.382  11.580
61976W        W28385   0.267  36.523  10.655
61977W        W28386  31.556  27.118  14.906
61978W        W28387  19.083  13.251  14.769
61979W        W28388  41.390  42.725   2.018
61980W        W28389   2.324  27.983   0.014
61981W        W28390  27.999  12.722  10.803
61982W        W28391  36.957  15.916  14.333
61983W        W28392   1.681  24.161   0.747
61984W        W28393  14.361   0.018   1.727
61985W        W28394  39.255   1.885   3.226
61986W        W28395   8.895   3.771   4.260
61987W        W28396  38.987  22.423  14.890
61988W        W28397   7.150  31.184   2.778
61989W        W28398   3.200  11.124   3.931
61990W        W28399  30.536  14.793   0.017
61991W        W28400   6.171  32.502   0.813
61992W        W28401  32.383  32.024   1.815
61993W        W28402  10.792   8.675  12.454
61994W        W28403  18.104  10.249   5.008
61995W        W28404  11.761  13.379  11.175
61996W        W28405   1.874  39.359   2.582
61997W        W28406  36.951  15.432   0.379
61998W        W28407  42.725  42.001  10.713
61999W        W28408  32.721   1.101  14.315
62000W        W28409  42.955  18.154  12.949
62001W        W28410  19.899  37.776  11.154
62002W        W28411  10.232  21.177   3.708
62003W        W28412  15.556  16.023  11.600
62004W        W28413   1.619   1.124   0.648
62005W        W28414  21.555  35.413  12.510
62006W        W28415  33.927  12.028  13.637
62007W        W28416  17.682  22.026  14.373
62008W        W28417   0.401   0.740  11.602
62009W        W28418  31.972  43.527   2.860
62010W        W28419  16.962  26.373  11.219
62011W        W28420  16.026  12.237  14.334
62012W        W28421  40.858   4.068  13.402
62013W        W28422  14.251  41.538  13.346
62014W        W28423  37.440  32.487   0.849
62015W        W28424  11.335  18.557   3.715
62016W        W28425  14.304  40.364   4.228
62017W        W28426  11.203   1.881  12.182
62018W        W28427   9.117   5.370   4.492
62019W        W28428  38.605  39.416   2.827
62020W        W28429   0.338   0.026   0.444
62021W        W28430  30.987   4.396   0.088
62022W        W28431   2.825   8.348   0.912
62023W        W28432   2.841  13.680   2.878
62024W        W28433  11.874  25.705  14.075
62025W        W28434  44.936  13.370  13.523
62026W        W28435   8.610  39.606   2.155
62027W        W28436  27.417  26.398  14.858
62028W        W28437  13.025  15.436   3.834
62029W        W28438  43.526  37.397   0.223
62030W        W28439   5.903  11.265  13.925
62031W        W28440  39.166  15.894   2.306
62032W        W28441  20.129   1.020   3.146
62033W        W28442  38.748  30.260   1.721
62034W        W28443  35.179  41.505   2.879
62035W        W28444   2.058  34.355   2.500
62036W        W28445  43.226  15.053   2.246
62037W        W28446  10.642  17.975  10.731
62038W        W28447  39.512  19.780  11.185
62039W        W28448  37.577  34.354  14.423
62040W        W28449   3.977  18.225  12.093
62041W        W28450  22.405  24.962   0.735
62042W        W28451  11.670  44.261   1.836
62043W        W28452  41.421  44.252   2.621
62044W        W28453  28.094  34.444  13.831
62045W        W28454  18.502  43.770   4.454
62046W        W28455   9.490  30.468   0.411
62047W        W28456  35.503   6.425  14.862
62048W        W28457   8.932   8.528  12.999
62049W        W28458  32.193  36.407  11.035
62050W        W28459  27.987   1.500  11.161
62051W        W28460  31.097   6.187   0.847
62052W        W28461  35.954  22.038  12.657
62053W        W28462  42.346  24.977   2.874
62054W        W28463   6.230  37.656  12.131
62055W        W28464  28.998  39.905  14.470
62056W        W28465   0.760  34.249  12.471
62057W        W28466  39.076  11.779  14.820
62058W        W28467   6.649  39.362   1.343
62059W        W28468  31.872  24.271  13.823
62060W        W28469  29.606  36.235  12.095
62061W        W28470   5.937  22.631   4.595
62062W        W28471  32.603  37.487   4.551
62063W        W28472  36.364   8.828   3.247
62064W        W28473   6.282  30.008  12.401
62065W        W28474  18.558  29.966  12.094
62066W        W28475  24.821   4.306   2.419
62067W        W28476   6.395  37.365  12.537
62068W        W28477   3.224   2.864   4.229
62069W        W28478  18.032  16.499   3.223
62070W        W28479  22.800  26.817  12.516
62071W        W28480  14.739   4.746  14.925
62072W        W28481  38.013  35.194   0.822
62073W        W28482  21.978  15.384  12.543
62074W        W28483  10.693  32.396  11.588
62075W        W28484  25.380  22.048  14.832
62076W        W28485   3.318  21.577   3.266
62077W        W28486  38.176  28.679   3.139
62078W        W28487  33.037  29.848  10.759
62079W        W28488   9.249  21.791  14.861
62080W        W28489   8.451  17.783   0.768
62081W        W28490  40.784  25.727  12.630
62082W        W28491  44.930   6.884   1.212
62083W        W28492  22.615  41.057   0.940
62084W        W28493  32.553  40.112  11.475
62085W        W28494   8.993   6.683   4.126
62086W        W28495   5.777  29.912   3.115
62087W        W28496  14.033  11.092   2.346
62088W        W28497  24.101   2.775  10.920
62089W        W28498  10.367  32.069  12.766
62090W        W28499  25.399  17.148   3.918
62091W        W28500  12.763  14.182   2.390
62092W        W28501   4.262  10.572  10.968
62093W        W28502  22.052  20.080   3.072
62094W        W28503  35.986  15.259  13.420
62095W        W28504  42.045  31.990  13.131
62096W        W28505  19.772  32.680   3.177
62097W        W28506   4.669  23.492  12.452
62098W        W28507  42.650  12.665   3.557
62099W        W28508  18.475  10.705   1.417
62100W        W28509  20.799   1.860   0.420
62101W        W28510   7.365   8.516  14.004
62102W        W28511  22.290   0.359  12.021
62103W        W28512  16.066  18.795  12.138
62104W        W28513  41.600  36.543   4.393
62105W        W28514  28.551   6.668  13.522
62106W        W28515   4.911  10.776   4.585
62107W        W28516   4.185   9.128  14.611
62108W        W28517   3.412   2.375  11.593
62109W        W28518  31.930   5.805  10.215
62110W        W28519  27.951  35.394  12.090
62111W        W28520   9.627  41.732  14.835
62112W        W28521  19.092  30.767   1.550
62113W        W28522   7.731  22.672   4.076
62114W        W28523  39.064  14.889  11.474
62115W        W28524  20.608  27.132  13.119
62116W        W28525   6.755  22.475  13.152
62117W        W28526  35.434  26.914  14.878
62118W        W28527  29.396  16.525   2.450
62119W        W28528  24.596  16.757   3.328
62120W        W28529  29.912   3.578   1.293
62121W        W28530  35.497   9.737  12.943
62122W        W28531  17.862   3.509   2.794
62123W        W28532   9.184  15.000  12.484
62124W        W28533  39.865  21.173   0.501
62125W        W28534  31.425  36.164   1.875
62126W        W28535   7.796  17.709   2.363
62127W        W28536   2.969  24.649   0.955
62128W        W28537  42.207  32.561  13.635
62129W        W28538  11.615  38.858   0.596
62130W        W28539  10.963  43.493   3.198
62131W        W28540   8.539  23.815   0.882
62132W        W28541   3.718  22.495   0.994
62133W        W28542  19.352  40.978  12.969
62134W        W28543  18.305  40.091   3.827
62135W        W28544  35.551   8.121   4.481
62136W        W28545  22.448  38.534   2.140
62137W        W28546  26.602  20.293   0.514
62138W        W28547  20.051  17.811   2.398
62139W        W28548  34.141  14.804   1.781
62140W        W28549  19.799  32.441   0.864
62141W        W28550  36.469  10.846   1.354
62142W        W28551  42.239  44.412   3.979
62143W        W28552  12.759  39.400   0.570
62144W        W28553  25.408  42.035   1.407
62145W        W28554  43.405  23.494   2.241
62146W        W28555  36.141  44.887  12.875
62147W        W28556  25.643  41.256   3.629
62148W        W28557   2.505  22.078  11.650
62149W        W28558   2.809  31.272  12.665
62150W        W28559  37.991  18.695   3.436
62151W        W28560  22.815  31.468   2.977
62152W        W28561  13.999  30.615   1.323
62153W        W28562  26.117  16.639   2.189
62154W        W28563  15.582  44.274   0.920
62155W        W28564   0.919  40.732  12.104
62156W        W28565   4.897  10.726   1.720
62157W        W28566  41.535  25.040   4.241
62158W        W28567  16.062  37.383   2.258
62159W        W28568  30.820  21.487  13.819
62160W        W28569  29.148   9.857  12.138
62161W        W28570  40.527  32.135  14.951
62162W        W28571  41.631  29.074   2.239
62163W        W28572  15.223   0.002  12.221
62164W        W28573  43.986  30.493  14.469
62165W        W28574  17.141  25.616   2.495
62166W        W28575  18.175   2.361  11.474
62167W        W28576   9.231  31.409  14.978
62168W        W28577  36.757  44.278  14.853
62169W        W28578  12.909   8.254  11.305
62170W        W28579  15.721  41.419   0.315
62171W        W28580  13.759  44.849   1.051
62172W        W28581   0.034  37.192  13.754
62173W        W28582  18.736  36.649  13.244
62174W        W28583  33.286  32.072  10.080
62175W        W28584   4.846  34.030  14.149
62176W        W28585  21.889   2.938  14.912
62177W        W28586  24.424  11.577  11.295
62178W        W28587  24.594  28.922  10.700
62179W        W28588  41.317  42.123   4.720
62180W        W28589  18.798  30.022  14.225
62181W        W28590  13.044  11.713   4.551
62182W        W28591  24.520  13.090  10.695
62183W        W28592  13.371  33.141   1.163
62184W        W28593  41.778  25.519  13.932
62185W        W28594  13.806  26.210  11.502
62186W        W28595  12.291  19.206   2.962
62187W        W28596  41.655  16.864   4.016
62188W        W28597  30.631  23.761   0.992
62189W        W28598   0.574   2.753  11.863
62190W        W28599  18.151  30.958   3.524
62191W        W28600  16.746  44.963  14.290
62192W        W28601  32.308   8.343   0.559
62193W        W28602  11.481  19.406   4.040
62194W        W28603  15.218  25.485  14.287
62195W        W28604  37.854  33.567   0.875
62196W        W28605  11.377  32.060  14.304
62197W        W28606   9.657  16.621   4.541
62198W        W28607  29.556  40.986  12.529
62199W        W28608   8.666  12.260   3.739
62200W        W28609   5.665  29.520  12.011
62201W        W28610  44.555  16.672   4.179
62202W        W28611  22.822  21.912   4.928
62203W        W28612  10.407  36.493   0.258
62204W        W28613  43.374  33.107  10.775
62205W        W28614   7.654  34.297  12.118
62206W        W28615  32.286   1.559  12.044
62207W        W28616  16.561  12.163   3.471
62208W        W28617  33.254  27.566   3.729
62209W        W28618  22.613   2.830  11.655
62210W        W28619   0.535  26.248  11.929
62211W        W28620  23.578  32.481   2.329
62212W        W28621  31.124  11.552  14.175
62213W        W28622  23.729  36.891   3.147
62214W        W28623  43.877  23.378   1.910
62215W        W28624  40.821  23.022  10.752
62216W        W28625  43.587   1.484   2.655
62217W        W28626  30.031  25.952   3.663
62218W        W28627  43.646  24.650   1.614
62219W        W28628  25.600   4.184  11.353
62220W        W28629  20.526  43.764   3.658
62221W        W28630   9.535   2.958  14.483
62222W        W28631  14.266  11.531   2.510
62223W        W28632  34.403   0.923   3.145
62224W        W28633  35.328   0.804  12.289
62225W        W28634  44.447  40.259   1.309
62226W        W28635  18.997  42.969   0.462
62227W        W28636  14.973  14.320   4.184
62228W        W28637  33.903  13.152   5.007
62229W        W28638  18.541  42.486   4.241
62230W        W28639  24.569   3.133   3.686
62231W        W28640   8.080  37.156  14.554
62232W        W28641  25.514  27.496  12.152
62233W        W28642  25.003  42.064  12.914
62234W        W28643  17.227  10.529   3.707
62235W        W28644   6.171  13.781   4.627
62236W        W28645   1.033   4.768   2.680
62237W        W28646  30.490  25.166  12.886
62238W        W28647   1.203  21.018  12.072
62239W        W28648  30.031  31.904   4.888
62240W        W28649   9.746   1.687  12.057
62241W        W28650   0.057  28.379  14.971
62242W        W28651  14.104  40.972  12.903
62243W        W28652  22.164  29.954   3.831
62244W        W28653  40.858   6.035   0.719
62245W        W28654  39.420  39.819  13.823
62246W        W28655  18.301  36.016   3.264
62247W        W28656  33.146  28.110  11.671
62248W        W28657   2.906  43.791  11.909
62249W        W28658   1.331  29.570  13.431
62250W        W28659   8.809  13.412   2.754
62251W        W28660  24.197  10.765   4.273
62252W        W28661  15.194  17.647   2.669
62253W        W28662  16.683   4.913  13.049
62254W        W28663  14.048   1.817  12.431
62255W        W28664  42.523   6.420  14.996
62256W        W28665   4.373  13.576   2.698
62257W        W28666  13.748  43.130  13.606
62258W        W28667  20.986  30.024   1.361
62259W        W28668  31.244   1.010   1.379
62260W        W28669   6.223  40.962   4.922
62261W        W28670  25.530  38.471   2.903
62262W        W28671  34.078  24.864   1.690
62263W        W28672  23.754  41.405  10.805
62264W        W28673  22.217  15.913  11.100
62265W        W28674   8.810  41.603   4.759
62266W        W28675  11.361  24.040   4.200
62267W        W28676  26.743  43.961   1.171
62268W        W28677  26.476  21.805  12.019
62269W        W28678  17.674  27.544  14.334
62270W        W28679  42.286   8.820  13.352
62271W        W28680  16.673  13.075   1.218
62272W        W28681  19.777   3.946   2.926
62273W        W28682  44.255  10.428  12.070
62274W        W28683  34.870  12.835  12.441
62275W        W28684   8.718  31.343  13.911
62276W        W28685  30.188  32.458   3.601
62277W        W28686  31.311  16.369   2.257
62278W        W28687   5.337  42.381  10.444
62279W        W28688  29.491  35.501   1.904
62280W        W28689   7.858  41.889   0.769
62281W        W28690  40.998   8.391  11.600
62282W        W28691  25.718   7.934   4.196
62283W        W28692  26.243  24.290   0.337
62284W        W28693  19.613  44.812   0.224
62285W        W28694  30.768  28.598  12.968
62286W        W28695  15.849  42.345  13.555
62287W        W28696  34.348  33.423  12.399
62288W        W28697  40.522  31.100  12.035
62289W        W28698  42.489  19.248  11.078
62290W        W28699  26.644  31.622   4.256
62291W        W28700  25.571  14.654   4.740
62292W        W28701   2.386  35.581  13.445
62293W        W28702  12.434   7.141  14.542
62294W        W28703  27.318  32.642   2.176
62295W        W28704   3.950  11.900  11.084
62296W        W28705  29.818  31.408   0.369
62297W        W28706   3.411  32.013  10.755
62298W        W28707  18.497  44.910  14.537
62299W        W28708  28.196  13.365  14.829
62300W        W28709  10.361  30.561   9.942
62301W        W28710  17.393  36.123   2.699
62302W        W28711  30.444  20.485   0.421
62303W        W28712  36.401  44.960  10.688
62304W        W28713  31.118  27.607  10.674
62305W        W28714   5.992  37.499  10.522
62306W        W28715  41.065  11.675  14.935
62307W        W28716  41.799  39.918   5.009
62308W        W28717  18.216  19.669   4.054
62309W        W28718  34.440  37.888   1.673
62310W        W28719   4.828  18.756   2.417
62311W        W28720  19.540   3.741  11.008
62312W        W28721  26.994  44.479   4.678
62313W        W28722   0.857  21.503  13.589
62314W        W28723  40.831  35.440  13.534
62315W        W28724   2.852  37.833  13.048
62316W        W28725   9.139   4.428  14.854
62317W        W28726   9.791  18.082  14.302
62318W        W28727  25.863  42.864  14.541
62319W        W28728  28.506  13.270  13.962
62320W        W28729  42.859  31.122  10.717
62321W        W28730  17.479  39.867   0.919
62322W        W28731   2.249  11.713  11.962
62323W        W28732  44.866  19.616   0.815
62324W        W28733  16.082  34.525   4.103
62325W        W28734  22.531  43.218   4.026
62326W        W28735  39.748   5.847  12.460
62327W        W28736  37.458  29.028   2.470
62328W        W28737  34.348  12.027   2.339
62329W        W28738  21.276  39.893  12.365
62330W        W28739  41.670  41.733   1.184
62331W        W28740   7.023  30.003   2.384
62332W        W28741   0.523  43.516  13.126
62333W        W28742  13.651  12.945  11.057
62334W        W28743  40.208  24.723   2.175
62335W        W28744  31.024  33.569   0.386
62336W        W28745  20.054  44.438   1.886
62337W        W28746  38.764   0.736   3.013
62338W        W28747  32.484  36.302   1.923
62339W        W28748  16.721  23.519   2.795
62340W        W28749  23.107  43.810  12.415
62341W        W28750  31.205   0.021   4.582
62342W        W28751   1.039   7.479  10.180
62343W        W28752  10.636  21.981   4.560
62344W        W28753  22.456  12.160   0.196
62345W        W28754  20.033   1.511   2.674
62346W        W28755  18.319  16.946  12.592
62347W        W28756  33.989  23.452   2.733
62348W        W28757  20.074  27.211  11.138
62349W        W28758   3.909  29.518   1.890
62350W        W28759  33.402  32.096  14.730
62351W        W28760  43.885   1.743   2.248
62352W        W28761  13.281  14.609   0.384
62353W        W28762  34.128  37.061  11.624
62354W        W28763   7.883  40.363   0.810
62355W        W28764  37.919  40.956   2.356
62356W        W28765  42.834  27.141  14.378
62357W        W28766  19.541   3.454  13.789
62358W        W28767   9.194   1.866  11.006
62359W        W28768   4.485  19.610   2.701
62360W        W28769  42.511  25.199   4.749
62361W        W28770   4.718  28.058   2.736
62362W        W28771  40.443  12.363   2.156
62363W        W28772  15.960  14.375   0.355
62364W        W28773  42.001  21.775   3.974
62365W        W28774  34.636  10.241  13.349
62366W        W28775  29.001  28.943   2.735
62367W        W28776   3.887  28.680   4.046
62368W        W28777  20.034  40.890  12.485
62369W        W28778  13.144  32.088   2.373
62370W        W28779  41.348  42.428  13.323
62371W        W28780  38.338  28.317  14.906
62372W        W28781   6.686  40.955   0.790
62373W        W28782  40.351   1.689   2.650
62374W        W28783  43.743  35.302   1.361
62375W        W28784  19.130  14.691  10.968
62376W        W28785  43.475  34.467  12.059
62377W        W28786   8.833  33.108   0.421
62378W        W28787   9.046  13.719  13.519
62379W        W28788  31.765   4.191  11.166
62380W        W28789  22.038  33.908   0.431
62381W        W28790  36.670  34.784   2.228
62382W        W28791   4.735  37.928   0.822
62383W        W28792  44.987  19.755   0.336
62384W        W28793  36.405  44.945  11.547
62385W        W28794   9.875   1.795  13.509
62386W        W28795  10.092   9.962  12.094
62387W        W28796   0.308  31.361  11.599
62388W        W28797  31.921  29.982   3.610
62389W        W28798  33.480   0.689  11.488
62390W        W28799  20.314  21.267  12.028
62391W        W28800  28.934  18.686  12.526
62392W        W28801  44.411  26.568  13.964
62393W        W28802   1.305  28.746  13.135
62394W        W28803  31.913   4.162   3.176
62395W        W28804   9.354  40.949  10.814
62396W        W28805  15.592  24.006   2.753
62397W        W28806  40.081  15.207   2.820
62398W        W28807  13.566  20.988   3.144
62399W        W28808  34.968  13.693   0.522
62400W        W28809  42.397  10.278  12.430
62401W        W28810  31.984   4.450   0.539
62402W        W28811  43.457  20.167   0.249
62403W        W28812  30.418   2.545  10.647
62404W        W28813  27.238   7.903   2.198
62405W        W28814  40.778  38.771   1.472
62406W        W28815  13.669  39.349   1.744
62407W        W28816  13.238  21.121   1.816
62408W        W28817   2.312  33.057   1.669
62409W        W28818   0.382  20.017  12.740
62410W        W28819  20.268   3.149  13.430
62411W        W28820  20.744  19.176   4.799
62412W        W28821   8.009  25.295   9.677
62413W        W28822  37.378   9.888   3.056
62414W        W28823  10.895  36.041   2.027
62415W        W28824  29.361  23.447  13.529
62416W        W28825  31.874  26.625  12.043
62417W        W28826   2.739  35.941  12.317
62418W        W28827  17.276  43.445   3.674
62419W        W28828  26.304   8.166   2.129
62420W        W28829  41.420  17.134  12.393
62421W        W28830  28.019  32.436  11.873
62422W        W28831  37.235   5.159   1.783
62423W        W28832   4.943   7.167   1.006
62424W        W28833  18.045  14.854  14.244
62425W        W28834  11.403  11.811   2.280
62426W        W28835  44.917   5.649   3.324
62427W        W28836  39.432  39.948  13.226
62428W        W28837  14.872   9.726  14.872
62429W        W28838   7.293  10.803   1.276
62430W        W28839  34.354  35.612   0.852
62431W        W28840  16.949  32.402  13.081
62432W        W28841  36.363   7.726  10.665
62433W        W28842  25.798  17.518   2.192
62434W        W28843  37.748  13.087   3.611
62435W        W28844  29.868   2.394  10.603
62436W        W28845  14.703  32.121  11.187
62437W        W28846  11.833  24.684   2.196
62438W        W28847  25.618  33.949   4.530
62439W        W28848  30.972   5.409   0.509
62440W        W28849  20.711  13.871   3.598
62441W        W28850  12.594   5.640   2.263
62442W        W28851   1.524  34.501   3.244
62443W        W28852  38.726   2.011  11.606
62444W        W28853  14.647  42.930   4.814
62445W        W28854   0.336   1.017   3.457
62446W        W28855   6.141  30.213  13.351
62447W        W28856  12.809  25.246   4.036
62448W        W28857  42.323  36.125   1.503
62449W        W28858   5.654  10.234  11.580
62450W        W28859   8.755  44.638  11.556
62451W        W28860   2.868  34.628   0.856
62452W        W28861  15.660  34.936  10.632
62453W        W28862  13.833  21.658   3.226
62454W        W28863   1.608  40.754   0.840
62455W        W28864  14.781  19.186  14.993
62456W        W28865  20.962  32.963   4.487
62457W        W28866  39.065  31.245   0.212
62458W        W28867  17.404  23.129   3.594
62459W        W28868  37.954  32.562   0.518
62460W        W28869  33.820  12.749  10.399
62461W        W28870  44.306  20.507   1.851
62462W        W28871  31.575  29.496  11.208
62463W        W28872  27.000   9.171  12.044
62464W        W28873   6.594  31.976  12.428
62465W        W28874  30.512  10.873  12.614
62466W        W28875  16.667  27.864  10.530
62467W        W28876  12.105  34.022   0.281
62468W        W28877  15.412  35.887   3.558
62469W        W28878  40.788  36.331  13.489
62470W        W28879   8.639   5.711   0.344
62471W        W28880  38.968  24.752   2.789
62472W        W28881   2.321  44.584   3.658
62473W        W28882  44.563  24.087  10.561
62474W        W28883  39.121  34.972   4.593
62475W        W28884   6.886   7.986   1.427
62476W        W28885  43.618  36.806   3.223
62477W        W28886  13.624  25.763  12.820
62478W        W28887  15.732  29.650  12.191
62479W        W28888  35.899  25.647   2.255
62480W        W28889   4.622  27.869   2.266
62481W        W28890   1.254  20.213  13.959
62482W        W28891  38.073  34.367  14.272
62483W        W28892  43.784   7.447   1.853
62484W        W28893  43.181  13.418   2.222
62485W        W28894  32.439  34.917   2.195
62486W        W28895  17.814   9.369   3.233
62487W        W28896   1.235  32.609  13.187
62488W        W28897  33.658  28.020  13.976
62489W        W28898  15.117  39.439  10.351
62490W        W28899  16.951  18.522  14.363
62491W        W28900  37.124  39.344   4.132
62492W        W28901   9.818   4.670   2.914
62493W        W28902   5.880  44.286   4.657
62494W        W28903  11.286   0.019  12.042
62495W        W28904  14.560  19.750  13.886
62496W        W28905  36.488  16.611   3.746
62497W        W28906   9.182   6.576  10.350
62498W        W28907  11.208  20.197  13.275
62499W        W28908  39.421  36.783   2.819
62500W        W28909  29.725   7.389  13.755
62501W        W28910  33.983  21.297   1.414
62502W        W28911  30.048   7.230   3.674
62503W        W28912  14.697  41.261   2.760
62504W        W28913  20.597  32.821  12.424
62505W        W28914  25.896   7.679   0.456
62506W        W28915  40.957  43.810  11.936
62507W        W28916  40.342  43.517   4.705
62508W        W28917   5.964  36.426   0.769
62509W        W28918  15.068  36.808  13.102
62510W        W28919  21.587  39.712  11.349
62511W        W28920  20.031  43.945   3.837
62512W        W28921   9.323  42.061   1.079
62513W        W28922  42.005   4.483   0.733
62514W        W28923  17.815  19.746   4.353
62515W        W28924  39.890  28.211   0.692
62516W        W28925  30.604  12.865   3.347
62517W        W28926  30.982  16.726   1.725
62518W        W28927  10.677  44.316   2.620
62519W        W28928  35.985  41.805   0.927
62520W        W28929  27.723  12.887  12.121
62521W        W28930  12.800  24.146  10.369
62522W        W28931  15.592  19.290   0.321
62523W        W28932  13.172  12.736  14.167
62524W        W28933   3.105   5.168  11.960
62525W        W28934  44.287  33.627   3.793
62526W        W28935   8.440  37.076  10.715
62527W        W28936  41.095  19.757   3.221
62528W        W28937  20.474  22.793   2.745
62529W        W28938  17.829  11.394  13.875
62530W        W28939  16.208  18.222  10.803
62531W        W28940   1.475  18.485   0.645
62532W        W28941  36.101  29.997  12.335
62533W        W28942  39.482  30.045  11.161
62534W        W28943  42.016   5.401   3.606
62535W        W28944   8.774  29.488  10.994
62536W        W28945  19.448  30.646  11.457
62537W        W28946  18.562  42.997  10.613
62538W        W28947  44.246  19.641  11.626
62539W        W28948  20.763  29.563   2.201
62540W        W28949  24.702  40.064  14.211
62541W        W28950  12.250  43.247   5.347
62542W        W28951   5.914   7.282  10.703
62543W        W28952  34.535  11.802   1.828
62544W        W28953  39.652  31.413  13.480
62545W        W28954  11.611  23.169  12.606
62546W        W28955  18.767  21.375  10.145
62547W        W28956   7.979  25.586   3.286
62548W        W28957  28.740  34.631  14.548
62549W        W28958  18.561  34.092   4.252
62550W        W28959  23.189   3.154  10.574
62551W        W28960  40.349  27.464   3.175
62552W        W28961  31.563  16.264  11.936
62553W        W28962  27.914  29.140   0.774
62554W        W28963   1.998   9.376   0.527
62555W        W28964  29.550  26.182   3.656
62556W        W28965  30.234  14.809   1.412
62557W        W28966  14.191   7.964  12.436
62558W        W28967  44.298  23.010   4.588
62559W        W28968  33.643  35.163   0.758
62560W        W28969   4.956  21.722   0.928
62561W        W28970  37.115  24.589  14.915
62562W        W28971  40.666  17.361   0.207
62563W        W28972  36.827  19.233   2.728
62564W        W28973   4.655  41.815   0.743
62565W        W28974  41.858  42.421  12.143
62566W        W28975   4.017  38.312   2.794
62567W        W28976  35.034  24.897   0.265
62568W        W28977  41.374  10.507   3.081
62569W        W28978  14.241   7.296  14.724
62570W        W28979  31.110  42.454  14.250
62571W        W28980  18.334  43.873   0.952
62572W        W28981  13.903  13.322   2.866
62573W        W28982  24.655  34.964  10.680
62574W        W28983  17.330   7.586  12.081
62575W        W28984  16.614   8.175  12.405
62576W        W28985  16.141  18.327   1.783
62577W        W28986  38.380  21.901   1.329
62578W        W28987  31.212  34.493   2.136
62579W        W28988  44.411  31.851  10.057
62580W        W28989  40.780  21.823  11.444
62581W        W28990   6.792   9.154   0.431
62582W        W28991  29.036  16.164   2.208
62583W        W28992  34.016  10.674  12.034
62584W        W28993  35.264  16.552  12.080
62585W        W28994  36.628  41.917  12.444
62586W        W28995   7.617   2.722   2.412
62587W        W28996  34.199  41.716  11.861
62588W        W28997  37.586  27.163  12.315
62589W        W28998  13.647   1.640  12.858
62590W        W28999  11.714   4.955   3.241
62591W        W29000  11.594  32.459  11.265
62592W        W29001  28.247  17.366   1.392
62593W        W29002  23.930  34.983   3.753
62594W        W29003   2.815  32.648   1.895
62595W        W29004  32.721  38.490   4.455
62596W        W29005  26.102  36.656  12.524
62597W        W29006  24.602  38.946   3.047
62598W        W29007   9.328  29.854   2.971
62599W        W29008  35.352  36.797  11.191
62600W        W29009  41.985  40.880   3.616
62601W        W29010  37.351  21.023  14.398
62602W        W29011  12.636  25.057  14.412
62603W        W29012  30.855  34.514   0.266
62604W        W29013   3.765  25.069  10.313
62605W        W29014  23.950  31.790  12.040
62606W        W29015   5.511   7.934   0.276
62607W        W29016  41.998  14.667   0.402
62608W        W29017  42.314  43.437  12.967
62609W        W29018  41.271  24.835   0.426
62610W        W29019  44.291  39.823   4.329
62611W        W29020  20.542  40.447   1.224
62612W        W29021  25.098  18.462   2.301
62613W        W29022  15.838   5.904   3.515
62614W        W29023  20.656  38.487  12.519
62615W        W29024  22.099  15.082  12.122
62616W        W29025  22.144  40.248  12.619
62617W        W29026  35.092  19.729   0.468
62618W        W29027   1.179  40.635  14.239
62619W        W29028  38.170   9.243  13.465
62620W        W29029  32.485  15.319  10.874
62621W        W29030  38.460  26.420  11.935
62622W        W29031   9.720  16.654   3.194
62623W        W29032  20.552  43.407   0.092
62624W        W29033  30.936  14.435   3.831
62625W        W29034  43.822  38.780   3.188
62626W        W29035  10.739  20.641   0.298
62627W        W29036  39.436  34.148  12.455
62628W        W29037   3.818  40.420   3.756
62629W        W29038  41.233   0.763  11.397
62630W        W29039   0.774  30.422   1.818
62631W        W29040   6.391   8.184  11.892
62632W        W29041  29.955  25.175  13.104
62633W        W29042  28.471   1.372  13.736
62634W        W29043  38.125   9.410  12.503
62635W        W29044   0.933   1.743   3.931
62636W        W29045  20.675  20.565   4.682
62637W        W29046  20.979  22.635   4.911
62638W        W29047  17.227  39.507  13.790
62639W        W29048   4.956   3.916  12.761
62640W        W29049  15.972  13.649  11.228
62641W        W29050  35.835  18.150  10.603
62642W        W29051  42.325  17.245   4.683
62643W        W29052   9.409   9.957  13.448
62644W        W29053   6.547  15.602  12.862
62645W        W29054  32.478  19.635   1.769
62646W        W29055  20.275   5.753   4.599
62647W        W29056  17.736  42.446  12.521
62648W        W29057  41.210   0.898  11.916
62649W        W29058   0.022  25.149   1.995
62650W        W29059  29.371  11.172  14.877
62651W        W29060  16.208  24.623   4.528
62652W        W29061  38.363  36.803  13.376
62653W        W29062  15.493   1.546   1.469
62654W        W29063  37.781  30.479   3.014
62655W        W29064  17.133  30.671  12.373
62656W        W29065  26.230  25.218  14.120
62657W        W29066   2.728  36.109  10.945
62658W        W29067  17.508  38.809   2.670
62659W        W29068  18.578  29.198   1.701
62660W        W29069   3.749  12.868   2.948
62661W        W29070  30.910  17.288  14.727
62662W        W29071  38.064  36.689   3.171
62663W        W29072  28.177  38.222   3.813
62664W        W29073   2.281  41.074  10.783
62665W        W29074  19.580  14.728   2.936
62666W        W29075   6.766   2.286  12.061
62667W        W29076  39.823  13.236  14.275
62668W        W29077  37.345  27.548   1.370
62669W        W29078  27.479   0.902  14.341
62670W        W29079  33.112  21.139   4.257
62671W        W29080  40.858  15.644  12.654
62672W        W29081  18.750   8.734  13.350
62673W        W29082  23.762  33.871   2.338
62674W        W29083  17.563  25.210   0.888
62675W        W29084  31.230   8.413  11.442
62676W        W29085   5.154  12.405  12.109
62677W        W29086   5.658  42.001  10.673
62678W        W29087  38.872  11.146  11.449
62679W        W29088  22.688  30.582  14.040
62680W        W29089   6.801  22.515   4.331
62681W        W29090  39.156  25.007   0.668
62682W        W29091  33.427  37.657   0.423
62683W        W29092  31.474  36.858  13.156
62684W        W29093  31.148  24.574   2.703
62685W        W29094  34.972  22.249   2.715
62686W        W29095  15.801  35.489   0.987
62687W        W29096  28.897   3.973  13.935
62688W        W29097  28.955   8.383  14.840
62689W        W29098  31.164  31.955  10.306
62690W        W29099  28.181   7.689   3.673
62691W        W29100  36.803  31.431  13.892
62692W        W29101  33.997  44.344  12.370
62693W        W29102   9.052  20.904  10.271
62694W        W29103  34.094  27.908  13.731
62695W        W29104  43.847  34.005  10.925
62696W        W29105  23.954   7.863   0.286
62697W        W29106  34.419  31.090   3.360
62698W        W29107  33.958  24.946   3.097
62699W        W29108  44.047   9.917   1.784
62700W        W29109  23.057  23.317   2.701
62701W        W29110  41.075   5.269   4.159
62702W        W29111   9.883  23.777  13.296
62703W        W29112  38.127  39.178   4.092
62704W        W29113  24.442   3.857  13.769
62705W        W29114  31.075  29.153  12.159
62706W        W29115  41.735  10.922  12.847
62707W        W29116   9.864  29.098  14.758
62708W        W29117  32.662  26.466  12.555
62709W        W29118  19.897   1.201  12.928
62710W        W29119  36.520  27.723  10.656
62711W        W29120  42.139  29.182   2.205
62712W        W29121  17.174  44.402  11.979
62713W        W29122  32.331  20.043  13.979
62714W        W29123   1.914  18.653   2.680
62715W        W29124   7.312  34.967   1.150
62716W        W29125  34.600  13.294   0.561
62717W        W29126  17.007  42.790   4.268
62718W        W29127   2.228  35.949   3.270
62719W        W29128   6.371   2.299   1.021
62720W        W29129  41.838  35.541   2.711
62721W        W29130  23.996   0.751  10.579
62722W        W29131  20.172  26.392  12.520
62723W        W29132  16.185  42.486  14.099
62724W        W29133   7.764  25.994   3.646
62725W        W29134  31.839  10.225   3.070
62726W        W29135  43.260  11.260   1.266
62727W        W29136   4.680  42.992  13.178
62728W        W29137  12.845  32.416   0.241
62729W        W29138  37.429  21.401   1.216
62730W        W29139  24.476   8.752  12.905
62731W        W29140  37.121  34.825   3.315
62732W        W29141   1.463  33.406   0.800
62733W        W29142  37.939  24.858   2.663
62734W        W29143  34.555  20.345  11.645
62735W        W29144  13.109  10.768   1.349
62736W        W29145  21.496  40.802  11.370
62737W        W29146  42.437  14.563   2.248
62738W        W29147  39.416  29.656  13.604
62739W        W29148  16.150  31.939   1.600
62740W        W29149  25.481  43.831  13.582
62741W        W29150  27.016  41.529   2.332
62742W        W29151  30.192  33.135   2.804
62743W        W29152   6.783  32.870  13.433
62744W        W29153  10.710  41.851  14.710
62745W        W29154  19.527  10.410  11.996
62746W        W29155  11.653  41.946  12.873
62747W        W29156  18.051  34.235   4.071
62748W        W29157   9.172   1.943   1.277
62749W        W29158   0.966  40.977  13.909
62750W        W29159   3.162  15.310   1.800
62751W        W29160  16.136  24.206  14.423
62752W        W29161  41.194  13.830  12.788
62753W        W29162  10.170  30.955   4.562
62754W        W29163  29.965   2.699   4.087
62755W        W29164  15.182  37.828  13.939
62756W        W29165   2.219  41.380   2.215
62757W        W29166  31.071  40.608  14.844
62758W        W29167  36.014  22.146  11.686
62759W        W29168  18.364  18.583   2.273
62760W        W29169  23.226  10.116  11.118
62761W        W29170  28.947  15.857   1.775
62762W        W29171   8.014  20.531  11.051
62763W        W29172  40.655  39.744  10.214
62764W        W29173   1.694  24.639   0.932
62765W        W29174  13.038  11.810  12.922
62766W        W29175  12.289   0.342  13.445
62767W        W29176  30.423  17.677   4.160
62768W        W29177  35.017   0.581  11.478
62769W        W29178   2.700  14.586  11.538
62770W        W29179  37.741  36.300  12.604
62771W        W29180  42.442  44.779  11.156
62772W        W29181   5.814  44.445  12.173
62773W        W29182  41.353  17.074   4.459
62774W        W29183  40.376  43.133  11.057
62775W        W29184  32.398   5.736  14.849
62776W        W29185  42.567   8.440  12.308
62777W        W29186  24.027  28.696  10.735
62778W        W29187  41.263  11.544   2.164
62779W        W29188   7.703  27.017   4.112
62780W        W29189  18.819  22.191  11.040
62781W        W29190  10.801  30.069  13.099
62782W        W29191  38.060   7.609  11.220
62783W        W29192   4.229   9.277   2.764
62784W        W29193  29.061  15.132   3.856
62785W        W29194   5.402  16.171  14.512
62786W        W29195   3.943   0.826  13.239
62787W        W29196   5.799  43.988  14.856
62788W        W29197  26.065  32.338  14.054
62789W        W29198  25.507  39.485  14.017
62790W        W29199  44.699  22.630   1.209
62791W        W29200   8.425  18.245  13.571
62792W        W29201  14.733  28.468   1.295
62793W        W29202  22.941  35.580  12.787
62794W        W29203  43.538  44.904   0.524
62795W        W29204  16.584   0.377   1.087
62796W        W29205  32.181  31.510   1.740
62797W        W29206  32.200  14.600   3.156
62798W        W29207  41.537  13.706  14.994
62799W        W29208  23.153   5.986   4.337
62800W        W29209  19.551  28.891  10.076
62801W        W29210   6.172  12.386  13.813
62802W        W29211   0.014  16.239   0.336
62803W        W29212   0.896   9.233  12.027
62804W        W29213  19.030  19.592   2.348
62805W        W29214  20.994   9.887  14.266
62806W        W29215   2.263   9.890   1.738
62807W        W29216  33.657  30.669  14.162
62808W        W29217  44.820  31.237   3.417
62809W        W29218  36.242   7.552  13.327
62810W        W29219   1.124  16.219  14.795
62811W        W29220  28.718  26.555  11.254
62812W        W29221  39.316   6.015  13.878
62813W        W29222  36.024   4.913  10.893
62814W        W29223  35.926   9.985  12.823
62815W        W29224  29.497  12.549   0.696
62816W        W29225   4.797  36.940  13.895
62817W        W29226  20.043  12.124  10.739
62818W        W29227  33.184   0.864   3.923
62819W        W29228   0.167   6.839   4.831
62820W        W29229  30.649  43.959   1.721
62821W        W29230  43.313  38.889   0.035
62822W        W29231  44.970  14.560   2.212
62823W        W29232  21.575   4.480  13.518
62824W        W29233  27.218  19.662  10.244
62825W        W29234  28.101  27.163  11.155
62826W        W29235  23.100  44.314  12.857
62827W        W29236  31.866   4.328  12.954
62828W        W29237   9.890   4.022  13.058
62829W        W29238  24.967  18.117   3.648
62830W        W29239  16.214  27.953  13.944
62831W        W29240  34.840  42.034  11.182
62832W        W29241  11.615  34.101  12.432
62833W        W29242  20.205  21.184  12.991
62834W        W29243  40.142  17.397   0.136
62835W        W29244  32.138  25.232  10.430
62836W        W29245  10.826  10.566  12.909
62837W        W29246   9.658  36.288  13.960
62838W        W29247  21.652  28.609  13.329
62839W        W29248  12.421   7.260   1.767
62840W        W29249   6.801  25.050  14.513
62841W        W29250  16.599  33.126   0.824
62842W        W29251  11.634  37.910  13.956
62843W        W29252  40.555  39.860  14.522
62844W        W29253  10.832   0.097  14.990
62845W        W29254  13.155  39.920  12.930
62846W        W29255   2.890  38.910   3.870
62847W        W29256  23.668  22.299  13.488
62848W        W29257  41.415  39.093  12.450
62849W        W29258  43.411  17.979   2.207
62850W        W29259  43.269   3.906   1.336
62851W        W29260  32.126  18.186  14.469
62852W        W29261   9.388  39.521  11.821
62853W        W29262  24.084  37.746  10.562
62854W        W29263   9.515  23.698  14.258
62855W        W29264  42.690  11.774   4.501
62856W        W29265  31.464  25.425   0.989
62857W        W29266  22.962  17.654   4.036
62858W        W29267   2.391  37.289   0.075
62859W        W29268  25.641   7.275   3.739
62860W        W29269  18.570  23.622  14.435
62861W        W29270  31.043  33.863  10.365
62862W        W29271   4.864  15.779   4.189
62863W        W29272  13.476   6.388   3.154
62864W        W29273  26.972  23.579   1.853
62865W        W29274  32.143  34.339  11.101
62866W        W29275  13.708  16.255  11.508
62867W        W29276  28.406  43.615   1.685
62868W        W29277   5.264  17.371   9.819
62869W        W29278  21.183  21.989   2.868
62870W        W29279  33.351  23.439  10.988
62871W        W29280  27.204   9.203   3.631
62872W        W29281  29.400  37.907   2.272
62873W        W29282  19.558  35.598  10.380
62874W        W29283   1.879  21.553   4.114
62875W        W29284  10.104  42.499   3.662
62876W        W29285  23.800   6.922   4.567
62877W        W29286   2.454  21.706   3.257
62878W        W29287  44.256   4.395  11.591
62879W        W29288  28.441  28.254  11.455
62880W        W29289   6.718  40.278  11.136
62881W        W29290  17.681   5.450   1.619
62882W        W29291  35.004  37.476  13.024
62883W        W29292  31.513  36.786  11.532
62884W        W29293  16.104  13.649   4.529
62885W        W29294  17.619  18.263   2.257
62886W        W29295   1.735   7.630   4.768
62887W        W29296   8.901  42.057   2.869
62888W        W29297  39.266  26.889   0.269
62889W        W29298  43.158  34.171   0.251
62890W        W29299  39.445  40.544  11.554
62891W        W29300  25.300  20.660   1.128
62892W        W29301  25.946  17.692  11.752
62893W        W29302  29.356  43.023  14.336
62894W        W29303  12.102   3.274   1.935
62895W        W29304  13.274  25.851   0.770
62896W        W29305  12.633  35.640  12.317
62897W        W29306   1.489  43.766  14.806
62898W        W29307  31.390  42.801   3.773
62899W        W29308  12.516  43.385  14.863
62900W        W29309  30.342   4.069   4.561
62901W        W29310  21.251  44.398   3.608
62902W        W29311   2.547  24.885   1.837
62903W        W29312  40.342  27.547  12.364
62904W        W29313  29.757  14.297   1.979
62905W        W29314  42.035   6.317   2.652
62906W        W29315  31.378  41.928   0.344
62907W        W29316   9.571  18.765  11.173
62908W        W29317  26.145  23.796   5.055
62909W        W29318  17.364  39.008   3.601
62910W        W29319  27.878  17.283  11.932
62911W        W29320  42.330  34.256   3.211
62912W        W29321   5.465  30.467  13.908
62913W        W29322  24.921  20.761   0.812
62914W        W29323  44.931   9.990   0.742
62915W        W29324   3.624  13.418   1.620
62916W        W29325  28.954  15.350  13.570
62917W        W29326  19.972  26.162   0.777
62918W        W29327  40.774  25.586   2.186
62919W        W29328  27.602   7.296  14.534
62920W        W29329  36.015  32.213   2.586
62921W        W29330   0.331  38.569   3.037
62922W        W29331  34.202  31.060  11.494
62923W        W29332  34.430  44.789  12.233
62924W        W29333  38.371  40.970   4.633
62925W        W29334  16.888  23.472  11.750
62926W        W29335  35.687  20.282   1.201
62927W        W29336  13.135  29.917  12.427
62928W        W29337  18.682   3.412  14.381
62929W        W29338  33.954   1.744   2.788
62930W        W29339   1.489  31.275   2.850
62931W        W29340  31.884   7.888  14.365
62932W        W29341  17.636  29.534  12.981
62933W        W29342  14.627  36.415   0.268
62934W        W29343  18.254  34.970  10.670
62935W        W29344  10.320  15.985   3.840
62936W        W29345  12.588  16.839   3.846
62937W        W29346   6.769   6.323   3.758
62938W        W29347  12.693  12.112  11.559
62939W        W29348  29.189  13.718  11.855
62940W        W29349  43.802  43.072   0.934
62941W        W29350  44.535  39.450   2.234
62942W        W29351  32.163  38.015   2.462
62943W        W29352  10.361   8.473  14.545
62944W        W29353  28.577  13.721  14.903
62945W        W29354  22.611   3.953   1.308
62946W        W29355  39.275  17.651   2.312
62947W        W29356  26.562  41.912   3.383
62948W        W29357   9.192  23.470   3.181
62949W        W29358  25.400  11.999   2.657
62950W        W29359   2.801  25.695   0.916
62951W        W29360  17.618  36.872  12.046
62952W        W29361  10.723  44.335   1.238
62953W        W29362  10.090  28.440   2.363
62954W        W29363  29.497  10.388  13.864
62955W        W29364   4.983  21.018   0.389
62956W        W29365  40.390  17.705  13.569
62957W        W29366  32.529  19.652  11.179
62958W        W29367  28.092  35.328   2.364
62959W        W29368  27.523  32.850  11.325
62960W        W29369  23.252  38.916   1.384
62961W        W29370   9.358  42.511   4.578
62962W        W29371  15.229  28.167  14.781
62963W        W29372   8.854  44.124   1.894
62964W        W29373   6.207  28.958  10.594
62965W        W29374  43.476   9.393  11.531
62966W        W29375  44.563  16.404  14.499
62967W        W29376  14.312  31.074  10.519
62968W        W29377  16.077  41.382   5.060
62969W        W29378   7.755  15.197   0.012
62970W        W29379  41.914  11.039  10.446
62971W        W29380   8.905  29.615  10.453
62972W        W29381  14.385  25.339  10.345
62973W        W29382   4.992   2.310   0.478
62974W        W29383  37.616   2.815   2.840
62975W        W29384  17.087  28.460   2.437
62976W        W29385  21.317  36.520   1.191
62977W        W29386  39.111  36.559   0.306
62978W        W29387  18.623  38.635   1.013
62979W        W29388  19.468  12.396  12.444
62980W        W29389   2.902  26.517  12.150
62981W        W29390  25.629  23.936  11.582
62982W        W29391  25.071   0.224   2.266
62983W        W29392  39.560  26.076  12.119
62984W        W29393  28.422   6.184   4.208
62985W        W29394   8.850   8.369  13.495
62986W        W29395   9.738  26.159  13.539
62987W        W29396  14.635  32.035   2.211
62988W        W29397  35.964  33.349   0.870
62989W        W29398  25.498  21.088   4.555
62990W        W29399  27.059  10.707  12.008
62991W        W29400   4.443  41.382  10.652
62992W        W29401   8.696   3.675   1.322
62993W        W29402  36.026  11.654   3.210
62994W        W29403  18.150  22.158  13.328
62995W        W29404  41.048  11.710   3.661
62996W        W29405  44.178  25.175   5.352
62997W        W29406  43.361  17.361   4.608
62998W        W29407  24.699  39.564  11.420
62999W        W29408   7.715   4.255   3.852
63000W        W29409  34.314  42.234   3.612
63001W        W29410  42.525  22.554   2.768
63002W        W29411   0.472  28.584  10.778
63003W        W29412   3.618   6.769  14.545
63004W        W29413   6.136   2.027  12.939
63005W        W29414  17.501  17.366  10.704
63006W        W29415  43.330   4.176   4.469
63007W        W29416  38.006  18.489   2.213
63008W        W29417   7.648  35.809   2.615
63009W        W29418   1.317  21.713  14.842
63010W        W29419  15.714   7.109   2.780
63011W        W29420  43.203  43.180   1.367
63012W        W29421  19.252  11.301  14.379
63013W        W29422  35.609  34.539  11.855
63014W        W29423   4.249   9.141   2.255
63015W        W29424   7.653  35.952   3.539
63016W        W29425   9.724  18.544  11.676
63017W        W29426  29.012  22.491   1.889
63018W        W29427  32.572   2.230   3.760
63019W        W29428   5.798  37.422  14.361
63020W        W29429  38.874  36.777  13.296
63021W        W29430  29.575  12.328   3.781
63022W        W29431   1.319  20.003  12.554
63023W        W29432  33.186  13.206   0.371
63024W        W29433  27.541  17.516  10.631
63025W        W29434   3.504  19.299  14.947
63026W        W29435  43.245  43.264   2.312
63027W        W29436  32.638  17.132   2.406
63028W        W29437  12.253  40.886   1.416
63029W        W29438  32.818  30.663  11.179
63030W        W29439   6.689  32.002  11.534
63031W        W29440   1.713   2.240  12.049
63032W        W29441  33.656  18.569   4.167
63033W        W29442  17.122  28.484   9.943
63034W        W29443  12.845  16.360   3.712
63035W        W29444  10.200  16.117  11.551
63036W        W29445  43.225  16.694  12.483
63037W        W29446  18.851  37.128  13.067
63038W        W29447  25.561  37.981  12.581
63039W        W29448  13.662  14.929  12.292
63040W        W29449  34.045  12.274  10.420
63041W        W29450  24.100  13.241   2.869
63042W        W29451  20.379  14.243   4.530
63043W        W29452   5.772  28.098  14.228
63044W        W29453  25.926  25.980  14.468
63045W        W29454  26.958  11.598   4.127
63046W        W29455  10.572   2.494  13.295
63047W        W29456  24.007  20.333   2.177
63048W        W29457  44.340  20.508   4.730
63049W        W29458  36.460  24.430  11.075
63050W        W29459  17.301   2.804   2.408
63051W        W29460   5.033  14.168   1.288
63052W        W29461  29.346  19.484  10.719
63053W        W29462  37.623  32.804   2.544
63054W        W29463  12.671  39.450   4.593
63055W        W29464  13.157   9.159  13.044
63056W        W29465  22.275  12.209  13.556
63057W        W29466  24.999   4.344  14.534
63058W        W29467  44.497  44.861  14.894
63059W        W29468  24.784  14.078   1.293
63060W        W29469  13.860   3.984   2.135
63061W        W29470  23.690  39.999   4.072
63062W        W29471  34.518  29.707   4.135
63063W        W29472  29.104   0.563   2.923
63064W        W29473  18.662  28.577  11.930
63065W        W29474   6.207  11.913  13.000
63066W        W29475  34.660  17.816   1.423
63067W        W29476  12.620   9.555   1.224
63068W        W29477   3.695  12.410   1.843
63069W        W29478   1.520  21.548   2.821
63070W        W29479  36.825  22.596  14.551
63071W        W29480   8.992  25.781   3.231
63072W        W29481  21.520  38.780   1.833
63073W        W29482  33.458  11.798  12.434
63074W        W29483  39.128  36.028   9.961
63075W        W29484  28.184  39.424   2.184
63076W        W29485  27.976   7.775   4.477
63077W        W29486  12.701  35.887   4.579
63078W        W29487  18.809  25.521  11.980
63079W        W29488  14.158   0.394   4.651
63080W        W29489  23.203  29.336   0.399
63081W        W29490  28.656  39.765   3.144
63082W        W29491  18.829  38.138  13.889
63083W        W29492  21.813   2.529  13.150
63084W        W29493  37.470  34.456   1.879
63085W        W29494  29.879  38.517   2.937
63086W        W29495   2.976   3.782  13.911
63087W        W29496  25.746  22.084   1.889
63088W        W29497   4.339  22.422   3.773
63089W        W29498  10.302   4.245   1.328
63090W        W29499  44.556  35.284   4.959
63091W        W29500  14.289  42.594  14.856
63092W        W29501   0.348  41.252  10.630
63093W        W29502  44.766  39.781  11.159
63094W        W29503  37.648  30.524  10.721
63095W        W29504   2.348   1.686  12.292
63096W        W29505  27.595   6.814   9.771
63097W        W29506  43.944  11.623   0.479
63098W        W29507  23.804  28.554   1.113
63099W        W29508  41.557  22.648   3.687
63100W        W29509  10.936   7.272   3.563
63101W        W29510  37.697   5.729  13.559
63102W        W29511  32.010  32.992   0.718
63103W        W29512  21.367  14.807  13.833
63104W        W29513  14.772  38.903  12.307
63105W        W29514   0.484  17.809  13.515
63106W        W29515  16.548  21.256  12.001
63107W        W29516   6.488  21.991  13.564
63108W        W29517  20.826  15.091   0.406
63109W        W29518   4.277  23.638   3.567
63110W        W29519  32.759   1.050  11.227
63111W        W29520   7.862  23.291  14.998
63112W        W29521  36.493   2.366  11.114
63113W        W29522  10.388  26.237   2.859
63114W        W29523   8.810  35.463   2.068
63115W        W29524   4.830  24.698   3.315
63116W        W29525  31.011  43.094  14.857
63117W        W29526  16.196   8.900  14.945
63118W        W29527  32.043  21.731   3.088
63119W        W29528  14.103  13.705  14.448
63120W        W29529   6.272  25.507   2.423
63121W        W29530  16.614  42.778   3.033
63122W        W29531  25.667  16.621  13.902
63123W        W29532  38.932  13.762  11.127
63124W        W29533  33.793  44.813  11.497
63125W        W29534  43.222   3.841  13.088
63126W        W29535  27.574  44.067  12.659
63127W        W29536  11.650  31.965  12.555
63128W        W29537   7.502  35.359   4.585
63129W        W29538   8.283  18.368  14.908
63130W        W29539  12.828  34.632  11.074
63131W        W29540   1.486  17.521  14.380
63132W        W29541  13.085   9.635  12.922
63133W        W29542  44.473  15.594   4.857
63134W        W29543  32.429   7.910  13.340
63135W        W29544  37.130   1.540   2.736
63136W        W29545  44.287  24.611  11.080
63137W        W29546  16.700  13.682  11.516
63138W        W29547  38.683  19.273   2.349
63139W        W29548  42.578   1.346  13.421
63140W        W29549  13.312  27.274   3.144
63141W        W29550  16.156   9.548  13.925
63142W        W29551  11.117  13.423   4.272
63143W        W29552   9.887  29.999  14.829
63144W        W29553  34.096  42.685   4.177
63145W        W29554  36.647  20.074  13.230
63146W        W29555  20.526   7.272   4.463
63147W        W29556  24.012  29.955  14.718
63148W        W29557  41.268  33.904  14.381
63149W        W29558  42.805  35.409   1.026
63150W        W29559  18.340  18.772  13.486
63151W        W29560  44.297  40.721   3.635
63152W        W29561  41.538  36.880  11.348
63153W        W29562   9.028   8.326  10.723
63154W        W29563  11.736   0.688   2.283
63155W        W29564  26.466  11.205  14.915
63156W        W29565   8.335  44.998   1.056
63157W        W29566  29.664  39.826  12.434
63158W        W29567   7.816  35.876  13.850
63159W        W29568  17.332  18.100   0.946
63160W        W29569  16.315   0.717   4.575
63161W        W29570  14.885  24.126  12.968
63162W        W29571   3.010   5.478  13.497
63163W        W29572  28.181  32.963  12.915
63164W        W29573  10.632  10.761   3.701
63165W        W29574  16.029  30.572   1.746
63166W        W29575  11.864  20.520   2.792
63167W        W29576  18.240  21.674   2.105
63168W        W29577  11.256  28.362   2.016
63169W        W29578   1.295  44.687   0.285
63170W        W29579  16.268  37.309  13.548
63171W        W29580  12.753  32.452   4.969
63172W        W29581   0.902  20.615   1.211
63173W        W29582  13.175  20.613   1.995
63174W        W29583   0.917  39.430  13.932
63175W        W29584  11.243  27.893   4.175
63176W        W29585  15.825  15.803   4.587
63177W        W29586  28.089  21.132   4.601
63178W        W29587  29.676   6.587  14.778
63179W        W29588  12.070  25.313   0.591
63180W        W29589  20.669   5.786   0.787
63181W        W29590  23.205  36.002  14.428
63182W        W29591   4.431  31.912   2.396
63183W        W29592  36.105  17.005   2.524
63184W        W29593  44.842  22.152  10.702
63185W        W29594  40.384  11.935   1.154
63186W        W29595   0.001  18.858   2.422
63187W        W29596  43.014  40.980  10.637
63188W        W29597  10.167   6.933   4.886
63189W        W29598  17.490  42.439   0.775
63190W        W29599   9.726  17.562   4.633
63191W        W29600  27.017  15.182  11.596
63192W        W29601  25.762  34.862  13.912
63193W        W29602   3.256  39.091  13.298
63194W        W29603   6.175  15.352   2.844
63195W        W29604  30.769  34.149   1.469
63196W        W29605   8.378  28.873  13.553
63197W        W29606  42.853  10.356  12.635
63198W        W29607  41.343  24.420  13.733
63199W        W29608  31.797  21.974  10.831
63200W        W29609  20.031   4.410  12.556
63201W        W29610  21.477  18.996   0.517
63202W        W29611  10.926  42.893   1.662
63203W        W29612   3.537   1.299  13.918
63204W        W29613  25.464  42.881   0.412
63205W        W29614  19.739  40.112   1.017
63206W        W29615  13.568  21.765  13.607
63207W        W29616  42.565  18.877   0.659
63208W        W29617  19.707   6.208   2.246
63209W        W29618  43.277  17.235   0.941
63210W        W29619  16.301  26.339  12.321
63211W        W29620  44.875  29.969   1.814
63212W        W29621  35.134   6.421   4.965
63213W        W29622  31.062  11.373   3.982
63214W        W29623   4.879  18.357   2.073
63215W        W29624   2.346  37.196   3.356
63216W        W29625  35.346  29.620   2.724
63217W        W29626  34.675  43.079   2.781
63218W        W29627  28.395  23.805  14.817
63219W        W29628  41.023   9.864   2.303
63220W        W29629  22.268  23.472   4.636
63221W        W29630   9.478  33.501  11.981
63222W        W29631  35.864  39.349  13.965
63223W        W29632  23.241  24.212   0.466
63224W        W29633  38.813   8.352   1.867
63225W        W29634  18.538  25.963  13.381
63226W        W29635   5.240  44.037  14.048
63227W        W29636  32.627   3.438  11.192
63228W        W29637  37.286  16.198  11.113
63229W        W29638  27.128  40.452   0.363
63230W        W29639  18.268  21.080  12.056
63231W        W29640  36.930  36.665   3.417
63232W        W29641   0.378  19.274   3.833
63233W        W29642  17.608  44.673  14.947
63234W        W29643  42.826  20.281   2.903
63235W        W29644   7.862  25.678  13.134
63236W        W29645   4.487  29.272   2.287
63237W        W29646  11.612  18.643   0.242
63238W        W29647  16.805  21.988  13.941
63239W        W29648  31.709  20.753  14.245
63240W        W29649  12.155  30.667  13.324
63241W        W29650  12.782   5.281   4.794
63242W        W29651   9.774  44.171   4.211
63243W        W29652  11.267   4.148  12.119
63244W        W29653   3.677  26.749   1.273
63245W        W29654  13.644  41.498   3.821
63246W        W29655   1.746   7.651   4.235
63247W        W29656  42.872  30.631  12.581
63248W        W29657  26.116  13.325  10.642
63249W        W29658  29.664  30.483  13.433
63250W        W29659   7.580  31.834   3.564
63251W        W29660   6.485  18.284  12.003
63252W        W29661  24.633  43.462   4.196
63253W        W29662  15.346  34.899   1.702
63254W        W29663  24.138  20.746  13.890
63255W        W29664  39.584  25.743   1.805
63256W        W29665  27.861  34.282  14.301
63257W        W29666  40.875  41.463  13.942
63258W        W29667   1.543   2.199  12.844
63259W        W29668  41.084  23.439   0.929
63260W        W29669  42.506  34.929  13.524
63261W        W29670  24.700  12.129   4.570
63262W        W29671  24.171   9.634   2.748
63263W        W29672  19.101  16.580   3.151
63264W        W29673  19.761   5.908  11.305
63265W        W29674  14.907  44.986   4.842
63266W        W29675  32.497  34.393  13.420
63267W        W29676  15.141  13.494   3.207
63268W        W29677   8.841  25.160   0.288
63269W        W29678  14.391  25.538  14.402
63270W        W29679  13.649  15.106   0.449
63271W        W29680  12.854   3.443   0.351
63272W        W29681  11.049  43.241  14.958
63273W        W29682  36.620  22.420  11.035
63274W        W29683  15.756   4.523   0.304
63275W        W29684  13.073  23.312  13.455
63276W        W29685  28.144   1.079   5.096
63277W        W29686  33.373  28.334  14.981
63278W        W29687  32.459  44.957   2.596
63279W        W29688   2.986  35.897   0.435
63280W        W29689  28.247  10.957  10.584
63281W        W29690   3.928   3.156  13.089
63282W        W29691  20.584  23.951  11.039
63283W        W29692  11.756  20.579   3.285
63284W        W29693  15.814   4.645   2.751
63285W        W29694   8.781  14.576   3.759
63286W        W29695  28.907  14.715  13.962
63287W        W29696  29.768   5.471   1.346
63288W        W29697   7.258  11.927   3.829
63289W        W29698   8.706  39.628  11.104
63290W        W29699  31.440   5.399  14.582
63291W        W29700  36.534  30.488   0.847
63292W        W29701  39.093  39.434   0.166
63293W        W29702  38.526  37.986  12.165
63294W        W29703  23.776  29.642  12.487
63295W        W29704  10.580  19.269   2.620
63296W        W29705  12.748  20.045  10.373
63297W        W29706  38.482  12.396   3.356
63298W        W29707   9.565  41.241   2.141
63299W        W29708  11.833   5.325  10.368
63300W        W29709  32.660  20.069  10.563
63301W        W29710  41.885  14.160   2.112
63302W        W29711  41.417   7.122   1.796
63303W        W29712  19.154   2.808   1.470
63304W        W29713  42.199  40.179  13.244
63305W        W29714  14.229  41.767   2.375
63306W        W29715  16.359  25.387   3.203
63307W        W29716  36.981  31.601   1.523
63308W        W29717  44.547  31.949  10.568
63309W        W29718  15.629  42.467  14.909
63310W        W29719  35.815  29.095  14.370
63311W        W29720  21.655  43.090  11.190
63312W        W29721  39.559  25.192   4.135
63313W        W29722  36.913  37.357   4.183
63314W        W29723  44.084  15.175  13.923
63315W        W29724  27.939  31.612  14.351
63316W        W29725  42.422  36.409  12.341
63317W        W29726  41.338  27.509  13.563
63318W        W29727  29.153  36.861  12.464
63319W        W29728   8.895  40.808  10.577
63320W        W29729   0.569   1.033  14.240
63321W        W29730  15.155  31.663  12.979
63322W        W29731  20.821  33.185   0.935
63323W        W29732  28.167  38.740  13.346
63324W        W29733  36.348  25.417  13.538
63325W        W29734  43.479  33.788   0.339
63326W        W29735  22.505  43.409   1.410
63327W        W29736  33.987  35.045  14.258
63328W        W29737  14.254   1.804   5.048
63329W        W29738  30.795  23.564   5.191
63330W        W29739  16.634  26.218  14.510
63331W        W29740   7.731  30.872   0.926
63332W        W29741  12.752  28.268  12.034
63333W        W29742  41.506   9.957   0.271
63334W        W29743  41.926  19.953   1.396
63335W        W29744  21.240  11.608  12.653
63336W        W29745  26.598  12.235   3.394
63337W        W29746   0.269  19.095   2.828
63338W        W29747  41.966  29.540   4.802
63339W        W29748  16.606  10.255   1.919
63340W        W29749  21.989   1.422   0.013
63341W        W29750  40.546  30.688  12.628
63342W        W29751  33.575  16.888   0.066
63343W        W29752  34.313  13.741  11.894
63344W        W29753  35.030  24.201  12.498
63345W        W29754  31.904  43.703   0.904
63346W        W29755  34.872  28.195   4.607
63347W        W29756  36.915  18.058   2.335
63348W        W29757  22.384  44.868   4.433
63349W        W29758  43.738  40.908  11.168
63350W        W29759  28.009  19.087   2.919
63351W        W29760   1.466  31.292  12.843
63352W        W29761   5.419  40.262   4.184
63353W        W29762  10.051  24.122  11.383
63354W        W29763  18.568  43.456   1.730
63355W        W29764  27.713   3.664  10.381
63356W        W29765  39.851  11.192  10.268
63357W        W29766  10.818   0.551  13.268
63358W        W29767  18.800  31.450  12.504
63359W        W29768  32.008  39.895  14.448
63360W        W29769   9.386  33.491  12.955
63361W        W29770  13.799  33.150  11.079
63362W        W29771   7.434  12.598   0.799
63363W        W29772  17.586  27.436   0.388
63364W        W29773  32.424  13.888  13.714
63365W        W29774  35.869  42.148   3.364
63366W        W29775  23.923  15.540  13.501
63367W        W29776  19.980  17.080   3.156
63368W        W29777  25.518   5.421   1.761
63369W        W29778  10.942  31.000  11.613
63370W        W29779  13.074  18.262   4.200
63371W        W29780  10.562   8.243   3.689
63372W        W29781  11.897  30.815  10.777
63373W        W29782   9.326  20.160   1.505
63374W        W29783  35.020  38.118  13.836
63375W        W29784  31.484  13.393  14.349
63376W        W29785   0.009   3.347  12.057
63377W        W29786   7.412  11.690  10.674
63378W        W29787   3.248  32.586   4.658
63379W        W29788   4.786  18.742  13.020
63380W        W29789  32.175   3.412  12.038
63381W        W29790  15.353  37.614   4.001
63382W        W29791  37.145  21.652   3.152
63383W        W29792  35.657   4.192  13.522
63384W        W29793  11.239  24.944  13.647
63385W        W29794  36.464  19.233   3.657
63386W        W29795  44.226  12.439  13.074
63387W        W29796   2.493  23.032  14.108
63388W        W29797  15.282  25.135   0.975
63389W        W29798  28.713  19.762  12.382
63390W        W29799  38.074  27.799   1.598
63391W        W29800  30.466  20.534  11.067
63392W        W29801  26.433  10.308   1.454
63393W        W29802  28.154   1.563  14.561
63394W        W29803  12.623  15.759  12.519
63395W        W29804  40.521  26.560   2.323
63396W        W29805  24.146   6.222   2.319
63397W        W29806  29.440   6.321   4.158
63398W        W29807   2.293  44.771   1.908
63399W        W29808  40.494  22.498   0.095
63400W        W29809  17.698  15.640   3.562
63401W        W29810   8.933  18.209  13.572
63402W        W29811  27.549  23.089   0.280
63403W        W29812  35.139  11.561   4.413
63404W        W29813  42.563   8.844  11.980
63405W        W29814   0.292  25.235   3.237
63406W        W29815  16.113   5.305  14.124
63407W        W29816  43.704  28.591   0.361
63408W        W29817  44.621  12.206   1.735
63409W        W29818   2.837  32.379   2.346
63410W        W29819  41.497   1.245   1.730
63411W        W29820  11.281  32.596   3.330
63412W        W29821  16.727  31.656   3.708
63413W        W29822   8.350  33.872  14.324
63414W        W29823  10.795  37.319   2.310
63415W        W29824  41.040   9.262   0.160
63416W        W29825  13.316  11.738   3.242
63417W        W29826  18.549  21.125  11.497
63418W        W29827   0.774  36.383  10.668
63419W        W29828  19.168   2.274  12.623
63420W        W29829   2.833  30.678  10.740
63421W        W29830  14.757  16.849  10.970
63422W        W29831  25.724   1.366  13.467
63423W        W29832  12.228  36.680   1.233
63424W        W29833  16.317  15.796  12.553
63425W        W29834  41.500   0.044  12.094
63426W        W29835  19.873   7.899  14.905
63427W        W29836  10.250  15.874   9.981
63428W        W29837  29.240  32.406  12.469
63429W        W29838  25.216  21.847  12.996
63430W        W29839   4.391  15.106  12.815
63431W        W29840   2.320  13.346  13.425
63432W        W29841   3.927  43.411  11.679
63433W        W29842  39.257  21.225   1.903
63434W        W29843  15.173   8.792   1.747
63435W        W29844  35.488  25.957  11.385
63436W        W29845  31.671  13.727   3.121
63437W        W29846  10.065  29.653   2.035
63438W        W29847  18.655   1.362   0.120
63439W        W29848  36.184  36.072  12.058
63440W        W29849  37.737   7.860  13.479
63441W        W29850  34.780  33.891  13.159
63442W        W29851  36.306   0.440   1.473
63443W        W29852  12.824  27.541   1.275
63444W        W29853  18.574  34.638  13.424
63445W        W29854   4.865  27.427   0.141
63446W        W29855  10.766   0.748   1.323
63447W        W29856  31.603  40.738   2.638
63448W        W29857  37.876  22.780  12.919
63449W        W29858   8.823  34.575  14.231
63450W        W29859  40.889  12.324   1.832
63451W        W29860   3.705  39.188   0.260
63452W        W29861   1.897  27.425  13.319
63453W        W29862  32.065  31.792  13.835
63454W        W29863  36.987   0.326   5.019
63455W        W29864  37.407  33.810   1.036
63456W        W29865  18.276  34.053  13.030
63457W        W29866  34.521  19.574   3.208
63458W        W29867  30.410  23.239   2.833
63459W        W29868  44.437  29.108  13.091
63460W        W29869  17.554  11.904   4.600
63461W        W29870  39.571  41.955   0.007
63462W        W29871  44.956  11.815  13.455
63463W        W29872  29.272  22.494  13.105
63464W        W29873  31.999  37.820  13.881
63465W        W29874  43.228  37.369  14.395
63466W        W29875   6.161   8.324  10.893
63467W        W29876  39.877  23.188  13.419
63468W        W29877  20.280   3.658  13.509
63469W        W29878  38.337  23.369  13.374
63470W        W29879  15.113  13.267   0.173
63471W        W29880  33.474  19.789  12.902
63472W        W29881  26.557  35.630  12.091
63473W        W29882  13.221  15.262   0.721
63474W        W29883  40.835  19.553  10.755
63475W        W29884  15.608  44.420   0.415
63476W        W29885  44.452  40.998  14.721
63477W        W29886   5.045  24.505   0.216
63478W        W29887  24.009  44.301   0.198
63479W        W29888  20.714  37.598   2.191
63480W        W29889  30.237   7.346  13.731
63481W        W29890   3.874  12.812   3.452
63482W        W29891  19.308  41.631   3.656
63483W        W29892  41.935  17.283  12.385
63484W        W29893  17.299  19.140  13.915
63485W        W29894  33.552   6.763   0.317
63486W        W29895  24.800   3.095   4.558
63487W        W29896  18.093  42.975  10.361
63488W        W29897  21.967  15.826   4.303
63489W        W29898  36.754  22.149   3.855
63490W        W29899  31.933  41.483  11.159
63491W        W29900   9.218  12.641   2.931
63492W        W29901   2.793   9.439   0.950
63493W        W29902  13.865  30.054  10.610
63494W        W29903  34.687  37.021  12.444
63495W        W29904  13.635  14.487  11.195
63496W        W29905  31.655  27.988   2.351
63497W        W29906  32.778  32.002   5.490
63498W        W29907  13.277  42.569   0.911
63499W        W29908  17.874  37.841   3.399
63500W        W29909  21.008  14.249  12.831
63501W        W29910  25.172  44.825  13.949
63502W        W29911  34.071  32.031   3.736
63503W        W29912  15.751   9.141  14.874
63504W        W29913  12.326  42.721  11.803
63505W        W29914   5.782  22.013  13.077
63506W        W29915  23.725  28.617  14.319
63507W        W29916  10.605   9.607  14.286
63508W        W29917   1.935  33.401  13.499
63509W        W29918  44.931   0.515  11.693
63510W        W29919  23.567  29.434  11.669
63511W        W29920  31.660   6.724  14.011
63512W        W29921   0.194  37.576   0.967
63513W        W29922   2.348  33.261  11.185
63514W        W29923  18.671  37.293  14.891
63515W        W29924  22.952  40.529   2.427
63516W        W29925  33.050  22.184  12.766
63517W        W29926  13.683  43.986  13.872
63518W        W29927  40.647  25.952   3.074
63519W        W29928  40.880  40.733   4.564
63520W        W29929  15.645  33.090   4.127
63521W        W29930  32.387  41.494   1.237
63522W        W29931  36.376   2.211   1.336
63523W        W29932  44.876  21.515  12.051
63524W        W29933  30.366  35.385  14.306
63525W        W29934   7.263  31.069   1.842
63526W        W29935  13.232  38.757   0.045
63527W        W29936  40.329  29.096   2.739
63528W        W29937   3.807   5.434  12.562
63529W        W29938  13.796  33.400  12.887
63530W        W29939  20.259  31.971  11.686
63531W        W29940  26.675   2.332   3.808
63532W        W29941  14.858  28.984  11.588
63533W        W29942   5.695  13.759   1.401
63534W        W29943   4.716  14.531   1.040
63535W        W29944  37.963  43.459   0.976
63536W        W29945  14.438  22.907   3.306
63537W        W29946  14.210  21.283   2.749
63538W        W29947  12.301  44.421   1.163
63539W        W29948   9.134  20.252   3.294
63540W        W29949  27.729   0.931  11.157
63541W        W29950  41.536   6.301   2.396
63542W        W29951  21.268  29.971   1.834
63543W        W29952  29.323   1.484   4.178
63544W        W29953  36.718   5.773  14.948
63545W        W29954  11.795  10.093   1.411
63546W        W29955   8.705   4.726   1.422
63547W        W29956   0.459  20.016  14.576
63548W        W29957   7.326  28.883  12.270
63549W        W29958  29.242  27.424  12.352
63550W        W29959  41.324  33.376  14.873
63551W        W29960  17.426   8.652  12.487
63552W        W29961   3.714  42.954   3.820
63553W        W29962   3.241  43.611   0.222
63554W        W29963   0.637  11.182   2.366
63555W        W29964  16.963  22.838  10.298
63556W        W29965  12.200  36.416  12.926
63557W        W29966  36.027  36.523   1.162
63558W        W29967  16.889  28.754   1.313
63559W        W29968  20.735  37.889  11.440
63560W        W29969  35.552  19.126  13.688
63561W        W29970  33.465  39.006  11.538
63562W        W29971  32.000  19.605  12.773
63563W        W29972  35.114  16.657  11.085
63564W        W29973  33.879  37.276  10.771
63565W        W29974  42.917  15.194  12.100
63566W        W29975  31.861  31.929   1.851
63567W        W29976   8.803  28.967  11.091
63568W        W29977  20.926  41.629  14.749
63569W        W29978  39.502  28.060   1.010
63570W        W29979  42.288  35.418   4.657
63571W        W29980  40.694  42.332  13.792
63572W        W29981  43.904  34.209   2.826
63573W        W29982  41.380  33.622  11.144
63574W        W29983  38.372   8.589  12.499
63575W        W29984  13.945  20.677  14.518
63576W        W29985   1.870  16.809   0.218
63577W        W29986  35.241  40.035   0.356
63578W        W29987   4.288   8.192  10.963
63579W        W29988   1.950   7.744   1.239
63580W        W29989  13.612  17.722  10.626
63581W        W29990  30.253  39.489  14.389
63582W        W29991  35.469  41.967  13.435
63583W        W29992   2.393  33.626  12.519
63584W        W29993   1.967   4.442   2.627
63585W        W29994  10.877  17.207   4.519
63586W        W29995  14.073  40.144  14.911
63587W        W29996  36.524  11.090   4.357
63588W        W29997  21.715  41.857  13.289
63589W        W29998   9.353  43.071  10.129
63590W        W29999  35.471  35.134  12.427
63591W        W30000  33.991  38.403   0.754
63592W        W30001   7.788  30.365   0.974
63593W        W30002  22.405  18.809  13.565
63594W        W30003  17.845   9.785  13.057
63595W        W30004   8.496  23.849   3.904
63596W        W30005   8.314  28.862  12.617
63597W        W30006   3.994  14.154  13.070
63598W        W30007  28.965  29.467   0.019
63599W        W30008  23.492  39.382   2.409
63600W        W30009  13.346  39.842   4.323
63601W        W30010  17.664  26.649  12.347
63602W        W30011  28.653  23.763  14.342
63603W        W30012  42.974  23.138  10.714
63604W        W30013  28.612  23.169   2.831
63605W        W30014  12.329  26.994  14.247
63606W        W30015   3.823  20.271   4.252
63607W        W30016  42.063   4.426   4.099
63608W        W30017   3.988  14.981   3.469
63609W        W30018  31.023  40.206  12.591
63610W        W30019  11.687  23.507  14.435
63611W        W30020  26.471  11.365  13.937
63612W        W30021   2.040  13.199   0.864
63613W        W30022  33.032   3.578   0.332
63614W        W30023   4.287   2.056   0.266
63615W        W30024   6.489  44.360   1.866
63616W        W30025  41.687  35.955  10.201
63617W        W30026  40.282  26.045   3.412
63618W        W30027   4.497  31.803   3.735
63619W        W30028  33.047  10.295   4.559
63620W        W30029  40.341  22.930  13.444
63621W        W30030  42.932  25.713   3.082
63622W        W30031  38.465  13.298  14.882
63623W        W30032  28.173  35.694  13.592
63624W        W30033  27.435  16.448  10.759
63625W        W30034  23.189   3.830  14.342
63626W        W30035  35.784  15.141  11.680
63627W        W30036  33.187  36.540  10.975
63628W        W30037  18.097  15.290  13.392
63629W        W30038   5.743  21.021  12.044
63630W        W30039  37.509  17.120   0.542
63631W        W30040  31.427  37.357  12.385
63632W        W30041   5.339   7.930  13.001
63633W        W30042  25.710  18.013  11.194
63634W        W30043  15.301  27.311   1.748
63635W        W30044  34.873  20.875  14.279
63636W        W30045  26.542  38.324   4.972
63637W        W30046  37.552  37.195  11.754
63638W        W30047  34.273  36.640   1.999
63639W        W30048  36.361   0.129  13.833
63640W        W30049  23.964   2.195  13.565
63641W        W30050  13.862  34.960  11.249
63642W        W30051   5.351  21.010   3.676
63643W        W30052   4.053   0.272   1.271
63644W        W30053  26.141  20.304  10.605
63645W        W30054  24.637  26.463   2.024
63646W        W30055  37.997  37.614   3.301
63647W        W30056  13.739   9.721   3.593
63648W        W30057  14.153  38.971   3.335
63649W        W30058   8.974  31.865  10.188
63650W        W30059  13.614  37.388   0.116
63651W        W30060  14.302   1.264  14.466
63652W        W30061  44.418  11.143  11.333
63653W        W30062  10.215  20.157   5.000
63654W        W30063  44.083   6.492  11.123
63655W        W30064  39.093  36.554   9.913
63656W        W30065   2.261   6.005   4.953
63657W        W30066  18.507  25.917  11.894
63658W        W30067  15.178  16.185   0.787
63659W        W30068  23.483  12.289   2.271
63660W        W30069  42.072  38.325  11.643
63661W        W30070   4.029  31.993   1.337
63662W        W30071  34.317  22.511  10.769
63663W        W30072  36.722  43.279  10.767
63664W        W30073  31.395   3.878   1.268
63665W        W30074  17.991  31.372   1.324
63666W        W30075  27.076  35.216   3.210
63667W        W30076  35.977  31.996  12.904
63668W        W30077  21.268  41.367  14.325
63669W        W30078  15.494   3.337   2.643
63670W        W30079  35.539  11.271   4.620
63671W        W30080  30.507  38.137  14.518
63672W        W30081  33.518  19.397   4.842
63673W        W30082  31.375  21.226   3.681
63674W        W30083  16.580  23.147   4.105
63675W        W30084  36.873  27.402   1.233
63676W        W30085   2.440  40.088   4.518
63677W        W30086  42.611  40.943  13.870
63678W        W30087  28.860  22.723   0.804
63679W        W30088  17.614  24.604   3.067
63680W        W30089  24.977  11.776  13.213
63681W        W30090  34.849  15.799  14.914
63682W        W30091  30.031   5.481  11.636
63683W        W30092  28.433   5.203  11.125
63684W        W30093   4.813  36.332   2.047
63685W        W30094   2.895   0.761  14.368
63686W        W30095  17.185  34.835  13.700
63687W        W30096  19.513  10.953   2.911
63688W        W30097  37.623  11.063  12.118
63689W        W30098  20.407  41.708  14.919
63690W        W30099   3.318   2.245   1.953
63691W        W30100  39.816  23.526  13.841
63692W        W30101   7.876  42.312  14.799
63693W        W30102  26.556   2.716   2.048
63694W        W30103  41.875  35.464  11.968
63695W        W30104  34.896  42.259  12.468
63696W        W30105  11.142  14.125   4.987
63697W        W30106  13.626  30.124  12.369
63698W        W30107  10.147   3.925   2.735
63699W        W30108  25.668  35.062  11.418
63700W        W30109   1.815  39.680  14.118
63701W        W30110  27.641  42.003  14.367
63702W        W30111  36.479  12.763  11.097
63703W        W30112  38.940  28.031  10.689
63704W        W30113  38.259  35.603  12.443
63705W        W30114  16.769  39.960   2.245
63706W        W30115  31.004   4.893   2.153
63707W        W30116   9.903  44.587  11.964
63708W        W30117   2.905  13.609  14.810
63709W        W30118  41.588  21.087   4.882
63710W        W30119  27.769  33.433  13.782
63711W        W30120  29.040  44.516   2.774
63712W        W30121  44.619  22.685  12.739
63713W        W30122   0.043  11.025   2.327
63714W        W30123  15.920  34.882   2.698
63715W        W30124  34.912  36.223   3.712
63716W        W30125   0.955   9.315   1.332
63717W        W30126   1.559  11.565  10.008
63718W        W30127  31.465  20.085   0.936
63719W        W30128  19.823  26.300   4.187
63720W        W30129  22.729  30.941  11.405
63721W        W30130   2.714   9.400   1.489
63722W        W30131   2.465  14.128  14.102
63723W        W30132  36.572  36.079  11.508
63724W        W30133  10.304   2.813   0.190
63725W        W30134  27.618  20.172  14.339
63726W        W30135  12.368  42.840   5.007
63727W        W30136  11.476  35.050   2.663
63728W        W30137  14.740  21.348   3.685
63729W        W30138  11.810   9.389  13.947
63730W        W30139  20.742  29.540  13.317
63731W        W30140  11.693  12.896  14.508
63732W        W30141  43.171  33.008   0.408
63733W        W30142   8.553  31.419  11.956
63734W        W30143  17.686  44.410   1.443
63735W        W30144   5.905  22.768  13.344
63736W        W30145  33.745   6.029   1.209
63737W        W30146  34.593   0.997   3.639
63738W        W30147  32.679   1.379   4.845
63739W        W30148  15.643   2.687  13.414
63740W        W30149  35.777  25.898  12.150
63741W        W30150  27.079  12.225   3.621
63742W        W30151  30.649   7.807   4.601
63743W        W30152  37.497   4.678   4.185
63744W        W30153  38.767  41.842   1.934
63745W        W30154  10.936  34.908  11.528
63746W        W30155  36.401  24.205  14.903
63747W        W30156   6.610   1.233   2.322
63748W        W30157  11.199   4.985   5.035
63749W        W30158  15.300  26.005   0.562
63750W        W30159  31.485  38.051   0.353
63751W        W30160  43.006  37.988  11.017
63752W        W30161   6.190  27.926  12.478
63753W        W30162  42.502   2.503  14.456
63754W        W30163  38.366  43.197   3.642
63755W        W30164  16.517  28.561   3.182
63756W        W30165  39.563  12.488   3.654
63757W        W30166   3.742  24.080  13.260
63758W        W30167  29.889   0.967  12.976
63759W        W30168   4.013   9.689   4.562
63760W        W30169   6.360  38.128   4.212
63761W        W30170  30.595  38.465  11.613
63762W        W30171  38.153  20.602   3.175
63763W        W30172  14.503  15.657  13.041
63764W        W30173  44.733   6.992   3.603
63765W        W30174  44.710  27.127   0.727
63766W        W30175  12.264  18.980  12.182
63767W        W30176   5.841   8.360  12.333
63768W        W30177  25.168  13.230   4.258
63769W        W30178  39.820  27.887   1.960
63770W        W30179  44.663  12.693  10.564
63771W        W30180  27.519   1.898   1.719
63772W        W30181   4.452  15.217   0.698
63773W        W30182  14.689  36.562  12.809
63774W        W30183  38.469  36.032  14.839
63775W        W30184  30.955  44.851  14.858
63776W        W30185  23.548  18.574  11.496
63777W        W30186  14.042  23.073   0.804
63778W        W30187  34.779  16.230   0.726
63779W        W30188   6.172  19.357  14.976
63780W        W30189   5.881  26.630  12.378
63781W        W30190  38.377  18.878   2.193
63782W        W30191  38.578  28.233  14.441
63783W        W30192  33.824  37.140   5.056
63784W        W30193  17.529  28.473   2.951
63785W        W30194  31.247  35.889  10.174
63786W        W30195  19.706  15.671   4.419
63787W        W30196  27.676  21.509  13.082
63788W        W30197  43.986  42.059   1.502
63789W        W30198  16.556   6.274  11.864
63790W        W30199  27.951   7.130  11.468
63791W        W30200  21.264  42.118   2.962
63792W        W30201  16.308  42.590   2.066
63793W        W30202   4.120  26.597   4.116
63794W        W30203  36.505  38.870   5.154
63795W        W30204  25.642  39.011   4.116
63796W        W30205  22.985  39.124   3.788
63797W        W30206  42.628  43.071   3.715
63798W        W30207  19.652  33.482   1.018
63799W        W30208  34.169  11.730   2.733
63800W        W30209  36.311  11.362  10.742
63801W        W30210  11.397  32.056  12.023
63802W        W30211  14.660  31.435  14.070
63803W        W30212  27.668   7.856  12.062
63804W        W30213  15.174  25.795   1.863
63805W        W30214  42.638   1.863  14.929
63806W        W30215  34.997  19.586  13.163
63807W        W30216  23.436  29.426  12.951
63808W        W30217  33.419  27.054  12.812
63809W        W30218  33.939  44.571   0.997
63810W        W30219   4.192  27.912   4.013
63811W        W30220  11.635  38.532   0.992
63812W        W30221  43.781   4.446  14.954
63813W        W30222  34.618   6.268   4.058
63814W        W30223  31.894  23.801   3.154
63815W        W30224  31.498  30.632  14.090
63816W        W30225  20.453  10.581   0.390
63817W        W30226  42.820  27.044  10.800
63818W        W30227  10.209  30.452  13.481
63819W        W30228   7.147  36.007   3.667
63820W        W30229  42.042  29.037   3.174
63821W        W30230  15.854  44.809   4.348
63822W        W30231  10.241  12.499   2.725
63823W        W30232  30.572  26.710   3.659
63824W        W30233  20.244   7.335  11.204
63825W        W30234  12.574  21.762   2.794
63826W        W30235  15.423  13.044   2.771
63827W        W30236  37.180  10.632   2.053
63828W        W30237  14.823  26.171  13.874
63829W        W30238  28.019  33.190   2.620
63830W        W30239  43.038  39.861   0.903
63831W        W30240  33.322   4.923   4.233
63832W        W30241  13.404  12.425  14.990
63833W        W30242  21.982  41.591  11.152
63834W        W30243  32.873  38.090  12.182
63835W        W30244  30.022   8.083   3.112
63836W        W30245  37.969  10.353  11.614
63837W        W30246  27.896   1.801   2.752
63838W        W30247  23.157  20.417   1.837
63839W        W30248  37.868  29.040   4.762
63840W        W30249  17.643   2.247   0.864
63841W        W30250  23.117  21.972   5.343
63842W        W30251   3.597   2.215   2.397
63843W        W30252   4.955   4.114   3.676
63844W        W30253  30.593  33.755   4.923
63845W        W30254  12.283  11.905   1.975
63846W        W30255  33.007  11.315   4.564
63847W        W30256  19.144  30.849   4.610
63848W        W30257   4.920  12.272   3.813
63849W        W30258   2.032  34.052   4.209
63850W        W30259   1.841  19.586   1.199
63851W        W30260  44.780   3.427  11.578
63852W        W30261   7.252  28.440   1.168
63853W        W30262  11.891   6.851   3.727
63854W        W30263  24.146  37.139  11.511
63855W        W30264   4.457  15.274  11.280
63856W        W30265  37.817  26.511   0.127
63857W        W30266  32.872  36.977   3.738
63858W        W30267  14.535  27.079  11.550
63859W        W30268   6.167  38.997  13.364
63860W        W30269  10.355  26.234  14.952
63861W        W30270  38.575  15.125  11.059
63862W        W30271  28.020  12.411  13.481
63863W        W30272  43.469  29.470   0.427
63864W        W30273  20.338  22.594  11.554
63865W        W30274   0.940  38.454  10.975
63866W        W30275  19.919  25.582   1.501
63867W        W30276  41.941  18.933  13.314
63868W        W30277  21.112  24.802  10.247
63869W        W30278   2.848  39.719  12.936
63870W        W30279   3.436  27.438  14.816
63871W        W30280  39.421  39.173   4.582
63872W        W30281   6.479  29.503  14.432
63873W        W30282  31.030  20.852  10.430
63874W        W30283  43.841  29.084  14.401
63875W        W30284  24.708   1.486   2.010
63876W        W30285   7.952  17.501  14.800
63877W        W30286  40.673  24.521  14.925
63878W        W30287  34.982  15.522   0.358
63879W        W30288   0.760  28.767   0.394
63880W        W30289  43.452  30.133   4.749
63881W        W30290  11.442  41.491  14.039
63882W        W30291  16.310  34.191   3.757
63883W        W30292  36.813  37.363  14.283
63884W        W30293  27.218  27.471  14.298
63885W        W30294  15.485  29.348   0.014
63886W        W30295  13.818   7.946   3.108
63887W        W30296  23.596  43.483  14.176
63888W        W30297  22.453  11.186   0.549
63889W        W30298  16.788   2.780   0.914
63890W        W30299  40.424   0.729  14.071
63891W        W30300  18.612  35.647  11.669
63892W        W30301   2.852   1.417  10.930
63893W        W30302  21.992  27.600  14.001
63894W        W30303  19.627   7.258   0.814
63895W        W30304  37.520  30.398   4.838
63896W        W30305   5.744  28.992   3.404
63897W        W30306  36.632  40.976   3.961
63898W        W30307  12.285  44.536   2.749
63899W        W30308  34.818  29.031   2.079
63900W        W30309  17.372  19.792  13.305
63901W        W30310  28.025  29.141  11.337
63902W        W30311  41.383  36.646  13.947
63903W        W30312  30.344  25.615  13.113
63904W        W30313  14.282  29.887  14.944
63905W        W30314  44.315   8.099   3.223
63906W        W30315  19.884  39.056   4.117
63907W        W30316  12.335  37.701  13.083
63908W        W30317   2.005  34.637   4.079
63909W        W30318   3.376  17.115   1.343
63910W        W30319   4.923  22.548  10.540
63911W        W30320  32.461  37.418  14.637
63912W        W30321   6.172   0.373   2.724
63913W        W30322  33.062  10.395  12.058
63914W        W30323   8.207  21.802   0.453
63915W        W30324  34.938   2.784   1.320
63916W        W30325  21.197  25.843  12.926
63917W        W30326   5.189   1.698  12.799
63918W        W30327  41.426  29.102   1.732
63919W        W30328   0.685  23.433   2.647
63920W        W30329  13.185  12.131   0.370
63921W        W30330  41.542  31.166   4.087
63922W        W30331   2.230   6.701  10.613
63923W        W30332   1.984  11.293  11.183
63924W        W30333  24.626  37.115  10.449
63925W        W30334   6.877   8.700  14.117
63926W        W30335  13.649  28.096  14.892
63927W        W30336  34.037  21.982  14.317
63928W        W30337  35.372  32.024  14.977
63929W        W30338  41.588  27.417   0.802
63930W        W30339  23.542  22.730   0.756
63931W        W30340  36.684  37.004   1.874
63932W        W30341  37.899  12.478  14.909
63933W        W30342  10.620  40.836  14.897
63934W        W30343   9.348  26.548   3.597
63935W        W30344  38.963  19.950   1.410
63936W        W30345  44.338  29.613   4.582
63937W        W30346  41.489  17.523   1.320
63938W        W30347  42.915   6.151  11.600
63939W        W30348  16.686  44.307  12.165
63940W        W30349  37.055  11.323  12.473
63941W        W30350   0.372  25.956   3.713
63942W        W30351  19.618   3.617  10.474
63943W        W30352  41.556   4.369   4.109
63944W        W30353  37.939  40.129   0.491
63945W        W30354  28.456  16.742   1.834
63946W        W30355  36.125  10.854   0.967
63947W        W30356  42.188   9.362  14.371
63948W        W30357  20.678  18.251  13.948
63949W        W30358   0.953  28.335  10.734
63950W        W30359  14.279  43.686   2.653
63951W        W30360  17.562  30.123   2.640
63952W        W30361   1.477  22.310   1.220
63953W        W30362   9.149  33.525   2.563
63954W        W30363   6.652   8.100  14.687
63955W        W30364  30.120  19.911   4.278
63956W        W30365  42.251  39.380   0.885
63957W        W30366  41.419   6.678   2.039
63958W        W30367  41.818  18.659  10.772
63959W        W30368  20.258  23.449  11.611
63960W        W30369   0.204  15.921   0.719
63961W        W30370   7.626  16.306   2.867
63962W        W30371  35.646   3.344  12.939
63963W        W30372  32.511  15.264  14.935
63964W        W30373  43.939  16.606   1.961
63965W        W30374  14.300  31.175  11.017
63966W        W30375  44.440  34.663   1.706
63967W        W30376  13.818  44.201   1.723
63968W        W30377  15.281  10.343  11.300
63969W        W30378  29.941  21.170   3.717
63970W        W30379  29.899  22.107  11.177
63971W        W30380  14.656   4.094   1.870
63972W        W30381  29.139  23.017   3.145
63973W        W30382  20.485   7.210  10.758
63974W        W30383   5.178  40.789  12.382
63975W        W30384  29.497   2.150   1.839
63976W        W30385  12.764  40.842   1.232
63977W        W30386  11.045  12.970   1.787
63978W        W30387  33.103  19.529   1.675
63979W        W30388  24.062   3.277  13.394
63980W        W30389  42.769  28.938   3.722
63981W        W30390  10.792   9.262   0.068
63982W        W30391  28.667  20.956  14.015
63983W        W30392  44.331   2.494  11.536
63984W        W30393  15.059  17.497   2.139
63985W        W30394  20.540   4.482  10.746
63986W        W30395  35.059   8.273   0.817
63987W        W30396  14.496   1.904  13.995
63988W        W30397   0.825  18.877   4.559
63989W        W30398   8.193   7.324   2.309
63990W        W30399  44.030   6.501  14.892
63991W        W30400  15.413  40.283   4.230
63992W        W30401  13.358  42.307   0.077
63993W        W30402  43.967  43.432   1.760
63994W        W30403  34.346  42.803   0.781
63995W        W30404   2.028  10.183  10.570
63996W        W30405  33.763  27.633  11.190
63997W        W30406  31.620  41.466   3.355
63998W        W30407  44.229  23.731  10.144
63999W        W30408  27.646  22.761  11.874
64000W        W30409  32.334  18.034   3.235
64001W        W30410  16.090  12.221  11.964
64002W        W30411  23.006  43.935   4.581
64003W        W30412  10.070   8.749  14.868
64004W        W30413  44.622  38.345   4.128
64005W        W30414  24.477  13.185   3.229
64006W        W30415  39.561  26.963  11.461
64007W        W30416   5.242  13.924   0.880
64008W        W30417  12.600  17.229  12.372
64009W        W30418   9.820  25.398  11.785
64010W        W30419  27.595  35.941   3.191
64011W        W30420  17.639  19.989   1.200
64012W        W30421  37.401  21.565  11.432
64013W        W30422  29.258  40.817   0.868
64014W        W30423  38.925   5.086  13.815
64015W        W30424  33.007  19.608  14.293
64016W        W30425   3.215  15.844  14.277
64017W        W30426  32.095   2.309  13.740
64018W        W30427  31.433   4.921  14.319
64019W        W30428  12.732  43.921   4.316
64020W        W30429   4.691  17.511   3.566
64021W        W30430  22.566  24.456  13.457
64022W        W30431  40.408  17.104  14.745
64023W        W30432  28.075  16.287   0.226
64024W        W30433  18.243  15.577  12.940
64025W        W30434  32.168  41.995  11.257
64026W        W30435  44.515  13.831   3.282
64027W        W30436  12.840  19.055  11.069
64028W        W30437  24.140  22.305  11.711
64029W        W30438  42.032  38.626   1.319
64030W        W30439  39.366  39.167   1.171
64031W        W30440  11.765   1.593   2.778
64032W        W30441  40.495   7.215   1.728
64033W        W30442  23.245  41.553   4.494
64034W        W30443  14.568  44.540  14.928
64035W        W30444  42.472   8.412   0.264
64036W        W30445  17.405  11.661   0.208
64037W        W30446  16.270  18.702   4.509
64038W        W30447   9.539  30.722  14.046
64039W        W30448  30.722  13.700   4.942
64040W        W30449   9.221  42.092   4.205
64041W        W30450  14.100  24.028  12.457
64042W        W30451  27.013  10.791   3.489
64043W        W30452  36.752  36.709  12.047
64044W        W30453  39.916   8.673   1.502
64045W        W30454  30.270  12.351  11.733
64046W        W30455  28.481  15.297   4.351
64047W        W30456   9.433  41.359   1.206
64048W        W30457  35.460  33.996  13.603
64049W        W30458  35.911  18.656  13.992
64050W        W30459   6.138  26.638   1.173
64051W        W30460  24.930  24.252   1.680
64052W        W30461  27.072  24.273   0.725
64053W        W30462   8.744  35.138  13.385
64054W        W30463   8.313  39.244  11.114
64055W        W30464  29.065  10.294  12.449
64056W        W30465  28.566  24.736   3.518
64057W        W30466  33.038  10.931   0.071
64058W        W30467  24.782  11.345   3.985
64059W        W30468  27.428  26.458  12.438
64060W        W30469  32.952  43.812   2.656
64061W        W30470  17.505  26.613  14.708
64062W        W30471  30.326  31.116   1.192
64063W        W30472  36.445  22.722  13.070
64064W        W30473   4.236   4.493  11.626
64065W        W30474  14.252  18.671   1.460
64066W        W30475   7.422  11.629  12.482
64067W        W30476  26.982  18.757   3.857
64068W        W30477  10.065  38.655  13.910
64069W        W30478  23.719   0.143  11.952
64070W        W30479  36.913  38.479   3.237
64071W        W30480   6.116   1.417   2.371
64072W        W30481   2.120   3.265  11.163
64073W        W30482  24.152  34.201  12.583
64074W        W30483   1.174  35.541  13.425
64075W        W30484  42.973   0.955  11.960
64076W        W30485   7.209  25.101   2.394
64077W        W30486   9.206  42.593   4.087
64078W        W30487   6.000  34.943  14.680
64079W        W30488  11.874  40.532   4.640
64080W        W30489  43.411  31.691   1.417
64081W        W30490   2.890   2.332  12.559
64082W        W30491  37.393  28.001  13.451
64083W        W30492   1.971   2.018  12.453
64084W        W30493  13.747  43.551   0.886
64085W        W30494   6.599   7.709   0.026
64086W        W30495  14.577  14.397  14.264
64087W        W30496  15.013  27.711  12.028
64088W        W30497  11.015   2.486   1.708
64089W        W30498  12.656  16.411   1.862
64090W        W30499   5.538  27.739  14.533
64091W        W30500  29.370  14.141  13.256
64092W        W30501  35.877   5.152   2.214
64093W        W30502  33.072  27.728  10.437
64094W        W30503  24.669  35.960   4.350
64095W        W30504  34.039  12.569   3.232
64096W        W30505   7.739   0.679   3.731
64097W        W30506   7.855   6.526   3.220
64098W        W30507   4.307  14.332   4.733
64099W        W30508  16.774  32.828   4.016
64100W        W30509  43.904  37.989  14.561
64101W        W30510   0.965  20.520   2.254
64102W        W30511  28.781  17.082   2.824
64103W        W30512   1.949  23.383  13.470
64104W        W30513   3.319  17.382   4.195
64105W        W30514   5.237  30.118  10.628
64106W        W30515   5.016  36.610  11.923
64107W        W30516   6.658  43.109  10.607
64108W        W30517   3.760  36.365  11.589
64109W        W30518  17.674  21.069  14.339
64110W        W30519  37.929  24.280   4.079
64111W        W30520  30.422   4.929  10.624
64112W        W30521   6.594  21.486  12.961
64113W        W30522   1.451  30.046  11.069
64114W        W30523   1.332  39.068  11.657
64115W        W30524  38.383  15.131   1.228
64116W        W30525   2.646  10.631  13.370
64117W        W30526   8.169  13.462  14.811
64118W        W30527   3.686  28.227  12.451
64119W        W30528  42.836  34.395   3.214
64120W        W30529  37.971  44.777  14.324
64121W        W30530   4.313   4.942   2.813
64122W        W30531  31.608  10.667   2.929
64123W        W30532   7.247   4.947   4.989
64124W        W30533  32.847   6.875   4.989
64125W        W30534  13.810  25.527   0.018
64126W        W30535  27.706  21.462   3.263
64127W        W30536  40.408  18.104   1.258
64128W        W30537  23.305   9.667  13.290
64129W        W30538  36.896  22.950   2.299
64130W        W30539  39.014  21.849   5.057
64131W        W30540  25.549  38.947   3.084
64132W        W30541  20.429  35.566  10.773
64133W        W30542  35.076  16.344   4.180
64134W        W30543  30.221  34.942   4.861
64135W        W30544   7.268  33.061  13.496
64136W        W30545  23.755   5.232  13.645
64137W        W30546  44.836   5.825  14.433
64138W        W30547  31.824  44.002  10.647
64139W        W30548  24.173  42.046   1.182
64140W        W30549  34.543  16.566   3.654
64141W        W30550   8.806  12.211   2.279
64142W        W30551  19.972  27.041   0.822
64143W        W30552  31.182  10.399   4.999
64144W        W30553   0.571  17.349   4.495
64145W        W30554  15.114  44.862  10.367
64146W        W30555   7.725  43.029  11.140
64147W        W30556  29.063  33.433  12.939
64148W        W30557  43.015   7.928  13.894
64149W        W30558   3.799  13.763  14.259
64150W        W30559  29.610  43.522  14.333
64151W        W30560  17.061  31.111  11.973
64152W        W30561  35.851  10.419   0.904
64153W        W30562  43.318   0.684   0.880
64154W        W30563  25.727  17.777  13.223
64155W        W30564  10.880  20.810  12.113
64156W        W30565  28.604  22.538   0.378
64157W        W30566  38.401  28.056  13.430
64158W        W30567  29.898  15.999   3.451
64159W        W30568  23.750  12.348   3.678
64160W        W30569  41.524  32.233   4.189
64161W        W30570  29.638  43.635  14.835
64162W        W30571  29.073  31.920   3.616
64163W        W30572   3.389  17.412  12.111
64164W        W30573  38.873   5.362  10.692
64165W        W30574  22.638  22.984   1.266
64166W        W30575  35.494  42.302   4.303
64167W        W30576   5.830  38.666   2.798
64168W        W30577  27.686  13.387  13.487
64169W        W30578  33.507   7.229  10.982
64170W        W30579  22.987   8.051  12.657
64171W        W30580  28.510  15.690  11.535
64172W        W30581  13.907  24.857  14.807
64173W        W30582   7.869  34.207   3.141
64174W        W30583  17.903  21.192  13.888
64175W        W30584   5.006  10.856  14.030
64176W        W30585  17.866  36.843   4.642
64177W        W30586  44.641  44.794  12.592
64178W        W30587  17.045   6.250  12.034
64179W        W30588   0.424  32.204  13.920
64180W        W30589  18.811  23.770  13.487
64181W        W30590  30.137   3.683  14.277
64182W        W30591  40.839  35.812  12.942
64183W        W30592  28.505  32.560   1.455
64184W        W30593  22.133  40.850   0.761
64185W        W30594  14.703  41.797   3.780
64186W        W30595  37.914   7.826  10.773
64187W        W30596  19.707  31.615   4.213
64188W        W30597  11.866  35.011  11.022
64189W        W30598  39.559   7.845   1.698
64190W        W30599  14.712  41.782   4.970
64191W        W30600  42.417  31.730  12.443
64192W        W30601   8.974  44.656  14.355
64193W        W30602  24.650  23.512  11.449
64194W        W30603  21.290   3.403  11.534
64195W        W30604  28.306  12.350   4.985
64196W        W30605   4.819  38.442   2.219
64197W        W30606   9.727  11.217   4.408
64198W        W30607  28.675  16.547   1.423
64199W        W30608  36.257  37.777   0.573
64200W        W30609  22.089  36.585   2.077
64201W        W30610  30.902  15.421   2.133
64202W        W30611  29.027  44.504   3.626
64203W        W30612  38.977   2.386   0.900
64204W        W30613  23.316  16.612   3.139
64205W        W30614   8.304  36.388  10.901
64206W        W30615  10.266  16.081  12.535
64207W        W30616   0.856   7.672   2.174
64208W        W30617   0.076  28.672   4.049
64209W        W30618  17.556  25.575   4.853
64210W        W30619   3.462  35.993   1.446
64211W        W30620   6.855  32.660  10.288
64212W        W30621  40.930   3.032   1.884
64213W        W30622   9.671  16.198   1.722
64214W        W30623   0.242   3.801  12.049
64215W        W30624  38.741  24.074  10.335
64216W        W30625  41.062  10.493   4.592
64217W        W30626  14.212  40.483   1.968
64218W        W30627   1.691  31.971   1.873
64219W        W30628   9.693   4.152  11.980
64220W        W30629  31.279  12.230  11.641
64221W        W30630   9.269   0.758  11.972
64222W        W30631   4.271   2.840   3.311
64223W        W30632  40.046  16.044  11.544
64224W        W30633   3.737   5.412  14.025
64225W        W30634  21.591  29.638   2.609
64226W        W30635  16.316  19.638   1.358
64227W        W30636  23.924  11.980   2.201
64228W        W30637  31.276   0.848   5.145
64229W        W30638  30.405  24.152   3.637
64230W        W30639   7.743  16.156  14.882
64231W        W30640  23.829  32.983   0.796
64232W        W30641  11.930  17.631   0.797
64233W        W30642  32.205  31.215  13.876
64234W        W30643  39.572  17.256   3.109
64235W        W30644  11.742  19.251  13.952
64236W        W30645  24.194  36.895  11.964
64237W        W30646  28.420  22.233  14.339
64238W        W30647  15.671  11.164  13.037
64239W        W30648  30.529  39.459  11.608
64240W        W30649   5.145  18.076   2.844
64241W        W30650   2.429   6.612  12.930
64242W        W30651  28.675  37.413  13.471
64243W        W30652  31.917  34.018  13.780
64244W        W30653  40.754   7.138   2.309
64245W        W30654  34.581  29.561   1.306
64246W        W30655  36.574   2.212   4.612
64247W        W30656  32.679  28.924   3.689
64248W        W30657  31.927   6.634   3.535
64249W        W30658  40.399  33.097   4.642
64250W        W30659  44.443  35.146  12.629
64251W        W30660  36.458  21.342   0.288
64252W        W30661  23.724  11.603   0.375
64253W        W30662  15.160   3.332  11.219
64254W        W30663  33.448  41.553  11.250
64255W        W30664  43.216  11.439   5.336
64256W        W30665  35.325  32.240   5.004
64257W        W30666  37.004  15.103  12.007
64258W        W30667   3.884  28.527   2.632
64259W        W30668  39.337   9.329   0.817
64260W        W30669  29.073  42.572  14.295
64261W        W30670  21.252  10.560  11.045
64262W        W30671  31.952  41.710   0.938
64263W        W30672  14.912  39.258   3.848
64264W        W30673  27.326  19.819  14.551
64265W        W30674   8.620  24.274   1.343
64266W        W30675  23.481  16.579  11.592
64267W        W30676  19.180   3.400   1.024
64268W        W30677   8.538   8.218  13.108
64269W        W30678  11.744  38.160   1.373
64270W        W30679  44.156  26.156  12.517
64271W        W30680   4.653  43.927   4.476
64272W        W30681   2.396  28.071  12.704
64273W        W30682  20.654  30.615   3.277
64274W        W30683  28.442   6.876  14.914
64275W        W30684  39.554  12.379   1.728
64276W        W30685  35.632  13.897   2.728
64277W        W30686   1.027  27.021   1.201
64278W        W30687  34.011  29.445  12.860
64279W        W30688  18.077  14.563  14.652
64280W        W30689  18.611  36.618   2.241
64281W        W30690   8.446  41.316   1.429
64282W        W30691  11.408  16.378   2.861
64283W        W30692  10.667  41.013  12.590
64284W        W30693  17.399  29.701   2.334
64285W        W30694  15.716  31.719   0.642
64286W        W30695  12.147   7.665  10.605
64287W        W30696   9.219  27.449   0.204
64288W        W30697  10.155  42.111   2.730
64289W        W30698  43.587  28.830   4.271
64290W        W30699  16.387  26.666   2.871
64291W        W30700   8.913  11.269   2.736
64292W        W30701  37.107  21.015   1.434
64293W        W30702   0.782   4.368  11.596
64294W        W30703  29.668  41.482   2.339
64295W        W30704  43.312  34.036  11.362
64296W        W30705  37.145  29.016   4.038
64297W        W30706  32.375   1.359  11.103
64298W        W30707  20.658  40.437   0.723
64299W        W30708  38.243  37.303   4.126
64300W        W30709   2.355  43.001   2.798
64301W        W30710   9.521  12.703  13.170
64302W        W30711  26.756  16.358   0.546
64303W        W30712  17.549  39.822   3.136
64304W        W30713  41.784  21.582  11.640
64305W        W30714  35.665  22.588   0.289
64306W        W30715  44.234   4.499   4.751
64307W        W30716  25.082  43.759  13.889
64308W        W30717  33.119  25.449  14.784
64309W        W30718   1.663  24.205  13.128
64310W        W30719  43.482  34.403   1.887
64311W        W30720  11.224  27.712   4.720
64312W        W30721  22.286   0.410   4.534
64313W        W30722  30.771   8.911   4.166
64314W        W30723  28.199  10.209   0.308
64315W        W30724  10.418  36.573  10.513
64316W        W30725   8.823  29.431   4.007
64317W        W30726   8.714   2.988  14.357
64318W        W30727  32.687  36.400  13.589
64319W        W30728  27.174  38.454  14.007
64320W        W30729  15.253  35.563   2.556
64321W        W30730  32.442   7.121   2.851
64322W        W30731  44.512  23.854  12.153
64323W        W30732  37.523  26.778   3.219
64324W        W30733  19.958  21.569   0.253
64325W        W30734  16.550  35.823   4.540
64326W        W30735  34.606   8.171   1.083
64327W        W30736  34.630  27.430  12.452
64328W        W30737  13.150  41.954   0.651
64329W        W30738  32.745   6.344   4.974
64330W        W30739  32.487   2.912  11.177
64331W        W30740  25.066   2.980   3.692
64332W        W30741  21.546  38.261   1.794
64333W        W30742  18.085  31.056  12.920
64334W        W30743  23.283  23.613  13.337
64335W        W30744  38.996   2.977  14.473
64336W        W30745  21.540  25.742  10.632
64337W        W30746   7.636   3.249   3.228
64338W        W30747  30.747   0.800   0.663
64339W        W30748  15.298  28.351   3.723
64340W        W30749  17.106  25.359  13.484
64341W        W30750  19.079  21.392  14.421
64342W        W30751  21.161  17.174   1.785
64343W        W30752   2.835  35.929  14.591
64344W        W30753  20.674   1.407  13.844
64345W        W30754  19.272  14.376   1.349
64346W        W30755   7.791  41.909   2.761
64347W        W30756  23.602  20.110   1.702
64348W        W30757  42.567  23.750   4.699
64349W        W30758  21.969  13.153  14.447
64350W        W30759   9.040  31.990   4.567
64351W        W30760  12.687  21.019  10.719
64352W        W30761  32.203  42.532   2.833
64353W        W30762  42.865   3.855  10.710
64354W        W30763  37.892   5.337  11.622
64355W        W30764   4.546  30.798   4.620
64356W        W30765  44.635  18.648   2.108
64357W        W30766  28.069   3.805  11.071
64358W        W30767  23.213   5.288   2.299
64359W        W30768   7.672   8.689  13.462
64360W        W30769   4.284  39.756   1.384
64361W        W30770  41.952  37.298  13.893
64362W        W30771  36.609  25.590   4.351
64363W        W30772  44.610  35.150   0.207
64364W        W30773  34.347   9.707   3.717
64365W        W30774  25.656  13.334   4.404
64366W        W30775   6.623  19.263  14.701
64367W        W30776  42.872  34.531  14.067
64368W        W30777  15.298  39.369   3.173
64369W        W30778   8.205  30.699   0.711
64370W        W30779  11.384  24.803  11.544
64371W        W30780  37.820   8.217   1.144
64372W        W30781  38.588  25.038   2.985
64373W        W30782   1.454  38.764  13.966
64374W        W30783  19.605  31.443   2.972
64375W        W30784  17.678  37.987   0.360
64376W        W30785  33.700  17.711  14.162
64377W        W30786  16.573  11.689   3.688
64378W        W30787  40.915  28.483  12.071
64379W        W30788  15.671  20.212   3.162
64380W        W30789  40.862  41.044   1.441
64381W        W30790  14.752  27.560  10.761
64382W        W30791  28.569  31.605  13.539
64383W        W30792   1.232  20.633  11.364
64384W        W30793   7.111  19.209  14.995
64385W        W30794  31.092  10.192   0.371
64386W        W30795   6.993  20.632  14.896
64387W        W30796  34.811  20.188   0.317
64388W        W30797  26.967   8.044  10.194
64389W        W30798  14.653  16.535   1.925
64390W        W30799  16.017  19.454  11.506
64391W        W30800   1.417  20.598  11.874
64392W        W30801  12.634  39.043  10.756
64393W        W30802  15.912  35.982   3.724
64394W        W30803  44.567  33.249   3.597
64395W        W30804  10.866  40.584  12.859
64396W        W30805  26.724   7.916  11.842
64397W        W30806  31.934  44.288  11.094
64398W        W30807  32.570   0.371   0.873
64399W        W30808   4.911  12.494  12.552
64400W        W30809  31.467  18.053   3.767
64401W        W30810   3.718  24.075   2.343
64402W        W30811   1.788  41.276  13.289
64403W        W30812  13.347  26.982   0.381
64404W        W30813  33.297  42.029   0.808
64405W        W30814   2.736  42.034  10.988
64406W        W30815  32.129  19.343  13.966
64407W        W30816   5.624  30.532   2.289
64408W        W30817   2.519   5.304  13.402
64409W        W30818  20.042  28.063   3.158
64410W        W30819  23.223  16.284   4.193
64411W        W30820  16.496  32.956  14.865
64412W        W30821  44.586  28.440   1.091
64413W        W30822   1.039   6.223   3.684
64414W        W30823  28.077  18.066   0.876
64415W        W30824  25.052  11.405   4.427
64416W        W30825   8.155  25.352  12.315
64417W        W30826  39.574  29.840   3.297
64418W        W30827   9.880  18.509   2.820
64419W        W30828  13.231  22.615  13.009
64420W        W30829   9.361   2.613   0.627
64421W        W30830  34.826  31.085  14.548
64422W        W30831  14.647  19.306   2.351
64423W        W30832  16.746  40.688  14.978
64424W        W30833  33.051  28.110  12.686
64425W        W30834   8.655  14.151  12.618
64426W        W30835   0.732  37.638  10.815
64427W        W30836  31.555  37.569   1.438
64428W        W30837  35.198   4.414   1.179
64429W        W30838  44.688  12.205  13.006
64430W        W30839  19.745   8.819   5.073
64431W        W30840  13.003  25.141   3.065
64432W        W30841   8.601  27.808  12.572
64433W        W30842  11.210  28.440  12.924
64434W        W30843  26.116  32.887  14.302
64435W        W30844  11.750  15.907  13.782
64436W        W30845  43.080   3.431   1.301
64437W        W30846  26.481  28.430  14.754
64438W        W30847  28.552  37.771   0.805
64439W        W30848  40.841  14.595  14.860
64440W        W30849  30.956  20.319   1.823
64441W        W30850   9.635  12.260  11.473
64442W        W30851  38.876  34.424  14.545
64443W        W30852   5.635  31.645  11.074
64444W        W30853  22.068  42.726  12.922
64445W        W30854   3.516  14.340  11.482
64446W        W30855  42.387  24.238   0.734
64447W        W30856  17.490  19.927  12.376
64448W        W30857   2.954  25.594   2.259
64449W        W30858  25.771  13.743  11.322
64450W        W30859  27.714  32.056  14.516
64451W        W30860  32.693  44.959  13.980
64452W        W30861  12.883  41.209  13.836
64453W        W30862  14.990  20.306   3.634
64454W        W30863  20.568  44.890   4.037
64455W        W30864  20.948  31.880   1.816
64456W        W30865  36.063  38.032   0.991
64457W        W30866  25.661  36.964   4.552
64458W        W30867  15.051  29.962  11.189
64459W        W30868   3.242  42.930  13.256
64460W        W30869  35.368  39.846  12.449
64461W        W30870   8.577   0.431  11.194
64462W        W30871  34.739  35.292   1.822
64463W        W30872  43.833  37.966   3.775
64464W        W30873   3.498  11.813  10.848
64465W        W30874  21.506  29.119   2.361
64466W        W30875  25.058  28.818  12.798
64467W        W30876  38.928   0.434  14.691
64468W        W30877  38.779  22.422   4.210
64469W        W30878  14.275   9.070   4.142
64470W        W30879  42.111  24.304   3.333
64471W        W30880   8.218   4.906   4.041
64472W        W30881  41.789  14.196   3.835
64473W        W30882  41.938  30.145  13.859
64474W        W30883   7.449   5.419  14.049
64475W        W30884  12.676  36.948   1.268
64476W        W30885  30.792   5.205   4.226
64477W        W30886   4.000  23.632  14.912
64478W        W30887  22.499  32.896   2.174
64479W        W30888  42.493  31.067   4.939
64480W        W30889   8.260  42.476  11.572
64481W        W30890  32.030  42.998  11.662
64482W        W30891  11.270  12.024   1.823
64483W        W30892  14.594  14.168   3.853
64484W        W30893   3.990  23.965  14.256
64485W        W30894   9.015  34.995   2.122
64486W        W30895   5.000  42.463   2.364
64487W        W30896   1.798  22.554  13.461
64488W        W30897  27.109  13.074   2.726
64489W        W30898  10.064  14.420   0.492
64490W        W30899   1.735  41.364  14.672
64491W        W30900  28.371  10.283   1.441
64492W        W30901   4.335  30.692  13.041
64493W        W30902  18.710  26.658  13.881
64494W        W30903  25.507  19.548   1.688
64495W        W30904  10.940   1.291  12.898
64496W        W30905  15.212  19.982   2.724
64497W        W30906  26.334  12.797  13.543
64498W        W30907  39.588  30.107   4.474
64499W        W30908  19.090  31.333  12.060
64500W        W30909  10.177   3.120  13.801
64501W        W30910   5.462   7.168  12.506
64502W        W30911  32.014  15.644   0.512
64503W        W30912   7.792   8.315   3.713
64504W        W30913   6.470  38.866   1.229
64505W        W30914   9.407  35.407  10.690
64506W        W30915  30.053   4.747  10.969
64507W        W30916   9.839  33.144   1.186
64508W        W30917  20.486  30.036   4.576
64509W        W30918  18.771  37.753   4.618
64510W        W30919  17.697   2.825   1.432
64511W        W30920  41.493  25.251   4.726
64512W        W30921   6.012   4.649  13.227
64513W        W30922  42.873  37.587   4.500
64514W        W30923   7.979  33.376   9.911
64515W        W30924   4.813  35.137   5.069
64516W        W30925  37.435  24.656   0.376
64517W        W30926  11.796  26.654  13.044
64518W        W30927  31.211  34.075  11.356
64519W        W30928   5.361   0.763  13.290
64520W        W30929  23.740  31.988   2.345
64521W        W30930   2.281  36.612  10.753
64522W        W30931  23.076  23.694  12.027
64523W        W30932   5.842  41.862  13.796
64524W        W30933  20.348  10.098   0.519
64525W        W30934  26.078  37.279   2.304
64526W        W30935  20.579  39.398   4.587
64527W        W30936  34.791   4.043   3.931
64528W        W30937  35.758  24.438   0.778
64529W        W30938  11.159  25.722   2.790
64530W        W30939  14.178  12.519   3.572
64531W        W30940  13.843  12.652   3.190
64532W        W30941  33.550  17.915   4.660
64533W        W30942   6.416  42.481  13.072
64534W        W30943  27.077  22.173   0.384
64535W        W30944   5.785  37.494  11.920
64536W        W30945  41.322  39.070   4.750
64537W        W30946  40.455  25.694  12.243
64538W        W30947  26.284  22.626  11.660
64539W        W30948  44.787   5.148  14.904
64540W        W30949  36.128  35.835   1.794
64541W        W30950  44.033  17.247  14.311
64542W        W30951  43.835  27.610  13.351
64543W        W30952   0.415   3.715  12.519
64544W        W30953   1.247  13.159  12.573
64545W        W30954  27.516  27.200   4.199
64546W        W30955  38.807  10.212  11.824
64547W        W30956  13.796  25.265  14.510
64548W        W30957  39.974  17.257   0.713
64549W        W30958  23.534  31.325  11.201
64550W        W30959  29.568   8.167   1.822
64551W        W30960  10.202  40.846   1.650
64552W        W30961  13.778  43.694   1.737
64553W        W30962  40.995  41.284   2.487
64554W        W30963  13.983   9.885  11.493
64555W        W30964  11.696   2.541  11.220
64556W        W30965  37.032  35.146   0.369
64557W        W30966  37.547  12.922   1.976
64558W        W30967  29.705  21.989  11.971
64559W        W30968  40.116  43.711  12.870
64560W        W30969   1.911  16.755   3.176
64561W        W30970  36.691  15.596  14.007
64562W        W30971   4.299  13.771  10.697
64563W        W30972  33.690  31.358  13.016
64564W        W30973   0.284  18.012   2.856
64565W        W30974  39.389  35.759  11.833
64566W        W30975  28.600  26.775   2.254
64567W        W30976  38.149   1.378  12.997
64568W        W30977  36.678   8.152  10.860
64569W        W30978  15.560  24.701   0.648
64570W        W30979   8.151  16.816  11.648
64571W        W30980  21.039  35.183  11.259
64572W        W30981   6.971  22.118  13.478
64573W        W30982   0.842  40.415   4.129
64574W        W30983  26.642  43.752   3.144
64575W        W30984  44.118  11.340   5.061
64576W        W30985  19.458  40.942   4.240
64577W        W30986  19.279  12.156   0.871
64578W        W30987  27.407  11.037  13.995
64579W        W30988  10.237  11.406   3.072
64580W        W30989   0.809  36.836  12.354
64581W        W30990  13.711  36.451  12.903
64582W        W30991  40.968  42.285   2.580
64583W        W30992  33.862  30.152  10.621
64584W        W30993   2.746   0.897  12.561
64585W        W30994  34.331  41.753   2.371
64586W        W30995  21.126  22.628  10.997
64587W        W30996  32.364  35.332  13.810
64588W        W30997  33.447  42.398  10.998
64589W        W30998   1.027  43.422   0.251
64590W        W30999  28.478   3.511   1.431
64591W        W31000  42.441  36.823   0.347
64592W        W31001  33.437  31.123   3.410
64593W        W31002   1.477  42.306   0.267
64594W        W31003  17.960  18.183  13.209
64595W        W31004   4.897  35.876   4.699
64596W        W31005  39.960  43.852   1.837
64597W        W31006  12.066  18.623  10.238
64598W        W31007  21.386   8.749   2.931
64599W        W31008  40.589  18.601  13.431
64600W        W31009  26.888  28.270  13.917
64601W        W31010  24.732  32.727   1.757
64602W        W31011  13.183  39.839  10.416
64603W        W31012  12.215  19.107  13.057
64604W        W31013  13.669  28.400   3.789
64605W        W31014  36.805  13.188  13.440
64606W        W31015  40.123  33.901   2.732
64607W        W31016  22.447  26.420  12.574
64608W        W31017   6.424  37.828   0.333
64609W        W31018   7.208  14.984  11.133
64610W        W31019  24.569  25.714   1.025
64611W        W31020  18.963   4.668   4.986
64612W        W31021  38.354  27.461   3.578
64613W        W31022  42.748  19.191   3.847
64614W        W31023  23.151  26.065  10.925
64615W        W31024  40.881  43.554   3.057
64616W        W31025  21.259  40.401  11.590
64617W        W31026  23.220   7.220  14.257
64618W        W31027   8.909  25.733  14.670
64619W        W31028  36.451  13.188   3.266
64620W        W31029  12.829  19.085   2.770
64621W        W31030  11.687  10.693   1.938
64622W        W31031  44.311  37.726   0.949
64623W        W31032  24.462  13.869   0.373
64624W        W31033  40.935  15.617   2.588
64625W        W31034   5.905   2.886   3.228
64626W        W31035  14.629  29.545   4.240
64627W        W31036  15.780  21.724   0.443
64628W        W31037  13.687  18.193  11.722
64629W        W31038   9.248  21.180  10.690
64630W        W31039  42.398   6.378   2.281
64631W        W31040   2.286   4.865  13.911
64632W        W31041  15.180  41.831   2.251
64633W        W31042   5.146  27.675  10.934
64634W        W31043  14.382  40.813   0.437
64635W        W31044   9.555  30.490   5.533
64636W        W31045  32.870   1.956   4.104
64637W        W31046  23.628  26.453  13.126
64638W        W31047  11.233  39.249  12.799
64639W        W31048   6.593   2.756   2.192
64640W        W31049  39.019  10.145   4.285
64641W        W31050   1.323  44.984   3.803
64642W        W31051  33.899  18.737   3.712
64643W        W31052  17.212  41.030   2.875
64644W        W31053  27.149  37.872   0.866
64645W        W31054  42.189   6.368  14.026
64646W        W31055  37.999  33.073   3.285
64647W        W31056  21.243  36.355  13.868
64648W        W31057  23.659  30.259   1.682
64649W        W31058  21.202  12.900   1.276
64650W        W31059   9.155  43.388  12.945
64651W        W31060  32.116  29.171  13.053
64652W        W31061  37.474  28.427  14.320
64653W        W31062  20.554  36.098   0.794
64654W        W31063  34.562  17.320  13.947
64655W        W31064  10.390   6.013  14.366
64656W        W31065  10.962   1.887   1.097
64657W        W31066  33.825  19.209   0.455
64658W        W31067  13.235  36.974  10.240
64659W        W31068  30.198  15.195  11.743
64660W        W31069  22.787  42.952   4.616
64661W        W31070  24.730  10.593   2.614
64662W        W31071  19.440  26.685   4.074
64663W        W31072  36.154  12.008  11.269
64664W        W31073  43.712   8.909   0.012
64665W        W31074  33.018   0.390   3.822
64666W        W31075  36.830  33.332  14.813
64667W        W31076  23.574   3.932   2.457
64668W        W31077  19.493  38.427  13.159
64669W        W31078  20.016  21.821  14.292
64670W        W31079  17.484  28.610   0.559
64671W        W31080  33.845  27.121  11.063
64672W        W31081  28.421  31.400  11.608
64673W        W31082  39.369   1.280   3.932
64674W        W31083  38.121  10.913  13.261
64675W        W31084  27.139  30.640   4.150
64676W        W31085  37.921  31.680  12.039
64677W        W31086  41.480  43.891   4.091
64678W        W31087  38.772  29.048   2.792
64679W        W31088   5.270  39.063  11.910
64680W        W31089  18.565  42.770   2.467
64681W        W31090   7.694   9.188   4.792
64682W        W31091   6.315   8.189   2.272
64683W        W31092   4.368  23.619   0.292
64684W        W31093   8.423   1.704   0.372
64685W        W31094  21.842  33.418   0.459
64686W        W31095  13.901  18.876  12.880
64687W        W31096  27.494  41.923  11.560
64688W        W31097  23.394  11.260   3.305
64689W        W31098  44.317   4.797   4.058
64690W        W31099  25.626  39.989   4.214
64691W        W31100  35.296  13.611  13.845
64692W        W31101  41.131  32.461  11.670
64693W        W31102  32.611  26.457  10.788
64694W        W31103  39.973  38.486   3.154
64695W        W31104  12.109  26.883  14.700
64696W        W31105  22.989  43.509   2.217
64697W        W31106  17.697  36.566   2.858
64698W        W31107  29.556  24.687   1.714
64699W        W31108  16.371  35.168  11.076
64700W        W31109  31.176   3.859   0.015
64701W        W31110   9.052   9.911   2.751
64702W        W31111  30.011  31.721  14.988
64703W        W31112  17.119  19.745   2.862
64704W        W31113  41.271  20.174   1.932
64705W        W31114  18.840  34.773   2.704
64706W        W31115  37.836   2.546  11.334
64707W        W31116  20.300  10.544  11.123
64708W        W31117  16.304  31.424   3.864
64709W        W31118  12.822  33.902   2.196
64710W        W31119  26.225  24.180  13.502
64711W        W31120  34.131  22.274  13.883
64712W        W31121  19.292  40.595   2.699
64713W        W31122  39.794  38.944  11.038
64714W        W31123   7.937  44.095   2.652
64715W        W31124  37.514   0.841   0.731
64716W        W31125  39.554   1.771  13.204
64717W        W31126  22.543  40.072  14.305
64718W        W31127  24.983   9.765   0.004
64719W        W31128   9.253  24.501  14.875
64720W        W31129  33.949   7.244  12.045
64721W        W31130   2.296   0.292   1.724
64722W        W31131  14.153  41.625   0.763
64723W        W31132  27.672  40.512   4.541
64724W        W31133   4.648   8.533  14.968
64725W        W31134   3.525  37.294   2.144
64726W        W31135  25.444  24.192   1.645
64727W        W31136   3.080   3.216   0.871
64728W        W31137  15.584  35.315   1.854
64729W        W31138  34.139   5.344   3.347
64730W        W31139  36.849  12.028  14.104
64731W        W31140  31.660  13.754   3.677
64732W        W31141  12.746  21.043  12.142
64733W        W31142  27.511  30.337   3.945
64734W        W31143  19.217   8.688  13.603
64735W        W31144   5.973   0.147  13.945
64736W        W31145   2.018   1.936   2.281
64737W        W31146  28.625  21.791   1.693
64738W        W31147  18.827  12.302   3.693
64739W        W31148  23.306  23.215  13.006
64740W        W31149  36.094  20.101  14.275
64741W        W31150   1.272   1.959  13.930
64742W        W31151  35.712  24.018   1.819
64743W        W31152  24.931  38.302  12.088
64744W        W31153  40.760   3.850  10.958
64745W        W31154  22.831  28.419   3.249
64746W        W31155  21.076   3.744  14.370
64747W        W31156  34.903  29.155   5.012
64748W        W31157  38.430  21.640  11.380
64749W        W31158  27.566  10.307  11.523
64750W        W31159  32.211  25.672  14.730
64751W        W31160   5.566  39.624  12.993
64752W        W31161   9.648  43.302   0.334
64753W        W31162  22.159  37.369   4.273
64754W        W31163  13.177  14.247  11.962
64755W        W31164  15.764  16.464   9.890
64756W        W31165   2.316  25.049   1.406
64757W        W31166  28.101  10.865  12.001
64758W        W31167  12.624  19.789  11.597
64759W        W31168  29.664  30.201   5.029
64760W        W31169   7.052  42.015   4.468
64761W        W31170  15.076   5.503   0.871
64762W        W31171  23.403  28.266   3.063
64763W        W31172  11.069   2.442   1.208
64764W        W31173   2.615  13.097  12.491
64765W        W31174  19.425  25.730  13.376
64766W        W31175  26.529  29.099   0.223
64767W        W31176  38.054  10.655  10.655
64768W        W31177   9.115  10.299  10.974
64769W        W31178  27.419  15.243  12.813
64770W        W31179  23.736  10.934  14.474
64771W        W31180  34.287  13.615   3.196
64772W        W31181  20.609  13.877  14.846
64773W        W31182  13.221   7.208  12.513
64774W        W31183   7.439  23.864  11.282
64775W        W31184  41.019  41.769  11.098
64776W        W31185  31.395  36.015  13.502
64777W        W31186  24.335  28.010  13.799
64778W        W31187  40.929  37.636   4.103
64779W        W31188  43.665  17.767  13.543
64780W        W31189  23.780  19.111  14.939
64781W        W31190  23.735  12.878   1.667
64782W        W31191   7.066  18.964  12.463
64783W        W31192  22.141  13.539   0.562
64784W        W31193  31.502  20.724  10.675
64785W        W31194  21.269  30.165  14.489
64786W        W31195   2.259  14.215   0.067
64787W        W31196  38.339  35.861   1.293
64788W        W31197  34.851  27.351  13.910
64789W        W31198  29.760  38.970   0.227
64790W        W31199  41.250   4.792   4.168
64791W        W31200  43.599  12.741   5.024
64792W        W31201  23.116  39.693   2.544
64793W        W31202  40.755  18.047   2.264
64794W        W31203  41.067  44.401   3.655
64795W        W31204  20.398  38.936  12.347
64796W        W31205  13.689  18.388  13.043
64797W        W31206  11.212  39.694   3.193
64798W        W31207  22.120  39.021  10.346
64799W        W31208  28.665  24.764  13.327
64800W        W31209  41.232   7.812  12.441
64801W        W31210  16.261  42.922  12.337
64802W        W31211  43.794  22.542   3.260
64803W        W31212  11.868   9.057   1.404
64804W        W31213  27.756  42.510  14.772
64805W        W31214  37.323  34.622   2.408
64806W        W31215  14.222  39.283  12.558
64807W        W31216  31.720  24.409   0.798
64808W        W31217  37.274  39.403  12.149
64809W        W31218   4.796   7.031   2.377
64810W        W31219  11.066  41.538   4.429
64811W        W31220  44.907  33.039   3.937
64812W        W31221  16.402  32.093   2.793
64813W        W31222  11.377  28.861   2.124
64814W        W31223   6.391  42.082  13.433
64815W        W31224   7.743  38.681  13.087
64816W        W31225  32.511  19.784  14.389
64817W        W31226  22.568  34.956   2.107
64818W        W31227  38.007   6.376   0.342
64819W        W31228   0.223  38.382  13.386
64820W        W31229  44.367  33.922   1.026
64821W        W31230  29.503  26.427   0.941
64822W        W31231  14.927  22.261  14.719
64823W        W31232  34.116  38.970   4.609
64824W        W31233   4.779  31.597  13.306
64825W        W31234  12.202  10.655   2.241
64826W        W31235  37.967  15.919   0.471
64827W        W31236   1.161   5.606   1.192
64828W        W31237   5.150  25.229   4.859
64829W        W31238  29.171  38.382   2.270
64830W        W31239  25.518  27.101  12.936
64831W        W31240  44.785  31.421  11.628
64832W        W31241  22.696   1.104   5.047
64833W        W31242  36.051  20.295   4.348
64834W        W31243  24.138   3.809  11.601
64835W        W31244  41.635   6.769  13.890
64836W        W31245   1.396  27.627   0.479
64837W        W31246  12.410   1.520  11.684
64838W        W31247   7.577   2.184  14.498
64839W        W31248  20.801  11.690   3.824
64840W        W31249  40.968  41.274   4.571
64841W        W31250  44.443  21.644   0.280
64842W        W31251  44.329  31.511  12.550
64843W        W31252  44.028  34.703   2.903
64844W        W31253  12.859  16.170   1.369
64845W        W31254  37.089  30.156   0.309
64846W        W31255  31.938  32.889   0.229
64847W        W31256  11.550  22.855   4.523
64848W        W31257  43.422  33.015   1.669
64849W        W31258  27.940  33.605   1.323
64850W        W31259  33.384  29.948   0.868
64851W        W31260  39.958  29.980  13.763
64852W        W31261  37.351  42.323   0.939
64853W        W31262  39.771  35.530  12.879
64854W        W31263  30.453  34.418   3.570
64855W        W31264   8.455  34.417   1.763
64856W        W31265  43.305  18.761  11.099
64857W        W31266  35.283  10.520   0.448
64858W        W31267  13.907  17.402   3.222
64859W        W31268  24.426  30.886  14.348
64860W        W31269  19.342  34.137   3.216
64861W        W31270  44.239  11.211   0.609
64862W        W31271  22.154  21.939  11.611
64863W        W31272   1.887  32.502  14.956
64864W        W31273   1.182  33.872  12.582
64865W        W31274   7.523   5.364   1.961
64866W        W31275  15.194  27.563  11.561
64867W        W31276  41.163   2.256   5.208
64868W        W31277  19.137  35.588  12.025
64869W        W31278   9.218  35.994  11.939
64870W        W31279  34.857   0.615  14.791
64871W        W31280  36.971  10.709   4.371
64872W        W31281  33.142  24.191   0.354
64873W        W31282  21.043   1.914   1.840
64874W        W31283  35.431  37.903   4.205
64875W        W31284  11.793  40.600  11.618
64876W        W31285  38.185  33.372   3.684
64877W        W31286  37.771  14.796  10.818
64878W        W31287  27.192  32.351   2.592
64879W        W31288  15.018  19.256   9.626
64880W        W31289   3.390  22.057  11.301
64881W        W31290  41.500   7.069  13.023
64882W        W31291   9.758   5.014   2.009
64883W        W31292  43.746  42.382   2.369
64884W        W31293  43.182  20.526   2.605
64885W        W31294  36.005  23.005   3.875
64886W        W31295  19.819  37.320  13.964
64887W        W31296  10.755  33.084   0.877
64888W        W31297  11.834  35.839  12.009
64889W        W31298   3.085  30.688   1.388
64890W        W31299   3.364  17.968   2.181
64891W        W31300  17.493  19.687  10.626
64892W        W31301  34.428  28.139   0.330
64893W        W31302   5.712  31.543   2.745
64894W        W31303  22.240   7.286   2.188
64895W        W31304  18.522   2.707   4.289
64896W        W31305  25.654  30.903   2.803
64897W        W31306  10.392  26.585  11.552
64898W        W31307  26.027  27.908  13.569
64899W        W31308  27.402  26.657   4.126
64900W        W31309  22.208  14.065  10.638
64901W        W31310  23.526   5.655  13.403
64902W        W31311  35.839  35.271  13.620
64903W        W31312  21.987   4.677  12.419
64904W        W31313  36.845  16.267  10.741
64905W        W31314  28.007  25.193  10.662
64906W        W31315  36.339  39.535  14.301
64907W        W31316  17.961  28.707  14.386
64908W        W31317  31.487  29.229   0.663
64909W        W31318   3.000  36.914   4.277
64910W        W31319  15.616  29.997  13.349
64911W        W31320   4.577   7.806   3.499
64912W        W31321  26.989  32.339   1.834
64913W        W31322  18.147  28.480  13.113
64914W        W31323  43.916  31.662   3.187
64915W        W31324  43.888  25.420   4.611
64916W        W31325  29.712  28.744  11.655
64917W        W31326   0.287  16.458  14.521
64918W        W31327  22.842  22.593   3.213
64919W        W31328   7.726   8.313   1.771
64920W        W31329  10.285  34.648  10.983
64921W        W31330   9.221   2.856  13.304
64922W        W31331   2.352  29.012  11.342
64923W        W31332  35.905   1.416   4.439
64924W        W31333  36.414   7.746  13.822
64925W        W31334  10.893  33.377   2.688
64926W        W31335  28.664   1.057   0.231
64927W        W31336   4.280  23.185  12.031
64928W        W31337  41.075   5.303   2.630
64929W        W31338  43.397  36.009   2.801
64930W        W31339  20.503  29.066   1.340
64931W        W31340  11.129  10.067   3.906
64932W        W31341  21.300  39.806   3.355
64933W        W31342  21.438  21.832   2.141
64934W        W31343  20.137  11.277  14.365
64935W        W31344  34.369  44.074   0.201
64936W        W31345  31.354  25.565   3.233
64937W        W31346   3.936  22.633  13.059
64938W        W31347  24.599   4.371  10.979
64939W        W31348  23.477  21.072   4.772
64940W        W31349  35.138   3.949   5.292
64941W        W31350  19.078  26.627  13.488
64942W        W31351   1.445  43.487   2.814
64943W        W31352  11.152  33.055   0.542
64944W        W31353  42.133   7.224   4.168
64945W        W31354  13.786  30.954   0.350
64946W        W31355   5.876  10.510  11.207
64947W        W31356  44.036  11.409   3.231
64948W        W31357  24.390   8.760  11.627
64949W        W31358  43.557   0.426   2.213
64950W        W31359  36.423  18.530   1.148
64951W        W31360   1.947  17.761  14.388
64952W        W31361  33.519  19.451   4.332
64953W        W31362  43.093  17.489  14.518
64954W        W31363  13.872   6.266  10.999
64955W        W31364  41.002  16.065  13.017
64956W        W31365  22.404   0.267   0.424
64957W        W31366  34.115  24.076  14.949
64958W        W31367  12.944   9.401   2.175
64959W        W31368  24.988  25.698   2.702
64960W        W31369  35.561   5.407  13.072
64961W        W31370  11.791  19.813   3.805
64962W        W31371  10.257  16.604   1.832
64963W        W31372  18.192  43.184  11.706
64964W        W31373  21.475  39.957  11.811
64965W        W31374   5.784  23.199   9.850
64966W        W31375  19.575  31.337   3.537
64967W        W31376  10.650  12.839   3.864
64968W        W31377   3.187  38.105   4.612
64969W        W31378  19.980   8.689  12.056
64970W        W31379   0.031  21.696  12.501
64971W        W31380   8.379  25.946   4.972
64972W        W31381   3.183  32.940   3.325
64973W        W31382  32.035  18.675  14.267
64974W        W31383   9.665  15.770  10.663
64975W        W31384  19.998   3.743  11.797
64976W        W31385   5.866  33.531   1.476
64977W        W31386  30.653  31.539   1.324
64978W        W31387  18.943  42.251  13.383
64979W        W31388  44.719  28.507  11.105
64980W        W31389  32.491  34.590  11.910
64981W        W31390  29.646  24.766   2.776
64982W        W31391  29.733  29.505   5.089
64983W        W31392  34.111  32.149   2.835
64984W        W31393  24.204  39.316  10.638
64985W        W31394  12.888  39.550   3.702
64986W        W31395  26.648  33.644   1.809
64987W        W31396  14.107  21.107  14.779
64988W        W31397   0.406  35.732   2.675
64989W        W31398  40.660  18.618  14.815
64990W        W31399  41.920   7.854  10.547
64991W        W31400  36.874  18.898   3.686
64992W        W31401  31.797  16.193  13.286
64993W        W31402   9.288  22.950   3.317
64994W        W31403  14.103   3.905  14.964
64995W        W31404   3.793  38.838   4.686
64996W        W31405  13.098  36.956   3.294
64997W        W31406  20.158  33.359  14.861
64998W        W31407  41.356  40.047  13.363
64999W        W31408   7.450  44.525   1.478
65000W        W31409  17.551  29.638  14.482
65001W        W31410  39.018  44.440   0.228
65002W        W31411  16.758   2.511  14.391
65003W        W31412   2.328   9.724   0.774
65004W        W31413  18.812  12.383  13.141
65005W        W31414  35.680  34.890  14.610
65006W        W31415  18.567  41.857  13.416
65007W        W31416  13.303  13.465  13.585
65008W        W31417  19.524  21.498  12.188
65009W        W31418  10.707  11.240   3.460
65010W        W31419  33.295  10.147   1.228
65011W        W31420  30.813  38.409  12.471
65012W        W31421   2.838   0.910  10.972
65013W        W31422  41.344  39.492  10.682
65014W        W31423  42.353   1.292   4.782
65015W        W31424  24.112  41.836  12.966
65016W        W31425  17.224  40.949   4.386
65017W        W31426  31.411  44.723  14.545
65018W        W31427  28.507  38.236  11.268
65019W        W31428  31.984  35.100  11.639
65020W        W31429  14.794  38.232  13.612
65021W        W31430  31.827   7.759   1.828
65022W        W31431  20.497  16.601  14.290
65023W        W31432  32.830  32.109  11.094
65024W        W31433  10.033  29.208   0.785
65025W        W31434  44.008  22.080   3.302
65026W        W31435  30.605  16.390  14.097
65027W        W31436  33.623  38.514  11.540
65028W        W31437  30.105  14.389  12.117
65029W        W31438  14.060  29.941  13.471
65030W        W31439  21.086  20.707   2.332
65031W        W31440  10.257  12.595   3.616
65032W        W31441  27.508  32.519  11.742
65033W        W31442  12.357  25.582   4.699
65034W        W31443  31.352  16.779   3.976
65035W        W31444  25.215  19.286   2.884
65036W        W31445  20.509  12.919   3.248
65037W        W31446  26.726   6.801   3.327
65038W        W31447  37.420   2.710   4.535
65039W        W31448   5.956  31.358   3.261
65040W        W31449  12.777  16.160   2.746
65041W        W31450  14.624  12.013  12.032
65042W        W31451  13.019   3.771  11.464
65043W        W31452  42.305   7.930  13.413
65044W        W31453  32.593  12.810   3.169
65045W        W31454  20.256   3.949   4.106
65046W        W31455  37.802  38.564  13.431
65047W        W31456  25.508  18.482  11.274
65048W        W31457  10.166  37.642  11.267
65049W        W31458  29.326   4.856   3.724
65050W        W31459  37.431   5.679  14.347
65051W        W31460  22.496  34.863  12.510
65052W        W31461  40.445  28.667   3.655
65053W        W31462   4.517  12.183   2.071
65054W        W31463  22.543  21.929  14.459
65055W        W31464  35.953  14.272  10.413
65056W        W31465  31.882  21.017   0.033
65057W        W31466  31.948  34.778  13.011
65058W        W31467  41.087  37.438   4.577
65059W        W31468  33.572  18.746   0.440
65060W        W31469  11.731  27.052   4.057
65061W        W31470  21.137   0.343  11.602
65062W        W31471   7.595  14.649  13.361
65063W        W31472  19.768  20.064   0.343
65064W        W31473   9.334   3.781  10.326
65065W        W31474  26.429  14.295  11.739
65066W        W31475  15.684   3.734   3.677
65067W        W31476  24.888   0.639   0.939
65068W        W31477  14.776   6.483  10.759
65069W        W31478  20.122  12.636   4.499
65070W        W31479   6.420  25.095   2.828
65071W        W31480  43.040  19.479  13.126
65072W        W31481  16.181   4.641  10.283
65073W        W31482  42.154   0.406  13.326
65074W        W31483  42.905  28.874  11.666
65075W        W31484  42.011  31.422  12.471
65076W        W31485  21.096  27.364  13.006
65077W        W31486  25.723  26.547   3.192
65078W        W31487  22.441   8.958  10.355
65079W        W31488  28.030   3.438  15.000
65080W        W31489  38.932  19.998  13.547
65081W        W31490  43.002   8.433  12.971
65082W        W31491  15.292  33.529  12.784
65083W        W31492  39.288  27.979   2.001
65084W        W31493  39.243  26.873  13.339
65085W        W31494  33.564   2.723   2.315
65086W        W31495  44.493  17.135   3.636
65087W        W31496  13.860   9.800   0.733
65088W        W31497  31.457  15.802  13.188
65089W        W31498   6.745  31.463   3.683
65090W        W31499  12.654  35.488   2.168
65091W        W31500  10.529  24.908   1.769
65092W        W31501  16.862  27.301   1.118
65093W        W31502  33.596  32.526   4.508
65094W        W31503  11.862  16.391  13.084
65095W        W31504  16.746  15.966  13.517
65096W        W31505   6.696  15.569   2.844
65097W        W31506  44.307  31.631   4.834
65098W        W31507   0.881  34.068   4.607
65099W        W31508  44.375  36.897   5.204
65100W        W31509  35.975  18.068  13.960
65101W        W31510   3.683   9.305   1.517
65102W        W31511  42.462  32.187  13.370
65103W        W31512  12.338   3.363   3.698
65104W        W31513  25.854   6.441   3.397
65105W        W31514  21.167  32.036   4.801
65106W        W31515  28.559  28.298  13.708
65107W        W31516   0.118  18.685   0.642
65108W        W31517  11.410  39.849   4.526
65109W        W31518  27.280   1.445   3.532
65110W        W31519  44.971  13.106  12.109
65111W        W31520  20.206  41.089   2.677
65112W        W31521  33.925  17.728   3.087
65113W        W31522   9.400  19.016  14.044
65114W        W31523  33.295   6.669   3.237
65115W        W31524  37.099  17.084  12.140
65116W        W31525  39.043  28.711  13.808
65117W        W31526  24.636  17.993   1.301
65118W        W31527   7.877   1.757   0.461
65119W        W31528  27.555   5.217  12.838
65120W        W31529   7.498   4.488  12.632
65121W        W31530  23.692  15.690   4.192
65122W        W31531  32.951   5.503   2.602
65123W        W31532  25.018  26.227   1.803
65124W        W31533  38.364  24.787   3.370
65125W        W31534  31.666  35.438  13.301
65126W        W31535  23.524   5.307  11.623
65127W        W31536  28.873  14.203   3.562
65128W        W31537  27.592  23.759   4.961
65129W        W31538  42.055  14.384   5.163
65130W        W31539  21.788  12.573   2.990
65131W        W31540   4.875   5.751  13.034
65132W        W31541  36.769  38.054   1.374
65133W        W31542   7.065   6.253  11.098
65134W        W31543  41.499  27.923   1.320
65135W        W31544  21.728  40.545  12.785
65136W        W31545   6.434  22.391   1.761
65137W        W31546  34.667  24.462  11.709
65138W        W31547  29.550  28.625  12.595
65139W        W31548  15.104  36.539  13.530
65140W        W31549  30.821  38.574   0.669
65141W        W31550   5.996   1.704   2.782
65142W        W31551  10.738   7.030   0.102
65143W        W31552   8.862   1.934  13.429
65144W        W31553   1.236  15.315   1.740
65145W        W31554  18.269  19.599  14.504
65146W        W31555  24.769  20.582  11.762
65147W        W31556  26.152   9.927  12.986
65148W        W31557  18.539  40.919   0.853
65149W        W31558   4.711  28.832  11.997
65150W        W31559   7.252  13.627   2.893
65151W        W31560   8.190  28.237   4.512
65152W        W31561  25.999  21.149  13.489
65153W        W31562  22.257  32.430   2.306
65154W        W31563  11.074   7.434  13.488
65155W        W31564  30.178   7.984   3.721
65156W        W31565   9.320  44.923  10.265
65157W        W31566  13.735   8.159  11.156
65158W        W31567  34.447  40.998   4.819
65159W        W31568  13.660  18.963  10.635
65160W        W31569  30.700  11.908  12.849
65161W        W31570   1.889  41.475   5.009
65162W        W31571  19.611  13.247  11.178
65163W        W31572  20.293   4.900  13.886
65164W        W31573  25.159  19.068   5.005
65165W        W31574  32.219  22.029   1.849
65166W        W31575  22.859  33.479   0.289
65167W        W31576  35.432  11.755   0.851
65168W        W31577  32.443  36.508  11.476
65169W        W31578  17.037  36.570   4.230
65170W        W31579  31.121  22.602   1.457
65171W        W31580  20.250  32.507   3.105
65172W        W31581  27.929  34.240   4.083
65173W        W31582  30.991  26.220   0.453
65174W        W31583   6.568  18.399  13.017
65175W        W31584  37.977   0.870  14.949
65176W        W31585  16.859  15.488  13.368
65177W        W31586  38.172   5.279   4.657
65178W        W31587  22.321  24.667  10.700
65179W        W31588  21.647  40.018   3.826
65180W        W31589  28.632  41.334   4.186
65181W        W31590  24.111  39.429   2.901
65182W        W31591  31.589  23.945   0.326
65183W        W31592  20.131  15.159   3.792
65184W        W31593  33.570   8.410  14.873
65185W        W31594  24.551  38.554   0.278
65186W        W31595  10.312  40.292   2.347
65187W        W31596   5.766  18.311   4.567
65188W        W31597   9.755  35.051  10.569
65189W        W31598  11.238  43.833  13.347
65190W        W31599  36.294  34.855  11.986
65191W        W31600  41.368  10.241  12.526
65192W        W31601  25.964  26.619  10.260
65193W        W31602  38.440  13.795   3.909
65194W        W31603  22.636  38.915  10.557
65195W        W31604  28.228  30.867  13.117
65196W        W31605  33.633   7.592   1.378
65197W        W31606  19.002  26.186  10.723
65198W        W31607  16.405  33.205   0.326
65199W        W31608  24.788   8.587  12.476
65200W        W31609  32.909  20.511  13.621
65201W        W31610   8.805  40.632  13.597
65202W        W31611   5.276   2.372  12.075
65203W        W31612  15.712   4.307   9.911
65204W        W31613  28.224   2.409   0.899
65205W        W31614  17.764  40.957  12.181
65206W        W31615  41.005  36.011   2.429
65207W        W31616  26.373   5.694  11.089
65208W        W31617  27.074  25.203  10.776
65209W        W31618  11.290  26.273  14.441
65210W        W31619  19.716  38.968  12.146
65211W        W31620  20.586   6.205   0.444
65212W        W31621  38.413  11.893  11.963
65213W        W31622  39.604  32.364  13.037
65214W        W31623   7.891  15.115   4.550
65215W        W31624  17.810  30.691  12.141
65216W        W31625  17.129  31.951   0.459
65217W        W31626  19.160  37.837  13.489
65218W        W31627   1.519  37.879  12.857
65219W        W31628  14.934   4.462   4.479
65220W        W31629   9.885  31.137   5.092
65221W        W31630  35.049   2.366  11.177
65222W        W31631  29.035  23.487   4.736
65223W        W31632  39.648  20.613   4.608
65224W        W31633  16.818   0.570   2.310
65225W        W31634  22.458  44.754   3.281
65226W        W31635  38.760  32.293  12.048
65227W        W31636   1.749  29.998  14.326
65228W        W31637  43.218  35.898   4.439
65229W        W31638  26.709  28.884  14.788
65230W        W31639  27.535   8.723  14.144
65231W        W31640  24.696  34.154  13.744
65232W        W31641  13.728  35.128  14.837
65233W        W31642  22.491  36.120   0.735
65234W        W31643   9.664  43.659  12.016
65235W        W31644  41.369  44.478   4.542
65236W        W31645   3.676   5.919   3.314
65237W        W31646  23.300   0.380   1.616
65238W        W31647  22.154   6.771   1.862
65239W        W31648  27.341   2.033   0.794
65240W        W31649  16.022  24.096   3.684
65241W        W31650  23.013  37.189   4.137
65242W        W31651  20.252  11.619   2.916
65243W        W31652  32.147  31.410   0.283
65244W        W31653  27.992   6.269   2.209
65245W        W31654   2.293  43.292   3.237
65246W        W31655   9.166  16.577   3.807
65247W        W31656   0.469   4.915  10.679
65248W        W31657   7.795  12.636  14.554
65249W        W31658  41.075  20.809  13.494
65250W        W31659  35.798  18.891   2.835
65251W        W31660  27.624  40.576   0.101
65252W        W31661  42.937  36.555   4.330
65253W        W31662   0.688  37.796   2.213
65254W        W31663   8.783  19.728  14.428
65255W        W31664  19.501  43.921  11.173
65256W        W31665  44.348   3.760  13.267
65257W        W31666  43.522  20.488  14.843
65258W        W31667  32.975   0.754   2.947
65259W        W31668  44.877  27.679  14.387
65260W        W31669  19.898  35.705  11.510
65261W        W31670   9.382  31.897   4.077
65262W        W31671   9.173   8.625  13.824
65263W        W31672  41.757  10.359   1.875
65264W        W31673  37.879  19.513   0.992
65265W        W31674  41.968  10.694   0.179
65266W        W31675  44.247  27.058   0.923
65267W        W31676  19.062   9.305   4.494
65268W        W31677  40.866   7.797  12.783
65269W        W31678  25.797   4.915  12.914
65270W        W31679  39.710  26.445   0.231
65271W        W31680  25.368  15.223  10.514
65272W        W31681   1.709  12.552  12.195
65273W        W31682  29.815   9.832  12.577
65274W        W31683  31.628  11.661  14.057
65275W        W31684  39.404  26.717   4.246
65276W        W31685  29.052  20.044  14.220
65277W        W31686  28.362  44.134   1.702
65278W        W31687  12.541  27.078   1.408
65279W        W31688  18.079  40.532   4.585
65280W        W31689  41.166   8.772   4.150
65281W        W31690  37.725  15.589  12.321
65282W        W31691  29.223  37.374  13.210
65283W        W31692  42.544  30.580   4.749
65284W        W31693  39.904  39.444  12.566
65285W        W31694  30.137  33.639   4.672
65286W        W31695  39.610  41.047   3.760
65287W        W31696  22.036  31.079   3.141
65288W        W31697  21.106   3.584   0.764
65289W        W31698  24.594  10.737   1.639
65290W        W31699  13.740   5.400   3.157
65291W        W31700  16.054  18.861   1.748
65292W        W31701  14.346  19.665   4.084
65293W        W31702  27.445  36.330   1.789
65294W        W31703   1.710   9.759   4.643
65295W        W31704  39.379   6.437  11.109
65296W        W31705  15.873  24.421  11.524
65297W        W31706  11.333  22.550  13.027
65298W        W31707  21.392   0.285   4.233
65299W        W31708  33.886   7.310  14.216
65300W        W31709  30.741   1.656   2.654
65301W        W31710  25.738  34.118   0.445
65302W        W31711  32.911  41.385  10.785
65303W        W31712  38.883  40.930   1.333
65304W        W31713   1.479  18.999   3.740
65305W        W31714   9.408  10.911   4.113
65306W        W31715  29.585  43.918   1.220
65307W        W31716  38.140  32.411  12.621
65308W        W31717  12.505  34.461   3.193
65309W        W31718  33.029  20.072   2.769
65310W        W31719  40.017  28.626  13.887
65311W        W31720  41.843  43.289   4.115
65312W        W31721  14.958  30.091  14.272
65313W        W31722   3.427  35.349   3.152
65314W        W31723  20.915  28.933   4.450
65315W        W31724  33.340   9.335   3.711
65316W        W31725  29.571   6.871   0.755
65317W        W31726  33.349   9.896  14.831
65318W        W31727  41.040  34.638   2.699
65319W        W31728   4.798  20.598  11.642
65320W        W31729  40.437  12.233  10.686
65321W        W31730  41.557   4.936  14.502
65322W        W31731  19.746  44.844   1.210
65323W        W31732  24.654   1.995   2.283
65324W        W31733   5.239  36.065   2.290
65325W        W31734  39.836  14.808   0.380
65326W        W31735  43.500  12.593   3.612
65327W        W31736  41.476  40.006  14.348
65328W        W31737  20.672  27.123   2.171
65329W        W31738  38.354  30.569  14.891
65330W        W31739  29.085   4.959  14.041
65331W        W31740  27.295  22.418  14.962
65332W        W31741  39.864  28.276  11.433
65333W        W31742  14.940  43.802  12.075
65334W        W31743  24.597  28.740   4.345
65335W        W31744  16.919   0.481   9.884
65336W        W31745  13.298   6.463   3.667
65337W        W31746  12.641  43.870  13.842
65338W        W31747  12.105   4.271   0.917
65339W        W31748  39.536  43.721   2.567
65340W        W31749   7.827  21.161  13.121
65341W        W31750  43.521   2.073  11.672
65342W        W31751  10.684  28.212  12.342
65343W        W31752  30.679  31.111  13.737
65344W        W31753  14.743  43.663  10.232
65345W        W31754  30.459   5.337   2.823
65346W        W31755  42.499  29.183  11.500
65347W        W31756   5.158   9.437   2.704
65348W        W31757   8.682  14.902   0.053
65349W        W31758   8.813  21.495  10.978
65350W        W31759  15.613  43.384   2.208
65351W        W31760  24.376   4.381   4.185
65352W        W31761  44.272  18.011  10.400
65353W        W31762   1.016  25.848  14.051
65354W        W31763  22.768   0.762   3.451
65355W        W31764  18.270  22.309   0.202
65356W        W31765   8.822  19.576  12.896
65357W        W31766  12.737  10.365  12.038
65358W        W31767  26.944  25.095  14.831
65359W        W31768  44.438  20.161  11.515
65360W        W31769  40.254  24.473   2.625
65361W        W31770  23.516  43.408   2.308
65362W        W31771  23.867  31.988   1.439
65363W        W31772  38.471  16.882  11.132
65364W        W31773  35.323   1.328  13.199
65365W        W31774  26.423   3.686   3.785
65366W        W31775  37.250  37.892  14.512
65367W        W31776  22.968  18.981   3.347
65368W        W31777  44.264   3.172   5.236
65369W        W31778  30.139   9.809  14.784
65370W        W31779  23.020   0.931   2.913
65371W        W31780  27.790  39.784   2.655
65372W        W31781  19.729  26.489   2.884
65373W        W31782  25.422   7.461   0.866
65374W        W31783  39.454   3.645   1.301
65375W        W31784  32.224  10.774   3.729
65376W        W31785  15.071  37.231   3.154
65377W        W31786  37.403  31.638  14.066
65378W        W31787   1.782  23.523  13.943
65379W        W31788  41.213  31.650  12.844
65380W        W31789  14.084  29.064  13.509
65381W        W31790  24.542  43.088  14.090
65382W        W31791  19.760  37.401  12.799
65383W        W31792   4.385  30.159  13.067
65384W        W31793  24.549  14.954   4.658
65385W        W31794  22.981   6.423  12.840
65386W        W31795  37.494  16.405  11.541
65387W        W31796  34.699  21.751  12.110
65388W        W31797  17.242   0.854   0.242
65389W        W31798  21.248  34.142  11.615
65390W        W31799  32.341  32.948  11.030
65391W        W31800   0.074  10.325  10.552
65392W        W31801  30.870  31.646   3.638
65393W        W31802   1.253  17.466   2.445
65394W        W31803  29.541  25.404  13.388
65395W        W31804  23.068  41.273  11.645
65396W        W31805  42.798   3.244  14.298
65397W        W31806  12.550  34.360   0.293
65398W        W31807  18.840  14.623   1.502
65399W        W31808  21.999  40.492   2.378
65400W        W31809  17.635  21.618   0.911
65401W        W31810  30.440  21.292   4.839
65402W        W31811   7.867  30.285  12.428
65403W        W31812  41.378  42.988  12.142
65404W        W31813  27.334  39.105   2.278
65405W        W31814  27.134   3.909   3.248
65406W        W31815  17.502  35.307   5.022
65407W        W31816   8.224   9.706   0.029
65408W        W31817  32.962   7.407   1.339
65409W        W31818  20.654  44.425   4.263
65410W        W31819  10.336  30.192  13.934
65411W        W31820  14.500  26.758  11.965
65412W        W31821  27.034  37.778   0.002
65413W        W31822   5.863  11.638   1.835
65414W        W31823  40.982  26.205  13.983
65415W        W31824   6.799  36.151  12.478
65416W        W31825  38.992  10.242  13.802
65417W        W31826   5.144  10.777   0.796
65418W        W31827  26.319   9.762   3.534
65419W        W31828   9.283  19.148  12.460
65420W        W31829  35.648  43.895  13.610
65421W        W31830  32.406  32.449  11.115
65422W        W31831  15.164   6.924  12.469
65423W        W31832  43.575   7.214  12.022
65424W        W31833  14.338  22.390  13.442
65425W        W31834  33.378  29.718   2.712
65426W        W31835  19.280  11.087   0.843
65427W        W31836   9.429   3.032   0.003
65428W        W31837  16.406   9.796   4.455
65429W        W31838  20.038   4.866   5.036
65430W        W31839   7.465  25.017   1.727
65431W        W31840  11.822  41.006   2.645
65432W        W31841  12.056  15.103   3.669
65433W        W31842  24.296   0.476  11.326
65434W        W31843  39.847  23.822   3.926
65435W        W31844  23.661  34.174   4.122
65436W        W31845  13.552  42.505   3.172
65437W        W31846  36.364   3.569   2.635
65438W        W31847  15.794  33.391  12.837
65439W        W31848   3.159  42.453  14.418
65440W        W31849  27.873  17.130   1.133
65441W        W31850  30.435  36.708  12.138
65442W        W31851  33.411  36.926  10.345
65443W        W31852  23.526   6.780  10.682
65444W        W31853  28.217  21.284  13.942
65445W        W31854  20.022   7.592   0.831
65446W        W31855  43.982   2.399   4.417
65447W        W31856  41.762   9.222  14.844
65448W        W31857  26.963  38.423   0.716
65449W        W31858  38.889  27.470  14.899
65450W        W31859  17.691  35.684  14.379
65451W        W31860  15.727  39.312   3.427
65452W        W31861  16.803  18.680   2.339
65453W        W31862  26.712   7.802  14.858
65454W        W31863  38.939   0.859   0.010
65455W        W31864  27.150  21.584   4.209
65456W        W31865  34.540   3.710   3.631
65457W        W31866  37.262  12.574   2.225
65458W        W31867  16.092  26.637   1.483
65459W        W31868  37.238   0.729   2.515
65460W        W31869  14.726   4.110   0.974
65461W        W31870  15.246  38.915   1.720
65462W        W31871   7.685  39.539  13.440
65463W        W31872  37.814  42.257   1.161
65464W        W31873  33.275  22.544  13.379
65465W        W31874  14.551  30.067  11.152
65466W        W31875  34.900  17.463   2.786
65467W        W31876  39.623  15.273  10.998
65468W        W31877   6.866  17.485   0.876
65469W        W31878  26.549  37.717   4.117
65470W        W31879  41.861   3.068   3.446
65471W        W31880   5.245  14.721  11.418
65472W        W31881  13.993  32.399   5.556
65473W        W31882  21.569  27.222  13.100
65474W        W31883  28.499  16.003  14.224
65475W        W31884  21.118  44.493  11.610
65476W        W31885  30.495  43.754   3.668
65477W        W31886   6.984   9.594  12.868
65478W        W31887  28.360  12.422  11.039
65479W        W31888   2.532  14.636   4.814
65480W        W31889   0.869  21.153   5.340
65481W        W31890  44.855  21.570  13.489
65482W        W31891  17.550   3.254   1.177
65483W        W31892  28.058  12.026  12.598
65484W        W31893   9.739   5.268   1.309
65485W        W31894   4.277  18.084  12.494
65486W        W31895  39.345  21.618   0.062
65487W        W31896  39.821  14.064   1.171
65488W        W31897  25.546  22.711   1.179
65489W        W31898  13.531  29.378   1.340
65490W        W31899  19.231  37.385  14.267
65491W        W31900  23.227  27.321   1.513
65492W        W31901   4.281   1.661  12.995
65493W        W31902   2.091  22.939  13.268
65494W        W31903  14.333   2.719  13.420
65495W        W31904   4.802  11.610  14.546
65496W        W31905  22.714   7.775   3.110
65497W        W31906   3.624  41.470   3.053
65498W        W31907  37.009  31.979   2.421
65499W        W31908  30.697  17.134  11.404
65500W        W31909  41.302  17.174   2.320
65501W        W31910  20.604   8.755  12.765
65502W        W31911   1.500  10.233   4.836
65503W        W31912  22.918  11.243   0.303
65504W        W31913  36.297  16.483   0.081
65505W        W31914  25.542  13.282  14.886
65506W        W31915  37.615  29.864  11.648
65507W        W31916  43.979  42.892  12.816
65508W        W31917  32.410   9.364   2.323
65509W        W31918   7.935   0.225  13.810
65510W        W31919  15.029   3.823  11.157
65511W        W31920  11.728  30.194   2.593
65512W        W31921   6.189  34.522  13.052
65513W        W31922   2.414  22.299  11.098
65514W        W31923  27.295  28.886   0.339
65515W        W31924  36.847   7.870   3.622
65516W        W31925  29.655   4.851  12.858
65517W        W31926  31.002   0.229  10.750
65518W        W31927   8.188   3.288  10.576
65519W        W31928  26.451  38.974  12.432
65520W        W31929  38.076  17.225  12.119
65521W        W31930   0.759  14.889  13.394
65522W        W31931   5.350   7.750   4.100
65523W        W31932  33.027  16.311   1.648
65524W        W31933  16.709  38.047   2.586
65525W        W31934   7.385  19.820  12.533
65526W        W31935  14.742  28.193   3.786
65527W        W31936  26.632  44.870  12.760
65528W        W31937  44.434  34.902   2.637
65529W        W31938  18.265  26.732   1.421
65530W        W31939  22.483  18.866   0.282
65531W        W31940  34.423  14.482  12.523
65532W        W31941  43.164  31.552   2.370
65533W        W31942   5.807   4.513  12.526
65534W        W31943  37.449  25.870   4.723
65535W        W31944  34.839  31.980  14.770
65536W        W31945  16.237  39.973   2.749
65537W        W31946  11.369  24.577   1.949
65538W        W31947   5.749  42.917  13.921
65539W        W31948  10.699   8.167   4.540
65540W        W31949  38.400  24.098   4.799
65541W        W31950  12.285   2.526   5.017
65542W        W31951  23.046  10.968  11.931
65543W        W31952  43.786  37.547  10.652
65544W        W31953  37.082  15.351   1.747
65545W        W31954  19.077  32.999   4.466
65546W        W31955  19.656  11.968  11.614
65547W        W31956   4.318   8.791  11.641
65548W        W31957  43.875  34.850  13.283
65549W        W31958  31.452   4.683   2.309
65550W        W31959  27.052  36.173   3.467
65551W        W31960  13.201   6.648  14.931
65552W        W31961  35.189  34.899   0.964
65553W        W31962  31.433  28.060  10.676
65554W        W31963  24.021  36.812   1.757
65555W        W31964  20.828  32.864   0.320
65556W        W31965  34.068  39.343   1.908
65557W        W31966   5.201  32.790   1.625
65558W        W31967  18.142  30.913  10.422
65559W        W31968   1.319  31.392  13.941
65560W        W31969   8.333  43.876  12.820
65561W        W31970  22.629  39.902   3.910
65562W        W31971  18.237  38.958  11.925
65563W        W31972   5.916  28.946   4.963
65564W        W31973   0.740  39.877   0.244
65565W        W31974  42.577  42.334   4.648
65566W        W31975  12.256  22.057  13.912
65567W        W31976  34.810  36.965  13.017
65568W        W31977  17.005  35.204   4.168
65569W        W31978  42.842  37.988   2.225
65570W        W31979  30.089  32.664  11.250
65571W        W31980  42.887  11.368   0.911
65572W        W31981   5.236  44.354   0.913
65573W        W31982   1.207  38.034   1.326
65574W        W31983  21.491   5.732   0.297
65575W        W31984  35.051  36.790  14.756
65576W        W31985  44.156  36.344   1.545
65577W        W31986  41.457  42.821   0.448
65578W        W31987  10.737  38.593   0.849
65579W        W31988  20.180  22.216  13.990
65580W        W31989   5.475  38.791   4.167
65581W        W31990  32.009   7.782  10.592
65582W        W31991  34.086  18.822   4.178
65583W        W31992  39.410   1.201   2.911
65584W        W31993   4.971  39.005   4.211
65585W        W31994   6.243   1.684  11.630
65586W        W31995  31.319   3.251  12.556
65587W        W31996   5.684  44.848   1.633
65588W        W31997  40.258  15.053  11.378
65589W        W31998   2.912   5.441  11.585
65590W        W31999   5.037  17.189  10.664
65591W        W32000   9.880  23.694   2.634
65592W        W32001  33.198  32.466   1.891
65593W        W32002   5.219  11.901  12.115
65594W        W32003  28.286  40.437  12.374
65595W        W32004  15.450  40.482  10.920
65596W        W32005  33.901  34.598  10.434
65597W        W32006  13.552  22.438  14.943
65598W        W32007  24.452  18.205   1.800
65599W        W32008  43.331  17.587   4.096
65600W        W32009  14.420  23.158   1.194
65601W        W32010  36.507   6.725  11.626
65602W        W32011  32.328   3.286   2.178
65603W        W32012   0.875   2.759  11.104
65604W        W32013  27.166  27.450   1.764
65605W        W32014  21.617  42.345  10.685
65606W        W32015  25.528  33.721  11.256
65607W        W32016   1.865  30.924   2.929
65608W        W32017  36.336  16.149   3.905
65609W        W32018   0.917  22.048   5.029
65610W        W32019  42.642  17.280  12.861
65611W        W32020  21.351  16.263  14.480
65612W        W32021   5.852  19.488  14.277
65613W        W32022  17.268  37.054   4.259
65614W        W32023  22.342  15.617  11.547
65615W        W32024  38.342  38.855   2.314
65616W        W32025   0.348  27.528   2.730
65617W        W32026   9.085  36.130   1.472
65618W        W32027  16.159  13.271   1.257
65619W        W32028  12.649   8.533  13.570
65620W        W32029   5.681  41.511  12.488
65621W        W32030  21.691  35.775   1.116
65622W        W32031  13.391   8.245   3.148
65623W        W32032   4.720   2.189   0.904
65624W        W32033  10.896  18.256   0.364
65625W        W32034   8.541  11.247   0.240
65626W        W32035   7.662  36.097  12.590
65627W        W32036  20.654  39.257   1.282
65628W        W32037   8.446  30.772  10.777
65629W        W32038  42.335  38.404   1.949
65630W        W32039  12.095  25.958  12.044
65631W        W32040  34.501  14.540   3.121
65632W        W32041  38.915  43.737  14.546
65633W        W32042  27.152  26.522  14.442
65634W        W32043   0.174  11.579  13.967
65635W        W32044   3.753  18.123   1.332
65636W        W32045  38.557   8.887   4.495
65637W        W32046  20.752   7.332  14.265
65638W        W32047   3.775   7.828  12.787
65639W        W32048  19.651   1.263  14.778
65640W        W32049   7.951  18.293  14.487
65641W        W32050  24.121  26.390  14.620
65642W        W32051  43.999  36.008  11.357
65643W        W32052   9.587  17.433  12.710
65644W        W32053  18.155  43.906   4.111
65645W        W32054  21.264  10.393   0.457
65646W        W32055  17.936  39.015  12.351
65647W        W32056   5.296   8.265   1.949
65648W        W32057   6.951  16.863   1.576
65649W        W32058  10.598  21.176   0.362
65650W        W32059   9.404  13.640  13.159
65651W        W32060  40.571  37.612   0.733
65652W        W32061  39.245   9.396   2.944
65653W        W32062  15.609  38.495   3.803
65654W        W32063  36.506  31.457  12.521
65655W        W32064  32.003  30.043   0.485
65656W        W32065  16.579  24.463   2.211
65657W        W32066  18.143  28.056   0.892
65658W        W32067  15.083  10.290  12.795
65659W        W32068  17.549   4.820  10.755
65660W        W32069   7.856  29.451   0.440
65661W        W32070   2.418  23.423  14.590
65662W        W32071  17.164   0.679  13.808
65663W        W32072  27.340  36.044  13.462
65664W        W32073  40.984  44.763  13.346
65665W        W32074  38.523  16.479  11.471
65666W        W32075  21.821   0.292   3.326
65667W        W32076   9.576  18.261  12.620
65668W        W32077  21.025   7.099   4.537
65669W        W32078   9.531  22.466  10.420
65670W        W32079  32.437  23.034   0.871
65671W        W32080  41.431  12.720  13.964
65672W        W32081  27.171   4.710  14.780
65673W        W32082  39.908  34.316   3.570
65674W        W32083   7.152  39.412   1.508
65675W        W32084  22.620  41.935   2.246
65676W        W32085  27.733  28.543   2.371
65677W        W32086  19.203   5.816   3.161
65678W        W32087  32.403  10.781  10.520
65679W        W32088   4.488  40.407  13.971
65680W        W32089  22.004   0.105   2.676
65681W        W32090  17.481   7.516   4.197
65682W        W32091  43.117   0.426  14.159
65683W        W32092  15.136  32.760   1.717
65684W        W32093  31.327  36.955   1.290
65685W        W32094  19.232  25.179   0.367
65686W        W32095  32.934   0.510  10.709
65687W        W32096  17.597  32.179   0.348
65688W        W32097  38.854  14.666  11.041
65689W        W32098  24.404  13.620  14.471
65690W        W32099  44.798  32.593  10.679
65691W        W32100  21.735   3.316   1.913
65692W        W32101  22.084  27.744   4.374
65693W        W32102   9.389  22.473   1.192
65694W        W32103  11.233  23.597   1.764
65695W        W32104   8.981  21.820  14.387
65696W        W32105  19.469  15.756   3.404
65697W        W32106   2.380  36.491   3.233
65698W        W32107  11.642  36.038  10.231
65699W        W32108  12.881  20.898  13.460
65700W        W32109  29.620  41.895  13.840
65701W        W32110  20.026  29.529   4.601
65702W        W32111  34.590  44.465   4.940
65703W        W32112   7.861   4.272   0.455
65704W        W32113  21.723   0.976   0.776
65705W        W32114  22.568  25.844  11.436
65706W        W32115   4.679   8.898  14.598
65707W        W32116  29.147  42.428   1.254
65708W        W32117  22.575  39.999  12.521
65709W        W32118  35.282  31.161   0.773
65710W        W32119  21.210  42.532  11.565
65711W        W32120  21.603   2.237   1.307
65712W        W32121   5.336  15.278  11.101
65713W        W32122  12.256   4.727  13.446
65714W        W32123  20.141  15.698   1.835
65715W        W32124   9.794  30.115   5.206
65716W        W32125  44.055  21.647   4.210
65717W        W32126  19.115  36.333   2.844
65718W        W32127   3.386  20.677  11.899
65719W        W32128  28.744  44.459  13.871
65720W        W32129  42.602  32.588   3.736
65721W        W32130  36.021   8.003  12.566
65722W        W32131  10.340  44.527  12.851
65723W        W32132  29.136  31.306  13.910
65724W        W32133  39.007   3.496  14.540
65725W        W32134  13.732  18.049  12.661
65726W        W32135   2.299  20.329   3.899
65727W        W32136  14.629   0.718   4.204
65728W        W32137  10.639   8.778  14.851
65729W        W32138  32.974   7.312  13.740
65730W        W32139  17.133  35.120  11.928
65731W        W32140  32.042   3.206  13.025
65732W        W32141   2.981   9.290  13.672
65733W        W32142  31.101  42.365   0.463
65734W        W32143  33.547  35.561   0.418
65735W        W32144  42.371  10.921   3.119
65736W        W32145  25.090   9.871   3.248
65737W        W32146  34.390  11.597   4.591
65738W        W32147  35.376  17.372   0.315
65739W        W32148  27.630  12.163   1.269
65740W        W32149  35.768  20.637  10.788
65741W        W32150  39.822  22.481  11.678
65742W        W32151   0.707  34.323   5.031
65743W        W32152  38.494  42.992   2.946
65744W        W32153  22.753   5.944  14.838
65745W        W32154  30.090   1.778  13.746
65746W        W32155   2.211  38.107  11.587
65747W        W32156   0.294  38.056  14.828
65748W        W32157  15.005   6.183   3.078
65749W        W32158   3.742   3.630  11.202
65750W        W32159  12.048  28.890  12.927
65751W        W32160  10.409  22.036   4.104
65752W        W32161  29.548  43.326   2.666
65753W        W32162  21.986  28.613  14.769
65754W        W32163  14.746   7.016   2.188
65755W        W32164  38.692  22.148   2.838
65756W        W32165  40.305  36.990   3.807
65757W        W32166   0.739  31.418  12.892
65758W        W32167   9.654  19.155   0.842
65759W        W32168   4.711   1.173   4.620
65760W        W32169  42.069   3.498  13.600
65761W        W32170  32.295  34.815  12.611
65762W        W32171   8.511   6.864  13.405
65763W        W32172   6.675  12.267   1.733
65764W        W32173  31.002   4.952   1.617
65765W        W32174  24.778  13.707  12.704
65766W        W32175   4.865  37.676  11.104
65767W        W32176  19.226  26.415   3.085
65768W        W32177   4.524  25.139   9.798
65769W        W32178  21.123  10.330   1.351
65770W        W32179   5.310  19.307   4.966
65771W        W32180  31.544  14.182   4.387
65772W        W32181   1.535  15.530  12.041
65773W        W32182   8.567  29.188  10.632
65774W        W32183   5.314  13.768  11.621
65775W        W32184  41.725  34.741   3.777
65776W        W32185  23.113   5.263  14.288
65777W        W32186  44.500  24.511  12.842
65778W        W32187  21.366   4.745   1.794
65779W        W32188  10.127  18.029   4.068
65780W        W32189  17.269  39.836  12.596
65781W        W32190  13.721  32.749  10.253
65782W        W32191  30.651  34.039   2.818
65783W        W32192   2.391  21.139  14.292
65784W        W32193  24.931  31.811  13.470
65785W        W32194  29.520   5.264  13.762
65786W        W32195   5.471  15.792  11.205
65787W        W32196  10.889  11.674   3.782
65788W        W32197  29.824   1.453  14.542
65789W        W32198  28.271  23.186   3.285
65790W        W32199   0.476  40.516  11.971
65791W        W32200  21.604  27.461   2.115
65792W        W32201  39.505  11.079   1.256
65793W        W32202  20.942   0.714   1.169
65794W        W32203  19.746  43.442   0.343
65795W        W32204  38.536  11.394  14.327
65796W        W32205  17.159   9.452  12.851
65797W        W32206  33.910  28.907  14.440
65798W        W32207   8.290  20.062   1.280
65799W        W32208   9.398  14.393  13.897
65800W        W32209  27.011  34.443   1.617
65801W        W32210  24.112  14.430   4.258
65802W        W32211  32.041   7.246  11.983
65803W        W32212  32.963  33.985   2.970
65804W        W32213   6.607  35.047   1.781
65805W        W32214   4.238   7.476  12.111
65806W        W32215  21.334  37.649  11.134
65807W        W32216  19.448  23.302  13.066
65808W        W32217  17.605  20.597   9.834
65809W        W32218  43.435   1.181   4.366
65810W        W32219   9.869  40.542  13.777
65811W        W32220  39.862  42.395   4.575
65812W        W32221  28.040  30.724   1.699
65813W        W32222   8.629  28.045   4.967
65814W        W32223  35.326   7.357  11.526
65815W        W32224   7.804  13.399   0.259
65816W        W32225  21.274  44.930  11.868
65817W        W32226  23.664  37.882  11.611
65818W        W32227  22.551   9.205  11.547
65819W        W32228   8.119  30.612   2.801
65820W        W32229   9.438  28.930   1.824
65821W        W32230  10.811  19.750  13.247
65822W        W32231  16.844   0.281  13.884
65823W        W32232  28.340  17.732  13.909
65824W        W32233  39.262  12.279  14.813
65825W        W32234   2.500  14.343   3.908
65826W        W32235   1.924  23.695  12.566
65827W        W32236  15.350   3.245   4.764
65828W        W32237  22.656  24.146  11.854
65829W        W32238  21.039  16.604   3.737
65830W        W32239  33.527  14.513   1.135
65831W        W32240  41.365   5.712  13.921
65832W        W32241  18.723  44.182   3.094
65833W        W32242  35.983   1.558  11.096
65834W        W32243   4.423   7.114   0.888
65835W        W32244  33.858  15.813   0.780
65836W        W32245   2.235   6.305   4.151
65837W        W32246  31.158  40.130  11.695
65838W        W32247  39.076  43.011  11.985
65839W        W32248  29.127   7.712   4.549
65840W        W32249  35.563  21.421   1.870
65841W        W32250  32.232  29.641   2.774
65842W        W32251  43.796  11.284  13.828
65843W        W32252   8.959   4.892   4.478
65844W        W32253  34.930  12.681   0.965
65845W        W32254  37.585   2.311   2.750
65846W        W32255  19.807  21.126   4.109
65847W        W32256  44.676  27.553   9.982
65848W        W32257  22.395   7.205   0.738
65849W        W32258   0.572  23.872  10.767
65850W        W32259  38.568  33.602  11.140
65851W        W32260   2.662  41.470   3.140
65852W        W32261  31.953  19.536   2.522
65853W        W32262  16.420  42.352   1.584
65854W        W32263  30.005  43.437   4.664
65855W        W32264   0.450  33.788  11.528
65856W        W32265  32.132  37.563   2.791
65857W        W32266   3.937   6.483  13.379
65858W        W32267  43.664   5.376  10.575
65859W        W32268  14.049  10.598  13.977
65860W        W32269  10.925   2.272  11.291
65861W        W32270  28.147   5.601  10.932
65862W        W32271  27.050   2.272  12.010
65863W        W32272   9.114  11.703  13.500
65864W        W32273  28.209  26.675  11.101
65865W        W32274  32.177   8.769  10.817
65866W        W32275  21.587  25.086   3.249
65867W        W32276  42.883  11.437  13.648
65868W        W32277   6.018  38.667  13.964
65869W        W32278  10.891  31.554   3.752
65870W        W32279  31.948   9.412   1.441
65871W        W32280  24.720  10.121  10.281
65872W        W32281  31.226  35.685   1.896
65873W        W32282  32.137  17.374   1.688
65874W        W32283  43.339  35.551  13.308
65875W        W32284  38.424  20.048  14.885
65876W        W32285  30.676  35.868   3.032
65877W        W32286  26.208  20.959   3.275
65878W        W32287  13.724  42.318  11.741
65879W        W32288  38.837  12.954  10.706
65880W        W32289  24.885  39.873   0.320
65881W        W32290   7.249  31.333   3.605
65882W        W32291  19.212  21.575   2.110
65883W        W32292  24.688   2.486  13.271
65884W        W32293  36.329  36.356   0.765
65885W        W32294  26.989  40.220   3.708
65886W        W32295  37.402   4.918  13.840
65887W        W32296  18.522  37.579   5.060
65888W        W32297  17.084  11.002  10.496
65889W        W32298   0.304  20.275  14.987
65890W        W32299   9.424  22.272  14.877
65891W        W32300  16.792  22.225  14.428
65892W        W32301   9.537  18.683   3.203
65893W        W32302  20.505  35.398   4.684
65894W        W32303  26.433  36.885  14.256
65895W        W32304   5.547  33.815  13.454
65896W        W32305  22.867  34.477  12.460
65897W        W32306  14.721   8.420   2.356
65898W        W32307  44.978  25.030   3.860
65899W        W32308  27.521  42.494  14.286
65900W        W32309  38.917   5.355  12.492
65901W        W32310  29.161  12.076  10.152
65902W        W32311  41.560  23.646   3.103
65903W        W32312  25.868  11.939   3.819
65904W        W32313  23.988  40.054   3.633
65905W        W32314  44.313  44.881  11.799
65906W        W32315   7.366  22.310   1.813
65907W        W32316  27.127  40.512   1.366
65908W        W32317  15.382  12.300   4.601
65909W        W32318  27.021  38.100  10.620
65910W        W32319  32.983   5.966  14.084
65911W        W32320   2.065   4.404  11.166
65912W        W32321  39.801  39.887  12.315
65913W        W32322   7.420   6.512   0.365
65914W        W32323  29.202  32.840  13.071
65915W        W32324  11.990  35.599  14.918
65916W        W32325   7.667  13.693  14.294
65917W        W32326   4.417   0.259   2.429
65918W        W32327  37.830  37.912   4.660
65919W        W32328  27.228   2.664   1.899
65920W        W32329  41.032  37.108  10.648
65921W        W32330  32.681   4.438   3.720
65922W        W32331  41.145  27.763  12.692
65923W        W32332   6.352  39.642  11.477
65924W        W32333  18.746   2.268  12.936
65925W        W32334   1.909   6.203  11.225
65926W        W32335  31.406  30.160   4.748
65927W        W32336  34.353  34.984   2.500
65928W        W32337  20.801  28.265   4.550
65929W        W32338   3.784  31.802  13.505
65930W        W32339  25.572   4.218   2.910
65931W        W32340   2.806  10.846  12.270
65932W        W32341  23.237  20.843  12.730
65933W        W32342  25.408  20.870  10.617
65934W        W32343   3.404  15.809   2.589
65935W        W32344  34.633  29.344   0.019
65936W        W32345  27.766  44.387   4.120
65937W        W32346  18.121   2.655  14.936
65938W        W32347  30.426  32.242   4.842
65939W        W32348  38.375  14.125  13.257
65940W        W32349  39.246  32.026   4.134
65941W        W32350  18.750  11.502  13.472
65942W        W32351  11.404  27.069  12.205
65943W        W32352  23.316  38.718  13.439
65944W        W32353   9.237  25.976  13.010
65945W        W32354  32.617  27.599  10.662
65946W        W32355   9.267  11.943   4.860
65947W        W32356  15.817  23.173  12.068
65948W        W32357  38.106  18.949   1.725
65949W        W32358  16.642  15.753  10.764
65950W        W32359  41.082   9.697   1.791
65951W        W32360  40.284  36.117  11.535
65952W        W32361   4.195  18.052  11.635
65953W        W32362  13.756  20.747   0.809
65954W        W32363  21.494  43.180   1.905
65955W        W32364  32.990  15.697  11.636
65956W        W32365  19.766  31.267   1.964
65957W        W32366  43.129   7.321   4.335
65958W        W32367   1.505  39.545   3.308
65959W        W32368  35.340  18.542   4.348
65960W        W32369  21.174  26.576  12.608
65961W        W32370  14.301  20.454  12.066
65962W        W32371  42.694  38.898  14.139
65963W        W32372   8.437  43.090   4.531
65964W        W32373  24.046  31.374  11.177
65965W        W32374  25.647  35.058   4.452
65966W        W32375   9.840  44.495  12.831
65967W        W32376  36.644  10.722   0.865
65968W        W32377  30.448  44.056   3.235
65969W        W32378  17.277   1.824   2.655
65970W        W32379  35.973  29.678  12.844
65971W        W32380  33.649  43.892   4.081
65972W        W32381  21.681  31.032   4.126
65973W        W32382  30.848  36.323  12.087
65974W        W32383  27.055  11.669  11.044
65975W        W32384  15.662   0.339   3.229
65976W        W32385  34.185  17.578  10.740
65977W        W32386  27.672  14.632  13.540
65978W        W32387  44.530  20.636   0.776
65979W        W32388  15.634  26.690  14.399
65980W        W32389  42.915  44.194  11.127
65981W        W32390  37.422  36.931   3.741
65982W        W32391  23.566  33.395  11.555
65983W        W32392  11.900   1.608  13.966
65984W        W32393  42.712  39.777  11.589
65985W        W32394  36.281  31.006   2.257
65986W        W32395  39.857  27.567   3.049
65987W        W32396  17.654  32.170  14.350
65988W        W32397  11.028   2.608   2.781
65989W        W32398  34.828  21.301  10.328
65990W        W32399  29.887   7.727   0.471
65991W        W32400  12.632  17.716   3.584
65992W        W32401  42.618  26.683   0.575
65993W        W32402   8.437  36.056  11.659
65994W        W32403  31.380  18.667  11.404
65995W        W32404  38.067   1.838   4.267
65996W        W32405  10.339  20.781  12.893
65997W        W32406  30.065  11.522   3.166
65998W        W32407  12.631   0.751   2.193
65999W        W32408  43.728  34.248   0.194
66000W        W32409  19.763  13.622   4.332
66001W        W32410   5.298  16.173   1.984
66002W        W32411   9.734  34.432   1.543
66003W        W32412  43.806  14.875   2.587
66004W        W32413  11.709  24.496  12.482
66005W        W32414  44.558   3.986  12.855
66006W        W32415  20.182  39.535   1.664
66007W        W32416  41.422  13.178  12.061
66008W        W32417   6.469  20.350   2.877
66009W        W32418  21.266  20.041  11.970
66010W        W32419  35.051  43.250  11.640
66011W        W32420  29.511  42.808   2.672
66012W        W32421  18.406  34.649   1.845
66013W        W32422  22.773  29.853  12.444
66014W        W32423  22.726  32.067   3.629
66015W        W32424   2.535  31.727  11.536
66016W        W32425   8.422   5.376  10.696
66017W        W32426   1.575  30.591   0.290
66018W        W32427   6.452  22.679   4.662
66019W        W32428  33.606  32.175   4.936
66020W        W32429  37.193  17.035  13.012
66021W        W32430  36.066  27.876   2.934
66022W        W32431   1.205  34.093   1.976
66023W        W32432  41.540  20.613   1.677
66024W        W32433  36.481  41.884   4.730
66025W        W32434  13.008  33.020  13.543
66026W        W32435  44.567   3.240  14.762
66027W        W32436  36.724   9.568  13.597
66028W        W32437   1.098  31.280   3.287
66029W        W32438  44.317  15.718   2.797
66030W        W32439  14.869  25.709   3.309
66031W        W32440  44.382  15.921  14.350
66032W        W32441  42.908  43.872   3.059
66033W        W32442  11.654  41.961  10.324
66034W        W32443   2.404   7.238   9.482
66035W        W32444   7.430  11.052   3.989
66036W        W32445  30.078  41.864   2.416
66037W        W32446  13.315  41.820   4.625
66038W        W32447  15.826  25.535   0.203
66039W        W32448   8.450  10.234  14.211
66040W        W32449   5.715  23.598  12.437
66041W        W32450  26.677  42.471  13.006
66042W        W32451  27.491  38.248  11.949
66043W        W32452  34.854   9.913   3.655
66044W        W32453   9.701  17.004   2.799
66045W        W32454  35.974  39.730  11.509
66046W        W32455  16.716  22.135  13.458
66047W        W32456   0.204  34.544  10.463
66048W        W32457  44.393  42.817  13.872
66049W        W32458  17.333  33.568  11.208
66050W        W32459   6.110  18.700  11.317
66051W        W32460  30.522  24.788   4.324
66052W        W32461  42.559  15.954   4.939
66053W        W32462  10.445  44.415   3.329
66054W        W32463  15.589  30.659   4.576
66055W        W32464  39.882   7.633  12.061
66056W        W32465  21.443  14.473  10.184
66057W        W32466  34.642   2.863   3.565
66058W        W32467  25.277  15.916   2.254
66059W        W32468  32.474  35.492  12.502
66060W        W32469  13.210  26.679  10.089
66061W        W32470  31.866  38.423  14.221
66062W        W32471   8.083  37.112   3.742
66063W        W32472  22.055  37.971  14.324
66064W        W32473  33.293  29.753  12.207
66065W        W32474  22.481  40.388   2.174
66066W        W32475  11.529  37.737   1.654
66067W        W32476  21.473  34.405   3.679
66068W        W32477   4.388  29.393  11.725
66069W        W32478   8.685  41.565  10.765
66070W        W32479   0.229  35.438   1.218
66071W        W32480  19.267  26.590   1.193
66072W        W32481  30.556  16.231   0.998
66073W        W32482  18.753  44.316  11.057
66074W        W32483  34.540  29.263  12.579
66075W        W32484   5.972  36.514   2.736
66076W        W32485  43.361   7.934   0.325
66077W        W32486  41.508  24.159   4.398
66078W        W32487  25.729   5.386   2.242
66079W        W32488   8.997   3.943  12.609
66080W        W32489  25.965   5.132   1.698
66081W        W32490  22.628  10.539  13.790
66082W        W32491  17.750  42.203   2.718
66083W        W32492  44.392   1.242   3.763
66084W        W32493  22.681   4.817   1.369
66085W        W32494  44.207  34.051  13.478
66086W        W32495  23.207   7.381   3.928
66087W        W32496  14.240  43.567  13.182
66088W        W32497  29.622  31.011  14.378
66089W        W32498   6.751   0.469  13.403
66090W        W32499  17.119   2.324   2.603
66091W        W32500  13.717  14.658   4.618
66092W        W32501   7.882  24.700   0.005
66093W        W32502   4.111   8.913   4.122
66094W        W32503   6.871  22.045  13.972
66095W        W32504  36.965  29.197  11.761
66096W        W32505  25.006  38.333  10.568
66097W        W32506  35.835  20.137   3.299
66098W        W32507   1.323  20.551  14.334
66099W        W32508  35.892  38.404   1.737
66100W        W32509  35.350  10.270  10.631
66101W        W32510  24.655  15.549   1.669
66102W        W32511  19.205   0.758  10.749
66103W        W32512   3.243  43.044   2.808
66104W        W32513   9.662  30.719   1.866
66105W        W32514  16.880  28.470   1.895
66106W        W32515  30.185  30.470   4.287
66107W        W32516  37.650  39.901   4.771
66108W        W32517  33.025  36.151  10.676
66109W        W32518  44.068  12.839  14.349
66110W        W32519  43.623   3.199   4.073
66111W        W32520  30.379  25.099   0.942
66112W        W32521  10.356  10.365  12.311
66113W        W32522   6.835  42.308   2.404
66114W        W32523   2.433  36.343  14.750
66115W        W32524  24.473  33.725  12.778
66116W        W32525  44.811  15.921  13.956
66117W        W32526  42.200  32.354  11.689
66118W        W32527  27.023  41.801   2.774
66119W        W32528  37.826  11.812  13.177
66120W        W32529  19.316   5.587  14.307
66121W        W32530  26.955  39.950   4.622
66122W        W32531  36.173  22.521   0.334
66123W        W32532  13.424  22.625   4.854
66124W        W32533  35.435   5.536   4.543
66125W        W32534  21.780  12.843   4.650
66126W        W32535  25.419  10.239  13.845
66127W        W32536  33.171  18.260  11.007
66128W        W32537   8.402  30.081   3.794
66129W        W32538  39.299   3.255  11.841
66130W        W32539  23.688  41.461   2.758
66131W        W32540  24.442   8.111  12.087
66132W        W32541   1.243  41.145   3.102
66133W        W32542   5.906  40.101   4.241
66134W        W32543  44.843  33.964   2.189
66135W        W32544   4.851  43.715  14.789
66136W        W32545   7.501  22.738   2.765
66137W        W32546  13.298   9.773   4.387
66138W        W32547  14.942  13.797   3.779
66139W        W32548  17.155   6.145   4.185
66140W        W32549   9.793  26.672  12.806
66141W        W32550   0.847   3.911   4.716
66142W        W32551   0.406   6.194   1.465
66143W        W32552  39.852  41.875  13.230
66144W        W32553  29.208  17.212  11.128
66145W        W32554  16.587   2.503  12.884
66146W        W32555  22.571  27.717   1.277
66147W        W32556  29.901   6.486   2.307
66148W        W32557  16.569   4.352   0.920
66149W        W32558  39.634  19.055   0.303
66150W        W32559  14.099  39.279  11.169
66151W        W32560  24.069  13.412  11.635
66152W        W32561  33.414  39.909   0.398
66153W        W32562   9.131  31.862   1.440
66154W        W32563   6.471  30.044   3.904
66155W        W32564  18.044  13.873   0.860
66156W        W32565  43.087  28.841  13.080
66157W        W32566  21.522  43.954   3.669
66158W        W32567   8.302  15.252   2.313
66159W        W32568   0.954  19.117  12.805
66160W        W32569  19.770  20.153  11.995
66161W        W32570   1.311  18.752  11.945
66162W        W32571   2.544   5.850  10.869
66163W        W32572  26.681   4.011   3.466
66164W        W32573  20.406  36.524  13.956
66165W        W32574  33.138  36.439   1.536
66166W        W32575  18.646  32.340  10.803
66167W        W32576  33.943  26.454   0.688
66168W        W32577  26.303  29.965   3.247
66169W        W32578  31.380  35.039   3.658
66170W        W32579   0.255  22.207  11.667
66171W        W32580  14.612  21.783   1.351
66172W        W32581  19.802   8.604   0.713
66173W        W32582  27.709  20.018   4.363
66174W        W32583  15.110  34.997  12.978
66175W        W32584  38.111  15.980   3.187
66176W        W32585   9.869  36.777  14.858
66177W        W32586  33.283  44.245  14.865
66178W        W32587  32.021  22.555   3.664
66179W        W32588   2.848  21.130   2.243
66180W        W32589  37.921  30.146  12.440
66181W        W32590  28.764  28.655   4.906
66182W        W32591  14.656  29.380   0.837
66183W        W32592   2.321   1.767   1.691
66184W        W32593  22.599  21.720   2.044
66185W        W32594  25.166  18.364   4.536
66186W        W32595  13.234  27.042  14.395
66187W        W32596  26.552  33.470  10.334
66188W        W32597  31.487  34.373  13.548
66189W        W32598  17.050   7.944   0.922
66190W        W32599  22.659  10.598  11.870
66191W        W32600  40.810   2.378  14.895
66192W        W32601  21.622  30.690   2.387
66193W        W32602   7.265   8.271   3.436
66194W        W32603  17.019  31.925   1.855
66195W        W32604  13.636  31.937   1.178
66196W        W32605  11.919  10.790   3.295
66197W        W32606  21.924  30.460  11.989
66198W        W32607   7.831   5.123   3.506
66199W        W32608  36.351  25.009  13.229
66200W        W32609  37.336  14.652  12.025
66201W        W32610   4.462  29.939  11.211
66202W        W32611  44.998  40.748  11.012
66203W        W32612  42.031   0.538  12.538
66204W        W32613  34.972   9.231   0.446
66205W        W32614  11.337  43.296  12.385
66206W        W32615   4.924  13.182  14.244
66207W        W32616  10.087  39.954   0.403
66208W        W32617  26.536  43.755   2.623
66209W        W32618  14.559  26.165  12.004
66210W        W32619  30.123  42.278   3.623
66211W        W32620  26.698  40.129  11.202
66212W        W32621   3.705   1.440   1.908
66213W        W32622   5.019  31.619  12.830
66214W        W32623   2.571  27.088  12.483
66215W        W32624  13.179  37.287  13.388
66216W        W32625  38.790  24.729   3.663
66217W        W32626   5.778  19.565   1.484
66218W        W32627  40.085  23.246  12.944
66219W        W32628  20.189  25.149   3.532
66220W        W32629  42.955   7.306   2.340
66221W        W32630  41.736   2.296  10.711
66222W        W32631  29.645  12.851  13.549
66223W        W32632   2.231  36.114  10.974
66224W        W32633   3.200  32.104   4.107
66225W        W32634  20.915  22.412  12.988
66226W        W32635  12.558  30.396  13.050
66227W        W32636  18.058  27.431  12.176
66228W        W32637  44.362  37.807   3.669
66229W        W32638  14.776   9.012   9.965
66230W        W32639  44.842  17.745  13.018
66231W        W32640   7.708  13.780   3.104
66232W        W32641  30.677  22.817  14.081
66233W        W32642  43.382   9.240   0.798
66234W        W32643  29.094  25.940   3.707
66235W        W32644  42.512  29.352  13.789
66236W        W32645  15.269  41.344  12.009
66237W        W32646  32.460  23.378   3.712
66238W        W32647   1.914  15.155  13.048
66239W        W32648   7.135  13.655  14.930
66240W        W32649  15.209  32.171   4.359
66241W        W32650  21.716  27.720  13.068
66242W        W32651  18.047   4.367  13.725
66243W        W32652  38.027  15.281  13.111
66244W        W32653  18.448  24.254  14.041
66245W        W32654  12.170  23.971  13.641
66246W        W32655  28.899  19.903  11.598
66247W        W32656  20.733  44.533  12.966
66248W        W32657  13.271  39.918   3.797
66249W        W32658   3.416  16.317   0.821
66250W        W32659   8.273   8.789   4.144
66251W        W32660  24.086   5.956  12.650
66252W        W32661  33.008   4.010  14.994
66253W        W32662   7.423  26.924  14.821
66254W        W32663  20.295  24.262   3.408
66255W        W32664   0.024  26.168  11.842
66256W        W32665   5.308  33.101  11.862
66257W        W32666  14.316  17.595   0.448
66258W        W32667  38.980  43.751  10.964
66259W        W32668  43.907  29.977   4.547
66260W        W32669  33.881  18.692  13.820
66261W        W32670  11.668  26.680  11.760
66262W        W32671  22.255  42.985  10.617
66263W        W32672  30.637  35.588   3.887
66264W        W32673  12.841  32.864  10.643
66265W        W32674  38.217   5.864  14.588
66266W        W32675   0.954  31.226   4.073
66267W        W32676  30.931   5.382  13.013
66268W        W32677  35.022  16.332   3.599
66269W        W32678  35.958  18.606   4.697
66270W        W32679  42.376  17.592   4.334
66271W        W32680   6.026   5.518  10.666
66272W        W32681  11.147  18.087  11.377
66273W        W32682  25.210  13.066  13.387
66274W        W32683  29.393  26.633  13.885
66275W        W32684   3.673  38.417   1.912
66276W        W32685  36.948  25.271  12.110
66277W        W32686  17.096  12.751  11.580
66278W        W32687  40.299   8.833   4.672
66279W        W32688  23.535  26.063  12.343
66280W        W32689   1.936   6.230  10.722
66281W        W32690  18.612   8.120   0.996
66282W        W32691  20.087  28.752   3.985
66283W        W32692   8.749  13.836   0.216
66284W        W32693  12.620  12.329   2.081
66285W        W32694  12.200  21.108   0.195
66286W        W32695  43.992  34.593  11.034
66287W        W32696   7.007  10.268  13.380
66288W        W32697   8.106  19.599   2.819
66289W        W32698   4.603  10.310  14.405
66290W        W32699  39.838   1.120   3.202
66291W        W32700  39.072  19.178   9.986
66292W        W32701  24.634  31.536   3.662
66293W        W32702   4.669   9.648   2.871
66294W        W32703  33.701  10.801   4.673
66295W        W32704  34.161  33.347   2.876
66296W        W32705  20.187  31.762  14.983
66297W        W32706  21.079  36.236  11.118
66298W        W32707  21.985  35.003  14.552
66299W        W32708  33.640  14.007   1.226
66300W        W32709  36.092  41.758  11.729
66301W        W32710  23.703  31.327  11.692
66302W        W32711   6.836  31.938   2.356
66303W        W32712  34.863  27.051  14.359
66304W        W32713  22.225   1.219   0.435
66305W        W32714  28.085  26.638   5.094
66306W        W32715  36.195  34.883   2.047
66307W        W32716  17.264  36.383  10.649
66308W        W32717  13.513   7.692   1.355
66309W        W32718  41.911  42.535   0.479
66310W        W32719  25.169  33.677  13.383
66311W        W32720  21.520  11.117   2.560
66312W        W32721  43.508  38.787   2.178
66313W        W32722   6.899  10.584   3.670
66314W        W32723  42.419  13.525  12.709
66315W        W32724  17.369  31.783  14.486
66316W        W32725  37.302  10.001  13.836
66317W        W32726  42.331  22.181  11.041
66318W        W32727   5.347  43.675   2.346
66319W        W32728   1.760  42.002  12.020
66320W        W32729  28.075   7.759  13.386
66321W        W32730   2.887  16.601  11.778
66322W        W32731  38.442  28.015   0.341
66323W        W32732   0.954   5.737  12.905
66324W        W32733   2.233  40.560  10.721
66325W        W32734  42.392  20.825  13.669
66326W        W32735  17.562  20.078   3.068
66327W        W32736   3.437  32.482   3.540
66328W        W32737  20.470   7.753  12.960
66329W        W32738  17.341  35.592   4.077
66330W        W32739  34.601  33.305  14.378
66331W        W32740  24.225  37.589  14.774
66332W        W32741   6.365   4.649   4.597
66333W        W32742   3.993  38.699  11.130
66334W        W32743  24.753  23.694   4.991
66335W        W32744  14.345   7.951  11.588
66336W        W32745  10.449  26.056  11.758
66337W        W32746   0.891  35.531   2.650
66338W        W32747  28.487   6.311  13.942
66339W        W32748   3.129  23.392  12.427
66340W        W32749  33.632  27.084  13.964
66341W        W32750  25.556  31.646  11.850
66342W        W32751  42.740  11.247   1.822
66343W        W32752  29.067  22.967  13.933
66344W        W32753  26.530   4.977  10.417
66345W        W32754  24.791  31.662  14.961
66346W        W32755  28.619  28.821  13.780
66347W        W32756  14.581   7.216   4.108
66348W        W32757  35.613   2.692  10.679
66349W        W32758  34.610   0.314   3.257
66350W        W32759   1.317   7.854   4.577
66351W        W32760  29.785  17.444  14.037
66352W        W32761  38.319  10.689  12.831
66353W        W32762  13.828  33.586  14.773
66354W        W32763  14.769  42.163  11.878
66355W        W32764  25.532  43.266  13.096
66356W        W32765  37.112  28.199  12.399
66357W        W32766  39.529   7.279   0.506
66358W        W32767  41.847  34.031   1.507
66359W        W32768  25.257  16.856   0.709
66360W        W32769  33.930  41.734  12.281
66361W        W32770  18.072  14.200   0.433
66362W        W32771  39.848   9.631  12.050
66363W        W32772   5.763  16.844   2.231
66364W        W32773  30.568   5.347  13.820
66365W        W32774  43.525   2.233   0.818
66366W        W32775  19.079  44.475   1.681
66367W        W32776   8.180  27.212  11.403
66368W        W32777  39.912  10.114   2.907
66369W        W32778  29.196  21.162  12.176
66370W        W32779  31.955  34.914   2.381
66371W        W32780  21.037  42.945   1.858
66372W        W32781  10.953  37.186  10.273
66373W        W32782  32.726  32.397   1.585
66374W        W32783  32.157  32.132  13.446
66375W        W32784  22.000  43.681  12.376
66376W        W32785  21.856  21.161  13.120
66377W        W32786  27.628   3.953   0.245
66378W        W32787  16.048   3.918   1.834
66379W        W32788  11.876  16.658  10.673
66380W        W32789  29.134  40.662   2.183
66381W        W32790   9.915   5.389   4.148
66382W        W32791   6.161  33.586   2.793
66383W        W32792  13.106   0.261   1.267
66384W        W32793   2.135   1.225   4.891
66385W        W32794  44.973   2.070   0.175
66386W        W32795  11.784  37.061   2.420
66387W        W32796   8.332  16.599   1.768
66388W        W32797  36.374  42.525   0.564
66389W        W32798  34.136  18.774   1.327
66390W        W32799  43.841  37.340   1.461
66391W        W32800   2.658   1.728  14.597
66392W        W32801  21.048   2.831  14.315
66393W        W32802  10.524   7.830  14.730
66394W        W32803   2.035   4.529  14.782
66395W        W32804  27.670  15.097  12.394
66396W        W32805  43.288  12.932   0.532
66397W        W32806  24.427  26.177   1.217
66398W        W32807  30.941  32.825  12.979
66399W        W32808  43.151  42.346  13.527
66400W        W32809   7.185   1.954   0.199
66401W        W32810  29.141  37.485   4.558
66402W        W32811  43.500  33.096   2.669
66403W        W32812  12.902  39.081   2.801
66404W        W32813   2.918  41.260  10.872
66405W        W32814  33.912  26.109  11.079
66406W        W32815  42.001  17.224   3.144
66407W        W32816  20.250  23.741  10.685
66408W        W32817  15.559  33.558  13.250
66409W        W32818  20.892  23.075  12.032
66410W        W32819  36.089  39.923  12.926
66411W        W32820  10.208  36.412  14.767
66412W        W32821  18.000  23.844   3.224
66413W        W32822  17.701  11.400   1.985
66414W        W32823  31.438  41.970  11.525
66415W        W32824  12.302  41.039   2.436
66416W        W32825  11.702   0.866   0.493
66417W        W32826  31.522  19.495  13.630
66418W        W32827  29.154  28.031   0.505
66419W        W32828  24.740  22.072  13.011
66420W        W32829  29.126  35.249   4.011
66421W        W32830  18.855  12.275   2.859
66422W        W32831  27.468  11.169   0.047
66423W        W32832  17.777   6.350   4.718
66424W        W32833  25.257  28.065   3.742
66425W        W32834  20.676  35.174   4.242
66426W        W32835  11.063  37.912   4.128
66427W        W32836  26.414  13.672  13.597
66428W        W32837  29.451  21.167   4.622
66429W        W32838  20.956  10.803   0.422
66430W        W32839  22.205  42.429   2.652
66431W        W32840  30.098   1.431  14.976
66432W        W32841  27.762   8.955   2.711
66433W        W32842  32.802  29.043   3.194
66434W        W32843  37.607  30.870  13.017
66435W        W32844  43.007  29.318  13.885
66436W        W32845  38.821   9.747  14.017
66437W        W32846  39.563  10.112   1.306
66438W        W32847  18.112  30.332  13.007
66439W        W32848  11.395  44.217  13.634
66440W        W32849  38.849  41.495  11.093
66441W        W32850  11.312  14.677   4.211
66442W        W32851  37.327   0.368  11.376
66443W        W32852  31.669   2.550  11.607
66444W        W32853  36.724  39.398  13.005
66445W        W32854   8.959   0.798   0.216
66446W        W32855  31.594  27.698  14.782
66447W        W32856  43.954  44.396   1.312
66448W        W32857   0.471   1.246  14.709
66449W        W32858   2.220   6.841   1.623
66450W        W32859   8.714  33.654   0.493
66451W        W32860  10.239  18.326  14.509
66452W        W32861  37.144  16.281  13.515
66453W        W32862  19.520   4.977  11.622
66454W        W32863  40.494  24.208   1.892
66455W        W32864   0.325  15.173  11.550
66456W        W32865  12.654  18.548   2.931
66457W        W32866  38.394   9.785   3.312
66458W        W32867   4.298  22.917   2.351
66459W        W32868  29.116  28.594   0.355
66460W        W32869  44.890  35.850  14.224
66461W        W32870  41.526  26.659   2.119
66462W        W32871  30.705  14.749   4.230
66463W        W32872  33.592  18.706  10.737
66464W        W32873   3.574  30.207  14.147
66465W        W32874   0.044  42.795   3.112
66466W        W32875  29.771  32.391   3.268
66467W        W32876  26.372  16.540  10.941
66468W        W32877   3.673   0.013   1.821
66469W        W32878   4.547  13.110   3.946
66470W        W32879  16.950  11.914   1.827
66471W        W32880  10.316  19.598   3.351
66472W        W32881  43.780   3.937   1.424
66473W        W32882  43.911  25.995   0.259
66474W        W32883   4.432  40.128   4.946
66475W        W32884   4.947  34.390   4.388
66476W        W32885  31.557  29.585   1.033
66477W        W32886  39.538  41.171  13.808
66478W        W32887  43.837  13.971  12.422
66479W        W32888  23.591   4.667  14.456
66480W        W32889  43.334   0.168   0.916
66481W        W32890   8.709  17.880   2.390
66482W        W32891  36.630  20.836  13.018
66483W        W32892  18.121  39.401  14.917
66484W        W32893  24.812  36.595  12.010
66485W        W32894  23.625  14.061  14.350
66486W        W32895  18.248  41.049   1.773
66487W        W32896  28.010  10.949  14.996
66488W        W32897   4.001  14.128  11.492
66489W        W32898  39.769   4.146  11.873
66490W        W32899  12.808  17.107   0.515
66491W        W32900   7.142  14.259   4.162
66492W        W32901  43.270   3.651  14.961
66493W        W32902  43.193  41.384   0.331
66494W        W32903  16.365  19.350   4.192
66495W        W32904   0.889  17.123  10.532
66496W        W32905  14.395  33.018   2.653
66497W        W32906  18.778  24.119  13.117
66498W        W32907  30.197   0.909   4.001
66499W        W32908  17.155  38.438  11.641
66500W        W32909  39.472  20.296  11.119
66501W        W32910  44.953  37.410  12.457
66502W        W32911   8.780  41.972  11.114
66503W        W32912  41.484  36.359  12.561
66504W        W32913  19.029  17.262  11.223
66505W        W32914  16.731   7.651  11.235
66506W        W32915   1.011  26.687   2.386
66507W        W32916  42.939   4.772   2.660
66508W        W32917   2.913  34.085  11.979
66509W        W32918  19.258  37.599  12.766
66510W        W32919   2.793  16.491   4.973
66511W        W32920  42.035  22.582   2.871
66512W        W32921   1.713  29.580  12.897
66513W        W32922  32.196  19.092  12.833
66514W        W32923  26.074   3.152  14.237
66515W        W32924   1.278   5.446  13.581
66516W        W32925  43.825   4.458   2.781
66517W        W32926  23.351  31.800  11.189
66518W        W32927   4.357  14.218  12.557
66519W        W32928  33.090  26.349   2.292
66520W        W32929  41.942  16.095  12.921
66521W        W32930  22.018   1.756   4.381
66522W        W32931  24.092   0.091   1.883
66523W        W32932  41.899  30.918   3.237
66524W        W32933  16.188  20.956   3.443
66525W        W32934  28.377  20.984   5.033
66526W        W32935  28.354   8.630   2.235
66527W        W32936  26.657  13.732  12.587
66528W        W32937  26.134  34.395   1.721
66529W        W32938  29.622  22.693  13.931
66530W        W32939  42.965  37.879  12.428
66531W        W32940   5.759  24.460  12.602
66532W        W32941  37.630   0.747  11.520
66533W        W32942  38.201   5.209  11.243
66534W        W32943  23.477   1.699   3.900
66535W        W32944  42.798  19.099  10.560
66536W        W32945  19.920  41.739  14.762
66537W        W32946  39.875  14.827  11.140
66538W        W32947  23.418  40.492   1.691
66539W        W32948  36.434  38.965  12.901
66540W        W32949   6.154  37.886   0.785
66541W        W32950  27.936  37.600   3.159
66542W        W32951  33.732  43.245   2.318
66543W        W32952   3.934  21.686  14.939
66544W        W32953  42.279  12.430   2.236
66545W        W32954  11.315   1.381  13.777
66546W        W32955  35.601   8.869  10.694
66547W        W32956  38.521  40.950   4.145
66548W        W32957  26.624  42.859   2.080
66549W        W32958   4.649   5.782   3.246
66550W        W32959  23.611   5.457   0.456
66551W        W32960  30.483  30.724  12.466
66552W        W32961  24.593   3.846  11.059
66553W        W32962  44.453  42.788   3.716
66554W        W32963  15.684  16.785   4.742
66555W        W32964   8.799  13.807   1.630
66556W        W32965  18.182   1.653  12.731
66557W        W32966  36.819  31.145   2.258
66558W        W32967  12.241   6.349  11.959
66559W        W32968  16.925  39.111  10.508
66560W        W32969  34.589  19.263   4.630
66561W        W32970  42.448  20.971  12.491
66562W        W32971  22.293  18.394   3.751
66563W        W32972  38.035  22.037   2.362
66564W        W32973  20.654   3.940   0.082
66565W        W32974   7.270  42.630   2.402
66566W        W32975  20.729  38.448   0.029
66567W        W32976  43.084  43.290   3.818
66568W        W32977  35.378  27.017  10.710
66569W        W32978  14.854  15.517  10.620
66570W        W32979  35.020  30.706  11.688
66571W        W32980   0.749  30.202  14.427
66572W        W32981   0.963   7.152  11.135
66573W        W32982  16.339  23.632  14.709
66574W        W32983  30.213  40.518   0.647
66575W        W32984  13.138  26.758  11.652
66576W        W32985  26.704   5.785   1.388
66577W        W32986  10.067  18.845  13.357
66578W        W32987   5.531  25.244  12.467
66579W        W32988  24.589  36.231  12.444
66580W        W32989  40.372  16.891   2.357
66581W        W32990  10.368  19.161   3.079
66582W        W32991   1.005   9.705  12.703
66583W        W32992  44.039  19.036  14.122
66584W        W32993  10.188  33.418   0.268
66585W        W32994  13.825  20.612  13.044
66586W        W32995   8.315  19.741  14.122
66587W        W32996  15.235  12.890  14.836
66588W        W32997  39.963  15.718  14.516
66589W        W32998  11.977  15.825   3.292
66590W        W32999  44.879  40.912   0.994
66591W        W33000  38.640   1.075   3.614
66592W        W33001  19.100   5.770  12.606
66593W        W33002  26.567  27.907   1.680
66594W        W33003  41.771  42.810  12.493
66595W        W33004   5.403  18.855  10.674
66596W        W33005  32.662  13.178   0.384
66597W        W33006  25.615  41.885  13.125
66598W        W33007  34.803  30.142  13.534
66599W        W33008  15.355  28.972  12.899
66600W        W33009  24.521  42.447   3.346
66601W        W33010  32.486  29.334  13.884
66602W        W33011  17.811  16.834   4.057
66603W        W33012  38.820  10.689   4.235
66604W        W33013  43.788  43.871  12.368
66605W        W33014  10.333  37.827  14.205
66606W        W33015   9.829  13.443   1.755
66607W        W33016  25.532  18.317  10.803
66608W        W33017  31.006  18.324  10.194
66609W        W33018  35.772  43.664  14.078
66610W        W33019  26.645  24.023  12.557
66611W        W33020  44.367   8.093   5.014
66612W        W33021  39.807  11.392  10.743
66613W        W33022  42.262  36.856  12.101
66614W        W33023  12.639  26.684   0.795
66615W        W33024  36.367  10.261   0.810
66616W        W33025  22.259  22.766  14.288
66617W        W33026  36.941  28.009  10.504
66618W        W33027  26.708  38.922  14.565
66619W        W33028  32.136   6.995  14.757
66620W        W33029  23.834  32.217   5.038
66621W        W33030  17.070  16.146   0.312
66622W        W33031  30.917  20.559   4.024
66623W        W33032  35.855  37.563   0.265
66624W        W33033  32.913  24.510   4.638
66625W        W33034   0.867  44.183  10.285
66626W        W33035  40.728   9.716   3.203
66627W        W33036  10.942  44.429  10.723
66628W        W33037  24.535  27.145  11.303
66629W        W33038  32.690  35.565  13.431
66630W        W33039   7.340  21.762   0.271
66631W        W33040  44.342  17.971  12.524
66632W        W33041  10.738  15.733   1.754
66633W        W33042   8.128  38.861   2.372
66634W        W33043  43.505  41.308   0.776
66635W        W33044  29.502  20.148   0.919
66636W        W33045  26.491  44.298   4.602
66637W        W33046  33.894  18.312   1.264
66638W        W33047  14.108  22.039   3.490
66639W        W33048  35.490   9.273   0.302
66640W        W33049  42.279  23.182   1.616
66641W        W33050  25.109   9.858  12.036
66642W        W33051   1.642  34.206   3.857
66643W        W33052  37.799  33.660  12.085
66644W        W33053  13.035  32.934  14.372
66645W        W33054   9.876  37.878  13.575
66646W        W33055  28.385  13.897  11.205
66647W        W33056  43.892   7.885  10.181
66648W        W33057   0.893  19.514  11.193
66649W        W33058   1.090  31.453   2.357
66650W        W33059   2.298  39.122  10.768
66651W        W33060   6.187  28.694   4.610
66652W        W33061  36.211   8.792   2.759
66653W        W33062  43.343  10.840   0.388
66654W        W33063  26.684  14.604   3.536
66655W        W33064  42.182   6.990  11.992
66656W        W33065  10.734  29.453  11.990
66657W        W33066   7.722  15.300   0.521
66658W        W33067  31.867  31.413  13.534
66659W        W33068   0.437  15.714   3.228
66660W        W33069  13.389  21.500   1.502
66661W        W33070  37.440  22.544   2.825
66662W        W33071  14.617  41.827   0.973
66663W        W33072   3.963  40.900   4.486
66664W        W33073  25.878   2.453  14.425
66665W        W33074  40.139  28.847   0.338
66666W        W33075  17.164  22.314   1.208
66667W        W33076  13.869  32.899   3.544
66668W        W33077  40.071  36.498   1.272
66669W        W33078  10.713  31.887   0.294
66670W        W33079  32.723  25.070   3.449
66671W        W33080  35.569  21.702   3.270
66672W        W33081  29.393  31.156   0.283
66673W        W33082  28.182  37.813  13.118
66674W        W33083  13.295  37.266   1.940
66675W        W33084  40.460   2.005  14.797
66676W        W33085  29.333   4.317   4.583
66677W        W33086  34.420   9.156   1.262
66678W        W33087  22.765   1.288   3.249
66679W        W33088  27.003  39.713   3.582
66680W        W33089  33.708  21.240  12.032
66681W        W33090  37.643  18.695   2.522
66682W        W33091  39.121  25.978   1.155
66683W        W33092  22.977   6.647  13.381
66684W        W33093  16.972  30.074   4.300
66685W        W33094  11.846   7.725   2.923
66686W        W33095  12.566  38.520  10.663
66687W        W33096   8.858   2.488   0.695
66688W        W33097  15.116  16.737  13.308
66689W        W33098   0.672  30.961  10.688
66690W        W33099  29.779  16.349  11.276
66691W        W33100  31.443  31.500   3.889
66692W        W33101   3.790  12.332   0.394
66693W        W33102  20.087  14.910   1.011
66694W        W33103  32.833  20.251   0.944
66695W        W33104  43.739  11.874  13.618
66696W        W33105  23.519  30.967  14.288
66697W        W33106   8.273  27.059  12.388
66698W        W33107   5.727  13.268   4.408
66699W        W33108  13.840   9.694  12.330
66700W        W33109  11.092  19.719  14.951
66701W        W33110  42.235  44.507   2.794
66702W        W33111  12.126  26.599   4.154
66703W        W33112  22.659  15.336   0.258
66704W        W33113   0.656   5.627   2.306
66705W        W33114  36.938  11.125   4.690
66706W        W33115  33.897  29.941  13.046
66707W        W33116  43.353  28.371   4.271
66708W        W33117  40.428  17.348  12.517
66709W        W33118  32.487   8.821   0.348
66710W        W33119  21.185   5.392  14.456
66711W        W33120  36.375  37.501   4.172
66712W        W33121  29.528  15.205  10.536
66713W        W33122  17.527  33.310   1.824
66714W        W33123  22.966   6.217   0.230
66715W        W33124  33.988   6.340   1.548
66716W        W33125   3.845   9.002  13.831
66717W        W33126   9.769  27.513   4.174
66718W        W33127  19.347   3.285  14.985
66719W        W33128  37.364  43.432  12.065
66720W        W33129  20.671  22.173   0.900
66721W        W33130  37.942  44.557   2.952
66722W        W33131   0.698  18.648  14.042
66723W        W33132  22.151  18.634  12.312
66724W        W33133  19.824  15.288   1.735
66725W        W33134  20.530   0.186  14.367
66726W        W33135   1.972  35.559   0.933
66727W        W33136  25.324   2.837   1.188
66728W        W33137  32.348   9.398  13.301
66729W        W33138  18.640  15.333  10.821
66730W        W33139   2.133  20.405   2.997
66731W        W33140  38.466  37.391  12.787
66732W        W33141  31.413  11.446  13.136
66733W        W33142  41.611  43.290   2.852
66734W        W33143  12.861   6.256  12.630
66735W        W33144  20.347   1.899   2.457
66736W        W33145   8.196  21.189   3.638
66737W        W33146  41.901  24.445   3.792
66738W        W33147   6.515  23.641  11.994
66739W        W33148   3.312  16.256   4.302
66740W        W33149  13.834  20.000  14.942
66741W        W33150  20.262  13.775   1.220
66742W        W33151  34.634  39.024   4.604
66743W        W33152  15.159  38.084   2.786
66744W        W33153  23.485  15.928  13.831
66745W        W33154  19.208  13.040   0.773
66746W        W33155  43.933  22.067   4.496
66747W        W33156   4.364   0.348   0.771
66748W        W33157  19.084  29.379   5.084
66749W        W33158  15.858  34.963  14.361
66750W        W33159  44.659  32.983  11.481
66751W        W33160  13.247   2.596  12.042
66752W        W33161  15.625  31.650  11.096
66753W        W33162  26.851   1.669  10.465
66754W        W33163  29.067   6.478  12.131
66755W        W33164   7.204  15.319  11.522
66756W        W33165  19.639  21.743  13.016
66757W        W33166   1.346  22.270  10.793
66758W        W33167   2.494   2.653   1.702
66759W        W33168  32.013  29.905  11.668
66760W        W33169  42.549   1.966   0.811
66761W        W33170  15.794  25.741  12.101
66762W        W33171  28.559  18.364   3.548
66763W        W33172  31.519  15.874  14.924
66764W        W33173  17.713   5.902  13.032
66765W        W33174  10.368  10.780  12.615
66766W        W33175  21.750  13.317   1.887
66767W        W33176  19.226  23.042  14.832
66768W        W33177  38.679  18.759   2.674
66769W        W33178  27.573  16.599  12.659
66770W        W33179  18.726  27.193   1.401
66771W        W33180  11.054  35.849   2.547
66772W        W33181  29.854  13.028  13.021
66773W        W33182  18.374  24.933   4.112
66774W        W33183   4.236  24.176   2.307
66775W        W33184  41.232  10.910   4.296
66776W        W33185  21.191  11.077   3.299
66777W        W33186  28.638  33.954   2.791
66778W        W33187  21.766  19.016  14.994
66779W        W33188  36.174  38.481   2.657
66780W        W33189  29.071  29.384   4.163
66781W        W33190  22.280  30.951   1.260
66782W        W33191  40.063  40.062   2.238
66783W        W33192  21.587   2.957  10.768
66784W        W33193  25.541  37.524   4.123
66785W        W33194  18.078  33.007   2.296
66786W        W33195  10.904  34.859   0.085
66787W        W33196  28.895  39.584   1.771
66788W        W33197  13.665   4.793  11.974
66789W        W33198   0.894  19.470   3.177
66790W        W33199  39.377   9.897  14.946
66791W        W33200  35.871  29.720  13.339
66792W        W33201  34.408  16.606  14.773
66793W        W33202  42.441  26.125  11.996
66794W        W33203  21.607   8.886  10.711
66795W        W33204  26.101  27.434   3.691
66796W        W33205  33.595  30.991   0.345
66797W        W33206  44.029  17.271  12.945
66798W        W33207  22.411  39.793  11.418
66799W        W33208  16.137  10.405   0.408
66800W        W33209  35.346  30.623  10.921
66801W        W33210  41.560  26.078  13.098
66802W        W33211  13.227  30.289   1.448
66803W        W33212   4.387  38.505  13.410
66804W        W33213  35.157  16.169   1.701
66805W        W33214  33.032  10.898  12.051
66806W        W33215   2.946  14.241   4.733
66807W        W33216   8.886  19.496  11.140
66808W        W33217  22.586  22.021   5.386
66809W        W33218  12.900  35.777   5.436
66810W        W33219  23.044  15.615   2.837
66811W        W33220   3.012  21.375   1.798
66812W        W33221  14.697  39.886  12.582
66813W        W33222  23.980   6.436  12.152
66814W        W33223  12.760  28.725  14.395
66815W        W33224  36.813  24.951  10.758
66816W        W33225   1.170  21.080  11.090
66817W        W33226   4.149  38.916   0.802
66818W        W33227  28.098  35.899   0.466
66819W        W33228  26.564  34.271  11.546
66820W        W33229  15.351  18.684   3.135
66821W        W33230  39.916   8.074  12.992
66822W        W33231  32.010   8.473   1.399
66823W        W33232  27.571  44.027  12.159
66824W        W33233   7.766  44.231   0.695
66825W        W33234  40.131  41.036  12.020
66826W        W33235  12.272   3.740   0.226
66827W        W33236  17.881  28.860  11.664
66828W        W33237   4.467  44.334   3.300
66829W        W33238  39.013  33.242  12.059
66830W        W33239   1.488  23.975  12.699
66831W        W33240  41.039  12.403   0.884
66832W        W33241   2.709   6.820  13.354
66833W        W33242  42.950  14.493  11.385
66834W        W33243   2.614   3.377  13.935
66835W        W33244  32.452  37.109  11.538
66836W        W33245  11.549  27.507  11.617
66837W        W33246   5.369   3.141  11.234
66838W        W33247  37.792  39.437  12.175
66839W        W33248  25.191  42.530   0.060
66840W        W33249   5.792  27.445  11.719
66841W        W33250  27.657   1.312  13.381
66842W        W33251  21.257  19.136   1.315
66843W        W33252   2.741   7.103   2.222
66844W        W33253  20.863  16.763  12.495
66845W        W33254  43.865   8.232  14.061
66846W        W33255  30.537  29.722  14.555
66847W        W33256  12.828   3.394  10.750
66848W        W33257   0.806  28.016  12.890
66849W        W33258  39.861  29.058  14.918
66850W        W33259  38.021  22.224   1.477
66851W        W33260  28.076  15.731   2.362
66852W        W33261  43.080  42.518   3.031
66853W        W33262  21.053  42.764  11.099
66854W        W33263  41.946  26.865  13.337
66855W        W33264   0.976  23.017   2.740
66856W        W33265  37.567   2.888  13.282
66857W        W33266   9.259  44.787  13.391
66858W        W33267  41.944  36.621  10.521
66859W        W33268  21.315   0.249  14.896
66860W        W33269   7.156   5.872   2.113
66861W        W33270  29.663  18.266   3.350
66862W        W33271  22.638   6.729   3.849
66863W        W33272   5.887  41.250  11.077
66864W        W33273  19.802  13.767  13.087
66865W        W33274  17.525  31.641  14.007
66866W        W33275  16.295  36.968  11.505
66867W        W33276  22.670  32.310  11.553
66868W        W33277  31.890   8.436   4.715
66869W        W33278  17.269  29.006   1.577
66870W        W33279  37.689  40.199  12.136
66871W        W33280   1.730  17.335   2.293
66872W        W33281   2.422  43.220  11.860
66873W        W33282  13.745  11.744  11.723
66874W        W33283   7.145   5.229  11.730
66875W        W33284  31.081   7.349  13.213
66876W        W33285  24.025   3.264   3.394
66877W        W33286  41.140   5.175   3.186
66878W        W33287   0.642  37.362  11.782
66879W        W33288  16.741  35.402   3.056
66880W        W33289  17.379  35.392   4.536
66881W        W33290  36.946   8.923  10.288
66882W        W33291  31.807  32.914  14.741
66883W        W33292   3.302  14.676   0.483
66884W        W33293  34.170  44.314   2.865
66885W        W33294  26.057  22.062  11.759
66886W        W33295  10.036   6.630  12.366
66887W        W33296  39.656  19.590   3.051
66888W        W33297   2.205  17.134   2.310
66889W        W33298  16.814   1.829  13.152
66890W        W33299  11.988  16.184  10.463
66891W        W33300   5.869   1.243   1.720
66892W        W33301  13.054  14.377   2.867
66893W        W33302  18.111  44.525  12.047
66894W        W33303  32.823   2.901  14.800
66895W        W33304  35.648  13.342   0.839
66896W        W33305  30.309  17.712  10.466
66897W        W33306   0.353  21.600  13.394
66898W        W33307   8.932   2.268   3.707
66899W        W33308  23.680  11.313   0.825
66900W        W33309  16.499   4.861   0.798
66901W        W33310  25.159  26.085  13.958
66902W        W33311  42.017   2.961  11.619
66903W        W33312  21.697  10.367   4.781
66904W        W33313   6.370  43.309   1.712
66905W        W33314  31.061  40.256  14.463
66906W        W33315  13.177  29.001   2.226
66907W        W33316  10.018  10.537   1.043
66908W        W33317  22.968  40.065   4.799
66909W        W33318  29.696   5.691   4.181
66910W        W33319   5.727   8.669   3.282
66911W        W33320   3.721  12.175  11.987
66912W        W33321  28.423   5.818  14.198
66913W        W33322  36.059   5.819   0.203
66914W        W33323  13.679  38.003  12.649
66915W        W33324  11.605  12.746  12.529
66916W        W33325  11.348  39.047  13.910
66917W        W33326  20.038  38.136  12.372
66918W        W33327  16.251  11.718   2.312
66919W        W33328  44.889  35.915   2.696
66920W        W33329  24.213  27.500  13.994
66921W        W33330  14.579  25.698  12.541
66922W        W33331  10.275  17.511  14.933
66923W        W33332  14.117  34.524   1.891
66924W        W33333  24.054  13.187   4.192
66925W        W33334  17.273  33.707  14.340
66926W        W33335  23.606  35.023   4.547
66927W        W33336  37.681  11.233  11.645
66928W        W33337  16.816  22.225   0.847
66929W        W33338  14.807  28.763   4.463
66930W        W33339  30.975  18.598   3.214
66931W        W33340  43.466  20.318  14.365
66932W        W33341  18.815  19.742   3.404
66933W        W33342  39.115  43.454  10.582
66934W        W33343  42.527  34.748   3.441
66935W        W33344   5.764  29.409   3.107
66936W        W33345  27.676  12.807  12.973
66937W        W33346  43.798  27.425   1.753
66938W        W33347   3.816  39.449   1.287
66939W        W33348  23.829  27.233   2.584
66940W        W33349   9.716  37.009  14.419
66941W        W33350   9.266  35.349   1.810
66942W        W33351  27.375   7.849   1.339
66943W        W33352   6.764  31.441  13.178
66944W        W33353   5.873  14.278   3.212
66945W        W33354   2.542  11.093  14.466
66946W        W33355   3.005  28.461   4.104
66947W        W33356  43.516  22.965  13.363
66948W        W33357  36.214  37.285  12.831
66949W        W33358  34.342  37.872   1.179
66950W        W33359   6.337  13.361   0.426
66951W        W33360  23.057  33.023   0.021
66952W        W33361  19.706  24.919   0.399
66953W        W33362  21.347  15.630   3.632
66954W        W33363   2.684  22.574  14.354
66955W        W33364  43.771  11.820   4.612
66956W        W33365  35.130  32.520  11.344
66957W        W33366  24.112  10.906  13.801
66958W        W33367  21.259  28.599   0.706
66959W        W33368  44.559  18.834   3.356
66960W        W33369  42.103  29.648  13.922
66961W        W33370   1.162  14.635   4.343
66962W        W33371  19.597  43.318   0.874
66963W        W33372  26.453  43.594  14.093
66964W        W33373  19.349  37.447  13.775
66965W        W33374  42.817  10.185  12.115
66966W        W33375  19.688   0.257   1.519
66967W        W33376  25.137  22.018   1.342
66968W        W33377  43.524  43.143   1.780
66969W        W33378  30.207   4.496  11.389
66970W        W33379  15.750  32.626  14.448
66971W        W33380  22.559  42.396   1.153
66972W        W33381  35.957  14.973  10.406
66973W        W33382   3.763   2.339  11.083
66974W        W33383  39.421   8.655   3.343
66975W        W33384   5.296  29.136   3.631
66976W        W33385  41.442  33.132   2.191
66977W        W33386   5.821   2.444   0.882
66978W        W33387  35.548  14.843  13.887
66979W        W33388  24.765  17.770   0.830
66980W        W33389  15.330  20.505  11.246
66981W        W33390  33.603  42.054  11.418
66982W        W33391  11.920  25.281  11.579
66983W        W33392   1.267   0.241   1.516
66984W        W33393  13.603   2.205   3.119
66985W        W33394   2.074  44.596  11.228
66986W        W33395  10.262  21.969  14.921
66987W        W33396   7.633  34.377   2.665
66988W        W33397  22.199   8.691   2.323
66989W        W33398  25.012  35.993  14.767
66990W        W33399  42.884  31.489  11.093
66991W        W33400  34.628  29.161  13.852
66992W        W33401  21.659  24.961  13.416
66993W        W33402  27.230  29.980  14.024
66994W        W33403  10.661  30.893   0.214
66995W        W33404  22.054  10.938   3.218
66996W        W33405  24.484  18.037   2.791
66997W        W33406  22.976   4.266  11.984
66998W        W33407  41.922  14.675   2.198
66999W        W33408  11.329  17.720  14.048
67000W        W33409  12.155  30.644   2.483
67001W        W33410  11.829  23.997  10.847
67002W        W33411  33.078  37.046  13.888
67003W        W33412  11.707  22.990  11.721
67004W        W33413  41.098  40.230   3.675
67005W        W33414  43.019  11.358  11.725
67006W        W33415   7.652  11.359   0.491
67007W        W33416  28.066   3.885  10.064
67008W        W33417  37.188  38.201   5.007
67009W        W33418  16.218  32.690   4.669
67010W        W33419  20.492  22.149   0.018
67011W        W33420  39.716  41.024  14.291
67012W        W33421  10.589  18.597   3.298
67013W        W33422  16.790  35.414   0.805
67014W        W33423   5.028  29.519   9.873
67015W        W33424  37.810  42.736   4.441
67016W        W33425  44.825  18.804   2.915
67017W        W33426   9.471  40.200   4.556
67018W        W33427  43.664  37.934  11.978
67019W        W33428  13.804  30.715  11.557
67020W        W33429  18.974  39.285  14.502
67021W        W33430  24.110   0.734   2.342
67022W        W33431  29.702  33.491   0.793
67023W        W33432  38.610  40.972   3.649
67024W        W33433  37.654   8.201  10.458
67025W        W33434  43.495   2.441   0.328
67026W        W33435  21.013  30.417   1.721
67027W        W33436  43.757  13.091   1.235
67028W        W33437   6.993  10.961  14.308
67029W        W33438   1.677  28.483   3.715
67030W        W33439   6.680  29.374   2.160
67031W        W33440   3.789  11.883  13.956
67032W        W33441  31.522  37.153   4.112
67033W        W33442  36.567  28.454   0.851
67034W        W33443   7.649   6.342  11.633
67035W        W33444  27.503  22.412   2.965
67036W        W33445  22.242  39.889   2.315
67037W        W33446  12.099  34.486   0.506
67038W        W33447  33.527  41.051   2.810
67039W        W33448  15.630  40.861  13.583
67040W        W33449  21.028   6.835  11.110
67041W        W33450  16.482  18.421  12.082
67042W        W33451   9.252  42.766  14.376
67043W        W33452   2.753   5.147  11.128
67044W        W33453  42.060  36.920   1.041
67045W        W33454   6.679  33.541   2.742
67046W        W33455   6.017  28.575  14.898
67047W        W33456   8.477  42.858  13.944
67048W        W33457  21.219  31.605  10.383
67049W        W33458  31.171  15.968  12.046
67050W        W33459  11.778  42.092  11.510
67051W        W33460  38.205   0.421   0.960
67052W        W33461  32.030  36.825  11.569
67053W        W33462  24.666  12.811   2.310
67054W        W33463  32.366  17.621  12.817
67055W        W33464  28.115  28.094  13.482
67056W        W33465  25.716  29.168   3.507
67057W        W33466   8.334  42.320  12.048
67058W        W33467  20.272  32.317   0.699
67059W        W33468  27.599  42.446   1.197
67060W        W33469  39.909  42.121   1.259
67061W        W33470  26.546  41.663  11.601
67062W        W33471  32.651  43.555   1.356
67063W        W33472  29.529  21.447   0.455
67064W        W33473  23.602  27.206  14.351
67065W        W33474  40.884  35.784   3.691
67066W        W33475  36.290  35.461  13.050
67067W        W33476  22.168  28.910  10.637
67068W        W33477  36.424   5.514   0.970
67069W        W33478   7.677   2.483   3.923
67070W        W33479   0.904  33.286   4.155
67071W        W33480  12.041   6.496   0.228
67072W        W33481  43.847  43.721   4.540
67073W        W33482  39.103   2.254   1.388
67074W        W33483   7.317  33.969  12.358
67075W        W33484   1.973  24.619  13.956
67076W        W33485  11.217  21.644   1.879
67077W        W33486  17.129  25.622   3.005
67078W        W33487  21.629  41.920   0.502
67079W        W33488  10.318  26.689   1.714
67080W        W33489  11.116  32.650  11.402
67081W        W33490  38.018  15.247  14.000
67082W        W33491  27.990   6.216   0.783
67083W        W33492  44.998   9.171  13.272
67084W        W33493  26.061  35.042  11.075
67085W        W33494   6.194  27.024  12.542
67086W        W33495  15.358   0.245   4.698
67087W        W33496  41.524   5.751  10.416
67088W        W33497  15.711  32.564   2.451
67089W        W33498   4.288  32.926   0.519
67090W        W33499  28.096  28.098   0.875
67091W        W33500  11.052   1.034  13.420
67092W        W33501  21.539  33.828  12.448
67093W        W33502   6.837  24.058  11.155
67094W        W33503  28.986  26.210  14.398
67095W        W33504  12.755  28.933   4.592
67096W        W33505  24.037  42.973   2.973
67097W        W33506  39.436  19.570  11.687
67098W        W33507  23.508  15.131   1.467
67099W        W33508   7.140  39.606   3.130
67100W        W33509  11.805  27.914   3.324
67101W        W33510  16.086  44.525   4.982
67102W        W33511  20.637  12.750  13.116
67103W        W33512  32.035  36.999   1.968
67104W        W33513  38.980   3.220   3.401
67105W        W33514  42.179  41.642   0.380
67106W        W33515  31.356  39.938   4.825
67107W        W33516  11.362  32.432   0.759
67108W        W33517  42.874   7.662   0.430
67109W        W33518  13.239   6.201   4.120
67110W        W33519  13.864   0.437  13.237
67111W        W33520   8.830  33.945   0.076
67112W        W33521  34.914  25.971   3.070
67113W        W33522   1.479  12.397  10.975
67114W        W33523  36.618   0.446  10.684
67115W        W33524   0.865  32.796  12.569
67116W        W33525  37.494  31.960  12.060
67117W        W33526   9.713  13.184   4.603
67118W        W33527  32.508  43.734  11.164
67119W        W33528  27.489  10.168  14.551
67120W        W33529  31.979   1.590   3.295
67121W        W33530  19.564  27.798   5.012
67122W        W33531   4.291   0.952  10.708
67123W        W33532  37.930  24.456  10.714
67124W        W33533  32.682   4.018   1.758
67125W        W33534  36.562  17.270   2.957
67126W        W33535  20.762   8.307   1.742
67127W        W33536  26.951  19.732   3.278
67128W        W33537  22.330  14.602   1.882
67129W        W33538  29.840  20.813   4.710
67130W        W33539  22.382  11.558   4.569
67131W        W33540  20.719   5.362  14.660
67132W        W33541  22.991   1.785  14.432
67133W        W33542  15.499   5.819   0.782
67134W        W33543  18.601  15.226   0.830
67135W        W33544  34.536   3.426   2.828
67136W        W33545   3.332  22.590   2.341
67137W        W33546   5.307  26.016   1.244
67138W        W33547   4.350   3.540  10.523
67139W        W33548  39.688   5.184   1.337
67140W        W33549  12.742  40.324  10.260
67141W        W33550  20.744   7.131   0.418
67142W        W33551  34.587  38.864   2.376
67143W        W33552   8.697   3.686   2.468
67144W        W33553  32.813  41.443   4.188
67145W        W33554   7.924  40.523   1.763
67146W        W33555  10.207  40.750  10.063
67147W        W33556  36.547  25.576  11.478
67148W        W33557  23.001  33.164   2.008
67149W        W33558  43.056  42.208   4.476
67150W        W33559   2.018  37.545   2.378
67151W        W33560  34.823  15.540   4.493
67152W        W33561  27.500   3.442   1.699
67153W        W33562   6.432   3.490   2.749
67154W        W33563  27.284  37.367  13.457
67155W        W33564   3.169   2.861   0.366
67156W        W33565  42.139  10.751   2.684
67157W        W33566  43.905  35.802  14.887
67158W        W33567  21.569  19.643  12.106
67159W        W33568  20.750  25.737   2.529
67160W        W33569  19.157  29.409   2.271
67161W        W33570  43.927   1.376  10.720
67162W        W33571   8.687  21.699  13.971
67163W        W33572   6.221   8.223   4.371
67164W        W33573   7.401  16.274   0.296
67165W        W33574   1.867   5.405   0.525
67166W        W33575  34.652  28.410  14.860
67167W        W33576  18.753  16.882   2.887
67168W        W33577  41.416  37.846   4.088
67169W        W33578  28.390  30.579   2.700
67170W        W33579  36.872  24.142  11.194
67171W        W33580  22.119   2.131  12.361
67172W        W33581  26.782  26.043   1.770
67173W        W33582  42.316  20.991   0.702
67174W        W33583   0.488  23.797  13.528
67175W        W33584  18.055   2.873   4.409
67176W        W33585  31.466  29.144  12.513
67177W        W33586  35.939  13.902  14.430
67178W        W33587  14.986  14.309  10.815
67179W        W33588  14.824  17.523  12.134
67180W        W33589  29.478  30.501  14.271
67181W        W33590  40.515  36.805   1.381
67182W        W33591  10.646  15.501  14.326
67183W        W33592  32.485  39.466  14.047
67184W        W33593  30.609  17.527  13.374
67185W        W33594  34.118   4.073   4.507
67186W        W33595  38.021   0.073  12.814
67187W        W33596  24.595  21.797  13.463
67188W        W33597  35.363  43.516  11.291
67189W        W33598  41.543  29.048   3.271
67190W        W33599  10.331  33.400   0.794
67191W        W33600  31.957  23.670   2.667
67192W        W33601  21.579   7.707   0.403
67193W        W33602  25.937   6.079  14.539
67194W        W33603  41.318  31.980   0.441
67195W        W33604  37.598   5.688   3.184
67196W        W33605   3.986  34.381  12.563
67197W        W33606  13.038   9.312   3.546
67198W        W33607   3.991  23.255   0.315
67199W        W33608  44.021  44.967  11.059
67200W        W33609  13.629  36.000  13.722
67201W        W33610   2.379  18.270   0.790
67202W        W33611  14.890  37.399   3.909
67203W        W33612  20.113  32.295  14.908
67204W        W33613  14.327   8.091   3.317
67205W        W33614  27.550   8.092   1.800
67206W        W33615  40.573  33.013  11.209
67207W        W33616  15.091  14.976   4.781
67208W        W33617  18.390  11.288  12.551
67209W        W33618  33.196  41.059  13.554
67210W        W33619  24.854  43.225   1.394
67211W        W33620  37.199  42.088  14.115
67212W        W33621  30.038  32.854  10.746
67213W        W33622  24.980  30.022   2.275
67214W        W33623  27.773  33.429  14.730
67215W        W33624  44.895  38.047   4.508
67216W        W33625  26.669   3.014  14.960
67217W        W33626   7.244  17.098  14.760
67218W        W33627  44.206  40.446   0.894
67219W        W33628  32.363  11.307  13.875
67220W        W33629  18.888  36.110   0.285
67221W        W33630  43.424  25.721   4.316
67222W        W33631  44.317  25.663  12.316
67223W        W33632   2.536  41.401   0.302
67224W        W33633  35.055   8.943  13.946
67225W        W33634   4.989  21.047   1.989
67226W        W33635   9.445  41.834   3.812
67227W        W33636   0.508  36.786   1.227
67228W        W33637  12.314   3.067  10.158
67229W        W33638   1.240  26.724   3.127
67230W        W33639   9.384  13.325  10.710
67231W        W33640  43.386  40.508  11.576
67232W        W33641   3.001   8.613   0.463
67233W        W33642  15.121   9.700  13.936
67234W        W33643  12.728  40.604  12.422
67235W        W33644  21.978  33.823  13.524
67236W        W33645  30.961  10.777   3.327
67237W        W33646  39.000  20.056  14.059
67238W        W33647   5.698  13.214  11.572
67239W        W33648  33.027  35.503   0.377
67240W        W33649  12.575  39.831  14.814
67241W        W33650  40.523  38.327   4.420
67242W        W33651   2.052  40.959  11.508
67243W        W33652  16.143   7.279  11.652
67244W        W33653  29.890   2.202  14.005
67245W        W33654   0.531  38.791  13.464
67246W        W33655  12.342   2.738   3.106
67247W        W33656  15.067   2.783   3.562
67248W        W33657  22.152   4.834  12.910
67249W        W33658  26.583   0.258   2.392
67250W        W33659   3.243  28.048  11.230
67251W        W33660  36.529  38.688  12.043
67252W        W33661   1.526   3.495  13.965
67253W        W33662  12.198  32.038  11.485
67254W        W33663  27.249  27.546   0.287
67255W        W33664  31.711   5.870   4.112
67256W        W33665   7.203  24.076  13.942
67257W        W33666  33.719  38.252   9.602
67258W        W33667  15.579  33.328  13.715
67259W        W33668  14.335   6.916  11.523
67260W        W33669  35.153  25.081   4.652
67261W        W33670  14.471  10.223   2.584
67262W        W33671  38.086  14.846  12.180
67263W        W33672  28.085   3.979  10.573
67264W        W33673  38.970  28.732   3.674
67265W        W33674   3.357  29.235   2.455
67266W        W33675  24.862  17.538   1.297
67267W        W33676   5.741  19.245  13.845
67268W        W33677  21.609  29.460   9.925
67269W        W33678  21.616   8.237  14.522
67270W        W33679  11.276  29.091   3.624
67271W        W33680  26.771  22.242   3.531
67272W        W33681   4.406  25.117  14.074
67273W        W33682  34.756  30.574  10.298
67274W        W33683  24.233  39.718  10.311
67275W        W33684  23.040  15.316  11.112
67276W        W33685  14.275   4.448   2.695
67277W        W33686  16.246  40.271  12.046
67278W        W33687   7.732  28.199   4.014
67279W        W33688  13.158  36.465   3.430
67280W        W33689  31.384  12.367  14.357
67281W        W33690   9.675   5.120   3.153
67282W        W33691  36.477   4.955   1.868
67283W        W33692  31.999  28.302  11.680
67284W        W33693  22.273  10.655   2.839
67285W        W33694  10.609  10.959   0.543
67286W        W33695   8.115  34.022   2.350
67287W        W33696  18.384  37.426  13.821
67288W        W33697  31.956   9.269  12.994
67289W        W33698  10.248  38.135   1.457
67290W        W33699  42.316  15.791  13.842
67291W        W33700  26.081   9.922   4.820
67292W        W33701   2.800  21.384   4.521
67293W        W33702  42.829   2.482  11.249
67294W        W33703  35.706  41.067  14.586
67295W        W33704   3.443   8.097  13.869
67296W        W33705  38.071  27.174   1.812
67297W        W33706  14.103   8.773  12.007
67298W        W33707   1.186   3.210   4.092
67299W        W33708  34.956  12.766  11.565
67300W        W33709  19.687  10.640   4.198
67301W        W33710  35.039   5.904  13.561
67302W        W33711   8.682   1.653   4.540
67303W        W33712  43.291  43.989  10.820
67304W        W33713  14.360   4.091   2.311
67305W        W33714  19.915  25.040  12.149
67306W        W33715   3.000  31.566  14.044
67307W        W33716  20.250  25.357   2.475
67308W        W33717  43.577  12.973  11.017
67309W        W33718  41.766  15.444  13.529
67310W        W33719  24.007   6.838  11.843
67311W        W33720  22.271  16.775  10.862
67312W        W33721  20.707  40.281   0.242
67313W        W33722   4.817  34.394  11.123
67314W        W33723  23.206  44.889   2.488
67315W        W33724  17.968   6.794   2.322
67316W        W33725  41.779  34.041   3.271
67317W        W33726  38.480   7.384   2.972
67318W        W33727  12.548  11.581   0.830
67319W        W33728  14.599  43.838  14.000
67320W        W33729  34.540  33.462   1.430
67321W        W33730  10.779  17.415  14.749
67322W        W33731  29.474  28.126  10.684
67323W        W33732  37.578  28.903   0.943
67324W        W33733  18.197  44.794   0.235
67325W        W33734  25.180   6.433   2.806
67326W        W33735  41.527  18.108   3.003
67327W        W33736   1.327  19.009   4.705
67328W        W33737  15.099  29.131   3.319
67329W        W33738  25.772   8.411   1.692
67330W        W33739  16.085   9.518  11.160
67331W        W33740  39.616   6.891   0.875
67332W        W33741  25.081  20.299   4.332
67333W        W33742  25.276  25.666  11.028
67334W        W33743   2.760  29.576  12.601
67335W        W33744  29.196  25.666   0.583
67336W        W33745  40.116  25.824  11.140
67337W        W33746  41.346   8.316  10.724
67338W        W33747   7.529  33.813  11.914
67339W        W33748   3.208  42.353   1.061
67340W        W33749  41.033  24.932  14.910
67341W        W33750  34.367  30.017  13.273
67342W        W33751  35.804  11.656   1.262
67343W        W33752   8.350  40.583  11.526
67344W        W33753  10.728  21.165  12.970
67345W        W33754   7.889  25.813  12.370
67346W        W33755  30.211  31.925  10.768
67347W        W33756  44.846  12.825  13.441
67348W        W33757  42.558  15.599   1.418
67349W        W33758  26.507  41.032  11.032
67350W        W33759  27.920   7.331   1.878
67351W        W33760  19.086   9.668  10.794
67352W        W33761   2.876  36.122   3.908
67353W        W33762  28.137   2.928   0.912
67354W        W33763   7.669  34.971   2.300
67355W        W33764  11.594  19.650  14.993
67356W        W33765  30.492  24.062  10.637
67357W        W33766  10.904  39.537  10.811
67358W        W33767  11.676   4.407  11.254
67359W        W33768   6.823   2.657  13.070
67360W        W33769   9.811  38.187  14.004
67361W        W33770  21.782  36.289   1.302
67362W        W33771  20.049  43.335   2.373
67363W        W33772   5.874  44.459   3.294
67364W        W33773  39.453  12.284   2.295
67365W        W33774  40.401  42.807  12.525
67366W        W33775  30.312  12.673  12.548
67367W        W33776   4.651  28.902  12.704
67368W        W33777  19.372  23.745   2.261
67369W        W33778  19.114  18.575   3.360
67370W        W33779  25.980   6.419  12.815
67371W        W33780  28.732   6.800  12.395
67372W        W33781  37.392  29.994  14.895
67373W        W33782  16.389   0.900  11.475
67374W        W33783   3.979  33.114   2.342
67375W        W33784  18.323  12.164  10.418
67376W        W33785   0.915  29.927  12.408
67377W        W33786  20.166  21.731  12.910
67378W        W33787  17.324  20.289  10.210
67379W        W33788  30.049   0.272  10.728
67380W        W33789  38.731  26.541  11.119
67381W        W33790  41.355  40.562  13.591
67382W        W33791  34.944  35.689  13.376
67383W        W33792  40.626  31.720  13.626
67384W        W33793  10.446  30.455   0.328
67385W        W33794   7.276  28.317   0.300
67386W        W33795  40.495  11.858  11.982
67387W        W33796  31.505   8.771   3.448
67388W        W33797  27.971   0.834   3.113
67389W        W33798  39.756  21.692   1.211
67390W        W33799   6.278  43.188   5.072
67391W        W33800  21.938  40.169  11.992
67392W        W33801   1.898  16.733  10.766
67393W        W33802  27.672  39.528   2.225
67394W        W33803  40.210   1.903  11.641
67395W        W33804   0.081  40.155   1.636
67396W        W33805  16.049  42.943   3.816
67397W        W33806  30.595  34.913   3.343
67398W        W33807  43.320   5.910   0.542
67399W        W33808  24.002  27.551   0.969
67400W        W33809  21.150  42.440   4.045
67401W        W33810   7.849   3.754  14.566
67402W        W33811  22.925   4.461  12.478
67403W        W33812   3.897  36.188  13.957
67404W        W33813   9.719   4.760   3.938
67405W        W33814  31.083  19.455  11.869
67406W        W33815  37.215  36.582  14.893
67407W        W33816  20.113  22.696  13.786
67408W        W33817  18.716   4.360   3.562
67409W        W33818   6.216  26.631  13.902
67410W        W33819  28.363  32.529   1.965
67411W        W33820  25.609   7.314   2.338
67412W        W33821  34.853  20.215  12.047
67413W        W33822  11.345   4.059  14.429
67414W        W33823   5.108  28.024   3.053
67415W        W33824  23.712  16.321   1.291
67416W        W33825  21.188  15.829  10.644
67417W        W33826  29.652  21.451   4.142
67418W        W33827  44.277  27.316   0.035
67419W        W33828  32.001   1.865  10.020
67420W        W33829  21.866  19.362   1.431
67421W        W33830  17.926  41.271   2.704
67422W        W33831  38.364  12.309   4.265
67423W        W33832  11.129  32.872   1.897
67424W        W33833  18.269  39.578   2.406
67425W        W33834  39.512   3.787   3.634
67426W        W33835  34.571   5.349   1.521
67427W        W33836  29.120  27.705  11.928
67428W        W33837  29.555  16.577  12.346
67429W        W33838  11.567  24.328   2.475
67430W        W33839  22.520  16.234  14.948
67431W        W33840  40.494  34.586  11.107
67432W        W33841  34.929  10.155   0.690
67433W        W33842  29.665  17.827  14.523
67434W        W33843  29.669  36.366   0.799
67435W        W33844  38.051  41.109   1.863
67436W        W33845  42.225  20.523   2.343
67437W        W33846  21.918  31.699  13.911
67438W        W33847   0.048   4.278   4.180
67439W        W33848   4.243   5.162  12.526
67440W        W33849   6.392  40.035  13.097
67441W        W33850  10.539  31.468  14.390
67442W        W33851   7.264  19.963   1.363
67443W        W33852   8.229  17.301   0.774
67444W        W33853  25.528  38.984   4.630
67445W        W33854  26.938  10.306   0.132
67446W        W33855  32.940  27.252  10.946
67447W        W33856  23.580  35.764   3.250
67448W        W33857  42.465   7.985   9.836
67449W        W33858  13.741  31.942  13.518
67450W        W33859  20.786  40.868   0.984
67451W        W33860  15.216  20.142   9.758
67452W        W33861  16.203  41.422   3.346
67453W        W33862  22.041   9.688  10.711
67454W        W33863  15.182  43.846  13.218
67455W        W33864  27.743  26.055  12.677
67456W        W33865  42.531  14.368   2.721
67457W        W33866  21.940  26.716  11.483
67458W        W33867  42.957   9.723  11.275
67459W        W33868  17.094   6.487   2.325
67460W        W33869  12.997  20.570   0.452
67461W        W33870  26.568  26.209  12.057
67462W        W33871   8.921  14.180   3.197
67463W        W33872   5.366  41.208   3.642
67464W        W33873  38.562   6.656  14.411
67465W        W33874  18.828  25.511   2.711
67466W        W33875  34.831  42.918   4.790
67467W        W33876   2.253  33.377   3.265
67468W        W33877  29.137   9.147  11.521
67469W        W33878  22.796  34.455   4.250
67470W        W33879  40.050  35.882  12.531
67471W        W33880  16.283  23.460   9.740
67472W        W33881  18.119  42.801  10.859
67473W        W33882  30.876  32.318  14.022
67474W        W33883   9.819   7.666  10.801
67475W        W33884   8.787  34.397  11.172
67476W        W33885  42.810  32.677  14.474
67477W        W33886  32.094  36.758   0.287
67478W        W33887  22.678  19.112   4.229
67479W        W33888  31.740  24.251   3.356
67480W        W33889  26.228  24.822  10.676
67481W        W33890  40.790  35.615   2.801
67482W        W33891  12.377  26.277   3.464
67483W        W33892  20.008  36.013  10.114
67484W        W33893  20.782   7.248   2.243
67485W        W33894   3.342  10.344  11.708
67486W        W33895  34.132  20.293   2.301
67487W        W33896  43.639  38.633   4.381
67488W        W33897  38.929  20.689  12.810
67489W        W33898  22.029   7.989   0.366
67490W        W33899  42.420  35.716  13.105
67491W        W33900  28.146  11.460  14.300
67492W        W33901  14.696  12.867  14.390
67493W        W33902  14.318  42.922  14.389
67494W        W33903  24.273   0.866   1.375
67495W        W33904  26.069   7.530   3.192
67496W        W33905  36.027  38.873  12.104
67497W        W33906  28.583  27.509  11.994
67498W        W33907  10.094  28.997  12.218
67499W        W33908  25.097  15.371  11.431
67500W        W33909  41.542  38.958  14.270
67501W        W33910  22.742  10.350   0.272
67502W        W33911  20.215  14.094   2.885
67503W        W33912  10.399  26.741   2.834
67504W        W33913  42.825  40.767  14.530
67505W        W33914  13.750  42.519  14.815
67506W        W33915   4.326  11.573  10.919
67507W        W33916  37.585   3.327   4.047
67508W        W33917   6.833  15.333   4.151
67509W        W33918  23.595  13.847  13.025
67510W        W33919   3.270  12.135   1.871
67511W        W33920   3.700   9.817  13.572
67512W        W33921   0.502   9.165   4.885
67513W        W33922  22.441  38.581  10.199
67514W        W33923  16.572   1.895   4.345
67515W        W33924  10.808  18.758  12.896
67516W        W33925  37.284  33.695   0.200
67517W        W33926   6.199  29.060  13.007
67518W        W33927  27.723   1.555  14.220
67519W        W33928   1.741  34.482   0.877
67520W        W33929  12.369  29.144  14.276
67521W        W33930  37.797   8.576   4.090
67522W        W33931  32.267   6.331   4.820
67523W        W33932  10.448  32.257  14.341
67524W        W33933  24.053  34.084   0.899
67525W        W33934  35.197   4.960  14.193
67526W        W33935  37.540  43.151   5.066
67527W        W33936  29.830  29.094   1.598
67528W        W33937  21.008  32.645  14.570
67529W        W33938   1.836  26.752  11.195
67530W        W33939   2.754  20.375   3.149
67531W        W33940   5.405  31.430   0.898
67532W        W33941   5.693   3.184   1.427
67533W        W33942  15.273  20.614  13.011
67534W        W33943   8.666  29.492  13.917
67535W        W33944  26.501  17.172   3.737
67536W        W33945   6.747   8.494   2.192
67537W        W33946   4.265  37.095   2.144
67538W        W33947  25.147  43.350   1.836
67539W        W33948   8.193   4.707   1.846
67540W        W33949  28.907  11.414   0.433
67541W        W33950  25.037  17.610   0.365
67542W        W33951  26.510  28.344   0.702
67543W        W33952  18.050  21.680  13.491
67544W        W33953  26.574  25.532  10.464
67545W        W33954  23.174  19.161  13.699
67546W        W33955  32.196  23.381  11.668
67547W        W33956  14.612  19.670   0.765
67548W        W33957   1.855  20.163   3.693
67549W        W33958   3.222  15.431  11.746
67550W        W33959  22.989   7.032   3.633
67551W        W33960   6.900  13.449  14.239
67552W        W33961  21.264   5.894  10.735
67553W        W33962  16.978  43.305   0.335
67554W        W33963  34.646  20.280   4.664
67555W        W33964  26.736  25.167   0.449
67556W        W33965  18.772  30.714  14.547
67557W        W33966  26.915  43.830  10.641
67558W        W33967   5.274   6.220   2.263
67559W        W33968  28.115  22.516  11.893
67560W        W33969  24.281  24.771  12.057
67561W        W33970  25.032  32.176  11.628
67562W        W33971  31.913  32.247  12.971
67563W        W33972  27.035  30.468   0.273
67564W        W33973   6.243  22.649  14.470
67565W        W33974  41.291   1.609   2.645
67566W        W33975  27.931  13.166   3.775
67567W        W33976  37.958  43.283  11.208
67568W        W33977  17.170  14.817  12.865
67569W        W33978  25.730  19.963  10.664
67570W        W33979   4.161  32.777   1.496
67571W        W33980  40.565  40.306   1.266
67572W        W33981  22.743  31.412  11.624
67573W        W33982  13.338  39.382   0.875
67574W        W33983   8.999  14.166   5.034
67575W        W33984   8.383  44.441  11.026
67576W        W33985  43.926  22.537  10.945
67577W        W33986  15.285  30.888   1.301
67578W        W33987  25.108  29.306  12.982
67579W        W33988   0.934  31.329  13.367
67580W        W33989  28.487   9.952   0.896
67581W        W33990  41.036  42.463   3.602
67582W        W33991   7.698  11.846   1.266
67583W        W33992  34.341  37.604  13.977
67584W        W33993  19.873  29.620  13.538
67585W        W33994  10.108  33.518   3.181
67586W        W33995   6.017   7.565  11.976
67587W        W33996  20.263  12.413  11.102
67588W        W33997   6.867  19.866   0.190
67589W        W33998   6.852  12.963  14.361
67590W        W33999  29.626  18.804  10.283
67591W        W34000  14.214  18.461  12.907
67592W        W34001  17.436   0.870   4.452
67593W        W34002  29.177  23.740   3.742
67594W        W34003   9.185   3.486  10.716
67595W        W34004   3.874  11.784   2.101
67596W        W34005  24.314  22.014   0.766
67597W        W34006  31.317  22.251   2.771
67598W        W34007  34.068  21.502  14.547
67599W        W34008  23.710   4.612   3.785
67600W        W34009  19.166  26.514  12.150
67601W        W34010  35.879   6.750  14.925
67602W        W34011  18.646  24.427   2.839
67603W        W34012  38.323   5.653  11.533
67604W        W34013   4.440  40.329  12.977
67605W        W34014  39.002  34.428  13.166
67606W        W34015  35.630  24.737  12.635
67607W        W34016  24.124  31.518   1.684
67608W        W34017   3.884  42.686  13.770
67609W        W34018  14.229  16.464  14.560
67610W        W34019  29.450  22.779   1.866
67611W        W34020  43.503  17.238  14.330
67612W        W34021  44.425  34.801  11.435
67613W        W34022  33.459   6.463  12.932
67614W        W34023  13.728  32.997   4.540
67615W        W34024  40.325  17.806   2.122
67616W        W34025  32.697   8.370  13.381
67617W        W34026  39.227   2.827  11.118
67618W        W34027  13.516  43.676   2.685
67619W        W34028  41.482  28.250   3.266
67620W        W34029  17.309  26.931  13.522
67621W        W34030  17.975  31.543  13.067
67622W        W34031  28.050  22.244  13.971
67623W        W34032  16.298   0.130   3.588
67624W        W34033   7.404  33.065  11.360
67625W        W34034  23.494  36.352   4.085
67626W        W34035   2.821  43.513  14.892
67627W        W34036  43.022  38.798  11.562
67628W        W34037  27.027  24.533  10.749
67629W        W34038  37.149  22.966   2.767
67630W        W34039   7.326  40.846   0.320
67631W        W34040  44.420  40.113   2.807
67632W        W34041  13.442  36.582   1.449
67633W        W34042  35.258  18.947   1.902
67634W        W34043  16.701  32.439  14.431
67635W        W34044   6.978   6.456   1.321
67636W        W34045   5.742   4.245  11.693
67637W        W34046  15.427  38.361  11.688
67638W        W34047  44.642  30.954   1.205
67639W        W34048  40.799   2.896  11.307
67640W        W34049  23.215  39.995  14.488
67641W        W34050   7.783  26.087  12.803
67642W        W34051  42.873   0.457  10.584
67643W        W34052   6.127  17.598  14.465
67644W        W34053  19.628  39.404  10.726
67645W        W34054  41.017  12.415  11.669
67646W        W34055  11.678   0.121   2.964
67647W        W34056  37.539  34.038  10.408
67648W        W34057  14.885  17.305  10.744
67649W        W34058   3.485  37.850   3.727
67650W        W34059  32.593  19.987   3.246
67651W        W34060  34.725  15.848  10.778
67652W        W34061  16.959  42.529   0.738
67653W        W34062  23.129  33.664   1.841
67654W        W34063  20.343   3.987   0.506
67655W        W34064   0.044  23.757  14.446
67656W        W34065  18.673  24.159  10.671
67657W        W34066  32.047  38.400   2.126
67658W        W34067   1.723  27.726   1.389
67659W        W34068  20.992  42.381   2.571
67660W        W34069  41.285  15.291  11.687
67661W        W34070  21.167   4.906  10.749
67662W        W34071  30.547  40.225   2.723
67663W        W34072  35.897  25.202  10.428
67664W        W34073  19.737  21.198   1.882
67665W        W34074  33.549  14.110   2.190
67666W        W34075   5.827  17.109  12.478
67667W        W34076  25.630  35.143   0.314
67668W        W34077   4.528  39.697   2.906
67669W        W34078   7.852   3.761   3.889
67670W        W34079  16.419  36.089   3.684
67671W        W34080  27.036  12.018  10.281
67672W        W34081  43.808  19.523  13.461
67673W        W34082  30.439   7.874   1.379
67674W        W34083  16.700   4.092   0.493
67675W        W34084   0.769  30.624  13.999
67676W        W34085  40.344  12.294  14.060
67677W        W34086  21.077  38.801   0.552
67678W        W34087   6.744   6.302   1.782
67679W        W34088  29.926   8.868   4.582
67680W        W34089  33.895   9.746   1.420
67681W        W34090  44.547  18.002  13.798
67682W        W34091  20.002   0.311  12.383
67683W        W34092  19.339  13.869   1.335
67684W        W34093  38.133   2.191  13.371
67685W        W34094  25.718   1.934   3.232
67686W        W34095  25.646   9.930  14.421
67687W        W34096   0.609  41.431  10.222
67688W        W34097  40.261  41.529   2.307
67689W        W34098  31.149  32.650   0.467
67690W        W34099  42.588  19.518  14.577
67691W        W34100  10.585  20.228   4.650
67692W        W34101  22.118   9.221  13.049
67693W        W34102  20.297  25.653   3.703
67694W        W34103   1.686  18.619   4.230
67695W        W34104  28.054  17.862  13.040
67696W        W34105  40.801   2.233  10.579
67697W        W34106  19.045  10.739   2.870
67698W        W34107  24.220  13.237   4.966
67699W        W34108  32.490   9.206   4.653
67700W        W34109   2.270  11.611  12.449
67701W        W34110   0.544  16.673   3.100
67702W        W34111   9.579  12.675   1.676
67703W        W34112  36.417  43.023   0.788
67704W        W34113   3.302  40.951   4.219
67705W        W34114  27.166  28.305   2.293
67706W        W34115   4.147  43.573  14.836
67707W        W34116  34.133  20.447   0.892
67708W        W34117  10.277  20.520  14.392
67709W        W34118  37.038  31.567  11.380
67710W        W34119  23.563   0.997  14.096
67711W        W34120  26.153  10.538  14.945
67712W        W34121  21.482  25.517  14.361
67713W        W34122  22.183  20.563  11.265
67714W        W34123  39.277  25.613   3.139
67715W        W34124  22.699  33.391  12.943
67716W        W34125  19.587  32.576  11.082
67717W        W34126   1.971  11.112   0.049
67718W        W34127  19.229  33.103  11.482
67719W        W34128  31.032   2.966   2.774
67720W        W34129  11.622   1.721  12.929
67721W        W34130  32.588  33.912   3.361
67722W        W34131  31.972  43.741  11.066
67723W        W34132  15.706   5.747  11.118
67724W        W34133  14.567   1.938  13.176
67725W        W34134  20.741  29.965   0.892
67726W        W34135  15.630  35.346  14.079
67727W        W34136   8.482  13.543  10.509
67728W        W34137  43.324   7.735   9.779
67729W        W34138   4.284  10.785   1.511
67730W        W34139  34.357  28.004  13.033
67731W        W34140  26.694  32.197  12.457
67732W        W34141  31.800  28.393   1.118
67733W        W34142   3.862  24.191   1.854
67734W        W34143  36.225  30.671   3.445
67735W        W34144  39.047  38.188   2.983
67736W        W34145  24.948  39.560  13.537
67737W        W34146  35.419   3.682  14.972
67738W        W34147  37.407  25.810   2.178
67739W        W34148   2.296  32.750  12.402
67740W        W34149   4.388  35.763  11.150
67741W        W34150  12.455  15.104   1.002
67742W        W34151  12.098  34.849   2.305
67743W        W34152   2.044  36.140   2.169
67744W        W34153  32.782  28.212  14.771
67745W        W34154  42.247   2.410  10.803
67746W        W34155  30.623  27.217  13.776
67747W        W34156  34.108   5.316   0.198
67748W        W34157  29.995  28.234   1.466
67749W        W34158  27.603  42.068   1.549
67750W        W34159  33.943  11.770  12.643
67751W        W34160   7.395  17.358   3.574
67752W        W34161  23.939  14.803   3.740
67753W        W34162  32.099  32.488  14.930
67754W        W34163  43.102  28.147   4.648
67755W        W34164   4.506  34.358  12.530
67756W        W34165  26.316  25.576  13.626
67757W        W34166   0.441  28.380   2.431
67758W        W34167  30.020  17.506  12.912
67759W        W34168   0.307   2.278  14.829
67760W        W34169   4.443  28.983  14.042
67761W        W34170  35.589   5.153   2.664
67762W        W34171  14.247  29.057   3.681
67763W        W34172  40.896  15.546  14.897
67764W        W34173   2.308  19.558  13.520
67765W        W34174  24.473   6.735   0.904
67766W        W34175  43.537  35.465  11.090
67767W        W34176  22.713  13.411  13.629
67768W        W34177  16.529  39.530  13.066
67769W        W34178  27.723  21.793  12.111
67770W        W34179  25.616  43.841   1.937
67771W        W34180  23.358  34.439  12.341
67772W        W34181  28.468  32.880  10.882
67773W        W34182  22.702  30.033  13.939
67774W        W34183  33.277  31.511   3.749
67775W        W34184  11.172  25.470   2.333
67776W        W34185   2.889  35.254   4.026
67777W        W34186  44.081  23.500  13.598
67778W        W34187  29.370  32.978   2.522
67779W        W34188  18.197  35.332  11.507
67780W        W34189   9.895  14.122   3.386
67781W        W34190  29.165  29.964  12.470
67782W        W34191   0.118  19.540   4.193
67783W        W34192   0.385   9.387   2.834
67784W        W34193  36.209  13.338   2.853
67785W        W34194  14.605  16.645   3.334
67786W        W34195   2.663   3.177  11.239
67787W        W34196  23.056  31.370  13.467
67788W        W34197   9.675  32.840  14.843
67789W        W34198  23.151  11.670  13.478
67790W        W34199  23.884  24.278  13.808
67791W        W34200  14.230   1.756  13.566
67792W        W34201  27.917  10.623   4.512
67793W        W34202   6.452   5.388  14.304
67794W        W34203  41.813  43.498   4.616
67795W        W34204   1.240  38.709   0.811
67796W        W34205  24.130   9.539   5.308
67797W        W34206  34.497  21.182   5.004
67798W        W34207  35.399   2.790  14.774
67799W        W34208  27.408   7.143   3.839
67800W        W34209  28.072  22.654   4.823
67801W        W34210  27.973   8.380  14.107
67802W        W34211  26.201  26.914   3.665
67803W        W34212  25.630   3.822  10.986
67804W        W34213  21.692  17.734   0.287
67805W        W34214  10.796  39.670  12.001
67806W        W34215  33.416  42.997  10.765
67807W        W34216   3.606  21.588   4.231
67808W        W34217  13.053  22.397  10.274
67809W        W34218  24.723  26.529   1.458
67810W        W34219   0.162  19.987   1.602
67811W        W34220  44.948   4.740   0.855
67812W        W34221  35.355  20.357  12.908
67813W        W34222  23.147  16.791   3.625
67814W        W34223  32.711  22.755   3.013
67815W        W34224  26.974  37.579  14.395
67816W        W34225   2.178   0.446   3.630
67817W        W34226  31.416  38.427   4.863
67818W        W34227   9.309  10.316   0.315
67819W        W34228  25.218  21.621   3.634
67820W        W34229  24.751  23.758   2.803
67821W        W34230  22.282  44.410   3.659
67822W        W34231  17.803  44.299  13.943
67823W        W34232  38.968  18.803   3.627
67824W        W34233  17.100  31.728   4.665
67825W        W34234  37.989  41.009   3.404
67826W        W34235  25.992  41.731   4.034
67827W        W34236   4.898  14.930  12.574
67828W        W34237  17.485  13.831   0.852
67829W        W34238  17.260  22.721  13.635
67830W        W34239  24.456   8.074   3.997
67831W        W34240  16.280  34.122  13.033
67832W        W34241   2.999  42.453   0.274
67833W        W34242  20.910  38.937  12.381
67834W        W34243   0.474  28.423  12.146
67835W        W34244   7.569  14.221  11.237
67836W        W34245  14.608  18.106   3.266
67837W        W34246  42.028  28.943   1.713
67838W        W34247  19.729  29.716  11.397
67839W        W34248  14.653  20.777   1.610
67840W        W34249  26.117   3.715  10.752
67841W        W34250  11.256   5.966   2.604
67842W        W34251   6.337  23.094  13.498
67843W        W34252  37.865  13.226  13.389
67844W        W34253  24.507  35.098   4.628
67845W        W34254   5.963  21.821  10.102
67846W        W34255   7.786  22.955  14.440
67847W        W34256  34.054  34.741   1.545
67848W        W34257  30.280   8.195   4.556
67849W        W34258  19.809  19.716   3.000
67850W        W34259   8.352   0.859   1.005
67851W        W34260   5.399  29.457  12.782
67852W        W34261  29.236  43.261   3.375
67853W        W34262   9.818  42.031  13.865
67854W        W34263   8.441  24.543   3.265
67855W        W34264   0.985  13.331   0.767
67856W        W34265  15.788   1.215  13.942
67857W        W34266   0.002   1.215  14.907
67858W        W34267  17.041  24.731  11.354
67859W        W34268   2.721  11.761   4.849
67860W        W34269   4.285   6.591   3.584
67861W        W34270  35.882  39.417   1.636
67862W        W34271  12.622   0.793   2.702
67863W        W34272  14.312  28.950  11.562
67864W        W34273  27.069  24.689   4.486
67865W        W34274  11.260   4.538  10.783
67866W        W34275  13.300  42.782   5.027
67867W        W34276   6.375  36.014   4.597
67868W        W34277   8.269  25.452  14.406
67869W        W34278  23.576   8.839  10.643
67870W        W34279  26.532  22.039  11.554
67871W        W34280  24.202  32.629  12.479
67872W        W34281   0.786  42.898   2.380
67873W        W34282   5.809  15.589  11.646
67874W        W34283  30.461  11.832   1.385
67875W        W34284  11.438  21.203  13.941
67876W        W34285  18.653  32.077   3.147
67877W        W34286  19.997   4.664   3.230
67878W        W34287   9.265  35.577  12.593
67879W        W34288  28.235  28.272  11.927
67880W        W34289  38.855  44.522   0.734
67881W        W34290   9.830  38.583  10.705
67882W        W34291   2.626   2.286  12.110
67883W        W34292  20.637  16.961   1.954
67884W        W34293  18.142  14.565  12.893
67885W        W34294  31.533   2.847  13.490
67886W        W34295  22.448  29.756   2.142
67887W        W34296  34.344   8.123   4.605
67888W        W34297  17.090  25.186  10.649
67889W        W34298   3.110  13.149  14.776
67890W        W34299  31.410  27.580  11.715
67891W        W34300   7.168   7.811  12.587
67892W        W34301  37.848  22.694   0.256
67893W        W34302  40.028  18.547   3.159
67894W        W34303   5.290   4.038   1.489
67895W        W34304  39.220  18.312   0.113
67896W        W34305  20.543  37.499  13.439
67897W        W34306  30.177  20.232  13.176
67898W        W34307  31.711  22.238  12.593
67899W        W34308  10.620   0.229  11.816
67900W        W34309  27.171  43.681   1.291
67901W        W34310  18.875  23.562  12.509
67902W        W34311   5.250  42.145   0.934
67903W        W34312  34.315  11.621  12.316
67904W        W34313  39.078  34.418  11.287
67905W        W34314  19.679  17.916   4.170
67906W        W34315   8.179  35.044  11.983
67907W        W34316  17.362  41.837   1.971
67908W        W34317  38.462   2.536   3.207
67909W        W34318  42.976  19.613   3.680
67910W        W34319   5.871  35.743  12.434
67911W        W34320  24.717  13.419   3.600
67912W        W34321  22.358  12.248  13.046
67913W        W34322  30.652  23.581  14.421
67914W        W34323  35.119  41.087  11.981
67915W        W34324   2.948   9.808  11.428
67916W        W34325  28.758   6.809   0.888
67917W        W34326   4.268  35.006  10.641
67918W        W34327   3.119  30.355  12.545
67919W        W34328   0.421  40.515  13.491
67920W        W34329  26.173   0.963  13.819
67921W        W34330  29.018   6.795  11.221
67922W        W34331  28.186  28.541  11.071
67923W        W34332  44.500  11.846  11.953
67924W        W34333   6.327  31.993   0.728
67925W        W34334  36.036  41.177  14.993
67926W        W34335  32.533   6.080   2.787
67927W        W34336  38.793   6.772   2.408
67928W        W34337   9.008   1.273  12.186
67929W        W34338  34.554  21.900   1.886
67930W        W34339  14.583  30.433  14.130
67931W        W34340  32.364  37.638   3.261
67932W        W34341  27.565  29.969   0.348
67933W        W34342  26.337  35.557   3.842
67934W        W34343  33.482  32.884   4.126
67935W        W34344  16.067  35.886  14.869
67936W        W34345  28.041  40.272  10.503
67937W        W34346   2.322   3.896   4.210
67938W        W34347  33.821  33.757   3.040
67939W        W34348  18.563  26.126  10.394
67940W        W34349  33.883   6.150  10.186
67941W        W34350  41.771  18.016  11.216
67942W        W34351  34.468  15.027  11.791
67943W        W34352  40.852  15.127   2.412
67944W        W34353   8.741  22.801   1.473
67945W        W34354  24.448  30.494  12.761
67946W        W34355   5.402  11.604  12.512
67947W        W34356  10.041  29.755  13.865
67948W        W34357   0.438  29.608   4.792
67949W        W34358  19.546  16.303   1.779
67950W        W34359  17.461   7.005   4.180
67951W        W34360   4.774  41.502  12.459
67952W        W34361  28.805  18.856   0.855
67953W        W34362   6.221  16.096  12.027
67954W        W34363  31.095   0.465   4.839
67955W        W34364  38.587  34.435   3.389
67956W        W34365   4.860   8.159  14.678
67957W        W34366  13.796  17.811   2.327
67958W        W34367  20.013  16.282  13.086
67959W        W34368  29.164  39.353   1.355
67960W        W34369  42.546  43.851   1.429
67961W        W34370  25.033  17.163  13.550
67962W        W34371  11.568   6.762   4.141
67963W        W34372  24.013  30.551   1.960
67964W        W34373  11.200  21.212  13.475
67965W        W34374  11.744  11.944   4.984
67966W        W34375  18.555   1.219   4.389
67967W        W34376  28.234  36.015  14.010
67968W        W34377  10.994  27.448   1.621
67969W        W34378  12.723   8.976  10.617
67970W        W34379  39.062  32.091  10.324
67971W        W34380  17.585  30.944  13.442
67972W        W34381  42.329  33.575  14.889
67973W        W34382  44.402  33.258   1.613
67974W        W34383   5.082  28.437   2.691
67975W        W34384  32.455  34.806   1.672
67976W        W34385   5.878  18.657  10.450
67977W        W34386  43.209  10.564  14.656
67978W        W34387   2.631  44.751   0.326
67979W        W34388  27.898  35.534   4.889
67980W        W34389  30.173  21.226   3.234
67981W        W34390  22.992  12.106   2.189
67982W        W34391  36.359   3.310   3.091
67983W        W34392  39.840  31.924  14.429
67984W        W34393  16.584  37.907   1.556
67985W        W34394   4.338  22.016   0.864
67986W        W34395  11.668   5.139  12.861
67987W        W34396  28.115  20.634   2.630
67988W        W34397  34.839  11.296   3.954
67989W        W34398  35.357  20.526   2.751
67990W        W34399  14.926  16.258  13.275
67991W        W34400  30.998  34.738  12.350
67992W        W34401  33.951   8.876   3.562
67993W        W34402  39.123   1.322   1.276
67994W        W34403  41.856  19.851  13.097
67995W        W34404  25.690  42.234   2.705
67996W        W34405  40.513  12.445  11.157
67997W        W34406  34.601   7.626   0.314
67998W        W34407   2.882  12.905   2.144
67999W        W34408  13.638  18.090   1.003
68000W        W34409  34.354  26.803   4.218
68001W        W34410  31.311  42.050  10.687
68002W        W34411  34.868  16.776  11.517
68003W        W34412   4.759  14.090   0.229
68004W        W34413  43.677  42.708   0.003
68005W        W34414  14.446  14.758  10.795
68006W        W34415  20.611  36.466  10.658
68007W        W34416   3.919  44.961  13.411
68008W        W34417   8.640  32.431  11.532
68009W        W34418  12.256  44.296   0.283
68010W        W34419   1.717  30.757  11.412
68011W        W34420   7.063   8.695   3.617
68012W        W34421  39.293   3.791   0.826
68013W        W34422  12.415   7.273  12.814
68014W        W34423  42.666  14.656   0.986
68015W        W34424  17.579  15.766  10.760
68016W        W34425  44.504   1.444   1.821
68017W        W34426   2.778  30.687  13.502
68018W        W34427  28.432  39.925   4.470
68019W        W34428  20.266  37.295   0.259
68020W        W34429  12.719  37.106   3.703
68021W        W34430  18.146  35.640   2.891
68022W        W34431  40.037  22.443  12.154
68023W        W34432  24.651  39.030  10.659
68024W        W34433  13.335   5.384  14.542
68025W        W34434  16.050  10.034  11.229
68026W        W34435  19.193  31.452  10.559
68027W        W34436  44.556  34.037   3.971
68028W        W34437  24.669  20.010  13.975
68029W        W34438   0.816  44.732  12.205
68030W        W34439  37.578   7.396   1.864
68031W        W34440   7.268   6.641  10.810
68032W        W34441  12.134   5.479   0.234
68033W        W34442  40.248  40.540  11.969
68034W        W34443  40.072   3.338  14.084
68035W        W34444   5.339   4.798   0.813
68036W        W34445  33.327  24.037  11.557
68037W        W34446  29.850  32.406  14.280
68038W        W34447  28.277  23.585   1.707
68039W        W34448  41.287  24.552   4.132
68040W        W34449  31.557   1.666  11.288
68041W        W34450  27.724   7.444   2.825
68042W        W34451  18.875  44.789   2.794
68043W        W34452   4.062  31.057  14.565
68044W        W34453  29.437  34.953  12.445
68045W        W34454   5.666  31.321   4.203
68046W        W34455  29.157   2.636  14.366
68047W        W34456  31.102  40.953   2.377
68048W        W34457  18.383   0.393   3.999
68049W        W34458   9.793  21.047   3.242
68050W        W34459  26.039  43.382   4.205
68051W        W34460  42.438  33.106  13.982
68052W        W34461  11.247  12.818  11.976
68053W        W34462  41.137   8.164  10.271
68054W        W34463   6.829  38.276   4.358
68055W        W34464  23.460   3.065  11.066
68056W        W34465  28.841  23.326   0.722
68057W        W34466  17.861  20.584  14.331
68058W        W34467  23.003  30.943  14.779
68059W        W34468   8.452   4.862   4.501
68060W        W34469  41.465   3.012  10.788
68061W        W34470  38.258  20.335   2.538
68062W        W34471  13.537  25.004  13.010
68063W        W34472  42.268   9.262  14.876
68064W        W34473   1.417  17.681   4.395
68065W        W34474   0.322   6.818   2.669
68066W        W34475  27.761  21.172  11.235
68067W        W34476   6.590  37.352  13.014
68068W        W34477  31.361   5.220   0.811
68069W        W34478  27.150  33.614  11.096
68070W        W34479   9.747  44.494   1.935
68071W        W34480  10.248  13.695  11.915
68072W        W34481  10.752  32.926  11.682
68073W        W34482  19.618  14.831  12.965
68074W        W34483  16.128  23.110   3.779
68075W        W34484  14.807  19.045  10.063
68076W        W34485  12.351   3.548   9.976
68077W        W34486   5.738  39.109  14.707
68078W        W34487   2.433  42.387  12.794
68079W        W34488  22.119  29.489  14.670
68080W        W34489  39.738  37.035  13.439
68081W        W34490  24.008   5.502  14.982
68082W        W34491  38.040  11.722   0.677
68083W        W34492  14.056   9.269   2.801
68084W        W34493  37.957  17.408   3.499
68085W        W34494   4.116  13.135  14.883
68086W        W34495  15.570   8.715  14.028
68087W        W34496  21.021  16.676  11.647
68088W        W34497  27.083  11.285   4.586
68089W        W34498  29.714  33.178  11.949
68090W        W34499  15.579  21.491  11.195
68091W        W34500  28.051  40.321   0.317
68092W        W34501  19.232  43.461   0.513
68093W        W34502  17.409  13.725   4.871
68094W        W34503  13.294  30.397  11.580
68095W        W34504  40.004  12.269   1.325
68096W        W34505   7.681  27.191   1.247
68097W        W34506  34.937  21.236   4.736
68098W        W34507   8.995   9.557  12.918
68099W        W34508  21.701  44.184   1.885
68100W        W34509   0.861  27.183  12.906
68101W        W34510   0.447  34.122  12.039
68102W        W34511  24.477  34.602  14.694
68103W        W34512  24.946  33.097  11.632
68104W        W34513  21.976  30.426   3.767
68105W        W34514  36.636  24.723  14.002
68106W        W34515  15.200  31.298  11.519
68107W        W34516  40.452  40.672  13.967
68108W        W34517   5.626  14.783  13.934
68109W        W34518  26.206  11.230   0.908
68110W        W34519  18.764  21.191  11.024
68111W        W34520  33.993  18.336  13.428
68112W        W34521  11.474  12.333  14.816
68113W        W34522  35.625  15.611  11.373
68114W        W34523  16.962   1.454   3.896
68115W        W34524   9.383  25.466  12.456
68116W        W34525  27.557  36.902  14.842
68117W        W34526   4.233  20.462  12.551
68118W        W34527  29.442  36.137  11.501
68119W        W34528  29.292  32.110   1.239
68120W        W34529  39.411  30.762  14.572
68121W        W34530  15.537  30.907   3.284
68122W        W34531  38.280  40.371   2.265
68123W        W34532  30.988  32.967   1.753
68124W        W34533  15.629  20.211  12.423
68125W        W34534  33.995  10.383   4.120
68126W        W34535   3.257  44.035   0.579
68127W        W34536   2.070   7.844   0.361
68128W        W34537  28.469  20.435  13.670
68129W        W34538  17.819  35.137   3.285
68130W        W34539  36.386   9.196  12.979
68131W        W34540  34.853  22.508   3.138
68132W        W34541  27.555   5.580  11.535
68133W        W34542  30.406  39.353  13.419
68134W        W34543  10.896   8.818   1.951
68135W        W34544  24.106  24.287  11.230
68136W        W34545  23.109  10.836   2.677
68137W        W34546  38.541   7.273   2.468
68138W        W34547  28.396  13.958  11.862
68139W        W34548  18.658  14.060  11.615
68140W        W34549  34.432  44.290  14.079
68141W        W34550  44.625  28.262   0.334
68142W        W34551  32.008  40.572  13.045
68143W        W34552  42.196  11.821  13.533
68144W        W34553  42.041   2.542  13.405
68145W        W34554  16.360  26.432   4.221
68146W        W34555  27.281  15.081  11.184
68147W        W34556   6.285  34.203  14.549
68148W        W34557  20.498  17.799  11.516
68149W        W34558   9.107  19.645   2.751
68150W        W34559  16.856  42.088   3.774
68151W        W34560  24.137  13.192  13.539
68152W        W34561  34.928  17.654   0.416
68153W        W34562  31.579  39.232   2.392
68154W        W34563  11.262  34.574   2.607
68155W        W34564  13.343   5.673   4.114
68156W        W34565  19.527  22.270  12.954
68157W        W34566  34.065  28.370  10.924
68158W        W34567   8.299  16.544  12.660
68159W        W34568  28.893  32.847   2.655
68160W        W34569  21.578  25.215   0.043
68161W        W34570   9.264  37.510  12.891
68162W        W34571  35.789  16.809  10.314
68163W        W34572  38.436  44.519  14.466
68164W        W34573  32.032  30.503  14.785
68165W        W34574   1.971   1.900   0.874
68166W        W34575   9.202  43.786   2.348
68167W        W34576  18.270  29.116  14.383
68168W        W34577  17.122  44.080  12.908
68169W        W34578  21.808  29.217   2.786
68170W        W34579  21.158  29.192  10.198
68171W        W34580  31.951   0.481   1.885
68172W        W34581  18.213  43.335  14.067
68173W        W34582   4.286   0.166   2.941
68174W        W34583  32.026   8.267  10.788
68175W        W34584  25.737  42.520  12.536
68176W        W34585  24.471   0.001  11.268
68177W        W34586   4.403  16.930  12.826
68178W        W34587  37.017  37.402  11.631
68179W        W34588  39.419  13.612  11.272
68180W        W34589  38.757  36.095  11.392
68181W        W34590  41.932  21.618   1.056
68182W        W34591   9.654   5.960   2.418
68183W        W34592  24.050  34.490   1.259
68184W        W34593   6.298  21.377   3.717
68185W        W34594  30.141  40.136   0.156
68186W        W34595  19.335  18.179   1.450
68187W        W34596  17.231  38.488   1.822
68188W        W34597  24.295  19.104   4.649
68189W        W34598  23.773  25.155   1.653
68190W        W34599   4.423  42.951   0.356
68191W        W34600  22.225  26.186   4.568
68192W        W34601   7.085  16.519   1.208
68193W        W34602  43.214   6.220   0.928
68194W        W34603  43.509  32.031   4.516
68195W        W34604   1.237   9.035   4.244
68196W        W34605  11.180  13.762  10.985
68197W        W34606  15.128  32.905   4.618
68198W        W34607  11.152  28.023  14.179
68199W        W34608  27.187  31.842   0.492
68200W        W34609  13.559  43.720  12.044
68201W        W34610   9.033  27.736  10.160
68202W        W34611  44.721  38.879  11.547
68203W        W34612   9.314  32.575  13.585
68204W        W34613  10.685  36.469   4.231
68205W        W34614   9.629   1.026   2.790
68206W        W34615   1.412   4.745  14.298
68207W        W34616  40.943   3.008  10.833
68208W        W34617  25.946  18.603  11.463
68209W        W34618  10.755   1.630   2.610
68210W        W34619  19.033  21.730   4.856
68211W        W34620   2.476  26.867  11.058
68212W        W34621   3.105   7.748   3.352
68213W        W34622  43.303  41.878   4.177
68214W        W34623  26.116  33.830  12.747
68215W        W34624  32.436  42.963  14.029
68216W        W34625  37.951   4.101   1.733
68217W        W34626  36.907  10.438   2.484
68218W        W34627  20.207  28.451   0.704
68219W        W34628  14.960  23.050   3.648
68220W        W34629  41.832  40.968   0.764
68221W        W34630  12.403  21.748   3.277
68222W        W34631  19.755  26.150   4.712
68223W        W34632  30.011  37.949  12.452
68224W        W34633   9.640  27.505   3.672
68225W        W34634  28.813  11.824   9.854
68226W        W34635  42.440  20.481  12.577
68227W        W34636   1.589   6.974  11.220
68228W        W34637   8.637  31.021   3.608
68229W        W34638   7.701  38.467   4.310
68230W        W34639  35.964  37.822   4.089
68231W        W34640  20.274  22.217   2.832
68232W        W34641  38.386  35.616   0.824
68233W        W34642  16.364   8.269   4.825
68234W        W34643  28.462   9.243   0.507
68235W        W34644  32.406  21.198   2.860
68236W        W34645  11.943   4.946  14.995
68237W        W34646  12.328  11.758  11.553
68238W        W34647  21.835   6.814  10.659
68239W        W34648  13.752  26.372  12.205
68240W        W34649  38.856  32.785  11.156
68241W        W34650  40.367  37.984  14.455
68242W        W34651  12.304  23.482   0.990
68243W        W34652  30.778  44.745   5.075
68244W        W34653   5.590  31.972  12.300
68245W        W34654  14.279   9.913  14.266
68246W        W34655  11.227  30.379   2.657
68247W        W34656  31.442  21.520  11.919
68248W        W34657   5.185  21.413   3.962
68249W        W34658  36.368  22.674   0.791
68250W        W34659   8.462  34.972   3.901
68251W        W34660  18.314  23.040  13.745
68252W        W34661   1.200  35.646  14.263
68253W        W34662  35.078  19.169  13.432
68254W        W34663   8.015  12.154   2.927
68255W        W34664  33.500  33.962   1.990
68256W        W34665  24.424  40.334   3.764
68257W        W34666  37.427  12.357  13.742
68258W        W34667  23.465  13.578   0.927
68259W        W34668  40.854   0.123   3.742
68260W        W34669  15.879  17.241   4.529
68261W        W34670   1.228  28.222   4.684
68262W        W34671  18.141   8.473   0.159
68263W        W34672  13.300  34.393  14.911
68264W        W34673  44.548   4.359   1.278
68265W        W34674  28.914  31.897   0.268
68266W        W34675  19.282  17.287  13.927
68267W        W34676  38.595  44.250   1.690
68268W        W34677   8.133  26.606   2.370
68269W        W34678   9.302  39.064  12.059
68270W        W34679  18.565   8.609   2.450
68271W        W34680   0.915  35.878  10.664
68272W        W34681   2.498   6.419  14.882
68273W        W34682   7.155  37.416   1.917
68274W        W34683  13.833  10.466   1.637
68275W        W34684  27.918  24.209  12.019
68276W        W34685  14.825   5.488   4.892
68277W        W34686  25.658  27.773   1.662
68278W        W34687   7.146  38.820  10.631
68279W        W34688  14.100  15.261   1.206
68280W        W34689  39.896   5.960   3.924
68281W        W34690  32.480  20.555  13.294
68282W        W34691  34.344  16.119   2.195
68283W        W34692  29.407   5.377  11.075
68284W        W34693  39.573  23.029  12.970
68285W        W34694   0.181  12.815   3.306
68286W        W34695  11.871   0.740   0.954
68287W        W34696  21.639  32.496   4.172
68288W        W34697   5.746  29.499  14.790
68289W        W34698  11.967  41.543  14.151
68290W        W34699   4.730  35.895  12.517
68291W        W34700  25.837   4.214   3.335
68292W        W34701  27.188   8.664  14.568
68293W        W34702  22.291  42.257  14.598
68294W        W34703  13.346  11.097  13.569
68295W        W34704   2.258  27.138  13.559
68296W        W34705  17.689   3.756  13.627
68297W        W34706  39.756  35.630   0.630
68298W        W34707   8.293  21.123   5.073
68299W        W34708  37.016   7.809   4.515
68300W        W34709  32.390  34.269   4.731
68301W        W34710   2.292  24.775   2.738
68302W        W34711  22.819  38.040  14.049
68303W        W34712   0.362   1.959   1.822
68304W        W34713  31.180  11.531  12.292
68305W        W34714  30.407  21.575   3.611
68306W        W34715  43.847  14.335  10.621
68307W        W34716  41.739  17.748  13.130
68308W        W34717  41.627  40.869  11.682
68309W        W34718  42.508  27.740  13.157
68310W        W34719  20.937  44.395  14.722
68311W        W34720  32.377  12.595   2.289
68312W        W34721  33.593  27.171  11.948
68313W        W34722  39.842  27.180   1.030
68314W        W34723   2.719  15.319  13.517
68315W        W34724  35.530  16.718  12.508
68316W        W34725  18.339  18.327   0.289
68317W        W34726  18.144  24.605   4.880
68318W        W34727  33.102  44.899   2.618
68319W        W34728  40.788   2.984  12.149
68320W        W34729  41.706  33.100   4.091
68321W        W34730  11.422  31.119   4.103
68322W        W34731  41.939  11.016  10.967
68323W        W34732  29.437  24.522   0.745
68324W        W34733   0.618  25.711  13.515
68325W        W34734   6.845  18.147   2.862
68326W        W34735  23.034  16.352  14.903
68327W        W34736  38.975  14.367  14.392
68328W        W34737   2.206   6.921   2.783
68329W        W34738   8.075  31.147  14.766
68330W        W34739  40.000  23.512  12.227
68331W        W34740  33.462  26.571  13.004
68332W        W34741   6.778   8.437  13.289
68333W        W34742  44.492   1.334  13.568
68334W        W34743  16.527  13.829  14.851
68335W        W34744  39.290  21.457   4.843
68336W        W34745  15.216  33.190  10.696
68337W        W34746   9.540  28.822  12.981
68338W        W34747  30.969   7.625  11.096
68339W        W34748  24.136  44.732   1.535
68340W        W34749   0.780   0.282   3.255
68341W        W34750   2.934  10.171   3.196
68342W        W34751   8.153  33.566  11.472
68343W        W34752  44.852  27.365   2.582
68344W        W34753  18.638  16.021   4.204
68345W        W34754  14.730  22.749   2.438
68346W        W34755   5.865  41.062   2.599
68347W        W34756  19.629  25.212  10.443
68348W        W34757  33.820   8.574   4.274
68349W        W34758  17.950  25.905   4.137
68350W        W34759   3.846  21.617  10.573
68351W        W34760  17.734  10.215   0.286
68352W        W34761  38.437  27.618   4.577
68353W        W34762  30.501  29.663  10.685
68354W        W34763  26.166  14.860  10.731
68355W        W34764  15.693  37.796   3.139
68356W        W34765  17.948  35.845   2.143
68357W        W34766  32.116  20.258  12.049
68358W        W34767  20.664  44.159  11.962
68359W        W34768  18.692  28.004  11.261
68360W        W34769  10.775  37.434   4.086
68361W        W34770  24.969  33.599   4.099
68362W        W34771  21.260  28.279   2.077
68363W        W34772  35.894  16.121  11.119
68364W        W34773  39.531   5.402  11.600
68365W        W34774  20.688  42.106   0.779
68366W        W34775   8.233  38.589  14.535
68367W        W34776   1.359  41.052  13.512
68368W        W34777  25.247  44.097   3.390
68369W        W34778  25.373  12.034  13.421
68370W        W34779  24.434   2.235  11.519
68371W        W34780  42.339   0.905  11.129
68372W        W34781  33.532   5.938  10.593
68373W        W34782  13.771  35.107  12.080
68374W        W34783  28.377   1.476   0.181
68375W        W34784  28.148  16.161   2.102
68376W        W34785   8.751   2.007   1.590
68377W        W34786  21.735  27.934   0.339
68378W        W34787  27.514  40.800   0.576
68379W        W34788  37.489  38.895  14.270
68380W        W34789  11.450  31.046  14.532
68381W        W34790  18.711   1.226   3.875
68382W        W34791  10.339  23.099  12.729
68383W        W34792   6.968   2.327  10.844
68384W        W34793   1.291  11.192  10.292
68385W        W34794  26.224  24.256   2.140
68386W        W34795   9.188  27.615   1.220
68387W        W34796  44.269  43.460   3.086
68388W        W34797  21.505  18.590   0.220
68389W        W34798  26.934  39.918  14.492
68390W        W34799  39.809   6.125  13.939
68391W        W34800  27.138  33.180  11.400
68392W        W34801  21.603  32.427   1.940
68393W        W34802  43.865  43.327  14.425
68394W        W34803   0.694   2.575   1.084
68395W        W34804  38.962   4.200  13.974
68396W        W34805  44.790  35.841  13.342
68397W        W34806   8.468  18.732   4.120
68398W        W34807  12.341  28.641  12.062
68399W        W34808   6.040  14.909  13.338
68400W        W34809  26.727  42.572  14.935
68401W        W34810  28.868  26.967  13.980
68402W        W34811  29.711  18.746  14.251
68403W        W34812  14.815  32.351  13.127
68404W        W34813  14.991  23.246  11.151
68405W        W34814  20.529  15.789  11.601
68406W        W34815  16.447  26.331  12.844
68407W        W34816   5.982  28.587   3.690
68408W        W34817  22.569  20.157   2.694
68409W        W34818   8.757  20.816   0.714
68410W        W34819  27.748   8.109   2.286
68411W        W34820  19.656   2.482   4.757
68412W        W34821  13.238  39.901  10.930
68413W        W34822  15.192   2.518   0.383
68414W        W34823   3.478  40.577   1.538
68415W        W34824   1.289  36.447   2.453
68416W        W34825  19.055  14.104  12.549
68417W        W34826  32.568  14.491   4.161
68418W        W34827  13.705  13.615  11.655
68419W        W34828   9.426  37.574  10.571
68420W        W34829  28.904   4.298   2.599
68421W        W34830  28.502  27.718  13.494
68422W        W34831   9.658  18.733  14.942
68423W        W34832  37.563  34.650  11.266
68424W        W34833   1.241  38.281  13.991
68425W        W34834  25.289  37.327   4.552
68426W        W34835  27.464  39.439  13.744
68427W        W34836  34.586  40.513   0.743
68428W        W34837  43.472  32.538   2.413
68429W        W34838   5.345  10.293  13.353
68430W        W34839  20.504  15.516   3.879
68431W        W34840   6.012  12.202   3.336
68432W        W34841  41.001   8.250   3.097
68433W        W34842  19.012  25.650   3.215
68434W        W34843  35.816  14.391  14.456
68435W        W34844  17.862   9.461  14.446
68436W        W34845  15.762   2.054   4.305
68437W        W34846   3.663  16.102   4.634
68438W        W34847  34.999  27.934   2.834
68439W        W34848  19.203  35.624   0.974
68440W        W34849  33.507  37.883  14.009
68441W        W34850  32.919  32.871  11.673
68442W        W34851  20.994  18.838   4.099
68443W        W34852  39.987   3.728   4.554
68444W        W34853  39.250   7.512  13.782
68445W        W34854   0.687  30.769   1.330
68446W        W34855  40.270  28.858  13.048
68447W        W34856  13.254  20.510  11.569
68448W        W34857  14.869  27.405   1.486
68449W        W34858   0.835  38.369   0.861
68450W        W34859   0.164  17.579  12.090
68451W        W34860  41.063  30.346  13.820
68452W        W34861  12.129  40.697  13.442
68453W        W34862   0.428  29.575   1.566
68454W        W34863   0.857  40.810   3.178
68455W        W34864   9.205  25.050  11.230
68456W        W34865   6.045   2.211  10.674
68457W        W34866  20.228  22.695  10.646
68458W        W34867  28.598   7.256  14.370
68459W        W34868  43.059  24.441   0.339
68460W        W34869   9.711  13.064  10.990
68461W        W34870  23.117  14.842   0.950
68462W        W34871  28.498  16.228  12.475
68463W        W34872  15.055  18.802  12.549
68464W        W34873  21.155  36.755  13.523
68465W        W34874  17.100  13.863  12.444
68466W        W34875  13.314  17.513   2.316
68467W        W34876   3.098  22.920   3.708
68468W        W34877  38.942  30.022  14.622
68469W        W34878  12.411  32.849  12.957
68470W        W34879  39.543  39.392  14.777
68471W        W34880  43.110  30.890   1.438
68472W        W34881  14.759  16.552  12.380
68473W        W34882   0.270  28.141   1.838
68474W        W34883   2.755  10.940   2.701
68475W        W34884  11.365  36.631   0.238
68476W        W34885   4.795  29.670  13.814
68477W        W34886  20.592  15.137   4.217
68478W        W34887  43.989  15.329  11.074
68479W        W34888  11.894  38.940  13.231
68480W        W34889  43.000  17.826   0.420
68481W        W34890  20.835   3.029   2.376
68482W        W34891  20.366  43.225   1.405
68483W        W34892   4.177  42.032   3.694
68484W        W34893  29.005  24.362  11.549
68485W        W34894  17.740  27.243   0.861
68486W        W34895  23.415  18.799  13.400
68487W        W34896  35.784  17.808  13.559
68488W        W34897  32.129   7.395   3.173
68489W        W34898  27.571  41.029  13.392
68490W        W34899  35.118   4.267  14.443
68491W        W34900  24.028  22.076   0.316
68492W        W34901  22.805  27.940   0.840
68493W        W34902  34.673  34.158  10.573
68494W        W34903  32.335  21.988  10.767
68495W        W34904  15.561  35.348  14.585
68496W        W34905  33.695  22.290  13.569
68497W        W34906  18.397  26.435  14.927
68498W        W34907  16.422  31.777   1.194
68499W        W34908   4.471   8.026   0.325
68500W        W34909  21.687  14.845  11.881
68501W        W34910   7.680  29.491  14.941
68502W        W34911  22.802  11.380  10.702
68503W        W34912  44.736  26.545  12.364
68504W        W34913  41.551   6.440  12.432
68505W        W34914  33.305  30.258   4.526
68506W        W34915   9.268   2.491  11.596
68507W        W34916  16.453  24.564  13.458
68508W        W34917  36.507  29.927   4.718
68509W        W34918   2.958  27.434   2.840
68510W        W34919  33.496   6.902  11.398
68511W        W34920  11.070  41.026  12.247
68512W        W34921   1.361  21.814   2.362
68513W        W34922  33.145  21.902  11.893
68514W        W34923  40.854  21.517  10.696
68515W        W34924  16.135  17.349  12.021
68516W        W34925  26.515   4.493  10.165
68517W        W34926  14.732  30.095   1.927
68518W        W34927  20.816  36.344   1.164
68519W        W34928  43.071  10.275   4.278
68520W        W34929  31.308  15.456  12.072
68521W        W34930  25.047  30.417   4.419
68522W        W34931  20.572   6.183   4.655
68523W        W34932  44.041  33.462   1.223
68524W        W34933  42.809   4.183   4.545
68525W        W34934  21.320   2.544  11.010
68526W        W34935  43.158   3.655   3.695
68527W        W34936   1.155  33.866  11.218
68528W        W34937  32.953   7.801   1.004
68529W        W34938   6.090  40.003   0.076
68530W        W34939   1.729  28.095   4.602
68531W        W34940  26.783   4.262   3.030
68532W        W34941  22.047  33.060  12.148
68533W        W34942   8.857  36.193   0.724
68534W        W34943  17.195  31.216  10.638
68535W        W34944  42.946  30.272   4.835
68536W        W34945  16.797  19.668   4.615
68537W        W34946  39.125  24.909  12.577
68538W        W34947  38.855   0.524  11.627
68539W        W34948  13.789   6.193  12.330
68540W        W34949   1.859   2.112   1.651
68541W        W34950  40.650  31.480   4.916
68542W        W34951  33.887  37.462   3.223
68543W        W34952  19.769  22.231   1.846
68544W        W34953   7.214  25.270   0.748
68545W        W34954  27.588  18.449   1.746
68546W        W34955  30.524  37.794   0.376
68547W        W34956  26.636   6.040   2.320
68548W        W34957   6.915  11.412  14.563
68549W        W34958   6.091  44.872   2.648
68550W        W34959  27.746   4.364  11.199
68551W        W34960  10.854   1.709  13.956
68552W        W34961  21.459  40.299   4.995
68553W        W34962  31.134  37.371   2.159
68554W        W34963   0.481  18.979  14.988
68555W        W34964  27.049   6.313  11.202
68556W        W34965  19.251  11.712   1.974
68557W        W34966   0.760  21.779   0.869
68558W        W34967   2.844  44.914  11.108
68559W        W34968  26.584  34.520   3.261
68560W        W34969  35.059   1.546  14.463
68561W        W34970  27.079  27.649  14.773
68562W        W34971  20.454  43.563  14.545
68563W        W34972   0.475   3.362   3.701
68564W        W34973  15.820  38.347   1.638
68565W        W34974   4.301  18.860  14.360
68566W        W34975  41.678   8.868   1.878
68567W        W34976  28.141   8.868   1.293
68568W        W34977  23.627  42.845   4.765
68569W        W34978  32.720  39.637  14.899
68570W        W34979  32.292   8.729  11.641
68571W        W34980  19.145  20.894  14.469
68572W        W34981  26.688  39.505   4.697
68573W        W34982  34.526  24.029  12.556
68574W        W34983   3.045   6.629  13.011
68575W        W34984  30.417  11.121  11.745
68576W        W34985  20.086  10.729  10.694
68577W        W34986  43.800  29.462  14.992
68578W        W34987  34.522  43.555   2.730
68579W        W34988  25.530  13.130  12.590
68580W        W34989  26.850   7.395  13.424
68581W        W34990   3.747  18.662  13.068
68582W        W34991  15.089  38.797   2.229
68583W        W34992  24.605  32.000   3.922
68584W        W34993  31.472  26.788   3.568
68585W        W34994   8.092  40.782   4.148
68586W        W34995  29.534   1.019  14.592
68587W        W34996  27.180   8.916   1.881
68588W        W34997  11.493  32.593  14.302
68589W        W34998  30.901   1.696   4.219
68590W        W34999  12.864  41.341   1.382
68591W        W35000  42.784  32.688   0.336
68592W        W35001  10.114  19.321   0.384
68593W        W35002  11.229  12.182   0.241
68594W        W35003  35.824  40.105  12.506
68595W        W35004  27.582  20.923   3.180
68596W        W35005   4.546  25.869  13.117
68597W        W35006   1.880  29.442  14.249
68598W        W35007  21.117  17.264  10.760
68599W        W35008  23.897  41.105  14.747
68600W        W35009  31.405  26.416   0.694
68601W        W35010   4.506  36.631  12.003
68602W        W35011  13.259  14.751   0.895
68603W        W35012  11.194   4.468  14.778
68604W        W35013  30.307  32.498  11.697
68605W        W35014  35.772  11.127  14.207
68606W        W35015   6.851  41.296  12.054
68607W        W35016  28.028  34.780  14.251
68608W        W35017  12.195  27.533   0.649
68609W        W35018  11.429  38.559  11.626
68610W        W35019  39.203  10.213  10.405
68611W        W35020  14.265  34.784  11.615
68612W        W35021  16.745  44.441  14.500
68613W        W35022  16.287  22.052  13.834
68614W        W35023  38.315  42.215   3.817
68615W        W35024  16.621  12.914  14.760
68616W        W35025  38.982   0.259  13.877
68617W        W35026  14.365  28.538   0.192
68618W        W35027  36.770  40.916  11.660
68619W        W35028  40.946  34.349  11.158
68620W        W35029  23.747   4.262  12.091
68621W        W35030  12.841  26.644  12.646
68622W        W35031   7.290  41.745  14.332
68623W        W35032  30.252  13.774   3.673
68624W        W35033  27.961   5.209  11.319
68625W        W35034  37.044  28.747  11.506
68626W        W35035  12.515  34.161   2.638
68627W        W35036  26.401  44.239   9.917
68628W        W35037   6.729   6.914   1.428
68629W        W35038   0.804  33.483  11.240
68630W        W35039  22.316   1.726   0.270
68631W        W35040   0.939  35.935   0.427
68632W        W35041  24.052  33.543   0.723
68633W        W35042   5.774   4.390   2.255
68634W        W35043  13.049  28.532  11.661
68635W        W35044   9.453   6.328  11.953
68636W        W35045   2.923  44.801  13.337
68637W        W35046  10.532  19.269   4.600
68638W        W35047  26.183  42.910   3.255
68639W        W35048   8.368   6.133   0.490
68640W        W35049  19.805  23.132  11.117
68641W        W35050   2.663  16.725  14.540
68642W        W35051  44.272  35.626  12.536
68643W        W35052  35.093   2.495  14.456
68644W        W35053  13.766  13.277   0.462
68645W        W35054  22.583  43.013  14.382
68646W        W35055  24.291  15.597   0.809
68647W        W35056  29.034  11.863  12.629
68648W        W35057  43.486  15.302  11.426
68649W        W35058  13.248  43.948   4.138
68650W        W35059  11.175  37.449   1.931
68651W        W35060   8.778  31.392   3.311
68652W        W35061  26.481  18.723   4.561
68653W        W35062  10.892  44.245   4.127
68654W        W35063  39.064   8.247  12.348
68655W        W35064  27.242  23.005   4.840
68656W        W35065  42.345   1.518   4.303
68657W        W35066  13.662  36.377   4.630
68658W        W35067  35.890  12.852  11.582
68659W        W35068  10.196  37.974  14.980
68660W        W35069  22.270  20.538   2.861
68661W        W35070  12.794  35.558   1.675
68662W        W35071  21.082  21.969  13.895
68663W        W35072   3.250   7.884  13.412
68664W        W35073  33.675  18.581  14.477
68665W        W35074   0.355  19.569  14.364
68666W        W35075  19.284   2.471   0.347
68667W        W35076  22.714   5.668  13.891
68668W        W35077  41.736  29.671  12.065
68669W        W35078   3.841  31.859  14.041
68670W        W35079  33.845  11.713   4.562
68671W        W35080  35.333  40.070  13.508
68672W        W35081  43.360  37.503   1.658
68673W        W35082  21.215  24.410   4.831
68674W        W35083  40.764   0.278  13.241
68675W        W35084  31.832  21.268  12.150
68676W        W35085  28.033   9.454  12.003
68677W        W35086  17.968  44.504  10.706
68678W        W35087   4.649  12.784  14.466
68679W        W35088  10.182  17.167  11.519
68680W        W35089  14.770  42.791  14.606
68681W        W35090  44.517   8.580   3.354
68682W        W35091  17.282  30.996  11.512
68683W        W35092  35.659  42.903  11.210
68684W        W35093   3.465  42.321   0.069
68685W        W35094  12.209  35.093   4.477
68686W        W35095   6.278  11.404   0.361
68687W        W35096  30.529  26.168   3.624
68688W        W35097   7.450  16.868  13.377
68689W        W35098  33.864  20.698   4.498
68690W        W35099  31.055  36.905   2.343
68691W        W35100   4.892  19.323   4.282
68692W        W35101  13.095   2.982   3.569
68693W        W35102  16.180   7.365   0.284
68694W        W35103  19.246  19.954  11.154
68695W        W35104  13.078  21.704   1.854
68696W        W35105  26.756   7.399   5.280
68697W        W35106  31.981  18.232  10.239
68698W        W35107   1.497  11.684   0.199
68699W        W35108  16.157  15.129  14.627
68700W        W35109  35.443   3.700  13.581
68701W        W35110  36.631  43.557   2.579
68702W        W35111  19.683  30.626   0.612
68703W        W35112   7.697  38.002  10.961
68704W        W35113  37.086  38.581  11.104
68705W        W35114  31.665  11.406  12.106
68706W        W35115   1.941   3.158  12.946
68707W        W35116   8.945  17.035  12.411
68708W        W35117   6.871  44.993   4.105
68709W        W35118   9.923  41.464   1.087
68710W        W35119   9.583   9.125   1.688
68711W        W35120  30.879  25.107  13.366
68712W        W35121   1.981   9.739  11.632
68713W        W35122   2.867  19.030  12.504
68714W        W35123  12.896  44.715  11.174
68715W        W35124  14.111  42.508   3.135
68716W        W35125  28.932  16.680  11.681
68717W        W35126  17.093  17.367  13.803
68718W        W35127  39.080  24.185  13.319
68719W        W35128  31.042  44.694   0.359
68720W        W35129  17.831  11.756   4.118
68721W        W35130  21.570   3.305   0.776
68722W        W35131  17.294  36.288   0.621
68723W        W35132  44.427  33.505   2.504
68724W        W35133  13.644   9.835  11.122
68725W        W35134  34.147  29.945  14.399
68726W        W35135  18.099   8.179   4.021
68727W        W35136  41.998  11.562  14.485
68728W        W35137  29.634  15.865  14.002
68729W        W35138  41.012  26.656  11.476
68730W        W35139  30.672   2.943   1.931
68731W        W35140   4.281  41.082   1.052
68732W        W35141  31.407   4.527  10.971
68733W        W35142  17.772   7.910   4.678
68734W        W35143  10.279  41.799  11.211
68735W        W35144  18.252  40.753  13.431
68736W        W35145  13.776  13.165   3.334
68737W        W35146  34.189  43.080  13.612
68738W        W35147  26.532  43.291   0.984
68739W        W35148  21.276   6.122  10.284
68740W        W35149  28.654  18.623  14.266
68741W        W35150  25.998  31.731  11.206
68742W        W35151  22.646  37.869  10.475
68743W        W35152  31.484  28.608   1.907
68744W        W35153  15.229   4.229   4.868
68745W        W35154  26.658   3.945   4.583
68746W        W35155  34.046  24.212   3.654
68747W        W35156   4.232  41.946   2.407
68748W        W35157  33.558  28.624   1.367
68749W        W35158  27.373  13.308  14.380
68750W        W35159  22.975   2.757   4.360
68751W        W35160  12.189  33.602  13.569
68752W        W35161   1.675  14.880   2.708
68753W        W35162  16.912   5.379  13.091
68754W        W35163  22.555  11.840   2.287
68755W        W35164  30.611  27.044   0.000
68756W        W35165  25.232  14.668   3.244
68757W        W35166  28.588  10.429   0.689
68758W        W35167  22.547  20.665  12.110
68759W        W35168  20.483  32.974   1.308
68760W        W35169  16.553  42.432  11.326
68761W        W35170  11.174   6.298   1.167
68762W        W35171  28.289  15.478  10.915
68763W        W35172  12.119  14.054  12.512
68764W        W35173  20.160  33.005   3.286
68765W        W35174  19.596  13.572  14.082
68766W        W35175  31.924  42.401  10.905
68767W        W35176  44.425  31.662   1.054
68768W        W35177   3.230  24.592  11.127
68769W        W35178  43.028   2.340   4.815
68770W        W35179  35.484  38.095   1.868
68771W        W35180  26.998  42.584   2.325
68772W        W35181  12.149  10.761   2.790
68773W        W35182  19.314  32.532   1.036
68774W        W35183   4.009  16.902   1.750
68775W        W35184  19.145  26.052   1.241
68776W        W35185  13.441  34.957   2.055
68777W        W35186  34.097  40.093  14.906
68778W        W35187  40.984   7.422   1.852
68779W        W35188  32.682  17.671  13.237
68780W        W35189   3.326  11.623   1.434
68781W        W35190  31.970  13.797  13.951
68782W        W35191  28.023  23.248  14.038
68783W        W35192  38.638  29.568  12.486
68784W        W35193   9.714  24.177   4.074
68785W        W35194  15.171  25.273   3.550
68786W        W35195  30.027  12.030  12.110
68787W        W35196  12.627  19.534   0.827
68788W        W35197  40.102  13.528  12.973
68789W        W35198  33.543  13.848  14.383
68790W        W35199   3.628  10.196  14.323
68791W        W35200  29.135  10.283   4.051
68792W        W35201  33.343  18.393  14.857
68793W        W35202   6.655  11.661  13.084
68794W        W35203  18.248  42.983   4.824
68795W        W35204  11.360  43.266   0.770
68796W        W35205  27.246  29.304   1.383
68797W        W35206  20.477  22.434   2.383
68798W        W35207  38.005  11.403  12.316
68799W        W35208   4.466  11.977   3.852
68800W        W35209  38.945  44.561  10.536
68801W        W35210   2.353  28.007  10.223
68802W        W35211  31.105   4.061  11.595
68803W        W35212  19.562  15.253  10.412
68804W        W35213  12.895  36.986  12.019
68805W        W35214   2.782  31.302   2.643
68806W        W35215  37.473  39.022   2.332
68807W        W35216   0.519  18.951  11.209
68808W        W35217  16.196  43.038  11.841
68809W        W35218  22.797  28.197  11.026
68810W        W35219  39.482  22.480   1.539
68811W        W35220   8.903  13.525  10.813
68812W        W35221  28.973  18.402   1.768
68813W        W35222  33.936   4.991   3.700
68814W        W35223  31.013  22.685  14.476
68815W        W35224  10.282  28.087  13.528
68816W        W35225  34.522  26.121  13.581
68817W        W35226   6.867  20.377   0.323
68818W        W35227   2.837  44.726  11.601
68819W        W35228  37.500  28.949   4.407
68820W        W35229  18.158  39.602  13.854
68821W        W35230  39.143  39.523   0.698
68822W        W35231   8.231  36.970  11.642
68823W        W35232   7.198  16.485   2.169
68824W        W35233  10.567  19.472   1.780
68825W        W35234  12.305  39.407   1.452
68826W        W35235  20.739  27.983  11.989
68827W        W35236  41.394  29.848   3.575
68828W        W35237  36.035  36.916   0.418
68829W        W35238  43.768   0.304   1.289
68830W        W35239  19.689  25.526  14.304
68831W        W35240  23.090  37.234   2.783
68832W        W35241  15.798   4.513   4.444
68833W        W35242  20.561  22.016  13.662
68834W        W35243  29.008  37.034   0.977
68835W        W35244  40.713  30.616   3.577
68836W        W35245   3.706  38.879  13.129
68837W        W35246  30.372  10.996   4.991
68838W        W35247  18.225  29.490   4.132
68839W        W35248  16.271  27.295   2.135
68840W        W35249   7.236  29.414   3.243
68841W        W35250   3.441  13.806  13.831
68842W        W35251   8.889  29.709   1.686
68843W        W35252  12.692  29.393   2.876
68844W        W35253  26.728  18.728  13.366
68845W        W35254  30.886  15.180   1.250
68846W        W35255  35.037  20.427  11.457
68847W        W35256   4.178  17.410   1.816
68848W        W35257  12.837   8.324  14.035
68849W        W35258  20.300  12.683   2.699
68850W        W35259  21.113  11.303   0.385
68851W        W35260  18.728  26.461   1.310
68852W        W35261   4.889  21.057  11.373
68853W        W35262  34.644  15.074  13.026
68854W        W35263  40.040  27.993   1.411
68855W        W35264  16.838  14.484  11.045
68856W        W35265  34.485  23.989   0.347
68857W        W35266  28.688   5.691   3.190
68858W        W35267   1.318  18.289   0.167
68859W        W35268  44.565   4.422  13.124
68860W        W35269  28.292   2.621  13.373
68861W        W35270  15.874  23.610  10.720
68862W        W35271  16.611   3.513  14.580
68863W        W35272  41.320  40.776   4.142
68864W        W35273  42.769   6.865   3.605
68865W        W35274  31.994  18.854  11.993
68866W        W35275  24.934  39.090  12.649
68867W        W35276  30.006  16.763   3.237
68868W        W35277  36.634  37.441   9.930
68869W        W35278  10.856  22.516  11.377
68870W        W35279  40.302   0.358  11.151
68871W        W35280  29.925  30.924  12.015
68872W        W35281   9.904  27.521  13.039
68873W        W35282   6.953  11.355   1.437
68874W        W35283  34.291  35.258   2.926
68875W        W35284  38.511  34.184  12.021
68876W        W35285   5.438  23.174  12.538
68877W        W35286   2.909  25.573   3.228
68878W        W35287   6.942   9.301  11.072
68879W        W35288  11.678   4.488   0.067
68880W        W35289  44.912  14.734   3.208
68881W        W35290  23.116  18.221   1.284
68882W        W35291  36.133  34.551   3.859
68883W        W35292   1.154  37.500  13.061
68884W        W35293  24.556  43.417  10.704
68885W        W35294  22.487   1.388   0.846
68886W        W35295   8.950  42.543  10.450
68887W        W35296  36.244  12.786  14.804
68888W        W35297  38.055   6.939  11.634
68889W        W35298  40.219   7.282  13.850
68890W        W35299  44.739  35.045   3.399
68891W        W35300  34.871  27.811   4.281
68892W        W35301  41.048   1.447   1.376
68893W        W35302  26.327   7.692   2.395
68894W        W35303  20.274  42.755   1.169
68895W        W35304  36.251   0.583   2.682
68896W        W35305   7.601  14.044   4.014
68897W        W35306  12.169  37.148   4.877
68898W        W35307  22.605  11.631  11.111
68899W        W35308   3.406  37.410  13.587
68900W        W35309  14.720  24.571  12.791
68901W        W35310   4.515  22.517  11.125
68902W        W35311  12.462  38.543   0.370
68903W        W35312   6.783  37.537   0.595
68904W        W35313  13.588  38.774  14.233
68905W        W35314  19.581  32.119   4.158
68906W        W35315  22.617  12.684   4.229
68907W        W35316  16.649  30.179  11.401
68908W        W35317  23.738  18.020   0.892
68909W        W35318  38.852   6.213   1.736
68910W        W35319  32.079  21.763  12.144
68911W        W35320   9.319  38.542  10.854
68912W        W35321  39.670  35.338  11.887
68913W        W35322  41.371  39.969   0.865
68914W        W35323  22.621  29.474   1.743
68915W        W35324   9.649  42.032   4.741
68916W        W35325  32.883  29.421   1.966
68917W        W35326  22.338   7.357  11.260
68918W        W35327   4.652  24.091  11.993
68919W        W35328  21.664  23.179  10.563
68920W        W35329  34.220  12.826  14.050
68921W        W35330  35.036   5.417   0.327
68922W        W35331   8.692  35.832  12.040
68923W        W35332  14.609   3.920  14.682
68924W        W35333   7.960   4.639   3.616
68925W        W35334  27.997  38.022   2.015
68926W        W35335  31.999   2.400  14.247
68927W        W35336  20.303   4.902   2.729
68928W        W35337  42.747  24.342   5.031
68929W        W35338  40.274  36.308  13.592
68930W        W35339  38.561  10.818   1.951
68931W        W35340  23.965  16.247  14.704
68932W        W35341  28.945  17.394  13.319
68933W        W35342  24.200   9.780   1.861
68934W        W35343  28.912  26.096  11.169
68935W        W35344  23.991   2.924  11.897
68936W        W35345  10.506  27.620   3.197
68937W        W35346  10.332  12.033   1.724
68938W        W35347  37.415   2.449   4.090
68939W        W35348  31.423  11.801   3.957
68940W        W35349  35.501   3.995  12.123
68941W        W35350  24.098  31.203  13.493
68942W        W35351  18.157   4.559  12.068
68943W        W35352  15.807  27.023  11.179
68944W        W35353  10.792  28.082  13.737
68945W        W35354  44.238  20.515  10.475
68946W        W35355  28.967  10.193   2.723
68947W        W35356  42.401  41.836   0.824
68948W        W35357  37.339  13.205  10.807
68949W        W35358  26.463   5.874   1.848
68950W        W35359   3.620  29.991   1.746
68951W        W35360  42.041  39.522   3.759
68952W        W35361  18.496   4.021  11.209
68953W        W35362   9.817   1.714  12.563
68954W        W35363  35.463  15.255   4.792
68955W        W35364   3.815  19.999  11.463
68956W        W35365   0.358  34.842   4.607
68957W        W35366  27.431   6.790  10.256
68958W        W35367  11.551   1.319   3.207
68959W        W35368  44.883   6.350  12.661
68960W        W35369  25.918   0.984   3.293
68961W        W35370   9.331   7.800   2.144
68962W        W35371  26.814  42.847   0.368
68963W        W35372   1.538   4.512   3.278
68964W        W35373  16.674  23.967  12.422
68965W        W35374  35.380  31.671   1.477
68966W        W35375  42.568   1.294  14.303
68967W        W35376  35.944  11.340  11.569
68968W        W35377  30.542  12.640  12.068
68969W        W35378  19.646  30.191  11.621
68970W        W35379  27.190   6.582   4.572
68971W        W35380  13.926  40.936   0.256
68972W        W35381  41.153  15.191   2.828
68973W        W35382  24.620  27.462   2.254
68974W        W35383  40.430   8.771   5.166
68975W        W35384   3.746  13.239   2.162
68976W        W35385  32.078  34.851  12.103
68977W        W35386   7.747  22.330  13.464
68978W        W35387  44.880  34.916   2.369
68979W        W35388  43.735   6.691   2.253
68980W        W35389   4.161  16.305  13.586
68981W        W35390  31.775  12.959  14.495
68982W        W35391  20.471  18.925  14.461
68983W        W35392  19.208  17.041   3.648
68984W        W35393  28.642  28.791  12.463
68985W        W35394   7.373  22.302  11.544
68986W        W35395  14.302   8.511  14.417
68987W        W35396  24.605  40.808   3.654
68988W        W35397  28.936  18.857  13.258
68989W        W35398   9.914  16.554  13.318
68990W        W35399  20.545  36.550  12.187
68991W        W35400  27.726  13.896   2.211
68992W        W35401  22.619  13.739   0.378
68993W        W35402  13.030  30.569   3.392
68994W        W35403  36.502  40.731  10.835
68995W        W35404  17.125  10.327  14.393
68996W        W35405  42.320  16.929  12.367
68997W        W35406  10.790  18.250   4.471
68998W        W35407   3.186  39.862  10.521
68999W        W35408  18.330  12.244  13.031
69000W        W35409  12.129  43.760  11.144
69001W        W35410  29.883  33.978  11.943
69002W        W35411  40.247   4.236   1.228
69003W        W35412  40.994  28.244  12.525
69004W        W35413   5.994  23.652  11.998
69005W        W35414  11.158  30.499  13.601
69006W        W35415  17.528  38.487   9.802
69007W        W35416   4.527  19.797   3.186
69008W        W35417  14.119   3.594  10.182
69009W        W35418  17.467  30.459   1.902
69010W        W35419   9.675  15.231  14.992
69011W        W35420  21.189  25.047  14.419
69012W        W35421  44.440  43.739   3.478
69013W        W35422  25.208  37.099   2.218
69014W        W35423  13.784  35.916   4.804
69015W        W35424   9.414  16.673  10.692
69016W        W35425  26.383   6.704  14.788
69017W        W35426   5.666  35.620  11.213
69018W        W35427  21.261  17.506   0.962
69019W        W35428  37.803  29.993  12.910
69020W        W35429  11.265  39.280   1.417
69021W        W35430  17.659  24.020  13.462
69022W        W35431  36.398   9.703   2.444
69023W        W35432  37.149   0.167  12.474
69024W        W35433  18.691  15.834  12.968
69025W        W35434  40.252   3.747  13.839
69026W        W35435  11.891   1.133  12.566
69027W        W35436  22.939  34.238  12.017
69028W        W35437   3.786  34.062  11.921
69029W        W35438  18.638   3.337   0.298
69030W        W35439  17.193   2.317   3.140
69031W        W35440  13.933  34.898   2.206
69032W        W35441  42.252   2.950  14.457
69033W        W35442  15.840   5.811  14.956
69034W        W35443  28.142  41.582   0.785
69035W        W35444   5.465  35.251   2.615
69036W        W35445  20.033  44.861  11.106
69037W        W35446  13.688  21.823   3.715
69038W        W35447  41.855  34.021   0.985
69039W        W35448  42.199   5.793   3.334
69040W        W35449  27.987  41.068  14.716
69041W        W35450  43.279  42.605   4.208
69042W        W35451  32.475  16.578   0.197
69043W        W35452  11.110  10.832  11.066
69044W        W35453  26.622   7.269   4.284
69045W        W35454  14.235  40.209  11.128
69046W        W35455  37.544  28.116   2.543
69047W        W35456  24.183   1.199  13.626
69048W        W35457   4.212  30.064   0.712
69049W        W35458   3.035  21.814   0.751
69050W        W35459  19.583  44.642  11.920
69051W        W35460  19.849  27.697   2.334
69052W        W35461  36.552  13.779  13.757
69053W        W35462  14.137  19.483  14.859
69054W        W35463   2.539  42.721   1.880
69055W        W35464  38.775  12.781   1.395
69056W        W35465  10.875  40.946  11.657
69057W        W35466  15.537  15.337  12.446
69058W        W35467  42.780   2.896  14.882
69059W        W35468  17.981   4.419   3.299
69060W        W35469  23.958  28.994   1.853
69061W        W35470  16.795  11.606  13.409
69062W        W35471  39.909  24.564   0.924
69063W        W35472  15.303  16.071   1.756
69064W        W35473   8.480   0.121   3.846
69065W        W35474  11.756  44.692   9.886
69066W        W35475  16.805  10.910  12.120
69067W        W35476  39.909  43.877   4.665
69068W        W35477   7.608  35.148   4.110
69069W        W35478  36.403   4.258   4.712
69070W        W35479  34.718   3.569   0.339
69071W        W35480  28.065   9.078   2.293
69072W        W35481   9.822  14.751  11.715
69073W        W35482  34.377   1.060  14.760
69074W        W35483  18.206  11.592  14.861
69075W        W35484  11.483  16.619   4.562
69076W        W35485  30.854   5.422   2.345
69077W        W35486  36.868  40.997   3.482
69078W        W35487   4.897  27.211   4.184
69079W        W35488  43.992  19.582   3.484
69080W        W35489  28.753  30.050   4.581
69081W        W35490  10.231  21.700  12.407
69082W        W35491   1.371   9.446  11.946
69083W        W35492  29.382  34.850   3.778
69084W        W35493  11.190  27.343  13.982
69085W        W35494  13.148  30.676  11.992
69086W        W35495  21.663  23.574   2.679
69087W        W35496  43.838   9.199   3.992
69088W        W35497  39.815   8.517   1.031
69089W        W35498   4.958  34.597   3.921
69090W        W35499  25.755  42.108   4.742
69091W        W35500  30.404  43.503   2.369
69092W        W35501  28.758  27.247  12.421
69093W        W35502  16.843  38.563   2.655
69094W        W35503  26.929  17.350   2.285
69095W        W35504  14.112   3.666   2.454
69096W        W35505  10.418  22.542   4.135
69097W        W35506  32.221  13.653   2.325
69098W        W35507  29.906   9.167  12.165
69099W        W35508  28.444  13.751   4.061
69100W        W35509   3.908  43.578  13.587
69101W        W35510   4.471  33.340   2.300
69102W        W35511  39.490  34.565  11.883
69103W        W35512  37.317  13.225  13.423
69104W        W35513  40.420  19.203   3.695
69105W        W35514   1.393  29.196   1.793
69106W        W35515  41.627  26.170   1.335
69107W        W35516  42.793  42.412   3.524
69108W        W35517  39.939   0.172  11.969
69109W        W35518  24.104  23.323  14.996
69110W        W35519  28.160  39.716   3.021
69111W        W35520  37.696  34.492   0.506
69112W        W35521  43.056   2.009  14.656
69113W        W35522  12.215  41.802  11.562
69114W        W35523  14.026  36.293  11.608
69115W        W35524  31.568  40.102   3.273
69116W        W35525  42.871  33.718   1.353
69117W        W35526  23.027  37.129   1.915
69118W        W35527   8.077  32.843   1.637
69119W        W35528  35.151  30.470  13.786
69120W        W35529   9.183  17.262  14.040
69121W        W35530  32.922  43.998   0.823
69122W        W35531  20.932  31.423   3.579
69123W        W35532  26.217  13.636  11.048
69124W        W35533   4.225  25.891   0.640
69125W        W35534  29.626  20.555   0.065
69126W        W35535  20.287  25.012  14.195
69127W        W35536  18.761   3.837   3.283
69128W        W35537  32.969   3.446   1.209
69129W        W35538   4.283  41.064  11.557
69130W        W35539  15.089   0.957  14.356
69131W        W35540  32.475   6.956   4.201
69132W        W35541  11.680  23.320   4.380
69133W        W35542  40.236  13.273  11.211
69134W        W35543  32.644  12.292  14.848
69135W        W35544  40.974   5.306   0.245
69136W        W35545  26.633  21.805   3.783
69137W        W35546  41.836  33.559   0.777
69138W        W35547   5.311  29.119   2.153
69139W        W35548  23.801   3.382  13.866
69140W        W35549   8.842  31.562   0.297
69141W        W35550   7.177  11.795  12.011
69142W        W35551  44.547  44.254  12.480
69143W        W35552  26.707  26.546  13.182
69144W        W35553  35.880  26.535   1.612
69145W        W35554  43.344  38.175   3.876
69146W        W35555  43.756  41.530  11.932
69147W        W35556  18.070   2.191  10.582
69148W        W35557  41.578  25.403  13.480
69149W        W35558  40.051  15.563  11.746
69150W        W35559  30.707   9.471   5.355
69151W        W35560   9.345   0.917   3.258
69152W        W35561  15.623   0.305  13.933
69153W        W35562  36.104  15.373   4.113
69154W        W35563  19.708  22.432   0.260
69155W        W35564  12.880  25.449  11.431
69156W        W35565  16.123  12.224   2.240
69157W        W35566  39.483  29.154   1.814
69158W        W35567  39.935  10.272   2.398
69159W        W35568  19.666  14.137  14.787
69160W        W35569  19.593  14.829   1.944
69161W        W35570  28.527  29.453   3.488
69162W        W35571  39.566  28.134   1.574
69163W        W35572  12.619   4.170   0.905
69164W        W35573  11.800  32.418   2.354
69165W        W35574  24.534  25.605  13.512
69166W        W35575   5.614  13.663   0.442
69167W        W35576  41.464  11.346   4.104
69168W        W35577  16.607  42.498   1.103
69169W        W35578  44.055   5.485   0.848
69170W        W35579   8.708   5.240   1.373
69171W        W35580   5.814  42.245  11.219
69172W        W35581  34.922  41.567  12.051
69173W        W35582  14.986  12.154   1.744
69174W        W35583  20.155   8.350   1.766
69175W        W35584   6.190  31.115  13.898
69176W        W35585  16.597   9.930   3.638
69177W        W35586  37.410  22.809   2.345
69178W        W35587  44.211  42.338  13.850
69179W        W35588  17.327  30.395  13.851
69180W        W35589  33.363  11.464   4.129
69181W        W35590   9.319  30.982   0.256
69182W        W35591  39.393   3.837  14.481
69183W        W35592   8.114  36.932   1.223
69184W        W35593   4.875  41.983  11.084
69185W        W35594  44.773  37.107  12.896
69186W        W35595  24.835  17.183  12.564
69187W        W35596   2.308   7.804   1.621
69188W        W35597  37.253  32.649   2.903
69189W        W35598   8.796  13.872   2.139
69190W        W35599  26.953  39.758  11.574
69191W        W35600  20.769  17.537  12.781
69192W        W35601  29.424  44.578  14.335
69193W        W35602  34.642  16.202   2.661
69194W        W35603   3.842  17.040  10.940
69195W        W35604  15.345   8.397   3.093
69196W        W35605   7.007   9.128   1.740
69197W        W35606  40.488  24.664  11.428
69198W        W35607   0.065  20.783   3.627
69199W        W35608  42.217  25.980  11.558
69200W        W35609  14.168  17.282  11.494
69201W        W35610  43.787  23.930  10.705
69202W        W35611  18.479  20.125  13.280
69203W        W35612  25.188  12.839   2.487
69204W        W35613  22.991  41.110   4.696
69205W        W35614  11.553  31.894  13.416
69206W        W35615  24.121  27.607   2.374
69207W        W35616  14.612  21.060   3.281
69208W        W35617  35.950  31.687   3.560
69209W        W35618  15.124  42.579   2.011
69210W        W35619   8.325   1.738   0.866
69211W        W35620   2.261   1.502   2.437
69212W        W35621  44.157   9.808   2.704
69213W        W35622  14.823   9.704   2.943
69214W        W35623   5.297  19.371  13.008
69215W        W35624  42.277  24.497  13.436
69216W        W35625   2.562  29.632  12.103
69217W        W35626  24.973  25.942   4.042
69218W        W35627  13.435  44.866   3.633
69219W        W35628  34.841  29.553   2.774
69220W        W35629  23.255   9.447   4.483
69221W        W35630  40.216  28.179  14.030
69222W        W35631  15.636  32.497   3.864
69223W        W35632  33.675  12.955  10.899
69224W        W35633   4.700   6.686  11.671
69225W        W35634  30.976   9.429   1.494
69226W        W35635  41.541  39.407   3.809
69227W        W35636  44.394  39.334  11.770
69228W        W35637  14.715  18.669   1.700
69229W        W35638  15.311  29.419   3.749
69230W        W35639  32.239  31.961  11.629
69231W        W35640  30.642   6.157   1.820
69232W        W35641   7.874   2.455  13.506
69233W        W35642  23.481   4.444  10.716
69234W        W35643   5.686  12.862   0.345
69235W        W35644   7.889  36.499  14.490
69236W        W35645   9.653  37.401  13.584
69237W        W35646  29.986  22.623   4.894
69238W        W35647   1.018  25.591   4.347
69239W        W35648  26.267  34.621  11.321
69240W        W35649  37.098  34.790  10.885
69241W        W35650  11.615  10.364   0.922
69242W        W35651  38.802  41.463   1.285
69243W        W35652  31.012  10.839   0.499
69244W        W35653   8.413  22.482   1.162
69245W        W35654   2.952  23.305   2.950
69246W        W35655  23.020  31.911   3.212
69247W        W35656  42.954  39.166   0.381
69248W        W35657  35.670  33.299   0.466
69249W        W35658  14.902   0.453  12.422
69250W        W35659   3.861  40.419   2.261
69251W        W35660  28.815  21.780  13.475
69252W        W35661  31.754  42.456   3.692
69253W        W35662  30.540   4.447  11.009
69254W        W35663   4.591  23.710   4.133
69255W        W35664  39.814  21.093  10.295
69256W        W35665  32.109   1.668   9.509
69257W        W35666   6.860  17.113   0.516
69258W        W35667  29.959  16.981   3.702
69259W        W35668  27.140  11.196  11.834
69260W        W35669  37.095  42.942   3.587
69261W        W35670  40.856  42.272  13.307
69262W        W35671  27.515  37.717  12.049
69263W        W35672  13.073  37.821   3.302
69264W        W35673  23.677  12.771   2.183
69265W        W35674  31.466  37.444   2.977
69266W        W35675  40.741  25.118  11.490
69267W        W35676  23.722  27.052   4.656
69268W        W35677   0.883  40.278   2.282
69269W        W35678  22.653  13.606  12.526
69270W        W35679  17.733  17.399  12.984
69271W        W35680  38.157  22.650  12.002
69272W        W35681  30.574  20.235  12.338
69273W        W35682  31.578  16.274   3.923
69274W        W35683  19.250  21.699   1.221
69275W        W35684  14.849  15.776   0.591
69276W        W35685  36.538  14.121   2.891
69277W        W35686   5.311  34.870  11.684
69278W        W35687  21.818  41.328   0.857
69279W        W35688  41.008  25.317   2.670
69280W        W35689  28.578  29.457  12.971
69281W        W35690   3.642   9.392   1.024
69282W        W35691  24.186  37.053  12.958
69283W        W35692  11.275  23.633   4.560
69284W        W35693  40.743  13.217   1.222
69285W        W35694   3.783  16.742  12.076
69286W        W35695   6.555  10.792  10.754
69287W        W35696  19.802   3.342   9.844
69288W        W35697  32.669  27.955   2.642
69289W        W35698   8.385  25.914  10.662
69290W        W35699  25.421  12.535  11.418
69291W        W35700  37.249  13.076   2.366
69292W        W35701  37.766   3.526   1.366
69293W        W35702  35.698  41.025  12.102
69294W        W35703   6.695  40.805  14.918
69295W        W35704   3.929  18.525   3.105
69296W        W35705  23.957  41.065  11.677
69297W        W35706   0.277  12.228   1.188
69298W        W35707  32.426  15.827  10.939
69299W        W35708   0.235  13.905  12.495
69300W        W35709  43.108  13.788   4.800
69301W        W35710  41.848   6.846   1.766
69302W        W35711  15.013  44.013  11.520
69303W        W35712  41.402  32.612  11.051
69304W        W35713  15.687  12.611   0.779
69305W        W35714  22.753  33.845   0.663
69306W        W35715  28.474   8.624   3.643
69307W        W35716  12.198  30.983   2.057
69308W        W35717  41.476  40.316  12.154
69309W        W35718  33.507   7.219  13.592
69310W        W35719  23.508  37.932  10.745
69311W        W35720  36.487  42.396   4.634
69312W        W35721  30.414   5.215  11.829
69313W        W35722  21.935   0.726   1.885
69314W        W35723  30.165  11.540   4.093
69315W        W35724  43.836  21.727   3.700
69316W        W35725   9.574  21.943  14.048
69317W        W35726  30.991  34.411   2.644
69318W        W35727  25.373  15.549  14.563
69319W        W35728   4.708  39.772   1.722
69320W        W35729   4.909  23.479  11.158
69321W        W35730  32.058  24.214   0.305
69322W        W35731  22.595  22.232   2.932
69323W        W35732  35.559  41.774   4.267
69324W        W35733   3.212   9.896  14.422
69325W        W35734  30.991  22.049  11.629
69326W        W35735  21.730  24.457   4.532
69327W        W35736  26.686  21.525  13.958
69328W        W35737  21.447  38.573   1.366
69329W        W35738   1.458  38.380  12.637
69330W        W35739  25.745  18.291  14.437
69331W        W35740  17.794  25.587  10.639
69332W        W35741   5.513  40.983  13.491
69333W        W35742  35.502   0.309  12.384
69334W        W35743  11.334  28.118   0.210
69335W        W35744  17.143  21.736   3.389
69336W        W35745  32.488  32.168   1.116
69337W        W35746  41.455  44.011  13.079
69338W        W35747  33.255   6.157   1.126
69339W        W35748  11.190  23.473   3.576
69340W        W35749   3.439  44.089   0.102
69341W        W35750  27.026   8.685   0.450
69342W        W35751  37.457  44.905  14.421
69343W        W35752  21.830   5.350   2.284
69344W        W35753  16.172  19.095  12.543
69345W        W35754  39.333  22.711   1.994
69346W        W35755  27.100  24.849   2.141
69347W        W35756  39.397  13.392   1.954
69348W        W35757  14.371  13.095   4.175
69349W        W35758   4.774  16.088   3.763
69350W        W35759  16.808  41.972   0.400
69351W        W35760  15.515   1.233   4.172
69352W        W35761  43.398  38.669  11.953
69353W        W35762  29.458   8.084   0.471
69354W        W35763  21.477  30.506  11.153
69355W        W35764  37.119   3.051  13.086
69356W        W35765   5.463  27.497   2.649
69357W        W35766  11.545  23.088   1.945
69358W        W35767  20.021  26.667  14.066
69359W        W35768  39.822  40.325  13.206
69360W        W35769  21.692  21.181  10.788
69361W        W35770  39.091  23.043  11.996
69362W        W35771   6.739  11.060   1.782
69363W        W35772   9.541  29.691  14.596
69364W        W35773  26.907   9.267   1.221
69365W        W35774  28.022  33.140   1.561
69366W        W35775  32.024  37.239  13.272
69367W        W35776  32.885   0.260  11.985
69368W        W35777  27.483   9.424  12.913
69369W        W35778  18.075   5.806   2.162
69370W        W35779  20.440  43.642   4.581
69371W        W35780   3.425  28.567  14.512
69372W        W35781  28.598  42.086  13.540
69373W        W35782  25.532   1.513  12.525
69374W        W35783   4.918  32.122   2.415
69375W        W35784  26.448  27.094   3.250
69376W        W35785  34.889  41.296  10.651
69377W        W35786   8.599  44.753   0.671
69378W        W35787  16.246   0.291   1.508
69379W        W35788  17.467  15.757   3.106
69380W        W35789  21.194  17.076   3.851
69381W        W35790  17.892  19.653  13.468
69382W        W35791  35.036   3.737  11.353
69383W        W35792   8.715   4.893   0.863
69384W        W35793  19.020  40.379   1.371
69385W        W35794  14.798   5.412   2.434
69386W        W35795  31.181  27.596   4.650
69387W        W35796   8.263  14.123  11.208
69388W        W35797  22.736  21.551   4.117
69389W        W35798   6.610  39.966  12.515
69390W        W35799  36.869  19.145  11.087
69391W        W35800  16.843  17.294   0.716
69392W        W35801  38.517   9.806   1.909
69393W        W35802  17.121  11.241  12.801
69394W        W35803   9.251  41.793  12.124
69395W        W35804  43.362  29.494   1.837
69396W        W35805  36.083  40.829  12.925
69397W        W35806  15.720   5.079  13.832
69398W        W35807   5.357  22.663  13.275
69399W        W35808  42.274  26.695   1.488
69400W        W35809  34.035  31.723   1.560
69401W        W35810  10.209  31.532   4.973
69402W        W35811  25.190   6.139  14.970
69403W        W35812  20.767  39.617  13.003
69404W        W35813  17.326  11.788   4.123
69405W        W35814   9.144   1.937   2.351
69406W        W35815  32.531  30.605   3.207
69407W        W35816  18.477   1.754  14.418
69408W        W35817  27.886  24.715   0.442
69409W        W35818  39.016   4.226   4.458
69410W        W35819   5.443  10.871   0.370
69411W        W35820  11.406  44.148  12.254
69412W        W35821  18.293   4.286   0.343
69413W        W35822   4.366   1.527  14.351
69414W        W35823   5.292  25.025  10.205
69415W        W35824  39.926   5.498  14.828
69416W        W35825  22.587  18.476  11.735
69417W        W35826  13.565  28.590  11.628
69418W        W35827   7.496   4.673  11.148
69419W        W35828   5.660   5.011  12.953
69420W        W35829  20.751  32.493   4.357
69421W        W35830   5.026  38.425  10.723
69422W        W35831  33.495   1.743  14.702
69423W        W35832  19.708   2.867  12.071
69424W        W35833  30.622   5.283  12.331
69425W        W35834  30.170   1.907  14.782
69426W        W35835  38.221  40.922  12.597
69427W        W35836  19.279  19.037   1.495
69428W        W35837  18.674  35.953   0.709
69429W        W35838  41.335  12.678   4.281
69430W        W35839   2.141  27.588   1.123
69431W        W35840  41.782  12.454  10.820
69432W        W35841  10.254  14.749  11.395
69433W        W35842  24.037  19.107  14.477
69434W        W35843   4.950  33.081   4.125
69435W        W35844  22.568  36.538   3.364
69436W        W35845   1.844   7.578  10.637
69437W        W35846  32.352  17.015  10.201
69438W        W35847  36.397   8.948   4.287
69439W        W35848  30.108  11.214   0.447
69440W        W35849   1.407  22.062   0.427
69441W        W35850  24.693  43.849  12.586
69442W        W35851   7.256  15.896  12.465
69443W        W35852   0.316   5.416   2.675
69444W        W35853  27.576   6.912  13.582
69445W        W35854  37.907  18.820  14.247
69446W        W35855  17.298  30.720  10.722
69447W        W35856  40.929  18.241   5.019
69448W        W35857  27.252  38.377   1.819
69449W        W35858  31.830  13.276  13.978
69450W        W35859   3.913   5.738  10.801
69451W        W35860   0.359   6.882  11.576
69452W        W35861  18.747   7.837  13.798
69453W        W35862  25.184  31.762  12.980
69454W        W35863  38.440  18.062  13.887
69455W        W35864  22.646  42.070  10.721
69456W        W35865  35.712   8.358  12.404
69457W        W35866  39.528  43.240  12.949
69458W        W35867   1.014  21.535   2.672
69459W        W35868   6.216  22.124  14.545
69460W        W35869  10.339   3.252  11.024
69461W        W35870  30.172  35.875  13.324
69462W        W35871  31.114  26.996  12.366
69463W        W35872  30.890  22.600   2.000
69464W        W35873  27.966  14.557   4.527
69465W        W35874  43.330  43.572   3.232
69466W        W35875  25.975  30.004  10.649
69467W        W35876  26.736  35.490   1.876
69468W        W35877  15.067  42.031   1.179
69469W        W35878   6.503  21.221  13.414
69470W        W35879   7.257  32.098   4.147
69471W        W35880   3.430  41.488   5.300
69472W        W35881  10.854  40.369  14.823
69473W        W35882   6.753  32.346  13.480
69474W        W35883  43.423  36.597  12.612
69475W        W35884  33.916  34.386   0.369
69476W        W35885  26.105   0.099  13.487
69477W        W35886   4.814  39.063  12.157
69478W        W35887  43.943   5.450  12.739
69479W        W35888  31.657   3.558  12.894
69480W        W35889  35.190  25.943  10.939
69481W        W35890   7.401  16.927  12.603
69482W        W35891   6.830  28.414   3.176
69483W        W35892  44.237  27.500  11.611
69484W        W35893  35.789  25.224  12.623
69485W        W35894   5.768  33.018  10.957
69486W        W35895  33.485  12.317  12.480
69487W        W35896  18.136  29.447   1.867
69488W        W35897  30.528  17.870  11.877
69489W        W35898  24.488  35.491   0.674
69490W        W35899  15.123   1.883  11.027
69491W        W35900  27.437  42.268   2.731
69492W        W35901  27.107  30.604   3.352
69493W        W35902  33.165  28.992   3.832
69494W        W35903  40.045  21.342   4.556
69495W        W35904   5.301  35.707  14.252
69496W        W35905  20.063  11.195  14.892
69497W        W35906   4.447  16.759   0.790
69498W        W35907  37.668  19.554  11.149
69499W        W35908  31.777  34.310  13.061
69500W        W35909   7.295  13.319  13.540
69501W        W35910   2.421  35.100   3.108
69502W        W35911  18.772   9.455   0.056
69503W        W35912   5.710  16.580   1.259
69504W        W35913  39.813  44.243  10.918
69505W        W35914  26.416  31.613   2.824
69506W        W35915  11.725  36.815  10.533
69507W        W35916  10.774  28.456   4.302
69508W        W35917  14.306  28.533   2.922
69509W        W35918  30.177  17.061   0.087
69510W        W35919  23.676  37.357  11.559
69511W        W35920   8.331  11.785  10.438
69512W        W35921  24.957  27.930   3.291
69513W        W35922  20.577  30.102  14.882
69514W        W35923   6.562  44.732   2.803
69515W        W35924  41.952  40.967   1.688
69516W        W35925  43.747  14.194   4.640
69517W        W35926  25.481  26.041   2.317
69518W        W35927  29.222  35.397   0.581
69519W        W35928  35.947   7.406   3.257
69520W        W35929  30.075  42.248   2.073
69521W        W35930   3.385  43.804  12.055
69522W        W35931  15.022  41.238  13.814
69523W        W35932  42.581  32.023  11.846
69524W        W35933  13.307  31.865  11.893
69525W        W35934  13.298  34.573   2.787
69526W        W35935   2.798  35.608  11.881
69527W        W35936  22.468  22.099  12.545
69528W        W35937  26.016   7.391   2.687
69529W        W35938   6.463  22.031   2.181
69530W        W35939  44.890  16.623  12.439
69531W        W35940  30.462  34.871   2.237
69532W        W35941  30.506  12.892   4.374
69533W        W35942   7.641  38.576   0.120
69534W        W35943  29.902  26.679   3.234
69535W        W35944  43.328  33.422  10.262
69536W        W35945  12.814   2.048  12.359
69537W        W35946  11.880   7.269   1.750
69538W        W35947  44.916  40.417   4.116
69539W        W35948  12.096   1.326  11.298
69540W        W35949  20.886  33.358   0.180
69541W        W35950  17.431  40.784  13.993
69542W        W35951  38.016  27.947   2.430
69543W        W35952  31.989  26.987   3.751
69544W        W35953  23.152  11.157  14.831
69545W        W35954  33.365  21.227   3.766
69546W        W35955  33.855  18.173  12.093
69547W        W35956   5.042  25.026   2.859
69548W        W35957  18.589  11.753   1.359
69549W        W35958  41.860  19.159   4.217
69550W        W35959  13.104  16.821   0.844
69551W        W35960   2.716  14.228  10.876
69552W        W35961   7.908  42.077   0.278
69553W        W35962  34.425  35.408   3.388
69554W        W35963   4.841  28.974  13.192
69555W        W35964   0.829   2.990   4.723
69556W        W35965   7.473   7.998   2.358
69557W        W35966   2.738   8.491  13.058
69558W        W35967  42.844   5.208   2.399
69559W        W35968   0.813  29.543   4.405
69560W        W35969  30.068  33.374   4.234
69561W        W35970   2.311  24.847   4.615
69562W        W35971  36.948  16.176   4.555
69563W        W35972  31.892  11.134   3.448
69564W        W35973  38.816  25.576   4.512
69565W        W35974  22.534  39.860  13.814
69566W        W35975   7.873  11.417  12.326
69567W        W35976  42.961  20.551   3.333
69568W        W35977  38.845   1.526  11.726
69569W        W35978  34.886  28.191   2.395
69570W        W35979   4.327   2.577  14.364
69571W        W35980  14.368  12.691  13.795
69572W        W35981  18.160  12.692   3.101
69573W        W35982  40.994  16.551  14.697
69574W        W35983  41.453  32.508  10.392
69575W        W35984   8.765  30.962   4.562
69576W        W35985  37.326  39.424   3.641
69577W        W35986  38.900  36.390  11.019
69578W        W35987  19.537  36.718  11.587
69579W        W35988  43.522   7.267   1.382
69580W        W35989  18.656  40.510   3.734
69581W        W35990  20.248  18.461   3.381
69582W        W35991  23.115   0.799  13.968
69583W        W35992  30.882  18.641  11.415
69584W        W35993  31.407  22.728   1.870
69585W        W35994   4.228   9.779  12.091
69586W        W35995  40.675  29.138   4.508
69587W        W35996   8.162  32.354   4.086
69588W        W35997  13.904  12.643  11.864
69589W        W35998  12.836   3.859   2.665
69590W        W35999  38.450  33.939   1.378
69591W        W36000  27.518  30.342   2.190
69592W        W36001  32.794  38.269   1.538
69593W        W36002   2.749  13.388   1.963
69594W        W36003  24.720   0.823  12.129
69595W        W36004  34.156  18.733  14.789
69596W        W36005  32.728  22.032   1.777
69597W        W36006  10.880  41.049   3.131
69598W        W36007  43.331  34.292   3.410
69599W        W36008  28.756   2.704   0.231
69600W        W36009  40.739  37.329   9.986
69601W        W36010   4.749  42.965  13.698
69602W        W36011  21.252  18.103   1.267
69603W        W36012  40.356  12.869   4.472
69604W        W36013   5.641  43.569   3.604
69605W        W36014  11.588  12.306   2.206
69606W        W36015   3.664   4.724   9.884
69607W        W36016  41.294  31.100  11.487
69608W        W36017   0.721  27.137   0.738
69609W        W36018  16.113  12.651  11.059
69610W        W36019   4.064  11.371   3.154
69611W        W36020  44.416  13.135  14.916
69612W        W36021  36.814   8.134  12.614
69613W        W36022  39.922  10.885  10.675
69614W        W36023   0.982  24.974  12.013
69615W        W36024  33.457  24.659   2.270
69616W        W36025  43.017  26.126  11.767
69617W        W36026  28.482  32.846  12.510
69618W        W36027  15.844  10.304   5.016
69619W        W36028  15.092  34.909  13.872
69620W        W36029  25.686   1.911   9.985
69621W        W36030  42.332  12.716  10.679
69622W        W36031  37.111  28.997   1.292
69623W        W36032   3.016  18.864  12.050
69624W        W36033  37.093  20.730   0.788
69625W        W36034  41.281  41.618  12.185
69626W        W36035  44.091  40.815  13.035
69627W        W36036  23.290  19.755  10.584
69628W        W36037   4.913  37.516   2.692
69629W        W36038  16.623  44.036  14.818
69630W        W36039  19.240  38.324  14.363
69631W        W36040   6.465  18.582   4.119
69632W        W36041  10.078   9.891   1.721
69633W        W36042  19.286   6.663   1.243
69634W        W36043  17.058  37.648   0.809
69635W        W36044  26.959  32.414  10.662
69636W        W36045  38.526  14.695   0.932
69637W        W36046  28.986  30.033  11.542
69638W        W36047   4.350  28.204   1.521
69639W        W36048  16.888  17.053  12.039
69640W        W36049  21.779  36.904  12.119
69641W        W36050   3.163  33.421   2.363
69642W        W36051  19.575  32.116  12.012
69643W        W36052   9.459  28.770   4.165
69644W        W36053   1.848  30.870  12.649
69645W        W36054  33.574  35.078   0.209
69646W        W36055  27.595  20.780   0.871
69647W        W36056  21.964  39.045   1.804
69648W        W36057   7.312   1.511   0.475
69649W        W36058   8.143  20.511   1.501
69650W        W36059  39.343  18.147   1.630
69651W        W36060   9.762  25.360  14.781
69652W        W36061  19.018  38.736   1.851
69653W        W36062  30.958  14.646  11.863
69654W        W36063  14.690   3.414  14.815
69655W        W36064  31.091  27.710   2.822
69656W        W36065  14.358  10.582  11.125
69657W        W36066  31.510  33.762   0.403
69658W        W36067   5.403   2.835  11.859
69659W        W36068  20.518  18.617   1.193
69660W        W36069  18.512  27.468  12.443
69661W        W36070   0.499  16.762   1.288
69662W        W36071   8.394  43.783  12.326
69663W        W36072  28.927  19.646  12.870
69664W        W36073  21.669  40.527   0.721
69665W        W36074   9.268  18.608   2.311
69666W        W36075  41.695  16.835   1.592
69667W        W36076   8.947  32.025   0.032
69668W        W36077  27.786  34.859  14.735
69669W        W36078  28.853  28.629  13.366
69670W        W36079  14.213  18.967  11.219
69671W        W36080  42.259  20.152   0.805
69672W        W36081  24.468  37.052  13.657
69673W        W36082  12.525  21.458   3.689
69674W        W36083  31.645  40.943   1.582
69675W        W36084  21.261  37.045   4.738
69676W        W36085  23.543   5.191  12.132
69677W        W36086  23.085   3.423  11.001
69678W        W36087  22.924  39.823  13.333
69679W        W36088  23.016  39.189   2.330
69680W        W36089  41.704   7.863   2.585
69681W        W36090  16.617  39.951  13.425
69682W        W36091   3.094  39.383   4.094
69683W        W36092  37.804  39.805  10.859
69684W        W36093  23.935  18.343   3.619
69685W        W36094  19.047  23.856   3.496
69686W        W36095  20.501  24.905   2.410
69687W        W36096  36.286   5.439   4.498
69688W        W36097  11.648  12.455   3.599
69689W        W36098  14.776  30.493   0.838
69690W        W36099  37.400  31.892  13.617
69691W        W36100  13.348  32.201   1.903
69692W        W36101  14.650   9.604  12.999
69693W        W36102  44.956  26.986   3.150
69694W        W36103  24.120  12.055  12.067
69695W        W36104   7.391  27.486  13.318
69696W        W36105  12.718  33.934  14.448
69697W        W36106  11.329  21.845  11.358
69698W        W36107  26.040  18.742  14.862
69699W        W36108  19.933  28.885   3.091
69700W        W36109  17.778  21.697  13.957
69701W        W36110  21.996  23.686  13.326
69702W        W36111  37.702  36.107  13.070
69703W        W36112  32.447  37.298   2.000
69704W        W36113  26.471  39.988   4.888
69705W        W36114  33.115   7.509   2.315
69706W        W36115   2.661  25.693   4.737
69707W        W36116  43.937  22.597   0.794
69708W        W36117  10.387  17.014  14.855
69709W        W36118  39.967  23.144   4.652
69710W        W36119   2.814  32.181  14.965
69711W        W36120   8.069  20.693   3.708
69712W        W36121  34.523  11.128  10.325
69713W        W36122  19.554  41.364  14.723
69714W        W36123  24.101  14.898  10.664
69715W        W36124  37.332  31.313   3.141
69716W        W36125   5.305  11.578   3.344
69717W        W36126  18.699  24.014  12.603
69718W        W36127  37.342   0.225  13.438
69719W        W36128  35.964  29.555   0.391
69720W        W36129  33.492  20.488  12.494
69721W        W36130  24.715   3.736  12.929
69722W        W36131  44.185  28.769  14.691
69723W        W36132   2.928  11.258   4.751
69724W        W36133  26.129  25.830  11.555
69725W        W36134   4.142   5.273  14.989
69726W        W36135  23.291  11.841  12.017
69727W        W36136   2.660   0.814  14.828
69728W        W36137  23.726  26.953   0.773
69729W        W36138  10.772  31.011   0.744
69730W        W36139  26.798  31.125   4.198
69731W        W36140  11.238  44.997  14.643
69732W        W36141  31.661  30.576  13.608
69733W        W36142   1.603  27.999  11.167
69734W        W36143  11.045  29.780   4.729
69735W        W36144   4.288  42.820  10.502
69736W        W36145   1.906  28.072  10.480
69737W        W36146  19.049  10.384   2.326
69738W        W36147   9.906  24.261   1.751
69739W        W36148  18.035  44.234   3.717
69740W        W36149  36.201  18.107   2.493
69741W        W36150  30.462   7.272   2.357
69742W        W36151  36.962  40.104  13.787
69743W        W36152   0.189  32.005  13.337
69744W        W36153  20.752  23.737  10.572
69745W        W36154   3.264   5.811  11.472
69746W        W36155  29.874  36.655   1.291
69747W        W36156  25.511  17.560  14.376
69748W        W36157  40.077  11.428   2.483
69749W        W36158   2.625  31.422   3.864
69750W        W36159  44.046   5.648  13.255
69751W        W36160  33.279  10.695  11.040
69752W        W36161  36.517   7.165   4.753
69753W        W36162  20.645  16.339   2.782
69754W        W36163  36.483  40.197  10.864
69755W        W36164  14.403  19.583  14.405
69756W        W36165  40.634  41.890   2.416
69757W        W36166  20.528  28.836  13.484
69758W        W36167  44.992  22.212  12.602
69759W        W36168  26.015   9.403  11.682
69760W        W36169  13.257   8.546   1.862
69761W        W36170  10.066  40.519  14.274
69762W        W36171  30.713  30.484  12.043
69763W        W36172  36.565  15.027   2.440
69764W        W36173   5.258  22.788   3.252
69765W        W36174  10.806  38.297   1.496
69766W        W36175   5.290  13.873  13.146
69767W        W36176  25.066  43.238  11.723
69768W        W36177   2.541  18.586  10.751
69769W        W36178  36.816  20.955   2.304
69770W        W36179  23.708  19.357  11.123
69771W        W36180  24.116  32.643  14.657
69772W        W36181  29.019  24.675   2.757
69773W        W36182   1.389  38.138   3.060
69774W        W36183  19.505  40.951  14.352
69775W        W36184  41.219  20.135   0.970
69776W        W36185   1.384  43.010   3.712
69777W        W36186  38.066   9.670   3.747
69778W        W36187  21.168  33.452   1.234
69779W        W36188  41.806  36.935  13.009
69780W        W36189  44.793  37.094   0.174
69781W        W36190  43.961   0.184   2.957
69782W        W36191  18.019   8.430   2.851
69783W        W36192  34.966  39.191  13.035
69784W        W36193   9.866  30.633   5.148
69785W        W36194  28.667  16.859  12.481
69786W        W36195  11.907   7.787  12.608
69787W        W36196  14.604  28.514  11.597
69788W        W36197  39.369  20.533  10.647
69789W        W36198  32.815  34.633  12.405
69790W        W36199  31.539  16.039   4.692
69791W        W36200  41.903  41.506  14.930
69792W        W36201  18.536   8.868  10.267
69793W        W36202  20.052  31.033   0.754
69794W        W36203  39.385   4.633  11.978
69795W        W36204   3.248  33.013   2.792
69796W        W36205  12.299   5.883  12.954
69797W        W36206  35.535  39.839  14.105
69798W        W36207   0.024   7.849  12.106
69799W        W36208  16.634   4.304  13.188
69800W        W36209   1.957  44.697   2.360
69801W        W36210   0.943  10.331  10.326
69802W        W36211  10.182  40.011  10.614
69803W        W36212   0.163  35.352   4.684
69804W        W36213  34.383  38.907   3.670
69805W        W36214   9.388  16.330   3.440
69806W        W36215   5.369  16.284   4.523
69807W        W36216   7.845  28.195  14.841
69808W        W36217  25.732  24.591  13.122
69809W        W36218  37.338  34.691   4.421
69810W        W36219  11.092  18.575  13.624
69811W        W36220  11.379  33.603  11.500
69812W        W36221  24.258  44.224   2.181
69813W        W36222  40.505   8.430   2.995
69814W        W36223  24.445  38.796   3.514
69815W        W36224  38.923  33.412  13.476
69816W        W36225   9.899  28.235   1.878
69817W        W36226   6.435   6.821  12.308
69818W        W36227  43.029  40.070   1.393
69819W        W36228   9.266  28.522  14.262
69820W        W36229  13.046  22.370  13.452
69821W        W36230  25.163  21.504  10.119
69822W        W36231  36.429   9.275  13.913
69823W        W36232   3.791  13.304  11.661
69824W        W36233  37.325   3.536  13.561
69825W        W36234  32.526  26.071   1.264
69826W        W36235  15.863  31.921  11.464
69827W        W36236   5.374  33.843   1.360
69828W        W36237  12.620  43.748   5.199
69829W        W36238  25.674  42.552   4.056
69830W        W36239   5.766  11.657  13.088
69831W        W36240  35.389  30.927   2.646
69832W        W36241  17.769  38.299  10.240
69833W        W36242   5.429  12.754  14.873
69834W        W36243  31.880  30.737  11.186
69835W        W36244  10.640  11.198   4.474
69836W        W36245  36.666  20.345  11.599
69837W        W36246  44.289  41.458  14.838
69838W        W36247  37.776   8.890  11.542
69839W        W36248  36.137  34.899   3.283
69840W        W36249  29.989  38.694   1.162
69841W        W36250  20.716   3.297  13.154
69842W        W36251   6.903  18.233  10.600
69843W        W36252  17.366  14.714   3.258
69844W        W36253  23.939  33.239  10.171
69845W        W36254  10.910   2.329   3.614
69846W        W36255  29.476   9.755   2.253
69847W        W36256  20.791  37.813  13.992
69848W        W36257  34.112  26.545  12.394
69849W        W36258   5.824  26.400  10.865
69850W        W36259  22.681  14.309  13.736
69851W        W36260  19.275  43.999   4.792
69852W        W36261  14.182  15.677  11.655
69853W        W36262  12.701  34.396  12.430
69854W        W36263   5.262  31.466   1.910
69855W        W36264  22.719  26.608  13.004
69856W        W36265  15.755  38.782   0.904
69857W        W36266  14.870  36.478  14.791
69858W        W36267  41.330  14.820  12.548
69859W        W36268  44.780  27.881   1.858
69860W        W36269  20.772  19.990   3.406
69861W        W36270  25.019   6.321  12.062
69862W        W36271  26.746   7.212   0.414
69863W        W36272  26.970  37.966   5.000
69864W        W36273  22.160  10.279  13.888
69865W        W36274  11.135  20.219   1.218
69866W        W36275  28.350  41.533   3.600
69867W        W36276  25.074  43.481   0.889
69868W        W36277  32.752  21.555  12.001
69869W        W36278  17.218  19.559   2.385
69870W        W36279   1.851  34.214  11.294
69871W        W36280  19.651  40.403   4.573
69872W        W36281   4.189  42.954   3.634
69873W        W36282  27.428  26.431  10.873
69874W        W36283  15.208  13.628   1.915
69875W        W36284  43.218  33.854   3.166
69876W        W36285   5.272  29.645  11.258
69877W        W36286  15.675  23.487   2.174
69878W        W36287  21.766  23.264  13.860
69879W        W36288  31.812   3.192  12.558
69880W        W36289   2.931  35.669  11.051
69881W        W36290  42.986  34.944   1.695
69882W        W36291  10.044  22.685  14.406
69883W        W36292  15.544  26.922  13.922
69884W        W36293  42.595   9.811   1.866
69885W        W36294  10.267  39.128   1.262
69886W        W36295  39.439  32.381  11.560
69887W        W36296   0.934  23.761   2.310
69888W        W36297   0.250  39.027   3.262
69889W        W36298  39.854  19.702   0.363
69890W        W36299   6.079  37.305  10.011
69891W        W36300  38.600  24.324  13.360
69892W        W36301  32.031  37.484   1.755
69893W        W36302  14.196   0.268  13.804
69894W        W36303  37.446  39.403  10.719
69895W        W36304  20.657  41.821   4.563
69896W        W36305  22.236  19.758  13.450
69897W        W36306  14.905  27.030   0.194
69898W        W36307  40.485  44.270   0.390
69899W        W36308   4.150  36.375   0.116
69900W        W36309   8.164  36.666  10.501
69901W        W36310  44.009  21.067  11.160
69902W        W36311  24.945  43.794  11.600
69903W        W36312  10.791  11.311   1.927
69904W        W36313  43.420  34.055   2.686
69905W        W36314  36.351  39.991  13.401
69906W        W36315  19.049   4.686  12.457
69907W        W36316  10.637   3.196   3.802
69908W        W36317   3.079  44.818   4.373
69909W        W36318  19.514   0.409   2.723
69910W        W36319  43.722   9.458  12.530
69911W        W36320  16.869  13.633  13.055
69912W        W36321  39.784  19.575   1.716
69913W        W36322  24.065  11.720   2.637
69914W        W36323   7.175  43.382  12.392
69915W        W36324  44.369  31.714  11.532
69916W        W36325  43.278  11.234  13.005
69917W        W36326   6.336  26.023  13.048
69918W        W36327  25.562  31.199   4.292
69919W        W36328  15.856  36.340   0.044
69920W        W36329  39.327  16.877   4.107
69921W        W36330   7.407  17.656  13.956
69922W        W36331  11.859  25.609  13.108
69923W        W36332  41.930  16.201   0.926
69924W        W36333  20.535  38.455  12.036
69925W        W36334  42.522  16.444   4.847
69926W        W36335  15.537  39.117   1.222
69927W        W36336   0.250  36.928  14.996
69928W        W36337  43.072  25.140  12.489
69929W        W36338  26.791  28.434  11.216
69930W        W36339  32.977  35.853  14.920
69931W        W36340  21.374  16.216  12.935
69932W        W36341   3.194  12.305  13.098
69933W        W36342   3.858  14.677  14.512
69934W        W36343  25.727  43.165   0.059
69935W        W36344  34.426  30.460   4.791
69936W        W36345  39.770  38.613  13.121
69937W        W36346  26.045   4.717   0.859
69938W        W36347  26.118  37.492   1.851
69939W        W36348  12.365  26.967   2.764
69940W        W36349  15.052  41.894  13.452
69941W        W36350   4.161  23.484  12.515
69942W        W36351  24.947   2.800  12.961
69943W        W36352  37.451  21.927   4.601
69944W        W36353  38.781  15.219  10.612
69945W        W36354  32.066  27.507   4.468
69946W        W36355  25.566  37.987   4.685
69947W        W36356  11.895   1.588  14.753
69948W        W36357   2.775  42.051  12.097
69949W        W36358  32.419  22.541   3.361
69950W        W36359  38.065  13.486   3.762
69951W        W36360  42.199  39.974   0.450
69952W        W36361   7.984  10.721  14.588
69953W        W36362  15.152  27.905   4.299
69954W        W36363  39.616  32.378  12.043
69955W        W36364  36.350  11.656  11.606
69956W        W36365  10.410  31.579  13.601
69957W        W36366  23.493  32.137   4.118
69958W        W36367  18.870  20.566  12.515
69959W        W36368  38.500  12.808   4.755
69960W        W36369  36.605  27.915  11.651
69961W        W36370  22.701   9.738  10.288
69962W        W36371  11.953  12.599  14.855
69963W        W36372  26.260  35.257   5.130
69964W        W36373  15.407  35.249   2.931
69965W        W36374   1.295  18.562   3.928
69966W        W36375  18.886  43.429  13.736
69967W        W36376   8.501  34.313   0.933
69968W        W36377  21.726  19.759   2.741
69969W        W36378   6.299  21.030   1.734
69970W        W36379  19.561   9.095  11.224
69971W        W36380   8.683  34.852   2.498
69972W        W36381  10.911  32.871   2.553
69973W        W36382  31.391  11.440  11.487
69974W        W36383  10.277  39.296   3.218
69975W        W36384   0.501  30.989  13.034
69976W        W36385  40.936  25.016  11.932
69977W        W36386  19.303   7.315  13.255
69978W        W36387   5.690  22.672   0.761
69979W        W36388   5.511  38.571  13.850
69980W        W36389  30.969  15.976   2.898
69981W        W36390   2.718  13.720  10.643
69982W        W36391  16.610   8.207  10.629
69983W        W36392  43.118   1.797  11.492
69984W        W36393  18.825  29.527   0.289
69985W        W36394  38.958  14.845  12.000
69986W        W36395   0.730  32.799  11.598
69987W        W36396  20.070  32.908  13.042
69988W        W36397  31.398  21.010  12.079
69989W        W36398  26.389  28.393   4.476
69990W        W36399  27.077  29.505   4.537
69991W        W36400  10.194   2.326   0.526
69992W        W36401  37.812   9.551   2.793
69993W        W36402  18.216  43.333  14.572
69994W        W36403  36.575   9.579  11.674
69995W        W36404  25.984  30.884  11.626
69996W        W36405   4.861  37.402   3.626
69997W        W36406  17.627   4.390   0.923
69998W        W36407  15.478   0.845   2.319
69999W        W36408  36.439   4.197  13.053
70000W        W36409  36.814  19.746   2.705
70001W        W36410   7.292  26.036  13.622
70002W        W36411   5.671  33.378   2.722
70003W        W36412  23.084  15.138  14.343
70004W        W36413   4.944  38.999   5.051
70005W        W36414   3.152  30.586   2.276
70006W        W36415  15.301  27.650  10.691
70007W        W36416  44.992  41.298  13.525
70008W        W36417  28.982   6.105   0.832
70009W        W36418  43.014  36.833  11.649
70010W        W36419  35.118  27.569   1.263
70011W        W36420   2.345  40.023  14.753
70012W        W36421  26.110   8.138  13.522
70013W        W36422  31.167  35.866   1.367
70014W        W36423  29.517  18.284   3.850
70015W        W36424  18.825  34.737   4.108
70016W        W36425  35.145  19.545   3.666
70017W        W36426  16.830  38.912  10.968
70018W        W36427  14.120  36.031  12.059
70019W        W36428  11.221  42.107  12.366
70020W        W36429  33.870   2.591  12.995
70021W        W36430  12.121  29.327   1.300
70022W        W36431  23.142  41.968  12.394
70023W        W36432  26.024  14.290   1.828
70024W        W36433  34.602  37.520   4.956
70025W        W36434   2.810  38.478   4.693
70026W        W36435  39.919  37.074  11.695
70027W        W36436  19.301   0.115   3.699
70028W        W36437  39.853   2.769   4.486
70029W        W36438  25.939   1.791   2.700
70030W        W36439  33.227  29.043   2.231
70031W        W36440  17.282  15.056  10.721
70032W        W36441  23.476  30.745   1.657
70033W        W36442  22.773   6.695   3.311
70034W        W36443  30.193  29.205   1.244
70035W        W36444  35.941  21.025  12.555
70036W        W36445  41.416  38.586  12.547
70037W        W36446  14.749  42.284   1.873
70038W        W36447  22.094  33.510   4.508
70039W        W36448  21.054  25.945  10.644
70040W        W36449  37.823   6.766  12.052
70041W        W36450  19.192  36.800   4.470
70042W        W36451  32.870  21.127  14.944
70043W        W36452  34.390  43.505   3.809
70044W        W36453   3.871  24.150   0.021
70045W        W36454  39.427  14.895   2.183
70046W        W36455  21.971  39.454  10.628
70047W        W36456  37.436  20.582  10.565
70048W        W36457   9.553  32.909   3.709
70049W        W36458  15.141  22.590   0.985
70050W        W36459   3.555  10.742  13.427
70051W        W36460  15.063  26.077  12.767
70052W        W36461   3.203   3.013  11.419
70053W        W36462  15.549  20.331   3.635
70054W        W36463  15.516   6.352  14.995
70055W        W36464  27.164   6.751   3.072
70056W        W36465  38.734   3.083   0.438
70057W        W36466  16.533  26.935   1.355
70058W        W36467  32.373   1.266   2.518
70059W        W36468  37.928  15.983   1.044
70060W        W36469   7.137  19.805   4.260
70061W        W36470  23.336  22.463   3.153
70062W        W36471   2.325  13.778   3.630
70063W        W36472  39.525  36.223  12.028
70064W        W36473  15.272   6.621   1.346
70065W        W36474  40.352   5.679  13.190
70066W        W36475  25.361   4.355   1.546
70067W        W36476   5.402  17.857  12.276
70068W        W36477  34.883   6.397  11.998
70069W        W36478   9.449  22.559  11.693
70070W        W36479  31.401  11.039  12.377
70071W        W36480  29.050  27.618   3.611
70072W        W36481  21.738   9.154   0.788
70073W        W36482  28.494  33.483  13.158
70074W        W36483  43.421  36.026  14.987
70075W        W36484  12.729   8.959   1.964
70076W        W36485  16.134  32.214   3.209
70077W        W36486  28.947  44.794  14.243
70078W        W36487   1.912  24.206  10.678
70079W        W36488  13.139  20.148   1.239
70080W        W36489  24.923   1.760  10.723
70081W        W36490  38.076  42.897  13.320
70082W        W36491   0.925  37.096   1.248
70083W        W36492  31.592  31.660   0.919
70084W        W36493  11.187   8.259  10.630
70085W        W36494  18.490   0.425   2.947
70086W        W36495   3.626   0.968  11.334
70087W        W36496   0.259  29.238  13.914
70088W        W36497  23.631  36.695   1.382
70089W        W36498   2.026  27.561   3.832
70090W        W36499  43.002  41.496   4.398
70091W        W36500  31.517  29.182  10.806
70092W        W36501  24.769  32.411   3.116
70093W        W36502  30.556  35.890   5.048
70094W        W36503  24.150  40.366   0.270
70095W        W36504  28.417  21.276  10.667
70096W        W36505  21.510  40.932  14.544
70097W        W36506  28.439  11.884  11.047
70098W        W36507   5.394  28.600  12.563
70099W        W36508   3.432  11.240  11.652
70100W        W36509   5.698  43.073  11.618
70101W        W36510  38.835  26.986   4.134
70102W        W36511  26.224  26.396  13.334
70103W        W36512   6.762   0.242   0.549
70104W        W36513  11.278  10.811   0.024
70105W        W36514  24.110  43.408  14.958
70106W        W36515  39.085  35.839   2.375
70107W        W36516   2.240  39.939  12.094
70108W        W36517  20.262   4.703   3.655
70109W        W36518  43.231  44.866  11.604
70110W        W36519  24.674  20.906  12.187
70111W        W36520   2.639  22.588  12.530
70112W        W36521  43.827   0.601   2.662
70113W        W36522  20.151  14.882   4.238
70114W        W36523  23.475  17.499  13.496
70115W        W36524  23.692  20.071  11.627
70116W        W36525   0.865  36.452   0.515
70117W        W36526   9.820   7.912   1.402
70118W        W36527  16.909  12.791  12.076
70119W        W36528  39.952  28.919   1.794
70120W        W36529  15.746   6.712   3.477
70121W        W36530   3.388  20.525   0.290
70122W        W36531  39.949   2.105  13.945
70123W        W36532  42.304  21.445  14.901
70124W        W36533  11.668  12.455   0.289
70125W        W36534  44.776  26.130  10.411
70126W        W36535  41.515   4.936   0.443
70127W        W36536   1.784  21.808  14.524
70128W        W36537  23.119   1.766  10.369
70129W        W36538   4.950   2.800   2.807
70130W        W36539  17.639  38.637  11.571
70131W        W36540  33.191  17.718   2.314
70132W        W36541   9.204  29.991  11.709
70133W        W36542   3.323  34.838  12.008
70134W        W36543  10.954  15.019  12.990
70135W        W36544  16.420  39.241  10.794
70136W        W36545   1.828  41.598  13.675
70137W        W36546  39.132  29.314   0.546
70138W        W36547  43.305  29.154   1.326
70139W        W36548  13.109  33.695  12.342
70140W        W36549  44.492  24.039   3.706
70141W        W36550  40.372  14.687  12.446
70142W        W36551   9.317  43.165  11.194
70143W        W36552  18.799  10.483  13.690
70144W        W36553  41.154  17.048   2.779
70145W        W36554  28.407  35.614  12.043
70146W        W36555  15.095  15.045  12.394
70147W        W36556  20.548  39.489  11.141
70148W        W36557  19.377   4.990   3.782
70149W        W36558  25.464  23.148   0.322
70150W        W36559  25.969  28.640   3.729
70151W        W36560  20.553  18.842  10.535
70152W        W36561  26.300  29.584   2.162
70153W        W36562   8.670  21.148   0.300
70154W        W36563  34.001   3.716   3.735
70155W        W36564  26.121  15.449  12.394
70156W        W36565  18.045  44.782  14.195
70157W        W36566  37.574  31.230   2.693
70158W        W36567  18.094  39.958  11.519
70159W        W36568  13.668   5.775  10.689
70160W        W36569  37.916  22.958  13.787
70161W        W36570  15.357  34.102   0.265
70162W        W36571  28.778  31.503   4.604
70163W        W36572  27.038  35.910  12.988
70164W        W36573  22.238   6.327   2.567
70165W        W36574  42.422   0.499  11.402
70166W        W36575  14.208  39.301   1.257
70167W        W36576  40.996   5.803  10.654
70168W        W36577  13.728  30.098   4.458
70169W        W36578  22.246  29.720   0.388
70170W        W36579   9.331  31.490   1.729
70171W        W36580  15.134  40.835   0.041
70172W        W36581  30.560  36.514  10.842
70173W        W36582   4.852  31.672  11.534
70174W        W36583  41.231  27.272  11.850
70175W        W36584   4.535  37.992  14.014
70176W        W36585   4.404  20.283   3.346
70177W        W36586  17.798  31.938  14.799
70178W        W36587  26.816  37.771   0.482
70179W        W36588  20.738  38.117  13.541
70180W        W36589   7.811  20.760   2.315
70181W        W36590  32.137  18.542   4.178
70182W        W36591  16.880   0.760  10.644
70183W        W36592  29.389  41.086  10.409
70184W        W36593  16.612  44.741   2.811
70185W        W36594  14.640  13.735   2.621
70186W        W36595   4.794  32.442  12.675
70187W        W36596  20.043  31.448  11.749
70188W        W36597   5.302   7.951  14.414
70189W        W36598  14.104  36.347   0.245
70190W        W36599   7.818  27.107  12.079
70191W        W36600  22.803  37.501   5.068
70192W        W36601   6.448   3.219  12.300
70193W        W36602  17.633   8.104   4.214
70194W        W36603  19.722  40.648   0.863
70195W        W36604   4.163  12.133  13.518
70196W        W36605  41.142  39.112   1.652
70197W        W36606  33.939  15.515  12.921
70198W        W36607  29.379  32.568  14.077
70199W        W36608  10.750   1.281   1.301
70200W        W36609   0.259  18.741  14.395
70201W        W36610   8.310   2.000  10.741
70202W        W36611  22.492  43.335   2.242
70203W        W36612  17.139  14.563   4.570
70204W        W36613  41.277  16.036   0.326
70205W        W36614  26.971  33.482   0.949
70206W        W36615  43.536  39.184  11.945
70207W        W36616  29.496  12.317   4.726
70208W        W36617   5.265   0.766   1.243
70209W        W36618  44.676  43.776  11.990
70210W        W36619  44.448  21.178   4.792
70211W        W36620  40.603   5.844   2.126
70212W        W36621  12.768  11.687  12.461
70213W        W36622  17.772  20.842  11.244
70214W        W36623  41.579  23.144  11.252
70215W        W36624  15.805   4.109   1.407
70216W        W36625  26.491  26.973  14.070
70217W        W36626  40.464  32.309   3.989
70218W        W36627  41.011  17.584   2.143
70219W        W36628  30.073   7.901  13.112
70220W        W36629   3.193   8.476  11.785
70221W        W36630  36.914  33.328  12.544
70222W        W36631  17.279  15.554   2.620
70223W        W36632  28.209  32.938   4.568
70224W        W36633  10.408  12.032  11.150
70225W        W36634  42.371  35.130   2.288
70226W        W36635  35.381  40.431   2.429
70227W        W36636   9.431  31.994   1.866
70228W        W36637   4.486  33.413   3.077
70229W        W36638  16.930  41.694   2.213
70230W        W36639  27.667  33.989   4.807
70231W        W36640  37.800  26.107   3.829
70232W        W36641  22.646  11.373  12.431
70233W        W36642   4.270  34.947  12.446
70234W        W36643  42.831  25.172   0.767
70235W        W36644  23.589  16.216  13.377
70236W        W36645  34.897  35.554   4.286
70237W        W36646  16.596  32.647   1.453
70238W        W36647  42.077   9.878   1.872
70239W        W36648   4.898  44.712  12.380
70240W        W36649  19.791  26.609   1.928
70241W        W36650  37.489  37.799  13.472
70242W        W36651  41.659  22.608   1.983
70243W        W36652  15.491  38.608   1.323
70244W        W36653  29.125   0.337  13.676
70245W        W36654  42.477  36.084  11.704
70246W        W36655  20.216  28.087   2.676
70247W        W36656  20.465  11.929  11.034
70248W        W36657  30.875   5.741  12.193
70249W        W36658  25.142  29.593  14.440
70250W        W36659   7.069  29.489  10.446
70251W        W36660  20.326   8.254   3.662
70252W        W36661  29.997  20.108  12.193
70253W        W36662  33.392   1.285  14.980
70254W        W36663  25.965  41.484  13.236
70255W        W36664   5.010  31.700   3.657
70256W        W36665  16.264  25.102  13.451
70257W        W36666  32.026  24.207   2.632
70258W        W36667  22.569  37.563  13.046
70259W        W36668  11.757  37.168   0.888
70260W        W36669   9.259  24.106   3.821
70261W        W36670   3.770  12.778   0.080
70262W        W36671   1.807   5.509  13.483
70263W        W36672   6.183   2.291   2.897
70264W        W36673   4.684  16.257  13.354
70265W        W36674  17.768  21.674   2.371
70266W        W36675  18.804   3.425  13.543
70267W        W36676  29.071  29.599  11.822
70268W        W36677  42.127  29.636  11.212
70269W        W36678   8.683  35.411   1.211
70270W        W36679  31.080   8.375  13.617
70271W        W36680  27.470  19.552   4.590
70272W        W36681  25.786  16.756  12.940
70273W        W36682   3.337  35.187   4.253
70274W        W36683  11.727  19.405   0.837
70275W        W36684  40.950  24.721  13.556
70276W        W36685   9.676   3.287   4.769
70277W        W36686  41.910  36.068  10.668
70278W        W36687  43.474   7.187   2.339
70279W        W36688  19.175  17.169  14.411
70280W        W36689  20.738  29.974   1.818
70281W        W36690  18.032  44.014   1.361
70282W        W36691   0.463   4.403   3.889
70283W        W36692  32.149  13.647   3.324
70284W        W36693  39.580  12.014  13.853
70285W        W36694  29.023  25.631  14.354
70286W        W36695  30.452  37.291   0.319
70287W        W36696  30.673  36.012   1.285
70288W        W36697   7.143   1.909   4.108
70289W        W36698  40.434  29.110   1.773
70290W        W36699  32.028  21.280   4.728
70291W        W36700  16.130  22.726  12.092
70292W        W36701  23.900   5.313   1.290
70293W        W36702  10.861  26.531   4.576
70294W        W36703  15.012  30.666  14.013
70295W        W36704   4.690  25.448   0.492
70296W        W36705  30.450  17.161   1.193
70297W        W36706  25.712  39.279  14.860
70298W        W36707  43.456  19.130   0.405
70299W        W36708   8.387  32.625   3.699
70300W        W36709  10.720  33.391   0.409
70301W        W36710  31.977  15.135  13.588
70302W        W36711   4.516  25.247  11.577
70303W        W36712  23.226  27.118   4.717
70304W        W36713  29.566  28.405   2.116
70305W        W36714  19.983  10.389   0.285
70306W        W36715  28.950   0.804   1.607
70307W        W36716  42.925  36.619   0.392
70308W        W36717  31.998  37.010   2.475
70309W        W36718  11.747  43.805   4.141
70310W        W36719  21.032  24.594  14.837
70311W        W36720  44.767  15.548   2.610
70312W        W36721  23.043  20.458  13.039
70313W        W36722   2.826   6.247   3.269
70314W        W36723   9.617  42.431   3.805
70315W        W36724  27.022  38.082  14.376
70316W        W36725  35.102  41.025  12.883
70317W        W36726  34.487  20.059  14.916
70318W        W36727   9.373  28.185  14.963
70319W        W36728   7.817   7.262  12.081
70320W        W36729  40.533  10.253  14.256
70321W        W36730  40.081  43.801  14.677
70322W        W36731  44.957   1.072   0.408
70323W        W36732  43.267  13.213  14.090
70324W        W36733  31.959  27.581   3.207
70325W        W36734  10.876  27.549   0.729
70326W        W36735   9.324   1.391   3.527
70327W        W36736  25.061  28.274   2.326
70328W        W36737  35.896   2.872  14.996
70329W        W36738  33.285   1.748  14.243
70330W        W36739  12.197  13.124  11.107
70331W        W36740  12.154  39.086  10.941
70332W        W36741  32.962  30.916   3.196
70333W        W36742   1.704  22.225   3.088
70334W        W36743  35.933  24.602   1.658
70335W        W36744  41.470  41.961  11.245
70336W        W36745  28.362   2.307  12.377
70337W        W36746  39.551  35.418  10.582
70338W        W36747  30.561  25.619  12.633
70339W        W36748  33.170  18.705   4.214
70340W        W36749   3.824   6.201  12.068
70341W        W36750   8.902  22.706   4.135
70342W        W36751  31.998  25.998   2.296
70343W        W36752  42.779   2.712   3.148
70344W        W36753  36.499  13.768   3.629
70345W        W36754  36.943  26.507   1.412
70346W        W36755  17.760  43.236  11.975
70347W        W36756  43.419   4.815  14.223
70348W        W36757  40.418  44.727  11.215
70349W        W36758   5.903  29.479  12.955
70350W        W36759  21.830  14.448  12.614
70351W        W36760  29.672  24.185  13.959
70352W        W36761  38.632   0.355  12.525
70353W        W36762   0.532  30.125  13.073
70354W        W36763   6.277  28.124  11.152
70355W        W36764  20.059  20.788  11.968
70356W        W36765  14.086  20.944  12.116
70357W        W36766  20.073  19.985   0.930
70358W        W36767  15.876  38.959   3.780
70359W        W36768  31.731  22.228  14.327
70360W        W36769   0.462   9.402   1.527
70361W        W36770  10.742   6.498   0.004
70362W        W36771   1.755   5.919   3.517
70363W        W36772  26.624  32.911  11.927
70364W        W36773   3.010  29.802  13.588
70365W        W36774  38.539  11.570   0.542
70366W        W36775  33.864  36.339   3.787
70367W        W36776   1.744  11.950  11.138
70368W        W36777  44.833  40.507   0.311
70369W        W36778   8.417  38.033   1.872
70370W        W36779  12.742  28.615   1.508
70371W        W36780  26.138  21.465  14.363
70372W        W36781   8.025  11.785   4.154
70373W        W36782  28.473  28.607  14.675
70374W        W36783  29.869  42.895  11.579
70375W        W36784   2.683   0.437  13.826
70376W        W36785  18.680   6.636  11.801
70377W        W36786  18.144  33.721   4.085
70378W        W36787  28.950   0.365  12.455
70379W        W36788  23.543  25.274  14.543
70380W        W36789  11.639   0.718   1.401
70381W        W36790  38.482   2.729  12.093
70382W        W36791  26.874  29.434  12.770
70383W        W36792   5.191  26.566   1.017
70384W        W36793   8.638   9.844   1.872
70385W        W36794  17.555  42.212  12.961
70386W        W36795  34.338  40.401   0.270
70387W        W36796  34.698  30.652   2.158
70388W        W36797  18.194  14.404   0.908
70389W        W36798  14.989  11.782   0.911
70390W        W36799  13.109  32.411  11.574
70391W        W36800  33.909  15.154   0.237
70392W        W36801  34.436  28.670  13.403
70393W        W36802  41.057  33.474   3.604
70394W        W36803   3.142   2.166  12.072
70395W        W36804  30.879   8.790  11.491
70396W        W36805  21.651  39.289   2.766
70397W        W36806  13.312   3.011  11.192
70398W        W36807  35.655  15.689  12.368
70399W        W36808  25.026   9.370  14.184
70400W        W36809  33.106   2.519   0.274
70401W        W36810  40.634  26.237   4.924
70402W        W36811   2.785  27.905  14.805
70403W        W36812  41.894  38.617   3.633
70404W        W36813  25.700  13.172  13.517
70405W        W36814  36.513  39.031   2.646
70406W        W36815  16.249  22.173   1.154
70407W        W36816  21.650  12.850  12.869
70408W        W36817  18.201  27.441   0.024
70409W        W36818  13.246  14.810   1.398
70410W        W36819  19.186  33.497  13.398
70411W        W36820  37.005  25.105   2.448
70412W        W36821  38.461  24.344   0.955
70413W        W36822   2.883   9.066  14.113
70414W        W36823  10.775  14.670   3.096
70415W        W36824  13.109  20.071   0.331
70416W        W36825   7.319  12.308  13.751
70417W        W36826  20.421  34.368   1.944
70418W        W36827   5.317  41.874   1.380
70419W        W36828  13.388  36.592   0.112
70420W        W36829  24.642   7.926  11.536
70421W        W36830  31.436  30.159   1.898
70422W        W36831  25.996   3.845  11.719
70423W        W36832  15.741   6.375  10.780
70424W        W36833  28.697  43.769   4.505
70425W        W36834  10.943  15.144  12.016
70426W        W36835   2.791  40.849   4.300
70427W        W36836  19.261  20.180   4.599
70428W        W36837  23.428  42.347   4.670
70429W        W36838  14.231  26.426  13.811
70430W        W36839  24.091  10.721   1.478
70431W        W36840  23.018  42.546   4.887
70432W        W36841  15.299  11.828   3.231
70433W        W36842  17.431   0.938   3.572
70434W        W36843   5.919  17.253  11.654
70435W        W36844   7.351  33.434  13.156
70436W        W36845  26.413  39.836  11.543
70437W        W36846  12.833  36.106   5.027
70438W        W36847  43.000  31.379  14.851
70439W        W36848   5.023  26.417  14.836
70440W        W36849  15.592  23.276  14.432
70441W        W36850  38.545  37.915   2.279
70442W        W36851  25.903  32.380  11.603
70443W        W36852  34.088   2.444  11.646
70444W        W36853  44.925   0.333   1.891
70445W        W36854   6.224  33.964   1.945
70446W        W36855  41.627  23.426   1.767
70447W        W36856  43.329   7.517  13.971
70448W        W36857  40.828  27.114  13.247
70449W        W36858   2.841  14.808   0.285
70450W        W36859  31.877  21.140   3.787
70451W        W36860  20.303   5.108  11.164
70452W        W36861   9.293  20.680   1.532
70453W        W36862   6.272  22.361   9.835
70454W        W36863   3.349  29.125   4.597
70455W        W36864  16.716  41.823   4.576
70456W        W36865  27.433  27.082   0.397
70457W        W36866   2.704  20.185   3.626
70458W        W36867  21.025  15.711   2.211
70459W        W36868  23.672   9.113   1.342
70460W        W36869  14.820  35.045   0.326
70461W        W36870  42.866  15.806   2.671
70462W        W36871  28.371  40.528   3.777
70463W        W36872  34.179  38.481  13.870
70464W        W36873  14.666  29.440  13.955
70465W        W36874  23.443  28.598  13.791
70466W        W36875  31.226  31.158  12.865
70467W        W36876  35.597  41.875   2.043
70468W        W36877   7.778   4.222   3.334
70469W        W36878  44.407   1.453  10.919
70470W        W36879  32.009   0.871   2.659
70471W        W36880  15.685   6.276   4.259
70472W        W36881  33.617   5.304  12.456
70473W        W36882  25.250  43.199   5.119
70474W        W36883  10.390  18.720  10.937
70475W        W36884  27.160   3.090   4.319
70476W        W36885  33.454  19.169   3.551
70477W        W36886  33.531  26.840   1.845
70478W        W36887  40.854   2.514   2.796
70479W        W36888  27.642  44.857  14.268
70480W        W36889  26.779  37.348  10.213
70481W        W36890   0.884  42.311   2.250
70482W        W36891  39.301   3.518   3.158
70483W        W36892  20.790  10.800  11.071
70484W        W36893   8.904  34.665   1.741
70485W        W36894  43.144  38.428  14.894
70486W        W36895  24.176  23.836  12.929
70487W        W36896   1.691  16.473   1.003
70488W        W36897  28.565  42.938   0.978
70489W        W36898   7.043  44.107  14.027
70490W        W36899  19.055  10.137   4.685
70491W        W36900  32.175  42.846   4.149
70492W        W36901  38.545   9.393   0.351
70493W        W36902  41.029  31.568  14.407
70494W        W36903  10.348   3.705   4.054
70495W        W36904  23.603  42.446   0.917
70496W        W36905  44.548   2.859   1.188
70497W        W36906  26.797   0.720   0.258
70498W        W36907   3.902  32.364   1.775
70499W        W36908   3.671  26.861   2.367
70500W        W36909  23.945  39.576  13.344
70501W        W36910  33.347   1.263   1.448
70502W        W36911  32.623   6.929  13.262
70503W        W36912  25.761  28.711  14.372
70504W        W36913  22.222  18.977   1.471
70505W        W36914  44.990  25.563   0.958
70506W        W36915  26.046  18.351  11.007
70507W        W36916  15.701  22.963   2.161
70508W        W36917  22.062  35.503   0.757
70509W        W36918  41.766  16.187  14.491
70510W        W36919   5.403   4.247   4.600
70511W        W36920  36.654  12.806  12.036
70512W        W36921   0.221  39.622   4.269
70513W        W36922  41.201  23.571  11.216
70514W        W36923  40.858  27.913   0.892
70515W        W36924  28.390  36.961  14.437
70516W        W36925  19.230  27.177   4.025
70517W        W36926   8.802  34.657   3.209
70518W        W36927  10.153  23.814   1.075
70519W        W36928  14.172  14.447   3.730
70520W        W36929  38.076  39.504   0.806
70521W        W36930  25.149  20.560  11.410
70522W        W36931  30.607  21.490   3.115
70523W        W36932  32.307  44.078   4.584
70524W        W36933  16.856  30.002  12.943
70525W        W36934   1.744  13.182   2.903
70526W        W36935   4.360   5.434   3.002
70527W        W36936  41.378  25.464   3.224
70528W        W36937  35.418   7.799   1.288
70529W        W36938   8.147   5.507   3.341
70530W        W36939   7.179  44.995   1.712
70531W        W36940  23.991  42.094  12.520
70532W        W36941  25.087   2.707   0.738
70533W        W36942   8.368   1.356  12.947
70534W        W36943   2.183  42.321  11.865
70535W        W36944  12.633  43.030  13.110
70536W        W36945   6.119  44.876   3.612
70537W        W36946   6.169  37.160  11.019
70538W        W36947  29.435  19.943  13.878
70539W        W36948  13.090   9.197   4.068
70540W        W36949  37.026   4.298  14.081
70541W        W36950  29.644   8.220  11.424
70542W        W36951  33.621  25.808   2.990
70543W        W36952  10.425   5.499   0.866
70544W        W36953   3.877  16.589  14.967
70545W        W36954  26.023  44.848   4.528
70546W        W36955  38.165  37.843  10.814
70547W        W36956  16.716   5.639  14.239
70548W        W36957  24.074  35.165   0.696
70549W        W36958  20.238  11.889   0.505
70550W        W36959  16.376   1.163   1.231
70551W        W36960  14.256  35.971  10.354
70552W        W36961   0.764   5.788   3.577
70553W        W36962  14.022   7.977   0.966
70554W        W36963  26.218  41.355  10.738
70555W        W36964  41.660  43.820   1.204
70556W        W36965  34.572  14.824   0.130
70557W        W36966   3.383  22.960  12.472
70558W        W36967  22.745  38.527   4.662
70559W        W36968  31.954  17.188  12.782
70560W        W36969   4.068  39.799  10.320
70561W        W36970  13.394  38.067   2.978
70562W        W36971  14.825  41.947   0.353
70563W        W36972  15.166  28.965   0.181
70564W        W36973  35.502   9.534   2.508
70565W        W36974  10.492  35.117  11.112
70566W        W36975  36.886  24.718  11.203
70567W        W36976  29.089  21.027  14.348
70568W        W36977  28.494  28.141   3.617
70569W        W36978  36.568  27.141   3.243
70570W        W36979  40.425  11.439  11.019
70571W        W36980  43.622  27.122  13.319
70572W        W36981  30.555  28.713  13.832
70573W        W36982  26.048  24.826   0.883
70574W        W36983   3.130   0.022   2.271
70575W        W36984  34.949   2.525  13.508
70576W        W36985  29.978   1.439   3.675
70577W        W36986  31.647  17.770  12.425
70578W        W36987  26.847  27.073  14.448
70579W        W36988  23.311  43.749   3.195
70580W        W36989  38.131  42.165  14.966
70581W        W36990  44.868  12.429  13.851
70582W        W36991  25.473  40.987   3.208
70583W        W36992  38.493  31.311  10.709
70584W        W36993  32.106   0.715  10.515
70585W        W36994  24.565  20.515  13.079
70586W        W36995   1.565  10.172  11.531
70587W        W36996   5.271  21.301  10.716
70588W        W36997  16.982  18.521  12.965
70589W        W36998  19.706  12.278   4.097
70590W        W36999  13.051  36.361   1.700
70591W        W37000   4.727  22.021   4.401
70592W        W37001  23.949   0.114  11.209
70593W        W37002   2.706  34.022   1.610
70594W        W37003  37.422  12.266  14.829
70595W        W37004  15.219  25.486  13.375
70596W        W37005  19.527  16.791   1.303
70597W        W37006  10.788  41.782  11.308
70598W        W37007  14.875  10.611  11.132
70599W        W37008  44.904  12.692   0.431
70600W        W37009  15.535  31.621   3.697
70601W        W37010  43.676  43.048  11.875
70602W        W37011  22.799  31.854  13.903
70603W        W37012  24.162   5.925  11.645
70604W        W37013  23.696  21.226  14.502
70605W        W37014  33.050  24.074  12.705
70606W        W37015   7.735  40.062   1.960
70607W        W37016  40.749  23.298   0.483
70608W        W37017   4.839  30.780  13.315
70609W        W37018  17.708  38.896  12.780
70610W        W37019  41.295  12.689  13.444
70611W        W37020  13.024  29.161   3.239
70612W        W37021   3.232  31.483   1.494
70613W        W37022  44.427   1.263   2.701
70614W        W37023  14.264  43.546   0.850
70615W        W37024   7.878   5.146   4.337
70616W        W37025  12.111  41.422   3.720
70617W        W37026  16.789  22.623   3.118
70618W        W37027  21.629  36.425   2.299
70619W        W37028  35.363  20.480   1.593
70620W        W37029  40.386  19.695   3.852
70621W        W37030  20.001  22.748   1.152
70622W        W37031  10.979  32.112   2.021
70623W        W37032  13.239  35.511   5.117
70624W        W37033  13.030  22.268   5.034
70625W        W37034  20.431  30.867  12.429
70626W        W37035  32.533   6.989   0.459
70627W        W37036  23.777  39.049  10.503
70628W        W37037  25.211  29.910  11.102
70629W        W37038  32.954  22.000   2.657
70630W        W37039   2.768   6.143  14.492
70631W        W37040  35.942   8.440  12.867
70632W        W37041  36.587  21.123  10.438
70633W        W37042  13.336  21.450  14.502
70634W        W37043  20.774  18.540  13.528
70635W        W37044   2.197   9.670  13.453
70636W        W37045  39.397   7.291   2.666
70637W        W37046   1.033   4.981  11.579
70638W        W37047  11.327  21.172  14.850
70639W        W37048  17.334   4.998   0.796
70640W        W37049   8.618  24.754   2.362
70641W        W37050  23.179  39.183  13.657
70642W        W37051  27.229   6.608  14.558
70643W        W37052   9.181  21.143  13.531
70644W        W37053   8.172  25.081  11.811
70645W        W37054  35.123  15.184   2.511
70646W        W37055   0.737  21.013  14.924
70647W        W37056  29.094   7.586  14.903
70648W        W37057  21.793  17.715  14.773
70649W        W37058  31.050  21.359  10.250
70650W        W37059  33.626  19.569   3.846
70651W        W37060  29.207  41.471   2.822
70652W        W37061  30.428  28.091  10.712
70653W        W37062  29.377  12.636  14.823
70654W        W37063  12.173  35.511  13.922
70655W        W37064  18.726  33.857  14.854
70656W        W37065   2.645   4.897  10.646
70657W        W37066   1.665  44.583   3.766
70658W        W37067  41.486  38.285   3.317
70659W        W37068  38.365  11.212  11.524
70660W        W37069  40.984   1.282   4.566
70661W        W37070  28.326   3.993  14.604
70662W        W37071  21.082  10.225  12.907
70663W        W37072   0.027  36.345   4.177
70664W        W37073  41.845  42.936  14.697
70665W        W37074  23.831  43.184   3.819
70666W        W37075  38.947  38.101  14.449
70667W        W37076   2.188  33.729  11.203
70668W        W37077  26.125  42.576   1.947
70669W        W37078  15.649   4.925   2.339
70670W        W37079  37.341  20.510  14.441
70671W        W37080  25.302  40.923  13.705
70672W        W37081  14.877  31.169   0.474
70673W        W37082  22.566  16.265  11.221
70674W        W37083  18.704  28.024  12.300
70675W        W37084  28.645  31.137   1.737
70676W        W37085  37.647  10.378  13.839
70677W        W37086  24.057  25.002  12.484
70678W        W37087  42.934  37.341  11.675
70679W        W37088  31.639  17.689   4.089
70680W        W37089  27.607  26.552  11.934
70681W        W37090  24.358  24.057  12.142
70682W        W37091  27.570  28.938  12.254
70683W        W37092   0.479   5.483   0.958
70684W        W37093  16.170  23.440   4.234
70685W        W37094  21.807   8.926   0.263
70686W        W37095  17.194  32.894  14.329
70687W        W37096  29.440   0.555  13.340
70688W        W37097   1.200   2.060   3.185
70689W        W37098  13.162  31.771  10.202
70690W        W37099  36.564  22.578  11.987
70691W        W37100  14.102  27.632   3.302
70692W        W37101  42.894  31.469   2.794
70693W        W37102  25.725   7.826  14.496
70694W        W37103   5.854  16.577   2.691
70695W        W37104  20.282  18.136   2.963
70696W        W37105  28.677   1.738   4.074
70697W        W37106  22.307  14.134  14.469
70698W        W37107   3.302   0.873   1.143
70699W        W37108  22.756  19.726  14.382
70700W        W37109   2.486  28.461  11.047
70701W        W37110  32.682  14.722   1.393
70702W        W37111  32.449  36.448  14.416
70703W        W37112  44.192  42.456   0.793
70704W        W37113   8.724   8.627  12.062
70705W        W37114  43.599  21.278  13.078
70706W        W37115  15.465   1.721  12.686
70707W        W37116  28.097  22.368  10.665
70708W        W37117  34.554  16.696   0.734
70709W        W37118  19.940  16.110   2.097
70710W        W37119  39.617  37.146  12.134
70711W        W37120   5.332  29.013   4.669
70712W        W37121  14.415  22.174  14.892
70713W        W37122  40.866  42.921   3.801
70714W        W37123  37.377   4.267  12.525
70715W        W37124  16.761  39.999  11.085
70716W        W37125   8.939  16.973  14.841
70717W        W37126  40.613  30.928   4.132
70718W        W37127  20.769  43.318  11.593
70719W        W37128  21.190  10.272   4.662
70720W        W37129  14.253   9.660   3.698
70721W        W37130   1.692   9.265   1.748
70722W        W37131  24.875  33.522  11.929
70723W        W37132  18.180  20.174  12.045
70724W        W37133   8.155  29.561   4.474
70725W        W37134  21.232  18.986  14.989
70726W        W37135  42.925   0.378   0.653
70727W        W37136  33.977  16.149   3.165
70728W        W37137  14.162  11.805  12.863
70729W        W37138  22.054  33.812   2.836
70730W        W37139   1.657  23.334   0.835
70731W        W37140  16.196  32.430   2.450
70732W        W37141  20.857   9.151  14.031
70733W        W37142  39.753  33.007   3.172
70734W        W37143  42.568   6.993  10.708
70735W        W37144  30.700  28.273  11.134
70736W        W37145  36.951  33.935   1.416
70737W        W37146  33.457   8.753   3.452
70738W        W37147  30.722  14.710   2.860
70739W        W37148   4.012  17.567  10.737
70740W        W37149  15.524  44.050  10.224
70741W        W37150  13.265  15.321   1.236
70742W        W37151   5.299  11.748  10.714
70743W        W37152  22.376   2.417  14.601
70744W        W37153  21.667  33.088  11.548
70745W        W37154  33.870  24.481   2.557
70746W        W37155  44.755  15.606   0.734
70747W        W37156  39.234  18.692   2.718
70748W        W37157  40.155  24.168  11.451
70749W        W37158  44.357  41.487  11.721
70750W        W37159  12.394  31.139  12.464
70751W        W37160  10.866  19.527  10.676
70752W        W37161  20.847  36.593  13.144
70753W        W37162  33.125  44.368   4.603
70754W        W37163  37.056  32.269   1.148
70755W        W37164  42.869   3.529  11.098
70756W        W37165  32.944  25.092  11.840
70757W        W37166  23.007  39.963   0.868
70758W        W37167  34.939   7.734  10.787
70759W        W37168   2.747  22.703  13.761
70760W        W37169  12.215  32.170   2.195
70761W        W37170  26.943  10.256  10.703
70762W        W37171  18.626   8.810   1.216
70763W        W37172  41.046  40.911   1.917
70764W        W37173   7.837  35.342  14.761
70765W        W37174  18.031  29.586   4.655
70766W        W37175  14.200  16.175  14.981
70767W        W37176  40.942  14.537  13.938
70768W        W37177  17.664  24.683   5.105
70769W        W37178  26.844  32.257  11.140
70770W        W37179  26.552  23.531   3.312
70771W        W37180  37.454  26.904   4.652
70772W        W37181  16.618  20.740  11.895
70773W        W37182  17.704   1.544   2.341
70774W        W37183   2.157   5.749  15.000
70775W        W37184  35.859   3.901  14.747
70776W        W37185  20.876  36.502  14.234
70777W        W37186  15.891  13.199   4.707
70778W        W37187  30.939   0.214  11.632
70779W        W37188  12.256  20.114  12.830
70780W        W37189   0.308  37.480  13.398
70781W        W37190   5.386  41.858   2.753
70782W        W37191  22.222  25.038   4.538
70783W        W37192  29.464  24.658  13.968
70784W        W37193  22.277  11.033  12.603
70785W        W37194  10.069   6.235   1.655
70786W        W37195  30.555  24.236  13.894
70787W        W37196  35.443  24.498   1.800
70788W        W37197  23.068  19.144  13.190
70789W        W37198   3.103   9.709   3.309
70790W        W37199  17.279  33.552   3.040
70791W        W37200   7.076  40.414   2.040
70792W        W37201   6.716  33.003  10.686
70793W        W37202   1.670   8.186   0.368
70794W        W37203  39.997   2.862  11.524
70795W        W37204  35.947  14.225   1.261
70796W        W37205  18.354  19.526  10.287
70797W        W37206   8.757   1.638  11.904
70798W        W37207  28.983  33.860   2.118
70799W        W37208  36.465  29.532  14.097
70800W        W37209  17.272  40.936   3.867
70801W        W37210  33.594   9.269  13.884
70802W        W37211  42.788  36.142   4.612
70803W        W37212  27.969  38.557   2.297
70804W        W37213  34.989  38.022   3.911
70805W        W37214  17.061  24.627  12.349
70806W        W37215   6.665  24.678  13.779
70807W        W37216  27.100  22.325  12.983
70808W        W37217  42.816  40.467   3.391
70809W        W37218   6.953  28.614  13.299
70810W        W37219  13.407  15.535   0.316
70811W        W37220  33.053  35.165  11.546
70812W        W37221  42.755  39.352  14.410
70813W        W37222   0.289  44.461  11.017
70814W        W37223  34.043  25.618  11.124
70815W        W37224  36.370  23.191  14.791
70816W        W37225  22.821   2.725   0.875
70817W        W37226  17.872   5.659   1.165
70818W        W37227  16.292   6.243   2.055
70819W        W37228   0.874   3.037  11.539
70820W        W37229   2.393  19.108  12.309
70821W        W37230  28.737  16.181  13.785
70822W        W37231   3.816  36.580   3.275
70823W        W37232  16.598  44.916   0.860
70824W        W37233  18.319  33.009  10.676
70825W        W37234  25.993   4.642   1.854
70826W        W37235  43.499  40.863   3.912
70827W        W37236  42.457  10.674   3.591
70828W        W37237  24.055  35.795  10.328
70829W        W37238  10.218  14.172  12.144
70830W        W37239  18.204   9.277  11.449
70831W        W37240  42.283  33.249  11.637
70832W        W37241  24.499  23.807  13.810
70833W        W37242  34.861  24.990  12.875
70834W        W37243   4.423  42.291   3.321
70835W        W37244  36.102  11.427   2.654
70836W        W37245   1.325  44.346  10.806
70837W        W37246  40.454   8.525  14.839
70838W        W37247   6.846  42.347   3.292
70839W        W37248  15.593   8.187  10.695
70840W        W37249  24.817  19.582  10.536
70841W        W37250  16.554   5.941   4.295
70842W        W37251  32.400  30.018   3.301
70843W        W37252   8.706  21.247   4.697
70844W        W37253  19.222  28.148   3.662
70845W        W37254  31.147  13.904   0.937
70846W        W37255  19.344  43.789  11.655
70847W        W37256   5.662  24.206  14.839
70848W        W37257  18.663  28.613  13.165
70849W        W37258  11.953  40.361  12.035
70850W        W37259  33.909  21.664  11.210
70851W        W37260  13.168  14.306  11.466
70852W        W37261  43.055  14.084   4.108
70853W        W37262   6.596   8.240  12.840
70854W        W37263  37.519  26.934   0.266
70855W        W37264  38.768   2.872   0.912
70856W        W37265   5.914  32.540   1.834
70857W        W37266  11.285  24.102  10.964
70858W        W37267   9.237  30.028  10.489
70859W        W37268   6.176  28.156   0.170
70860W        W37269   8.610  44.463  12.011
70861W        W37270  26.590  29.633  11.183
70862W        W37271  29.076  30.672  12.091
70863W        W37272  27.198   1.127  11.640
70864W        W37273   1.055   3.424   4.553
70865W        W37274  28.214  18.707   2.590
70866W        W37275  38.959  28.674   0.946
70867W        W37276  33.307  37.254   5.052
70868W        W37277  38.325  11.504  13.840
70869W        W37278   3.350  37.610  11.113
70870W        W37279  19.212  19.511   3.685
70871W        W37280  28.636  11.728   0.089
70872W        W37281  42.964  12.282   3.405
70873W        W37282  11.062  27.432   4.030
70874W        W37283  41.364  31.718  11.155
70875W        W37284  39.282  35.419   1.598
70876W        W37285  25.541  40.299   0.087
70877W        W37286  37.450  19.912   4.198
70878W        W37287  31.093  29.673   4.511
70879W        W37288   4.388  30.151   0.231
70880W        W37289  24.615  28.353   3.375
70881W        W37290  25.373  18.000   5.069
70882W        W37291  24.467  23.701  14.316
70883W        W37292  36.052   1.929  10.724
70884W        W37293   5.099  11.105   3.360
70885W        W37294   1.019   1.482   0.005
70886W        W37295   3.872  26.125   0.976
70887W        W37296  27.948  31.409  11.426
70888W        W37297  32.622  18.510   2.426
70889W        W37298  44.016   4.879   3.633
70890W        W37299  24.554  44.250  12.892
70891W        W37300   5.117   0.343  13.643
70892W        W37301  35.459   5.891  11.346
70893W        W37302  28.020  38.061   4.284
70894W        W37303   6.938   9.700   4.734
70895W        W37304  26.137  15.335  14.329
70896W        W37305  42.358  22.225  12.140
70897W        W37306  17.021  31.490  14.697
70898W        W37307  37.307  10.176   2.305
70899W        W37308   1.766  29.684   0.316
70900W        W37309   1.471  22.565  11.236
70901W        W37310  22.295  21.636   1.248
70902W        W37311  24.718  27.216   2.693
70903W        W37312  15.123  29.642   0.899
70904W        W37313  30.816  23.427  13.893
70905W        W37314  22.603  26.098  10.082
70906W        W37315  31.887   7.158   3.585
70907W        W37316  11.514  36.897  12.229
70908W        W37317   3.557  43.105  12.429
70909W        W37318  16.647  34.878  14.892
70910W        W37319  34.057  39.902   4.567
70911W        W37320  35.936  20.673   0.057
70912W        W37321  11.675   1.594   4.033
70913W        W37322  38.551  19.509  12.955
70914W        W37323  20.353  19.066  14.932
70915W        W37324  40.431  41.089  11.154
70916W        W37325  33.911  39.577  14.480
70917W        W37326  28.631  38.299   0.753
70918W        W37327  35.973   9.250  14.449
70919W        W37328   7.852   5.688  11.082
70920W        W37329   0.236  35.584  11.617
70921W        W37330  20.847  24.390  11.024
70922W        W37331  19.293  29.120  14.436
70923W        W37332  29.613  14.508  11.782
70924W        W37333  31.384  33.659   4.162
70925W        W37334  32.330  11.503  11.674
70926W        W37335  24.158  12.649   2.016
70927W        W37336   8.908  15.601  14.017
70928W        W37337  41.693   1.275   2.614
70929W        W37338  42.959   8.194   9.838
70930W        W37339  15.577  19.936   4.643
70931W        W37340   6.197  36.446   4.814
70932W        W37341   0.531   1.922  12.366
70933W        W37342   7.744  31.880   1.828
70934W        W37343   0.751  13.298  13.544
70935W        W37344  34.103   8.770  10.481
70936W        W37345   7.135  16.638  12.981
70937W        W37346  35.621   4.767  13.750
70938W        W37347  16.285  31.898  14.223
70939W        W37348  30.187   7.473  12.839
70940W        W37349  33.925  15.308  13.385
70941W        W37350  15.272   4.868  14.058
70942W        W37351  12.193  30.541  11.115
70943W        W37352  12.029  20.145   4.114
70944W        W37353  34.599  38.889  11.684
70945W        W37354  17.551  18.305   3.661
70946W        W37355   2.306  42.825   2.320
70947W        W37356  39.791   8.841  10.147
70948W        W37357  41.227  24.625   2.185
70949W        W37358   6.285  41.560   0.073
70950W        W37359  18.846  36.657  11.923
70951W        W37360   0.525  31.628  11.983
70952W        W37361  29.565   7.304   4.560
70953W        W37362  17.014  44.945  10.958
70954W        W37363   1.538  16.003   3.945
70955W        W37364   9.875  43.382  12.394
70956W        W37365  12.068  28.565   3.920
70957W        W37366  12.255  22.709  12.113
70958W        W37367  16.020  20.736   2.711
70959W        W37368   8.157  27.974   1.417
70960W        W37369  41.954  26.641  14.341
70961W        W37370  13.121  42.360   4.040
70962W        W37371   6.801   8.583  14.632
70963W        W37372   8.857  28.462  12.030
70964W        W37373  10.251  27.743  14.910
70965W        W37374  10.830   6.443  11.545
70966W        W37375   4.854  21.236  10.390
70967W        W37376  31.616  40.362   4.659
70968W        W37377  41.311  14.082   1.399
70969W        W37378  20.638  11.831   0.897
70970W        W37379   9.998  37.423  10.393
70971W        W37380  12.604   8.678  11.490
70972W        W37381  32.646  29.516   0.099
70973W        W37382  31.766  13.694   5.126
70974W        W37383  32.189  41.047  11.269
70975W        W37384  29.010  23.461  10.674
70976W        W37385  22.735   4.398  14.433
70977W        W37386  35.063  16.016  13.950
70978W        W37387   1.174   1.179  11.088
70979W        W37388   4.784  43.067   5.059
70980W        W37389   9.159  30.272   4.062
70981W        W37390  13.677  26.779  14.309
70982W        W37391  19.057  24.623  11.587
70983W        W37392  14.263   4.292  10.897
70984W        W37393  41.500   2.931   1.276
70985W        W37394  28.455  25.783  14.928
70986W        W37395   7.730  30.252   2.863
70987W        W37396  24.018  15.189   2.436
70988W        W37397  10.779  31.866  11.541
70989W        W37398   8.073   3.760  12.369
70990W        W37399  44.345  13.612  12.407
70991W        W37400  22.082   7.804   3.898
70992W        W37401   1.931  22.150   2.084
70993W        W37402   7.395  35.869   4.659
70994W        W37403  25.094  41.476   4.624
70995W        W37404  15.392  31.769  11.598
70996W        W37405  21.246  20.847  11.660
70997W        W37406  19.314  19.726   3.198
70998W        W37407  16.193  29.990   3.105
70999W        W37408  38.623  17.654  12.661
71000W        W37409   4.097  35.855  12.554
71001W        W37410  40.282  34.487  12.456
71002W        W37411  39.000   5.230   0.814
71003W        W37412  24.458  33.587  12.265
71004W        W37413  27.197  29.904   3.486
71005W        W37414   0.305  30.652  13.738
71006W        W37415  22.066  33.634   3.995
71007W        W37416  44.521  15.759   4.065
71008W        W37417  40.350  10.792   3.129
71009W        W37418  10.716  24.913  13.038
71010W        W37419  26.171   8.623   3.747
71011W        W37420  19.252   5.329   4.410
71012W        W37421  15.778  22.176  13.968
71013W        W37422  31.117  32.958  10.584
71014W        W37423   0.723  35.090   3.811
71015W        W37424  10.998  34.877  12.499
71016W        W37425  17.794   4.864   2.694
71017W        W37426   4.307  14.087  13.489
71018W        W37427   2.495  24.276   4.700
71019W        W37428  22.622  23.570   0.826
71020W        W37429   9.837  43.868   4.656
71021W        W37430  28.509  32.552   2.868
71022W        W37431  39.094  28.829   1.953
71023W        W37432  32.861  33.549   4.157
71024W        W37433  14.971  42.971  10.708
71025W        W37434   6.976   5.947   1.426
71026W        W37435  14.864  13.166  13.551
71027W        W37436  11.009  28.617  12.461
71028W        W37437  30.114  41.032  13.606
71029W        W37438  13.796  24.001  11.965
71030W        W37439  27.334   5.188  14.818
71031W        W37440  34.707  20.081  14.002
71032W        W37441  30.122  16.251   3.072
71033W        W37442  19.134  24.776   5.293
71034W        W37443  32.148  40.687   0.674
71035W        W37444  29.506  41.480  10.733
71036W        W37445  31.878  30.496   0.287
71037W        W37446  10.034  38.600  12.871
71038W        W37447  26.833  34.048  14.350
71039W        W37448   6.343  37.620   4.237
71040W        W37449  15.359  35.427  13.207
71041W        W37450  20.756  36.631   4.075
71042W        W37451  27.361  41.566  12.565
71043W        W37452  11.697  36.950   2.901
71044W        W37453  16.659  37.283  11.281
71045W        W37454   1.902  11.781   1.248
71046W        W37455  42.546  40.602  13.041
71047W        W37456   0.194   6.222  14.011
71048W        W37457  31.378  24.629  12.838
71049W        W37458  35.681  38.375  13.751
71050W        W37459   6.897  23.225   4.975
71051W        W37460  32.150  43.785  13.065
71052W        W37461  23.925  23.503   1.171
71053W        W37462  27.499  13.443   2.154
71054W        W37463  18.089  25.904  13.646
71055W        W37464  39.902  41.438   3.888
71056W        W37465  44.372   2.930  12.801
71057W        W37466  17.058   8.173   3.240
71058W        W37467  24.297  34.074   1.396
71059W        W37468  27.527  37.938  10.724
71060W        W37469  26.118  10.387   2.386
71061W        W37470   4.817  14.529   0.522
71062W        W37471  29.419   2.860  12.963
71063W        W37472  11.628  36.980  10.996
71064W        W37473  11.630   7.689   3.387
71065W        W37474   0.575   7.115   4.638
71066W        W37475  28.807  30.126  12.072
71067W        W37476  19.729   0.705   1.785
71068W        W37477  16.005   7.641  12.902
71069W        W37478  34.001   5.399  13.927
71070W        W37479  21.261  22.625  12.694
71071W        W37480  13.098  20.857  11.195
71072W        W37481   9.284  22.146  13.477
71073W        W37482  23.767  13.334   3.744
71074W        W37483  24.128  43.994  14.423
71075W        W37484  31.216  44.868   2.254
71076W        W37485  34.577  13.841   1.931
71077W        W37486   4.220   0.065  12.096
71078W        W37487  42.095  18.635  11.720
71079W        W37488  38.158  15.027   0.768
71080W        W37489  42.852  29.416   1.684
71081W        W37490   8.174  24.545   0.623
71082W        W37491  38.834  14.874  14.457
71083W        W37492  11.722  27.952  14.906
71084W        W37493  42.822  28.051  11.993
71085W        W37494  20.801  44.127   3.330
71086W        W37495  42.958   9.119   0.439
71087W        W37496  33.120  15.682   0.413
71088W        W37497  19.356   8.811  10.730
71089W        W37498  30.163  20.023  12.692
71090W        W37499  20.556  40.849  14.482
71091W        W37500   0.468   8.945   5.337
71092W        W37501  23.382  22.300  13.046
71093W        W37502   6.463  24.123   3.813
71094W        W37503  41.440  36.296   2.439
71095W        W37504  43.930  17.673  10.581
71096W        W37505   8.441  15.805  14.220
71097W        W37506   4.394  38.799   2.963
71098W        W37507  44.539  39.346  10.656
71099W        W37508   8.050   8.117  13.015
71100W        W37509  21.620  31.879  12.074
71101W        W37510  17.653  10.125   1.381
71102W        W37511  30.536  44.358  10.601
71103W        W37512  44.898  23.937   4.214
71104W        W37513   9.157  10.727   1.916
71105W        W37514   8.715  28.862   1.378
71106W        W37515   6.507  23.124  11.689
71107W        W37516  26.188   1.857  13.794
71108W        W37517  30.676   8.136   3.704
71109W        W37518   6.337  19.122   2.286
71110W        W37519  27.594  24.809   2.338
71111W        W37520  33.016  24.238  10.609
71112W        W37521  38.724  25.432  11.153
71113W        W37522  31.354  18.470  13.007
71114W        W37523  30.660  21.554  14.736
71115W        W37524  36.504  37.441  10.473
71116W        W37525   9.378  42.313  13.893
71117W        W37526  19.825  42.457   1.181
71118W        W37527  30.215   9.647  10.750
71119W        W37528  39.125  43.944   4.215
71120W        W37529  21.623  18.186   3.053
71121W        W37530  42.940  23.139   0.009
71122W        W37531  18.087  10.231   1.889
71123W        W37532  25.199  34.853  12.741
71124W        W37533  35.046  33.316   4.906
71125W        W37534  23.792   3.274   2.094
71126W        W37535  17.154  26.054   3.293
71127W        W37536  24.205  22.867  14.761
71128W        W37537  10.303  26.481  10.120
71129W        W37538  29.470  24.154  10.666
71130W        W37539   9.250  42.843  12.134
71131W        W37540  29.084   3.138  14.491
71132W        W37541  41.970  35.264  11.454
71133W        W37542  44.472  41.908  10.656
71134W        W37543   8.778  36.752   0.840
71135W        W37544  16.283  16.717   0.402
71136W        W37545  21.509  18.309  13.507
71137W        W37546   9.148  37.801   2.392
71138W        W37547   0.020  14.662  14.829
71139W        W37548  35.255   7.892   2.904
71140W        W37549   6.254  24.489   3.220
71141W        W37550   9.364  42.516   0.751
71142W        W37551  37.058  37.667   3.348
71143W        W37552  13.071  22.115   3.744
71144W        W37553  26.671   5.012   3.132
71145W        W37554   8.302  20.075  11.843
71146W        W37555  24.648  11.410  14.588
71147W        W37556   6.661   3.341   4.452
71148W        W37557  35.178   0.216  12.794
71149W        W37558  17.472  38.040   1.981
71150W        W37559  43.830   1.708  12.981
71151W        W37560  12.845   8.205   2.345
71152W        W37561   6.890  38.866   1.552
71153W        W37562  15.760  15.279   3.829
71154W        W37563  35.205  37.821   0.914
71155W        W37564  21.071  43.777   4.469
71156W        W37565  23.225   5.968  12.386
71157W        W37566   7.379  40.871   1.350
71158W        W37567  43.237   3.428   0.440
71159W        W37568  35.474  44.052   3.209
71160W        W37569  20.074  38.118   1.438
71161W        W37570  30.193  37.123   5.343
71162W        W37571  22.502  32.676  13.394
71163W        W37572  30.364  43.045  10.660
71164W        W37573  22.701  26.139  10.606
71165W        W37574  23.025  33.908   0.069
71166W        W37575   2.157   6.785  12.402
71167W        W37576   1.220  10.549  13.386
71168W        W37577  29.453  43.219   0.803
71169W        W37578  23.674  10.408  11.442
71170W        W37579  20.656   3.922   2.322
71171W        W37580  21.478  40.111   0.495
71172W        W37581  35.972  22.652  14.025
71173W        W37582   5.163   6.942  14.493
71174W        W37583  35.804  35.043  11.999
71175W        W37584  38.275  33.674  12.527
71176W        W37585  22.121  31.404   2.347
71177W        W37586   1.668   6.692  12.524
71178W        W37587  33.468  28.288   3.249
71179W        W37588   9.353   0.210   2.214
71180W        W37589  38.413   2.691   0.228
71181W        W37590  29.725  22.645   2.316
71182W        W37591  31.010   7.484  10.233
71183W        W37592  14.213  39.203  13.074
71184W        W37593  22.961   7.680   3.572
71185W        W37594  35.126   0.644  10.247
71186W        W37595  13.238  18.850   4.483
71187W        W37596  26.593  44.695  13.252
71188W        W37597  44.717   4.378   4.587
71189W        W37598  42.452   7.488   2.433
71190W        W37599  22.585  22.471   4.279
71191W        W37600   3.223  17.875  11.862
71192W        W37601  11.795  12.673   1.215
71193W        W37602  30.260  30.500   1.316
71194W        W37603  42.280  36.645   1.441
71195W        W37604  31.152  34.553   0.724
71196W        W37605  29.936   7.246   0.788
71197W        W37606  17.294  35.041  14.164
71198W        W37607  11.091   7.119   2.119
71199W        W37608   8.262  12.580   0.469
71200W        W37609   6.413  15.081  12.988
71201W        W37610  25.271   5.961   4.350
71202W        W37611   3.963  13.636  11.188
71203W        W37612   9.645  29.563   3.842
71204W        W37613  33.691  39.538   0.712
71205W        W37614  44.223  18.059  14.801
71206W        W37615  31.388  31.068   4.220
71207W        W37616  23.454  18.257   2.795
71208W        W37617  10.733  12.230   1.994
71209W        W37618  31.067  41.025  12.908
71210W        W37619  40.950   8.058   4.251
71211W        W37620  25.495  31.104  10.422
71212W        W37621  27.534  36.300   4.886
71213W        W37622  13.589  32.427   2.333
71214W        W37623  36.126  42.782   2.135
71215W        W37624  30.163  15.725   1.524
71216W        W37625   7.637  43.420   4.843
71217W        W37626   8.931  13.431  13.039
71218W        W37627  11.649   9.149   2.759
71219W        W37628  29.411  40.901   4.793
71220W        W37629   5.890  15.378   1.948
71221W        W37630   8.734  40.140  11.093
71222W        W37631   8.729  32.487   0.760
71223W        W37632   4.943  16.666   1.677
71224W        W37633  34.368  34.427   4.598
71225W        W37634   5.025  35.868  11.733
71226W        W37635  30.637  42.898   4.194
71227W        W37636  10.127   7.897  12.967
71228W        W37637  25.376  18.033   2.431
71229W        W37638  18.258  36.996  14.870
71230W        W37639  19.136  33.816   4.064
71231W        W37640  19.796  28.011  12.100
71232W        W37641  33.476  25.408  10.564
71233W        W37642  20.142  26.487   4.624
71234W        W37643  11.147  12.495  11.564
71235W        W37644  25.488  18.478   2.829
71236W        W37645   1.533  34.648  11.575
71237W        W37646  12.215  11.385   4.103
71238W        W37647  20.879  16.572   0.645
71239W        W37648  29.666  16.414  13.949
71240W        W37649  12.370  14.463  14.111
71241W        W37650  25.485  19.683   2.209
71242W        W37651  29.892  21.967   2.750
71243W        W37652   1.071  38.121  12.399
71244W        W37653  44.242  28.423  11.236
71245W        W37654  38.648  41.872   4.072
71246W        W37655  30.912  14.903   2.004
71247W        W37656  14.783  43.661  13.521
71248W        W37657  25.559  35.033   2.197
71249W        W37658   2.754  32.501  14.543
71250W        W37659  29.655  37.615   2.613
71251W        W37660   3.485  21.232  11.695
71252W        W37661  35.643   5.940   0.985
71253W        W37662  40.401  43.352  14.983
71254W        W37663   1.987  26.571   0.838
71255W        W37664  25.456  38.514  10.730
71256W        W37665   4.471  31.558   4.919
71257W        W37666  34.188  30.517   3.593
71258W        W37667  31.964  29.410   2.350
71259W        W37668   1.815  42.174   3.783
71260W        W37669  32.158  27.779  11.676
71261W        W37670   8.724  36.398  13.918
71262W        W37671   0.982  11.183   3.611
71263W        W37672  43.329  11.520  13.912
71264W        W37673  40.468  15.688   0.747
71265W        W37674  43.913  35.105  11.066
71266W        W37675  11.343  20.999   2.213
71267W        W37676   8.716  17.079   0.736
71268W        W37677  24.937  27.301  11.609
71269W        W37678  19.416  33.971  11.519
71270W        W37679  31.369  36.287  11.483
71271W        W37680  40.785  38.730  14.245
71272W        W37681  44.960  38.865  12.816
71273W        W37682  13.744  25.178   1.924
71274W        W37683  26.542  23.676   2.296
71275W        W37684  20.625  11.255  12.182
71276W        W37685  37.247   3.682  11.432
71277W        W37686   5.185  11.619   1.219
71278W        W37687  24.005  38.866   0.851
71279W        W37688  27.133  12.115  10.770
71280W        W37689   1.002   0.034  10.752
71281W        W37690  24.973  40.511  12.398
71282W        W37691   1.821  26.184  12.069
71283W        W37692  30.095  44.035  12.138
71284W        W37693  37.673  36.324   2.386
71285W        W37694  12.692  42.271   1.790
71286W        W37695  19.920  42.868   3.504
71287W        W37696   6.334  36.935   3.164
71288W        W37697  33.503  28.633   0.419
71289W        W37698  16.472  15.650   2.918
71290W        W37699  29.498   9.374  14.041
71291W        W37700  25.475   8.616  13.936
71292W        W37701  39.951  10.693   3.767
71293W        W37702   9.588  10.270   1.147
71294W        W37703  32.553  15.392   4.200
71295W        W37704  25.640  14.409  13.759
71296W        W37705   0.853  28.880  10.586
71297W        W37706  20.174  37.822  14.376
71298W        W37707  14.370  36.629  14.889
71299W        W37708  37.193  12.720   1.660
71300W        W37709  14.814   4.164  12.054
71301W        W37710   0.397  10.714   4.125
71302W        W37711  21.225  24.662  13.417
71303W        W37712   9.409   0.956  12.459
71304W        W37713  13.298   4.456   0.982
71305W        W37714  29.434   0.198  11.350
71306W        W37715  32.415  35.848   3.108
71307W        W37716   5.814  12.602   1.461
71308W        W37717  35.645  17.862   1.291
71309W        W37718  31.589  42.579   4.994
71310W        W37719   0.790  14.192   0.472
71311W        W37720   4.464  26.617  12.623
71312W        W37721  38.895  26.479   2.879
71313W        W37722  31.998  29.923  14.390
71314W        W37723  42.374  29.671  11.670
71315W        W37724   0.713  20.762  11.425
71316W        W37725  17.265  20.254   0.512
71317W        W37726  38.954  29.308   1.809
71318W        W37727  20.068   8.186   3.222
71319W        W37728  38.322   5.827   3.702
71320W        W37729  31.613  40.500   4.146
71321W        W37730  43.261   0.450   1.339
71322W        W37731   7.869  12.181  14.835
71323W        W37732  22.966  35.870  11.156
71324W        W37733  37.902   9.839  11.592
71325W        W37734  42.957  10.918  13.739
71326W        W37735  27.987  15.006  12.808
71327W        W37736  36.868  13.285  12.405
71328W        W37737  42.805  19.051  13.312
71329W        W37738  40.748  32.892  14.448
71330W        W37739   5.611  10.828  13.986
71331W        W37740  32.968  29.841   3.675
71332W        W37741  13.277  32.890  11.484
71333W        W37742  28.687   7.435   1.360
71334W        W37743  13.109  44.378   4.383
71335W        W37744  18.802   0.413  13.657
71336W        W37745  34.537  17.081   2.110
71337W        W37746   8.390  25.924   2.830
71338W        W37747   4.898  20.768   4.639
71339W        W37748  22.248  19.665   1.752
71340W        W37749  10.859  35.017   3.750
71341W        W37750  20.664  12.891  13.911
71342W        W37751  19.606  40.609   3.711
71343W        W37752  43.869  23.010  10.662
71344W        W37753  16.724  39.806  13.927
71345W        W37754  34.061  31.089   2.745
71346W        W37755  21.632  25.945  12.429
71347W        W37756   7.145  16.717  10.598
71348W        W37757  31.610   4.316   3.627
71349W        W37758  35.271   7.198  14.452
71350W        W37759  17.353  25.138   5.024
71351W        W37760  23.780  43.688  11.835
71352W        W37761  34.067  40.843   0.378
71353W        W37762  29.437  42.139  10.697
71354W        W37763  39.787  17.027   0.277
71355W        W37764  19.202  29.006  13.457
71356W        W37765  44.389  17.458   4.613
71357W        W37766   2.798   2.919  10.790
71358W        W37767  37.119  15.221  13.980
71359W        W37768  19.515  33.093  11.941
71360W        W37769  31.515  44.857  11.370
71361W        W37770  32.527  10.227  13.245
71362W        W37771   2.988  24.578   1.751
71363W        W37772  20.775   9.323   4.103
71364W        W37773  22.317  18.977  11.952
71365W        W37774  17.987  10.279  13.935
71366W        W37775  27.117  38.859  11.063
71367W        W37776  10.803  44.828  12.114
71368W        W37777  14.427  16.820  11.413
71369W        W37778  14.868   5.993  11.661
71370W        W37779  26.504  20.719   1.923
71371W        W37780   5.985   0.209   0.387
71372W        W37781  17.801   1.823   1.186
71373W        W37782  33.435  23.226  14.524
71374W        W37783   2.472  12.603  10.780
71375W        W37784  18.292   4.890  11.264
71376W        W37785  31.899  25.563  14.303
71377W        W37786  36.863  35.897   3.892
71378W        W37787   3.642  16.096  14.066
71379W        W37788  36.161   3.565   4.898
71380W        W37789  11.250  42.977   0.347
71381W        W37790  10.784  17.161   0.204
71382W        W37791  35.313  41.439   3.368
71383W        W37792   1.048  34.535  12.804
71384W        W37793  37.944  17.554   3.017
71385W        W37794  23.629  29.622   4.504
71386W        W37795   7.054  38.680   3.429
71387W        W37796   4.042   9.653   1.251
71388W        W37797  15.740  12.329  10.785
71389W        W37798  35.425  34.445  10.405
71390W        W37799  28.700  11.468  12.637
71391W        W37800  26.818   6.939   2.146
71392W        W37801   8.645   7.271   1.172
71393W        W37802  21.748   5.279   0.386
71394W        W37803   2.889  28.886  12.469
71395W        W37804  15.946  15.265   4.321
71396W        W37805   0.202  35.894   3.144
71397W        W37806  11.850  39.374  10.651
71398W        W37807  11.254  18.622  12.650
71399W        W37808   4.202   2.283   0.905
71400W        W37809  38.772   7.875   1.256
71401W        W37810  41.192  10.947   4.809
71402W        W37811  16.175  12.101   0.307
71403W        W37812  22.517  21.054  13.856
71404W        W37813  13.286  26.535   1.947
71405W        W37814  19.669  27.124   4.294
71406W        W37815  18.117   3.453   0.299
71407W        W37816  41.052  39.924  10.599
71408W        W37817  26.482  37.802   4.980
71409W        W37818  33.183  11.065   1.037
71410W        W37819   8.775  30.201   1.886
71411W        W37820  16.503  36.162  13.372
71412W        W37821  41.728  10.709  14.217
71413W        W37822   2.694   4.410   4.588
71414W        W37823  26.981  29.652  14.841
71415W        W37824  39.878  37.023   0.515
71416W        W37825  24.980   1.520  11.170
71417W        W37826  17.017  41.485  13.020
71418W        W37827  33.435  40.326  14.263
71419W        W37828  13.385  28.614  13.010
71420W        W37829  15.512   7.270  12.036
71421W        W37830  22.553  18.931  11.480
71422W        W37831  40.572  34.117  10.514
71423W        W37832   4.642  37.461   9.836
71424W        W37833  30.978  28.073   1.919
71425W        W37834  25.109   2.327   0.358
71426W        W37835  11.315  29.155   4.638
71427W        W37836  30.955   1.099  11.870
71428W        W37837  18.562  16.060  11.588
71429W        W37838   0.443  41.964   4.834
71430W        W37839   1.805  11.705   5.037
71431W        W37840   5.982  22.727  12.012
71432W        W37841  31.521  39.581   4.456
71433W        W37842  31.289  32.013   2.763
71434W        W37843  25.297  14.279   4.528
71435W        W37844  16.771   3.063   4.577
71436W        W37845  25.012   8.598   9.719
71437W        W37846   4.200  14.597  12.876
71438W        W37847  15.732  43.989   1.347
71439W        W37848  41.922  44.745   2.012
71440W        W37849   5.621   1.304  14.416
71441W        W37850  31.798  25.629   1.332
71442W        W37851  31.011   5.615  14.382
71443W        W37852  39.955  29.413   1.966
71444W        W37853   3.423  23.554  11.159
71445W        W37854  28.990  21.108   1.380
71446W        W37855  17.673  44.283   2.940
71447W        W37856  23.010  15.245  11.988
71448W        W37857  38.294  13.789  14.910
71449W        W37858   2.418  31.858   3.697
71450W        W37859  41.968  28.901   4.215
71451W        W37860  35.889  18.390  14.921
71452W        W37861  11.114  24.905  12.653
71453W        W37862  36.059  29.571  11.565
71454W        W37863   0.519  17.334   3.522
71455W        W37864  28.023  36.744  13.673
71456W        W37865  34.977  22.177   1.794
71457W        W37866  19.295  35.081  12.833
71458W        W37867  23.552   3.284  14.960
71459W        W37868  23.791  11.664  12.040
71460W        W37869  33.993  35.618  11.943
71461W        W37870  39.062  16.349  12.939
71462W        W37871   7.237  37.953  10.691
71463W        W37872  41.235   0.480  14.853
71464W        W37873  12.983  20.088   4.108
71465W        W37874  17.176  24.206   4.631
71466W        W37875  23.382   5.423   1.412
71467W        W37876  16.518  28.557   1.013
71468W        W37877  42.461   3.194   4.615
71469W        W37878  18.659  10.896  14.815
71470W        W37879  24.536  12.030  11.528
71471W        W37880  32.092  11.236  10.734
71472W        W37881  37.925  24.731   3.636
71473W        W37882  18.156   0.733   0.800
71474W        W37883  18.039  34.345  14.352
71475W        W37884  18.780  20.524  14.465
71476W        W37885  29.732  12.097   0.815
71477W        W37886  39.321   6.501   3.214
71478W        W37887  39.989  43.803  13.354
71479W        W37888   9.640   7.433   1.316
71480W        W37889  18.749   6.145   4.603
71481W        W37890  23.356  15.385   3.226
71482W        W37891   0.461  41.999  14.532
71483W        W37892  26.088   4.145   2.002
71484W        W37893  35.286  15.247  11.669
71485W        W37894   6.241  44.303  13.031
71486W        W37895  15.231  34.826  10.156
71487W        W37896  15.556   8.025   4.989
71488W        W37897  43.020  11.162  11.265
71489W        W37898  39.805  27.853   0.291
71490W        W37899  44.830   0.558   3.687
71491W        W37900  10.873   3.401   2.794
71492W        W37901  32.143  43.540  12.589
71493W        W37902  34.576  18.543   3.252
71494W        W37903  21.310   5.282   2.359
71495W        W37904  28.914  18.044   4.582
71496W        W37905  32.106  33.986  12.762
71497W        W37906   1.041  37.522   3.775
71498W        W37907  39.999  30.092  11.144
71499W        W37908  28.252  25.540   9.941
71500W        W37909   9.734   9.623  11.930
71501W        W37910  34.473  34.130   0.360
71502W        W37911  14.543  42.462   4.592
71503W        W37912  29.486  30.212  13.823
71504W        W37913   3.771  39.957  14.315
71505W        W37914  42.936   3.804   4.214
71506W        W37915   3.741  35.958  13.513
71507W        W37916   9.291   6.877  10.754
71508W        W37917  13.712   2.975   3.334
71509W        W37918   6.839  40.766   2.846
71510W        W37919  19.345  44.107  14.229
71511W        W37920  44.775  41.971   2.769
71512W        W37921  23.589  32.901  13.005
71513W        W37922  42.730  10.701  14.168
71514W        W37923  11.363   3.489  14.839
71515W        W37924   8.714  40.753   0.876
71516W        W37925  12.587   8.415   1.380
71517W        W37926  35.719  31.295   1.381
71518W        W37927  22.182   0.709  12.403
71519W        W37928  23.079  33.623   3.390
71520W        W37929  44.982   6.210   2.099
71521W        W37930  29.705  30.115   3.316
71522W        W37931   5.747  31.575   4.647
71523W        W37932  17.581   6.690  10.762
71524W        W37933  40.800  19.161  14.304
71525W        W37934  27.534  25.194   3.535
71526W        W37935   8.144   7.817   2.596
71527W        W37936  44.929  29.720   2.305
71528W        W37937  36.929   1.715   0.967
71529W        W37938  14.107  27.038   4.678
71530W        W37939  25.017  12.400  11.862
71531W        W37940   6.134  42.373   2.668
71532W        W37941  10.693  41.959  10.806
71533W        W37942   2.260  17.024  13.014
71534W        W37943  30.941  14.715  14.665
71535W        W37944  23.928  21.164   4.531
71536W        W37945  29.120  30.881  14.255
71537W        W37946  11.724  18.035  13.926
71538W        W37947  38.876   7.788   2.219
71539W        W37948  16.380   7.699   2.385
71540W        W37949  28.375  25.136   3.242
71541W        W37950   7.133  14.682   2.834
71542W        W37951  21.234   5.495  13.045
71543W        W37952  18.092  15.604   2.316
71544W        W37953  20.102  19.514  13.035
71545W        W37954   9.681   7.240   2.192
71546W        W37955  13.245   6.436   4.577
71547W        W37956   9.880  41.018   4.766
71548W        W37957  23.986  42.469  13.885
71549W        W37958  20.116  43.704  13.391
71550W        W37959  42.522  31.657  14.890
71551W        W37960  21.237  28.990  10.720
71552W        W37961   6.347   5.091   0.669
71553W        W37962  14.865  21.514   3.189
71554W        W37963  43.330  21.142   0.809
71555W        W37964  26.541  18.030  14.934
71556W        W37965  32.673  10.233   0.914
71557W        W37966  35.366  18.025   4.266
71558W        W37967  30.690   9.997   9.788
71559W        W37968  35.510   2.382  12.905
71560W        W37969   5.904  37.639   2.749
71561W        W37970   6.836  12.277  12.456
71562W        W37971  23.764  33.934   0.457
71563W        W37972  23.728   4.871  14.918
71564W        W37973  19.714  33.919  12.512
71565W        W37974  11.604  42.527   2.324
71566W        W37975   3.427   7.850  12.346
71567W        W37976  33.556  14.534  13.018
71568W        W37977   6.852  27.034  13.263
71569W        W37978  12.803   3.482  13.504
71570W        W37979  25.702  44.564  11.640
71571W        W37980  31.234  15.186  11.114
71572W        W37981   5.241  22.132  11.252
71573W        W37982  28.093  21.607  12.401
71574W        W37983  10.829  23.245  12.585
71575W        W37984  41.518  22.839   4.568
71576W        W37985  39.160  22.052   4.244
71577W        W37986   7.523  37.920   3.519
71578W        W37987  37.637   2.925  11.838
71579W        W37988  25.577  24.214   9.697
71580W        W37989  15.309  19.347  14.535
71581W        W37990   3.699   4.227   3.960
71582W        W37991  43.687  38.349  14.266
71583W        W37992  35.199   3.730   3.757
71584W        W37993  31.670   3.120   1.041
71585W        W37994  44.624  29.763   5.085
71586W        W37995   0.933  24.463   3.265
71587W        W37996  42.243  22.100  13.842
71588W        W37997   5.755  29.487   4.265
71589W        W37998  16.331  22.202  12.388
71590W        W37999  37.961  39.610   1.869
71591W        W38000  36.512  29.418  12.761
71592W        W38001   5.917  32.717   0.355
71593W        W38002  12.188  22.829   4.982
71594W        W38003  41.948  28.153  14.457
71595W        W38004  38.314   6.814   4.550
71596W        W38005   6.069  17.358   1.633
71597W        W38006  23.258  24.236  11.192
71598W        W38007  17.069   9.393   0.004
71599W        W38008  37.738  38.444   2.878
71600W        W38009  42.035  24.162   4.228
71601W        W38010  15.321  37.621  10.429
71602W        W38011  18.055  41.591   1.021
71603W        W38012  38.646  30.756   0.278
71604W        W38013  14.551   5.219  12.627
71605W        W38014  42.789  41.892  11.207
71606W        W38015  34.845   6.377  13.390
71607W        W38016  44.959  17.535   4.220
71608W        W38017  20.665   9.576  13.015
71609W        W38018  11.441  22.091  14.400
71610W        W38019  31.729  26.739   3.145
71611W        W38020  23.502  42.572  10.609
71612W        W38021  27.932  11.396   0.224
71613W        W38022   4.741  11.824   5.111
71614W        W38023  34.219   7.960   0.316
71615W        W38024   5.466   1.364  14.919
71616W        W38025   6.341   3.850  14.826
71617W        W38026  22.983   7.461  14.828
71618W        W38027  30.388   3.594   0.186
71619W        W38028  30.390  25.096  14.345
71620W        W38029  35.592  42.418  11.399
71621W        W38030  37.003   6.903  14.408
71622W        W38031   0.396  21.515   0.260
71623W        W38032  21.126   2.630   0.274
71624W        W38033  24.434  43.427  13.348
71625W        W38034  44.440  17.349   1.701
71626W        W38035  43.953  19.070  12.425
71627W        W38036   9.435  37.370   2.293
71628W        W38037  35.607  20.209  10.557
71629W        W38038  36.590  38.221  14.835
71630W        W38039   8.748  15.618  10.646
71631W        W38040  41.852  40.424  12.568
71632W        W38041   5.648  31.093   2.960
71633W        W38042  16.716   7.623   2.797
71634W        W38043  30.204  40.525   4.706
71635W        W38044  33.092  41.128   1.810
71636W        W38045  37.374   1.791   4.522
71637W        W38046  26.489  32.881  13.468
71638W        W38047  30.863  23.497   2.366
71639W        W38048  41.948  26.882   1.867
71640W        W38049  32.905  41.470  13.408
71641W        W38050   3.407  42.433   0.587
71642W        W38051  31.650  26.179   1.078
71643W        W38052   5.510  19.117  13.411
71644W        W38053  26.420  39.386  12.107
71645W        W38054  26.409  35.617   2.276
71646W        W38055  13.797  22.156  13.945
71647W        W38056  37.343  30.975  12.578
71648W        W38057  19.937  30.136  13.520
71649W        W38058   5.784  10.969  10.455
71650W        W38059  26.687  20.250  12.838
71651W        W38060  10.672  27.419  14.835
71652W        W38061  34.842  10.245  11.617
71653W        W38062  35.354   8.205  14.357
71654W        W38063   0.443  25.163   1.666
71655W        W38064  41.871  12.618  11.673
71656W        W38065  44.901  15.667  11.521
71657W        W38066  22.667  18.681  12.209
71658W        W38067  34.815  36.263   0.093
71659W        W38068   0.328   9.516   2.048
71660W        W38069  40.890   4.309  14.332
71661W        W38070  41.963  19.707  12.605
71662W        W38071   6.261  43.674   2.244
71663W        W38072   7.919  24.312  12.439
71664W        W38073  27.099  13.571  13.988
71665W        W38074  13.849  26.768  12.551
71666W        W38075  38.169  11.808  14.217
71667W        W38076  36.481  16.773   3.222
71668W        W38077  12.520  21.169   2.850
71669W        W38078  30.960  20.607  13.866
71670W        W38079  40.323  35.486  13.471
71671W        W38080  12.893  11.372  13.630
71672W        W38081  43.944  40.000   3.920
71673W        W38082   7.845  24.745   1.979
71674W        W38083   2.222   4.538  12.977
71675W        W38084   8.327  42.109   0.900
71676W        W38085  23.264  26.747  11.562
71677W        W38086  23.042  25.135  12.394
71678W        W38087  44.637  40.417   1.781
71679W        W38088  31.732  34.537   4.015
71680W        W38089  17.644  30.341  12.536
71681W        W38090  41.400  19.179   0.052
71682W        W38091   9.054  31.471   9.850
71683W        W38092  38.604  41.305  10.671
71684W        W38093   0.431  44.752  14.975
71685W        W38094  39.428   9.806   4.308
71686W        W38095  21.465   9.703  13.544
71687W        W38096   9.683  44.995   0.932
71688W        W38097  27.914  40.066   4.433
71689W        W38098  10.034   8.248   3.711
71690W        W38099  19.735   7.640   2.823
71691W        W38100  39.977  33.307  11.183
71692W        W38101  21.620  34.089   1.978
71693W        W38102  27.450  29.871  13.585
71694W        W38103  41.475  39.652  13.716
71695W        W38104   7.841  30.639   1.417
71696W        W38105  19.644  34.822   1.642
71697W        W38106  17.868  39.500  11.571
71698W        W38107   8.150  25.018   2.416
71699W        W38108  23.024  12.627   3.096
71700W        W38109   8.044  33.673  14.950
71701W        W38110  17.747  18.322   3.162
71702W        W38111  41.932   0.901   0.302
71703W        W38112  14.339  11.188   3.708
71704W        W38113  26.363  38.321   2.733
71705W        W38114   5.734   7.694   3.156
71706W        W38115  40.235  11.789  12.425
71707W        W38116  35.927  34.187   0.402
71708W        W38117   3.221  33.026  14.774
71709W        W38118  10.576   7.547  14.299
71710W        W38119  21.302  21.801  14.812
71711W        W38120  13.774   7.236   1.368
71712W        W38121  13.350  27.393   4.808
71713W        W38122  31.622  39.557  14.441
71714W        W38123  18.976  10.206  10.960
71715W        W38124  43.503  39.947  14.417
71716W        W38125  14.646  42.289  14.621
71717W        W38126  35.819  29.796   3.606
71718W        W38127   4.901  26.507   3.816
71719W        W38128  34.304  14.558  13.409
71720W        W38129  13.829  35.918   2.315
71721W        W38130  22.103   1.139   2.804
71722W        W38131   1.365  13.248  11.282
71723W        W38132  12.144   7.312  13.562
71724W        W38133  40.642   8.839   1.881
71725W        W38134  18.186  18.120   2.175
71726W        W38135  43.301  30.715   3.891
71727W        W38136  21.756  32.527   0.385
71728W        W38137   6.947   0.795  11.225
71729W        W38138  37.618  15.155   0.744
71730W        W38139  24.714  13.848   0.828
71731W        W38140  18.277   8.694  13.650
71732W        W38141  11.414  39.569  10.845
71733W        W38142   4.156  12.185   1.699
71734W        W38143  43.394  34.073  12.863
71735W        W38144  41.746  12.113   0.442
71736W        W38145  25.084  35.540   3.221
71737W        W38146  14.226  26.645  10.890
71738W        W38147  35.064  22.691   3.567
71739W        W38148   8.701  29.071   2.356
71740W        W38149   1.732  25.618  11.193
71741W        W38150   2.944  40.962  12.589
71742W        W38151  16.880   9.857   4.642
71743W        W38152  11.681  43.353   5.202
71744W        W38153  44.541  44.851   0.749
71745W        W38154  41.049  42.435   4.110
71746W        W38155  22.204   0.926  11.031
71747W        W38156  22.845  39.318  13.299
71748W        W38157  32.649  27.469   1.256
71749W        W38158  33.498  44.855  13.252
71750W        W38159   6.852  12.956   0.771
71751W        W38160  39.148  12.708   2.283
71752W        W38161  18.712   4.680  10.353
71753W        W38162  27.029   3.657   1.840
71754W        W38163  14.507  24.518   2.825
71755W        W38164  43.395   2.339  13.770
71756W        W38165   8.482   0.958  10.053
71757W        W38166  22.576   0.406  12.528
71758W        W38167  10.357  41.425  11.922
71759W        W38168  41.853  12.155   3.635
71760W        W38169  16.892  20.544  10.393
71761W        W38170   2.507  26.690   0.848
71762W        W38171   7.658  39.757  13.908
71763W        W38172  25.960  39.275  13.874
71764W        W38173  17.066  18.037  14.524
71765W        W38174  39.608  34.179  12.944
71766W        W38175  31.564  39.010   3.674
71767W        W38176  31.035  41.164  14.852
71768W        W38177  26.967  35.054   4.886
71769W        W38178  23.318  28.461   4.647
71770W        W38179  16.597  42.586   4.544
71771W        W38180  44.699  19.125  12.134
71772W        W38181  31.852   0.756  10.954
71773W        W38182   6.921  33.097   9.983
71774W        W38183  25.665  19.815   4.121
71775W        W38184  29.649  44.422  12.850
71776W        W38185  23.600   7.098   3.717
71777W        W38186   8.412  31.936  14.959
71778W        W38187  39.784  23.126   0.819
71779W        W38188  41.862  43.051  10.506
71780W        W38189  36.383  13.156   0.487
71781W        W38190  26.913  19.477   4.912
71782W        W38191  11.720   7.262   4.030
71783W        W38192   5.723   3.374   3.193
71784W        W38193  26.621   3.294   1.781
71785W        W38194  42.965  43.919  13.306
71786W        W38195   4.483   0.705  10.302
71787W        W38196  42.060   5.370   1.668
71788W        W38197   3.671  27.923   1.314
71789W        W38198  14.930  34.607   2.684
71790W        W38199  38.502  22.090  11.111
71791W        W38200  18.653   2.479   4.757
71792W        W38201   1.948  39.344  13.755
71793W        W38202   4.146  17.666  13.326
71794W        W38203  22.039   5.704  13.546
71795W        W38204  23.992  25.688  11.636
71796W        W38205  15.261   7.616   1.342
71797W        W38206  20.638  17.244   4.664
71798W        W38207  26.476   1.898   1.797
71799W        W38208   4.786   4.321  12.450
71800W        W38209  41.205  42.274  13.803
71801W        W38210  14.791  27.926  14.686
71802W        W38211  14.206  11.692   2.976
71803W        W38212  29.855  19.767   0.938
71804W        W38213  17.205  28.459   3.966
71805W        W38214  42.388  43.529  13.506
71806W        W38215  12.789   1.675   0.723
71807W        W38216   7.877  39.814  13.017
71808W        W38217  10.293   6.266   4.108
71809W        W38218   7.936  37.858  11.931
71810W        W38219  38.055  41.538   3.425
71811W        W38220  14.837  33.560   4.660
71812W        W38221  20.076  21.797   3.620
71813W        W38222   3.541  41.312  12.224
71814W        W38223  18.202   6.313  13.649
71815W        W38224  30.576  36.307   0.805
71816W        W38225  37.593  15.755   4.339
71817W        W38226  15.279  12.529  10.732
71818W        W38227  18.525  11.648  10.393
71819W        W38228  12.700   2.669   0.740
71820W        W38229  41.846  18.534  11.275
71821W        W38230  26.711   2.766  14.342
71822W        W38231  42.776  38.906  12.550
71823W        W38232  22.324  19.571  12.567
71824W        W38233  18.842  22.386  14.338
71825W        W38234  42.174  32.044  10.135
71826W        W38235  42.026  19.159   2.264
71827W        W38236   1.891   3.817  13.349
71828W        W38237  26.232  41.579  13.665
71829W        W38238  32.676  22.151  13.953
71830W        W38239  34.120  30.473  14.367
71831W        W38240   1.033  39.294   3.311
71832W        W38241  43.118  44.824  14.818
71833W        W38242  10.772  33.644  14.644
71834W        W38243   2.225  27.100   3.916
71835W        W38244  20.154  33.145  12.562
71836W        W38245   7.275   9.192   3.680
71837W        W38246  18.930   6.853  10.978
71838W        W38247  37.032  17.324  13.407
71839W        W38248   8.978  16.855  14.325
71840W        W38249  22.737  27.203   1.303
71841W        W38250   7.523  18.929  11.569
71842W        W38251  37.071  32.896  14.809
71843W        W38252  23.111  16.589   0.347
71844W        W38253  35.652  12.129  11.311
71845W        W38254  35.636  38.884  13.883
71846W        W38255  28.066   3.194   0.478
71847W        W38256  16.294  23.219   4.672
71848W        W38257  34.297  34.359   1.775
71849W        W38258   6.475  36.371   0.922
71850W        W38259  22.049  19.209   1.912
71851W        W38260  21.605  32.852  10.563
71852W        W38261   4.512  37.589   2.116
71853W        W38262  34.364  10.730   2.640
71854W        W38263  17.888  24.199  12.975
71855W        W38264   7.737   7.062   2.321
71856W        W38265  11.681  27.858   1.900
71857W        W38266  20.260  12.449  12.824
71858W        W38267  22.279  10.700  12.203
71859W        W38268  22.536  41.053  12.793
71860W        W38269  37.297  19.510  12.926
71861W        W38270  26.640  24.645   4.179
71862W        W38271  12.646  21.712   4.531
71863W        W38272  30.030   7.868  12.099
71864W        W38273  33.600   8.092  11.181
71865W        W38274  21.979   7.708   2.948
71866W        W38275   7.203  28.203  11.055
71867W        W38276  32.166   3.488   2.617
71868W        W38277  43.311  10.132   2.168
71869W        W38278  15.343  25.711   0.120
71870W        W38279   3.447  14.709  13.662
71871W        W38280  23.905  29.775   4.101
71872W        W38281  29.147  38.899  14.318
71873W        W38282  31.703  16.534   1.285
71874W        W38283  40.614  25.576   1.671
71875W        W38284   1.396  40.069  12.157
71876W        W38285  33.339   5.928  14.767
71877W        W38286  20.013  30.622   4.055
71878W        W38287  40.839  21.850   3.663
71879W        W38288  15.460  19.750   4.180
71880W        W38289  16.722  33.054  13.787
71881W        W38290  44.123  43.047  10.699
71882W        W38291  35.573   8.120  11.954
71883W        W38292   2.264  11.691   2.450
71884W        W38293   3.938  42.767  14.267
71885W        W38294  41.405  22.518   0.447
71886W        W38295  18.622  43.657  11.960
71887W        W38296  32.814  18.780  13.089
71888W        W38297  16.640  27.033   1.904
71889W        W38298  39.159   5.487   4.429
71890W        W38299  28.014  25.955   1.289
71891W        W38300   7.856  34.558   0.261
71892W        W38301  35.141   4.141   3.220
71893W        W38302  13.365  28.166   1.762
71894W        W38303   3.224  38.362  12.473
71895W        W38304  29.014  16.725  13.186
71896W        W38305  36.907  26.946  14.774
71897W        W38306  25.013  30.472  14.897
71898W        W38307  36.874  23.462   4.127
71899W        W38308  36.066  26.798  14.000
71900W        W38309   1.960  34.986  12.304
71901W        W38310   5.853  25.894  12.898
71902W        W38311  23.552  39.566   4.876
71903W        W38312  14.574   1.701  14.462
71904W        W38313  25.951  33.600   3.862
71905W        W38314  28.529   4.769   2.066
71906W        W38315   1.768  33.624   4.116
71907W        W38316  42.119   7.161  11.130
71908W        W38317  12.166  35.378   2.287
71909W        W38318  38.145  23.970  10.765
71910W        W38319  37.777  43.984   1.226
71911W        W38320   4.230  25.751  10.335
71912W        W38321  33.394  33.149   3.576
71913W        W38322  20.542  19.062   1.931
71914W        W38323  13.720  32.348   0.864
71915W        W38324  16.304  20.091   3.792
71916W        W38325  18.930   6.254  14.887
71917W        W38326  20.760  11.274  11.220
71918W        W38327  18.457   1.831   2.285
71919W        W38328  38.419  13.267  13.349
71920W        W38329  12.789  16.084   2.243
71921W        W38330  28.107   3.559  14.433
71922W        W38331  10.738  13.522  14.373
71923W        W38332   7.609   5.358  13.438
71924W        W38333  26.936  40.790   4.426
71925W        W38334  18.725   7.818   1.407
71926W        W38335  42.484  32.044  12.853
71927W        W38336  10.821  20.401   0.796
71928W        W38337  42.885  20.374   1.274
71929W        W38338  26.003  37.069   0.219
71930W        W38339  15.782   0.848  13.111
71931W        W38340   3.164  39.709   1.336
71932W        W38341  18.017  30.498  11.175
71933W        W38342  39.629  28.980   0.455
71934W        W38343  28.175  36.120  14.982
71935W        W38344  28.359  34.665  11.143
71936W        W38345  41.484  26.740  12.875
71937W        W38346   1.782  10.909  14.565
71938W        W38347   2.185   2.011  11.947
71939W        W38348  18.518  28.050   4.204
71940W        W38349  42.735  38.934   1.010
71941W        W38350  15.986   1.415   4.180
71942W        W38351   6.195  29.362   4.018
71943W        W38352  40.563  23.007  11.191
71944W        W38353  18.581  37.387   3.267
71945W        W38354   6.501  10.685  12.619
71946W        W38355   3.794  25.056   2.042
71947W        W38356  38.418  26.201  14.043
71948W        W38357   4.149  43.950   4.582
71949W        W38358  20.004  15.846  11.671
71950W        W38359  23.577  35.469   1.962
71951W        W38360   8.643  29.007   0.369
71952W        W38361  44.788  23.114  11.631
71953W        W38362  29.084  35.314   1.415
71954W        W38363  26.180  29.075  13.959
71955W        W38364  12.185  13.284   0.053
71956W        W38365  16.475  12.263  11.170
71957W        W38366   3.755  24.297   3.186
71958W        W38367  38.956  41.867   0.336
71959W        W38368  42.896  35.272  13.368
71960W        W38369  36.575  18.771   1.797
71961W        W38370   2.539  44.665  12.208
71962W        W38371  12.671  43.811   2.666
71963W        W38372  15.643  24.462   3.656
71964W        W38373   3.774  33.277   3.823
71965W        W38374  14.172  35.464  12.072
71966W        W38375  43.437  24.986  10.923
71967W        W38376  22.224   1.269   4.162
71968W        W38377   9.341  37.025   1.686
71969W        W38378   1.835   2.493  12.514
71970W        W38379  14.032  22.743   2.805
71971W        W38380  42.774  22.031  11.597
71972W        W38381  36.690  32.891  13.858
71973W        W38382  18.027  19.777  10.634
71974W        W38383  28.797   2.694  13.528
71975W        W38384  10.839  41.476   0.646
71976W        W38385  34.829  35.348   2.927
71977W        W38386  38.824  25.585   1.308
71978W        W38387  28.378  44.905   3.244
71979W        W38388   0.499  31.105  13.553
71980W        W38389  33.425  18.478  14.010
71981W        W38390  29.524  41.234  14.400
71982W        W38391  27.049  37.472  13.899
71983W        W38392  28.723  34.596  11.970
71984W        W38393  34.875   2.244   1.376
71985W        W38394  12.096  44.909  14.442
71986W        W38395  21.671  39.295   0.927
71987W        W38396  42.926  37.302   0.952
71988W        W38397  40.063  31.670   0.924
71989W        W38398   3.419  27.600  11.438
71990W        W38399  14.571  25.099  12.005
71991W        W38400   8.347  21.212  14.386
71992W        W38401   0.374  10.970   1.873
71993W        W38402   2.976   1.715   3.680
71994W        W38403  28.732  23.832   1.819
71995W        W38404  15.307   9.755  12.974
71996W        W38405  44.991  40.036  14.274
71997W        W38406  31.426  40.453  11.419
71998W        W38407  23.577   8.319   0.033
71999W        W38408  18.312  20.624  13.323
72000W        W38409  27.682  32.423  14.882
72001W        W38410  20.546  20.199   1.188
72002W        W38411  16.735  42.270   2.832
72003W        W38412  42.047  27.228  11.262
72004W        W38413   3.229  36.599   2.769
72005W        W38414   7.842  28.129   5.437
72006W        W38415  36.966   0.696  14.136
72007W        W38416  24.167  44.138   3.790
72008W        W38417   6.682  21.117   1.409
72009W        W38418   4.619   0.297  13.800
72010W        W38419  35.326  14.046   4.238
72011W        W38420  10.974  15.259   1.845
72012W        W38421  20.014  31.265  14.852
72013W        W38422   6.636  14.353   4.231
72014W        W38423  40.091  34.418   3.067
72015W        W38424  29.708  28.286  11.887
72016W        W38425  31.619   5.378  12.594
72017W        W38426  15.440   5.796  13.784
72018W        W38427  17.700  43.181   3.842
72019W        W38428  27.526  15.101  14.882
72020W        W38429   7.198  40.923  14.052
72021W        W38430  40.046  25.477   2.736
72022W        W38431   9.655  34.553   2.893
72023W        W38432  15.291  23.071   3.211
72024W        W38433  31.411  31.494  11.253
72025W        W38434  36.061  10.271  13.246
72026W        W38435  29.046   5.700   4.776
72027W        W38436   0.900  28.677  11.936
72028W        W38437  14.557  10.348  14.273
72029W        W38438  30.138  43.565   3.300
72030W        W38439  10.742  35.336  10.693
72031W        W38440   5.324  21.182  10.172
72032W        W38441   8.326  24.113  13.893
72033W        W38442  38.141  18.348  11.588
72034W        W38443  19.037  16.254  11.583
72035W        W38444  17.053  30.577  10.282
72036W        W38445  18.106  14.291   2.060
72037W        W38446   5.753  27.559  14.107
72038W        W38447  40.136  36.091   5.050
72039W        W38448   8.843  17.020   4.534
72040W        W38449  19.826  28.013  13.514
72041W        W38450  35.434  26.133  13.391
72042W        W38451  18.829  10.811  10.386
72043W        W38452  44.733  16.185   4.308
72044W        W38453  20.078  44.167   3.217
72045W        W38454   5.072   8.417   2.867
72046W        W38455  39.283  23.228  11.551
72047W        W38456  24.021  36.090  13.892
72048W        W38457  16.812  43.825  11.562
72049W        W38458  43.430  19.105   3.319
72050W        W38459  11.885  38.325   4.038
72051W        W38460  23.043   5.173  11.483
72052W        W38461  44.395  19.128   0.385
72053W        W38462  20.117  19.769   1.729
72054W        W38463  12.082  44.513   0.725
72055W        W38464  13.920  35.895   3.890
72056W        W38465  43.770  35.820  12.372
72057W        W38466  36.294  40.415  12.606
72058W        W38467  25.850  25.927   1.957
72059W        W38468  16.579  29.402  12.265
72060W        W38469  34.870  35.898   2.909
72061W        W38470  38.148  40.183  13.401
72062W        W38471  43.847  26.563  12.365
72063W        W38472  32.272  15.794   4.102
72064W        W38473  37.089  18.085   5.286
72065W        W38474  28.237  11.835  10.536
72066W        W38475  35.330   0.599  10.730
72067W        W38476   9.627   3.060   3.735
72068W        W38477  28.486  40.501  10.675
72069W        W38478  23.088  33.711   9.896
72070W        W38479  25.847   7.856   2.343
72071W        W38480   1.735  21.029   2.725
72072W        W38481   9.874   0.461   1.004
72073W        W38482  24.894  18.728  12.582
72074W        W38483  20.184  13.785  11.393
72075W        W38484  20.257   7.877  13.448
72076W        W38485  41.536   6.181   4.259
72077W        W38486  23.693  20.468  14.002
72078W        W38487  21.036  43.221   0.200
72079W        W38488  37.128  30.857   3.208
72080W        W38489  26.646  14.774   2.171
72081W        W38490  29.653  25.620   0.288
72082W        W38491  21.770  27.883  10.275
72083W        W38492  27.194   3.928   4.441
72084W        W38493  23.175  13.414   1.825
72085W        W38494  30.355  41.322   3.650
72086W        W38495  17.838  10.235   3.141
72087W        W38496  21.533   5.713   2.059
72088W        W38497  21.187  40.317   2.037
72089W        W38498  13.193  18.370   4.693
72090W        W38499  13.189  14.306  10.470
72091W        W38500  34.880  31.411  12.615
72092W        W38501  18.547  44.061  12.949
72093W        W38502  19.694  29.469   2.346
72094W        W38503  36.525  11.336   1.168
72095W        W38504  21.565  44.843   3.531
72096W        W38505   0.143   0.736   0.027
72097W        W38506   1.318  15.344  12.484
72098W        W38507  21.083  36.685  12.333
72099W        W38508  43.724  35.128   2.882
72100W        W38509  36.571  25.645  13.958
72101W        W38510  30.864  28.452  14.179
72102W        W38511  14.251   7.436  11.555
72103W        W38512  12.653  41.595   0.293
72104W        W38513  14.698   1.922   5.508
72105W        W38514  22.241   8.690  10.749
72106W        W38515  28.108  25.915  11.497
72107W        W38516   0.310  30.917   2.103
72108W        W38517  36.048   4.430   3.744
72109W        W38518  36.526  30.237   0.365
72110W        W38519  35.258  29.125  11.894
72111W        W38520  29.873  40.900  10.514
72112W        W38521  28.751  33.736  13.554
72113W        W38522  11.301   7.280   2.602
72114W        W38523   5.377  37.407  12.430
72115W        W38524  42.768  16.793  13.898
72116W        W38525  39.416  43.588  14.577
72117W        W38526   1.403  18.650   3.389
72118W        W38527  26.570  26.708  11.860
72119W        W38528  30.660  15.803  12.609
72120W        W38529   4.902  37.578  13.424
72121W        W38530  11.922  33.600  14.398
72122W        W38531  34.259  20.197  12.990
72123W        W38532  24.899  42.568  12.963
72124W        W38533  10.387  15.311   0.395
72125W        W38534  30.371  12.549  11.275
72126W        W38535  29.947  25.792   2.293
72127W        W38536   6.901  35.878  12.048
72128W        W38537  29.022  18.286   1.271
72129W        W38538  22.865   5.156  13.793
72130W        W38539  35.847   5.854   4.658
72131W        W38540  40.560   8.814  12.171
72132W        W38541   9.064  18.558   4.954
72133W        W38542  16.791  24.067   0.731
72134W        W38543  17.755   1.962   2.664
72135W        W38544  20.648  27.198  14.691
72136W        W38545  16.159  41.537  12.518
72137W        W38546   3.366   3.509   1.361
72138W        W38547  41.061   6.334  12.398
72139W        W38548  20.109  32.642  12.549
72140W        W38549  26.066  13.315  12.469
72141W        W38550  41.735  23.708   2.192
72142W        W38551  44.979  23.626  12.400
72143W        W38552  10.701  17.906  12.150
72144W        W38553  26.952  12.609   1.891
72145W        W38554  14.367  12.704   1.489
72146W        W38555   4.511  39.754  11.627
72147W        W38556  38.588  24.611   0.371
72148W        W38557  38.846  25.613  13.434
72149W        W38558   3.923  11.934   4.557
72150W        W38559  32.951   5.317  14.356
72151W        W38560   9.913  31.086   2.232
72152W        W38561   1.166   8.282   0.447
72153W        W38562  10.578  16.073   3.255
72154W        W38563   5.878  32.096   4.645
72155W        W38564  27.189  28.183   2.976
72156W        W38565   9.881  20.254   1.922
72157W        W38566  41.534  40.828  10.778
72158W        W38567  24.575  27.277  10.693
72159W        W38568  38.060   8.159  12.071
72160W        W38569  38.443   9.646   1.429
72161W        W38570  16.299  29.857  11.629
72162W        W38571   4.736   9.772   3.388
72163W        W38572   3.777  34.587  12.074
72164W        W38573  35.959   9.491  13.930
72165W        W38574   8.966  29.928  13.033
72166W        W38575  11.830  26.152   2.265
72167W        W38576  32.795  43.962   3.154
72168W        W38577   9.147   6.407   2.864
72169W        W38578  39.870  25.094   2.160
72170W        W38579  19.616  24.026  12.585
72171W        W38580  31.661   1.955   0.020
72172W        W38581  12.407  42.502   0.711
72173W        W38582   7.731  29.153   1.411
72174W        W38583  15.883  15.305  14.225
72175W        W38584  12.226  37.358   2.449
72176W        W38585   2.254  38.115   2.119
72177W        W38586   1.641   5.884  14.922
72178W        W38587  28.735  18.705  13.747
72179W        W38588  22.447  21.948   4.317
72180W        W38589   1.864  38.404   0.176
72181W        W38590  17.291  22.058  13.106
72182W        W38591  13.702  13.776   2.659
72183W        W38592  44.818  31.611  14.822
72184W        W38593  42.597  28.925  12.963
72185W        W38594  18.825   6.352  11.044
72186W        W38595  33.415  28.427   4.058
72187W        W38596  23.170  36.448   1.296
72188W        W38597   7.656  29.664   1.311
72189W        W38598  11.289  17.485  14.514
72190W        W38599  19.061  36.445  14.139
72191W        W38600  36.086   4.829  12.343
72192W        W38601  34.446  21.199   1.205
72193W        W38602  13.099  14.770  13.108
72194W        W38603  27.932  26.637   3.221
72195W        W38604  34.858  43.044  13.082
72196W        W38605  21.720  19.063  13.328
72197W        W38606  40.886  14.101   4.027
72198W        W38607   8.134  14.590  13.451
72199W        W38608  12.731   0.686   0.669
72200W        W38609  26.726   1.479   1.665
72201W        W38610  35.866  36.188   1.520
72202W        W38611   9.908  17.047   0.790
72203W        W38612  30.161  14.222  14.406
72204W        W38613  21.755  25.677  14.892
72205W        W38614  11.235  38.732   4.496
72206W        W38615  15.899  30.042   2.246
72207W        W38616  20.604   7.409   3.167
72208W        W38617  29.597   8.602   4.940
72209W        W38618  14.547  32.572   2.421
72210W        W38619  30.384  38.357   3.816
72211W        W38620  26.026  24.632   4.474
72212W        W38621   8.513  22.663   1.958
72213W        W38622  23.650  28.875  12.898
72214W        W38623  33.355   5.653  14.311
72215W        W38624  42.849  27.696  11.117
72216W        W38625  24.698  15.250  13.826
72217W        W38626  14.099   0.937  12.614
72218W        W38627  12.705  37.100  11.062
72219W        W38628   7.726   0.628  11.087
72220W        W38629  24.203  19.004  11.150
72221W        W38630   9.787  26.164   0.226
72222W        W38631  36.130   9.760  10.679
72223W        W38632  12.361  13.233  12.632
72224W        W38633  14.085  28.343  10.796
72225W        W38634  11.887  22.959   0.295
72226W        W38635  40.193  30.362   2.223
72227W        W38636   1.816  21.834   1.682
72228W        W38637   2.798  43.713   0.794
72229W        W38638  29.656  26.576   1.908
72230W        W38639  11.748  43.241   2.835
72231W        W38640  23.435  16.068   0.897
72232W        W38641  13.837   0.255  14.776
72233W        W38642  44.934  30.397  11.607
72234W        W38643  23.523  25.717   4.190
72235W        W38644   0.190  30.944   1.239
72236W        W38645  41.556   7.338   0.853
72237W        W38646  13.696   0.193   4.583
72238W        W38647  10.069  12.355  13.976
72239W        W38648  26.414  41.861  12.541
72240W        W38649  36.933  24.083  14.875
72241W        W38650  28.075   8.830   1.808
72242W        W38651  10.294  35.815   2.803
72243W        W38652  24.174  20.800  12.261
72244W        W38653   1.985  22.509   1.159
72245W        W38654  44.810  39.352   3.276
72246W        W38655  18.760   0.855   2.902
72247W        W38656  12.647  23.087   3.832
72248W        W38657  28.157  18.600  11.652
72249W        W38658   6.227  12.314  10.612
72250W        W38659  26.591  35.317  11.633
72251W        W38660  27.209   6.436  13.680
72252W        W38661  27.457  19.622  13.565
72253W        W38662  38.434  12.816  11.449
72254W        W38663  40.720  37.755   3.255
72255W        W38664   8.357   4.955   0.025
72256W        W38665  28.184  28.596  13.914
72257W        W38666  36.962  29.568  13.984
72258W        W38667  34.486  18.276   2.805
72259W        W38668  21.013  22.220  14.918
72260W        W38669   0.766   1.330   4.203
72261W        W38670  35.672  25.479   2.669
72262W        W38671  16.085  11.808   3.608
72263W        W38672  29.001  42.372   0.187
72264W        W38673  37.552   8.112  11.970
72265W        W38674  33.079  25.223  10.277
72266W        W38675  15.927  10.895   2.111
72267W        W38676   3.644  36.819   3.692
72268W        W38677  20.533  23.569  13.909
72269W        W38678  19.142  22.217   1.321
72270W        W38679   4.223  41.390   4.103
72271W        W38680   8.359  11.351  13.091
72272W        W38681  42.958  25.789  14.543
72273W        W38682  17.821  34.343  13.851
72274W        W38683   7.764  41.796  14.829
72275W        W38684   2.162  28.828  10.894
72276W        W38685  34.356  11.277   4.133
72277W        W38686  33.391  14.075  11.437
72278W        W38687  27.071  42.806  10.749
72279W        W38688  17.650   2.849   4.769
72280W        W38689  41.059  38.229  12.481
72281W        W38690  23.191  44.738   0.856
72282W        W38691  35.842  17.542  10.994
72283W        W38692  32.475  16.549  11.909
72284W        W38693  11.860  22.954   5.374
72285W        W38694  28.667  32.933  13.770
72286W        W38695  28.198   2.696   0.442
72287W        W38696  43.427  14.588  11.973
72288W        W38697  39.297  31.368  13.867
72289W        W38698   2.696  26.545   0.357
72290W        W38699   8.917  42.695  14.928
72291W        W38700   6.349  28.594   3.287
72292W        W38701  40.012   7.683   3.160
72293W        W38702   6.489   2.154  11.625
72294W        W38703   8.663   4.158   2.282
72295W        W38704  36.326  15.109  12.453
72296W        W38705  30.930   2.151   0.365
72297W        W38706   2.468  36.383   1.181
72298W        W38707  43.381  40.060  12.384
72299W        W38708  37.469  40.273  12.594
72300W        W38709  30.392  33.982   3.259
72301W        W38710   4.077  33.932  14.242
72302W        W38711  40.545   6.220  13.452
72303W        W38712  38.906  27.575   4.957
72304W        W38713  29.709  29.779  13.983
72305W        W38714  41.902  44.922  14.415
72306W        W38715  22.706  42.572   0.704
72307W        W38716  38.538   0.915  11.400
72308W        W38717  23.602  40.903   3.437
72309W        W38718  10.029   4.622  14.198
72310W        W38719   4.094  29.354  13.934
72311W        W38720  24.531  36.637   3.020
72312W        W38721  16.848  10.565   0.228
72313W        W38722  29.647  43.837   2.619
72314W        W38723  14.167  15.289   1.710
72315W        W38724   9.283  43.047   3.823
72316W        W38725   1.830  20.386   4.163
72317W        W38726   9.765   7.160   0.873
72318W        W38727  40.345  21.413   3.218
72319W        W38728  21.205  42.998   3.188
72320W        W38729  34.673  42.975  13.576
72321W        W38730   0.528  32.671   0.277
72322W        W38731  10.767   4.700  10.085
72323W        W38732  31.168  10.359   4.222
72324W        W38733  37.871  31.004  12.572
72325W        W38734  38.940  10.803   2.804
72326W        W38735   7.138  31.684   2.718
72327W        W38736   9.790  24.128   4.574
72328W        W38737  14.609  27.745   3.487
72329W        W38738  21.952  14.688  13.055
72330W        W38739  22.483  30.643  10.834
72331W        W38740  35.642  21.011  13.817
72332W        W38741   9.131  40.850  11.783
72333W        W38742  40.099  13.382   2.708
72334W        W38743  36.444  13.135  12.998
72335W        W38744  27.700  18.757   2.616
72336W        W38745  12.497  43.961   1.252
72337W        W38746  11.768   9.199  13.449
72338W        W38747  19.503   9.193   1.753
72339W        W38748   3.998   8.601  10.763
72340W        W38749  18.199  42.679   1.586
72341W        W38750  44.932  13.154  14.830
72342W        W38751  21.785  20.682   1.433
72343W        W38752  43.307  24.381   0.901
72344W        W38753  19.306  26.027  11.604
72345W        W38754  17.750  23.509   1.424
72346W        W38755   1.962  19.478  11.156
72347W        W38756  38.422  10.725   1.450
72348W        W38757  21.779  29.964   1.908
72349W        W38758   2.178  15.323   3.737
72350W        W38759   2.434   8.181  14.033
72351W        W38760  37.042  16.144   3.061
72352W        W38761  39.940  32.444  14.388
72353W        W38762   2.773  42.543   1.474
72354W        W38763  22.592  24.218   3.648
72355W        W38764  32.059   5.567   5.453
72356W        W38765   1.943  16.714   4.049
72357W        W38766  19.649   5.907  11.804
72358W        W38767   5.123  22.776  13.744
72359W        W38768  34.500  32.203   0.962
72360W        W38769  42.353   1.906   1.802
72361W        W38770  19.712  40.396  11.582
72362W        W38771  34.341  41.981  12.581
72363W        W38772  10.841  29.215   2.618
72364W        W38773  10.295  39.593   3.721
72365W        W38774  29.241  32.384   3.414
72366W        W38775   1.285   0.007  13.889
72367W        W38776   0.843   3.639   0.779
72368W        W38777   7.624  14.788   4.242
72369W        W38778  11.567  34.031   4.658
72370W        W38779  29.008  18.573  14.950
72371W        W38780  21.032   2.462  13.241
72372W        W38781   4.724  37.584   4.274
72373W        W38782  15.854  32.592   3.400
72374W        W38783  17.185   7.391   1.392
72375W        W38784  41.788  41.945   4.594
72376W        W38785   8.054  12.575  11.514
72377W        W38786   5.788   7.488   4.171
72378W        W38787  10.774   4.244  13.360
72379W        W38788  33.427  19.979  12.356
72380W        W38789  30.740  38.174   2.877
72381W        W38790  38.187  40.143   3.749
72382W        W38791  28.242  16.150   4.656
72383W        W38792  27.909  28.857   1.625
72384W        W38793   5.267  10.215  14.288
72385W        W38794  41.443  32.804   0.716
72386W        W38795  35.752  12.732  12.880
72387W        W38796  37.994  30.163   0.039
72388W        W38797  36.426  14.706  13.983
72389W        W38798  10.617  10.767  11.915
72390W        W38799  17.118  27.464  13.488
72391W        W38800   9.837   9.773   2.722
72392W        W38801  31.415   6.239  11.125
72393W        W38802   5.330   0.808  13.808
72394W        W38803  39.090  41.261   2.627
72395W        W38804  12.188  21.241  12.362
72396W        W38805  23.526  15.030   2.398
72397W        W38806  23.793  19.698  10.737
72398W        W38807  35.126  13.749   2.811
72399W        W38808  18.685  29.526  12.354
72400W        W38809  42.987  16.379   4.597
72401W        W38810  42.824  25.539   4.123
72402W        W38811  35.272  19.616  13.611
72403W        W38812  31.175  30.559   1.384
72404W        W38813   5.308   1.683   0.299
72405W        W38814  18.632  22.710  12.812
72406W        W38815  37.469  37.767   1.826
72407W        W38816  35.686  21.074   1.263
72408W        W38817  30.162   2.885   1.813
72409W        W38818  44.917  15.927  11.070
72410W        W38819  17.217  30.473   0.439
72411W        W38820   0.744  42.479  14.917
72412W        W38821  30.386  13.324  14.139
72413W        W38822  36.599  23.806   3.194
72414W        W38823   7.447  38.563   0.596
72415W        W38824  32.258  42.462  11.514
72416W        W38825   8.740  16.073  13.872
72417W        W38826  26.950   3.949   2.254
72418W        W38827  33.565  10.682   1.176
72419W        W38828  31.057  43.406  14.431
72420W        W38829  37.616  30.818  11.155
72421W        W38830  42.406  12.828   1.025
72422W        W38831  17.832  19.159   2.676
72423W        W38832  23.896   2.248   3.266
72424W        W38833  25.538  19.431   5.076
72425W        W38834  22.634  37.548  11.726
72426W        W38835  25.358  42.167  12.525
72427W        W38836  20.017  44.537  11.544
72428W        W38837  30.525   2.902   2.672
72429W        W38838  40.060  32.644  10.628
72430W        W38839  38.678  27.417   0.645
72431W        W38840  26.188  39.796  14.956
72432W        W38841  38.068  34.540  11.488
72433W        W38842  26.415  25.448   0.101
72434W        W38843  26.054  35.873   2.003
72435W        W38844  29.030  31.910   0.789
72436W        W38845  40.163  15.587   2.315
72437W        W38846  18.922  39.036   4.134
72438W        W38847  33.535  18.037  12.530
72439W        W38848   4.155  10.961   3.570
72440W        W38849  43.255   2.021  12.230
72441W        W38850  38.260  35.461  12.946
72442W        W38851   4.867  39.576  12.397
72443W        W38852  12.324  10.885  14.326
72444W        W38853  22.548  34.491  14.353
72445W        W38854   7.917  21.740   1.338
72446W        W38855  26.467   2.420   3.349
72447W        W38856  22.796  39.039  11.966
72448W        W38857  10.388  10.929   3.197
72449W        W38858  23.234  25.248   3.680
72450W        W38859  25.012  27.504  14.938
72451W        W38860  30.640  31.593  11.908
72452W        W38861  28.664   0.853  14.259
72453W        W38862  44.597  42.882  10.534
72454W        W38863  33.346  24.880  12.634
72455W        W38864  41.701   9.582   3.133
72456W        W38865  19.026  27.640  12.471
72457W        W38866  34.390  32.994   3.705
72458W        W38867   8.353  36.084  13.007
72459W        W38868   4.149  39.295   2.838
72460W        W38869  41.348  15.225  10.260
72461W        W38870   1.738  33.939  14.246
72462W        W38871  26.486  15.641  11.250
72463W        W38872  44.251   7.695   3.669
72464W        W38873  32.852  18.351  11.961
72465W        W38874  29.825  26.631  10.240
72466W        W38875  43.284   6.463  10.698
72467W        W38876  28.514  11.365  11.237
72468W        W38877  41.417  10.105  13.042
72469W        W38878  13.082  26.168  13.392
72470W        W38879   5.898  32.872  14.227
72471W        W38880  17.559  12.255   4.233
72472W        W38881  10.804  13.843   4.273
72473W        W38882   3.542   0.945  13.542
72474W        W38883  42.425  29.821  10.832
72475W        W38884  21.023  12.300  14.432
72476W        W38885  32.159  32.656   3.767
72477W        W38886  30.005  10.831  11.519
72478W        W38887   9.636  15.312  12.415
72479W        W38888  40.276  34.534   0.529
72480W        W38889  31.468  40.547  12.530
72481W        W38890  43.842  13.677   0.059
72482W        W38891  36.009   8.872   0.951
72483W        W38892  18.138  23.617   4.138
72484W        W38893  35.881  23.500   3.934
72485W        W38894   0.672  14.393   0.934
72486W        W38895  27.652  35.003  10.723
72487W        W38896  33.728  21.464   0.970
72488W        W38897  39.451  19.916  12.728
72489W        W38898   0.609  11.903  10.363
72490W        W38899  23.975  25.952   1.895
72491W        W38900  42.309  27.924  14.796
72492W        W38901  34.051  19.317  11.147
72493W        W38902  20.744  35.035   3.742
72494W        W38903  20.502  41.907  12.635
72495W        W38904   2.010  14.154   4.417
72496W        W38905  19.785  28.089   4.634
72497W        W38906  11.321  14.706  13.187
72498W        W38907  42.358   3.186  14.924
72499W        W38908  14.776  17.301  14.563
72500W        W38909   8.307  13.230   1.624
72501W        W38910  21.765   4.754   4.554
72502W        W38911  21.332  16.171   2.209
72503W        W38912  27.037  26.215  12.952
72504W        W38913   1.017  42.623  10.678
72505W        W38914  30.860  27.906   3.251
72506W        W38915  11.929   3.727   1.747
72507W        W38916  40.545  43.145   0.948
72508W        W38917  29.639  31.554   1.794
72509W        W38918   4.286   9.243  12.362
72510W        W38919  12.125  30.148  13.327
72511W        W38920  37.396   5.228  11.785
72512W        W38921  33.141  41.773   2.712
72513W        W38922  15.871   0.153   2.341
72514W        W38923  35.048  37.186  13.464
72515W        W38924  35.310  34.838  11.151
72516W        W38925  37.642  28.018   5.251
72517W        W38926  36.364  12.814   9.823
72518W        W38927  35.621  10.085   2.700
72519W        W38928  10.153  25.516  14.493
72520W        W38929  14.801  12.282  11.616
72521W        W38930  24.902  27.481   4.774
72522W        W38931  42.304  33.602   2.322
72523W        W38932   5.947  13.206   3.403
72524W        W38933  30.122  41.499   0.250
72525W        W38934   2.393  15.030  10.795
72526W        W38935  11.471   9.872  11.627
72527W        W38936  21.497  21.763  12.521
72528W        W38937   5.857  28.560   3.169
72529W        W38938  39.928  20.531   4.166
72530W        W38939  39.459  27.015   4.685
72531W        W38940  42.837  34.204   1.473
72532W        W38941  22.837  23.217  12.121
72533W        W38942  16.582   5.909   1.649
72534W        W38943  43.832  26.463  14.518
72535W        W38944  19.075  42.977   3.311
72536W        W38945  35.302  43.208   2.216
72537W        W38946  35.632  39.022   4.783
72538W        W38947  24.867  33.589   0.401
72539W        W38948  12.761   5.283  10.446
72540W        W38949  16.051   6.504  12.094
72541W        W38950   0.312  21.285  11.917
72542W        W38951  19.728  14.722   0.652
72543W        W38952   4.491  28.866  13.552
72544W        W38953  15.483  17.675  10.978
72545W        W38954  26.511  37.389   0.304
72546W        W38955  17.197  26.725  13.064
72547W        W38956   7.843  29.407  12.626
72548W        W38957  14.956  15.557   1.091
72549W        W38958  35.058  13.245   0.260
72550W        W38959  12.384   0.943   3.142
72551W        W38960  27.920  21.628   4.627
72552W        W38961  15.577  21.466  13.473
72553W        W38962  14.682  20.731   3.712
72554W        W38963  19.314  21.987   0.792
72555W        W38964   8.920  16.660  10.614
72556W        W38965  31.073   0.211   0.239
72557W        W38966  10.621  25.690  14.495
72558W        W38967  15.215  24.580   4.329
72559W        W38968   5.538  11.445  14.260
72560W        W38969  40.805  15.860  11.181
72561W        W38970   4.289  22.783   4.128
72562W        W38971   7.762   7.585   2.343
72563W        W38972  16.412   1.696   1.105
72564W        W38973  19.885   4.395  14.391
72565W        W38974  42.617  39.988   4.705
72566W        W38975  35.996   6.730  11.583
72567W        W38976  18.262   6.337   2.844
72568W        W38977   2.326   6.169   3.254
72569W        W38978   6.301  32.198  12.795
72570W        W38979   8.684  41.940  14.548
72571W        W38980  44.440  35.857  12.073
72572W        W38981  16.980  13.388  12.621
72573W        W38982   4.301  22.078  10.108
72574W        W38983  24.536  38.338   1.258
72575W        W38984  18.027  28.436  14.816
72576W        W38985  23.773  31.501   1.261
72577W        W38986  20.127   5.966  12.622
72578W        W38987  18.543  28.488   2.948
72579W        W38988  38.812  34.781   9.857
72580W        W38989  21.413  30.480  13.208
72581W        W38990  17.730  21.528  12.547
72582W        W38991  21.168  11.367   2.876
72583W        W38992  23.042   0.178  13.317
72584W        W38993  13.501  23.468   3.772
72585W        W38994  18.807  44.717   3.653
72586W        W38995  37.793   1.402   1.880
72587W        W38996   7.965  15.632   2.221
72588W        W38997  27.303  19.532   2.326
72589W        W38998   0.593  18.795   0.497
72590W        W38999  26.118   1.861   2.197
72591W        W39000  35.512  17.034  14.951
72592W        W39001  17.311  19.032   1.614
72593W        W39002  42.461  23.912  14.557
72594W        W39003  38.955   1.505  12.518
72595W        W39004  39.547  16.272   3.150
72596W        W39005  30.502   1.404  12.009
72597W        W39006   1.195  10.203  12.346
72598W        W39007  39.800   6.886  13.809
72599W        W39008  36.173  44.487  10.726
72600W        W39009  16.323  14.035   4.875
72601W        W39010   8.625  24.550  13.800
72602W        W39011  30.464  41.116   0.221
72603W        W39012  19.486  41.884  10.722
72604W        W39013   0.858  38.002   3.700
72605W        W39014  15.333  43.523   2.631
72606W        W39015  30.923  13.456  14.910
72607W        W39016  22.770  33.958  12.433
72608W        W39017   1.741  27.968   3.647
72609W        W39018   8.647  37.065   3.333
72610W        W39019   4.413   9.430   0.420
72611W        W39020  38.941  34.242  11.757
72612W        W39021  38.004   7.835  13.975
72613W        W39022  24.254  14.109   0.840
72614W        W39023  18.529  41.315   1.202
72615W        W39024   5.255   5.898   1.854
72616W        W39025  43.185  31.654   4.726
72617W        W39026  36.430  41.370   4.632
72618W        W39027  34.402   3.270   1.633
72619W        W39028  22.760  24.707  12.456
72620W        W39029  26.631  23.260  14.166
72621W        W39030  38.506   4.550  10.727
72622W        W39031  12.549  42.379   3.179
72623W        W39032  42.003   5.344   3.095
72624W        W39033  18.060  15.485   3.210
72625W        W39034   3.291  13.044  11.959
72626W        W39035  22.081  37.560   1.035
72627W        W39036  15.308  39.528   3.673
72628W        W39037   8.930   0.452   4.672
72629W        W39038  17.709  28.254   1.814
72630W        W39039   9.809  32.462   1.627
72631W        W39040  17.959  12.872   0.891
72632W        W39041   9.529  11.931   3.312
72633W        W39042  11.123  37.055  14.046
72634W        W39043   8.761   7.144  12.583
72635W        W39044  10.736  16.049   1.122
72636W        W39045  38.536   8.197  14.981
72637W        W39046  40.069   9.198  13.286
72638W        W39047  38.659  20.518   3.372
72639W        W39048   3.231  32.930  11.836
72640W        W39049   9.793  14.601   0.901
72641W        W39050  24.928  22.073   2.263
72642W        W39051   0.682   8.899   1.442
72643W        W39052   6.263  41.894   4.937
72644W        W39053   1.549   5.401   3.329
72645W        W39054  27.077   2.812  13.933
72646W        W39055   1.715  29.088  10.705
72647W        W39056  27.236  26.893   2.208
72648W        W39057  42.532   5.711  13.414
72649W        W39058  20.574  42.814   4.176
72650W        W39059  19.266   3.385  12.805
72651W        W39060  22.580  32.555   3.801
72652W        W39061   0.069  43.977   2.857
72653W        W39062  32.233   0.767  12.977
72654W        W39063   8.222  22.647  13.545
72655W        W39064  23.892  27.155   3.364
72656W        W39065  14.083  30.516   2.178
72657W        W39066  25.945  33.642   2.481
72658W        W39067  11.223  14.981  11.599
72659W        W39068  19.530   0.704  12.067
72660W        W39069  15.176  44.365  13.302
72661W        W39070  34.224  21.581   0.912
72662W        W39071  19.649  33.306   2.475
72663W        W39072  43.221  13.699  10.441
72664W        W39073  22.531  28.575  11.234
72665W        W39074  18.105   9.343   4.661
72666W        W39075   3.270  32.432  13.936
72667W        W39076  38.536  24.565  14.468
72668W        W39077  43.462  24.720   4.100
72669W        W39078  34.148  40.833   4.078
72670W        W39079   0.718   5.436   3.955
72671W        W39080   8.377  42.637   0.992
72672W        W39081  41.742   5.145  11.090
72673W        W39082  44.395  28.373  10.739
72674W        W39083  12.179  23.476  13.424
72675W        W39084  34.730   1.979  11.518
72676W        W39085  14.899  16.162   4.485
72677W        W39086   3.485  23.977   0.956
72678W        W39087   1.641  33.966   0.785
72679W        W39088  35.569  14.691  11.860
72680W        W39089  34.818   7.351  14.262
72681W        W39090   0.373  23.742  11.992
72682W        W39091   3.404  42.300  12.361
72683W        W39092   5.849   8.253   0.010
72684W        W39093  32.943  17.899   4.040
72685W        W39094   4.371   5.973  10.665
72686W        W39095  43.470  39.769  10.924
72687W        W39096  41.541  28.610   2.489
72688W        W39097  24.694  27.711  14.063
72689W        W39098  18.247  39.622   4.570
72690W        W39099  42.515  11.960   4.057
72691W        W39100   6.385  14.278   1.409
72692W        W39101  27.698  44.097   0.818
72693W        W39102   3.792   7.491  12.396
72694W        W39103  44.042  26.486   4.619
72695W        W39104  41.290  11.067  11.589
72696W        W39105  38.599   9.230  10.737
72697W        W39106  24.386  32.380   1.906
72698W        W39107  23.592   1.383   1.837
72699W        W39108  40.843  28.468   0.993
72700W        W39109  30.438   1.299   2.381
72701W        W39110  11.617  20.980   0.769
72702W        W39111   5.944  19.749  12.483
72703W        W39112  11.162  10.007  12.104
72704W        W39113  42.256   1.805   4.747
72705W        W39114  29.537  23.328   2.857
72706W        W39115  18.534  44.260   3.576
72707W        W39116  29.653  14.727   2.714
72708W        W39117  20.069  19.463   0.854
72709W        W39118   9.038  22.476   3.688
72710W        W39119   7.607  14.701   2.222
72711W        W39120  26.402   0.558   4.092
72712W        W39121  18.349  24.851   3.257
72713W        W39122  39.573  41.928  12.593
72714W        W39123  15.082   7.214  13.804
72715W        W39124  20.158  38.990  13.718
72716W        W39125  25.439  22.990  12.603
72717W        W39126  35.403  31.697  13.459
72718W        W39127   0.761  23.593  13.093
72719W        W39128  32.518  15.275  11.457
72720W        W39129  13.682  18.572  10.310
72721W        W39130  44.329  28.062   2.007
72722W        W39131  19.320  14.046   3.695
72723W        W39132   7.773   3.038  11.980
72724W        W39133   2.441  23.963   0.659
72725W        W39134  40.594  42.271   0.730
72726W        W39135  30.424  28.044  12.377
72727W        W39136  30.168  33.084   3.675
72728W        W39137  44.056   6.342   1.295
72729W        W39138  40.039  24.449   0.438
72730W        W39139   4.695   8.595  13.818
72731W        W39140  38.063  21.092   2.864
72732W        W39141  29.074   3.586   0.889
72733W        W39142  24.953  21.005   9.794
72734W        W39143  13.295  40.061  14.416
72735W        W39144  14.407  29.672   1.231
72736W        W39145  20.596  34.361   4.492
72737W        W39146  25.518  19.991   5.042
72738W        W39147   6.971  10.612   2.693
72739W        W39148  14.837   0.905   9.724
72740W        W39149   9.438  25.954   2.173
72741W        W39150  26.459  26.752  10.562
72742W        W39151  24.514  41.319  13.435
72743W        W39152  43.933   6.539   4.999
72744W        W39153  32.643  44.315  14.056
72745W        W39154  23.606  14.370   4.682
72746W        W39155  19.483  25.543  11.349
72747W        W39156  16.000  23.235  11.062
72748W        W39157   2.396   3.018   0.692
72749W        W39158  12.184  23.794   0.583
72750W        W39159  41.473  13.298   1.862
72751W        W39160  19.655   2.434  11.124
72752W        W39161  43.752  39.402  12.375
72753W        W39162  27.909  40.290   3.707
72754W        W39163   2.778  12.160  11.550
72755W        W39164  25.588   1.990  12.343
72756W        W39165   8.420  37.381  14.860
72757W        W39166   2.336  41.479   0.787
72758W        W39167   9.905  10.892   2.395
72759W        W39168   9.598   0.868   5.028
72760W        W39169  13.659   2.686   2.905
72761W        W39170  36.564  11.763  11.057
72762W        W39171   8.603  37.192   1.099
72763W        W39172  19.820  31.793   2.100
72764W        W39173  27.415  14.577  13.079
72765W        W39174   4.737  14.075  14.719
72766W        W39175   9.816  39.317   0.718
72767W        W39176  32.598  20.925   4.177
72768W        W39177  38.022  11.556   1.955
72769W        W39178  10.151   1.285  14.380
72770W        W39179  38.033  34.128  11.814
72771W        W39180  35.432  35.435  12.009
72772W        W39181  36.946  27.255  12.698
72773W        W39182  32.960  32.648   2.319
72774W        W39183   3.828  24.063  11.549
72775W        W39184  42.842  15.879   4.510
72776W        W39185  35.191  18.026   5.176
72777W        W39186   8.910   9.702   2.304
72778W        W39187  28.171  33.200   2.074
72779W        W39188  27.621  33.972   1.908
72780W        W39189   5.625   6.868   3.567
72781W        W39190   7.293  33.544  13.747
72782W        W39191   7.877   6.556   2.329
72783W        W39192  39.868   2.850  14.779
72784W        W39193  42.867  42.892   3.307
72785W        W39194   7.165   1.888  14.689
72786W        W39195  21.023  42.543  14.906
72787W        W39196   6.187  26.541  13.035
72788W        W39197  12.796  20.845  11.601
72789W        W39198  19.077  27.693  13.406
72790W        W39199  39.927  15.278  13.033
72791W        W39200   7.233   2.938   1.138
72792W        W39201   6.409  43.797   4.040
72793W        W39202  35.395  35.488  13.511
72794W        W39203   6.630  33.629   0.340
72795W        W39204   1.866   8.830   4.671
72796W        W39205  23.853   4.643  11.056
72797W        W39206  31.446  14.136  13.844
72798W        W39207  36.351  43.806  11.576
72799W        W39208   8.625   7.098  14.360
72800W        W39209  13.655  39.798  13.090
72801W        W39210   6.262  31.945  13.777
72802W        W39211  37.452  17.465   3.677
72803W        W39212  12.612  37.403   4.707
72804W        W39213  15.762  10.850   0.334
72805W        W39214  39.293   3.514   2.257
72806W        W39215  37.014  24.637  14.355
72807W        W39216  10.549  42.533  11.962
72808W        W39217  11.729  36.905  14.033
72809W        W39218   6.322  17.609   3.309
72810W        W39219  27.863  25.585   3.285
72811W        W39220  12.182  12.265   4.684
72812W        W39221  36.982  35.666   0.300
72813W        W39222  18.658  34.924   0.726
72814W        W39223   5.248  35.987   4.305
72815W        W39224   6.663  42.068   0.939
72816W        W39225  16.530  38.781   1.408
72817W        W39226  29.353   9.592   0.413
72818W        W39227   4.531  29.007  10.828
72819W        W39228  17.685  15.302   2.379
72820W        W39229   4.205  11.576  13.965
72821W        W39230  11.388  35.654   4.960
72822W        W39231  39.638  33.725  11.421
72823W        W39232  29.654  42.740   1.840
72824W        W39233  28.421  31.965   3.238
72825W        W39234  41.653  32.444  12.511
72826W        W39235  23.147   6.879  13.844
72827W        W39236   8.836  10.182  14.527
72828W        W39237  40.998  19.697   4.680
72829W        W39238  35.114   4.421  10.603
72830W        W39239  32.570   0.239  12.399
72831W        W39240  22.070  29.336  12.528
72832W        W39241  44.002  36.452   3.912
72833W        W39242   1.417  21.304   2.370
72834W        W39243  27.633  19.145   3.841
72835W        W39244  38.888  25.217  13.875
72836W        W39245  28.720  25.443   0.329
72837W        W39246  37.646  17.761   1.218
72838W        W39247  38.528  20.661  10.601
72839W        W39248  33.578  21.754  14.508
72840W        W39249  20.227  22.922  13.335
72841W        W39250  38.155  37.041   3.593
72842W        W39251   0.295  42.927  11.994
72843W        W39252  43.969  23.670   2.338
72844W        W39253   4.570  21.184   3.254
72845W        W39254  40.287   8.210  13.402
72846W        W39255  28.068  19.350  10.615
72847W        W39256  30.581  14.839   1.002
72848W        W39257  25.637   8.937  13.516
72849W        W39258   9.956   5.365   2.766
72850W        W39259  25.927   8.668   2.122
72851W        W39260  16.642  31.200   2.000
72852W        W39261  18.518  31.531  12.978
72853W        W39262  14.749  44.805  12.086
72854W        W39263  40.342  42.754  13.885
72855W        W39264  12.414   7.650   3.688
72856W        W39265  23.647  21.783  13.490
72857W        W39266   2.296  30.535  12.195
72858W        W39267  25.552  14.844   2.231
72859W        W39268   6.881   9.622  14.302
72860W        W39269  21.513  30.078   2.343
72861W        W39270  17.628  23.058  14.504
72862W        W39271  24.585  40.439   3.277
72863W        W39272  16.582  39.584  12.101
72864W        W39273   5.640  20.560   1.751
72865W        W39274  37.219  15.657   2.251
72866W        W39275   6.714  43.584   0.015
72867W        W39276  28.561  30.343   0.247
72868W        W39277  25.504  35.544  10.712
72869W        W39278  42.390  16.528   2.827
72870W        W39279   6.428  17.879   1.314
72871W        W39280  35.203  28.145   5.012
72872W        W39281   9.495  22.091  12.612
72873W        W39282  35.993  15.615   2.924
72874W        W39283  44.968  22.050  14.880
72875W        W39284  28.131  27.641  13.828
72876W        W39285  42.581  27.543   0.049
72877W        W39286  43.433  14.192   0.908
72878W        W39287  27.023  20.356  11.610
72879W        W39288   7.315  36.080   3.175
72880W        W39289  37.309  35.059  14.048
72881W        W39290  15.116   0.503  11.468
72882W        W39291  18.532  14.795   1.883
72883W        W39292  30.111   0.046  14.349
72884W        W39293  38.508  43.479  14.313
72885W        W39294  11.635  10.178  10.985
72886W        W39295  29.047  19.365   1.890
72887W        W39296  40.524   7.496   0.048
72888W        W39297   5.347   5.224  11.621
72889W        W39298  15.350   3.756   4.076
72890W        W39299  25.756  20.467   0.959
72891W        W39300  43.780  27.807  11.666
72892W        W39301  16.380   9.196   4.879
72893W        W39302   7.343   9.614  11.051
72894W        W39303  42.201  32.487   2.451
72895W        W39304   2.770  11.097  10.804
72896W        W39305   1.235  34.373  12.330
72897W        W39306   5.952  23.624   2.124
72898W        W39307   8.095  21.769   3.331
72899W        W39308  19.517  42.849  12.636
72900W        W39309  24.494  37.058   1.792
72901W        W39310  19.737   6.909   4.161
72902W        W39311  32.314   3.926  12.069
72903W        W39312   1.094   3.233  11.119
72904W        W39313  27.442   9.146   0.311
72905W        W39314  37.036  39.602   0.862
72906W        W39315  17.039   4.504  12.926
72907W        W39316  31.400   6.487  14.465
72908W        W39317   0.905  17.964   0.281
72909W        W39318  41.853   1.152  12.904
72910W        W39319  43.984   5.204   2.322
72911W        W39320  43.894  40.462  14.943
72912W        W39321   6.878  26.087   4.562
72913W        W39322  18.283  13.525  14.596
72914W        W39323   8.834  20.679   2.283
72915W        W39324   6.646  26.316   0.234
72916W        W39325  29.522  25.184   1.380
72917W        W39326  40.849  20.969  10.775
72918W        W39327  17.791  23.141   4.558
72919W        W39328  11.770  26.556  11.268
72920W        W39329   4.943   7.319   4.529
72921W        W39330  21.253  16.287  11.407
72922W        W39331  14.772   9.426  14.323
72923W        W39332  18.480   6.713   2.294
72924W        W39333  27.017  29.787  11.410
72925W        W39334  24.141  19.541   4.872
72926W        W39335  23.135  44.554  11.392
72927W        W39336   8.606   1.479  13.433
72928W        W39337   2.942   9.655  14.043
72929W        W39338  39.589   7.775   0.801
72930W        W39339  35.058  38.420  12.933
72931W        W39340  16.645  15.783  11.616
72932W        W39341  21.883  16.750  12.637
72933W        W39342  10.190  35.548  10.252
72934W        W39343  31.917   5.737  14.384
72935W        W39344  27.999  23.393  11.669
72936W        W39345   1.817  35.382   0.477
72937W        W39346  33.538   2.218   2.382
72938W        W39347  41.356  41.294   4.189
72939W        W39348  19.282  19.639  12.603
72940W        W39349  14.660  40.512   3.250
72941W        W39350  19.711   7.915   2.378
72942W        W39351  10.623  17.694   1.367
72943W        W39352  37.416  43.088   2.126
72944W        W39353  12.920   7.272  14.731
72945W        W39354  10.151  10.595   2.822
72946W        W39355  27.149   7.101   9.693
72947W        W39356  33.034  19.629   4.150
72948W        W39357  14.587  19.097   1.408
72949W        W39358  16.700  27.003  12.432
72950W        W39359   1.313  31.069   1.217
72951W        W39360  17.659   1.457  10.677
72952W        W39361  37.953  10.725  14.155
72953W        W39362   2.754  39.367   2.611
72954W        W39363  37.916  29.294  14.753
72955W        W39364  15.181   5.460  11.250
72956W        W39365  25.006   7.766  13.400
72957W        W39366  23.082   8.201   1.269
72958W        W39367  21.480  27.029   1.676
72959W        W39368  41.557  36.429  10.787
72960W        W39369  19.565  30.825  13.849
72961W        W39370   1.742  28.912  14.801
72962W        W39371  26.247  25.094   0.499
72963W        W39372   0.585   1.706   4.527
72964W        W39373   4.217   5.814   4.125
72965W        W39374  41.285  12.494   0.424
72966W        W39375  22.606   5.318   4.587
72967W        W39376  11.383  41.961   4.587
72968W        W39377  18.627  31.131  11.963
72969W        W39378  30.998   7.638  12.491
72970W        W39379  34.657  14.658   2.654
72971W        W39380  16.193  25.944  14.448
72972W        W39381   6.335   1.784  10.729
72973W        W39382   4.486  35.925  11.631
72974W        W39383  34.391   9.623  14.077
72975W        W39384  44.254  36.428   5.062
72976W        W39385  25.711  13.768  14.880
72977W        W39386  38.845   7.185  13.863
72978W        W39387   3.477  39.747   0.929
72979W        W39388  42.416  21.272   4.202
72980W        W39389  11.799  38.092   3.600
72981W        W39390  24.521  15.648   2.866
72982W        W39391  24.677  13.643  11.666
72983W        W39392  44.379  25.605  10.834
72984W        W39393  23.519  10.833  11.690
72985W        W39394  21.319  13.025  14.998
72986W        W39395  32.630   4.509   5.497
72987W        W39396   9.214  17.689   0.278
72988W        W39397  35.904  15.764  13.437
72989W        W39398  44.829  26.759   1.033
72990W        W39399   3.251  17.060   3.791
72991W        W39400  31.215   9.569   3.231
72992W        W39401  33.899   4.379   2.897
72993W        W39402   4.790  31.723   2.791
72994W        W39403  20.245  25.021   4.864
72995W        W39404  37.157   0.530   4.126
72996W        W39405  32.578  32.677   1.155
72997W        W39406   0.101  40.664   1.767
72998W        W39407  29.457   6.085   3.210
72999W        W39408   4.680  12.615  12.097
73000W        W39409  35.407  31.004  14.800
73001W        W39410  37.856  12.655  13.910
73002W        W39411  15.952  26.159  10.377
73003W        W39412   8.784  11.160   1.260
73004W        W39413  41.359   0.752   3.182
73005W        W39414  21.476  18.361  12.052
73006W        W39415  36.375  38.816   4.318
73007W        W39416   2.019  11.797   4.138
73008W        W39417  28.466   7.202   0.729
73009W        W39418  30.141  31.421  14.061
73010W        W39419  22.485   9.133   0.820
73011W        W39420  39.059   0.261   0.709
73012W        W39421  22.634  26.324  11.622
73013W        W39422  24.002  26.104  13.868
73014W        W39423  13.323   5.678  11.510
73015W        W39424  20.186   8.846   1.003
73016W        W39425  44.201  12.786   1.005
73017W        W39426  40.551  32.046  11.983
73018W        W39427  19.315  19.573   0.417
73019W        W39428  32.902  10.039   3.542
73020W        W39429  30.077  29.989   1.950
73021W        W39430  13.670  26.909   3.698
73022W        W39431  15.719  33.680  12.394
73023W        W39432   6.690  13.694  12.984
73024W        W39433  38.335  25.737   4.756
73025W        W39434   3.093  44.208  11.157
73026W        W39435  12.213  13.660  12.869
73027W        W39436  30.442  15.649   1.967
73028W        W39437  36.974  15.418  14.439
73029W        W39438  22.704  23.207   4.558
73030W        W39439   4.605   7.455  12.913
73031W        W39440  36.799  24.232  14.015
73032W        W39441  35.606   3.826  13.104
73033W        W39442  24.602   2.962   0.778
73034W        W39443  44.141  36.440  13.884
73035W        W39444  33.028  21.637   3.849
73036W        W39445  11.707  26.733   0.824
73037W        W39446  33.481   8.679  13.582
73038W        W39447  32.610  14.500  12.526
73039W        W39448   4.664   7.205   2.858
73040W        W39449  11.561  29.202  13.327
73041W        W39450  15.820  18.582  11.311
73042W        W39451  42.550  24.461   0.302
73043W        W39452  17.765  44.502   0.428
73044W        W39453  21.500  21.658   4.151
73045W        W39454  33.499  23.300  12.779
73046W        W39455  30.061  17.660  11.873
73047W        W39456  38.563  13.826   4.908
73048W        W39457  11.281  29.318   0.746
73049W        W39458  41.663  14.189   0.179
73050W        W39459  34.549  26.755   4.697
73051W        W39460  20.031  31.878  13.114
73052W        W39461  28.458  17.663  11.464
73053W        W39462  23.973  38.328   4.138
73054W        W39463   3.866  38.459  14.416
73055W        W39464  34.680  21.138  13.025
73056W        W39465  17.060  17.380   3.772
73057W        W39466   3.874  24.998  13.894
73058W        W39467  25.535  22.587   3.058
73059W        W39468  39.530  26.542  11.863
73060W        W39469  27.062   6.124  10.741
73061W        W39470  23.723  44.390  10.641
73062W        W39471  14.637  27.034   1.200
73063W        W39472  36.839  28.837  12.166
73064W        W39473  21.245  16.443  13.397
73065W        W39474  37.478  41.726  12.923
73066W        W39475  21.930   9.695  12.799
73067W        W39476  12.857  32.668   1.892
73068W        W39477  17.746  10.952  12.938
73069W        W39478  44.728  33.948  11.268
73070W        W39479  44.967  17.890  13.507
73071W        W39480  30.422  16.581  13.209
73072W        W39481  13.093   4.785   1.327
73073W        W39482  37.526   8.154   2.461
73074W        W39483  39.145  36.175  11.710
73075W        W39484  29.769  40.085  14.314
73076W        W39485   7.885  12.782   2.767
73077W        W39486  38.341  27.371  11.163
73078W        W39487  30.487  37.893  13.585
73079W        W39488   5.053  33.627  13.418
73080W        W39489   6.066  38.930  12.076
73081W        W39490  43.541   6.606   4.090
73082W        W39491  32.001  43.278  12.997
73083W        W39492   4.180  17.764  12.108
73084W        W39493  31.852   4.806  13.851
73085W        W39494  42.412  16.181  10.436
73086W        W39495  12.578  18.870   0.242
73087W        W39496  15.306  33.689  13.937
73088W        W39497  43.973  34.805   1.360
73089W        W39498  11.430   1.322  14.798
73090W        W39499  35.848  14.253  11.758
73091W        W39500  34.334  12.567  12.857
73092W        W39501  29.260  13.748  11.366
73093W        W39502  39.219  10.552   0.435
73094W        W39503  12.679   6.845  10.722
73095W        W39504  23.443  40.305   4.750
73096W        W39505  10.563  36.401  13.820
73097W        W39506  26.860  41.045  12.830
73098W        W39507  28.625  42.811  11.206
73099W        W39508  34.016   7.881  13.567
73100W        W39509   8.604   4.410   1.830
73101W        W39510   4.495  40.944  13.632
73102W        W39511  18.742  30.887   4.264
73103W        W39512  12.151  39.165  11.437
73104W        W39513  26.680  24.245  11.155
73105W        W39514  19.362  13.653  12.311
73106W        W39515   1.741  35.020  10.945
73107W        W39516  21.500  39.512   3.791
73108W        W39517  23.475  14.393   1.829
73109W        W39518  19.124  15.565  13.048
73110W        W39519  14.355  32.378   1.659
73111W        W39520  39.347  22.735  11.652
73112W        W39521   4.270  37.171  14.898
73113W        W39522  23.132  11.332   0.844
73114W        W39523  26.450   1.673  12.900
73115W        W39524  30.422  19.591   1.712
73116W        W39525  21.561  12.786   3.391
73117W        W39526  42.710  17.878   3.577
73118W        W39527  27.949  31.976   0.007
73119W        W39528  38.215   5.634  12.437
73120W        W39529  31.093  17.441   4.197
73121W        W39530   4.124  24.011   5.295
73122W        W39531  30.134  32.035  12.505
73123W        W39532  36.591   1.448  14.249
73124W        W39533  22.508  24.996   3.216
73125W        W39534  41.097  14.671   2.629
73126W        W39535  16.878  34.359  14.809
73127W        W39536   2.965  34.363   0.424
73128W        W39537  37.672  11.715   1.054
73129W        W39538   2.329  21.266   4.168
73130W        W39539  22.196  31.887  12.019
73131W        W39540  15.412  26.550   0.842
73132W        W39541  14.074  12.649   4.453
73133W        W39542  39.103  22.527  12.146
73134W        W39543  13.507  28.083  11.387
73135W        W39544  15.214  40.285  14.117
73136W        W39545  30.738  39.430   3.274
73137W        W39546  42.369  27.091   0.284
73138W        W39547  11.261  27.911   0.707
73139W        W39548   6.855  11.953  14.522
73140W        W39549  36.101  22.740  12.196
73141W        W39550  37.071  36.896  11.667
73142W        W39551  34.765  26.056  12.755
73143W        W39552  21.190  24.434   1.863
73144W        W39553  43.023  23.619  13.436
73145W        W39554   5.912  35.435   3.745
73146W        W39555  32.913   6.696  12.513
73147W        W39556  23.060  41.507   3.460
73148W        W39557  20.849  30.020  13.522
73149W        W39558   6.312  27.994  11.653
73150W        W39559  26.570   1.568   4.188
73151W        W39560  15.285   6.140   0.392
73152W        W39561   4.692   2.778   4.463
73153W        W39562  35.549   2.397   3.708
73154W        W39563   2.031  11.183  12.653
73155W        W39564  38.349  11.434   1.012
73156W        W39565  15.113  21.722  13.519
73157W        W39566  20.920  12.654   0.884
73158W        W39567  10.259  37.961   0.524
73159W        W39568   2.085  31.020   3.380
73160W        W39569  18.248  11.117  14.560
73161W        W39570  22.817  18.130  13.099
73162W        W39571   2.998  30.255  13.846
73163W        W39572  30.664  30.746  11.570
73164W        W39573  43.926  39.027   2.415
73165W        W39574  26.664  25.654  14.083
73166W        W39575  27.492  18.666   4.599
73167W        W39576  23.620   4.781   3.319
73168W        W39577  15.666  23.889  12.455
73169W        W39578  33.499  43.956  14.458
73170W        W39579   1.513  32.600  10.670
73171W        W39580  42.305  40.832  11.102
73172W        W39581   1.474  19.344  10.533
73173W        W39582  20.810  14.277   1.175
73174W        W39583  17.579   4.590   4.019
73175W        W39584  22.966   2.312  11.580
73176W        W39585  37.901  26.886  14.073
73177W        W39586  17.679   2.644   0.365
73178W        W39587  24.232  42.297  14.294
73179W        W39588  23.191  13.859  10.763
73180W        W39589  34.394  22.830   4.683
73181W        W39590   0.057   4.014   1.361
73182W        W39591   5.808  16.695  13.978
73183W        W39592   4.008  12.108  12.483
73184W        W39593  11.398   9.865  12.547
73185W        W39594  10.545   0.991  13.463
73186W        W39595   9.587  10.143   3.027
73187W        W39596   6.306  25.496  13.118
73188W        W39597  22.289   3.808  12.095
73189W        W39598  13.589  17.567   4.547
73190W        W39599  28.878  18.887   1.916
73191W        W39600   4.609  35.131  12.095
73192W        W39601   1.920  28.698   4.121
73193W        W39602  26.513  33.740  12.431
73194W        W39603  38.448  29.184  14.802
73195W        W39604  10.775  43.975  10.878
73196W        W39605   8.893   8.868  14.218
73197W        W39606  14.056   8.956  11.513
73198W        W39607  43.311  11.828  14.367
73199W        W39608  31.587  33.299   0.820
73200W        W39609  21.989   5.719  11.498
73201W        W39610  42.746  33.658   4.669
73202W        W39611  22.977  16.739   4.113
73203W        W39612  43.421  20.681   0.322
73204W        W39613  41.569  35.034  12.075
73205W        W39614  20.316  35.889  13.844
73206W        W39615  28.183  33.237  10.657
73207W        W39616   5.715  22.545   3.214
73208W        W39617  19.296  22.158   3.173
73209W        W39618  15.881  42.010  11.192
73210W        W39619  12.033  16.748  11.983
73211W        W39620  23.714  44.182  11.988
73212W        W39621   4.296  16.512   1.951
73213W        W39622   8.177  33.581  13.120
73214W        W39623  26.404  27.509   1.327
73215W        W39624  18.808  43.390   3.140
73216W        W39625  30.566  12.450   4.092
73217W        W39626  21.134  39.902  13.261
73218W        W39627  19.509  31.254   4.533
73219W        W39628   1.496  20.514   3.776
73220W        W39629   8.745   3.022   2.911
73221W        W39630  35.597   6.802   1.415
73222W        W39631   4.711  31.925  12.003
73223W        W39632  27.012  28.970   3.458
73224W        W39633  15.195  25.063   4.501
73225W        W39634   5.322   7.413   3.691
73226W        W39635  44.357  44.453   1.786
73227W        W39636  15.082  32.467   2.393
73228W        W39637  39.101  36.429  12.980
73229W        W39638  10.757  14.541   1.225
73230W        W39639  12.229  16.628  14.286
73231W        W39640  35.158  28.481   2.064
73232W        W39641   0.178   1.282  12.095
73233W        W39642  13.945  13.792   1.804
73234W        W39643  30.190  30.013  14.054
73235W        W39644  29.036  27.919   1.578
73236W        W39645  16.989  19.951   4.214
73237W        W39646  35.466  26.715   2.469
73238W        W39647  36.320  12.761   1.197
73239W        W39648  37.144  42.885   9.780
73240W        W39649  27.639  18.528  11.543
73241W        W39650  30.777   5.774   2.763
73242W        W39651   3.995  36.448   2.417
73243W        W39652  12.951   8.279  14.586
73244W        W39653  24.230  10.501  12.578
73245W        W39654  40.234  16.630   3.278
73246W        W39655  12.912  41.018  12.167
73247W        W39656  17.666   7.126   2.732
73248W        W39657  37.330  33.979  11.202
73249W        W39658   3.420  24.933  12.408
73250W        W39659   1.777  22.758  14.487
73251W        W39660  22.199  25.263  14.420
73252W        W39661  15.102  10.269   4.542
73253W        W39662  18.705  17.668  13.619
73254W        W39663   9.588   1.694   1.521
73255W        W39664  21.992   7.892  14.450
73256W        W39665  30.013  19.230   3.711
73257W        W39666  18.471  20.286   4.102
73258W        W39667  23.649  27.463   3.734
73259W        W39668  35.541  32.617  12.579
73260W        W39669  15.624  13.843   2.419
73261W        W39670   5.950  40.276  10.638
73262W        W39671  14.812  14.560  10.398
73263W        W39672   1.717  40.993   0.398
73264W        W39673  10.292  21.143  13.264
73265W        W39674  14.342  21.522   3.195
73266W        W39675   7.569  40.494   2.204
73267W        W39676   3.972   4.355  12.924
73268W        W39677   6.806  18.370  14.338
73269W        W39678  32.616  21.528   0.874
73270W        W39679   8.278  30.794  12.489
73271W        W39680  16.030   8.763   4.143
73272W        W39681  22.014   2.887  13.898
73273W        W39682  25.223  32.100  14.413
73274W        W39683  43.253   1.182  14.999
73275W        W39684  20.657  12.094   4.187
73276W        W39685  38.326  36.482  14.023
73277W        W39686  22.143   6.713  12.653
73278W        W39687  31.921  28.316  12.516
73279W        W39688  23.599  32.381  13.004
73280W        W39689  34.496  23.534   1.833
73281W        W39690  37.278  31.655   2.743
73282W        W39691  15.641  20.954   0.953
73283W        W39692  35.980  18.130   3.356
73284W        W39693  25.889  32.125  13.612
73285W        W39694   0.817   6.905  14.512
73286W        W39695  44.822  12.297   4.045
73287W        W39696   5.725  32.173   1.043
73288W        W39697  32.533   0.002   3.107
73289W        W39698  25.171  32.862  13.951
73290W        W39699  33.057  18.617   1.320
73291W        W39700  25.255   9.356   1.363
73292W        W39701   4.850   6.836  13.674
73293W        W39702  38.802   8.139   2.784
73294W        W39703  15.044  35.054   4.615
73295W        W39704  27.164  37.279  11.182
73296W        W39705  23.280  10.314   0.181
73297W        W39706  11.663  20.783  14.799
73298W        W39707  24.084  23.832   0.801
73299W        W39708  21.158  38.502  12.382
73300W        W39709  22.230  37.887   2.711
73301W        W39710  39.792   2.935  14.279
73302W        W39711  36.681  10.376   1.258
73303W        W39712  29.835  41.309   1.784
73304W        W39713  39.745  36.063   4.714
73305W        W39714   8.598  15.570  11.516
73306W        W39715  39.891  39.690  11.631
73307W        W39716   9.211  19.885  11.110
73308W        W39717  43.088  26.673   3.376
73309W        W39718   4.908   6.836  13.155
73310W        W39719  40.245  10.578  12.195
73311W        W39720  28.092  37.884  12.610
73312W        W39721  37.083  13.518  11.511
73313W        W39722  30.667  14.436   5.069
73314W        W39723  44.421   1.467  11.628
73315W        W39724  18.682   1.509   1.645
73316W        W39725  31.694  25.699  11.195
73317W        W39726  38.508  22.787   1.865
73318W        W39727  42.789   7.800  14.331
73319W        W39728  35.540  29.871   0.325
73320W        W39729  34.862   7.994  11.274
73321W        W39730  10.312  39.756  12.067
73322W        W39731  26.265  25.949   0.789
73323W        W39732   9.208  39.556  11.316
73324W        W39733   3.900  30.458   0.258
73325W        W39734  22.839  43.471  13.096
73326W        W39735  17.284  19.062   0.706
73327W        W39736   8.394  24.593  11.668
73328W        W39737  13.614  19.532  11.453
73329W        W39738  43.467   2.845  14.325
73330W        W39739  44.072   9.955  12.051
73331W        W39740  12.150  39.236   3.976
73332W        W39741  22.982  41.362  13.371
73333W        W39742   6.009   1.772  12.081
73334W        W39743  30.134  40.992  12.998
73335W        W39744  37.381  32.750   3.885
73336W        W39745  28.679   7.805   2.225
73337W        W39746  21.248  11.047  12.546
73338W        W39747  43.433   8.758   2.956
73339W        W39748  37.390   6.968   3.637
73340W        W39749  18.223  36.577   2.603
73341W        W39750  43.930  21.464  10.793
73342W        W39751  27.643  43.476  10.998
73343W        W39752  39.896  12.597   4.569
73344W        W39753  40.792  39.891   0.020
73345W        W39754  39.282   9.847   0.928
73346W        W39755   1.166  41.375  14.823
73347W        W39756  24.740  17.072   4.650
73348W        W39757  37.032   4.714  12.369
73349W        W39758  22.057  41.841  14.309
73350W        W39759   1.721   7.933   3.691
73351W        W39760  44.776   4.228  12.465
73352W        W39761  10.043  20.250   4.528
73353W        W39762  26.097  19.599   3.960
73354W        W39763  28.623  42.627   1.830
73355W        W39764  24.983  19.859   2.221
73356W        W39765  11.238   3.742   0.807
73357W        W39766   1.358   8.210  14.958
73358W        W39767  32.623  17.894   0.222
73359W        W39768  12.231  34.839   1.045
73360W        W39769  35.620  25.489  11.221
73361W        W39770  24.300  25.725   1.486
73362W        W39771  37.068  43.351   3.918
73363W        W39772  16.610  17.120   0.298
73364W        W39773  39.991  18.239   0.964
73365W        W39774   9.675   6.142  13.481
73366W        W39775  27.670  42.404  12.948
73367W        W39776   6.728  31.020   1.907
73368W        W39777  21.024  38.575  12.871
73369W        W39778   7.407  43.037   3.669
73370W        W39779  34.869  34.534   0.191
73371W        W39780  33.190   8.202   0.566
73372W        W39781  32.210  35.373  12.021
73373W        W39782  43.220   3.119   0.020
73374W        W39783  44.527  23.147   1.252
73375W        W39784  24.006  44.828  14.990
73376W        W39785   8.317   0.971  10.552
73377W        W39786   1.627  43.134   4.937
73378W        W39787  39.757  13.506   4.038
73379W        W39788  13.714  18.698  13.453
73380W        W39789  37.516  35.626  10.709
73381W        W39790   7.311  32.500  10.496
73382W        W39791  19.193  12.043  12.848
73383W        W39792  39.069  37.123   4.097
73384W        W39793  29.567  31.932   4.103
73385W        W39794   2.226   7.928   3.591
73386W        W39795   1.352  32.336  11.157
73387W        W39796  31.585   9.434   4.081
73388W        W39797   4.154  37.005  12.032
73389W        W39798  23.215   6.509   2.754
73390W        W39799  26.228  32.444   3.154
73391W        W39800  27.369  36.419   0.810
73392W        W39801  12.259  43.924  13.491
73393W        W39802  21.030  17.453  13.334
73394W        W39803  19.131  42.962  11.941
73395W        W39804   4.274  10.872  11.988
73396W        W39805  28.604  17.725   0.027
73397W        W39806  12.567   9.090   1.479
73398W        W39807  41.385  31.623   1.437
73399W        W39808  41.021   3.509   3.787
73400W        W39809  37.558  41.900   1.925
73401W        W39810  44.846  10.904   4.218
73402W        W39811   4.113   4.957   3.278
73403W        W39812  39.972  35.891  13.535
73404W        W39813   8.378   6.620   0.651
73405W        W39814   6.268  33.890   4.659
73406W        W39815   6.345  20.368  10.711
73407W        W39816  40.169  16.798   1.366
73408W        W39817  26.997  41.800   3.680
73409W        W39818  29.008  37.998  12.664
73410W        W39819  10.347   6.361   0.287
73411W        W39820  23.991  42.745   0.416
73412W        W39821  14.228  16.259   3.359
73413W        W39822  18.102   0.231   0.940
73414W        W39823  16.997  35.368  12.341
73415W        W39824   7.374  27.421   3.964
73416W        W39825  21.736  17.285   2.659
73417W        W39826  15.991  18.277  12.125
73418W        W39827   8.877  34.272  13.812
73419W        W39828  37.305  11.355  14.803
73420W        W39829   2.282  29.425   3.816
73421W        W39830   9.716  35.364  12.356
73422W        W39831  12.812  21.809  10.202
73423W        W39832   3.294  19.563  13.440
73424W        W39833  12.127  18.716   1.143
73425W        W39834  26.360  44.090  14.219
73426W        W39835  42.784  10.177   2.945
73427W        W39836  32.293  16.797  14.273
73428W        W39837  33.660   0.923  14.186
73429W        W39838  38.876  17.899  14.348
73430W        W39839  32.724  27.672   3.599
73431W        W39840   5.812  36.999   0.474
73432W        W39841  18.707  14.479  12.473
73433W        W39842  42.803  33.471   2.333
73434W        W39843   1.166  23.519   4.032
73435W        W39844  20.685  19.723   2.969
73436W        W39845  42.018  17.101   5.070
73437W        W39846  12.174  33.381   1.024
73438W        W39847  29.376  18.791   1.741
73439W        W39848   4.345  38.813  10.314
73440W        W39849  13.903  41.775  14.333
73441W        W39850  27.658   1.871   0.421
73442W        W39851   9.252  33.092  12.221
73443W        W39852  39.886  30.860  14.330
73444W        W39853  44.613  29.469   3.697
73445W        W39854  21.596  22.378  12.365
73446W        W39855   3.791   1.762   4.633
73447W        W39856  28.658   8.809   2.635
73448W        W39857   3.913  22.145  12.808
73449W        W39858  30.975  37.180  10.806
73450W        W39859   9.371  27.362   9.919
73451W        W39860   8.376  33.483  11.955
73452W        W39861   8.620  16.273  14.405
73453W        W39862  38.048  20.590   4.558
73454W        W39863  31.403  38.985  13.919
73455W        W39864  18.133  30.954  14.739
73456W        W39865   7.401  32.676   1.907
73457W        W39866  19.688  17.311  14.305
73458W        W39867  19.172   2.645   3.706
73459W        W39868   6.868  15.662   1.569
73460W        W39869  20.606   7.878   4.504
73461W        W39870   0.719  24.591   3.706
73462W        W39871  32.238  33.424  14.423
73463W        W39872  32.585   7.839   4.504
73464W        W39873   7.678  37.350   1.836
73465W        W39874  24.555  12.848   0.888
73466W        W39875   0.909   7.761  12.866
73467W        W39876  33.596  39.937  11.328
73468W        W39877  30.085  19.487   1.330
73469W        W39878  35.858   7.213   4.143
73470W        W39879  31.429  41.849  14.323
73471W        W39880   5.163  37.599   2.220
73472W        W39881  10.634  37.551  11.655
73473W        W39882   8.314   4.951  12.362
73474W        W39883  15.961  13.677   2.789
73475W        W39884  30.303  38.121  12.063
73476W        W39885  44.086   0.666  12.587
73477W        W39886  43.368  26.996   0.464
73478W        W39887  17.933   2.008   3.142
73479W        W39888  12.732  11.110  11.554
73480W        W39889   7.426  11.401  13.956
73481W        W39890   0.305  42.759   0.007
73482W        W39891  36.934  11.382  12.975
73483W        W39892  40.744   5.615   3.368
73484W        W39893  15.298  12.700   3.165
73485W        W39894  14.938  31.662   1.371
73486W        W39895  41.998  30.169  12.987
73487W        W39896   3.027  39.360   2.149
73488W        W39897  31.641  42.828   3.325
73489W        W39898  11.614  14.271   4.014
73490W        W39899  33.334  35.964  14.560
73491W        W39900   1.264   7.753   1.817
73492W        W39901  22.227  42.054   1.919
73493W        W39902  40.628  40.119  11.153
73494W        W39903  41.241  32.117   2.482
73495W        W39904  27.059  34.148  11.690
73496W        W39905  34.558  31.508  12.147
73497W        W39906  40.492  24.082   2.386
73498W        W39907  36.599  22.200  14.839
73499W        W39908  41.727  44.330  14.852
73500W        W39909  12.387  31.618  10.637
73501W        W39910  29.144  29.034   4.982
73502W        W39911  34.643  22.079   2.372
73503W        W39912  31.020  19.329   3.686
73504W        W39913  29.691  37.314   3.014
73505W        W39914  24.690  17.283   3.325
73506W        W39915  27.998  11.669   3.302
73507W        W39916  23.059  14.321  10.961
73508W        W39917  22.717  15.308  13.897
73509W        W39918   7.166   5.748   4.145
73510W        W39919  30.902   6.482   3.195
73511W        W39920   0.043   4.527   1.313
73512W        W39921   1.294  34.898   4.554
73513W        W39922  38.083   1.984   5.129
73514W        W39923  43.323   4.455  13.860
73515W        W39924  23.597   2.767   3.681
73516W        W39925  20.637  37.413  10.701
73517W        W39926   0.160  24.290  13.781
73518W        W39927  43.783  17.372  14.742
73519W        W39928  24.237  23.583  12.465
73520W        W39929  29.926  22.969   1.666
73521W        W39930  17.104  44.578   4.567
73522W        W39931  31.921   0.866  12.561
73523W        W39932  26.140  34.798   3.306
73524W        W39933  35.504  31.425   3.827
73525W        W39934  15.261   3.740  13.036
73526W        W39935  28.480  12.606   0.918
73527W        W39936  32.489  36.005  11.250
73528W        W39937   9.921  20.059   2.812
73529W        W39938   5.730   0.404  14.973
73530W        W39939  25.473  36.028  11.955
73531W        W39940  36.463   3.540  11.161
73532W        W39941  32.629  29.969   0.406
73533W        W39942  22.011   5.175   3.862
73534W        W39943  36.028   2.386  12.754
73535W        W39944  42.937   8.116  14.672
73536W        W39945  29.383   5.291  12.099
73537W        W39946  13.547  11.581   4.560
73538W        W39947  40.538   9.630   2.264
73539W        W39948  32.618  18.904  12.616
73540W        W39949   0.511  32.356   0.835
73541W        W39950  21.792  38.640   4.490
73542W        W39951  43.896  21.290   1.849
73543W        W39952  18.074  42.019  12.492
73544W        W39953  38.858  17.680   3.553
73545W        W39954  44.271  31.231  12.993
73546W        W39955  23.000  17.539  14.395
73547W        W39956  12.328  35.440  13.312
73548W        W39957  35.749   6.186   1.938
73549W        W39958  23.005   8.287  14.421
73550W        W39959   9.910  21.963   1.682
73551W        W39960  34.325  39.873  10.825
73552W        W39961  36.835  30.071   0.756
73553W        W39962  41.881  10.516  10.300
73554W        W39963  38.393   3.289   2.759
73555W        W39964  37.811  26.310  13.868
73556W        W39965  23.491   6.118   1.080
73557W        W39966  26.148  12.931   2.254
73558W        W39967  43.087  22.045   4.208
73559W        W39968   5.294  10.635   3.344
73560W        W39969  14.833  12.296   2.908
73561W        W39970  16.299  11.758  14.496
73562W        W39971  31.190  37.027  12.701
73563W        W39972  22.663   8.797   3.149
73564W        W39973  38.312   4.698   0.758
73565W        W39974  15.404  16.795  11.956
73566W        W39975  32.809  18.744  11.633
73567W        W39976  43.875  24.190   2.973
73568W        W39977   4.367  32.387   1.222
73569W        W39978  30.169  38.457  13.814
73570W        W39979  18.261  28.016  11.562
73571W        W39980  40.486  43.282   3.642
73572W        W39981  26.673   5.516   2.217
73573W        W39982  18.287  39.561   2.913
73574W        W39983  37.347  38.426   1.686
73575W        W39984  13.894  29.144   1.633
73576W        W39985  20.756  44.811  12.524
73577W        W39986   5.260  38.634  11.547
73578W        W39987   6.185   8.709   4.516
73579W        W39988   9.206   8.821   1.906
73580W        W39989  39.346   0.433  14.369
73581W        W39990  13.198  36.295  13.670
73582W        W39991  15.344  17.902   0.370
73583W        W39992  10.725  36.919   3.990
73584W        W39993  19.584  34.665  13.048
73585W        W39994  32.822  23.124   2.681
73586W        W39995  40.027  19.320   4.971
73587W        W39996   3.707  18.027  11.378
73588W        W39997   2.028  16.467   3.605
73589W        W39998  19.860   4.530   4.625
73590W        W39999  23.569  14.346  13.242
73591W        W40000  15.213  13.354   3.682
73592W        W40001  17.596   0.446   3.653
73593W        W40002  27.562  30.983  12.576
73594W        W40003  31.542  38.578   0.366
73595W        W40004  33.066  17.213   0.762
73596W        W40005   6.846   4.878  13.345
73597W        W40006   2.932  44.763  14.276
73598W        W40007  23.656   6.884  13.968
73599W        W40008  32.624  16.243   1.955
73600W        W40009  14.439  27.653  11.158
73601W        W40010  38.313  34.705   2.740
73602W        W40011  12.631  14.519   0.240
73603W        W40012  29.874  26.491   4.090
73604W        W40013  35.855   3.414  13.419
73605W        W40014  17.144   6.948  10.889
73606W        W40015  44.002  21.168   5.043
73607W        W40016  14.630  31.855   0.926
73608W        W40017   8.234  16.657  14.370
73609W        W40018  13.170  37.854  12.715
73610W        W40019  40.996  24.755   3.727
73611W        W40020   2.230  14.243  13.651
73612W        W40021   0.362   5.752  14.273
73613W        W40022  41.965  39.093  10.683
73614W        W40023  19.645  33.306   0.514
73615W        W40024  28.967  17.704  14.369
73616W        W40025   0.430  15.704  11.465
73617W        W40026  18.082  11.262  10.786
73618W        W40027  26.186  13.544  14.937
73619W        W40028  38.531  11.149   0.248
73620W        W40029  42.280  23.665  13.825
73621W        W40030   9.921   9.778  13.488
73622W        W40031  40.037  14.518   4.298
73623W        W40032  42.281  27.182   4.575
73624W        W40033  22.232  20.956   0.495
73625W        W40034  42.845  28.065   5.072
73626W        W40035  11.146  24.189   2.800
73627W        W40036  15.570  31.355  10.675
73628W        W40037  12.719  11.617  10.668
73629W        W40038  14.893  18.274  10.485
73630W        W40039  31.473  18.592   1.931
73631W        W40040  17.541  33.233   0.297
73632W        W40041  20.019  16.681   0.359
73633W        W40042   4.886  41.092   2.733
73634W        W40043  40.343  11.250  14.844
73635W        W40044  18.122  30.933  10.933
73636W        W40045  14.028  10.197  12.352
73637W        W40046  33.718  27.631   3.493
73638W        W40047   3.445  29.533  13.607
73639W        W40048  26.629  12.680  10.686
73640W        W40049  24.015   0.419   2.789
73641W        W40050  11.362  37.891  14.821
73642W        W40051  25.232  34.613   2.298
73643W        W40052  30.105  26.843  12.398
73644W        W40053   4.429  34.287  10.295
73645W        W40054  39.890  22.204   3.152
73646W        W40055  22.106  20.192  11.613
73647W        W40056   8.388  25.461   0.355
73648W        W40057   3.897  29.413  11.987
73649W        W40058  37.810  10.320   2.215
73650W        W40059   3.419   1.982   4.297
73651W        W40060  24.761  14.415  13.422
73652W        W40061  18.740  16.648  12.466
73653W        W40062   0.930  28.955  14.477
73654W        W40063  26.931  26.659  14.882
73655W        W40064  28.239  26.603   0.775
73656W        W40065  27.411  38.443  10.701
73657W        W40066  44.802  22.056   0.833
73658W        W40067  26.583   0.324   1.049
73659W        W40068  25.376  20.206   2.159
73660W        W40069   5.980  41.925   4.004
73661W        W40070  28.109  20.011   2.476
73662W        W40071  11.109  43.027   5.487
73663W        W40072   0.258  38.265  11.427
73664W        W40073  15.342   6.721  10.757
73665W        W40074  35.555  36.929  14.037
73666W        W40075  36.016  41.372   0.510
73667W        W40076   9.427  24.738   4.010
73668W        W40077  32.800   1.622  14.347
73669W        W40078  35.475  42.683   3.966
73670W        W40079   8.764  24.183   3.564
73671W        W40080  27.800   1.222  10.734
73672W        W40081  33.618   0.999   4.130
73673W        W40082  31.385  17.109  11.967
73674W        W40083  33.185  24.016   3.112
73675W        W40084  25.956  26.913  14.172
73676W        W40085  44.411  20.068   2.786
73677W        W40086   5.231  14.304  13.471
73678W        W40087  15.526   8.914  11.757
73679W        W40088   3.996  28.180   4.432
73680W        W40089  10.390  17.830  14.477
73681W        W40090  10.804  29.163  11.566
73682W        W40091   7.567   1.850  14.104
73683W        W40092  17.232  15.676   0.216
73684W        W40093  43.514  13.734   0.494
73685W        W40094  12.164   0.974   2.260
73686W        W40095  22.184  20.466  10.763
73687W        W40096  29.083  14.380  14.385
73688W        W40097   6.647  30.639  12.589
73689W        W40098  27.485  22.884   0.769
73690W        W40099  34.685  38.578  13.953
73691W        W40100  34.871  40.039  13.270
73692W        W40101  23.514  14.208   0.280
73693W        W40102  43.758  15.733   1.737
73694W        W40103   2.851  21.351   3.145
73695W        W40104  32.781  14.801  14.907
73696W        W40105  39.351  34.017  11.945
73697W        W40106  13.679   7.754   2.266
73698W        W40107   2.048   8.688   2.546
73699W        W40108  28.463  30.573   3.241
73700W        W40109  44.077  29.063   4.415
73701W        W40110  16.719   7.232   0.264
73702W        W40111   8.251  27.432  13.669
73703W        W40112  13.280  19.520   3.649
73704W        W40113  17.073  15.522  11.570
73705W        W40114   4.862  43.986  13.696
73706W        W40115  12.798  32.669  14.792
73707W        W40116  39.631  30.662   0.058
73708W        W40117  20.808  36.937   2.870
73709W        W40118   2.853  31.181  10.679
73710W        W40119  40.885  38.807  14.823
73711W        W40120   6.235  42.939  11.514
73712W        W40121  36.598  42.443  14.286
73713W        W40122  28.294   1.444   1.699
73714W        W40123   8.878  25.271   3.259
73715W        W40124   7.872   9.296  14.619
73716W        W40125  34.024   3.988   2.320
73717W        W40126   9.384   1.983  12.468
73718W        W40127   8.627   0.314  12.965
73719W        W40128   3.778  26.722   4.741
73720W        W40129  33.467  41.476  13.422
73721W        W40130  32.489   6.693  12.829
73722W        W40131   5.381   4.707   2.257
73723W        W40132  14.301  27.443  13.952
73724W        W40133  33.259   7.871   2.866
73725W        W40134  34.617  43.249   0.685
73726W        W40135  14.206   2.922  13.897
73727W        W40136  40.541  21.128  11.575
73728W        W40137  35.555  40.758  12.876
73729W        W40138  44.764  14.598   4.687
73730W        W40139  15.556   4.156   1.857
73731W        W40140  19.855  24.468  12.518
73732W        W40141  18.954  35.556  10.593
73733W        W40142  39.022  15.623   0.914
73734W        W40143  30.173  11.717   3.616
73735W        W40144  16.624  26.031  14.018
73736W        W40145   8.355  41.990  10.695
73737W        W40146  37.786  31.963  11.576
73738W        W40147  13.797  38.827   1.755
73739W        W40148   1.987  38.850  13.891
73740W        W40149  13.426  43.225   4.388
73741W        W40150  39.995  30.448  10.768
73742W        W40151   3.858  16.152   4.119
73743W        W40152   0.840  31.787  12.554
73744W        W40153  18.559  27.628   0.465
73745W        W40154  35.147  10.885   2.319
73746W        W40155  28.903  33.491  11.959
73747W        W40156  26.481  26.496   0.979
73748W        W40157  34.938   4.889   1.244
73749W        W40158  11.322  36.016   4.588
73750W        W40159  25.637   0.654  12.225
73751W        W40160  42.379  17.803  11.989
73752W        W40161  41.259   4.418   4.545
73753W        W40162  34.816  39.773  11.065
73754W        W40163  18.136  12.706  13.809
73755W        W40164  13.298  15.390  14.002
73756W        W40165  24.295   3.809   4.086
73757W        W40166  21.594  22.855  12.152
73758W        W40167   6.190   3.153  10.625
73759W        W40168  31.044  23.560  11.273
73760W        W40169   4.448  10.630  12.402
73761W        W40170  23.092  36.439   4.668
73762W        W40171   3.405   2.831  11.858
73763W        W40172   6.621  14.564  14.950
73764W        W40173  10.303  36.089   3.247
73765W        W40174  13.092  10.268  14.457
73766W        W40175  41.119  29.051   2.314
73767W        W40176  40.625  16.977  12.914
73768W        W40177  34.453  42.513   1.222
73769W        W40178  43.134  41.828   1.415
73770W        W40179  30.987  33.325  14.927
73771W        W40180  21.573  25.173   0.978
73772W        W40181  15.773   7.541   1.453
73773W        W40182  38.795  34.267   1.670
73774W        W40183  16.253  10.234  10.352
73775W        W40184  26.487  19.489   3.206
73776W        W40185   1.061   0.255   0.497
73777W        W40186  42.410  37.112   2.277
73778W        W40187  10.940   9.794  13.265
73779W        W40188  39.355  14.531  11.680
73780W        W40189  19.244   1.775   4.245
73781W        W40190   0.372  16.035  14.267
73782W        W40191   7.260   6.392   0.852
73783W        W40192  33.041  36.446   0.578
73784W        W40193  14.698   4.477  10.705
73785W        W40194  40.401  19.635   0.047
73786W        W40195   2.257  42.831  13.625
73787W        W40196  23.622  28.971   2.277
73788W        W40197   4.296   1.466   4.506
73789W        W40198   4.853   0.963  14.037
73790W        W40199   3.427  43.416   4.554
73791W        W40200  37.088  18.718   1.870
73792W        W40201  33.098  19.070  10.913
73793W        W40202  41.067  27.034  12.332
73794W        W40203  44.690   3.205  12.464
73795W        W40204  11.275  40.450  11.207
73796W        W40205  29.453   4.441  12.615
73797W        W40206  39.036  42.528   2.097
73798W        W40207  24.989  23.272  12.737
73799W        W40208  38.952  40.573  13.971
73800W        W40209  21.626  34.920   2.710
73801W        W40210   4.436   9.300  10.324
73802W        W40211  16.338  24.580   9.768
73803W        W40212  27.230  34.957   4.313
73804W        W40213   1.221  13.152  13.750
73805W        W40214  35.934  36.470  10.769
73806W        W40215  11.651  20.701  13.861
73807W        W40216   5.276  17.565   1.990
73808W        W40217  39.627  20.592   3.162
73809W        W40218  22.394   9.676  13.006
73810W        W40219  31.475  14.613   4.101
73811W        W40220  41.945  31.535  13.372
73812W        W40221  41.209  29.476   4.426
73813W        W40222  11.719  38.795  11.985
73814W        W40223  38.223   0.918  14.200
73815W        W40224   9.358  19.720   1.212
73816W        W40225   3.736  18.615   2.207
73817W        W40226   9.243  30.321   0.916
73818W        W40227  41.928  15.584   2.525
73819W        W40228  44.703  37.309   4.330
73820W        W40229  34.235  21.390  13.887
73821W        W40230  20.168  12.842  11.528
73822W        W40231  16.837  33.585  13.643
73823W        W40232   6.239  20.307   2.378
73824W        W40233  38.549  36.418  13.045
73825W        W40234  13.960   4.802   4.459
73826W        W40235  32.934  28.824   4.683
73827W        W40236  36.730   4.797  12.860
73828W        W40237  29.753   3.400   4.589
73829W        W40238  39.813  42.906  14.315
73830W        W40239  16.124   0.932   1.657
73831W        W40240  36.029   8.419  13.536
73832W        W40241  42.399   4.564   0.411
73833W        W40242  22.802  40.476  14.509
73834W        W40243   9.238  23.740   1.404
73835W        W40244  36.200   1.730  13.852
73836W        W40245  38.107  11.068   1.901
73837W        W40246  10.372   2.275  14.166
73838W        W40247  27.496  32.669   2.897
73839W        W40248  13.117   8.707  11.462
73840W        W40249   8.404  31.536   1.234
73841W        W40250  31.027   6.093  13.848
73842W        W40251  20.108  39.038   2.816
73843W        W40252  30.582  14.047  10.973
73844W        W40253   6.662   2.174  12.991
73845W        W40254  44.404  40.031  12.570
73846W        W40255  30.550  30.214  12.462
73847W        W40256  33.513   5.007  12.853
73848W        W40257  31.016  28.921   1.853
73849W        W40258  24.645  23.135  13.113
73850W        W40259  31.931  24.047   3.774
73851W        W40260  13.318  12.405   2.870
73852W        W40261   2.954  40.052  12.560
73853W        W40262  17.312  28.119  14.164
73854W        W40263  27.014  30.516  13.505
73855W        W40264  44.739  13.173   0.326
73856W        W40265  35.509  12.319  13.991
73857W        W40266  40.981  24.160   2.182
73858W        W40267  26.118  42.277   2.411
73859W        W40268   7.799  29.680  13.578
73860W        W40269  26.600  16.991   3.169
73861W        W40270  17.656  30.557   2.925
73862W        W40271   0.551  12.700   4.572
73863W        W40272  12.433  17.306   4.235
73864W        W40273   6.772  42.271  13.956
73865W        W40274   0.054   3.212  11.190
73866W        W40275  23.032  22.799  11.414
73867W        W40276  28.470  39.532   4.095
73868W        W40277  23.924  35.039  12.045
73869W        W40278  26.184  18.728   1.663
73870W        W40279  16.235  37.153   1.806
73871W        W40280   9.759  28.762  13.803
73872W        W40281   3.213   7.372   3.675
73873W        W40282  16.627   8.062  11.567
73874W        W40283  12.359  15.013   1.915
73875W        W40284   0.966   2.069   2.290
73876W        W40285  40.588   1.828   3.135
73877W        W40286  17.701  11.004  12.156
73878W        W40287  23.566  30.981  12.809
73879W        W40288  20.644   9.300  10.711
73880W        W40289  43.579  15.843  10.570
73881W        W40290  34.116  24.988  14.856
73882W        W40291  33.474  32.651  13.338
73883W        W40292   1.805  25.687   3.793
73884W        W40293  42.995   8.182  11.240
73885W        W40294  14.251  18.178  11.561
73886W        W40295  10.582  14.651  10.573
73887W        W40296   7.256  12.333  14.739
73888W        W40297   0.282  38.495   2.056
73889W        W40298  17.701  24.231   3.416
73890W        W40299  22.803  41.309  12.076
73891W        W40300  24.266  16.052  14.336
73892W        W40301  20.306  43.577  10.982
73893W        W40302   6.775  35.277   2.246
73894W        W40303  19.662   9.763   1.352
73895W        W40304  38.083  11.539   0.189
73896W        W40305  43.141  33.081  14.437
73897W        W40306   8.017  36.178   2.605
73898W        W40307  42.718  43.332   1.471
73899W        W40308  14.726  10.063  11.987
73900W        W40309  29.221   5.407  14.528
73901W        W40310  12.229   9.701  13.954
73902W        W40311  15.542  41.021   1.270
73903W        W40312  16.127  25.207   3.651
73904W        W40313  28.016  19.553  11.105
73905W        W40314  16.313  35.983   3.199
73906W        W40315   8.419  37.790  12.065
73907W        W40316  28.064  40.553  14.783
73908W        W40317   3.901  12.303   4.917
73909W        W40318  30.348   9.292   0.153
73910W        W40319  42.581   2.805  14.053
73911W        W40320  12.974  31.375  11.414
73912W        W40321  10.318  38.998   1.771
73913W        W40322  19.706  11.232  14.040
73914W        W40323  40.843  32.835   3.194
73915W        W40324   8.212  26.128  13.108
73916W        W40325  39.334  10.371  11.053
73917W        W40326  20.544  30.482  12.739
73918W        W40327  37.599   6.317  12.048
73919W        W40328   7.690  27.733   3.702
73920W        W40329  33.126   4.437   1.280
73921W        W40330  41.701  35.383   0.280
73922W        W40331  34.012  41.837   3.758
73923W        W40332  32.774   5.856  13.588
73924W        W40333  27.511  20.029  12.806
73925W        W40334  19.781   2.133   1.347
73926W        W40335  42.681  32.453   1.221
73927W        W40336  33.645  24.592  13.602
73928W        W40337  14.294  39.981  11.828
73929W        W40338  30.466   8.257   1.724
73930W        W40339  38.050   7.300   2.226
73931W        W40340  21.867   3.153   4.946
73932W        W40341  26.100  42.447  12.142
73933W        W40342  20.127   6.336   2.898
73934W        W40343  19.501  22.690  12.147
73935W        W40344  38.076  42.062  10.763
73936W        W40345  30.572   9.048   1.055
73937W        W40346  25.577  19.266   2.509
73938W        W40347  11.419  15.402   2.739
73939W        W40348  30.824   1.348   1.399
73940W        W40349   2.074  37.404  12.900
73941W        W40350  37.076   6.705   0.749
73942W        W40351   5.012  30.911  11.236
73943W        W40352  20.321   1.501  14.210
73944W        W40353  36.103   5.876   1.196
73945W        W40354  13.241  39.091   1.839
73946W        W40355   6.680  31.582  11.190
73947W        W40356   7.701  43.897   2.197
73948W        W40357  39.262   1.360  11.967
73949W        W40358  33.002  32.377   1.132
73950W        W40359  14.151  17.947  12.956
73951W        W40360  19.319  12.020   2.882
73952W        W40361  22.185  30.873   2.347
73953W        W40362   9.332   8.920  10.739
73954W        W40363  40.916  28.023   4.524
73955W        W40364  36.016   7.134  10.988
73956W        W40365   4.313  31.464   2.630
73957W        W40366  32.009  35.182  14.261
73958W        W40367  19.307  43.074   1.389
73959W        W40368  44.850  38.201  11.109
73960W        W40369   5.288   3.594   0.589
73961W        W40370  15.240   9.399  10.695
73962W        W40371  30.522   2.297   0.832
73963W        W40372  29.087   5.711  12.615
73964W        W40373   7.595  33.183  10.202
73965W        W40374  16.441  27.611  10.972
73966W        W40375  11.577  37.545  11.591
73967W        W40376  33.337   1.730  11.208
73968W        W40377   7.893  38.916   1.244
73969W        W40378  42.970  35.747   2.043
73970W        W40379   9.133  41.596   4.349
73971W        W40380   4.996  29.545   3.748
73972W        W40381   4.531  19.730  12.083
73973W        W40382  29.218  35.126  13.401
73974W        W40383  21.592  19.283  11.472
73975W        W40384  16.629  18.605  11.611
73976W        W40385  18.496   5.934  13.459
73977W        W40386  17.723  20.328  11.152
73978W        W40387   3.897   1.272   3.675
73979W        W40388  26.253  21.180   4.121
73980W        W40389   7.164  15.850   0.061
73981W        W40390   0.421  23.677   0.466
73982W        W40391  30.673  10.378  12.522
73983W        W40392   4.197  34.974  13.367
73984W        W40393  19.608   8.356  14.983
73985W        W40394  29.766  22.017   3.408
73986W        W40395   8.938  24.564  13.369
73987W        W40396  34.818   9.483   1.278
73988W        W40397   0.986  32.601   0.948
73989W        W40398  24.664   6.327   1.652
73990W        W40399  39.633  17.296   2.178
73991W        W40400  31.838  35.851  11.354
73992W        W40401  34.635   5.794   1.231
73993W        W40402  12.536  29.159  12.071
73994W        W40403  23.273  44.835  13.009
73995W        W40404   0.220   7.800   0.774
73996W        W40405   9.270  32.538   3.412
73997W        W40406  28.680  36.066  14.245
73998W        W40407  26.177  31.117  12.036
73999W        W40408  40.511   5.050  13.129
74000W        W40409  36.922  44.743  10.671
74001W        W40410  14.802   4.974  10.690
74002W        W40411  33.086  18.567   0.403
74003W        W40412  38.731  12.285  12.064
74004W        W40413  27.072   6.839  12.698
74005W        W40414  35.554   4.537   3.740
74006W        W40415  44.020  38.433  10.836
74007W        W40416  31.514  22.678  10.939
74008W        W40417  26.161  23.771   0.334
74009W        W40418  32.393  33.230  11.448
74010W        W40419  19.598  16.614  13.000
74011W        W40420  14.169  27.523  11.566
74012W        W40421   3.307  19.281   2.325
74013W        W40422  44.371  21.800  12.126
74014W        W40423   3.315  15.902  14.892
74015W        W40424  15.304  37.593   2.847
74016W        W40425  40.421  13.662  13.432
74017W        W40426  21.270   5.566  10.321
74018W        W40427   8.131  10.181   3.212
74019W        W40428  22.546  30.254  14.436
74020W        W40429  18.548  36.427   4.310
74021W        W40430  13.060  40.515   2.871
74022W        W40431   8.615  14.753   0.553
74023W        W40432   2.327  26.629   4.717
74024W        W40433   3.873   3.711  10.405
74025W        W40434   3.299  35.496   1.440
74026W        W40435  20.797  28.643   2.120
74027W        W40436   1.476   9.785  12.506
74028W        W40437  11.933  14.990  11.018
74029W        W40438   6.158  16.757   0.270
74030W        W40439  39.837  37.851   4.049
74031W        W40440  44.544  20.178   4.344
74032W        W40441   0.911   6.370   0.419
74033W        W40442  23.419   3.209   4.857
74034W        W40443  37.664  41.559   5.074
74035W        W40444  22.214   8.806  12.521
74036W        W40445   0.937  31.932   2.208
74037W        W40446  37.051  11.619   1.840
74038W        W40447  23.494  40.436   4.258
74039W        W40448  25.901  32.427  14.531
74040W        W40449  14.562   8.262  10.745
74041W        W40450  10.381   3.344   2.660
74042W        W40451  44.939  36.064  11.109
74043W        W40452  24.235  20.287   4.148
74044W        W40453  16.000  25.685  10.148
74045W        W40454  17.611   4.755   1.285
74046W        W40455   4.905  10.815  12.617
74047W        W40456  14.807  33.330  12.191
74048W        W40457   7.852  42.435   1.856
74049W        W40458   8.820  42.904   0.975
74050W        W40459  36.524  10.008  14.484
74051W        W40460  42.413  17.852   0.803
74052W        W40461  38.167   0.250   2.675
74053W        W40462  35.847  28.667   1.231
74054W        W40463  14.935   6.653   4.750
74055W        W40464  18.370  12.479   4.517
74056W        W40465  26.161  17.361   4.589
74057W        W40466  13.438   5.970  11.928
74058W        W40467  23.827  13.542  11.164
74059W        W40468  40.278  42.582  11.146
74060W        W40469  17.568   8.165  13.893
74061W        W40470   1.895  19.007  14.036
74062W        W40471  32.046   3.314   0.688
74063W        W40472  24.152   1.905  12.014
74064W        W40473  14.880  44.857  11.208
74065W        W40474   8.232   8.183   3.934
74066W        W40475  28.314  11.807  13.896
74067W        W40476  30.159  38.994   1.719
74068W        W40477  15.998   1.892  10.744
74069W        W40478  11.215  14.237  12.436
74070W        W40479  17.798  15.013  11.175
74071W        W40480  24.991  42.969   0.246
74072W        W40481  41.979  33.107   2.777
74073W        W40482  24.246  28.145   2.734
74074W        W40483   4.706  35.885  14.461
74075W        W40484  33.253  15.283  11.466
74076W        W40485  21.727  23.481  14.750
74077W        W40486   3.261  18.121   2.702
74078W        W40487  26.042  34.784  13.496
74079W        W40488  14.845  18.778  14.128
74080W        W40489  32.981  20.335   3.350
74081W        W40490  28.018  15.601   1.833
74082W        W40491  32.528   6.439   3.177
74083W        W40492  39.524   5.074   1.836
74084W        W40493  33.773  40.373   1.149
74085W        W40494  31.582  26.691   1.557
74086W        W40495  12.366   4.854   2.664
74087W        W40496   4.402  23.448  11.157
74088W        W40497  13.379  34.048  10.229
74089W        W40498  15.360  15.558   0.009
74090W        W40499  36.772  29.272   2.749
74091W        W40500   6.368  39.880  10.432
74092W        W40501  21.787   0.175  13.014
74093W        W40502  22.766  42.830   3.192
74094W        W40503  22.953  40.345  13.396
74095W        W40504  37.577  44.343   1.809
74096W        W40505  19.605  11.236   3.347
74097W        W40506  36.019  15.492  10.514
74098W        W40507  26.033   5.170   1.179
74099W        W40508  17.643   8.434   3.213
74100W        W40509   1.578  43.566  11.204
74101W        W40510  13.077  15.242   2.578
74102W        W40511  31.162  28.405  10.942
74103W        W40512  37.927  15.198  10.269
74104W        W40513  11.939  22.599   3.186
74105W        W40514  20.622  21.964   3.701
74106W        W40515  35.757  15.769  14.975
74107W        W40516   0.221  15.406   0.760
74108W        W40517   8.640  21.460   3.774
74109W        W40518  21.630   3.423   3.295
74110W        W40519  19.955  13.923   3.395
74111W        W40520  28.181  42.415   3.511
74112W        W40521  33.116  13.084  13.539
74113W        W40522  31.517  33.367  14.945
74114W        W40523  22.687  13.917  10.677
74115W        W40524  17.273   4.811   2.696
74116W        W40525  44.949  31.225  11.177
74117W        W40526  14.243  43.067  11.882
74118W        W40527  26.156  43.847  13.081
74119W        W40528  40.584  25.165  12.721
74120W        W40529  39.994  41.332  13.519
74121W        W40530  14.473  16.979  14.016
74122W        W40531  41.988  35.949  11.891
74123W        W40532  30.474   9.506   2.837
74124W        W40533   3.209  15.859  11.462
74125W        W40534   6.440  21.781   4.298
74126W        W40535  43.610  10.359   3.989
74127W        W40536  22.605   4.908  11.482
74128W        W40537   3.687  17.854  13.480
74129W        W40538  32.410   4.839   3.567
74130W        W40539  36.058  12.059   3.564
74131W        W40540   3.739   0.268   4.828
74132W        W40541  33.800  44.547  10.088
74133W        W40542   3.664  16.723  14.522
74134W        W40543  28.071  25.412  11.575
74135W        W40544  18.245   7.673   1.205
74136W        W40545   0.369  10.796  14.191
74137W        W40546  27.956  37.102   1.671
74138W        W40547  16.645  31.547  11.532
74139W        W40548   5.849  32.218  13.073
74140W        W40549  38.867   2.636  13.876
74141W        W40550  23.705  33.397   4.538
74142W        W40551  29.482   0.048  13.441
74143W        W40552  36.428  22.483   3.107
74144W        W40553  25.044  37.399   4.066
74145W        W40554   2.033  14.220   2.841
74146W        W40555  37.635  37.882  10.853
74147W        W40556  13.117  18.656   2.665
74148W        W40557  42.554  25.024   3.742
74149W        W40558  35.686  14.595   1.956
74150W        W40559  40.897  33.362   0.969
74151W        W40560  10.394  12.733   1.115
74152W        W40561  36.506   8.193   3.839
74153W        W40562  42.827  31.364   3.695
74154W        W40563  23.175  24.470  14.398
74155W        W40564   2.914   6.390  12.586
74156W        W40565  12.556  22.064   3.650
74157W        W40566   9.777   5.402  14.003
74158W        W40567  25.059   9.179  11.375
74159W        W40568  33.324  10.014  10.318
74160W        W40569   2.997  27.593   3.775
74161W        W40570  31.969  16.333   2.969
74162W        W40571  34.509  27.148   0.900
74163W        W40572  34.933  31.579  11.800
74164W        W40573  36.964  14.104   0.674
74165W        W40574   1.753  15.012   3.773
74166W        W40575  21.653  37.654  14.318
74167W        W40576  32.446  12.651  12.980
74168W        W40577  34.445  10.215   3.743
74169W        W40578   3.671  39.928   2.488
74170W        W40579  11.600  21.974   0.311
74171W        W40580  30.437  18.861  12.835
74172W        W40581  19.432  10.341  11.111
74173W        W40582  22.236  44.008  12.979
74174W        W40583   1.394   9.204  13.379
74175W        W40584  39.155  25.238  12.161
74176W        W40585  29.080  37.837   1.409
74177W        W40586  24.522  11.658   0.844
74178W        W40587  29.900  18.628   1.741
74179W        W40588  21.123   7.922   1.299
74180W        W40589  39.544  40.474   2.896
74181W        W40590  21.620   7.171   0.363
74182W        W40591   1.182  43.431   1.159
74183W        W40592  33.447  29.214   0.318
74184W        W40593  24.267  36.359   2.668
74185W        W40594  37.543  28.724   3.251
74186W        W40595  31.061   0.740  12.218
74187W        W40596  36.330  32.539  13.910
74188W        W40597   8.855  16.381   1.317
74189W        W40598  40.593  32.624   1.853
74190W        W40599  33.889  11.247   3.687
74191W        W40600  21.763  15.679   1.381
74192W        W40601   5.823  23.549   3.554
74193W        W40602   7.831  33.579  13.884
74194W        W40603  43.495  41.429   1.641
74195W        W40604  23.180  41.753  14.385
74196W        W40605  30.980  43.838  11.014
74197W        W40606  23.716  25.468   3.700
74198W        W40607  12.916  27.280   1.750
74199W        W40608  29.210   6.522   1.028
74200W        W40609   9.819  16.279   2.213
74201W        W40610  15.787  10.779  10.762
74202W        W40611   1.781  35.010   0.853
74203W        W40612   3.121  39.894  13.776
74204W        W40613   4.655   2.817  11.567
74205W        W40614  12.271  42.503  13.766
74206W        W40615  42.535  19.735   0.897
74207W        W40616  29.351  35.362  12.162
74208W        W40617  24.047  29.260   4.140
74209W        W40618   5.726  34.121   3.512
74210W        W40619   5.631  35.627   2.284
74211W        W40620   3.401   5.458  12.262
74212W        W40621   9.800   1.560   3.674
74213W        W40622  12.607  31.746  11.461
74214W        W40623  18.182   2.209   1.755
74215W        W40624  32.867  34.027  14.083
74216W        W40625  38.306  28.333   3.500
74217W        W40626  23.720  16.728   2.765
74218W        W40627   1.851  43.257   3.739
74219W        W40628  44.400  25.541   4.644
74220W        W40629  39.435  21.232   4.061
74221W        W40630  33.952   2.400  12.143
74222W        W40631  40.947  17.752  14.877
74223W        W40632  24.918  24.728   0.951
74224W        W40633  32.564  37.462   1.049
74225W        W40634  23.041  15.834  11.188
74226W        W40635  24.793  38.622   3.870
74227W        W40636  40.937  15.354   3.599
74228W        W40637  24.986  27.694   2.727
74229W        W40638  12.840  32.364   1.217
74230W        W40639   8.308  12.124   1.534
74231W        W40640  15.308  13.089   4.100
74232W        W40641  39.454   9.396  10.936
74233W        W40642   4.963  41.304   4.494
74234W        W40643  27.750  16.789  13.091
74235W        W40644  10.996  24.123   1.256
74236W        W40645  10.787  27.659  14.040
74237W        W40646  11.697  14.781   1.098
74238W        W40647   0.049  44.791   0.791
74239W        W40648  39.199   6.254  12.946
74240W        W40649  33.014  21.498  13.321
74241W        W40650  43.484  23.928   3.273
74242W        W40651   2.299  41.569   9.865
74243W        W40652  33.455   5.469   4.296
74244W        W40653  20.771   2.707  12.026
74245W        W40654  17.342  12.300  11.534
74246W        W40655  22.272  34.387   2.305
74247W        W40656  41.427   9.205   0.715
74248W        W40657  35.127  20.091  10.657
74249W        W40658  36.407  43.222   0.304
74250W        W40659  39.869  11.788   1.164
74251W        W40660  19.492  13.693   3.351
74252W        W40661   1.168  44.066  12.917
74253W        W40662  36.866  26.513  11.552
74254W        W40663  32.098  12.186  12.523
74255W        W40664  28.016  33.639  10.984
74256W        W40665  18.133  23.053  12.787
74257W        W40666  13.898  44.645  11.111
74258W        W40667  26.200  18.698   0.403
74259W        W40668  40.047  25.486   0.818
74260W        W40669  10.404  43.066  11.945
74261W        W40670  41.571  35.947  13.385
74262W        W40671  40.498   6.394  14.362
74263W        W40672  27.504   0.058  12.907
74264W        W40673  25.928   2.969  13.130
74265W        W40674   1.811  30.013   0.722
74266W        W40675   1.465  32.563   2.650
74267W        W40676  43.793   9.405  13.511
74268W        W40677   6.688  24.937  11.710
74269W        W40678  12.108  13.340  10.650
74270W        W40679  34.846  38.377  12.440
74271W        W40680  35.529  27.040   0.460
74272W        W40681  38.399  33.384   2.237
74273W        W40682  33.105  17.726   1.503
74274W        W40683   8.890  39.777   0.753
74275W        W40684  26.136   7.470  11.148
74276W        W40685   4.794  20.734  13.657
74277W        W40686  36.907  32.313  12.561
74278W        W40687  43.876  28.784   3.594
74279W        W40688  33.361  16.607   3.663
74280W        W40689  26.036  41.311   2.271
74281W        W40690   6.987  18.534   4.058
74282W        W40691  42.310  29.336   1.422
74283W        W40692  42.820  13.383   3.581
74284W        W40693  35.337  14.766  13.412
74285W        W40694  13.295  36.643  12.175
74286W        W40695  31.436  20.730   0.207
74287W        W40696  12.123  39.007   1.059
74288W        W40697  21.013  14.823   1.234
74289W        W40698  34.302  28.275  14.030
74290W        W40699   5.245   9.918  11.614
74291W        W40700  29.497   0.321   2.128
74292W        W40701   0.400  11.364  12.176
74293W        W40702  19.543  21.752  11.225
74294W        W40703  13.994  23.490  11.286
74295W        W40704   1.054  38.762   4.139
74296W        W40705  33.432  17.089   4.314
74297W        W40706  15.836  37.848   2.105
74298W        W40707   1.359  29.675   3.552
74299W        W40708   8.612  29.995   0.512
74300W        W40709  41.809   5.485  13.847
74301W        W40710  33.362   1.831   4.185
74302W        W40711  28.663  38.809  14.503
74303W        W40712   0.141   1.529   3.633
74304W        W40713  44.756  22.718   3.533
74305W        W40714  11.629   6.175   4.648
74306W        W40715   5.159  31.087  10.666
74307W        W40716  13.686  39.476  14.917
74308W        W40717  18.822  31.372   2.312
74309W        W40718   5.667  15.911   0.873
74310W        W40719   8.374  23.560  13.399
74311W        W40720  11.314  28.242  11.139
74312W        W40721   4.244  28.083  13.146
74313W        W40722  43.782  11.863   0.913
74314W        W40723   8.091  44.771   1.904
74315W        W40724   3.213   1.662  11.227
74316W        W40725  23.660   6.479   0.748
74317W        W40726  23.815  44.525   3.791
74318W        W40727   0.860  10.803  10.609
74319W        W40728   6.902  19.159   3.474
74320W        W40729  29.400   5.630   2.473
74321W        W40730  40.001  37.871  12.630
74322W        W40731  32.242  14.985   4.056
74323W        W40732  15.732  11.369   4.416
74324W        W40733  25.496  19.309  11.049
74325W        W40734  30.983  26.497  14.304
74326W        W40735  17.205   2.763   4.479
74327W        W40736   5.230   1.257  13.124
74328W        W40737  22.803   3.076  11.255
74329W        W40738  41.961  41.488   0.817
74330W        W40739  34.145   2.711   3.616
74331W        W40740  29.047  12.332   3.661
74332W        W40741  24.054  36.092  12.960
74333W        W40742  38.763  12.432  10.802
74334W        W40743  26.738  35.217   2.438
74335W        W40744  14.040  19.830  11.498
74336W        W40745   4.623  26.350  11.102
74337W        W40746  23.769   2.777   1.210
74338W        W40747  35.947   2.280   5.032
74339W        W40748  40.737   4.035  12.108
74340W        W40749  41.793  29.577   2.356
74341W        W40750  17.163  34.663  13.112
74342W        W40751  24.133  25.943  14.877
74343W        W40752  39.446   2.178   3.916
74344W        W40753  10.444  35.104  14.977
74345W        W40754   4.951  27.490   2.615
74346W        W40755   9.213  27.489  14.210
74347W        W40756  13.030  16.823  14.978
74348W        W40757  33.666  30.634   3.615
74349W        W40758  19.700   8.025   0.378
74350W        W40759  14.919  40.113  14.527
74351W        W40760  17.716  15.769  13.914
74352W        W40761  16.317   3.266  12.424
74353W        W40762  37.264  16.314  14.056
74354W        W40763  30.553  35.153   1.806
74355W        W40764   0.895  31.971   0.768
74356W        W40765  20.078  43.033  13.917
74357W        W40766  18.710  16.718  11.922
74358W        W40767   5.877  28.740  12.563
74359W        W40768  19.047   9.146   5.003
74360W        W40769   8.424  26.333  13.565
74361W        W40770  19.867  36.879   2.140
74362W        W40771  18.290  24.109   4.102
74363W        W40772   6.408  35.523   3.842
74364W        W40773  18.607  25.987  11.005
74365W        W40774  36.959   2.897   3.683
74366W        W40775  37.871  38.717   2.127
74367W        W40776  22.612  36.597  12.508
74368W        W40777  42.963  23.199   1.875
74369W        W40778  24.353  21.640   1.632
74370W        W40779  36.430  39.434  11.432
74371W        W40780  33.444  31.912  13.899
74372W        W40781  19.847  36.521   0.427
74373W        W40782   9.147  44.285  13.322
74374W        W40783  42.946  22.945  13.040
74375W        W40784   7.437  16.397  12.491
74376W        W40785  18.539  36.974  13.587
74377W        W40786  16.539  14.780  14.683
74378W        W40787   0.819  38.941  10.793
74379W        W40788  36.149  22.248  13.078
74380W        W40789  29.974  43.970   3.004
74381W        W40790  36.945  27.691  10.932
74382W        W40791  35.535  17.431  13.111
74383W        W40792  33.399  35.395  11.840
74384W        W40793   0.068  18.115   1.668
74385W        W40794  28.196   8.205  13.143
74386W        W40795   2.432  44.075   3.644
74387W        W40796  27.647  10.805   1.831
74388W        W40797  11.705  21.103  14.379
74389W        W40798  25.565  38.297  14.836
74390W        W40799   3.504  26.744  14.401
74391W        W40800  28.516  36.734   4.746
74392W        W40801  14.817   1.208   2.730
74393W        W40802  36.126  13.526  13.918
74394W        W40803   4.710  37.449  14.817
74395W        W40804  20.511  18.539   2.218
74396W        W40805  42.500   9.386  11.907
74397W        W40806   4.903  12.181   2.418
74398W        W40807   9.288   9.218   3.302
74399W        W40808  35.596  20.307  12.426
74400W        W40809  38.651   8.877   0.030
74401W        W40810   7.733  32.376   2.742
74402W        W40811  21.229  12.526  14.976
74403W        W40812  40.060  36.349   2.161
74404W        W40813  32.885  42.238   1.103
74405W        W40814   7.551  13.769  13.529
74406W        W40815  35.822  19.137   0.175
74407W        W40816  38.247  28.748  12.637
74408W        W40817  38.324  32.851   0.728
74409W        W40818   8.814   5.079  12.387
74410W        W40819  12.668  13.396   4.152
74411W        W40820  23.047  33.602   3.903
74412W        W40821  35.164  29.715  14.284
74413W        W40822  23.049  23.826   2.520
74414W        W40823  23.843   7.887   2.370
74415W        W40824  14.071  24.987  13.819
74416W        W40825  44.267   1.487  13.098
74417W        W40826  17.679  12.871  14.764
74418W        W40827  44.889  16.369  10.775
74419W        W40828  14.088   4.101  12.308
74420W        W40829  16.046   5.820   4.363
74421W        W40830  17.617  29.514  13.923
74422W        W40831  24.815   7.503   2.085
74423W        W40832  16.095  25.097   0.010
74424W        W40833  35.888  43.751   3.217
74425W        W40834   6.819   8.104   2.523
74426W        W40835  43.547  39.306   2.184
74427W        W40836   6.190  30.474   0.303
74428W        W40837  38.577   2.194   5.044
74429W        W40838  31.595   4.287   1.471
74430W        W40839  24.500  27.595   3.614
74431W        W40840  24.991  29.832   1.276
74432W        W40841  18.336  13.420   0.773
74433W        W40842  13.159  35.960  10.391
74434W        W40843   1.788  24.758   2.250
74435W        W40844  10.727  34.609   1.870
74436W        W40845  27.532  37.618   1.366
74437W        W40846  38.433  39.208   3.649
74438W        W40847  31.411  24.175  13.539
74439W        W40848  39.407   0.980  10.137
74440W        W40849  26.875  39.478  13.041
74441W        W40850  22.747  34.616  12.938
74442W        W40851   9.154  21.949   4.561
74443W        W40852  20.394  24.627  13.851
74444W        W40853  15.201  19.376   3.730
74445W        W40854  21.753   6.957  14.815
74446W        W40855  20.544   3.675  11.141
74447W        W40856  26.667  24.137   4.049
74448W        W40857  36.607  26.516   4.696
74449W        W40858   2.063  29.413  13.382
74450W        W40859  11.325  19.813   1.517
74451W        W40860  41.252  19.546  13.842
74452W        W40861  11.189  15.715   2.310
74453W        W40862   2.516  30.526  11.716
74454W        W40863  25.629  38.987  11.968
74455W        W40864  39.124  27.942  13.003
74456W        W40865  25.695  33.119   1.003
74457W        W40866  42.704   8.121   0.634
74458W        W40867  23.259  20.483  12.333
74459W        W40868  27.698   8.676  12.611
74460W        W40869   5.363  39.351   0.745
74461W        W40870  31.560  28.935   4.679
74462W        W40871   2.208   9.203   4.524
74463W        W40872  38.521  20.478  13.940
74464W        W40873  33.434  42.425  14.728
74465W        W40874  17.397  28.257  11.575
74466W        W40875   0.402   1.137  13.386
74467W        W40876  30.630  15.214  11.186
74468W        W40877  16.616  34.030   4.563
74469W        W40878  29.193   0.862   0.809
74470W        W40879  24.676  23.176   4.151
74471W        W40880  38.569  14.828  11.460
74472W        W40881  41.098  21.854   1.417
74473W        W40882  19.597  29.928  13.876
74474W        W40883  22.519   0.108   1.299
74475W        W40884  44.664  35.986   3.172
74476W        W40885  29.093  25.096  14.189
74477W        W40886  39.340  42.374  11.225
74478W        W40887   4.184  24.628  11.971
74479W        W40888  12.121   7.239   2.205
74480W        W40889  25.443  39.457   3.862
74481W        W40890  30.491   1.133  12.442
74482W        W40891  23.760   2.200  14.446
74483W        W40892  38.316  40.766   2.635
74484W        W40893  43.985   2.255   2.260
74485W        W40894  32.162   0.767   3.243
74486W        W40895  29.337   6.152  12.469
74487W        W40896  33.440   4.445  14.064
74488W        W40897  32.200  29.512  13.486
74489W        W40898  24.399  43.085  14.591
74490W        W40899   8.587  43.350  10.548
74491W        W40900  24.956  32.631  11.906
74492W        W40901  25.594  23.323   1.838
74493W        W40902  30.049  33.394   3.234
74494W        W40903   5.222  17.228   1.023
74495W        W40904   1.836   9.308   4.889
74496W        W40905  14.999  18.191   0.864
74497W        W40906  15.182   7.112   4.094
74498W        W40907  13.465  29.429   2.399
74499W        W40908   2.829   6.334  10.738
74500W        W40909  36.112   6.811   1.455
74501W        W40910   0.928  21.691  12.562
74502W        W40911  41.052  14.977  11.043
74503W        W40912  33.868  25.737   0.166
74504W        W40913  33.210   3.791  11.977
74505W        W40914  36.462  33.056   2.803
74506W        W40915  30.309  19.735  11.458
74507W        W40916  20.063  44.825  11.973
74508W        W40917  17.113  20.248  11.523
74509W        W40918  28.904  28.821  10.707
74510W        W40919  24.654  36.549  14.165
74511W        W40920   1.327  23.729  11.698
74512W        W40921  12.739  22.708  11.440
74513W        W40922  30.987   4.171  14.587
74514W        W40923  25.759   5.627  10.903
74515W        W40924  13.866   7.165   0.035
74516W        W40925   3.461   2.735   2.704
74517W        W40926  18.401  13.892   2.786
74518W        W40927  36.575  19.546   2.266
74519W        W40928   7.004   3.313  12.329
74520W        W40929   1.528  29.639  10.688
74521W        W40930  38.002   7.231   0.182
74522W        W40931  39.233   9.150   2.094
74523W        W40932  26.831  19.755   2.287
74524W        W40933  41.378   4.506  14.240
74525W        W40934  41.861  11.826   2.960
74526W        W40935   8.778   3.306   0.306
74527W        W40936  28.940  19.992  13.721
74528W        W40937   7.964  22.504   2.832
74529W        W40938  44.181  28.596  13.364
74530W        W40939  16.825  29.436   4.186
74531W        W40940  24.858  37.989  14.037
74532W        W40941  27.343  10.475   5.075
74533W        W40942  20.478  25.044  12.929
74534W        W40943  31.475  43.432   4.185
74535W        W40944  38.054  29.522   4.776
74536W        W40945  14.085  42.856   4.980
74537W        W40946  13.567  36.546   5.136
74538W        W40947  43.981  34.607  11.959
74539W        W40948   0.401   6.319   2.411
74540W        W40949  13.411  34.004   5.312
74541W        W40950  24.887   0.948   4.085
74542W        W40951  20.010  22.961   0.254
74543W        W40952  12.516   7.268   0.044
74544W        W40953  11.411   0.455   0.768
74545W        W40954  10.017   3.609  13.911
74546W        W40955  20.043  24.985   2.166
74547W        W40956   2.142   5.675   3.209
74548W        W40957  27.714   4.454  13.452
74549W        W40958  44.981  36.530  14.805
74550W        W40959   6.973  19.649  11.017
74551W        W40960  33.390  31.553  12.537
74552W        W40961   6.250  42.018  12.923
74553W        W40962  40.560  27.033  12.359
74554W        W40963  18.132   8.649  12.110
74555W        W40964  12.794  26.045  11.638
74556W        W40965  10.446  15.129  12.178
74557W        W40966   5.164  26.229   0.328
74558W        W40967   6.631  25.378   1.177
74559W        W40968  15.655  43.134   4.085
74560W        W40969  41.973  30.689  11.080
74561W        W40970  15.759  36.329  10.491
74562W        W40971   1.137  13.581  14.541
74563W        W40972  44.234   0.432  11.150
74564W        W40973  26.741  27.589   0.212
74565W        W40974  16.893  29.151  11.497
74566W        W40975  11.311  44.997  13.508
74567W        W40976  35.470   6.872   0.916
74568W        W40977   5.747  41.959  14.812
74569W        W40978  41.242  12.190  13.552
74570W        W40979  18.808  20.182   3.714
74571W        W40980  14.735  35.926   0.390
74572W        W40981  30.522  37.445  10.769
74573W        W40982  41.134  22.547   1.818
74574W        W40983   5.871  24.582   3.566
74575W        W40984  18.492  24.694  11.393
74576W        W40985  19.681  24.004   1.868
74577W        W40986  27.530  10.182  14.052
74578W        W40987   4.018  28.620   1.669
74579W        W40988  29.681  10.742   1.876
74580W        W40989   8.846  37.860   0.362
74581W        W40990   0.050  14.225   4.963
74582W        W40991   3.388   6.450   4.997
74583W        W40992  11.812  28.616  11.149
74584W        W40993   9.201  11.225   2.090
74585W        W40994  13.252  22.268   2.950
74586W        W40995  39.215  42.475   0.844
74587W        W40996  13.550  15.851   1.876
74588W        W40997   2.424  41.952   2.855
74589W        W40998   7.859  44.688  13.812
74590W        W40999  37.574   0.116  10.973
74591W        W41000  28.990  40.850   3.596
74592W        W41001   6.253   9.293  12.544
74593W        W41002  19.165  39.063   4.580
74594W        W41003  27.199  42.012   4.166
74595W        W41004  22.482  10.177  12.903
74596W        W41005  17.252  10.368  13.335
74597W        W41006  14.838   4.879   1.830
74598W        W41007  32.544  35.778  12.046
74599W        W41008  19.954  13.353  11.545
74600W        W41009   6.950   3.373  13.034
74601W        W41010  11.059  15.260   4.105
74602W        W41011   8.087  12.812   5.022
74603W        W41012   4.836  32.130   1.182
74604W        W41013   5.431  23.581  13.744
74605W        W41014   4.146   5.147  13.872
74606W        W41015   4.763  18.270   2.562
74607W        W41016  37.278  14.565  10.709
74608W        W41017   7.707  17.696  12.847
74609W        W41018  43.066  10.591   1.327
74610W        W41019  38.041  35.588   2.000
74611W        W41020  22.263  29.654  11.400
74612W        W41021  29.565   6.907  11.115
74613W        W41022  25.913  40.080  12.394
74614W        W41023  23.884  33.470   0.225
74615W        W41024  37.096   6.286  12.088
74616W        W41025  12.196  14.549  12.661
74617W        W41026  33.865  18.078   1.761
74618W        W41027   9.322  14.352   0.712
74619W        W41028  42.273   3.390  13.112
74620W        W41029   4.514   3.437  14.854
74621W        W41030  18.572  40.369  12.304
74622W        W41031   1.416   0.865   3.783
74623W        W41032   4.444   1.334  11.373
74624W        W41033  43.744   9.442   3.169
74625W        W41034  26.670  18.476   0.776
74626W        W41035  23.751  31.133   2.622
74627W        W41036   3.887   3.534   2.818
74628W        W41037  37.405  17.420  13.797
74629W        W41038  15.220  25.177  10.625
74630W        W41039   2.892  43.212   0.897
74631W        W41040  34.984   7.004  12.453
74632W        W41041  44.532  36.572  14.522
74633W        W41042  23.773  30.863  11.943
74634W        W41043  13.286  36.013   3.213
74635W        W41044  22.167  26.250  11.365
74636W        W41045  44.246  37.212   0.858
74637W        W41046  43.110  16.242  12.244
74638W        W41047  33.335  40.959   0.810
74639W        W41048  41.984   8.614   2.326
74640W        W41049  25.385  36.165  12.454
74641W        W41050  36.545  40.564   0.905
74642W        W41051  15.870  24.064  11.945
74643W        W41052  29.371   3.229   0.030
74644W        W41053  36.987   8.302   4.743
74645W        W41054  10.901  26.971  12.168
74646W        W41055   9.359  14.556   1.214
74647W        W41056  25.039  24.273   0.761
74648W        W41057  37.363  11.953  13.384
74649W        W41058  40.544  36.273   1.329
74650W        W41059   7.685  12.206   3.896
74651W        W41060   5.857  23.976   3.102
74652W        W41061  43.511  19.229  11.061
74653W        W41062  44.669   9.755   2.597
74654W        W41063   8.578  32.087  13.384
74655W        W41064  27.566  14.538   2.640
74656W        W41065  23.459  25.467   3.263
74657W        W41066  29.993  11.058   4.143
74658W        W41067  19.503   5.135  10.704
74659W        W41068  24.161  41.446   4.999
74660W        W41069  26.967   3.213   5.025
74661W        W41070  12.195   6.627  11.514
74662W        W41071  29.957  37.846   4.101
74663W        W41072   5.838  24.044  14.288
74664W        W41073  24.620  18.098  10.884
74665W        W41074  24.947  21.147   2.202
74666W        W41075  39.789   6.169   3.388
74667W        W41076  15.231  30.977   3.684
74668W        W41077   9.475  42.945   2.892
74669W        W41078  44.314  29.413   4.105
74670W        W41079  25.184  41.907  14.391
74671W        W41080  36.371  40.438   4.544
74672W        W41081  23.053  15.368   4.619
74673W        W41082  25.676  30.498  14.230
74674W        W41083   2.696  12.243   4.575
74675W        W41084  19.679  32.590   1.834
74676W        W41085  15.116  32.548   3.839
74677W        W41086  36.834  42.050  11.185
74678W        W41087  14.280  33.357   3.019
74679W        W41088  11.135  25.476   1.804
74680W        W41089  15.602  11.800  10.725
74681W        W41090  29.264  23.971   5.047
74682W        W41091  33.887  22.753  10.540
74683W        W41092  10.951  19.475   1.371
74684W        W41093  23.847  35.878   4.648
74685W        W41094  18.998   8.275   2.611
74686W        W41095  22.681  36.359  14.932
74687W        W41096  16.454  13.032  12.679
74688W        W41097  20.026  35.586   2.232
74689W        W41098  25.531  32.030   4.023
74690W        W41099  14.745   1.329  10.960
74691W        W41100  28.520  33.563   0.459
74692W        W41101  32.429   2.560  12.083
74693W        W41102  39.104   5.139   4.798
74694W        W41103  25.464   9.887   1.399
74695W        W41104  44.004   5.704   1.787
74696W        W41105   7.321  12.801  14.483
74697W        W41106  15.375  35.050  11.064
74698W        W41107  19.133  37.200  10.317
74699W        W41108  21.297  23.186   2.375
74700W        W41109  11.833   4.384  14.059
74701W        W41110  27.956   4.953   1.481
74702W        W41111  37.620   3.384   0.509
74703W        W41112  20.594  35.923  12.602
74704W        W41113  44.014   4.036  10.876
74705W        W41114  16.289   3.669  13.317
74706W        W41115  27.205  15.998   2.787
74707W        W41116  43.842  43.391  13.513
74708W        W41117  40.702  14.763   1.687
74709W        W41118  22.249  10.675  10.944
74710W        W41119  43.662  31.652   2.376
74711W        W41120  33.379  29.788   1.793
74712W        W41121   7.908  10.832  10.989
74713W        W41122  40.828  12.978   3.204
74714W        W41123   8.152  21.182   2.296
74715W        W41124  43.879  38.920   1.398
74716W        W41125  14.236  32.648  14.728
74717W        W41126  13.815   6.384  13.314
74718W        W41127   4.689  30.601   0.223
74719W        W41128  14.821  29.524  13.449
74720W        W41129  23.252  34.562  12.841
74721W        W41130   2.275  40.162   0.244
74722W        W41131  44.861  24.081  11.206
74723W        W41132  37.018  26.792  11.153
74724W        W41133   1.147  16.241  13.982
74725W        W41134  19.792  14.937  12.173
74726W        W41135  17.282  22.241  12.167
74727W        W41136  40.327  34.448   4.839
74728W        W41137  40.472  18.431   0.274
74729W        W41138  11.507  27.397   1.661
74730W        W41139  29.422  13.368   3.718
74731W        W41140  37.331  34.886  11.653
74732W        W41141  17.606  25.635  13.907
74733W        W41142  43.094  44.513   3.706
74734W        W41143  27.544   0.744  11.600
74735W        W41144   4.415   8.782  12.156
74736W        W41145   4.238  14.851   2.269
74737W        W41146  28.921  35.502   4.426
74738W        W41147  31.118  12.275  14.803
74739W        W41148  14.348  40.876  11.977
74740W        W41149  23.480  40.127   2.719
74741W        W41150  23.647   0.960   2.177
74742W        W41151  34.053  23.433  11.965
74743W        W41152  25.643  38.851  12.886
74744W        W41153  35.601   4.711   1.924
74745W        W41154  31.053  15.371   0.815
74746W        W41155  38.243  17.909   2.776
74747W        W41156  40.492   4.621  12.142
74748W        W41157  29.029  18.024  14.903
74749W        W41158  29.072  35.542  10.743
74750W        W41159  30.328   3.402   1.814
74751W        W41160  34.777  33.021  13.417
74752W        W41161  34.545  20.349   2.715
74753W        W41162  32.974  35.902   2.872
74754W        W41163   6.566   8.880  12.432
74755W        W41164  15.786  41.909   4.517
74756W        W41165   2.683  38.763  12.832
74757W        W41166   5.207  23.627  10.483
74758W        W41167   0.770  30.848   3.242
74759W        W41168  26.204  31.991  14.432
74760W        W41169  17.710   3.777  12.105
74761W        W41170   4.129  28.153  11.542
74762W        W41171  37.321  27.142   4.200
74763W        W41172  21.290  26.228  13.874
74764W        W41173  44.430  17.100   0.292
74765W        W41174   9.673  37.438  12.063
74766W        W41175  25.652  16.401   1.352
74767W        W41176  21.494  29.154  13.486
74768W        W41177  15.318   6.132   1.209
74769W        W41178  13.039  20.132  12.381
74770W        W41179  34.118   3.754  11.851
74771W        W41180  28.968  42.328  11.600
74772W        W41181  21.158  31.951   1.329
74773W        W41182  14.293  20.274  12.812
74774W        W41183  33.478  22.634   1.745
74775W        W41184  35.632  42.008  14.684
74776W        W41185  27.736  16.038   1.805
74777W        W41186  35.402  33.917   1.361
74778W        W41187  39.006  41.231  14.550
74779W        W41188  27.862  17.079  11.450
74780W        W41189  32.212   0.964  14.342
74781W        W41190  29.491  44.707   3.657
74782W        W41191  22.789   8.902  10.740
74783W        W41192   5.346  23.543  14.249
74784W        W41193   7.722  18.228   3.165
74785W        W41194  38.517  22.163  13.823
74786W        W41195   7.397   2.893   4.141
74787W        W41196  34.954  37.175  12.031
74788W        W41197   6.983   7.625  12.134
74789W        W41198   2.895   1.270  11.733
74790W        W41199  32.077   0.200   0.769
74791W        W41200  25.158  24.453  14.948
74792W        W41201  28.682  21.730   0.837
74793W        W41202  17.996   2.244  11.952
74794W        W41203  42.771  24.608  13.579
74795W        W41204  17.562  11.444  13.016
74796W        W41205  14.679  38.296  13.130
74797W        W41206   6.497  42.354  12.173
74798W        W41207  32.477  40.619   3.592
74799W        W41208  34.378  40.250   2.298
74800W        W41209  11.139  18.336  14.887
74801W        W41210  12.000   0.282   4.297
74802W        W41211   0.978   1.956  14.380
74803W        W41212  12.939  24.643  11.064
74804W        W41213   4.965   5.804   0.669
74805W        W41214  22.135  21.811  14.763
74806W        W41215   6.009  30.847  12.882
74807W        W41216  15.706  13.228  12.122
74808W        W41217  24.650   9.179   0.233
74809W        W41218  19.752  42.377  11.558
74810W        W41219  11.944  31.101  14.764
74811W        W41220  11.353  21.488  10.948
74812W        W41221   0.208  15.408  13.310
74813W        W41222   5.505   7.981  12.242
74814W        W41223  26.918  34.538  12.506
74815W        W41224  15.727  14.074  10.361
74816W        W41225  22.454  38.849  11.542
74817W        W41226  11.738  19.510   3.404
74818W        W41227   8.372  32.118   0.935
74819W        W41228  11.758  11.938   3.599
74820W        W41229  39.705  18.213  14.717
74821W        W41230  10.768  20.609   4.354
74822W        W41231  39.930  14.565   1.293
74823W        W41232   2.747   5.453   0.860
74824W        W41233   7.770  23.484   2.622
74825W        W41234  28.902  19.738  10.679
74826W        W41235  36.911   3.715  10.463
74827W        W41236   8.154  29.477   1.304
74828W        W41237  40.190  44.219  11.247
74829W        W41238   1.929  17.244   0.492
74830W        W41239  15.743  34.552   3.677
74831W        W41240  17.064   6.405  14.328
74832W        W41241  20.358  18.757   2.841
74833W        W41242   9.228  19.879  13.061
74834W        W41243  42.470  13.072   3.826
74835W        W41244  37.360  34.400   3.454
74836W        W41245   1.379   4.012  13.948
74837W        W41246  29.402  13.028  12.760
74838W        W41247   4.756  15.835   1.679
74839W        W41248   5.938   5.331  14.322
74840W        W41249  12.114   5.996   0.355
74841W        W41250  43.244  44.890   2.756
74842W        W41251  24.061  39.612  12.514
74843W        W41252  19.760  39.093   0.826
74844W        W41253  10.579  32.545   2.828
74845W        W41254  26.064   7.829   9.993
74846W        W41255  23.224  14.401   4.309
74847W        W41256   4.895  37.817   1.836
74848W        W41257  24.653  14.682   4.239
74849W        W41258  39.128  30.764   0.030
74850W        W41259  10.232   5.896   4.861
74851W        W41260  36.830  29.982   1.267
74852W        W41261   6.341  17.589   2.408
74853W        W41262  41.764  16.086  12.000
74854W        W41263  41.602  32.073  14.987
74855W        W41264  25.573  38.026  14.368
74856W        W41265  32.459  14.385  13.451
74857W        W41266  31.906  42.057   2.761
74858W        W41267  23.568  28.862   0.442
74859W        W41268  33.861   6.384  11.800
74860W        W41269  24.491   2.495   2.396
74861W        W41270  16.274  32.959  13.530
74862W        W41271  11.933  33.095  12.884
74863W        W41272   7.780  19.805  10.716
74864W        W41273  15.872  20.033   0.649
74865W        W41274  44.283  14.393   3.350
74866W        W41275  35.440  15.364   2.888
74867W        W41276  34.278   1.510   4.165
74868W        W41277  13.628   5.778   2.156
74869W        W41278   8.663  19.251   2.411
74870W        W41279  39.912  24.756   4.461
74871W        W41280  23.133   2.865  11.819
74872W        W41281  30.040  30.777  13.013
74873W        W41282  17.343  30.668  11.915
74874W        W41283  15.618  34.894  14.815
74875W        W41284  39.812  21.973  11.539
74876W        W41285  17.268  32.102   1.438
74877W        W41286  13.209  39.583   1.926
74878W        W41287  23.059  23.140  10.365
74879W        W41288  17.181  40.284   2.216
74880W        W41289   7.212  20.302   3.712
74881W        W41290  18.426  32.560  14.891
74882W        W41291   0.295  30.542  13.249
74883W        W41292   9.304   0.870   9.633
74884W        W41293  21.657  32.525  13.800
74885W        W41294  27.547  13.357  11.381
74886W        W41295   7.417   7.685   3.646
74887W        W41296   1.354   6.901  11.660
74888W        W41297   4.399   0.676   2.825
74889W        W41298   4.017  33.110  11.665
74890W        W41299  20.145  34.400  14.014
74891W        W41300  20.281  22.264  12.024
74892W        W41301  31.137   1.364   0.992
74893W        W41302   9.743  31.461  12.964
74894W        W41303  38.405  31.436  11.193
74895W        W41304  25.644  33.136  12.375
74896W        W41305  31.901  31.065   1.708
74897W        W41306  44.747  16.970  14.892
74898W        W41307   0.109   0.941  14.454
74899W        W41308  43.804  37.460   3.769
74900W        W41309  39.543  39.840  10.601
74901W        W41310  37.456  18.038  12.969
74902W        W41311  35.239  35.592   2.665
74903W        W41312  39.506  37.337  12.846
74904W        W41313  33.131   5.845   4.180
74905W        W41314  14.194  29.630   0.752
74906W        W41315  23.540   8.737   1.751
74907W        W41316  20.704  18.287  11.517
74908W        W41317  35.190  18.676   1.418
74909W        W41318  20.720  39.659  13.517
74910W        W41319  31.510  39.541  10.549
74911W        W41320   1.692  12.286   1.245
74912W        W41321  35.200  25.514  11.593
74913W        W41322  31.532  44.513  11.879
74914W        W41323  14.163   6.667  11.931
74915W        W41324  42.382   2.172  11.238
74916W        W41325  19.018  43.083   2.401
74917W        W41326  35.043  27.646   3.827
74918W        W41327  22.973  31.432   0.893
74919W        W41328  16.874  28.037   2.219
74920W        W41329  37.970  41.736  13.596
74921W        W41330   3.707   8.833   1.728
74922W        W41331  30.905   5.806   3.756
74923W        W41332  16.325  12.148  12.865
74924W        W41333  41.834  24.280  12.574
74925W        W41334  13.414  13.328   0.856
74926W        W41335  19.573  13.772   2.160
74927W        W41336  44.939   5.854  13.739
74928W        W41337   3.022  11.722   4.135
74929W        W41338  28.389  26.707  11.606
74930W        W41339   2.387  16.794   3.772
74931W        W41340  30.720   4.893   3.008
74932W        W41341  14.216   5.840   2.872
74933W        W41342  34.344  11.193  14.560
74934W        W41343  37.086  26.558   4.908
74935W        W41344  10.859  33.861   0.183
74936W        W41345   6.084  42.815  11.971
74937W        W41346  41.647  11.771   4.381
74938W        W41347   5.930  28.105  12.026
74939W        W41348   8.336  22.303   1.638
74940W        W41349  14.576  41.235   4.117
74941W        W41350  32.124   5.991  10.645
74942W        W41351  11.078   9.938   1.717
74943W        W41352   7.131   8.226  12.908
74944W        W41353  11.761  35.536   2.594
74945W        W41354  28.160  22.776  10.350
74946W        W41355  18.839  27.396  12.026
74947W        W41356  11.560  12.218   4.032
74948W        W41357   2.459  25.399   1.862
74949W        W41358  18.493  41.814   2.876
74950W        W41359  44.041  33.115   3.724
74951W        W41360  22.065  40.905  12.685
74952W        W41361  43.925  21.099   3.642
74953W        W41362  42.056  11.763   3.934
74954W        W41363  23.007  26.224   3.756
74955W        W41364  40.105  18.631   1.915
74956W        W41365   7.223   2.827  12.498
74957W        W41366  15.847  43.127  13.022
74958W        W41367   5.203  42.978  13.014
74959W        W41368  18.684  18.174  11.922
74960W        W41369  30.520  22.572  10.678
74961W        W41370  38.557  38.821   3.351
74962W        W41371  27.928  29.515   3.250
74963W        W41372  16.000   3.386  13.910
74964W        W41373   9.150   9.970  10.553
74965W        W41374   3.697  32.201   0.825
74966W        W41375   8.161  31.204  13.833
74967W        W41376  14.450  12.085   3.837
74968W        W41377  23.859   3.916  12.941
74969W        W41378   8.316   0.769  12.041
74970W        W41379  41.028  30.680  12.924
74971W        W41380  16.912  43.539   4.424
74972W        W41381   6.940  43.967  14.731
74973W        W41382  28.684  17.065  12.982
74974W        W41383  16.719  17.108   4.506
74975W        W41384  18.143   1.986  13.119
74976W        W41385   8.363  38.143  13.843
74977W        W41386  30.036   9.795   3.663
74978W        W41387  33.498  15.657   3.169
74979W        W41388  12.622  17.644  13.524
74980W        W41389  20.460  21.647   0.205
74981W        W41390  42.745  13.473   3.081
74982W        W41391  10.960  13.179  14.075
74983W        W41392  11.195  43.305   3.636
74984W        W41393  43.605   8.921   1.668
74985W        W41394  36.894  22.530   1.937
74986W        W41395  19.776   0.298  14.036
74987W        W41396  37.605  15.306   1.819
74988W        W41397  25.115  41.821  11.912
74989W        W41398   3.885   4.263   3.010
74990W        W41399   1.493  25.748  13.849
74991W        W41400   9.399  23.133  11.608
74992W        W41401  26.432  41.391  12.977
74993W        W41402  26.589   4.896  11.939
74994W        W41403  26.399   7.166   3.012
74995W        W41404  34.010  33.098  12.654
74996W        W41405  20.175  22.736   1.634
74997W        W41406  33.116  34.424   4.118
74998W        W41407  13.945   0.282   0.337
74999W        W41408  42.208  24.635  12.452
75000W        W41409  23.772  14.824   3.244
75001W        W41410  38.907  19.177  12.427
75002W        W41411  13.721  23.566   1.286
75003W        W41412   1.514  17.810  12.577
75004W        W41413   7.830  29.173   4.612
75005W        W41414  43.806  29.185  11.282
75006W        W41415   8.655   8.445   4.088
75007W        W41416  43.281   6.850   3.647
75008W        W41417  21.463  43.765   2.764
75009W        W41418   9.251  11.116   1.580
75010W        W41419  44.430  20.624   4.118
75011W        W41420  30.762  25.279   4.210
75012W        W41421   7.906  23.608  11.524
75013W        W41422  32.383   3.219  10.765
75014W        W41423   1.852  34.543  13.991
75015W        W41424  30.025  24.173   0.192
75016W        W41425  21.039   8.623   3.291
75017W        W41426  36.394  37.546  11.451
75018W        W41427   4.933  30.222  12.518
75019W        W41428  26.083  25.332   0.948
75020W        W41429   0.530   9.062   3.208
75021W        W41430  31.124  23.711   0.446
75022W        W41431  29.435   9.774   0.872
75023W        W41432  35.328  26.140  14.507
75024W        W41433  24.478  15.441  14.653
75025W        W41434  13.738  43.450  14.957
75026W        W41435  35.652  33.975   4.123
75027W        W41436  30.328   4.345   0.877
75028W        W41437  36.463   5.451  14.332
75029W        W41438  43.132   3.765   4.684
75030W        W41439  13.397  18.170  10.459
75031W        W41440  18.041  18.222  12.694
75032W        W41441  41.113  28.653   1.464
75033W        W41442  10.877  40.817  14.451
75034W        W41443  26.460  18.175   1.667
75035W        W41444   8.302  28.480  11.677
75036W        W41445   2.114  12.388   2.176
75037W        W41446  15.590  28.565   1.386
75038W        W41447  36.399  28.196   1.323
75039W        W41448   6.668  20.870   2.892
75040W        W41449  15.191  13.863   1.434
75041W        W41450  14.879   9.642  13.486
75042W        W41451  13.822   5.406   0.349
75043W        W41452  13.731   3.296  12.893
75044W        W41453   4.271   5.856  11.663
75045W        W41454  26.019   0.531  11.453
75046W        W41455  37.883   9.302  13.904
75047W        W41456   3.441  25.942  11.457
75048W        W41457  13.277  22.180  10.686
75049W        W41458  15.078  37.536  12.533
75050W        W41459  33.594  34.869  10.759
75051W        W41460   4.329  30.115   2.893
75052W        W41461   3.824   3.714   1.264
75053W        W41462  29.156  19.972  12.513
75054W        W41463  29.543  24.611  12.378
75055W        W41464  37.442  22.624   1.861
75056W        W41465  35.422  38.841  10.631
75057W        W41466  28.962   3.775   1.406
75058W        W41467   9.481  27.021   3.732
75059W        W41468  25.545  43.445  11.018
75060W        W41469  12.127   0.514   1.349
75061W        W41470  44.474   3.956   0.230
75062W        W41471  41.481  34.329   0.836
75063W        W41472  20.492  27.106   0.794
75064W        W41473  37.465  42.231  12.960
75065W        W41474  18.053  20.959   1.513
75066W        W41475   3.381   4.309   2.935
75067W        W41476  23.325  41.326   0.397
75068W        W41477  36.928   6.588   3.105
75069W        W41478  17.355  30.923  13.931
75070W        W41479  43.391  44.939   1.384
75071W        W41480  31.909  19.005  11.500
75072W        W41481   6.159   0.017  11.080
75073W        W41482  24.226  41.310  12.086
75074W        W41483   5.748  40.530  14.042
75075W        W41484  26.800  40.170  14.019
75076W        W41485   3.681   8.201   4.565
75077W        W41486   8.341   1.711   1.764
75078W        W41487  26.155   3.372  11.850
75079W        W41488  36.432  37.405  13.302
75080W        W41489  30.993   2.749   2.300
75081W        W41490  35.876  20.229  14.737
75082W        W41491  35.919   1.943   1.245
75083W        W41492  17.846   1.633   0.283
75084W        W41493  22.790  30.990  12.373
75085W        W41494   5.881  36.563   3.287
75086W        W41495  41.090  34.838  13.761
75087W        W41496  29.996  40.293   4.310
75088W        W41497  22.588  25.163  14.754
75089W        W41498  10.190   6.711   3.890
75090W        W41499  10.077  23.004   1.315
75091W        W41500  35.864  24.980  13.066
75092W        W41501  32.109  23.010  13.934
75093W        W41502  20.651  34.132  14.820
75094W        W41503  30.568  27.531  10.680
75095W        W41504  35.023  27.960   0.929
75096W        W41505  19.468  32.282   3.329
75097W        W41506  17.193  33.030   3.777
75098W        W41507  20.129   8.664   3.940
75099W        W41508   4.553  13.495   3.610
75100W        W41509  21.621   2.396   0.330
75101W        W41510  35.896  23.560   1.011
75102W        W41511  32.522  25.923   4.518
75103W        W41512  13.373   9.135   2.246
75104W        W41513  17.635   1.645  11.161
75105W        W41514  39.976  40.318  14.799
75106W        W41515  29.278  31.615   2.199
75107W        W41516  25.727  44.328  12.083
75108W        W41517  32.025  16.055  14.713
75109W        W41518  31.813   3.278   2.233
75110W        W41519  11.024  19.759  14.088
75111W        W41520  20.026  23.102   2.872
75112W        W41521  21.009  38.668  11.927
75113W        W41522   6.865  38.962   4.190
75114W        W41523  31.222  27.949  13.460
75115W        W41524  16.217  36.850  12.534
75116W        W41525  26.556  23.126   0.663
75117W        W41526  34.458  22.920  11.646
75118W        W41527  10.247   0.228   3.601
75119W        W41528  15.662  43.119   2.662
75120W        W41529  34.302  35.512  10.717
75121W        W41530  33.985  32.572  13.276
75122W        W41531  29.491  36.566   2.567
75123W        W41532  11.627  32.415   2.866
75124W        W41533  17.737  24.215   0.990
75125W        W41534  25.561  28.182  14.311
75126W        W41535  15.758  18.086  10.599
75127W        W41536  19.497  15.707  11.157
75128W        W41537  38.597  31.572   4.118
75129W        W41538  26.501  15.478  13.973
75130W        W41539   7.897  30.652   2.347
75131W        W41540  20.294  44.010  10.702
75132W        W41541  31.768   1.554   5.412
75133W        W41542   2.433  33.407   0.701
75134W        W41543  26.724  14.665   2.656
75135W        W41544  44.701  30.128  10.777
75136W        W41545  40.971  24.610  11.625
75137W        W41546  23.653  31.833  11.615
75138W        W41547   9.875  11.444   0.834
75139W        W41548  29.069  13.655   1.718
75140W        W41549  16.424   0.272  13.542
75141W        W41550  34.958   2.002  12.018
75142W        W41551  18.322  36.910  13.103
75143W        W41552   6.908  26.112   5.495
75144W        W41553  39.822  43.499  12.481
75145W        W41554  39.999   7.338  12.472
75146W        W41555  36.575  16.529   0.837
75147W        W41556  43.451   6.320  13.542
75148W        W41557   2.311  15.658   0.981
75149W        W41558  21.100  29.572   0.786
75150W        W41559  10.318  35.581   2.334
75151W        W41560  16.358  40.420  13.389
75152W        W41561  29.089  30.371   0.002
75153W        W41562  32.928   7.335   2.795
75154W        W41563   3.667   7.464   2.791
75155W        W41564  25.153   0.736   2.190
75156W        W41565   1.883  19.245  13.529
75157W        W41566  12.142  29.620  14.249
75158W        W41567  31.900  11.122  12.494
75159W        W41568  23.138   2.925  14.383
75160W        W41569  19.832  21.229  11.846
75161W        W41570  32.991  22.164   4.161
75162W        W41571  22.728  19.659   5.027
75163W        W41572  20.125  41.486   1.228
75164W        W41573   7.968   7.917  12.044
75165W        W41574  12.828   3.337   3.841
75166W        W41575  14.667  37.749   3.562
75167W        W41576   6.513  23.557  11.098
75168W        W41577  12.968   4.873  13.503
75169W        W41578   6.812  16.687  13.937
75170W        W41579   9.270  18.181  11.650
75171W        W41580  38.323  24.763   2.161
75172W        W41581  26.677  36.896  14.732
75173W        W41582  11.842  39.692   0.099
75174W        W41583  44.261   9.881  11.590
75175W        W41584  14.244  25.275   1.713
75176W        W41585  15.711   4.312  13.291
75177W        W41586   1.767  29.454  14.813
75178W        W41587  13.648   6.663   0.811
75179W        W41588  35.461  29.737   4.027
75180W        W41589  44.397  26.089   4.605
75181W        W41590  19.011   7.328  10.740
75182W        W41591  36.003   0.911  14.306
75183W        W41592  38.844   4.300   1.738
75184W        W41593   3.410   3.121  12.312
75185W        W41594  35.961   4.836  11.414
75186W        W41595   5.630  18.506  14.569
75187W        W41596  36.143  34.327  13.645
75188W        W41597   7.372  41.359   0.227
75189W        W41598  42.547  18.732   3.661
75190W        W41599  10.177  18.268  11.658
75191W        W41600  37.599   4.780  12.501
75192W        W41601  44.734   4.577  11.014
75193W        W41602   3.347  33.868   0.091
75194W        W41603  12.888  27.761  12.026
75195W        W41604  24.197  30.454  14.558
75196W        W41605  20.592   4.291   2.814
75197W        W41606  43.913   0.699  13.549
75198W        W41607  23.064  23.022  13.435
75199W        W41608  31.465  37.036  11.976
75200W        W41609  14.229   4.634   4.917
75201W        W41610  13.103   8.441   4.535
75202W        W41611  39.515  34.880   4.221
75203W        W41612  44.335  36.159  12.473
75204W        W41613   0.047   5.402  12.066
75205W        W41614   6.635  44.873   0.879
75206W        W41615  38.153  21.517   3.148
75207W        W41616  26.077  35.672   0.694
75208W        W41617  14.845  31.130   4.907
75209W        W41618  38.651   9.932  10.091
75210W        W41619  26.492   2.459  13.390
75211W        W41620  31.934  16.489   4.269
75212W        W41621  29.132  15.641   2.241
75213W        W41622  13.038  29.849  13.260
75214W        W41623   1.913  33.604   1.013
75215W        W41624  35.973   0.230   3.533
75216W        W41625  33.653  39.272   3.239
75217W        W41626  12.114  21.194   0.710
75218W        W41627  35.541   1.399   3.610
75219W        W41628  39.039  35.648   3.927
75220W        W41629   6.675  25.479  13.485
75221W        W41630  16.154   2.023   3.542
75222W        W41631  42.615  16.280  13.916
75223W        W41632  44.009  24.295  12.948
75224W        W41633  13.646   0.849   0.241
75225W        W41634   5.645  18.979   3.656
75226W        W41635  29.969  27.988   4.261
75227W        W41636  24.623  11.786   4.955
75228W        W41637  33.971  35.352   4.651
75229W        W41638  39.047  27.644   0.930
75230W        W41639  26.007  23.557   3.255
75231W        W41640  19.314  39.040  14.052
75232W        W41641  33.865  30.660   1.789
75233W        W41642  22.182   0.677   3.324
75234W        W41643  22.170  41.515   3.827
75235W        W41644  12.038  33.100   0.362
75236W        W41645  37.157  40.521  13.511
75237W        W41646   6.295  41.811   4.389
75238W        W41647  44.576  13.655   1.268
75239W        W41648  10.592  29.409   3.883
75240W        W41649  12.059  19.696  14.009
75241W        W41650  35.381  13.694   2.325
75242W        W41651  33.939  44.060  14.846
75243W        W41652  21.123  15.039   1.752
75244W        W41653  36.106  38.926  14.531
75245W        W41654  10.271  14.574   0.047
75246W        W41655  10.115  23.323   0.940
75247W        W41656  14.530  34.953   4.634
75248W        W41657   2.048  16.749  11.252
75249W        W41658   8.878  24.257   4.669
75250W        W41659  14.904   7.330   3.714
75251W        W41660  29.459  28.683  12.105
75252W        W41661  33.332  13.597   1.319
75253W        W41662  26.454   1.070   4.183
75254W        W41663   2.337  30.079  11.912
75255W        W41664  33.537  33.079   4.606
75256W        W41665  20.359  23.091  12.014
75257W        W41666  44.306  34.304   1.354
75258W        W41667  18.823  38.694  12.386
75259W        W41668  26.265   2.392   2.846
75260W        W41669   4.260  21.720  12.162
75261W        W41670  31.562  17.182  13.619
75262W        W41671  15.488  25.036   4.949
75263W        W41672  25.685  19.496  13.754
75264W        W41673  36.728  14.632   3.557
75265W        W41674  38.430  44.765   4.073
75266W        W41675  25.085  30.887  11.152
75267W        W41676  15.682  10.164  11.575
75268W        W41677  37.363  14.805   1.041
75269W        W41678   9.610  38.114  10.754
75270W        W41679  22.489  31.909  10.963
75271W        W41680   4.688  33.219  13.047
75272W        W41681   3.741  25.666   3.709
75273W        W41682   2.270  34.836  13.850
75274W        W41683  12.301  42.678  13.022
75275W        W41684  18.269  10.791  11.125
75276W        W41685  12.653  11.449  12.925
75277W        W41686   8.715  43.314   1.357
75278W        W41687  15.967   9.541   4.560
75279W        W41688  32.387  44.857  10.584
75280W        W41689  29.880  18.746   0.928
75281W        W41690   3.373  10.646  13.919
75282W        W41691   2.347  44.277  12.510
75283W        W41692  17.661  41.248   4.521
75284W        W41693  27.606  29.214  13.032
75285W        W41694  15.342  42.959   2.271
75286W        W41695  36.550  20.097  14.628
75287W        W41696  22.962   6.959   2.829
75288W        W41697  35.440  23.507   3.662
75289W        W41698  25.084  31.821   3.768
75290W        W41699  23.276  31.992  14.486
75291W        W41700   8.186   7.396   3.226
75292W        W41701  31.690  35.188  12.089
75293W        W41702  42.536  13.198  11.927
75294W        W41703  26.728  17.754  13.379
75295W        W41704  23.736  16.231   4.281
75296W        W41705  16.102   1.020   0.798
75297W        W41706  41.833  30.419  12.530
75298W        W41707  28.243  24.017   0.963
75299W        W41708  25.152  37.872  11.849
75300W        W41709  24.406  37.837  13.143
75301W        W41710  32.538  21.496  10.720
75302W        W41711  19.652  13.774  11.623
75303W        W41712  41.206  28.691   3.433
75304W        W41713  20.503  41.317   4.501
75305W        W41714   3.948  33.486   3.147
75306W        W41715  44.059  21.005  10.575
75307W        W41716   5.814  30.271  10.669
75308W        W41717   4.434  10.585   2.433
75309W        W41718   6.853  15.908  11.091
75310W        W41719   3.383  26.745   2.836
75311W        W41720  32.625  41.406   1.707
75312W        W41721  29.201  14.221  11.609
75313W        W41722  33.075  17.243   5.101
75314W        W41723  20.588  42.870  13.604
75315W        W41724  24.629  17.908  10.381
75316W        W41725  24.972  30.070   3.620
75317W        W41726   7.601  23.776  13.839
75318W        W41727  43.335  32.158  11.388
75319W        W41728   0.441   4.921  14.544
75320W        W41729  39.530  39.061   3.733
75321W        W41730  28.619   0.362   2.331
75322W        W41731  40.613   3.316  14.481
75323W        W41732  26.636  17.653  10.621
75324W        W41733  30.053   8.830  13.006
75325W        W41734  31.053  37.418   2.661
75326W        W41735  21.586   4.981  13.449
75327W        W41736  26.977   7.352  14.922
75328W        W41737   5.485  42.001   1.872
75329W        W41738  43.271  41.686  11.073
75330W        W41739  27.954  14.696   1.805
75331W        W41740  22.604  24.568  12.943
75332W        W41741  25.975  27.458  11.907
75333W        W41742   2.356  14.272  11.253
75334W        W41743  36.655  24.622   2.409
75335W        W41744  42.996  38.399  13.022
75336W        W41745  14.159  30.655   4.848
75337W        W41746  30.482  17.348  11.827
75338W        W41747  35.500  40.224   0.826
75339W        W41748  15.864  44.660   2.591
75340W        W41749  28.608  18.018   1.833
75341W        W41750  18.361  24.786  14.230
75342W        W41751  35.434  12.673   1.440
75343W        W41752  38.771   9.738   1.045
75344W        W41753  27.269  32.711   1.450
75345W        W41754  15.593   3.869  10.381
75346W        W41755  37.086  40.784   1.979
75347W        W41756  28.998   3.645  13.568
75348W        W41757   5.520  12.684   4.145
75349W        W41758  22.017   2.442  14.982
75350W        W41759  40.753  15.999   0.324
75351W        W41760   2.647  33.446   2.296
75352W        W41761  33.868   5.185   4.227
75353W        W41762   9.234  31.546   3.648
75354W        W41763  21.264  28.930   1.933
75355W        W41764  31.159  27.475  14.975
75356W        W41765  13.332   5.408   4.567
75357W        W41766  37.063  31.665  11.946
75358W        W41767  36.628  28.998   1.780
75359W        W41768   5.189  37.394  14.966
75360W        W41769  33.100  40.112  12.574
75361W        W41770   5.186   6.406  14.409
75362W        W41771  30.844  27.003  14.271
75363W        W41772  21.738  27.138  13.957
75364W        W41773  38.715  42.625   5.085
75365W        W41774  30.121  36.626   0.796
75366W        W41775  23.210   9.157  13.252
75367W        W41776  24.255  41.423   0.509
75368W        W41777  27.528   2.929  11.043
75369W        W41778  26.950  28.087  10.823
75370W        W41779  40.746   3.624   1.359
75371W        W41780  27.610  28.505   4.699
75372W        W41781  24.802   5.294  13.982
75373W        W41782  38.926  13.389   2.727
75374W        W41783  35.176  43.092  12.111
75375W        W41784   0.892  43.955  13.323
75376W        W41785  36.515  34.366  11.957
75377W        W41786  28.591  10.100  12.362
75378W        W41787   6.316   6.941  10.742
75379W        W41788   7.866  28.161   4.917
75380W        W41789  43.511  31.386   3.356
75381W        W41790  41.860  13.308  12.844
75382W        W41791  25.435  30.006   1.983
75383W        W41792   7.628   6.059  14.521
75384W        W41793  35.314  26.329   0.955
75385W        W41794   6.428  26.578  11.125
75386W        W41795   0.555   0.727   1.248
75387W        W41796  12.011  29.042  12.039
75388W        W41797  21.023  19.266   1.791
75389W        W41798   5.924  13.629  11.378
75390W        W41799   1.635  20.850  11.089
75391W        W41800  28.823  31.631  11.873
75392W        W41801  21.029  12.825  13.560
75393W        W41802   1.332  19.535  13.457
75394W        W41803  27.032  32.844  13.893
75395W        W41804  10.591  43.892  12.108
75396W        W41805  44.542  40.783   3.189
75397W        W41806  29.445   9.991   3.677
75398W        W41807  25.972  24.484   4.982
75399W        W41808  35.344  34.659  14.959
75400W        W41809  31.841  22.229   2.738
75401W        W41810  14.596  15.216  11.001
75402W        W41811  18.554  21.216   3.767
75403W        W41812   4.197   8.563   3.740
75404W        W41813  23.932  21.252   2.220
75405W        W41814  39.713   7.390  13.947
75406W        W41815  18.813  37.419   1.872
75407W        W41816   1.809  40.846  14.844
75408W        W41817  36.978   7.127   3.248
75409W        W41818   9.390  40.570   2.660
75410W        W41819  29.529   9.932   4.164
75411W        W41820  38.442  21.792   4.460
75412W        W41821   7.708  26.058  11.957
75413W        W41822  10.680  18.796   3.787
75414W        W41823  38.057  34.083  10.316
75415W        W41824  33.946  36.798  13.586
75416W        W41825  12.338  39.544  10.731
75417W        W41826  21.764  21.705   1.673
75418W        W41827  28.193  21.583  11.899
75419W        W41828  28.521   4.392   0.738
75420W        W41829  23.725  16.898   3.261
75421W        W41830  22.785   1.803  14.973
75422W        W41831  37.248  32.006  11.600
75423W        W41832  10.546  40.103   0.192
75424W        W41833  38.315   9.801  13.903
75425W        W41834  16.046  11.711  11.974
75426W        W41835  26.668   6.245  10.279
75427W        W41836  35.686  35.081   1.060
75428W        W41837  15.583   6.732  12.150
75429W        W41838   8.339  39.348   4.582
75430W        W41839  44.426   6.549  12.803
75431W        W41840  16.635  37.344  14.335
75432W        W41841  17.180  32.653  11.192
75433W        W41842  17.323   5.130   1.825
75434W        W41843   7.148  17.790  14.431
75435W        W41844  26.507   3.652   2.442
75436W        W41845  10.183  17.303   5.056
75437W        W41846  42.752  37.391  13.964
75438W        W41847  33.112  11.885  12.027
75439W        W41848  16.534   4.275   3.197
75440W        W41849  28.276  43.053   4.877
75441W        W41850  42.415  12.559  13.030
75442W        W41851  26.452  30.819  14.753
75443W        W41852  18.073  22.299  11.431
75444W        W41853  20.349  31.472   0.768
75445W        W41854  15.264   2.754   4.608
75446W        W41855  23.445  42.664  12.800
75447W        W41856  19.616  42.478   3.806
75448W        W41857  22.651  39.876   4.423
75449W        W41858  14.745  39.431  14.227
75450W        W41859  11.396   7.273  13.017
75451W        W41860   6.215  29.284  14.822
75452W        W41861  16.806  23.889  14.778
75453W        W41862  16.345  20.715   2.314
75454W        W41863   6.234  27.504   2.233
75455W        W41864  18.149   6.342   3.786
75456W        W41865  25.265  18.617   0.711
75457W        W41866  11.692  38.215   1.884
75458W        W41867   3.756  10.559   2.671
75459W        W41868  22.493  19.730  14.852
75460W        W41869   1.479  14.691   4.747
75461W        W41870  26.646  27.929  14.732
75462W        W41871  40.792  26.823   1.005
75463W        W41872  44.724  21.698  11.196
75464W        W41873  42.317   2.821   2.406
75465W        W41874  21.162  33.378   1.769
75466W        W41875  26.177  38.969  12.875
75467W        W41876  16.172   4.467   1.275
75468W        W41877  43.765  12.551   1.240
75469W        W41878  31.670  20.978   3.276
75470W        W41879   8.266   1.514  11.673
75471W        W41880  13.542  29.958  13.331
75472W        W41881  36.294  16.378  12.846
75473W        W41882  43.696  43.535   3.975
75474W        W41883  24.670   6.086   1.192
75475W        W41884  40.577  28.892   3.201
75476W        W41885  44.822  19.852   3.931
75477W        W41886  35.404  21.961   0.472
75478W        W41887  20.044  19.597  12.078
75479W        W41888   8.707   8.850  13.723
75480W        W41889  40.575  20.432   3.137
75481W        W41890  44.304  41.297   1.956
75482W        W41891  11.633  12.650  13.499
75483W        W41892  42.578  38.579   0.624
75484W        W41893   3.428  44.948   0.023
75485W        W41894  29.841  40.371  14.784
75486W        W41895  11.468   0.780  11.624
75487W        W41896  41.147  14.333   0.250
75488W        W41897  25.191   4.381  11.619
75489W        W41898   5.433  19.453   3.629
75490W        W41899  38.821  11.239   0.865
75491W        W41900  23.762  28.071  12.116
75492W        W41901  42.596   3.588   2.871
75493W        W41902  42.001  20.672  12.322
75494W        W41903  37.847  12.275   4.141
75495W        W41904  37.067  23.959  10.576
75496W        W41905  12.048  19.517  12.084
75497W        W41906   5.792   9.897  12.870
75498W        W41907  33.640  17.578  13.680
75499W        W41908  29.019  44.526  11.180
75500W        W41909  18.456  35.488  10.698
75501W        W41910  41.362  41.532  14.883
75502W        W41911  29.071  28.956  14.865
75503W        W41912  37.887  31.099   0.671
75504W        W41913  21.269   1.265  12.553
75505W        W41914   1.482  14.684   0.973
75506W        W41915  21.226  26.158  11.087
75507W        W41916  13.830  24.748  12.619
75508W        W41917  40.058  25.496   1.791
75509W        W41918  17.264  11.875   0.960
75510W        W41919  33.994  31.117   0.021
75511W        W41920   5.747  13.192  12.898
75512W        W41921  21.276   4.957   0.965
75513W        W41922  16.385   8.736  13.612
75514W        W41923   9.315  29.001   2.804
75515W        W41924  16.503  42.725  14.893
75516W        W41925   7.210  18.480  12.511
75517W        W41926  12.114  17.196   1.093
75518W        W41927  41.353  24.451   3.102
75519W        W41928  39.402  34.837   0.554
75520W        W41929  33.219  35.482  13.450
75521W        W41930  13.164  14.018  13.486
75522W        W41931  19.759  31.131   1.466
75523W        W41932  20.827  19.059  13.530
75524W        W41933   0.671  13.629   1.667
75525W        W41934   3.334  18.314   0.730
75526W        W41935  43.807  11.652  11.427
75527W        W41936  16.549  41.656   0.805
75528W        W41937  32.522  35.881   2.605
75529W        W41938  31.943  28.958   1.821
75530W        W41939   7.131  41.567  14.786
75531W        W41940  38.873  16.556  11.060
75532W        W41941   8.342  22.552  11.401
75533W        W41942  21.131  28.025  14.840
75534W        W41943  23.146   5.941  12.903
75535W        W41944  10.607  10.250  11.399
75536W        W41945   3.498   3.445   2.499
75537W        W41946   8.714   5.743   4.234
75538W        W41947  15.007  37.023  12.646
75539W        W41948  30.182  44.732  12.623
75540W        W41949  41.920   9.306   0.878
75541W        W41950  43.856  38.842  11.696
75542W        W41951  18.191  42.823   2.089
75543W        W41952   5.732   2.357   4.607
75544W        W41953   8.715  34.874   1.216
75545W        W41954   2.485  18.528   3.186
75546W        W41955  41.587  23.101  13.799
75547W        W41956   8.191  23.646   0.224
75548W        W41957  30.446   4.827   1.000
75549W        W41958  27.682  15.184   1.898
75550W        W41959  16.563   0.725   1.486
75551W        W41960  41.258  21.578  13.861
75552W        W41961  32.609  43.999   2.223
75553W        W41962  22.077  44.951   3.636
75554W        W41963  21.222  13.602  14.119
75555W        W41964  40.966  14.324  11.540
75556W        W41965  25.854  15.317  10.770
75557W        W41966  14.191  29.493   1.914
75558W        W41967   5.991  33.808   3.222
75559W        W41968  30.824  31.470  12.718
75560W        W41969  34.074  24.694   1.210
75561W        W41970   4.173  21.306  14.337
75562W        W41971  17.291  33.688   4.474
75563W        W41972  36.855   6.730  14.924
75564W        W41973  26.315  41.334   0.868
75565W        W41974  31.377  12.764   1.671
75566W        W41975  15.239   5.664   0.213
75567W        W41976   2.665  22.245   2.765
75568W        W41977  19.581   4.253   0.452
75569W        W41978   0.233  24.465   0.852
75570W        W41979  37.387  43.098  12.491
75571W        W41980  39.783   6.469   3.829
75572W        W41981  21.938  16.876  11.241
75573W        W41982  26.113  37.877  13.690
75574W        W41983  24.291  21.266  13.069
75575W        W41984  11.017  19.015   4.692
75576W        W41985  32.344  21.849  11.705
75577W        W41986  38.801  28.546   2.302
75578W        W41987  22.856  38.999  14.885
75579W        W41988  16.342   7.933  11.017
75580W        W41989  25.724   9.411  12.377
75581W        W41990   7.629  28.648   5.038
75582W        W41991  18.527  20.644   0.328
75583W        W41992  12.910  31.342   0.853
75584W        W41993   0.446   6.614  14.820
75585W        W41994  30.442  13.573  11.113
75586W        W41995  24.204  16.717  14.807
75587W        W41996  17.748  19.041   1.320
75588W        W41997  38.968  22.994  11.039
75589W        W41998  26.004  20.838   0.176
75590W        W41999  40.916   8.844  14.862
75591W        W42000  33.106  36.457   2.730
75592W        W42001  28.086  41.491   1.308
75593W        W42002  26.146   6.660  12.340
75594W        W42003  37.101  34.429  11.244
75595W        W42004  21.215  12.732   0.443
75596W        W42005  19.733  28.826   5.023
75597W        W42006  33.877   1.644  10.668
75598W        W42007  43.027  26.939  14.873
75599W        W42008  20.163  26.621   0.557
75600W        W42009   1.782  36.282  14.452
75601W        W42010   5.620  11.724   2.750
75602W        W42011  43.933  34.755   1.896
75603W        W42012   5.587   4.582   0.386
75604W        W42013  40.172  31.543  13.484
75605W        W42014   8.136  13.415   2.371
75606W        W42015  10.203  34.353  10.115
75607W        W42016  34.424  21.410   1.832
75608W        W42017  19.810   8.321   3.684
75609W        W42018  24.668  30.108   3.189
75610W        W42019  31.888  29.414   3.158
75611W        W42020   6.916  36.403  12.050
75612W        W42021  30.214  37.947   1.932
75613W        W42022  39.976  18.414  10.448
75614W        W42023  11.969  20.740   1.739
75615W        W42024  21.735  12.867   1.226
75616W        W42025   7.307  16.599  13.814
75617W        W42026   9.176  13.378  13.905
75618W        W42027  28.202   0.290  14.435
75619W        W42028   9.428  12.765   2.484
75620W        W42029  31.608  29.170   2.800
75621W        W42030  25.560  17.732   0.232
75622W        W42031   8.104  29.152   4.150
75623W        W42032  19.467   1.318   2.739
75624W        W42033  35.414  32.592   4.612
75625W        W42034  34.460   7.143   3.550
75626W        W42035   0.707  28.987   2.709
75627W        W42036   0.750   2.267   0.224
75628W        W42037  43.603  21.593   4.496
75629W        W42038   7.957  31.538  10.772
75630W        W42039  18.805  37.127  13.996
75631W        W42040  43.798  35.342  13.471
75632W        W42041  21.537  24.669   0.713
75633W        W42042  13.315  26.654  13.373
75634W        W42043  31.265  32.231   1.383
75635W        W42044  16.033  30.414  10.942
75636W        W42045  15.898  25.600   3.183
75637W        W42046  33.908  28.442   3.813
75638W        W42047  30.125  32.271  14.952
75639W        W42048   6.201  17.289  11.216
75640W        W42049  13.351  16.992   2.272
75641W        W42050  19.328  39.563  14.764
75642W        W42051  20.552   3.705   0.891
75643W        W42052  11.268  34.170   3.794
75644W        W42053  10.756  14.517  14.537
75645W        W42054  31.938  39.939   2.920
75646W        W42055  17.323  41.405   4.141
75647W        W42056  40.374  33.702   3.127
75648W        W42057  27.894  28.765  13.020
75649W        W42058  36.668  35.012   0.728
75650W        W42059  44.911  15.240   1.474
75651W        W42060  32.865  30.640   2.779
75652W        W42061  44.481   7.281   2.357
75653W        W42062   4.837   1.732  12.440
75654W        W42063   9.701  16.335   1.229
75655W        W42064  10.112  21.544   1.126
75656W        W42065   1.913  24.989  13.314
75657W        W42066  33.960  41.024  11.500
75658W        W42067   5.303  35.485   4.045
75659W        W42068  38.753  18.805  10.637
75660W        W42069  23.238  36.870  14.814
75661W        W42070  35.923  38.090   0.349
75662W        W42071   4.984  15.476  10.039
75663W        W42072  14.697  22.809   4.585
75664W        W42073  36.580  12.306   1.322
75665W        W42074  38.538   0.823  12.382
75666W        W42075  26.671  12.627  12.724
75667W        W42076  13.443  17.009   1.315
75668W        W42077  33.522  10.819  13.598
75669W        W42078   6.584   3.879  11.221
75670W        W42079  17.173  44.269   1.303
75671W        W42080  25.200  26.523   3.153
75672W        W42081  39.865  24.324   4.725
75673W        W42082  43.189  21.153   0.297
75674W        W42083  14.382  34.380   4.697
75675W        W42084  44.527  15.508   1.192
75676W        W42085  22.175  37.224  13.196
75677W        W42086  44.581  19.335  13.003
75678W        W42087  25.218  39.997  13.426
75679W        W42088  28.953   9.720  13.588
75680W        W42089  38.007  19.215  12.342
75681W        W42090  17.353  18.341  12.123
75682W        W42091  29.721  43.362   1.311
75683W        W42092  13.235  31.259   2.758
75684W        W42093  41.479  33.606  13.110
75685W        W42094   0.062  16.156  11.561
75686W        W42095  31.049  26.996   2.144
75687W        W42096   0.639  44.355  11.778
75688W        W42097   6.241  40.423   2.609
75689W        W42098  29.188  11.655  11.749
75690W        W42099  36.685  33.035   0.232
75691W        W42100   4.701  30.897  10.330
75692W        W42101  27.976  44.784   3.706
75693W        W42102  23.045  21.836   1.806
75694W        W42103  20.591  43.626   1.726
75695W        W42104  16.674   9.139   3.926
75696W        W42105  30.135  35.045   0.467
75697W        W42106  15.726  12.618   2.860
75698W        W42107  29.394  21.214  10.603
75699W        W42108  24.889  11.195  11.627
75700W        W42109   2.415   8.213  10.774
75701W        W42110   8.358  34.407   3.162
75702W        W42111  36.045  28.491   0.762
75703W        W42112  38.436  41.318  13.065
75704W        W42113   0.289  42.125   4.367
75705W        W42114   4.703  13.085  11.606
75706W        W42115  25.513   4.966  14.554
75707W        W42116   7.898  13.961  13.883
75708W        W42117  37.786   9.256   3.605
75709W        W42118  17.067   0.000   2.864
75710W        W42119  27.550  16.763  11.152
75711W        W42120  35.385  15.045   0.848
75712W        W42121  24.961  42.497   4.658
75713W        W42122  11.221  31.349   3.106
75714W        W42123   4.408  37.047   1.085
75715W        W42124  32.977  26.718   2.641
75716W        W42125  27.407  25.621  12.088
75717W        W42126  29.231   4.618  14.912
75718W        W42127  44.495  35.505  10.846
75719W        W42128  29.561   7.685  14.431
75720W        W42129  37.536  24.042   2.770
75721W        W42130   3.349  22.883   0.891
75722W        W42131  37.489   6.379   1.446
75723W        W42132  32.947  36.650  10.536
75724W        W42133  10.480  43.982   2.276
75725W        W42134  27.086  27.807  12.529
75726W        W42135  40.814  30.663  12.016
75727W        W42136  41.983  27.380   3.578
75728W        W42137  33.092   0.402   2.359
75729W        W42138   5.454  12.762   2.313
75730W        W42139  19.228  44.337   4.193
75731W        W42140   5.519  34.513  12.450
75732W        W42141   0.869  12.752  13.854
75733W        W42142  36.870  31.426  12.921
75734W        W42143  44.389  31.462  10.606
75735W        W42144   1.170  27.089  11.221
75736W        W42145  16.091  33.265  11.073
75737W        W42146   1.449  30.538  10.627
75738W        W42147   4.181  35.424  11.533
75739W        W42148   8.320  30.651  14.736
75740W        W42149  15.812  32.105  13.326
75741W        W42150   6.915  38.368   2.822
75742W        W42151  33.403  25.523   0.239
75743W        W42152  37.831  30.656  14.896
75744W        W42153  37.026  32.930   1.953
75745W        W42154  30.390  35.098   3.792
75746W        W42155  37.506  24.068   4.311
75747W        W42156  16.009  36.038  12.943
75748W        W42157  29.152  38.083  11.704
75749W        W42158  22.987  42.745  14.069
75750W        W42159  16.591  34.360   4.143
75751W        W42160   3.859  22.131  14.693
75752W        W42161  16.148  39.262  12.063
75753W        W42162  16.231  27.596  13.537
75754W        W42163  24.490  34.196   0.017
75755W        W42164  29.660   5.831  11.057
75756W        W42165  37.361  15.944   1.397
75757W        W42166  17.091   0.496   2.765
75758W        W42167  39.942  21.997  14.856
75759W        W42168  26.951  20.983   3.628
75760W        W42169  43.505  30.961  12.427
75761W        W42170  35.487  24.440  10.763
75762W        W42171  25.122  33.871  13.858
75763W        W42172  12.495   8.435  12.656
75764W        W42173  25.726  33.442   4.680
75765W        W42174  44.088   3.164   4.271
75766W        W42175  18.767  39.718  11.052
75767W        W42176   9.638  27.545  13.905
75768W        W42177   3.439  34.575   1.451
75769W        W42178  26.592   5.688  13.940
75770W        W42179  28.023  38.887   3.651
75771W        W42180  39.579  36.591   0.498
75772W        W42181  14.302  35.005  13.455
75773W        W42182  31.123  39.067  13.435
75774W        W42183  27.041  14.065   4.212
75775W        W42184   4.942  26.622  13.422
75776W        W42185  23.749   9.615   0.419
75777W        W42186  22.787  29.226   3.683
75778W        W42187  25.003   9.354   0.923
75779W        W42188  33.078  27.314   1.957
75780W        W42189  39.879  32.023  12.749
75781W        W42190  23.722  10.642  12.600
75782W        W42191  43.179   0.225  10.925
75783W        W42192  35.654  37.899   2.328
75784W        W42193  32.137  11.092   1.524
75785W        W42194  15.731   8.230  13.903
75786W        W42195  17.597  32.075  13.314
75787W        W42196  37.784  14.160  10.663
75788W        W42197  41.847   0.675  13.837
75789W        W42198  31.835  33.369   0.366
75790W        W42199  39.436  14.820   3.230
75791W        W42200  23.585  41.867  13.035
75792W        W42201  24.490  13.551  13.509
75793W        W42202  32.393  27.999   1.636
75794W        W42203  36.310  12.273   3.117
75795W        W42204  36.538  41.082   0.879
75796W        W42205  29.632  18.583   5.150
75797W        W42206  22.200  31.108   0.420
75798W        W42207   8.930   7.402   2.838
75799W        W42208  39.104   0.882   3.671
75800W        W42209  17.703  26.494  13.743
75801W        W42210  12.800  22.023  14.080
75802W        W42211  17.620  12.759   4.471
75803W        W42212  25.564   0.463   2.874
75804W        W42213  21.157  27.391  10.734
75805W        W42214  16.062  15.150  13.318
75806W        W42215  11.817  22.911   4.067
75807W        W42216  12.609  37.407  11.466
75808W        W42217  17.072  31.043  13.456
75809W        W42218  26.559  33.449   1.277
75810W        W42219  42.956   2.764  14.420
75811W        W42220  11.916   8.087  11.766
75812W        W42221  27.047  15.619   0.861
75813W        W42222  23.423  26.083   1.213
75814W        W42223  29.726   3.375  14.084
75815W        W42224  33.853  41.867  12.764
75816W        W42225   5.406  24.662  14.860
75817W        W42226  38.637  14.645  14.035
75818W        W42227  44.756  23.132  11.115
75819W        W42228  39.052  23.060  12.957
75820W        W42229  40.818  23.668   3.798
75821W        W42230  35.501   8.640   4.519
75822W        W42231  31.492  32.122   3.246
75823W        W42232  41.981   8.198  11.534
75824W        W42233  34.115  38.807   1.930
75825W        W42234  23.084  28.933   2.400
75826W        W42235  41.181  42.763  14.223
75827W        W42236  41.565   3.264   2.905
75828W        W42237   7.218  32.475   4.752
75829W        W42238   1.238  13.748  10.532
75830W        W42239  40.080   4.732  14.470
75831W        W42240   6.179  13.607  10.958
75832W        W42241  31.411  15.609   4.387
75833W        W42242  15.907  39.929   4.669
75834W        W42243  13.918  14.063  13.768
75835W        W42244  24.405  26.345   2.908
75836W        W42245   6.213  23.677  14.413
75837W        W42246  31.505  23.281   3.634
75838W        W42247  41.911  40.709   1.243
75839W        W42248  18.288  39.011   0.810
75840W        W42249   8.204  13.741  12.120
75841W        W42250  22.675  11.774   3.859
75842W        W42251  35.554  36.344   3.239
75843W        W42252  33.885  36.814  12.975
75844W        W42253  15.663  23.591  11.187
75845W        W42254  14.513   7.358  10.497
75846W        W42255   8.948  25.058  13.504
75847W        W42256  18.509   3.863   1.204
75848W        W42257  14.874   3.379   0.390
75849W        W42258  36.348  16.060  14.779
75850W        W42259   2.336  10.477   4.454
75851W        W42260   9.185  22.480   4.515
75852W        W42261  30.458   8.101  14.730
75853W        W42262  11.880  15.137   2.700
75854W        W42263   5.698  39.274  12.050
75855W        W42264   0.251  39.924  11.119
75856W        W42265  16.091  17.130   3.647
75857W        W42266  25.302  25.676   3.737
75858W        W42267  14.757  31.375  14.609
75859W        W42268  38.117  39.768  13.044
75860W        W42269  15.320  22.263  11.404
75861W        W42270   0.510  14.302  12.306
75862W        W42271  12.858  39.581  11.627
75863W        W42272  27.965  11.120   4.555
75864W        W42273  37.656  41.529  12.491
75865W        W42274  14.555  14.526   1.605
75866W        W42275   8.787  20.753   4.571
75867W        W42276  33.324  19.497  12.511
75868W        W42277  21.093   8.700   1.776
75869W        W42278  29.887  18.151   1.491
75870W        W42279   4.172  26.602  11.419
75871W        W42280  26.116  12.629  13.037
75872W        W42281   9.230   7.742  13.043
75873W        W42282  36.362   6.816   0.028
75874W        W42283   6.976  19.447   0.477
75875W        W42284  41.080  16.154  11.697
75876W        W42285  29.651  38.469   2.469
75877W        W42286  15.730   1.966   4.827
75878W        W42287  25.471  26.308  13.104
75879W        W42288  17.961  12.787  11.919
75880W        W42289   1.030   5.686   4.315
75881W        W42290  16.333  38.394   2.668
75882W        W42291   3.345  24.629   3.734
75883W        W42292   9.274  10.198  14.801
75884W        W42293   9.793  17.552  11.963
75885W        W42294  41.280  32.656   2.185
75886W        W42295  34.576  26.024   2.651
75887W        W42296   4.230  28.145  12.414
75888W        W42297   4.221  39.562  14.541
75889W        W42298   2.698  37.692   0.183
75890W        W42299  12.271   2.396   0.716
75891W        W42300  34.039  36.525   2.878
75892W        W42301  14.678   3.784   5.094
75893W        W42302   1.809  16.539   2.728
75894W        W42303  15.107  39.787  14.163
75895W        W42304  38.026  21.239  14.544
75896W        W42305  33.186  20.068   2.267
75897W        W42306  12.793  31.083  12.117
75898W        W42307   1.984  12.677  11.764
75899W        W42308  42.246  42.647   1.914
75900W        W42309   9.133  25.084   0.710
75901W        W42310  21.616  24.026  14.553
75902W        W42311  40.560  18.819  11.176
75903W        W42312  33.524  41.493   2.506
75904W        W42313  35.325  33.532  11.611
75905W        W42314  37.376  21.184   0.738
75906W        W42315   5.177  44.716  11.953
75907W        W42316  11.550   8.166   2.801
75908W        W42317   8.990  14.089   3.758
75909W        W42318   2.651  15.587   1.370
75910W        W42319  17.755  42.009   1.679
75911W        W42320   0.298  33.074  12.055
75912W        W42321  21.870   6.925   2.299
75913W        W42322  11.319  26.515   1.924
75914W        W42323  22.003  39.173   1.303
75915W        W42324  27.060  30.945  10.742
75916W        W42325  11.627  23.920   2.912
75917W        W42326  43.744  32.470  11.419
75918W        W42327  38.869  18.306  12.951
75919W        W42328  10.408  38.306  11.929
75920W        W42329  23.217   4.581   1.628
75921W        W42330   2.906  34.099  13.860
75922W        W42331  25.637  13.844   0.748
75923W        W42332  29.471  22.217   2.167
75924W        W42333  31.206   4.475  12.371
75925W        W42334  13.696   0.594  12.774
75926W        W42335  14.245  20.022   0.271
75927W        W42336  17.359  36.793   4.714
75928W        W42337   2.127   0.973   0.652
75929W        W42338  14.557   3.423   5.442
75930W        W42339  18.555  16.830   4.763
75931W        W42340   5.075  18.211   3.868
75932W        W42341   8.341  21.549  10.568
75933W        W42342   9.129  17.147  10.719
75934W        W42343  12.287  38.254  11.262
75935W        W42344  24.913  15.736  13.792
75936W        W42345  14.237  30.799  14.036
75937W        W42346  14.790  11.055  11.896
75938W        W42347  20.738  35.632  13.038
75939W        W42348  40.209  26.544   0.222
75940W        W42349  33.793  40.303  12.001
75941W        W42350   9.604  17.149   1.913
75942W        W42351   1.528  13.746  11.020
75943W        W42352  27.660   0.430  12.014
75944W        W42353  29.753  14.265  10.258
75945W        W42354  36.531  36.533   2.069
75946W        W42355  17.099  10.387   1.738
75947W        W42356  20.736  31.821  14.317
75948W        W42357  14.625  41.766  10.711
75949W        W42358  13.379  34.011   4.746
75950W        W42359  43.420  33.150  13.980
75951W        W42360   4.001  31.134   2.224
75952W        W42361  33.339  44.305  10.106
75953W        W42362  14.050  29.289   1.138
75954W        W42363   6.697   5.713   2.353
75955W        W42364  36.820  19.276   0.978
75956W        W42365   4.772  33.389   4.524
75957W        W42366   2.425  26.219  13.575
75958W        W42367  35.510  16.041  14.264
75959W        W42368  31.177  40.955  12.102
75960W        W42369   6.977  13.254   3.253
75961W        W42370   4.758  16.097  14.806
75962W        W42371  31.997  11.332   4.458
75963W        W42372  38.955  13.817   4.543
75964W        W42373   0.784  38.442  14.243
75965W        W42374   3.288  18.589  12.398
75966W        W42375  28.552  13.601  10.614
75967W        W42376   9.267  18.491   3.635
75968W        W42377  40.972  28.544  14.356
75969W        W42378  11.108   5.508  13.466
75970W        W42379  17.632  21.562   3.408
75971W        W42380  34.416  41.450   1.960
75972W        W42381  38.699  19.747  14.350
75973W        W42382  39.162  11.334   3.837
75974W        W42383  37.765   1.321   0.808
75975W        W42384   6.352  33.534   1.002
75976W        W42385  15.309  11.309   1.686
75977W        W42386   8.907  11.287   4.320
75978W        W42387  33.302  16.209  14.254
75979W        W42388  16.722  27.689   3.146
75980W        W42389   6.202  24.457  13.954
75981W        W42390  13.887   8.301  12.074
75982W        W42391  32.892   5.244   0.703
75983W        W42392  13.319  25.997  14.308
75984W        W42393  13.455  37.885  14.982
75985W        W42394   8.046  24.021   2.698
75986W        W42395  25.822  12.667  13.482
75987W        W42396  42.320  17.711   3.856
75988W        W42397  39.409  42.901   3.175
75989W        W42398   4.008   5.823  10.304
75990W        W42399   2.025  33.398   2.691
75991W        W42400   7.320  34.332  10.642
75992W        W42401  12.686   3.250   4.810
75993W        W42402  29.579  26.950  13.495
75994W        W42403  12.247   8.383   0.345
75995W        W42404  38.952   9.598  10.891
75996W        W42405   0.098  42.378   2.691
75997W        W42406  33.653  19.602  12.028
75998W        W42407  14.108  14.749  11.183
75999W        W42408  24.642  23.594   3.309
76000W        W42409  23.475  21.958   2.070
76001W        W42410  21.866  35.497  14.359
76002W        W42411  28.855  13.663  11.034
76003W        W42412  32.121  24.920   3.770
76004W        W42413  26.158  30.766   2.884
76005W        W42414  32.348  23.615  10.351
76006W        W42415   4.789  28.591  13.892
76007W        W42416  43.289  42.814   0.931
76008W        W42417   1.369   3.917  12.959
76009W        W42418   0.975   7.307   1.822
76010W        W42419  41.223  15.620  13.017
76011W        W42420  10.944  30.979  12.459
76012W        W42421  35.368  29.033   3.302
76013W        W42422  37.524  40.949   4.270
76014W        W42423  16.993   6.734   1.819
76015W        W42424  30.309  25.336   3.152
76016W        W42425  29.832   1.004   1.339
76017W        W42426  33.713  19.465   0.884
76018W        W42427   0.145  14.902  13.436
76019W        W42428  40.524  16.254  13.915
76020W        W42429  27.982  27.040   1.846
76021W        W42430  29.455  22.651  10.231
76022W        W42431  18.236  17.871  13.530
76023W        W42432  29.699   9.729   0.043
76024W        W42433   2.768  17.539  11.349
76025W        W42434  10.753  38.104  13.991
76026W        W42435  16.886  43.062  14.874
76027W        W42436  36.565  18.609  11.712
76028W        W42437  18.089  11.796   3.668
76029W        W42438  21.634  38.509  13.536
76030W        W42439   7.287  10.450  11.383
76031W        W42440  14.783  17.052   0.041
76032W        W42441  27.380  20.496  14.031
76033W        W42442  30.038  37.759  11.582
76034W        W42443  37.979  24.328   2.713
76035W        W42444   4.316  44.314  13.252
76036W        W42445  37.425  31.530  14.778
76037W        W42446  36.081  25.456  13.003
76038W        W42447  38.443   3.387  12.810
76039W        W42448  15.745   3.254   3.484
76040W        W42449  34.361  43.760  14.733
76041W        W42450   7.866   7.212   4.593
76042W        W42451  11.908   0.849  11.325
76043W        W42452  28.213  18.376   4.076
76044W        W42453  42.345  32.959  12.490
76045W        W42454  14.363   7.786   1.773
76046W        W42455   4.343  37.858   4.011
76047W        W42456  17.231  17.327  11.158
76048W        W42457  30.535  22.307  14.014
76049W        W42458  19.681  30.389  14.077
76050W        W42459  34.577  34.531  13.728
76051W        W42460  21.227   8.928   1.332
76052W        W42461  13.839  21.678   2.343
76053W        W42462  38.178  21.855   1.803
76054W        W42463  29.440   3.502   0.505
76055W        W42464  35.089   9.315   1.821
76056W        W42465   1.370  22.909   1.721
76057W        W42466  37.590  40.464   0.840
76058W        W42467  35.005  34.317   4.626
76059W        W42468  18.322   9.594  13.016
76060W        W42469  29.098  26.464   0.203
76061W        W42470  15.094  16.729   4.263
76062W        W42471  40.108  30.025   4.558
76063W        W42472  36.403   6.170  13.125
76064W        W42473  15.235  29.512  12.980
76065W        W42474  14.085   3.240  12.522
76066W        W42475  18.145  21.832  14.351
76067W        W42476  40.480  19.060   3.168
76068W        W42477  25.501  24.032   0.763
76069W        W42478  22.747   1.402   1.312
76070W        W42479   3.054  43.333   1.766
76071W        W42480  17.105  33.429  12.518
76072W        W42481  32.584   5.458   0.302
76073W        W42482  17.486  16.112   3.472
76074W        W42483   8.763  14.893   3.044
76075W        W42484  34.028  36.077  12.278
76076W        W42485  33.098  43.887  13.381
76077W        W42486  21.073  30.916  13.177
76078W        W42487  34.468  36.429  11.737
76079W        W42488  35.277  25.070   5.172
76080W        W42489  10.965  28.913   0.526
76081W        W42490  34.279  21.546  11.695
76082W        W42491  23.201  32.149   4.543
76083W        W42492  30.747  22.147   1.770
76084W        W42493  23.711  24.640  12.624
76085W        W42494  13.416  38.830   0.920
76086W        W42495  39.962   5.869   4.447
76087W        W42496  33.686   9.311   4.250
76088W        W42497   8.853  21.150  13.911
76089W        W42498  27.165  16.767  11.497
76090W        W42499  38.348   8.520   4.142
76091W        W42500  34.705  38.005  10.999
76092W        W42501  32.897   1.443   1.321
76093W        W42502  15.084  43.082   2.749
76094W        W42503  17.821  32.487   0.747
76095W        W42504  32.818   2.029   3.334
76096W        W42505  29.600   0.057  14.328
76097W        W42506   7.741   1.245   0.509
76098W        W42507  17.309  44.250   0.418
76099W        W42508  29.124  44.660  13.433
76100W        W42509  23.714  30.629  13.339
76101W        W42510  40.018  32.665  12.856
76102W        W42511  28.616  12.386   4.574
76103W        W42512   2.881  32.428  12.080
76104W        W42513  41.704  33.659  11.944
76105W        W42514  27.956  35.479   0.780
76106W        W42515  14.261  24.609   1.043
76107W        W42516  37.570  37.004   1.341
76108W        W42517  19.463  30.155   1.424
76109W        W42518   6.692  34.105   4.893
76110W        W42519  18.490  30.426   4.216
76111W        W42520  27.953  18.043   4.731
76112W        W42521  15.064  30.423   1.263
76113W        W42522  32.239  24.126   4.426
76114W        W42523   6.059  39.769  12.802
76115W        W42524   9.820   6.434   3.374
76116W        W42525  36.914  31.954  12.950
76117W        W42526  44.377  30.482  14.154
76118W        W42527   0.357  17.666   1.687
76119W        W42528   4.806  20.240   4.548
76120W        W42529   6.120  30.215  14.853
76121W        W42530   9.159   1.456  14.283
76122W        W42531  18.761  22.528   2.382
76123W        W42532  10.715   6.423   0.925
76124W        W42533   5.944  30.881   4.232
76125W        W42534  11.201  10.469  10.708
76126W        W42535  43.415  12.833   1.520
76127W        W42536  20.322  34.076  10.698
76128W        W42537  11.613   2.314   4.529
76129W        W42538  38.363   3.945   0.107
76130W        W42539  18.813  43.301  11.044
76131W        W42540  26.451   4.632  14.094
76132W        W42541  28.784  37.346  11.659
76133W        W42542  26.746   0.986  11.438
76134W        W42543  43.882  14.692   3.561
76135W        W42544  32.480  27.741   3.137
76136W        W42545  17.917   6.776   4.107
76137W        W42546   2.034  15.652  12.034
76138W        W42547  37.371   9.487  13.845
76139W        W42548  34.476   7.668   3.602
76140W        W42549  21.315   4.165  11.078
76141W        W42550  15.553  23.388   5.366
76142W        W42551   9.262  27.174   4.968
76143W        W42552   3.347  34.323  12.066
76144W        W42553  39.803  13.655  14.723
76145W        W42554  34.009  21.625   3.219
76146W        W42555  30.110  31.984  14.010
76147W        W42556  13.181  30.959  13.932
76148W        W42557  12.172  15.985  12.369
76149W        W42558   8.566   7.755   2.885
76150W        W42559  12.594  10.351   2.045
76151W        W42560  24.094  33.327   1.704
76152W        W42561   7.345  11.386  11.574
76153W        W42562   7.996   7.403   0.458
76154W        W42563   6.182  15.060  11.182
76155W        W42564  27.914  10.176  14.855
76156W        W42565  33.962  25.777   4.400
76157W        W42566  10.222  32.923  11.789
76158W        W42567  27.956   7.862  11.047
76159W        W42568  38.961  21.045   4.225
76160W        W42569   1.858  28.178   4.110
76161W        W42570   8.257  24.931  11.302
76162W        W42571  38.557  21.284   2.892
76163W        W42572  34.375   5.917  10.167
76164W        W42573  13.716  13.583  13.918
76165W        W42574  26.713   4.882  14.997
76166W        W42575   2.954  27.474  11.709
76167W        W42576   5.227  41.374  11.708
76168W        W42577  15.286   7.797  14.924
76169W        W42578  13.326  36.660   4.323
76170W        W42579   5.809  14.533   2.718
76171W        W42580  41.838  32.429   3.312
76172W        W42581  22.721  37.757   2.555
76173W        W42582   6.734   2.793  10.905
76174W        W42583  10.565  42.511  11.053
76175W        W42584  31.825  12.703  11.148
76176W        W42585   4.280  19.236   1.871
76177W        W42586  26.937  21.703  10.144
76178W        W42587  16.966  44.147   4.868
76179W        W42588  11.301  15.556   0.222
76180W        W42589  13.252   3.121   4.058
76181W        W42590  39.066  38.204   1.876
76182W        W42591  41.494  36.566   3.389
76183W        W42592  19.037  34.064   4.493
76184W        W42593  44.732   3.682   2.272
76185W        W42594   0.723  28.236   4.615
76186W        W42595  36.158  36.483  14.749
76187W        W42596   3.838  25.497   1.714
76188W        W42597  19.294  39.720  13.314
76189W        W42598   5.894  21.953   2.269
76190W        W42599  10.128  44.047  11.923
76191W        W42600  36.945  40.002   3.174
76192W        W42601   2.470   9.646   2.153
76193W        W42602  15.374  32.842   2.180
76194W        W42603  11.306  40.647  12.526
76195W        W42604  16.606  27.733  12.748
76196W        W42605  20.198   1.203   4.490
76197W        W42606  26.388  15.538  10.768
76198W        W42607  19.283   3.885  12.655
76199W        W42608  43.879  25.317  13.499
76200W        W42609  18.728  14.095   5.024
76201W        W42610  32.213  22.109  14.532
76202W        W42611  17.165  28.875   2.114
76203W        W42612  24.641  30.798  11.407
76204W        W42613  24.513  40.797  12.954
76205W        W42614  31.550  40.452   1.726
76206W        W42615   7.646  25.636   5.475
76207W        W42616  17.659  31.612   3.589
76208W        W42617  43.302  31.925   0.311
76209W        W42618  20.685  33.433   2.505
76210W        W42619  39.565  14.286   2.808
76211W        W42620  44.398  25.986   0.042
76212W        W42621   4.411  30.923  13.604
76213W        W42622  12.817  20.164  10.946
76214W        W42623  31.987  31.983  15.000
76215W        W42624  33.324  29.022   3.203
76216W        W42625   7.500  44.792  11.588
76217W        W42626   8.930   5.402  10.603
76218W        W42627   7.058  24.535  11.144
76219W        W42628  20.529  38.380  13.008
76220W        W42629   2.727  30.081  12.854
76221W        W42630  33.120  14.731  11.726
76222W        W42631   4.466  40.420   4.174
76223W        W42632  35.936  17.300  10.363
76224W        W42633  41.349  31.610   2.378
76225W        W42634  37.545  33.180  13.911
76226W        W42635  26.223   5.269   2.176
76227W        W42636  32.156   4.866   2.727
76228W        W42637  40.259  33.584   1.851
76229W        W42638  44.006  19.236   5.033
76230W        W42639  25.474  32.532   4.168
76231W        W42640  21.827  37.489  11.112
76232W        W42641   0.943  20.960  10.593
76233W        W42642   9.132  10.835  13.530
76234W        W42643   2.771  42.927  13.513
76235W        W42644  30.194  38.927   2.583
76236W        W42645  19.586  21.579   4.263
76237W        W42646  21.595  17.526  12.492
76238W        W42647  42.728  38.856   3.872
76239W        W42648  11.149  34.901   3.061
76240W        W42649   0.907  35.423   0.442
76241W        W42650  15.493   6.283  14.077
76242W        W42651  43.030   3.523  10.346
76243W        W42652  23.139   1.393  11.713
76244W        W42653   3.953  37.630   3.768
76245W        W42654  29.912  44.237   4.686
76246W        W42655   5.982  38.927  12.573
76247W        W42656  20.098  44.532   0.958
76248W        W42657  40.102   1.317   1.259
76249W        W42658  25.377  31.958  12.220
76250W        W42659   6.445  28.398  13.452
76251W        W42660  13.714  40.094  11.059
76252W        W42661  10.757  42.880  14.684
76253W        W42662  17.986  21.779   1.354
76254W        W42663  21.796  18.511   3.832
76255W        W42664  21.306  26.878  10.496
76256W        W42665  31.347  43.811   0.233
76257W        W42666   0.422  13.210  11.366
76258W        W42667  17.248  18.269  13.996
76259W        W42668  32.870  10.503   3.314
76260W        W42669  10.110  26.249  10.997
76261W        W42670  11.608  20.441  11.099
76262W        W42671  18.667   0.488  11.573
76263W        W42672   2.009  31.839   1.345
76264W        W42673  34.105  19.549   1.700
76265W        W42674  17.804   7.210  12.915
76266W        W42675  31.871  38.369  12.294
76267W        W42676  31.499  21.077   4.175
76268W        W42677  38.768   4.329   2.721
76269W        W42678  19.440  28.023   2.254
76270W        W42679  33.380  22.001  10.598
76271W        W42680  36.444  21.734   1.422
76272W        W42681  34.021  21.333   0.500
76273W        W42682  13.196  10.155  12.038
76274W        W42683   2.444  17.148   2.790
76275W        W42684   0.279  16.383  13.340
76276W        W42685  22.642  20.044  11.716
76277W        W42686   4.620   1.789  11.606
76278W        W42687   2.322  26.981   0.046
76279W        W42688  17.143   3.342   0.264
76280W        W42689  44.301   4.250   4.278
76281W        W42690  27.028   5.274   3.382
76282W        W42691  14.807  18.233   1.457
76283W        W42692   7.389   4.351   2.884
76284W        W42693  30.551  24.241  14.530
76285W        W42694  10.687   8.697   4.547
76286W        W42695  18.783   7.159  12.623
76287W        W42696  26.008  13.491   3.197
76288W        W42697  24.517  30.076   2.065
76289W        W42698   3.972  35.895  11.629
76290W        W42699  40.056  10.001   1.427
76291W        W42700  11.340  13.701  12.773
76292W        W42701  32.678  36.960   1.176
76293W        W42702  12.110  14.620  13.184
76294W        W42703  29.130   7.613  10.688
76295W        W42704  25.264  10.843   0.962
76296W        W42705  23.165   8.581  10.436
76297W        W42706  15.715  44.897   1.630
76298W        W42707   0.853  17.132   1.928
76299W        W42708   8.066  22.077   0.871
76300W        W42709  34.964   3.780   2.308
76301W        W42710  24.662  26.107  13.713
76302W        W42711  13.158  44.680   9.720
76303W        W42712  20.128   0.568  14.811
76304W        W42713  20.656  33.893   2.241
76305W        W42714  27.486  41.413  13.032
76306W        W42715   9.201  43.679  11.138
76307W        W42716  44.526  37.049  13.807
76308W        W42717  27.674  40.881   4.107
76309W        W42718  42.391  12.207   3.598
76310W        W42719  20.189  30.168   3.805
76311W        W42720  15.285  30.919  10.727
76312W        W42721  14.196  15.493   4.584
76313W        W42722  26.283  36.437   1.800
76314W        W42723   3.912   5.618   0.279
76315W        W42724   9.156  44.130  10.850
76316W        W42725  16.107   4.028  11.962
76317W        W42726   6.272   0.280   3.939
76318W        W42727  33.799  11.394   2.775
76319W        W42728   5.775  31.566   3.770
76320W        W42729  40.578  28.459  13.120
76321W        W42730  17.991  27.567   4.698
76322W        W42731  38.050  28.578   0.930
76323W        W42732  35.588   6.351  12.559
76324W        W42733  36.349  44.950   0.161
76325W        W42734  35.777  24.005  13.029
76326W        W42735  26.850  30.505   1.749
76327W        W42736  26.035  36.350   4.290
76328W        W42737  27.914  36.892  11.656
76329W        W42738  12.829  14.801  14.854
76330W        W42739  25.067  29.930   4.632
76331W        W42740  13.863  17.096  13.461
76332W        W42741  30.321  16.958  12.116
76333W        W42742   8.446  28.454  11.168
76334W        W42743  33.834  29.467   1.793
76335W        W42744  41.948   2.020  13.315
76336W        W42745   5.198  33.928   0.047
76337W        W42746  36.636  18.646  11.198
76338W        W42747  33.143  42.022  12.653
76339W        W42748  33.381  39.772   4.368
76340W        W42749  23.764  13.169   4.613
76341W        W42750   6.619  39.597   3.170
76342W        W42751   6.179  14.587  12.945
76343W        W42752  15.032  28.652   1.681
76344W        W42753   2.253  28.358   1.328
76345W        W42754   9.379  33.642  14.391
76346W        W42755  18.891   4.853   3.670
76347W        W42756  26.538  17.267  11.820
76348W        W42757  20.043  15.698  11.182
76349W        W42758   3.332  17.820  13.057
76350W        W42759  43.390  31.179   4.827
76351W        W42760  36.967  21.490   0.193
76352W        W42761  17.265   2.321   0.298
76353W        W42762   6.983  21.520  11.432
76354W        W42763  24.306  17.149  12.478
76355W        W42764   6.126  44.840  14.334
76356W        W42765  41.339   3.927  13.591
76357W        W42766  41.980  39.976  12.819
76358W        W42767   1.410  41.985   0.697
76359W        W42768  20.278   6.910   4.152
76360W        W42769   0.216  44.524  14.564
76361W        W42770  33.206  29.650   4.463
76362W        W42771  38.106  38.060   3.021
76363W        W42772  43.484   0.968   2.896
76364W        W42773   3.795  16.311   3.613
76365W        W42774  11.728   5.784  10.689
76366W        W42775  42.833  28.996   2.802
76367W        W42776  17.700  36.973   0.755
76368W        W42777  11.107  21.033   0.308
76369W        W42778  17.304  17.797   0.052
76370W        W42779  18.977  10.480   9.851
76371W        W42780  35.106   1.017   4.222
76372W        W42781  23.242   5.163   0.206
76373W        W42782  25.771  27.929  12.424
76374W        W42783   9.633  13.122   1.413
76375W        W42784  26.472  44.802  10.989
76376W        W42785  28.680  44.787  11.564
76377W        W42786  34.471   8.654   1.487
76378W        W42787  40.509  20.078  12.235
76379W        W42788  28.636  12.582  13.161
76380W        W42789   9.197   9.848  14.360
76381W        W42790  42.645  21.198   1.434
76382W        W42791  11.246  43.978  10.089
76383W        W42792  14.734  34.469  11.725
76384W        W42793  39.571   6.357  13.516
76385W        W42794  37.542   2.915   0.758
76386W        W42795  28.432  30.224  12.537
76387W        W42796   7.335  42.617   4.515
76388W        W42797   6.110  10.391   1.433
76389W        W42798  14.158  30.962  13.545
76390W        W42799  16.671  42.848  10.151
76391W        W42800  13.836  13.309  13.480
76392W        W42801  12.349  38.395   4.238
76393W        W42802  41.458  14.090  13.795
76394W        W42803  35.103  39.081  13.614
76395W        W42804  39.661   8.891  13.444
76396W        W42805  38.907  34.071  10.599
76397W        W42806   7.438  24.320  11.562
76398W        W42807  21.133  24.789   3.230
76399W        W42808   2.413  29.168   1.849
76400W        W42809  10.807  22.540   0.902
76401W        W42810   3.916   7.356   3.271
76402W        W42811   5.782  19.535  12.946
76403W        W42812  39.838  13.797  12.578
76404W        W42813  21.915  32.583   2.732
76405W        W42814  38.363   2.944   1.231
76406W        W42815  16.300   3.245   4.202
76407W        W42816   7.269  35.494   2.427
76408W        W42817  40.286   3.129  12.104
76409W        W42818  10.653   7.487   1.009
76410W        W42819  13.748   9.951   1.643
76411W        W42820  15.856   7.583   0.615
76412W        W42821  10.362  22.737  11.360
76413W        W42822  44.387  35.948   4.910
76414W        W42823  26.869  27.031  11.516
76415W        W42824   1.207  23.454  12.096
76416W        W42825  34.462  15.100   3.699
76417W        W42826  42.228   0.512   1.722
76418W        W42827  35.880  37.316   4.034
76419W        W42828  38.953  36.385   5.187
76420W        W42829  36.578  14.710  11.532
76421W        W42830  20.566  11.070  14.719
76422W        W42831   9.297  33.917   2.857
76423W        W42832  27.244   3.879  12.573
76424W        W42833  21.499  36.424   4.641
76425W        W42834  29.908   4.647   0.820
76426W        W42835   8.181  37.849   0.744
76427W        W42836   4.992  24.481  12.156
76428W        W42837  24.530  34.459  13.304
76429W        W42838   9.905  33.523  14.361
76430W        W42839  28.133   0.793   3.616
76431W        W42840  15.057  17.130   2.717
76432W        W42841  44.889  29.928   4.663
76433W        W42842  16.693  18.937   4.158
76434W        W42843  21.711  28.722  11.463
76435W        W42844  18.128  28.023  13.776
76436W        W42845  41.172  27.838   4.940
76437W        W42846   9.773   0.753  14.959
76438W        W42847   3.809  26.988  10.337
76439W        W42848  10.313   2.833   0.707
76440W        W42849  19.337  32.210   4.670
76441W        W42850   4.673  34.451   3.155
76442W        W42851  26.694  11.973  13.341
76443W        W42852  35.505  32.893   2.833
76444W        W42853  27.117  44.903   4.404
76445W        W42854  18.008  15.351  11.627
76446W        W42855  12.993  34.840   1.154
76447W        W42856   8.584   8.102   3.269
76448W        W42857  20.150  39.035   0.100
76449W        W42858   2.842  44.612   2.244
76450W        W42859  29.859  33.104   2.422
76451W        W42860  32.031   6.990   4.475
76452W        W42861  20.680   8.812   0.653
76453W        W42862  27.879  17.279   4.055
76454W        W42863  39.964  33.109   0.218
76455W        W42864   1.967  27.895  12.470
76456W        W42865  14.589   5.886   2.508
76457W        W42866  33.899  20.493  14.128
76458W        W42867  19.526  24.113  14.734
76459W        W42868   6.198  21.639  13.296
76460W        W42869   7.948  20.755   4.209
76461W        W42870  33.179  35.003   0.527
76462W        W42871  37.744  23.612   1.197
76463W        W42872   3.994  20.643  11.229
76464W        W42873  11.659  39.263   4.149
76465W        W42874  16.253  21.935  10.856
76466W        W42875  37.488   1.943  10.236
76467W        W42876   0.736  11.924   4.123
76468W        W42877  16.781  16.538  11.147
76469W        W42878  40.434   2.853  10.793
76470W        W42879  26.939  12.067  14.768
76471W        W42880  38.309  16.631   0.506
76472W        W42881  37.897  43.953   2.264
76473W        W42882  22.054  13.899  13.973
76474W        W42883  24.099  18.777  13.916
76475W        W42884  35.793  12.130   3.089
76476W        W42885  39.097   8.160  14.972
76477W        W42886  38.575  34.949   1.374
76478W        W42887  26.514   1.586  14.886
76479W        W42888  33.523  25.262  10.000
76480W        W42889  33.635   8.893  11.864
76481W        W42890   7.283  38.541  11.431
76482W        W42891  39.945  15.304   0.535
76483W        W42892  42.946  25.194   1.642
76484W        W42893  24.337  12.245   0.013
76485W        W42894  31.082   8.391   5.815
76486W        W42895   1.909  15.840   4.860
76487W        W42896   5.468  26.472   1.429
76488W        W42897  26.668  20.729  11.955
76489W        W42898  23.520   9.266  11.522
76490W        W42899  17.592  13.675   2.285
76491W        W42900   3.430  25.375   3.111
76492W        W42901  35.377   9.784  14.829
76493W        W42902  19.140   5.373  13.884
76494W        W42903  34.283  44.359   1.821
76495W        W42904   0.949   2.200  12.526
76496W        W42905  18.694   7.167  13.969
76497W        W42906  41.754   5.803   3.044
76498W        W42907  33.849  29.935   2.169
76499W        W42908  38.942  38.808  13.809
76500W        W42909   5.762  42.718   0.356
76501W        W42910  42.999  29.978   2.482
76502W        W42911  36.875  40.231  13.199
76503W        W42912  15.343  41.480  13.392
76504W        W42913  29.499   6.938  13.809
76505W        W42914  12.356  38.307  12.532
76506W        W42915  11.938  36.595  11.372
76507W        W42916  41.104  28.036  14.331
76508W        W42917  26.498  26.932   0.701
76509W        W42918  26.439  14.645  11.117
76510W        W42919   4.358  37.421   2.584
76511W        W42920  33.026  42.128  11.773
76512W        W42921  24.222  43.039  12.685
76513W        W42922  43.865   9.566  13.020
76514W        W42923  41.776  31.438   3.258
76515W        W42924  21.148  37.189  12.378
76516W        W42925   4.927   8.544   4.082
76517W        W42926  22.473   7.718   0.411
76518W        W42927  14.136   4.325  13.281
76519W        W42928  18.152  41.996   0.038
76520W        W42929  44.857   8.185   3.235
76521W        W42930  40.288  36.940   3.301
76522W        W42931  14.777  44.049   1.406
76523W        W42932  28.094  22.455   3.807
76524W        W42933  33.508  35.919   4.756
76525W        W42934  36.360  13.564   2.238
76526W        W42935   7.626  10.879  12.123
76527W        W42936   4.237  36.582   1.154
76528W        W42937  20.091  42.405  10.548
76529W        W42938  17.557   8.337   0.226
76530W        W42939   2.366  10.303  14.863
76531W        W42940  29.011   8.386  11.991
76532W        W42941  36.483  19.773   3.132
76533W        W42942  16.350   8.126  14.842
76534W        W42943  26.182   1.447   3.410
76535W        W42944  25.383  17.214   0.242
76536W        W42945  25.911  13.408  14.512
76537W        W42946  32.026  23.058  14.605
76538W        W42947  39.814  18.420   2.312
76539W        W42948  15.316  19.246  13.483
76540W        W42949   2.771  23.083  12.643
76541W        W42950  28.936   8.660   1.795
76542W        W42951  28.511  14.484  11.953
76543W        W42952  42.957  42.842   2.332
76544W        W42953   9.775  23.146   4.416
76545W        W42954  37.478  25.999   4.223
76546W        W42955  39.768   6.164   4.881
76547W        W42956  39.438   7.443  11.023
76548W        W42957  26.802  26.623   1.366
76549W        W42958  14.617   1.457   3.138
76550W        W42959  28.586  36.006   0.789
76551W        W42960  28.932  35.579  13.079
76552W        W42961   2.483  42.499  13.307
76553W        W42962  19.589  19.070   0.352
76554W        W42963  34.177   6.141   2.039
76555W        W42964   3.231  42.993   4.840
76556W        W42965  43.413  34.853   4.806
76557W        W42966  38.635  25.958  11.199
76558W        W42967  17.810  29.208   0.224
76559W        W42968  23.566   8.327  13.373
76560W        W42969  18.244  44.694   3.619
76561W        W42970   4.435  35.569   4.571
76562W        W42971  30.874   3.400   0.068
76563W        W42972   8.117  16.582   1.279
76564W        W42973  39.653  12.756   2.125
76565W        W42974  21.554   0.457   0.869
76566W        W42975  14.157  36.743   2.346
76567W        W42976  33.145  24.549  13.483
76568W        W42977  33.822   6.478  13.320
76569W        W42978  16.708  36.855  14.142
76570W        W42979   1.071  30.542   0.330
76571W        W42980  34.404  33.384  10.625
76572W        W42981  26.511   8.512   1.266
76573W        W42982  27.909  39.573   0.835
76574W        W42983  27.495  21.678   5.541
76575W        W42984   1.752  40.463  13.002
76576W        W42985  11.853  42.829   1.483
76577W        W42986   0.066  32.576   2.565
76578W        W42987  15.014  21.354  12.075
76579W        W42988  33.995  11.175  11.022
76580W        W42989  40.689  40.318  12.094
76581W        W42990   6.663   7.916  12.425
76582W        W42991   9.734  23.475   1.271
76583W        W42992  40.644  33.083  13.429
76584W        W42993   4.897  37.314   1.824
76585W        W42994   7.162  32.355   2.234
76586W        W42995  15.215  29.699  14.761
76587W        W42996  36.517   0.611   4.965
76588W        W42997  34.082  22.007  13.343
76589W        W42998  18.727  44.985  10.609
76590W        W42999  25.482   1.394  11.114
76591W        W43000  13.676  18.988   3.176
76592W        W43001  43.943  29.659   3.869
76593W        W43002  13.078  12.175   3.280
76594W        W43003  41.717  25.956  11.486
76595W        W43004  36.497  34.178  11.470
76596W        W43005  29.693   6.952   2.240
76597W        W43006  40.896  29.296  12.613
76598W        W43007  18.040  25.392   4.081
76599W        W43008  41.481  24.887  13.557
76600W        W43009  28.910  25.111  10.721
76601W        W43010  22.124   7.838  13.882
76602W        W43011   3.482   7.418  14.276
76603W        W43012   8.601   7.913   0.060
76604W        W43013  28.457  25.368   0.783
76605W        W43014  30.073  37.386   4.350
76606W        W43015  20.436  30.331  13.597
76607W        W43016  17.667  32.248  12.837
76608W        W43017  31.126  20.855   4.468
76609W        W43018  36.966   5.917  12.949
76610W        W43019  13.615   2.834   0.464
76611W        W43020   1.486   2.333  14.220
76612W        W43021  40.493  12.888   0.889
76613W        W43022  26.845  14.945   0.369
76614W        W43023  24.018  41.032   2.736
76615W        W43024  36.126  22.376   2.692
76616W        W43025   3.458  24.912   3.331
76617W        W43026  25.044  40.833   1.341
76618W        W43027   6.318  11.796   1.657
76619W        W43028  13.337  39.388  10.720
76620W        W43029  13.107  22.552   0.181
76621W        W43030   9.161  32.541  11.591
76622W        W43031  27.705   2.865   4.554
76623W        W43032  23.447  20.041   4.722
76624W        W43033  24.318   3.960  12.687
76625W        W43034   4.675  22.723  14.954
76626W        W43035   1.972  11.344   2.863
76627W        W43036  41.372  19.982  12.959
76628W        W43037  21.549  14.385  11.107
76629W        W43038   1.409  41.198  14.012
76630W        W43039   4.828  40.822  13.121
76631W        W43040   1.716  23.683  13.056
76632W        W43041   9.708  13.704   3.165
76633W        W43042   0.525  18.160  13.908
76634W        W43043   6.912  35.492   1.737
76635W        W43044  25.026  35.105  13.722
76636W        W43045   8.434   0.463  12.518
76637W        W43046  27.956   5.320   1.886
76638W        W43047   6.455  14.156  13.044
76639W        W43048  14.503  31.577   3.658
76640W        W43049  11.000  14.891  13.539
76641W        W43050  37.633  44.569   5.065
76642W        W43051  24.631   2.613   3.683
76643W        W43052  34.015  34.606   2.461
76644W        W43053  31.517  42.251   4.584
76645W        W43054  43.311  18.494  14.837
76646W        W43055  40.381  44.381  13.096
76647W        W43056  36.351  44.982  12.422
76648W        W43057   4.336  18.145   4.353
76649W        W43058   9.144   9.925   1.889
76650W        W43059  38.290  35.821   3.294
76651W        W43060  14.692  18.652   1.163
76652W        W43061  43.942  13.684   2.659
76653W        W43062  10.646  28.666  11.509
76654W        W43063  21.625  10.475   1.671
76655W        W43064  32.336  12.199   3.768
76656W        W43065  22.260  10.485   0.094
76657W        W43066  23.239  19.132   4.753
76658W        W43067  13.785  14.559  13.004
76659W        W43068  28.438   3.769  11.796
76660W        W43069  41.965   4.430   1.422
76661W        W43070  33.305  18.929  13.757
76662W        W43071   4.945  42.979   3.108
76663W        W43072   8.467  14.484  14.768
76664W        W43073  31.702  43.277  12.573
76665W        W43074   1.319  39.773  13.954
76666W        W43075  38.397  28.049  11.674
76667W        W43076   3.697   2.369  12.032
76668W        W43077  36.426  41.454  14.177
76669W        W43078  28.034  39.946   1.311
76670W        W43079   5.005   1.343   3.286
76671W        W43080  20.707   8.382  14.628
76672W        W43081   9.196   2.780   2.926
76673W        W43082  33.087  41.465   9.832
76674W        W43083  13.288   5.085   4.966
76675W        W43084  39.254  17.117   1.368
76676W        W43085  11.925   7.253  13.097
76677W        W43086  35.946  16.787  14.821
76678W        W43087  29.169   1.395   3.362
76679W        W43088   5.864  39.399   0.602
76680W        W43089  36.801  25.113  12.602
76681W        W43090  37.065  14.541   3.172
76682W        W43091  35.478  42.274  12.936
76683W        W43092  20.411  29.033   3.169
76684W        W43093  12.323  38.035   1.279
76685W        W43094  11.246  16.732   3.195
76686W        W43095  31.884  20.791   4.421
76687W        W43096  10.223   4.030   4.983
76688W        W43097  33.652   9.828   0.802
76689W        W43098  10.747  31.700  10.192
76690W        W43099  26.537  14.427   0.725
76691W        W43100  44.063  39.248  14.078
76692W        W43101   1.196  19.746  10.860
76693W        W43102  20.674  14.216   3.180
76694W        W43103  40.720   0.181  10.949
76695W        W43104  40.513  14.288   1.850
76696W        W43105  13.732  32.990  13.592
76697W        W43106  12.743  40.297   3.242
76698W        W43107  21.728   7.991   1.783
76699W        W43108  40.248  37.433   2.617
76700W        W43109  16.300  19.016  14.988
76701W        W43110  22.954   8.652  12.043
76702W        W43111  30.548  11.962  11.909
76703W        W43112  20.169   3.524  12.483
76704W        W43113   9.132  12.682   0.158
76705W        W43114  14.244  44.395  13.463
76706W        W43115  33.160  14.771  13.923
76707W        W43116  40.371  27.712  11.068
76708W        W43117  10.642  18.605  13.360
76709W        W43118  33.924  33.018   0.933
76710W        W43119  36.156  34.015   3.146
76711W        W43120   1.888   1.683  11.602
76712W        W43121  37.992   0.554  11.841
76713W        W43122   9.841   6.643  14.709
76714W        W43123  18.707  39.911   0.155
76715W        W43124  41.486  36.453   0.384
76716W        W43125  10.120   0.389   9.764
76717W        W43126   0.446  15.568  12.871
76718W        W43127  25.168  14.736  10.606
76719W        W43128  16.831  44.063   0.411
76720W        W43129   1.679  13.884  12.361
76721W        W43130  14.040  41.320   4.090
76722W        W43131  24.557  32.877   0.408
76723W        W43132   3.479  30.070  13.657
76724W        W43133  31.009  26.526  12.578
76725W        W43134   4.474  28.891  14.965
76726W        W43135  38.868   8.229  14.387
76727W        W43136  42.434  24.717   3.349
76728W        W43137  19.818   6.769   3.077
76729W        W43138  38.477  16.131   5.440
76730W        W43139  22.764   6.881  10.694
76731W        W43140  19.746   8.355  12.969
76732W        W43141  26.537   7.166  11.656
76733W        W43142  21.802  31.696  11.596
76734W        W43143   7.750  27.422   1.756
76735W        W43144  29.182   1.898  13.857
76736W        W43145  29.081  17.672  10.881
76737W        W43146  22.155  26.083  14.075
76738W        W43147  35.476  17.059  13.494
76739W        W43148  35.899  34.174   2.724
76740W        W43149   9.307  31.174   3.092
76741W        W43150  28.008  32.174  10.738
76742W        W43151  42.832  29.630  13.464
76743W        W43152  17.730  43.737  12.051
76744W        W43153  21.735  39.540   4.291
76745W        W43154  22.086  26.632  13.840
76746W        W43155  30.632  23.728  12.554
76747W        W43156  24.674  10.643  12.877
76748W        W43157  43.263   4.308  12.420
76749W        W43158   3.364  23.948   1.847
76750W        W43159  29.904  23.844  10.649
76751W        W43160  37.950  34.682   1.916
76752W        W43161   6.869  16.128   4.679
76753W        W43162  23.854  39.119  14.932
76754W        W43163  25.320  15.619   5.116
76755W        W43164  27.263  23.303  11.140
76756W        W43165  30.549  42.551  12.542
76757W        W43166  30.625  24.619  12.093
76758W        W43167   0.560  27.793   4.123
76759W        W43168  16.603  32.607   0.894
76760W        W43169   7.248  11.502   4.631
76761W        W43170  22.747  32.240  13.574
76762W        W43171  25.668  30.727  13.294
76763W        W43172  12.214  41.066   4.971
76764W        W43173  27.948  39.791  10.708
76765W        W43174  12.218   8.486   3.150
76766W        W43175  28.021  42.390  14.340
76767W        W43176  36.847  43.730  11.621
76768W        W43177  43.891  23.117   2.350
76769W        W43178   0.577  20.131  13.358
76770W        W43179   4.979  19.606   2.785
76771W        W43180  12.733  28.965   1.894
76772W        W43181  22.669  23.028   0.726
76773W        W43182  21.954  12.228   0.378
76774W        W43183  12.274  19.624  12.976
76775W        W43184  28.067  16.798  11.832
76776W        W43185  44.260  10.339   1.561
76777W        W43186  20.338  10.906   2.287
76778W        W43187  43.429  35.775   3.297
76779W        W43188  20.330  25.583  12.876
76780W        W43189  13.357  17.056  13.365
76781W        W43190  21.966  21.156  10.357
76782W        W43191   8.719  11.934  13.800
76783W        W43192  42.994  19.233   0.186
76784W        W43193  33.048  30.383  11.560
76785W        W43194  13.223  29.619   4.871
76786W        W43195  13.845  30.923  14.329
76787W        W43196  14.683  44.236  14.502
76788W        W43197  30.885  11.493  13.128
76789W        W43198  38.701  11.529  11.735
76790W        W43199  26.166   3.439  13.147
76791W        W43200  19.771  44.349   0.402
76792W        W43201  42.284  19.884  13.413
76793W        W43202   9.819  42.956   3.686
76794W        W43203  18.076   0.903   2.193
76795W        W43204  44.978  23.165  12.643
76796W        W43205  33.048  33.673   2.067
76797W        W43206  36.576  16.310   2.960
76798W        W43207  24.991   8.168   2.316
76799W        W43208  26.224  36.457  13.552
76800W        W43209   2.727  40.333  14.896
76801W        W43210  21.340  35.032   5.058
76802W        W43211  30.037  40.909  11.019
76803W        W43212   9.304  14.591  12.202
76804W        W43213  21.470   7.370   3.614
76805W        W43214   4.407  10.799  14.445
76806W        W43215  14.144  33.381  12.445
76807W        W43216  24.709  42.099  14.330
76808W        W43217  34.522  22.924  12.562
76809W        W43218   4.141  21.050  14.790
76810W        W43219  44.729  28.953   3.601
76811W        W43220   8.186  31.178  11.536
76812W        W43221  22.263  39.815  12.881
76813W        W43222  36.387  36.907  14.961
76814W        W43223  26.657  39.615  11.146
76815W        W43224  37.399  44.298  11.925
76816W        W43225  40.438   1.888   4.547
76817W        W43226  36.092  37.419  14.785
76818W        W43227  12.673   8.678   0.541
76819W        W43228  42.468  44.789   3.217
76820W        W43229   0.581  37.470   4.555
76821W        W43230  13.772   2.041  11.517
76822W        W43231  17.774  22.295  13.005
76823W        W43232  17.072  35.829   4.464
76824W        W43233  19.548   9.261   4.683
76825W        W43234  11.546  15.053   3.847
76826W        W43235  18.628  17.425  13.165
76827W        W43236   6.777  41.613   0.274
76828W        W43237  33.314  34.247  14.404
76829W        W43238  13.084  19.761   1.758
76830W        W43239  41.027  37.997  14.222
76831W        W43240   7.470  30.360   2.429
76832W        W43241   8.848  11.856   1.035
76833W        W43242   2.452  21.792  11.111
76834W        W43243  42.733  16.628  14.920
76835W        W43244  39.764  26.029  13.421
76836W        W43245   6.700  39.492   0.806
76837W        W43246  18.378  34.452   0.374
76838W        W43247  40.110  13.052  12.093
76839W        W43248   4.284  37.036  13.894
76840W        W43249  23.169  26.532   0.440
76841W        W43250  29.455  37.352   0.725
76842W        W43251  35.575  16.521  14.500
76843W        W43252  43.826  11.703   2.841
76844W        W43253  14.377  24.914  10.640
76845W        W43254  33.708  42.763  12.179
76846W        W43255  28.588  32.103  11.616
76847W        W43256  30.152  21.039  11.199
76848W        W43257   6.213   9.189  13.075
76849W        W43258  26.020  24.082  14.908
76850W        W43259  42.721   4.325  10.580
76851W        W43260  41.164  23.666  14.443
76852W        W43261  33.102   2.083   4.561
76853W        W43262  31.054  16.647  12.640
76854W        W43263   4.458   7.453  13.941
76855W        W43264  19.761  31.855  11.637
76856W        W43265  39.625  25.607  11.946
76857W        W43266  17.270  32.444   0.647
76858W        W43267  24.659   8.891  11.184
76859W        W43268  24.828  40.547   1.740
76860W        W43269  40.589  40.842   3.359
76861W        W43270  11.277  27.563   2.087
76862W        W43271  44.518  27.532   0.966
76863W        W43272  16.287  10.335   2.344
76864W        W43273   3.270  35.019   0.843
76865W        W43274  39.912  38.572  14.066
76866W        W43275   1.689  15.136   0.803
76867W        W43276   4.746  27.663  11.886
76868W        W43277   0.910  11.626   2.202
76869W        W43278  37.573  37.611  13.975
76870W        W43279  25.942  11.308   0.410
76871W        W43280  42.435  12.352   1.205
76872W        W43281  20.546  41.799   1.234
76873W        W43282  31.046   5.449   3.371
76874W        W43283  32.953  28.385  13.707
76875W        W43284  11.108  44.890  13.033
76876W        W43285   8.019  44.723  13.166
76877W        W43286  24.024  18.232   0.011
76878W        W43287  38.817  41.242   1.777
76879W        W43288  30.921  39.877   4.523
76880W        W43289   3.158  42.364  11.900
76881W        W43290  20.030   2.787  14.374
76882W        W43291  32.950  17.190  14.308
76883W        W43292  10.888  22.829   1.376
76884W        W43293  13.794  44.714  11.970
76885W        W43294  11.951  42.013  14.398
76886W        W43295  35.689  30.966  13.529
76887W        W43296  11.765  36.641   0.915
76888W        W43297   8.682   3.580  10.728
76889W        W43298  17.528  25.482   1.325
76890W        W43299   0.339  35.602  12.453
76891W        W43300  41.919  10.720   1.389
76892W        W43301  28.167  19.160   3.916
76893W        W43302   2.912  40.690  13.042
76894W        W43303  23.977   0.963  11.912
76895W        W43304  19.471  11.434  10.771
76896W        W43305  44.592  41.480  14.395
76897W        W43306  43.891  32.143   4.059
76898W        W43307  40.017  41.316  10.489
76899W        W43308   0.372   9.217   1.017
76900W        W43309  28.236  11.545  12.427
76901W        W43310  18.090  10.881  12.516
76902W        W43311  17.279  25.670  10.535
76903W        W43312  21.745  18.475  10.993
76904W        W43313  34.365  40.982   0.825
76905W        W43314  31.542  39.609   0.346
76906W        W43315  39.238  35.066  14.534
76907W        W43316  41.519   0.823   3.686
76908W        W43317  36.952   5.557  14.515
76909W        W43318  10.519  30.043  12.100
76910W        W43319  17.169  40.976  14.869
76911W        W43320  30.026  27.914  14.145
76912W        W43321  10.270  28.475  12.069
76913W        W43322   4.671  26.480  12.119
76914W        W43323   7.900  30.023   3.948
76915W        W43324  44.855  44.908   0.301
76916W        W43325  28.506  25.164  13.040
76917W        W43326  39.579  20.777  14.736
76918W        W43327   3.195  13.078  11.172
76919W        W43328   4.271  24.700   1.839
76920W        W43329  25.119  22.788   2.743
76921W        W43330   8.456  32.156  13.877
76922W        W43331   6.479  13.322   1.392
76923W        W43332  29.058  21.346  13.929
76924W        W43333  24.606  24.582   3.098
76925W        W43334  35.056  26.631   1.305
76926W        W43335   5.969  29.727  13.426
76927W        W43336  26.710  41.264   1.186
76928W        W43337   4.301   0.262  11.108
76929W        W43338  31.466  40.211   0.817
76930W        W43339  37.590  16.123   3.102
76931W        W43340  16.526  31.702  10.986
76932W        W43341   0.472  40.791  14.784
76933W        W43342   1.307  24.564   2.931
76934W        W43343   0.650  24.864   0.856
76935W        W43344  16.165   3.004  12.006
76936W        W43345  21.071  26.326  13.035
76937W        W43346   8.548  27.632  11.569
76938W        W43347  17.092   3.210   2.647
76939W        W43348  21.167  33.081  14.320
76940W        W43349  14.564  38.943   1.230
76941W        W43350  11.083  44.372   0.861
76942W        W43351  21.452  32.407   2.842
76943W        W43352   4.146   4.769   2.277
76944W        W43353  15.125  11.848   4.577
76945W        W43354  34.692   2.366  14.751
76946W        W43355   1.173  11.150   2.315
76947W        W43356  13.747  17.751   2.839
76948W        W43357  37.039  30.694   3.809
76949W        W43358  26.694  18.835  12.500
76950W        W43359  41.781  21.394   3.199
76951W        W43360   2.736  19.548   0.027
76952W        W43361  31.159  18.957   4.042
76953W        W43362  34.984  28.525  12.052
76954W        W43363  17.514   6.854  13.616
76955W        W43364  26.556  25.686  14.630
76956W        W43365  12.227  34.027  14.284
76957W        W43366  31.124  11.666   3.096
76958W        W43367  32.397  38.003   1.310
76959W        W43368  30.964  30.628  14.612
76960W        W43369   9.237  19.629   2.253
76961W        W43370  24.777  27.476   0.410
76962W        W43371  39.083  13.635   2.317
76963W        W43372  19.816  43.261   4.187
76964W        W43373  42.918  19.136   3.378
76965W        W43374   6.239  10.164  10.674
76966W        W43375  42.927  39.846  12.610
76967W        W43376  25.638  23.637   0.448
76968W        W43377   0.480  39.620  13.690
76969W        W43378   8.959  30.153   5.004
76970W        W43379  38.836  42.590  10.306
76971W        W43380  26.495   3.558   1.347
76972W        W43381  22.621   3.937  11.714
76973W        W43382   7.645  21.989  14.536
76974W        W43383   3.991   2.378   3.191
76975W        W43384  18.246  34.039  10.717
76976W        W43385  12.201  28.516   4.418
76977W        W43386   1.388  19.875   0.369
76978W        W43387  12.299  15.514  12.188
76979W        W43388   0.664  25.496  14.859
76980W        W43389  12.210  25.014   2.761
76981W        W43390   2.263   6.977   1.134
76982W        W43391  22.804  37.886   9.964
76983W        W43392  16.065  41.041  12.839
76984W        W43393   3.748  26.589  10.655
76985W        W43394  39.887  15.360  13.542
76986W        W43395  13.376  36.717   1.939
76987W        W43396  10.269  25.577  10.659
76988W        W43397  37.501  41.406   0.780
76989W        W43398  33.132  34.253   2.222
76990W        W43399  33.573   1.945   3.722
76991W        W43400   8.204  17.091   1.828
76992W        W43401  29.139   6.754   4.595
76993W        W43402  29.229  22.550  11.654
76994W        W43403  30.536  41.287   2.730
76995W        W43404   9.939   8.235   0.482
76996W        W43405  25.963  28.383  10.688
76997W        W43406  25.171  18.873   2.586
76998W        W43407  44.002  23.842   0.138
76999W        W43408  44.211  35.923   3.452
77000W        W43409   3.742   4.654   2.664
77001W        W43410  31.521  33.305  11.488
77002W        W43411   8.407   6.304  10.684
77003W        W43412  23.634  32.149   0.970
77004W        W43413  20.593   2.354   1.182
77005W        W43414   7.204  38.432  12.373
77006W        W43415   1.656  39.487  13.266
77007W        W43416  25.018  20.598  12.836
77008W        W43417  37.570  15.188  11.181
77009W        W43418   3.404   8.881   1.303
77010W        W43419  32.855   5.032   4.549
77011W        W43420  10.874  22.568   2.314
77012W        W43421  25.718   6.165   0.004
77013W        W43422  32.122  35.086  13.395
77014W        W43423  14.637  31.923  13.888
77015W        W43424  26.637  20.256   3.662
77016W        W43425   7.916  27.526   0.922
77017W        W43426   4.287  26.612   0.466
77018W        W43427  13.882  33.741   0.791
77019W        W43428  21.107  23.929   1.876
77020W        W43429  17.717  24.689  12.977
77021W        W43430  17.588  44.919   3.725
77022W        W43431  35.398  14.080  14.511
77023W        W43432  35.404  29.419   0.048
77024W        W43433  42.228  40.575   0.430
77025W        W43434  36.984  40.886   1.035
77026W        W43435  11.200  41.838   0.773
77027W        W43436  21.047  21.306  11.413
77028W        W43437   7.739   6.361   5.048
77029W        W43438  30.969  42.255   0.969
77030W        W43439  11.370  19.260  11.450
77031W        W43440  35.223  26.519  10.238
77032W        W43441  21.293   9.135   1.967
77033W        W43442  43.372  15.083   0.533
77034W        W43443  40.893   7.731   5.127
77035W        W43444  37.429  22.005  11.182
77036W        W43445  41.249   7.802  10.682
77037W        W43446  24.438   1.906   4.169
77038W        W43447   5.365   3.583  11.490
77039W        W43448   8.895  23.296  11.579
77040W        W43449  20.865  37.101  13.273
77041W        W43450  42.922  24.198   4.564
77042W        W43451  29.618  21.329   9.933
77043W        W43452  30.453  38.968   3.268
77044W        W43453  20.539  41.365  12.498
77045W        W43454   6.636  42.529  13.537
77046W        W43455  20.534   2.428   3.175
77047W        W43456  14.717  39.463   4.265
77048W        W43457   5.391  12.489  11.220
77049W        W43458  16.844   1.127  13.912
77050W        W43459   7.205  35.823  11.198
77051W        W43460   5.978  15.889  11.108
77052W        W43461  28.723  21.218  11.955
77053W        W43462   6.768   8.631   0.336
77054W        W43463  40.515  10.440  13.769
77055W        W43464  29.950   3.692   3.410
77056W        W43465  29.025   3.074  12.565
77057W        W43466  42.914  38.406   3.721
77058W        W43467   9.927  31.954   3.201
77059W        W43468  34.401  39.821  11.357
77060W        W43469  10.364  23.797   4.263
77061W        W43470  26.163  25.254   2.328
77062W        W43471  14.410   8.797   2.749
77063W        W43472   5.793  16.094  11.554
77064W        W43473  27.939   7.154   3.788
77065W        W43474  14.377  42.547   4.104
77066W        W43475  33.083  30.280  12.924
77067W        W43476  13.343   2.709  13.739
77068W        W43477  15.529   0.222  10.486
77069W        W43478  19.522  20.532   0.341
77070W        W43479  16.617   0.464  11.639
77071W        W43480  36.476  35.675  11.817
77072W        W43481  28.234  23.177  13.551
77073W        W43482  44.411  32.136   4.178
77074W        W43483  32.000  13.733   0.272
77075W        W43484   3.676  32.266   2.729
77076W        W43485  32.002   5.485   4.590
77077W        W43486  13.603  33.478  12.379
77078W        W43487  34.867   9.781  14.902
77079W        W43488   0.320   5.880   3.942
77080W        W43489  43.948  44.897   4.312
77081W        W43490  17.048  25.533   1.497
77082W        W43491  34.297  42.720   2.701
77083W        W43492  26.462  13.843  12.000
77084W        W43493  30.075  30.409  11.568
77085W        W43494  35.469  37.042  14.521
77086W        W43495  24.939   8.285   3.122
77087W        W43496  38.391  25.681   4.236
77088W        W43497   7.168  29.955   3.335
77089W        W43498   7.152  38.955  13.312
77090W        W43499  11.339   2.101   4.914
77091W        W43500   9.739   5.632  13.528
77092W        W43501  20.244  36.957  11.083
77093W        W43502  19.995  28.897  12.595
77094W        W43503   2.017   0.388   0.349
77095W        W43504  41.960  34.253  12.873
77096W        W43505  20.971  35.115   2.480
77097W        W43506  31.403  44.966  13.099
77098W        W43507  33.338  39.942   1.782
77099W        W43508  42.569  12.394   3.121
77100W        W43509  43.422  14.299  10.220
77101W        W43510  10.864  37.556   2.782
77102W        W43511  39.605  39.328  11.420
77103W        W43512  41.838   6.707  11.081
77104W        W43513   7.824   9.422  11.092
77105W        W43514  43.287  32.623  10.553
77106W        W43515  22.201  34.160  11.584
77107W        W43516  16.975  42.845   1.193
77108W        W43517  11.870  44.019  12.801
77109W        W43518  36.119  33.867   0.894
77110W        W43519  18.396  31.662   2.292
77111W        W43520  19.513  14.074  13.959
77112W        W43521  19.605   9.506   0.420
77113W        W43522  29.658  41.189   2.807
77114W        W43523  36.158   0.238   1.948
77115W        W43524  44.425   8.765  14.518
77116W        W43525  23.629  33.773   3.296
77117W        W43526  26.565  27.226   2.769
77118W        W43527   5.335  11.699   3.918
77119W        W43528   6.812  40.029  10.694
77120W        W43529  44.008   5.767   4.363
77121W        W43530  16.984  43.787   1.283
77122W        W43531  32.335  30.653   2.734
77123W        W43532   8.338  34.573  14.968
77124W        W43533  25.353  37.059  12.718
77125W        W43534   0.163  23.404   2.684
77126W        W43535   1.987  28.268  10.954
77127W        W43536  11.538  11.629  14.088
77128W        W43537   4.758   1.871  13.491
77129W        W43538  34.494  14.824   1.360
77130W        W43539   3.246  31.706  11.142
77131W        W43540  34.203  19.041   1.788
77132W        W43541  19.453   3.724   1.633
77133W        W43542   0.911   9.141   3.555
77134W        W43543  12.954   2.909   4.502
77135W        W43544  20.317  30.725   2.696
77136W        W43545  30.962  31.426   1.730
77137W        W43546  35.385  13.101  12.651
77138W        W43547  41.586   4.303  13.824
77139W        W43548   7.734  35.688   4.266
77140W        W43549  36.837  38.135   4.654
77141W        W43550  24.425  15.169   2.074
77142W        W43551   2.029  38.431   1.153
77143W        W43552  13.309  20.171  11.950
77144W        W43553  32.029  17.280  14.351
77145W        W43554  25.161   3.388  11.846
77146W        W43555   7.373  32.361   0.903
77147W        W43556  38.704  36.194   1.752
77148W        W43557  38.610  27.598  11.558
77149W        W43558  16.011  13.773  14.844
77150W        W43559  19.701   2.122  11.524
77151W        W43560  14.758  10.214   1.633
77152W        W43561  25.085  24.182  12.482
77153W        W43562  20.626   0.381  14.828
77154W        W43563  11.957  38.508  14.416
77155W        W43564  32.103  19.060   4.184
77156W        W43565  35.796   9.355  10.702
77157W        W43566  29.056  17.949   0.854
77158W        W43567   9.276   1.701   4.968
77159W        W43568  26.883  14.735  12.467
77160W        W43569  22.129  27.591   0.411
77161W        W43570  37.137   3.803   3.597
77162W        W43571   7.444   9.807  11.937
77163W        W43572  11.727  10.177   1.911
77164W        W43573  42.588  32.549  11.971
77165W        W43574   5.399  40.761   3.323
77166W        W43575  11.773  21.986  12.035
77167W        W43576  16.687  15.202   1.296
77168W        W43577   9.245  41.264  12.102
77169W        W43578  30.675  18.235   0.403
77170W        W43579  27.427  36.278  13.934
77171W        W43580  39.428  42.503  12.482
77172W        W43581  36.360  37.930   4.459
77173W        W43582  14.149  42.341  10.735
77174W        W43583  17.184  11.250  12.017
77175W        W43584   9.757  22.322  13.495
77176W        W43585  35.958  31.136   3.552
77177W        W43586  34.419  24.721   4.836
77178W        W43587  40.888  41.889   2.904
77179W        W43588  44.272  29.102  12.613
77180W        W43589  23.217  10.365  10.665
77181W        W43590  30.567  22.015  14.491
77182W        W43591  44.929  15.354   4.891
77183W        W43592   9.718  41.854   2.937
77184W        W43593  28.525   5.313  10.636
77185W        W43594  12.754  41.110   4.222
77186W        W43595  11.706  36.226  12.978
77187W        W43596  34.020  38.395  12.023
77188W        W43597  41.486  13.425  14.564
77189W        W43598  41.646  15.693   2.115
77190W        W43599  38.764   2.207  12.891
77191W        W43600  38.481  40.412  10.888
77192W        W43601  16.866  13.051   2.595
77193W        W43602  39.438   2.400  10.644
77194W        W43603  16.190  43.834   2.366
77195W        W43604   3.981  37.993   1.947
77196W        W43605  27.012  34.104   4.801
77197W        W43606  44.208  13.139   0.406
77198W        W43607  26.472  33.142   4.579
77199W        W43608  42.764   1.788  11.099
77200W        W43609  15.622  39.272  13.167
77201W        W43610  43.569  18.285   4.252
77202W        W43611  26.064  29.982   2.766
77203W        W43612   9.621   0.890  13.586
77204W        W43613  33.079  28.477   0.736
77205W        W43614  12.310  30.842  12.871
77206W        W43615   1.438   2.800  13.413
77207W        W43616  42.086  10.544  11.160
77208W        W43617  34.045   1.743   1.818
77209W        W43618  39.136   6.956   3.399
77210W        W43619  41.136  27.898   3.116
77211W        W43620  27.983   6.644  13.988
77212W        W43621  36.788   8.988   1.388
77213W        W43622   5.714  32.776  11.727
77214W        W43623  15.704   8.119  11.595
77215W        W43624  17.666  32.865   3.095
77216W        W43625  18.763  18.849  12.548
77217W        W43626  33.886   0.555   4.114
77218W        W43627  40.394  43.440   3.130
77219W        W43628  31.646  27.903   4.626
77220W        W43629  32.374  41.539  11.484
77221W        W43630  15.768  22.116   3.886
77222W        W43631  18.222  32.200   0.588
77223W        W43632  26.585  19.536   4.138
77224W        W43633  20.565   2.785  14.514
77225W        W43634  27.108  28.480   1.805
77226W        W43635  14.327  10.794  14.384
77227W        W43636  37.667  11.156  13.411
77228W        W43637  10.346  10.678  13.131
77229W        W43638  16.515  24.552   0.699
77230W        W43639   1.162   2.270  11.163
77231W        W43640  40.886   3.696  13.049
77232W        W43641  10.814   0.177  13.627
77233W        W43642  22.783   9.727   4.435
77234W        W43643  18.594  13.881   0.831
77235W        W43644  12.917  37.401  10.203
77236W        W43645  17.182   9.327  10.882
77237W        W43646   0.915  44.354   0.464
77238W        W43647   1.301  17.305   1.719
77239W        W43648  35.066  25.285  14.307
77240W        W43649  15.307  20.264   4.068
77241W        W43650  29.510  10.342   4.466
77242W        W43651  37.313  17.254  12.570
77243W        W43652  36.605   5.054  12.407
77244W        W43653  19.988  44.687   3.245
77245W        W43654  20.284  42.648  13.237
77246W        W43655  24.561  18.667  11.597
77247W        W43656  11.719  24.194   1.985
77248W        W43657  30.224  15.251  14.275
77249W        W43658  28.475  22.739  14.438
77250W        W43659  37.156  42.780  14.879
77251W        W43660  42.016  37.322   0.651
77252W        W43661  19.196   6.831   1.725
77253W        W43662  12.698  29.028  13.902
77254W        W43663  24.331  26.020   3.306
77255W        W43664  30.535   7.155  13.032
77256W        W43665  12.788   4.186  13.072
77257W        W43666  27.335  30.543  14.847
77258W        W43667  11.168   7.008   0.395
77259W        W43668  43.775  23.770   1.501
77260W        W43669  22.213  14.033   0.436
77261W        W43670  20.335  15.204   0.428
77262W        W43671  43.752   2.716  11.137
77263W        W43672   0.349  32.295   4.711
77264W        W43673  26.274   0.561   3.406
77265W        W43674  32.160  23.996  12.908
77266W        W43675  14.509   1.902  12.680
77267W        W43676  11.818  40.061   3.724
77268W        W43677  18.995  20.125  13.374
77269W        W43678  26.554  32.224   2.115
77270W        W43679  29.945  23.522  13.888
77271W        W43680  40.827  29.204   2.714
77272W        W43681  43.710   8.511  13.015
77273W        W43682  19.941  18.938   0.727
77274W        W43683  21.098  30.583  13.585
77275W        W43684  40.555  38.111  12.413
77276W        W43685  18.578  36.953   2.657
77277W        W43686  11.789  21.476  10.665
77278W        W43687  12.272  33.044  12.491
77279W        W43688  28.089  10.279   0.820
77280W        W43689  43.205  19.766   1.725
77281W        W43690  40.636  14.889  13.266
77282W        W43691  22.493  35.526   3.361
77283W        W43692  37.363  25.091   3.752
77284W        W43693  18.723  21.591   2.317
77285W        W43694  27.262  10.681  14.978
77286W        W43695  28.060  30.402  12.917
77287W        W43696  19.614  28.271  11.689
77288W        W43697  15.182  42.336  12.091
77289W        W43698  24.047  42.132  14.745
77290W        W43699   7.570  12.187  10.710
77291W        W43700  24.661  16.845  12.935
77292W        W43701  11.561   0.497  12.063
77293W        W43702   7.749  36.512   2.332
77294W        W43703  20.558  28.250   1.862
77295W        W43704  20.484  17.122  12.941
77296W        W43705  32.846  15.162  10.550
77297W        W43706   2.261   3.516  10.402
77298W        W43707  10.031  16.231   4.563
77299W        W43708  42.306  44.363   0.755
77300W        W43709  18.094   8.310   2.331
77301W        W43710  29.022  18.242  14.417
77302W        W43711  37.390  24.392  10.746
77303W        W43712  27.984  29.908   2.805
77304W        W43713   6.437  36.714  11.978
77305W        W43714  34.461  40.049  12.389
77306W        W43715   9.929  32.116   0.976
77307W        W43716   7.264   2.544   1.484
77308W        W43717  34.298  16.585  11.179
77309W        W43718  27.059  14.330   3.776
77310W        W43719   9.646  42.061  11.973
77311W        W43720  21.516  35.542  13.448
77312W        W43721  39.603  21.585   5.760
77313W        W43722  10.491  31.976   1.831
77314W        W43723  35.374  32.128   1.701
77315W        W43724   2.277  31.383  13.766
77316W        W43725  34.704  28.547  13.823
77317W        W43726  10.168   7.173   3.084
77318W        W43727  25.018  24.734  11.607
77319W        W43728   1.419   9.533   1.381
77320W        W43729  21.096   4.994  14.784
77321W        W43730  14.336   4.937  13.035
77322W        W43731   6.301  29.521  12.641
77323W        W43732   1.852  12.750  12.976
77324W        W43733  40.579  29.609  10.800
77325W        W43734  33.049  14.417   3.291
77326W        W43735  31.958  20.606   0.316
77327W        W43736  31.595  21.544   2.159
77328W        W43737   2.422  15.082   2.376
77329W        W43738  22.271  18.790   2.811
77330W        W43739   3.408  26.182  10.570
77331W        W43740  10.487   9.424  12.423
77332W        W43741  31.133  15.035   4.431
77333W        W43742  15.754  24.007   2.253
77334W        W43743  41.046  12.673  11.191
77335W        W43744   3.218  19.759   2.160
77336W        W43745   6.259  26.855   1.638
77337W        W43746  32.973  26.177  11.604
77338W        W43747  22.825   2.940   4.818
77339W        W43748  38.523   0.219  14.947
77340W        W43749  10.317   8.840   1.874
77341W        W43750   5.777  12.583   3.688
77342W        W43751  33.246  43.503  14.314
77343W        W43752  34.339  42.228  13.357
77344W        W43753  37.772  32.411   3.813
77345W        W43754  14.330  43.324  10.123
77346W        W43755  35.901  33.565   3.150
77347W        W43756   8.070  32.502   4.580
77348W        W43757   2.344  19.329   1.696
77349W        W43758  26.124   0.373   4.470
77350W        W43759  14.403   1.433   3.603
77351W        W43760  16.979   4.644   0.858
77352W        W43761  21.907  39.849   0.696
77353W        W43762  31.781  14.426  12.913
77354W        W43763  35.869  19.788  10.619
77355W        W43764   5.353  44.293   1.478
77356W        W43765   3.917  12.658   4.427
77357W        W43766  36.826  27.496  11.896
77358W        W43767  16.836  18.593   3.209
77359W        W43768  16.837  22.625  13.300
77360W        W43769  25.925  30.073  14.390
77361W        W43770   9.255  18.092  13.974
77362W        W43771  44.086  32.629  14.478
77363W        W43772  35.052  20.672  11.894
77364W        W43773  30.531   2.474   0.337
77365W        W43774  39.010  44.346  11.469
77366W        W43775  12.765  40.809   3.201
77367W        W43776  13.408  43.849  14.923
77368W        W43777  19.314  33.805  10.676
77369W        W43778  10.363  29.002   2.657
77370W        W43779  39.730  28.491   0.267
77371W        W43780  34.584  37.705  10.331
77372W        W43781  34.467  19.775  14.455
77373W        W43782  40.669   4.563  13.447
77374W        W43783  10.185  21.316  11.460
77375W        W43784  29.475  13.850  10.382
77376W        W43785   5.153   1.288  12.450
77377W        W43786   5.428   8.185   4.352
77378W        W43787  23.105   9.081   3.217
77379W        W43788  35.264  36.384  13.817
77380W        W43789  15.556  42.035   3.507
77381W        W43790  34.649  35.991  11.521
77382W        W43791  44.026   6.984  11.163
77383W        W43792   9.816  39.073  11.982
77384W        W43793  39.094  14.108  14.886
77385W        W43794  43.182  40.297   5.324
77386W        W43795  25.040  21.546  13.386
77387W        W43796  15.705  12.599  14.907
77388W        W43797  22.177   0.505  12.894
77389W        W43798  11.095  31.990   0.656
77390W        W43799  12.167  10.398   1.742
77391W        W43800  36.809  38.465   1.671
77392W        W43801  41.949  13.143   3.807
77393W        W43802  25.482  23.525  14.959
77394W        W43803  10.304  39.509   1.664
77395W        W43804  31.905  43.366  14.819
77396W        W43805  29.092  25.110  13.505
77397W        W43806  10.581  44.795  10.653
77398W        W43807  10.261  12.863  10.991
77399W        W43808  33.852  19.571  11.539
77400W        W43809  44.605  38.964  11.007
77401W        W43810  33.637  30.146  11.452
77402W        W43811  21.515  24.784  14.738
77403W        W43812   1.247  30.217   1.842
77404W        W43813  42.494  38.049  11.045
77405W        W43814  13.539  35.518   0.823
77406W        W43815  14.010  43.430   2.260
77407W        W43816  28.092  15.596   4.574
77408W        W43817  19.091  30.897  10.473
77409W        W43818  37.712  12.508   1.699
77410W        W43819   9.432  31.595  11.213
77411W        W43820  12.578   7.948  10.620
77412W        W43821  31.254  13.826   0.084
77413W        W43822  34.634   8.140   2.764
77414W        W43823  31.656  38.727  12.596
77415W        W43824  41.758   2.739   4.473
77416W        W43825  28.921   3.919  10.413
77417W        W43826  23.619  30.875  11.467
77418W        W43827  24.572  26.443  11.904
77419W        W43828   5.021  28.578   1.807
77420W        W43829   4.410  42.090   1.931
77421W        W43830  42.343  11.938   3.139
77422W        W43831  20.827  37.521  12.989
77423W        W43832   9.765  21.659  12.644
77424W        W43833  36.469   3.758  12.083
77425W        W43834  33.071   5.847  11.419
77426W        W43835   9.676  27.687  10.781
77427W        W43836  43.740   8.804   2.172
77428W        W43837   1.475   7.609   1.354
77429W        W43838  34.880  32.148  11.074
77430W        W43839  20.768  31.132   0.356
77431W        W43840  34.465  36.353   4.190
77432W        W43841  28.822  37.630  12.994
77433W        W43842  43.766  18.726  14.930
77434W        W43843  10.183  10.465  10.100
77435W        W43844  38.529  20.868  11.569
77436W        W43845  32.566  24.228   2.266
77437W        W43846  22.163  44.394   4.536
77438W        W43847  31.662  27.559   1.976
77439W        W43848  10.241  20.072  11.130
77440W        W43849  10.832  42.847   4.332
77441W        W43850   1.563  21.580   0.287
77442W        W43851  16.783  28.287   0.349
77443W        W43852   0.071   4.936   2.709
77444W        W43853  14.331  17.681   1.389
77445W        W43854  19.293  39.557   1.604
77446W        W43855  21.561   3.823  14.565
77447W        W43856  25.200  12.083   0.426
77448W        W43857  30.541  26.876   4.551
77449W        W43858  44.479  29.979   0.902
77450W        W43859  36.824  15.829  13.463
77451W        W43860   5.651  14.590  13.422
77452W        W43861   1.948  41.680   2.893
77453W        W43862   6.692  26.791  14.966
77454W        W43863  32.418  19.506   1.226
77455W        W43864   8.201  20.074   0.706
77456W        W43865   3.282  19.088   0.389
77457W        W43866  41.538  21.776  12.041
77458W        W43867  35.011  42.503   4.028
77459W        W43868  30.955  22.573  11.594
77460W        W43869  12.731   6.185  12.120
77461W        W43870   6.099  18.060   2.472
77462W        W43871  23.195   4.094   0.079
77463W        W43872  41.410  17.781  10.165
77464W        W43873  22.784  12.816  13.942
77465W        W43874  34.965  41.760  14.453
77466W        W43875   2.708  26.160   3.650
77467W        W43876   1.245  22.962  12.166
77468W        W43877  24.204  17.381  11.145
77469W        W43878   8.062  40.463  14.065
77470W        W43879  41.558  29.213   0.738
77471W        W43880  21.595   5.034   1.386
77472W        W43881  42.604  13.615   4.686
77473W        W43882  25.440  18.598   1.206
77474W        W43883  41.224  14.388  13.450
77475W        W43884   1.383  19.254  11.974
77476W        W43885  25.743  21.672  11.943
77477W        W43886   2.888  14.668  12.838
77478W        W43887  31.864  18.169  14.917
77479W        W43888  13.257  17.175   4.550
77480W        W43889  10.136   2.497   1.570
77481W        W43890  21.381  18.074  12.879
77482W        W43891  24.681  29.028  13.120
77483W        W43892  30.983  10.830   2.341
77484W        W43893   0.951  43.920  12.451
77485W        W43894   9.191  31.395   5.387
77486W        W43895   4.294  32.966  14.986
77487W        W43896  32.158  38.843   0.974
77488W        W43897  41.104  42.034  10.656
77489W        W43898   6.261  30.413  10.429
77490W        W43899  33.837  17.104  12.936
77491W        W43900  10.632  31.097   3.699
77492W        W43901  31.806   8.010  11.563
77493W        W43902  21.955  42.855   2.808
77494W        W43903  12.702  32.141   3.773
77495W        W43904  41.579  35.927   0.273
77496W        W43905  42.464  23.182   4.204
77497W        W43906  13.345  32.730  13.310
77498W        W43907   4.937  33.315   0.893
77499W        W43908  35.378  17.785  11.101
77500W        W43909  11.339  35.379   0.886
77501W        W43910  10.136  10.844   1.833
77502W        W43911  24.492   0.204  12.917
77503W        W43912   1.261  19.449   4.963
77504W        W43913  44.860  17.095   0.905
77505W        W43914  29.577  38.892  12.517
77506W        W43915  35.864  21.631  13.055
77507W        W43916  33.045  18.115   1.180
77508W        W43917  22.519  19.821  11.248
77509W        W43918  22.984  13.379  10.602
77510W        W43919  25.988   3.451  11.379
77511W        W43920  20.561  21.601   4.271
77512W        W43921  15.566  11.847   3.674
77513W        W43922  41.994  17.293  10.078
77514W        W43923  16.848   7.452  13.881
77515W        W43924  20.642  22.497  13.860
77516W        W43925   3.246  17.277  12.988
77517W        W43926  36.784  23.561   3.621
77518W        W43927  35.358   5.573   0.742
77519W        W43928   1.962   5.690   0.936
77520W        W43929  39.295  44.751   0.580
77521W        W43930  23.531  13.267   1.350
77522W        W43931  41.245  44.390   3.097
77523W        W43932  18.607  38.370   3.196
77524W        W43933  40.218  39.236   1.967
77525W        W43934  27.658  17.901   3.643
77526W        W43935  16.743  34.552   0.294
77527W        W43936   7.944   6.467   0.420
77528W        W43937  22.785  29.666   0.330
77529W        W43938  30.612  41.890   4.272
77530W        W43939   1.575   8.124   3.031
77531W        W43940  28.517  14.155  12.347
77532W        W43941  41.408   0.282   2.905
77533W        W43942  16.813  44.499   3.231
77534W        W43943  27.054  15.497  12.001
77535W        W43944   0.766  15.800  11.933
77536W        W43945   9.118  35.527  12.092
77537W        W43946   4.385  27.293   1.771
77538W        W43947  29.479  42.032   4.143
77539W        W43948  12.642  12.166  10.742
77540W        W43949   5.504   1.569   2.683
77541W        W43950   0.856   2.175  10.264
77542W        W43951   1.927  30.218   2.428
77543W        W43952  39.576  23.597   0.938
77544W        W43953   8.857  25.589  12.993
77545W        W43954  26.558  39.940   3.857
77546W        W43955  38.960  21.632   1.822
77547W        W43956   9.716  19.635  11.557
77548W        W43957   5.424  37.027  14.667
77549W        W43958   3.920  23.778   3.155
77550W        W43959  11.208  30.048  12.781
77551W        W43960  24.540  17.457   0.460
77552W        W43961  25.020   6.721  14.833
77553W        W43962   6.909  20.430   2.033
77554W        W43963  42.850  33.677   3.854
77555W        W43964   3.251  26.264  14.329
77556W        W43965  14.391  29.240   1.504
77557W        W43966   8.388  21.059  11.803
77558W        W43967  23.907   3.379  12.579
77559W        W43968   9.935  42.913   2.648
77560W        W43969  11.250  30.774   4.487
77561W        W43970   9.598  40.089  13.840
77562W        W43971  29.102  10.913   3.221
77563W        W43972  43.762  30.910   4.566
77564W        W43973   7.168  28.340   2.329
77565W        W43974  29.519  23.234  12.543
77566W        W43975  14.592  34.053  10.454
77567W        W43976   6.106   9.179   0.932
77568W        W43977  28.500  23.146   0.379
77569W        W43978   9.749  14.274   1.405
77570W        W43979  29.653  28.917   2.059
77571W        W43980   3.245   8.768  10.774
77572W        W43981  24.441  27.410  12.047
77573W        W43982  42.554  24.255  12.968
77574W        W43983  33.033   8.628   3.709
77575W        W43984  18.422  22.738  12.326
77576W        W43985  37.829  35.792  10.314
77577W        W43986   6.963  14.809   1.298
77578W        W43987  20.645   6.188   2.463
77579W        W43988   4.185   4.475   1.142
77580W        W43989  13.549  11.303   3.192
77581W        W43990   8.658  22.288  12.898
77582W        W43991   4.668   7.100   3.721
77583W        W43992  34.935  36.442   2.727
77584W        W43993  43.837  14.753   4.613
77585W        W43994  41.817  10.649   2.306
77586W        W43995  26.065  32.391   1.874
77587W        W43996  24.304  31.759  14.763
77588W        W43997  35.394   1.979   1.891
77589W        W43998  21.156  35.511   1.606
77590W        W43999   1.381  21.603  13.423
77591W        W44000  21.804   7.368  13.002
77592W        W44001   1.439   2.801   2.133
77593W        W44002  34.533  14.302   1.376
77594W        W44003  18.624  12.950  13.446
77595W        W44004   1.964   2.184  14.100
77596W        W44005  28.045  24.714  14.045
77597W        W44006   8.723  26.119   0.401
77598W        W44007  20.301   6.402  10.738
77599W        W44008  29.347  26.627  11.822
77600W        W44009  11.273  39.769  12.873
77601W        W44010  22.632  18.675   1.567
77602W        W44011  24.536   9.223  14.325
77603W        W44012  34.054  14.287   2.308
77604W        W44013  14.083  20.806   1.661
77605W        W44014   6.889  10.635  12.961
77606W        W44015  20.889  29.442  14.721
77607W        W44016  22.252  14.058   4.166
77608W        W44017  39.072  15.868  14.723
77609W        W44018   8.462  41.508  12.638
77610W        W44019  31.615   1.656   2.007
77611W        W44020  22.538  44.496  14.480
77612W        W44021  34.375  37.515   3.372
77613W        W44022  31.509  29.982  14.577
77614W        W44023  35.239  23.149  14.438
77615W        W44024  28.349  35.474   3.246
77616W        W44025  23.049   3.559   4.923
77617W        W44026  25.234   0.919  14.933
77618W        W44027  25.028  31.949   3.249
77619W        W44028  44.777  32.128   1.825
77620W        W44029  20.132  30.424   1.422
77621W        W44030   8.097  32.914   9.725
77622W        W44031   5.439  16.014   3.200
77623W        W44032   1.811  14.317   1.849
77624W        W44033  19.650   1.867   3.917
77625W        W44034  33.577  40.427  11.061
77626W        W44035  23.229   7.674   4.685
77627W        W44036  44.329   4.238  13.556
77628W        W44037  43.381   4.322  14.365
77629W        W44038  24.193   9.253   4.021
77630W        W44039   7.773  23.311   0.892
77631W        W44040  25.437   3.007  12.066
77632W        W44041   3.432   7.457  11.051
77633W        W44042  24.559  13.725   3.208
77634W        W44043  19.146   1.426   3.152
77635W        W44044  27.659  28.210   4.229
77636W        W44045  37.873  35.085  12.836
77637W        W44046  43.433  18.017  13.144
77638W        W44047   2.867  27.479   0.446
77639W        W44048  13.612  15.007  11.096
77640W        W44049  31.375   7.401  12.775
77641W        W44050  37.302  13.057  12.626
77642W        W44051  30.007  20.192  14.562
77643W        W44052  23.744  30.923   4.661
77644W        W44053  10.168  11.018   4.611
77645W        W44054  36.556  24.657   2.927
77646W        W44055  25.343  12.920   2.990
77647W        W44056   1.040   4.330   3.298
77648W        W44057  39.869  43.375  14.886
77649W        W44058  20.828  20.979  14.552
77650W        W44059  23.706  39.054  13.502
77651W        W44060   3.092   6.226   4.522
77652W        W44061  19.022  33.010  14.417
77653W        W44062  41.188  23.758   4.559
77654W        W44063  30.183  12.608   3.173
77655W        W44064  14.884   5.408   1.925
77656W        W44065   8.807   8.675  11.036
77657W        W44066  31.828  38.712   4.741
77658W        W44067  32.461   2.486  14.503
77659W        W44068  28.010  13.098   1.527
77660W        W44069   2.316  28.865   1.424
77661W        W44070  30.634  18.188  11.483
77662W        W44071   2.249  11.338   4.163
77663W        W44072   9.100  17.539   2.391
77664W        W44073  37.304  29.562  12.016
77665W        W44074  11.956   6.817   2.461
77666W        W44075  40.003  35.032   4.301
77667W        W44076  41.672   5.946   0.242
77668W        W44077  19.131  11.175  13.368
77669W        W44078   4.780  28.026  13.053
77670W        W44079   6.224  17.554   4.501
77671W        W44080   2.324  12.647  14.307
77672W        W44081  21.245   2.118   2.692
77673W        W44082  23.128  12.616  11.063
77674W        W44083  12.297  13.973  13.955
77675W        W44084  41.787  28.663  13.946
77676W        W44085  43.807  25.016  11.943
77677W        W44086  33.027  37.354   1.240
77678W        W44087  18.641  18.171  13.766
77679W        W44088  28.415  28.687  10.637
77680W        W44089  16.314  34.516   2.776
77681W        W44090   2.843   1.440   1.191
77682W        W44091   7.582  25.582   0.957
77683W        W44092   3.175  20.538  14.463
77684W        W44093   7.486  20.535  11.052
77685W        W44094  40.771  41.417   2.057
77686W        W44095  42.750  21.216  13.823
77687W        W44096  21.418  15.017  13.373
77688W        W44097  27.933  41.980   1.105
77689W        W44098  14.863   5.685  14.845
77690W        W44099  35.137  33.984   0.800
77691W        W44100   0.872  42.364   1.724
77692W        W44101  31.020  33.169   1.257
77693W        W44102   1.995   3.318   3.699
77694W        W44103  21.132  32.483   1.233
77695W        W44104  24.663  15.781  10.620
77696W        W44105  16.162   4.266   4.750
77697W        W44106  26.170  21.034   1.445
77698W        W44107  27.019  20.256   2.325
77699W        W44108  13.657  41.840  11.581
77700W        W44109  10.408  33.563  14.255
77701W        W44110  29.147  32.017   2.630
77702W        W44111   7.384  17.130   1.709
77703W        W44112  14.782   0.945   5.161
77704W        W44113  16.734   8.394  11.954
77705W        W44114  31.558  30.892   1.360
77706W        W44115  23.179  13.876   4.206
77707W        W44116  24.162  38.642  11.732
77708W        W44117  33.513  38.487  12.653
77709W        W44118   5.746  10.934   2.311
77710W        W44119  22.952  18.663   4.932
77711W        W44120   4.682   9.750   3.904
77712W        W44121  29.648   1.538   3.276
77713W        W44122   3.892  41.859  14.992
77714W        W44123   3.052   6.342   3.722
77715W        W44124  17.303  14.207  11.152
77716W        W44125   0.923  34.519  13.737
77717W        W44126   0.033  35.070  13.787
77718W        W44127  25.487   9.381  13.248
77719W        W44128  12.190  10.929  13.458
77720W        W44129  28.596  40.284  11.116
77721W        W44130   2.866   9.382   1.985
77722W        W44131  33.135  12.801   2.309
77723W        W44132  25.215   2.618   4.109
77724W        W44133  34.573  44.982   0.478
77725W        W44134  19.822  33.079   1.797
77726W        W44135  40.415  43.678   2.668
77727W        W44136  34.260  30.743  11.099
77728W        W44137   6.258  27.324  10.436
77729W        W44138   7.837  28.081  14.323
77730W        W44139  30.406  32.698   1.857
77731W        W44140  30.628  39.443   4.562
77732W        W44141  15.233   2.985  13.521
77733W        W44142  11.724  25.313  12.073
77734W        W44143   7.883  44.532  11.162
77735W        W44144  27.174  38.971   4.257
77736W        W44145   8.925  23.002   1.937
77737W        W44146   7.656  30.967  11.344
77738W        W44147  31.772  28.534  12.976
77739W        W44148  37.434  36.249  11.503
77740W        W44149   7.567  43.735   2.675
77741W        W44150  36.051  26.882   1.283
77742W        W44151   9.314  11.439   0.813
77743W        W44152  31.789  18.206  13.095
77744W        W44153   7.700   5.767   2.226
77745W        W44154  34.861  21.318  13.489
77746W        W44155  10.526  23.601  12.942
77747W        W44156  41.129  36.634   4.184
77748W        W44157   4.840   3.569  11.973
77749W        W44158  36.403  16.329   2.476
77750W        W44159   0.239  22.619   4.338
77751W        W44160  31.696  26.995  11.156
77752W        W44161  18.678  43.057  14.541
77753W        W44162   8.934  27.406   3.134
77754W        W44163  16.293  27.422  10.523
77755W        W44164  13.258  18.584  12.114
77756W        W44165   1.943  39.863   2.467
77757W        W44166   8.275  28.422   3.176
77758W        W44167  43.376  40.996   1.938
77759W        W44168   5.570  24.810   1.860
77760W        W44169  13.572  39.118  10.328
77761W        W44170  31.028  12.340   2.783
77762W        W44171   9.840  40.354   1.611
77763W        W44172  33.467  34.121   2.897
77764W        W44173   1.317  16.328  10.729
77765W        W44174  16.437   3.755  11.648
77766W        W44175   0.488  39.368   3.912
77767W        W44176   3.528  20.377  11.243
77768W        W44177  15.108  29.114  13.332
77769W        W44178  11.833   0.554  14.760
77770W        W44179  39.560   0.834  14.705
77771W        W44180  24.585  30.208   1.209
77772W        W44181  32.983  23.635  12.971
77773W        W44182  33.958  42.985   4.594
77774W        W44183  25.705  20.894   2.821
77775W        W44184   4.701  27.008   3.742
77776W        W44185  44.800  19.045  10.680
77777W        W44186  28.427  11.547   4.994
77778W        W44187  19.477  40.449   0.006
77779W        W44188  31.984   8.963   1.191
77780W        W44189  36.468  23.237  12.969
77781W        W44190  34.390  37.914  11.804
77782W        W44191  30.356  30.699   3.849
77783W        W44192  22.314  36.911   2.935
77784W        W44193  15.787  22.101   2.889
77785W        W44194   6.476  13.569   1.840
77786W        W44195  28.652  26.656   4.664
77787W        W44196   6.610   5.711  12.978
77788W        W44197  29.169  44.269  13.058
77789W        W44198  34.432  19.124  12.596
77790W        W44199   2.424  38.838   4.095
77791W        W44200  15.716  33.227   5.124
77792W        W44201  41.450  38.345   2.367
77793W        W44202  27.995  36.986  13.111
77794W        W44203  15.916  25.073   3.202
77795W        W44204  13.566   1.952   1.686
77796W        W44205  11.249  30.579  14.103
77797W        W44206   2.002  21.445   2.634
77798W        W44207   3.959  14.904   1.834
77799W        W44208  32.216  38.377   0.738
77800W        W44209  37.196   4.265   4.115
77801W        W44210  19.305  28.149  13.502
77802W        W44211   0.785   7.954  11.417
77803W        W44212  16.869  10.066   0.009
77804W        W44213  18.710  11.999  10.721
77805W        W44214  42.201  31.537   2.095
77806W        W44215  44.763  39.410  12.593
77807W        W44216  24.663  12.314   4.096
77808W        W44217   4.851  10.950  13.115
77809W        W44218  33.039  30.888  10.765
77810W        W44219   0.525   3.901  13.793
77811W        W44220  33.195  29.392  10.896
77812W        W44221  36.488   3.653  13.022
77813W        W44222   9.823  31.598   4.196
77814W        W44223  24.699   3.891   0.815
77815W        W44224  24.081  40.052  14.813
77816W        W44225  34.473  38.162  10.558
77817W        W44226  27.433   8.989  10.802
77818W        W44227  38.989  19.772  12.875
77819W        W44228  41.356  44.865   3.738
77820W        W44229  44.727  38.312  14.289
77821W        W44230  42.269  44.880   3.745
77822W        W44231  35.088  36.971   4.379
77823W        W44232   2.905  21.766   0.216
77824W        W44233   8.873  39.235   1.927
77825W        W44234   8.691  19.177   0.754
77826W        W44235   6.590  39.057  14.499
77827W        W44236  38.674   4.752   0.264
77828W        W44237  41.241   3.577  11.664
77829W        W44238  21.813  24.361   4.045
77830W        W44239  42.786  43.583  11.985
77831W        W44240  17.289  36.593  13.282
77832W        W44241  43.772   8.073   5.034
77833W        W44242  42.900   4.282   2.443
77834W        W44243  26.536  34.946  13.542
77835W        W44244  27.878  22.121  14.860
77836W        W44245  19.094  22.005   3.870
77837W        W44246  30.155  24.601   3.720
77838W        W44247  31.834   8.148  12.725
77839W        W44248  22.654  33.904  12.928
77840W        W44249  36.284  28.607  12.401
77841W        W44250   4.737  12.211  10.656
77842W        W44251  23.633  17.994  13.557
77843W        W44252  22.597  10.873   3.872
77844W        W44253  34.227   0.075   4.614
77845W        W44254  29.018  32.544   1.352
77846W        W44255   7.658   7.775  10.782
77847W        W44256  12.214   8.977   1.858
77848W        W44257  15.210   5.117   4.059
77849W        W44258   0.162   8.385   0.306
77850W        W44259   6.620  27.827   0.962
77851W        W44260   6.515   1.200   4.200
77852W        W44261   4.801  13.854  10.765
77853W        W44262  36.998   0.511  12.836
77854W        W44263  24.343  42.982   1.344
77855W        W44264   6.420  40.017   2.358
77856W        W44265  40.473  19.774  11.389
77857W        W44266  29.664  36.076  13.366
77858W        W44267  40.670   5.323   2.948
77859W        W44268  35.126  15.164   1.990
77860W        W44269   9.028  35.929   2.031
77861W        W44270  21.004  12.523  11.627
77862W        W44271  29.071  40.254   4.332
77863W        W44272  28.975  21.517   0.362
77864W        W44273  43.854  13.476  11.665
77865W        W44274  16.729  18.678   1.450
77866W        W44275  10.487   2.704   3.759
77867W        W44276  20.966   9.494   0.224
77868W        W44277  16.148   8.620   3.242
77869W        W44278  21.577  31.018  13.079
77870W        W44279  31.187  16.819  14.898
77871W        W44280  43.928  21.583   0.398
77872W        W44281  25.089  23.246   1.760
77873W        W44282  38.066  22.274   4.969
77874W        W44283   0.933  22.593  12.929
77875W        W44284   3.512  19.631  12.178
77876W        W44285   1.645  43.930   3.274
77877W        W44286  40.035  25.114   3.136
77878W        W44287  13.311  42.742   0.336
77879W        W44288  11.173  42.459   1.396
77880W        W44289   3.889  24.377  14.538
77881W        W44290  29.686   7.006  12.458
77882W        W44291  35.350   5.930  12.408
77883W        W44292  24.265  38.180   0.026
77884W        W44293  10.789  38.031  11.567
77885W        W44294   7.419  41.941  11.105
77886W        W44295  18.008  43.011   0.320
77887W        W44296  29.938  40.351  11.629
77888W        W44297   7.415  17.368  13.471
77889W        W44298  40.469  15.846  14.908
77890W        W44299   8.694  44.719   2.650
77891W        W44300   1.800   0.267  11.870
77892W        W44301   3.310  23.764  10.164
77893W        W44302  28.102  24.432   2.772
77894W        W44303  20.161  29.652   3.622
77895W        W44304  40.527  22.240  10.237
77896W        W44305  44.466  41.858  13.789
77897W        W44306   2.490  10.096   0.420
77898W        W44307  11.921  37.236   5.498
77899W        W44308  15.435   7.372  12.903
77900W        W44309  30.931  18.820   0.702
77901W        W44310  42.548  28.002   2.299
77902W        W44311  42.785  21.626   1.143
77903W        W44312   8.608  33.053  14.370
77904W        W44313  13.645  27.763   3.081
77905W        W44314  34.791  28.314  12.487
77906W        W44315   6.839   4.715   4.380
77907W        W44316  30.367   2.307   4.534
77908W        W44317  16.772  35.600  11.930
77909W        W44318  15.843  31.614  13.511
77910W        W44319  31.154  44.701  13.998
77911W        W44320  31.065  14.722  12.393
77912W        W44321  23.269  31.192   1.847
77913W        W44322  38.260   3.470   2.282
77914W        W44323  23.990   6.337  12.977
77915W        W44324  33.874  23.016  14.694
77916W        W44325  30.002   6.509  13.002
77917W        W44326  13.371  33.349  11.309
77918W        W44327  27.122  30.948   4.565
77919W        W44328  15.215  15.230  14.535
77920W        W44329  22.040  36.166   1.751
77921W        W44330  20.667  17.660   1.190
77922W        W44331  28.713  14.257   4.067
77923W        W44332  37.935   8.160   2.802
77924W        W44333  23.464  24.501  11.939
77925W        W44334   6.758  38.962   0.593
77926W        W44335  20.998  20.393   0.912
77927W        W44336   3.258  26.026   0.850
77928W        W44337  11.585  34.335   1.752
77929W        W44338  26.992  25.264   4.462
77930W        W44339  15.162  38.317   0.402
77931W        W44340  12.851  38.341   1.814
77932W        W44341  35.588   1.227  11.091
77933W        W44342   5.788  41.432   1.725
77934W        W44343  25.087  19.665   5.012
77935W        W44344  28.594   0.940  10.510
77936W        W44345   0.225  27.753  13.976
77937W        W44346  24.301  27.101   2.416
77938W        W44347   2.393  36.466   0.275
77939W        W44348   7.661  44.528  14.761
77940W        W44349  17.118  39.991  13.645
77941W        W44350  14.487   1.301  11.385
77942W        W44351  30.181  40.458  12.976
77943W        W44352  37.084  29.237   1.795
77944W        W44353   1.122  18.335  11.600
77945W        W44354  43.503  21.040   4.994
77946W        W44355  38.892   2.354  11.974
77947W        W44356  42.583   8.615   0.734
77948W        W44357  31.816  39.277  14.835
77949W        W44358  31.918  33.561  14.039
77950W        W44359  31.311  17.261   3.135
77951W        W44360  36.129  40.987  10.557
77952W        W44361  18.775   2.788   2.366
77953W        W44362  44.282  15.693  14.831
77954W        W44363  11.185  19.555   3.648
77955W        W44364   1.362  20.439   1.019
77956W        W44365  22.221  10.196   4.879
77957W        W44366  42.769   1.227  12.624
77958W        W44367  36.345  11.307   2.168
77959W        W44368  21.701  12.509   2.504
77960W        W44369  34.995  39.749   3.231
77961W        W44370  35.898  36.637   2.862
77962W        W44371   3.720  14.667   2.215
77963W        W44372  37.975   6.653   2.848
77964W        W44373  23.661  18.402  13.140
77965W        W44374  14.845   2.354  13.008
77966W        W44375  12.356  15.233   3.263
77967W        W44376  25.000  42.289  11.611
77968W        W44377  20.572   4.931   4.096
77969W        W44378  34.094  43.574   2.432
77970W        W44379   7.621  11.376   2.800
77971W        W44380  27.453  13.381   0.679
77972W        W44381  27.408  41.318  14.368
77973W        W44382  36.308   7.870  11.520
77974W        W44383  13.747  40.031  12.638
77975W        W44384  39.363   4.993  13.348
77976W        W44385  25.643  14.297  14.790
77977W        W44386  26.955   1.185   0.422
77978W        W44387  44.394  42.111   3.100
77979W        W44388  38.930  11.554   4.634
77980W        W44389  14.620  38.528   2.154
77981W        W44390  19.997  25.373  12.523
77982W        W44391  38.107  32.054   3.633
77983W        W44392  23.264  32.297  11.173
77984W        W44393  32.118  21.263  11.261
77985W        W44394  24.019  23.588  14.548
77986W        W44395   4.175   8.361  11.983
77987W        W44396  24.621   6.441  11.264
77988W        W44397  12.916  39.932   1.318
77989W        W44398  22.204  18.604  11.247
77990W        W44399  15.301  16.543  12.406
77991W        W44400  40.691  36.494   4.426
77992W        W44401  42.428  42.137   3.789
77993W        W44402  12.689  33.824  10.694
77994W        W44403   2.070  44.425  12.091
77995W        W44404  38.789  25.450   3.197
77996W        W44405  11.822   9.577  12.490
77997W        W44406  38.606  25.681  13.907
77998W        W44407  27.756  12.684  13.841
77999W        W44408   8.637  21.137   2.470
78000W        W44409  13.239   2.610  12.911
78001W        W44410  15.088  30.655   0.038
78002W        W44411   9.596  43.994  13.513
78003W        W44412  43.886  44.487  11.050
78004W        W44413  40.506   8.495  13.799
78005W        W44414  29.734  40.634  14.339
78006W        W44415  34.142  13.108   3.118
78007W        W44416  11.814  22.258  14.854
78008W        W44417   6.293  32.810   3.196
78009W        W44418  30.183   4.469  10.563
78010W        W44419   7.408  33.659   3.311
78011W        W44420  21.137  31.038  11.094
78012W        W44421  11.628  33.492  14.814
78013W        W44422  32.251  24.422   0.767
78014W        W44423   6.805  34.046   2.745
78015W        W44424  33.029   2.191   1.681
78016W        W44425  13.814  35.529  13.054
78017W        W44426  38.210   5.071  14.251
78018W        W44427  35.984   3.440   4.401
78019W        W44428   7.296   1.318   2.777
78020W        W44429  16.640  10.172   0.482
78021W        W44430  13.355  21.451  12.551
78022W        W44431  12.136  19.441   4.725
78023W        W44432  31.856  29.135   1.008
78024W        W44433  39.080  37.527   0.194
78025W        W44434  30.089  31.479   1.463
78026W        W44435   7.615  27.826  11.733
78027W        W44436  24.243   3.042   1.246
78028W        W44437  14.272  18.463  11.089
78029W        W44438  13.736  27.677  13.056
78030W        W44439   8.834  39.633  13.647
78031W        W44440  29.577  29.545  11.624
78032W        W44441  43.848   9.392   1.721
78033W        W44442  24.665  31.217   1.276
78034W        W44443  18.135  32.680   4.212
78035W        W44444  37.430  28.966  14.907
78036W        W44445  36.891  33.301   2.309
78037W        W44446  30.167   5.120   1.324
78038W        W44447  26.406  17.582  13.739
78039W        W44448  11.181  32.498   1.495
78040W        W44449  20.880   9.730   0.680
78041W        W44450   0.991  25.261   0.833
78042W        W44451  12.182  18.592  11.517
78043W        W44452  20.691  41.581   3.653
78044W        W44453  29.990  24.045   2.656
78045W        W44454   1.344  25.201   0.285
78046W        W44455  24.753  30.471   2.781
78047W        W44456  43.039  32.374  10.997
78048W        W44457  39.100  41.032  12.397
78049W        W44458  41.830  42.772   3.525
78050W        W44459  16.482   7.232  12.100
78051W        W44460   4.519  38.335   2.621
78052W        W44461   1.362  37.999  11.900
78053W        W44462  44.670  32.234   3.749
78054W        W44463  40.010   1.461   1.759
78055W        W44464  32.817  23.021   0.041
78056W        W44465  28.615  27.176  14.876
78057W        W44466  24.730  37.845   1.239
78058W        W44467  28.144  37.446  11.051
78059W        W44468  15.005   3.255  13.917
78060W        W44469  16.976  10.345  13.870
78061W        W44470   5.772   8.260  11.473
78062W        W44471  32.971  23.527   1.800
78063W        W44472  25.387  44.356  12.449
78064W        W44473  26.672  32.059   1.424
78065W        W44474  20.788  10.844  12.473
78066W        W44475   6.366  32.024   2.568
78067W        W44476  32.856   9.831  13.269
78068W        W44477   3.993  29.055  13.501
78069W        W44478  21.741  22.911   4.436
78070W        W44479  33.164   4.909   1.836
78071W        W44480  22.967   1.957   4.866
78072W        W44481  18.357  13.654   1.246
78073W        W44482  22.985   9.897   0.008
78074W        W44483   7.170  22.839   5.215
78075W        W44484  22.191  19.063  14.004
78076W        W44485  32.670  15.847  12.325
78077W        W44486  17.806   0.467   2.277
78078W        W44487  30.176  29.148  13.582
78079W        W44488  33.418   0.199  11.660
78080W        W44489  29.742  18.437   4.280
78081W        W44490  11.297  26.220   2.832
78082W        W44491  10.815  24.176  13.513
78083W        W44492   9.722  10.430  14.062
78084W        W44493   2.385   8.712   2.950
78085W        W44494   9.217  38.330   3.263
78086W        W44495  30.130  36.473  12.514
78087W        W44496   4.237  20.127   2.870
78088W        W44497  11.678  40.006   0.956
78089W        W44498  14.219  16.767   1.733
78090W        W44499   8.261  36.784   0.725
78091W        W44500  28.947  30.061   1.286
78092W        W44501  38.053  39.810  10.401
78093W        W44502  24.755  26.014  10.428
78094W        W44503  36.902  38.931   2.968
78095W        W44504   2.226  17.328   1.838
78096W        W44505  12.427  13.873   4.036
78097W        W44506  22.090  20.980   5.075
78098W        W44507  40.510  28.182  12.228
78099W        W44508  28.996   1.800   4.470
78100W        W44509  12.072  16.820   0.287
78101W        W44510   5.657  33.629   0.422
78102W        W44511  31.646  17.262   1.776
78103W        W44512  25.641   9.104  11.957
78104W        W44513  12.653  12.107   0.334
78105W        W44514   2.475   1.523   4.656
78106W        W44515  31.894  24.028  14.297
78107W        W44516  33.431  16.163   4.273
78108W        W44517  13.489  35.335   0.300
78109W        W44518   0.061  37.523  12.949
78110W        W44519  32.539  16.662   4.161
78111W        W44520  20.717   6.666  13.734
78112W        W44521   8.494  34.015   4.271
78113W        W44522  37.057  12.579  12.686
78114W        W44523  18.334   7.432   4.569
78115W        W44524  32.327   1.257   9.807
78116W        W44525  41.311  22.978   2.650
78117W        W44526   2.186   9.426  11.092
78118W        W44527   8.823  23.805  11.497
78119W        W44528  39.435   7.816  12.331
78120W        W44529  41.166  37.266  13.486
78121W        W44530  11.787  24.233  12.052
78122W        W44531  13.764   5.648   2.685
78123W        W44532  28.625  36.792   0.693
78124W        W44533   1.705   8.010  14.541
78125W        W44534  37.376  14.574   2.447
78126W        W44535  16.585  12.831   0.653
78127W        W44536  16.073  35.263  11.548
78128W        W44537   0.723  20.621   2.716
78129W        W44538  15.302  29.463   0.459
78130W        W44539  10.926   0.788  12.487
78131W        W44540  18.276  38.327   5.226
78132W        W44541  19.590  12.348  13.528
78133W        W44542  24.587  14.408   2.544
78134W        W44543   7.164  43.902  12.314
78135W        W44544  15.497  16.652  12.927
78136W        W44545  11.370  17.237   2.461
78137W        W44546   7.379  26.642  12.454
78138W        W44547  12.981   1.425  10.152
78139W        W44548   1.546  15.565  13.485
78140W        W44549  30.121  41.693  11.079
78141W        W44550  12.582  12.249   3.381
78142W        W44551   5.692  42.423   1.650
78143W        W44552  28.404  29.467  11.055
78144W        W44553   5.909   7.194  11.650
78145W        W44554  41.809   3.604   0.946
78146W        W44555  11.274   6.298  13.872
78147W        W44556  12.722  43.975   2.177
78148W        W44557  41.269  42.716  12.569
78149W        W44558  44.405   0.167   0.331
78150W        W44559   2.256  15.091   4.676
78151W        W44560   9.648  32.022   3.639
78152W        W44561  22.161  16.639   0.412
78153W        W44562  23.514   1.281   0.841
78154W        W44563  17.373  30.850   3.262
78155W        W44564  22.170  23.774   3.277
78156W        W44565  31.700  35.922   4.580
78157W        W44566  33.835  23.318  11.136
78158W        W44567   1.488   0.947  13.337
78159W        W44568   7.853  16.031  10.041
78160W        W44569  38.636   5.305   2.802
78161W        W44570  37.636  28.490  14.982
78162W        W44571   9.825  28.636   1.503
78163W        W44572  14.997  40.265   3.558
78164W        W44573  44.774  14.241  11.645
78165W        W44574  14.312   3.904  10.554
78166W        W44575   6.926   2.479  13.551
78167W        W44576   1.915   0.289   3.205
78168W        W44577  37.777  16.923   3.466
78169W        W44578  44.846  34.937   4.594
78170W        W44579  27.349   7.885  11.187
78171W        W44580   8.740  33.346  13.772
78172W        W44581  41.392  34.404  13.509
78173W        W44582  31.396   9.411  14.902
78174W        W44583  35.921  44.402  12.119
78175W        W44584  15.046  43.936  14.236
78176W        W44585   9.575  18.047   1.961
78177W        W44586  36.479  16.997   4.170
78178W        W44587  40.522   5.406  14.993
78179W        W44588   2.756   1.357  12.234
78180W        W44589  26.726  39.420  14.376
78181W        W44590  31.345  40.068   4.308
78182W        W44591   5.861  25.880  11.669
78183W        W44592  33.232   7.193   3.211
78184W        W44593  25.711  20.010   1.810
78185W        W44594  37.008   4.643  10.681
78186W        W44595  13.542  24.050  14.382
78187W        W44596  38.790   5.881  11.482
78188W        W44597  26.459  31.438   1.965
78189W        W44598  40.919   0.480   0.270
78190W        W44599  38.056   3.193   0.336
78191W        W44600  16.638  22.134  10.526
78192W        W44601  42.142  15.740  10.322
78193W        W44602  41.374  13.171  10.750
78194W        W44603  14.063  10.760   3.660
78195W        W44604  13.825  10.839  14.371
78196W        W44605   2.731  31.627   4.657
78197W        W44606   2.477  24.618  10.668
78198W        W44607  39.874  18.827  14.111
78199W        W44608  13.609  38.527   1.306
78200W        W44609   5.788  18.399   2.262
78201W        W44610  10.315  36.606  12.865
78202W        W44611   0.163   2.410  11.124
78203W        W44612   1.828  18.269   0.325
78204W        W44613  20.199  31.384   1.698
78205W        W44614  34.921  36.155   1.361
78206W        W44615  26.433  13.609   3.498
78207W        W44616  36.153  34.476  11.179
78208W        W44617   6.068  34.854   3.310
78209W        W44618   5.248  39.663  14.251
78210W        W44619  15.340  30.469  14.348
78211W        W44620  10.903   4.741  14.443
78212W        W44621  20.610  17.076   0.396
78213W        W44622  12.961  23.177  14.294
78214W        W44623  40.751  10.918   4.451
78215W        W44624  26.113   3.224   1.690
78216W        W44625  16.172  38.954   2.254
78217W        W44626  25.550  42.761  13.449
78218W        W44627  40.450  37.119  13.915
78219W        W44628  36.829  32.439  14.842
78220W        W44629   6.270  22.615  12.997
78221W        W44630  20.451  40.638   2.351
78222W        W44631  36.036  31.460   4.512
78223W        W44632   8.893  17.952   1.012
78224W        W44633  17.195   7.911   4.039
78225W        W44634   6.372  20.700  13.443
78226W        W44635  24.005  30.929   3.327
78227W        W44636  32.298  28.960  14.195
78228W        W44637  25.496  24.055  14.862
78229W        W44638  29.109   6.215   4.668
78230W        W44639  15.833  28.692  14.312
78231W        W44640   6.771  38.374  12.098
78232W        W44641  26.731  38.707  14.089
78233W        W44642   8.683  11.583   3.347
78234W        W44643  18.523  13.606   3.655
78235W        W44644  37.429   9.652  14.352
78236W        W44645   3.678  42.097   3.826
78237W        W44646  12.742  38.077   0.378
78238W        W44647  30.686   9.599   4.856
78239W        W44648  41.195  43.778   0.381
78240W        W44649  36.924  18.219  12.525
78241W        W44650  40.006  41.320  11.009
78242W        W44651  43.573  30.136  12.117
78243W        W44652  13.722  22.357   4.518
78244W        W44653  11.013  24.472  12.965
78245W        W44654   1.249   1.407  13.312
78246W        W44655  38.475  27.505   1.791
78247W        W44656  39.347  23.622  14.605
78248W        W44657  19.479  36.738   3.114
78249W        W44658  39.825  34.087  13.417
78250W        W44659  40.389  37.700  10.115
78251W        W44660  16.278  23.753   2.868
78252W        W44661   1.587   1.501  11.168
78253W        W44662  11.812  37.239  11.938
78254W        W44663  38.779  43.799   1.974
78255W        W44664  16.573  16.237  12.387
78256W        W44665  37.235  29.605  10.950
78257W        W44666   4.495  28.476  10.925
78258W        W44667  15.104  17.177   3.760
78259W        W44668   2.260  37.950  13.864
78260W        W44669  39.340  13.620   3.770
78261W        W44670  11.465  18.172   2.212
78262W        W44671   7.823  20.192   3.779
78263W        W44672  42.777  18.701   1.637
78264W        W44673   1.176  39.460  12.545
78265W        W44674  40.071  12.766   0.100
78266W        W44675  15.736  12.134   5.001
78267W        W44676  26.013  26.716   0.966
78268W        W44677  24.813   2.746   1.194
78269W        W44678  18.199  42.694  11.914
78270W        W44679  36.120  19.449   2.041
78271W        W44680   1.806  36.313  12.551
78272W        W44681  13.432   7.525   5.059
78273W        W44682   3.991  11.728  11.554
78274W        W44683  31.872  36.627   3.718
78275W        W44684  12.305  37.680  11.122
78276W        W44685  14.593  14.019  13.442
78277W        W44686  39.341  18.605  13.119
78278W        W44687  19.812  10.697  11.128
78279W        W44688  22.832  31.873  11.340
78280W        W44689   6.448  29.127  11.079
78281W        W44690  42.956  23.015  12.105
78282W        W44691  37.821   1.681  14.455
78283W        W44692  37.275  26.921  14.332
78284W        W44693  36.946   6.257  10.640
78285W        W44694   7.687   5.792   4.173
78286W        W44695  27.917  18.961  13.693
78287W        W44696  26.149  25.712  14.113
78288W        W44697  33.805   5.458  12.929
78289W        W44698  24.644  34.702   3.323
78290W        W44699  10.485  38.904  13.584
78291W        W44700  14.500  17.500   0.919
78292W        W44701   5.736  36.490  11.383
78293W        W44702  30.908  23.028   1.742
78294W        W44703  37.398   1.771   0.749
78295W        W44704  25.224  44.894   3.565
78296W        W44705  33.986  22.223   3.129
78297W        W44706  33.898   4.532  12.089
78298W        W44707  38.337  33.925   4.105
78299W        W44708  43.446  25.312  12.182
78300W        W44709  12.479  20.955   3.856
78301W        W44710  27.330  31.751   2.705
78302W        W44711  41.411   8.946   1.444
78303W        W44712   5.682  26.839   2.134
78304W        W44713  34.969   6.656   3.285
78305W        W44714  39.078  15.542   4.226
78306W        W44715  11.150  28.870  14.744
78307W        W44716  24.479  32.093  10.791
78308W        W44717  20.130  29.473   3.143
78309W        W44718  36.602  31.270   0.265
78310W        W44719  44.533   1.411   0.428
78311W        W44720  24.409   0.499  10.820
78312W        W44721   8.674  41.416   0.730
78313W        W44722  24.453  21.878  11.692
78314W        W44723  15.659  33.094  11.918
78315W        W44724  17.546   1.402  12.626
78316W        W44725  14.258  23.720   1.076
78317W        W44726   5.953  37.864  11.599
78318W        W44727   2.237   1.146  13.449
78319W        W44728  29.552  40.490   4.495
78320W        W44729   9.827   8.874   2.611
78321W        W44730  19.027   2.184   0.008
78322W        W44731  41.062  44.724   2.406
78323W        W44732  17.977  28.215   1.358
78324W        W44733   0.821   9.928  10.658
78325W        W44734  21.600  42.159  12.891
78326W        W44735   8.064   2.336  14.434
78327W        W44736  28.607  30.918  14.415
78328W        W44737  23.136  22.249  13.935
78329W        W44738  36.020  25.266   1.328
78330W        W44739  24.160  44.737   3.218
78331W        W44740  28.980  22.159   1.452
78332W        W44741  23.325  16.845  14.037
78333W        W44742  36.861  33.526  10.457
78334W        W44743  10.970  27.422   3.342
78335W        W44744  15.348  34.508   1.363
78336W        W44745  44.933   3.622   0.968
78337W        W44746  22.501  31.984   3.172
78338W        W44747   8.622  26.434   1.235
78339W        W44748  30.014  10.965  12.484
78340W        W44749   2.737   7.188   3.681
78341W        W44750  15.629   3.052   4.345
78342W        W44751  44.220  37.447  14.095
78343W        W44752  32.651   2.986   1.869
78344W        W44753   4.937  29.180  14.204
78345W        W44754   3.440   0.801  10.461
78346W        W44755  43.432  26.198  13.872
78347W        W44756  20.006  44.258  11.977
78348W        W44757  10.106  14.118  14.410
78349W        W44758  13.404  13.246   1.788
78350W        W44759   8.139  34.008  13.860
78351W        W44760  15.730  18.245  14.084
78352W        W44761   2.936  32.177  12.580
78353W        W44762  36.239  29.571   2.121
78354W        W44763  25.093   7.429  10.693
78355W        W44764  44.429  29.414   1.353
78356W        W44765  36.301  12.293   4.892
78357W        W44766  20.740  38.413  13.972
78358W        W44767  12.359  36.922   4.068
78359W        W44768  31.457   1.233   2.257
78360W        W44769  28.074  22.749  13.933
78361W        W44770   3.166  40.099   0.024
78362W        W44771  24.256  24.171   0.416
78363W        W44772  43.762  30.046  11.645
78364W        W44773  43.508  15.097   3.552
78365W        W44774   0.889  18.718  10.783
78366W        W44775  11.682  37.450   2.085
78367W        W44776  31.450  13.210   0.705
78368W        W44777   8.930  10.695   1.432
78369W        W44778  41.875   9.231  12.070
78370W        W44779  28.951   1.735  12.073
78371W        W44780  39.291   0.372  10.451
78372W        W44781  23.919  10.823   0.925
78373W        W44782   7.288  36.819  11.533
78374W        W44783  34.192  12.322  13.964
78375W        W44784   1.544  44.766   0.769
78376W        W44785  44.714   3.190   0.714
78377W        W44786  44.457  30.612  14.664
78378W        W44787  25.881  15.786  14.514
78379W        W44788  25.910  40.233  13.778
78380W        W44789  15.695  22.488   5.442
78381W        W44790  24.121  26.605  13.085
78382W        W44791  44.035  18.023  13.809
78383W        W44792  14.779  38.026   0.202
78384W        W44793   4.179  36.061   1.783
78385W        W44794  29.192  31.850   1.733
78386W        W44795  24.478  27.677   2.727
78387W        W44796   5.763   0.518   0.758
78388W        W44797  12.379  25.506  10.600
78389W        W44798  23.148  39.834  14.984
78390W        W44799  24.589  25.066  13.801
78391W        W44800  26.521   4.054  10.477
78392W        W44801   9.377  30.679   3.163
78393W        W44802  17.600  36.414   3.357
78394W        W44803  33.344  10.260   3.374
78395W        W44804  34.440  31.068   1.909
78396W        W44805  38.657  16.200  10.174
78397W        W44806  42.771  18.188  14.910
78398W        W44807   1.966   9.348  14.000
78399W        W44808  21.846   1.825  13.818
78400W        W44809  14.133  16.558   2.198
78401W        W44810   4.239  14.595  13.379
78402W        W44811   2.015  24.405  13.473
78403W        W44812   1.847   7.478  14.090
78404W        W44813  33.383  15.774  14.936
78405W        W44814  38.654  16.564  12.399
78406W        W44815   9.151   0.244  14.468
78407W        W44816  43.364  26.531  10.164
78408W        W44817  22.387   3.486   1.296
78409W        W44818  12.165  18.596   2.616
78410W        W44819  15.682  35.214   5.030
78411W        W44820   4.287  17.514  13.806
78412W        W44821  23.948   3.769  13.546
78413W        W44822  31.503  34.778  14.961
78414W        W44823   5.909  17.723  10.943
78415W        W44824  17.199  44.198  11.497
78416W        W44825  37.058   5.817   0.339
78417W        W44826  23.591   0.007  12.626
78418W        W44827  29.920  14.560  14.733
78419W        W44828  20.725   8.451  12.367
78420W        W44829  26.626  34.923  14.439
78421W        W44830  42.856  31.643   0.297
78422W        W44831  12.107  42.267   4.128
78423W        W44832  32.306   7.573   2.654
78424W        W44833  29.163  23.858   2.071
78425W        W44834  37.381  31.339  12.946
78426W        W44835   9.363  30.287   9.542
78427W        W44836  19.348  27.075  14.411
78428W        W44837  12.311  17.706  13.115
78429W        W44838  15.726  28.317  11.157
78430W        W44839   6.771  14.093  12.610
78431W        W44840  33.084  20.140   4.202
78432W        W44841  30.134  18.176   3.006
78433W        W44842   9.176   4.798  12.146
78434W        W44843   0.449   7.154  10.866
78435W        W44844  36.839  36.545   0.269
78436W        W44845  42.289  23.687  11.140
78437W        W44846  36.533  39.274  13.861
78438W        W44847   4.852  39.472   3.569
78439W        W44848  42.410  19.466  12.456
78440W        W44849  18.101  30.005  11.885
78441W        W44850  29.576  17.244   1.297
78442W        W44851  39.881  31.637   2.412
78443W        W44852  17.105   0.445   0.823
78444W        W44853  20.925   1.934  13.054
78445W        W44854  10.673  39.871  12.486
78446W        W44855  41.918   6.845   0.830
78447W        W44856  20.061  11.358   2.298
78448W        W44857  28.959  34.326  14.201
78449W        W44858  31.144   7.156  11.215
78450W        W44859  35.488  16.274  13.795
78451W        W44860  42.005  30.916  14.974
78452W        W44861  36.612  43.949  12.042
78453W        W44862  11.238  40.644   4.134
78454W        W44863  26.368  10.796   4.626
78455W        W44864  41.267   9.250  14.700
78456W        W44865  36.354  22.423  14.408
78457W        W44866  21.606   0.719   3.559
78458W        W44867  42.287  11.429  11.590
78459W        W44868   2.466  32.362  12.832
78460W        W44869  29.584   3.600   5.048
78461W        W44870  39.609  13.983  10.444
78462W        W44871   3.363  19.753  13.921
78463W        W44872  30.014   2.867  10.741
78464W        W44873  19.960  29.028   2.258
78465W        W44874  35.509  39.941   1.258
78466W        W44875   2.696  42.380  11.707
78467W        W44876  33.661  16.054  13.905
78468W        W44877  42.508   7.927  12.007
78469W        W44878   9.668  37.828   2.303
78470W        W44879  27.589  10.365   0.913
78471W        W44880  16.997   1.306   9.634
78472W        W44881  28.511  12.580   2.264
78473W        W44882  10.867   4.921   1.775
78474W        W44883  19.400  11.193  12.565
78475W        W44884  21.958  12.150  14.405
78476W        W44885  24.731  10.671   3.125
78477W        W44886  17.667  23.000  12.526
78478W        W44887  32.867  29.160  13.538
78479W        W44888  18.121  32.854  14.309
78480W        W44889   6.220  35.759  14.696
78481W        W44890  39.022   6.634   0.227
78482W        W44891  17.321  41.848  11.892
78483W        W44892  36.124  23.126  14.153
78484W        W44893  28.382  29.527  13.441
78485W        W44894  16.156  42.024  12.386
78486W        W44895  31.451  41.120   2.991
78487W        W44896   7.456  27.479   4.461
78488W        W44897  27.511  37.924   1.830
78489W        W44898  21.063   7.179  13.318
78490W        W44899  17.875  40.469   5.045
78491W        W44900  11.219  17.212  11.106
78492W        W44901  10.876  24.747  14.411
78493W        W44902  12.701  36.334   0.384
78494W        W44903  11.936  10.127   2.731
78495W        W44904  24.921  36.803  14.521
78496W        W44905   1.441  34.874  12.485
78497W        W44906  33.538   3.918   2.163
78498W        W44907  44.731  43.518  13.307
78499W        W44908   4.687   6.838  14.682
78500W        W44909  36.535  21.129   2.833
78501W        W44910   6.576  40.811  13.018
78502W        W44911  31.737  44.939   4.651
78503W        W44912   9.815  43.714  10.209
78504W        W44913  10.751  30.468   4.294
78505W        W44914  23.942   0.737   5.354
78506W        W44915  29.884   5.277   4.543
78507W        W44916  11.959  15.283  10.576
78508W        W44917  36.105  18.597   1.926
78509W        W44918  39.560  33.245  12.118
78510W        W44919  19.590   1.446   1.875
78511W        W44920  43.588  24.358  11.970
78512W        W44921  32.943  32.193   0.151
78513W        W44922   2.910  35.534   4.591
78514W        W44923  43.524  28.510  14.468
78515W        W44924  32.581   6.725  10.239
78516W        W44925  12.915  34.949   3.750
78517W        W44926  12.291  28.641  14.144
78518W        W44927  19.790  18.250   4.685
78519W        W44928   1.439  10.451  11.128
78520W        W44929  26.031  42.152  10.590
78521W        W44930   0.364   7.818   2.188
78522W        W44931   6.440   8.658   4.100
78523W        W44932   5.764  29.482   1.321
78524W        W44933  44.807  43.195   2.202
78525W        W44934  21.979  23.283  12.833
78526W        W44935   4.932  28.593  11.148
78527W        W44936  38.127  24.054   1.922
78528W        W44937   5.697  14.696  10.654
78529W        W44938   1.533   5.401  12.095
78530W        W44939   8.370  20.035   3.702
78531W        W44940  37.558  35.661   4.071
78532W        W44941  12.606  26.966   3.323
78533W        W44942  27.752  27.659   0.445
78534W        W44943  41.769  16.867  10.265
78535W        W44944   0.682  24.692   1.671
78536W        W44945   2.821  10.852   1.681
78537W        W44946  42.219  28.684   3.799
78538W        W44947  34.444  38.491  10.952
78539W        W44948  34.527  42.312   0.769
78540W        W44949  39.435  26.997  13.805
78541W        W44950   4.816  33.211   3.638
78542W        W44951   5.241  30.183   0.020
78543W        W44952  12.057   1.591   9.865
78544W        W44953  32.972  14.140  12.570
78545W        W44954  30.813  30.484   2.778
78546W        W44955   3.706  39.939  11.955
78547W        W44956   0.219   3.946  14.650
78548W        W44957   2.382   0.416  12.997
78549W        W44958  42.674  34.110  11.963
78550W        W44959   3.457  14.670  11.084
78551W        W44960  28.573  43.838  13.514
78552W        W44961  37.513   3.765   1.795
78553W        W44962  38.528  10.728  11.446
78554W        W44963  21.281  21.201   4.629
78555W        W44964  15.284  21.787  10.683
78556W        W44965  43.017   6.431   1.375
78557W        W44966  10.504   2.254   4.530
78558W        W44967  15.602  41.409   4.857
78559W        W44968  32.305   4.940   5.414
78560W        W44969   4.690  22.049   3.719
78561W        W44970  10.804   0.790   2.253
78562W        W44971  17.531  31.387   4.038
78563W        W44972  40.822  12.688   2.761
78564W        W44973  44.474   3.744  13.777
78565W        W44974  23.647  18.684  14.224
78566W        W44975  28.425  43.141   3.851
78567W        W44976  34.470  28.146  11.212
78568W        W44977  35.664   7.685   4.220
78569W        W44978  17.595  15.240  12.488
78570W        W44979  32.899  22.549  11.016
78571W        W44980   4.105  39.204  11.166
78572W        W44981  25.040  10.785  14.871
78573W        W44982  35.428  36.579  10.713
78574W        W44983  35.874   0.249   2.759
78575W        W44984  42.434  14.388  13.442
78576W        W44985  36.903  44.237  13.846
78577W        W44986   3.928  34.624  11.155
78578W        W44987  30.822  21.602  12.913
78579W        W44988   1.433  44.387   1.823
78580W        W44989   3.351  31.250  12.496
78581W        W44990  42.761   4.325  11.516
78582W        W44991  29.836   9.269   0.263
78583W        W44992  30.087  43.741   1.417
78584W        W44993  20.551  13.234  14.276
78585W        W44994  24.606  27.680   1.795
78586W        W44995  35.783  36.509  13.860
78587W        W44996  33.956  43.100   0.073
78588W        W44997  10.370  43.395  14.391
78589W        W44998   4.031  29.667  11.481
78590W        W44999  41.758   7.905  13.305
78591W        W45000  32.186   3.394  14.313
78592W        W45001  14.350  20.344   1.599
78593W        W45002   5.941  42.468   0.776
78594W        W45003  15.587  19.592   0.731
78595W        W45004  32.306   6.030  13.437
78596W        W45005  15.847  29.029   1.408
78597W        W45006  35.337  39.487   1.450
78598W        W45007  11.206  34.875  14.628
78599W        W45008  31.975  35.279  12.931
78600W        W45009  30.240  22.587  12.392
78601W        W45010  30.596  43.361  12.056
78602W        W45011  17.777   7.407   1.916
78603W        W45012  32.027  28.517  14.370
78604W        W45013  40.815   8.424   0.813
78605W        W45014  23.930  33.095   3.363
78606W        W45015  24.249  21.941  14.862
78607W        W45016  40.244  42.569  14.362
78608W        W45017  13.758  15.605  14.936
78609W        W45018  26.501  18.733   3.673
78610W        W45019  23.218   1.531   4.762
78611W        W45020  42.452  35.197  13.073
78612W        W45021   9.646  27.552   1.478
78613W        W45022  18.326  22.597   2.112
78614W        W45023  22.954  26.946  13.316
78615W        W45024  14.809   7.313   1.467
78616W        W45025   0.825  27.194  12.042
78617W        W45026  16.374  19.023   0.520
78618W        W45027   4.182  20.306   3.820
78619W        W45028  38.921  43.448   0.153
78620W        W45029  36.388   3.239   2.245
78621W        W45030  15.203  16.452   2.104
78622W        W45031   8.261  17.235   1.307
78623W        W45032  10.940  10.419   2.476
78624W        W45033   1.328  14.424   5.181
78625W        W45034  16.041  41.086  12.333
78626W        W45035  42.347  18.242  12.935
78627W        W45036  37.956  16.428  12.926
78628W        W45037  18.645  31.610   4.833
78629W        W45038  38.462  19.447  11.520
78630W        W45039  42.514   2.188   3.783
78631W        W45040  36.991  22.949   4.173
78632W        W45041  14.222  44.502  14.389
78633W        W45042  21.142  17.959  11.966
78634W        W45043  26.343  35.956  12.437
78635W        W45044  27.527  19.964   3.233
78636W        W45045  22.617   1.384  14.376
78637W        W45046  23.001   5.619  13.453
78638W        W45047  33.483  15.011   0.995
78639W        W45048  34.849  34.642  11.021
78640W        W45049  36.478  10.758   3.362
78641W        W45050  33.953  41.629  11.117
78642W        W45051  35.631  41.035   3.393
78643W        W45052   7.443  44.213   2.831
78644W        W45053  26.955   6.405   2.145
78645W        W45054  19.605   5.990  12.556
78646W        W45055  11.287  44.129   0.414
78647W        W45056   7.848  19.480   0.201
78648W        W45057  36.844  40.478   1.338
78649W        W45058  17.513   1.269   0.483
78650W        W45059  16.485  41.709   5.014
78651W        W45060   4.419  18.381  10.924
78652W        W45061  23.548   2.149   0.749
78653W        W45062  14.626   6.747  12.104
78654W        W45063  19.000   0.469   0.524
78655W        W45064  20.388   7.793  14.865
78656W        W45065  16.183  37.025   2.780
78657W        W45066  12.961  31.536   1.328
78658W        W45067  42.366  25.245   3.313
78659W        W45068  42.873  15.500   3.091
78660W        W45069  26.474  20.681  12.615
78661W        W45070  42.777  34.481   0.094
78662W        W45071  14.755  29.084   3.683
78663W        W45072   9.232   7.682  14.503
78664W        W45073   1.711   5.787  11.438
78665W        W45074  17.735  41.604  14.426
78666W        W45075  42.394  39.153   4.195
78667W        W45076  44.493   6.999  14.664
78668W        W45077  43.922  25.205  10.978
78669W        W45078   6.936  34.575  14.926
78670W        W45079   5.080  39.864   3.809
78671W        W45080  12.771  40.935   1.764
78672W        W45081   9.327  23.970  14.862
78673W        W45082  30.581  33.434   1.252
78674W        W45083  28.044   6.210  14.739
78675W        W45084  16.179  34.079  11.461
78676W        W45085  21.465  31.932   1.818
78677W        W45086  16.797  19.558   2.071
78678W        W45087   8.328  32.575  12.926
78679W        W45088  36.449  33.403  14.472
78680W        W45089  29.677  25.050  14.919
78681W        W45090  22.491  14.791   3.205
78682W        W45091  41.974   2.488  12.492
78683W        W45092  12.767  18.626   4.447
78684W        W45093  17.736  18.785   0.891
78685W        W45094  19.339  33.652  13.925
78686W        W45095  18.800  12.059  10.208
78687W        W45096   0.300  17.486  12.996
78688W        W45097  18.299  41.883   1.845
78689W        W45098  44.173  21.245  11.639
78690W        W45099  25.699  23.733   5.331
78691W        W45100  39.011  36.308   0.786
78692W        W45101  33.900  11.140   1.937
78693W        W45102  19.617  15.217   3.196
78694W        W45103   4.682  17.492   5.002
78695W        W45104   8.765  20.640   1.742
78696W        W45105  38.002  16.139   2.113
78697W        W45106  36.271  22.727   4.405
78698W        W45107  36.121  28.660  11.463
78699W        W45108  40.380  19.200   2.122
78700W        W45109   8.264  15.957  11.435
78701W        W45110  30.370   6.198  13.312
78702W        W45111  36.598  19.925  13.952
78703W        W45112  39.899  34.749   2.681
78704W        W45113  17.211   1.416   2.353
78705W        W45114   0.038  37.080   2.047
78706W        W45115  27.641  27.937   3.777
78707W        W45116  19.531  11.228  13.048
78708W        W45117  39.571   7.721   2.910
78709W        W45118  15.613  31.372  13.047
78710W        W45119  21.433  38.815   2.703
78711W        W45120  17.816   1.069  11.687
78712W        W45121  36.276  38.132   1.478
78713W        W45122   8.369  10.827  10.768
78714W        W45123  32.198   1.603   4.521
78715W        W45124  14.016  22.197   3.985
78716W        W45125   7.750   1.961  13.649
78717W        W45126  30.472  15.171   2.237
78718W        W45127  42.335  42.032  13.537
78719W        W45128  16.647  27.879  13.645
78720W        W45129  19.244  32.781  12.277
78721W        W45130  32.475   5.270   1.622
78722W        W45131  39.480   2.069   0.019
78723W        W45132  15.433  41.042   3.787
78724W        W45133  13.784  14.829  14.281
78725W        W45134  36.860  27.265  11.192
78726W        W45135  34.400  36.140  13.928
78727W        W45136  31.459  32.015  14.960
78728W        W45137  19.617  29.225  12.664
78729W        W45138   3.363  44.841  11.945
78730W        W45139  28.490   6.352   0.024
78731W        W45140  27.728  38.714   0.948
78732W        W45141  39.752  40.400  12.079
78733W        W45142  29.610  22.529  14.586
78734W        W45143  11.518  32.544  11.761
78735W        W45144  34.917   0.846   2.457
78736W        W45145  20.085  32.135   2.802
78737W        W45146  24.948  13.400   4.696
78738W        W45147  31.969  37.412   4.178
78739W        W45148   4.964  41.453  10.715
78740W        W45149  44.894   3.698  12.464
78741W        W45150  18.740   8.563   3.672
78742W        W45151  15.092  20.991   3.069
78743W        W45152  41.619  27.710   2.997
78744W        W45153  22.440  34.058  12.044
78745W        W45154  16.121   8.822   1.480
78746W        W45155   7.438  30.535  14.773
78747W        W45156   6.790  13.692   2.647
78748W        W45157  27.208  37.142   4.625
78749W        W45158  44.452  29.546   2.392
78750W        W45159  16.181  16.275  12.713
78751W        W45160  15.364  35.398  10.690
78752W        W45161  26.063  18.074  12.049
78753W        W45162  25.528  21.737   2.997
78754W        W45163  29.056  20.496   2.671
78755W        W45164  19.883  12.716  13.075
78756W        W45165  35.592  30.299  10.596
78757W        W45166  33.886  39.086   3.682
78758W        W45167  15.171  44.472  10.759
78759W        W45168  32.174  26.473  13.401
78760W        W45169  11.695  20.445  13.367
78761W        W45170  12.199  41.976  13.890
78762W        W45171   0.257  32.573   4.299
78763W        W45172  30.449  16.586   2.309
78764W        W45173  24.443  29.940  10.479
78765W        W45174  30.910   6.699   2.732
78766W        W45175   3.440  24.727  13.890
78767W        W45176  43.278   8.628   1.952
78768W        W45177  43.667  12.811  10.230
78769W        W45178  38.016   8.333   4.502
78770W        W45179  19.030   4.629  13.381
78771W        W45180  27.368  14.191   0.353
78772W        W45181  30.051  22.419  13.805
78773W        W45182  40.700  26.466   3.215
78774W        W45183  31.096  24.144   4.215
78775W        W45184   2.253   8.903  11.095
78776W        W45185  23.147  25.157  11.499
78777W        W45186  24.061   1.905   1.445
78778W        W45187  34.051   9.806  11.030
78779W        W45188  27.465  21.778  10.077
78780W        W45189  17.235  15.052   2.445
78781W        W45190  37.459  25.559  14.419
78782W        W45191  22.018  37.532   1.545
78783W        W45192   4.272   3.480   4.584
78784W        W45193  33.080   3.778   2.386
78785W        W45194  20.597  17.752  12.363
78786W        W45195  14.720  31.686   0.427
78787W        W45196   8.455  14.464   3.181
78788W        W45197   1.402  35.849  13.809
78789W        W45198   1.451   0.564  14.506
78790W        W45199  40.828  12.716   3.730
78791W        W45200  18.904  11.961   3.277
78792W        W45201  30.179   6.520  14.909
78793W        W45202  38.573  24.009  11.615
78794W        W45203  31.087  14.938  12.884
78795W        W45204  34.538  39.116   1.926
78796W        W45205  27.967   2.748  14.953
78797W        W45206  10.817  19.764  11.152
78798W        W45207  21.775  17.726   4.719
78799W        W45208  20.146  14.689   2.909
78800W        W45209  19.102  17.195  13.027
78801W        W45210   2.016  44.736  14.455
78802W        W45211  30.341   5.382  10.861
78803W        W45212  42.798   2.691   2.611
78804W        W45213  20.648  42.018   2.742
78805W        W45214   9.692  14.813  12.539
78806W        W45215  20.186  43.151  13.408
78807W        W45216  18.525   4.673   3.145
78808W        W45217  36.079  35.062  10.726
78809W        W45218  28.957  36.686  11.042
78810W        W45219  43.630  42.839  14.511
78811W        W45220   7.870   9.426   1.485
78812W        W45221  13.258  41.771  12.484
78813W        W45222  40.383   2.071  12.111
78814W        W45223  14.625  35.500  13.911
78815W        W45224  18.092  10.575   0.426
78816W        W45225  23.871  28.842   4.971
78817W        W45226  21.137  12.031   3.575
78818W        W45227  44.749  42.072   1.388
78819W        W45228  31.532  43.303   1.685
78820W        W45229  29.593  41.436   0.380
78821W        W45230  16.297  10.092   4.032
78822W        W45231  23.599  44.967   1.765
78823W        W45232   3.247  23.210  14.821
78824W        W45233  18.797  19.763  13.006
78825W        W45234   3.599  27.915  12.058
78826W        W45235  38.783  19.623   4.143
78827W        W45236   0.459  23.514   2.177
78828W        W45237  22.501  40.401   2.689
78829W        W45238   2.694  14.752   2.984
78830W        W45239   0.417  19.669   1.924
78831W        W45240  28.353   8.836   0.209
78832W        W45241  19.783  43.804   0.978
78833W        W45242  35.903  27.110   0.074
78834W        W45243  28.340  26.590  10.330
78835W        W45244   0.629   2.528   3.688
78836W        W45245  37.805  14.549  13.589
78837W        W45246   1.487  39.659   0.783
78838W        W45247  16.190  11.321   3.773
78839W        W45248  34.295  20.625  13.334
78840W        W45249  25.977  38.484  12.980
78841W        W45250   4.809  21.572  12.098
78842W        W45251  19.973   7.240  10.767
78843W        W45252  12.422  33.018   1.329
78844W        W45253   6.727  22.132  10.077
78845W        W45254  16.545   8.618   1.266
78846W        W45255  14.805  13.659  11.563
78847W        W45256  12.370  41.255  14.379
78848W        W45257  21.160  11.957   4.083
78849W        W45258  36.934  37.588   2.427
78850W        W45259  29.941  35.049  12.535
78851W        W45260  24.223  17.358  13.827
78852W        W45261  37.115  21.261   3.692
78853W        W45262  39.766  30.953   4.539
78854W        W45263  34.790   1.302   1.473
78855W        W45264  29.431  15.255   4.612
78856W        W45265  39.536  29.224  12.744
78857W        W45266   6.445  15.761   0.321
78858W        W45267  41.233  18.121  12.487
78859W        W45268  17.673   8.641  12.962
78860W        W45269  38.996  23.376  10.703
78861W        W45270  36.479  26.995   4.546
78862W        W45271   6.588   8.604   5.321
78863W        W45272  26.658  28.165   3.595
78864W        W45273  39.318  43.555  13.312
78865W        W45274  21.463  16.187   3.141
78866W        W45275  19.576  27.579  13.331
78867W        W45276  28.583   2.907   3.231
78868W        W45277  31.677  36.133   2.703
78869W        W45278  12.362  28.694  11.195
78870W        W45279   4.649   1.698   0.408
78871W        W45280   6.088  37.478  12.930
78872W        W45281   1.963  14.015  14.298
78873W        W45282  19.248   8.258  12.799
78874W        W45283  31.188  40.451  10.947
78875W        W45284  43.683   0.331  11.009
78876W        W45285  34.437  25.093   3.001
78877W        W45286  27.703  18.173   3.194
78878W        W45287   5.781  37.857   3.214
78879W        W45288   4.004  34.476  11.632
78880W        W45289  17.767   4.889  12.150
78881W        W45290  40.349  34.400  11.556
78882W        W45291  31.520  25.392   2.786
78883W        W45292  27.755  28.994   2.110
78884W        W45293  21.074  36.008   0.822
78885W        W45294  26.069  43.253  14.220
78886W        W45295  37.769  11.201   3.255
78887W        W45296  31.207  33.610  14.568
78888W        W45297  42.968  30.333   1.617
78889W        W45298  11.501  35.448  14.916
78890W        W45299  42.894  21.928   0.707
78891W        W45300  15.042  12.353  11.150
78892W        W45301   7.554  42.150   4.513
78893W        W45302  11.761  22.571   4.894
78894W        W45303  40.297  17.794   2.673
78895W        W45304  39.019  31.133  14.701
78896W        W45305  29.152  24.053  12.775
78897W        W45306   3.663  26.206  11.043
78898W        W45307   1.313  40.397  14.834
78899W        W45308   2.993  22.909  11.666
78900W        W45309   7.554  11.899   2.869
78901W        W45310  26.650  20.216  13.340
78902W        W45311  43.252   5.952   1.386
78903W        W45312  19.289   8.255   3.660
78904W        W45313  10.740  35.859  13.169
78905W        W45314   4.355   6.322   4.066
78906W        W45315  30.932   4.704  13.770
78907W        W45316  38.093  29.138  12.968
78908W        W45317  28.267  22.526  14.873
78909W        W45318  42.288  22.959   0.637
78910W        W45319   6.741  34.850  11.991
78911W        W45320  28.185  44.601   5.075
78912W        W45321  37.775  26.554   2.797
78913W        W45322  35.253  12.377   2.793
78914W        W45323  30.078   9.655  12.191
78915W        W45324  31.904   1.815   1.032
78916W        W45325  11.767  15.447  13.505
78917W        W45326   2.812   7.420  12.631
78918W        W45327  19.202  10.764   4.340
78919W        W45328   1.478  20.224   2.319
78920W        W45329  40.580  37.861   3.748
78921W        W45330  12.825  21.466   3.142
78922W        W45331   4.775  35.664  14.941
78923W        W45332  39.419   0.852   2.207
78924W        W45333  11.508  25.544   4.397
78925W        W45334   1.992  23.745   0.901
78926W        W45335  42.478   0.295   0.194
78927W        W45336  44.385  27.942  13.544
78928W        W45337  17.203  44.470  11.068
78929W        W45338  22.233  22.479   2.634
78930W        W45339  37.629  12.380   3.666
78931W        W45340  10.870  12.258   0.609
78932W        W45341   9.219  40.668   4.537
78933W        W45342  30.538   0.558  13.857
78934W        W45343  34.552   2.882  11.699
78935W        W45344  19.174  10.206   3.348
78936W        W45345  44.200  29.419  11.045
78937W        W45346  22.421  34.195   2.793
78938W        W45347  12.860  41.897  11.156
78939W        W45348  43.216  42.942  10.658
78940W        W45349  40.076   7.839   4.769
78941W        W45350  18.289  33.588   0.569
78942W        W45351  19.026  24.505  12.200
78943W        W45352  43.311  16.108   2.550
78944W        W45353  16.098   2.259  11.697
78945W        W45354  25.182  11.420   3.165
78946W        W45355   3.305   1.453  13.455
78947W        W45356  14.748   2.196  10.405
78948W        W45357  38.751  24.716  13.994
78949W        W45358  41.321   0.734  12.666
78950W        W45359  37.908   7.751  12.982
78951W        W45360  40.373  17.123  13.351
78952W        W45361  24.274  17.344  12.944
78953W        W45362  22.666   8.468  11.000
78954W        W45363  12.707   8.254  13.086
78955W        W45364  20.374   0.943  13.992
78956W        W45365   9.273  35.545   2.303
78957W        W45366  18.691   0.509  12.608
78958W        W45367  15.670  12.187   4.152
78959W        W45368  19.076  13.945   3.116
78960W        W45369  18.519  10.926   0.524
78961W        W45370  38.524  22.185   2.367
78962W        W45371   8.819  34.635  10.720
78963W        W45372  14.264  32.923  11.101
78964W        W45373  24.094  37.961   0.484
78965W        W45374  36.599  25.942   1.736
78966W        W45375  19.310  40.454   4.106
78967W        W45376  18.579  44.166  11.861
78968W        W45377  24.629  31.552   3.133
78969W        W45378  13.137   2.949  13.319
78970W        W45379   3.929  35.964  13.043
78971W        W45380  18.620  23.285  11.668
78972W        W45381  14.092  11.617  11.325
78973W        W45382  25.447   2.003  10.654
78974W        W45383   4.731  16.765  12.154
78975W        W45384  32.539  10.424  10.891
78976W        W45385   8.611   9.728  13.732
78977W        W45386   6.512  21.684  11.493
78978W        W45387  38.123  17.539   1.635
78979W        W45388  42.000  41.864  13.890
78980W        W45389  18.473  43.690  10.975
78981W        W45390   3.759  34.895   1.808
78982W        W45391   5.670   4.033  10.788
78983W        W45392   0.242  33.657  11.961
78984W        W45393  35.358  25.708   2.311
78985W        W45394  24.274  13.191   3.738
78986W        W45395  13.650  38.817  10.746
78987W        W45396  33.391  23.032  12.368
78988W        W45397  16.147  28.089  13.407
78989W        W45398  37.782  17.020  13.901
78990W        W45399  24.791  22.546   3.328
78991W        W45400   0.836  33.586  13.064
78992W        W45401  17.715  21.795  12.100
78993W        W45402  14.364   0.559   3.755
78994W        W45403  33.919  30.128  14.952
78995W        W45404   6.938  23.127   0.410
78996W        W45405  18.972  32.885   2.833
78997W        W45406   8.077  21.533   0.884
78998W        W45407  25.122   1.250   2.255
78999W        W45408  33.122  34.300  11.174
79000W        W45409  39.464  21.704   1.821
79001W        W45410  15.992  22.182   0.300
79002W        W45411  20.810  21.706  10.625
79003W        W45412  33.619  40.679  10.087
79004W        W45413  10.479  29.869   2.322
79005W        W45414  21.238   1.266   2.449
79006W        W45415  19.256  39.964   3.907
79007W        W45416  26.708  16.098   2.340
79008W        W45417  35.995  31.725  14.858
79009W        W45418  33.024  26.555   1.287
79010W        W45419   6.075  18.558  13.128
79011W        W45420   1.528  15.010   4.265
79012W        W45421  29.109   2.542   4.015
79013W        W45422  14.723  41.454  12.438
79014W        W45423  20.323  16.356   2.355
79015W        W45424  17.548  10.839  11.647
79016W        W45425   1.509   9.279   2.219
79017W        W45426  22.026  37.998   1.781
79018W        W45427  16.755  39.458  13.554
79019W        W45428  24.528   0.264   0.976
79020W        W45429  35.120  34.026   3.245
79021W        W45430  41.805   4.780  12.968
79022W        W45431  26.687  38.874   2.734
79023W        W45432   2.297   4.375   1.296
79024W        W45433  36.125   6.645   3.586
79025W        W45434  23.295   7.669  12.523
79026W        W45435  14.851   2.155  11.491
79027W        W45436  12.163  23.953   4.699
79028W        W45437  36.726  18.129  11.565
79029W        W45438  24.637   9.817  14.609
79030W        W45439  10.404  22.439  14.706
79031W        W45440  38.215  16.582   1.001
79032W        W45441  37.288  15.851  12.296
79033W        W45442  24.314   6.111  13.596
79034W        W45443   0.225  13.560   3.844
79035W        W45444  20.386  44.309   2.368
79036W        W45445  21.881  37.991  11.660
79037W        W45446  19.022  23.129  12.852
79038W        W45447  10.577  40.991  12.083
79039W        W45448  32.175  29.520  11.293
79040W        W45449  40.876   0.300   1.207
79041W        W45450  34.272  42.496   0.353
79042W        W45451  20.247  36.109  11.495
79043W        W45452  27.973  40.613   0.731
79044W        W45453  36.315  17.147  14.485
79045W        W45454   4.459   0.240   0.266
79046W        W45455  25.637   5.114  10.925
79047W        W45456   7.948  26.951   1.601
79048W        W45457  42.508   9.474  11.403
79049W        W45458   1.421   2.414  11.605
79050W        W45459  23.956  13.950   0.412
79051W        W45460   7.454   7.374   0.788
79052W        W45461  31.577  10.162  13.116
79053W        W45462  33.179  18.958   1.672
79054W        W45463  39.403  38.771   4.211
79055W        W45464  26.616  18.367   4.986
79056W        W45465  16.604  22.601  12.250
79057W        W45466  36.695  23.056  13.417
79058W        W45467  33.484  27.896  12.472
79059W        W45468  14.631   3.696  10.169
79060W        W45469   0.758  35.980   1.804
79061W        W45470  19.023   4.902  11.599
79062W        W45471  39.642   8.245   4.610
79063W        W45472  40.615  17.007  12.142
79064W        W45473  28.993  41.852   0.161
79065W        W45474  32.828  39.807   0.680
79066W        W45475  41.016  20.995  11.290
79067W        W45476  36.245  44.322   1.902
79068W        W45477  24.030   2.274   0.894
79069W        W45478  35.096  23.551   2.147
79070W        W45479  36.818   6.806   2.632
79071W        W45480   0.577  14.745   1.323
79072W        W45481  10.720   8.770  13.757
79073W        W45482  17.032  20.767   3.133
79074W        W45483  32.935  10.118  11.639
79075W        W45484  37.916  15.719   4.726
79076W        W45485  29.911  15.555  11.524
79077W        W45486  23.817  38.516  13.372
79078W        W45487  14.332   7.674  12.016
79079W        W45488  32.647   0.455  12.885
79080W        W45489  39.180   5.919   0.802
79081W        W45490  28.419  10.246  14.792
79082W        W45491  37.880  34.360   1.326
79083W        W45492  41.825  27.103   0.190
79084W        W45493  29.334  11.594  12.306
79085W        W45494  20.506  18.607   4.139
79086W        W45495   7.838  33.300   1.479
79087W        W45496   9.487   2.491  12.405
79088W        W45497  12.780  40.842  10.210
79089W        W45498  19.044   8.683  11.124
79090W        W45499   3.996  11.585  14.855
79091W        W45500  36.676  34.041   1.858
79092W        W45501   4.694  33.104   2.711
79093W        W45502  21.785  24.968  11.641
79094W        W45503   4.459  30.732  14.490
79095W        W45504   9.154  38.523  14.886
79096W        W45505  20.844   2.685  11.150
79097W        W45506  16.162  29.616  14.618
79098W        W45507  27.462  11.777   4.172
79099W        W45508   5.677  17.590   0.311
79100W        W45509   1.873   4.874  12.698
79101W        W45510  42.908  31.642  12.656
79102W        W45511  35.081  44.400   3.128
79103W        W45512  36.277  31.574  13.839
79104W        W45513   1.469  15.087   0.340
79105W        W45514  30.013  31.508  12.426
79106W        W45515  14.804  19.147  14.490
79107W        W45516  43.015  23.269  11.620
79108W        W45517  37.692  25.723  12.069
79109W        W45518  29.333  24.880  11.618
79110W        W45519  30.019  26.739  14.427
79111W        W45520  31.670  15.670   5.072
79112W        W45521  32.357  12.775   1.282
79113W        W45522  22.563  21.143   1.204
79114W        W45523  26.025  44.745  12.020
79115W        W45524  42.573  22.198   4.178
79116W        W45525   9.005  29.576  14.667
79117W        W45526  24.496  31.558   4.658
79118W        W45527  33.203  11.110  10.500
79119W        W45528   3.447  28.659   0.443
79120W        W45529  34.610  20.840  11.731
79121W        W45530  39.285  15.672   4.670
79122W        W45531  42.944  39.207   4.152
79123W        W45532  33.865  32.621   1.284
79124W        W45533  18.155  19.818  11.554
79125W        W45534  44.535  38.365   0.306
79126W        W45535  16.205  19.323  12.042
79127W        W45536  35.687  28.972  11.595
79128W        W45537  24.001  35.035   2.876
79129W        W45538  29.540   2.375   4.215
79130W        W45539  30.568   3.596  12.871
79131W        W45540  10.411  33.928  11.613
79132W        W45541  24.263  22.113   1.815
79133W        W45542   5.685   3.214  11.637
79134W        W45543  14.581  12.714   4.546
79135W        W45544  34.360  26.156  13.081
79136W        W45545  19.589  23.450   2.657
79137W        W45546   2.515  25.675   2.773
79138W        W45547  21.329  22.532   3.577
79139W        W45548  34.130  39.944   3.621
79140W        W45549  25.100   1.751  14.525
79141W        W45550  10.202  32.880   0.228
79142W        W45551   3.691  14.405   1.766
79143W        W45552   4.139  16.267   4.556
79144W        W45553  41.844  32.454  13.248
79145W        W45554   7.843   6.643   4.568
79146W        W45555   5.396  44.027   1.937
79147W        W45556  41.258  19.091  11.494
79148W        W45557  34.330  11.668  14.814
79149W        W45558  44.134  27.053   3.324
79150W        W45559  26.275  26.587   1.459
79151W        W45560  28.195  20.835  10.505
79152W        W45561  37.281  17.572  14.702
79153W        W45562   5.014  31.433  11.944
79154W        W45563  18.608  19.322   1.245
79155W        W45564  30.844   1.021  13.204
79156W        W45565  17.797  20.305   2.218
79157W        W45566  16.085  41.410   0.702
79158W        W45567  16.027  33.466   2.718
79159W        W45568  23.703  10.401   3.250
79160W        W45569  10.847  22.264  12.995
79161W        W45570  24.130   2.781   2.672
79162W        W45571  44.155  36.833   1.983
79163W        W45572  44.866   8.600  11.586
79164W        W45573  33.406   9.654   4.613
79165W        W45574  30.168  34.974  12.072
79166W        W45575  33.951   7.828   3.792
79167W        W45576   2.365  40.552   4.229
79168W        W45577  26.058   4.908   2.528
79169W        W45578  16.411  13.312  13.354
79170W        W45579  36.984   0.458  12.029
79171W        W45580  30.391  23.550   4.108
79172W        W45581  14.805  44.826   1.891
79173W        W45582  41.292  37.386  11.041
79174W        W45583  34.231   0.536  10.192
79175W        W45584  12.358  33.972  14.822
79176W        W45585  15.587  39.718   9.830
79177W        W45586  22.262  21.942   1.699
79178W        W45587   5.167  12.717  14.414
79179W        W45588  16.844  25.727  12.195
79180W        W45589  31.255   4.163   0.465
79181W        W45590  39.661  30.064   2.827
79182W        W45591  12.462  32.761   0.471
79183W        W45592   8.405   7.415  11.412
79184W        W45593  11.038  17.623   4.244
79185W        W45594  23.244   1.975   0.341
79186W        W45595  23.210  39.576   2.021
79187W        W45596   0.367   1.662   2.762
79188W        W45597   6.263   5.421   2.465
79189W        W45598   7.778  29.438   2.702
79190W        W45599   0.373  16.733  14.040
79191W        W45600  11.665  44.833  11.734
79192W        W45601  28.569  25.616   1.676
79193W        W45602  36.346   1.904   2.659
79194W        W45603  37.858  15.113   3.103
79195W        W45604   5.378  17.116  13.378
79196W        W45605  34.861   5.755   1.700
79197W        W45606  40.996  38.591   2.233
79198W        W45607  34.379   6.477   4.450
79199W        W45608   5.184  31.251  14.896
79200W        W45609  29.458  23.722  13.976
79201W        W45610  39.345  28.194   2.876
79202W        W45611  30.647  18.681  14.700
79203W        W45612  18.428  26.201  12.930
79204W        W45613  10.190  29.574   1.539
79205W        W45614   3.390  17.461  13.448
79206W        W45615   3.296  40.828  12.177
79207W        W45616  22.105  25.958   0.601
79208W        W45617  38.497  14.639  12.420
79209W        W45618  24.913   1.910  13.102
79210W        W45619  10.564  34.511   5.143
79211W        W45620  44.014  19.519  14.343
79212W        W45621   3.335  22.080   3.147
79213W        W45622  40.789   6.802  13.558
79214W        W45623  27.044  42.234  13.489
79215W        W45624  24.732   1.978  11.177
79216W        W45625  41.060  36.910  11.129
79217W        W45626  29.961   0.309   0.738
79218W        W45627  22.690  26.251  11.114
79219W        W45628  26.728  29.937  13.999
79220W        W45629  31.503  21.754  14.353
79221W        W45630  32.999   0.409  13.332
79222W        W45631  10.053  41.232   1.952
79223W        W45632  28.223  26.588   0.256
79224W        W45633  42.951  35.215   5.038
79225W        W45634  30.704  42.709   5.066
79226W        W45635  30.377  42.615  11.653
79227W        W45636   3.355  33.304   0.194
79228W        W45637  29.805   9.242   9.732
79229W        W45638  16.874  39.926  12.964
79230W        W45639  30.018  35.470  11.014
79231W        W45640   3.713  30.917   2.627
79232W        W45641  35.476   4.977  13.320
79233W        W45642   1.516  25.691  13.338
79234W        W45643  32.940  25.161   1.693
79235W        W45644  15.276   4.004  12.568
79236W        W45645  29.505  39.352  14.929
79237W        W45646  15.734  26.679  12.978
79238W        W45647  16.239   4.296   0.286
79239W        W45648  25.962  32.952   0.201
79240W        W45649  38.009  39.064   3.117
79241W        W45650  34.303   3.996  10.139
79242W        W45651  14.937  12.777   0.260
79243W        W45652  16.294  21.303  11.538
79244W        W45653  10.745  43.637  14.918
79245W        W45654  35.358   7.463   1.691
79246W        W45655  38.827  33.961  13.388
79247W        W45656  43.327  29.584   2.350
79248W        W45657  16.383   9.882  13.003
79249W        W45658   8.427  22.707   2.795
79250W        W45659  34.059   1.050  11.013
79251W        W45660   5.234  28.751  14.435
79252W        W45661  33.516  43.937  11.131
79253W        W45662  37.753  27.205   2.209
79254W        W45663   1.903  10.816  14.010
79255W        W45664  36.767   7.584  13.497
79256W        W45665  36.835  12.104   1.735
79257W        W45666  27.530  13.851  11.561
79258W        W45667   1.026  33.013   4.577
79259W        W45668  39.789  30.055   2.332
79260W        W45669  18.142  22.037  11.897
79261W        W45670  17.099  20.118  10.635
79262W        W45671  25.436  42.701   2.702
79263W        W45672  27.882  27.485  12.364
79264W        W45673  37.432  38.010  12.969
79265W        W45674  40.721  40.467  13.011
79266W        W45675  28.057  40.082   0.792
79267W        W45676  33.967  23.031  12.923
79268W        W45677   9.048  24.495   2.199
79269W        W45678   5.690  28.576  12.102
79270W        W45679  22.199  20.069  13.868
79271W        W45680   9.340   3.005  11.704
79272W        W45681  23.811  22.546  13.030
79273W        W45682  27.654   9.185  14.343
79274W        W45683  26.466  44.273   3.805
79275W        W45684  20.655  33.610  11.955
79276W        W45685  16.541  42.254  10.473
79277W        W45686  14.523  18.979   3.193
79278W        W45687  20.185  24.860  12.542
79279W        W45688  20.137  41.081  13.925
79280W        W45689  10.833  18.787  14.041
79281W        W45690  40.302  41.712  11.633
79282W        W45691  13.901   4.924   1.702
79283W        W45692  43.063  42.319  11.435
79284W        W45693  43.173  30.442   2.232
79285W        W45694   2.737   6.464   0.363
79286W        W45695  29.335  13.181   5.039
79287W        W45696  11.270  11.671  10.925
79288W        W45697  18.704  35.835  12.133
79289W        W45698  39.963  26.188   3.785
79290W        W45699  37.266   4.437   2.249
79291W        W45700  30.409  44.140   4.578
79292W        W45701  26.124  42.030  13.415
79293W        W45702   1.633  23.291   4.087
79294W        W45703  14.736  13.133  14.849
79295W        W45704  42.989  35.444   3.368
79296W        W45705  16.767  35.120  13.548
79297W        W45706   6.958  20.276   4.198
79298W        W45707   6.746  17.878  11.504
79299W        W45708   2.010  40.320  11.192
79300W        W45709  43.071   0.693  10.163
79301W        W45710  33.174  23.859   4.080
79302W        W45711  25.267  36.968   3.255
79303W        W45712  40.848  21.836  13.610
79304W        W45713  42.266  34.122  11.450
79305W        W45714  23.197  20.951   0.533
79306W        W45715  13.341   7.606  14.733
79307W        W45716  16.325  12.206   4.836
79308W        W45717   6.235   6.616  13.334
79309W        W45718   3.371  35.150  12.421
79310W        W45719  18.546  22.083   2.217
79311W        W45720   0.910  16.669  12.383
79312W        W45721  27.971   7.010   2.701
79313W        W45722  11.715  33.409   0.708
79314W        W45723  24.542  14.241   4.018
79315W        W45724  40.986  33.453  14.454
79316W        W45725  19.624  32.158  14.741
79317W        W45726  32.289  17.913  11.110
79318W        W45727  35.921  15.629   1.273
79319W        W45728  27.360  25.580  13.115
79320W        W45729   4.333  40.860   3.282
79321W        W45730  38.795   4.734   0.935
79322W        W45731  21.517  26.698   3.140
79323W        W45732   9.910  25.034  10.730
79324W        W45733  16.781   3.626  12.020
79325W        W45734  13.963  12.785   1.187
79326W        W45735  26.875  15.179  12.868
79327W        W45736  29.441   0.684   3.641
79328W        W45737  17.152  34.931   1.303
79329W        W45738  31.742   6.199   3.719
79330W        W45739   4.335  27.093  11.491
79331W        W45740  44.816   5.525  13.352
79332W        W45741  36.571  26.862  10.899
79333W        W45742  17.238  29.235   4.442
79334W        W45743  29.205  26.090   1.645
79335W        W45744  31.519  31.050   2.783
79336W        W45745  38.685  15.576  15.000
79337W        W45746  17.505  10.210   0.800
79338W        W45747  34.989  29.238   1.240
79339W        W45748   8.832  44.312   0.840
79340W        W45749  33.191  36.924   1.446
79341W        W45750  21.743  43.801  13.537
79342W        W45751  11.818  17.805   2.033
79343W        W45752  11.080  16.791   2.704
79344W        W45753  22.346  14.251   1.241
79345W        W45754  10.361  34.981   0.970
79346W        W45755  26.533   9.430  11.833
79347W        W45756  13.750  35.759   1.418
79348W        W45757  17.084   4.282   4.326
79349W        W45758  30.370  20.665   4.098
79350W        W45759  23.205   7.928   0.745
79351W        W45760   4.603  23.211   1.830
79352W        W45761   5.181   5.322   0.870
79353W        W45762   0.190  37.552  10.597
79354W        W45763   0.525  34.597  14.440
79355W        W45764  34.462  21.125   0.696
79356W        W45765  36.866  14.872  10.551
79357W        W45766   0.812   5.348  14.891
79358W        W45767  17.599  44.244  12.876
79359W        W45768  29.644  19.564  14.703
79360W        W45769  11.653  34.832  13.770
79361W        W45770  36.506   2.798   2.869
79362W        W45771   7.859  10.663   4.909
79363W        W45772  31.281  20.212  13.960
79364W        W45773  35.379  35.355  11.117
79365W        W45774  31.150  18.300  11.705
79366W        W45775  34.982  43.212   1.403
79367W        W45776  33.159  42.438  14.284
79368W        W45777  44.201  38.610  12.297
79369W        W45778  20.788  31.861  12.463
79370W        W45779   7.233  24.634   2.658
79371W        W45780   2.482  40.011  11.659
79372W        W45781  36.356  32.606   3.341
79373W        W45782  20.955  13.195   1.624
79374W        W45783  13.136  41.604   3.644
79375W        W45784   8.256  16.818  13.882
79376W        W45785  37.551  36.694  11.714
79377W        W45786   9.732  43.274   1.170
79378W        W45787  35.400  13.004  11.495
79379W        W45788  41.530  26.168  14.928
79380W        W45789  36.918  14.368   0.241
79381W        W45790  10.867  42.102   4.589
79382W        W45791  40.835  12.436  13.350
79383W        W45792  42.115  22.683  11.027
79384W        W45793  37.313  25.996   3.703
79385W        W45794  23.702   9.931   4.164
79386W        W45795   5.205  15.060  14.072
79387W        W45796  22.074  34.930  12.995
79388W        W45797  40.469  14.101   3.702
79389W        W45798  43.809  20.194  14.008
79390W        W45799  33.740   4.779  13.802
79391W        W45800  24.415  37.409   0.893
79392W        W45801  16.752  30.491  13.107
79393W        W45802  31.795  21.136   2.415
79394W        W45803  22.780  18.451   0.385
79395W        W45804  25.019  44.052  13.461
79396W        W45805   8.473  39.827   3.297
79397W        W45806  43.361  22.634  12.850
79398W        W45807  44.046  22.048  11.072
79399W        W45808  37.614  24.540   4.452
79400W        W45809  28.402  37.392   1.770
79401W        W45810  38.096  19.015  13.054
79402W        W45811  25.201  28.539   0.851
79403W        W45812  32.827  23.649   3.214
79404W        W45813  31.199  36.936   1.806
79405W        W45814  13.379  32.630   4.251
79406W        W45815  39.364   0.486  10.947
79407W        W45816  31.833  10.379   1.215
79408W        W45817  33.086  42.493   0.689
79409W        W45818  21.877   7.770   0.836
79410W        W45819  28.079  35.941  11.650
79411W        W45820  39.029  24.664   4.583
79412W        W45821   5.178  39.690   0.415
79413W        W45822   3.946   0.433   2.622
79414W        W45823  33.582  12.856  13.500
79415W        W45824   4.506  32.887  11.497
79416W        W45825  13.913  36.589   1.872
79417W        W45826   3.828  30.899  12.864
79418W        W45827   1.413  38.441  13.532
79419W        W45828  44.929  25.603  14.281
79420W        W45829   0.481  34.390  12.865
79421W        W45830   5.342  44.439  12.390
79422W        W45831  23.261  10.043   2.308
79423W        W45832  36.170  32.002   4.571
79424W        W45833  44.201  23.181   3.211
79425W        W45834  15.334  33.083   0.579
79426W        W45835  39.443  15.549  14.521
79427W        W45836   3.141  37.091  13.269
79428W        W45837  17.793  32.013   4.541
79429W        W45838  44.723  25.814   2.818
79430W        W45839  11.275  35.127   4.056
79431W        W45840  15.567  39.765   0.783
79432W        W45841  12.665  27.882  10.801
79433W        W45842  30.338  35.482  12.007
79434W        W45843  40.064  22.682   0.825
79435W        W45844   1.205  20.739  14.788
79436W        W45845   2.268  35.628  11.687
79437W        W45846  20.513  34.160  11.936
79438W        W45847  36.412   4.235   3.452
79439W        W45848  21.528  20.695  12.989
79440W        W45849  15.267  20.535   0.843
79441W        W45850  25.182  30.685  12.552
79442W        W45851  21.080  18.318   1.744
79443W        W45852  42.373  44.443  14.277
79444W        W45853  13.535  24.585   4.144
79445W        W45854   2.361  13.846   4.134
79446W        W45855  44.038  35.598  11.073
79447W        W45856  36.037  38.095   3.662
79448W        W45857  10.554  18.088  12.644
79449W        W45858  17.939  14.329  14.159
79450W        W45859   9.927  32.528   3.646
79451W        W45860  39.536  24.675  12.360
79452W        W45861  27.672  20.106   1.592
79453W        W45862   5.375  38.420   1.482
79454W        W45863  37.415  18.633   0.541
79455W        W45864  10.867  37.616  14.346
79456W        W45865  32.540  31.973  14.242
79457W        W45866   1.884  19.166   3.499
79458W        W45867   8.309   2.730  13.608
79459W        W45868  29.105  30.482   1.015
79460W        W45869  35.005  23.896   0.224
79461W        W45870  44.515  36.422   0.021
79462W        W45871  13.968  35.402   0.523
79463W        W45872   0.768  36.731  12.862
79464W        W45873  12.145  10.237  13.925
79465W        W45874   7.577  42.846  11.620
79466W        W45875  27.190  23.014  11.921
79467W        W45876  29.930  14.860  12.040
79468W        W45877  17.484  22.492  12.615
79469W        W45878   4.485   0.544   1.259
79470W        W45879  28.753   4.938   0.039
79471W        W45880  29.481   5.820  12.933
79472W        W45881  40.318  25.013  14.204
79473W        W45882  27.661   7.466  11.193
79474W        W45883  15.264   0.982   0.795
79475W        W45884  27.551  20.048  13.832
79476W        W45885  34.463  33.932  11.444
79477W        W45886  25.134  43.166  10.822
79478W        W45887  22.099   6.187  12.755
79479W        W45888   9.255  23.975  12.546
79480W        W45889  22.779   7.821  13.083
79481W        W45890   1.158  26.977   1.759
79482W        W45891   6.720  21.564   2.248
79483W        W45892  13.694   4.954  14.423
79484W        W45893  15.577  43.956  13.569
79485W        W45894  24.191  16.339  13.885
79486W        W45895  11.270  33.906   0.952
79487W        W45896  42.035  36.429  11.002
79488W        W45897  35.402   5.107   1.592
79489W        W45898  34.501  43.545   0.245
79490W        W45899   1.472   8.620   3.388
79491W        W45900  31.910  41.776  14.603
79492W        W45901   2.420  14.842   1.128
79493W        W45902  24.967  36.153  13.877
79494W        W45903  20.678  24.751  12.484
79495W        W45904   1.831  31.225   4.244
79496W        W45905  30.088  34.921  14.399
79497W        W45906  21.243  11.050  11.193
79498W        W45907  27.809   7.396  13.664
79499W        W45908  28.702  30.342  11.221
79500W        W45909  43.205  17.175   3.785
79501W        W45910  25.133   5.399   3.654
79502W        W45911   9.729  14.371  13.457
79503W        W45912  40.751  15.218  14.514
79504W        W45913   3.343   3.596   4.688
79505W        W45914  22.495  34.578  11.166
79506W        W45915  35.061  21.693  10.638
79507W        W45916  38.999  12.770   0.931
79508W        W45917  38.981  26.982   0.714
79509W        W45918   8.248   8.338   4.426
79510W        W45919  43.135  17.183  12.725
79511W        W45920   2.864  11.962   3.633
79512W        W45921   5.510   9.746  14.269
79513W        W45922  34.448  44.907  12.761
79514W        W45923  44.814  31.627   1.654
79515W        W45924  16.319   3.115   2.174
79516W        W45925  35.645  43.667   4.172
79517W        W45926  17.407  37.126   0.361
79518W        W45927  35.811  41.344  10.781
79519W        W45928  27.437   4.360   0.796
79520W        W45929  28.022  37.303   5.020
79521W        W45930  42.503  26.703   2.330
79522W        W45931  17.701  34.213   2.700
79523W        W45932  10.227   5.678  13.914
79524W        W45933  25.671   4.884   2.186
79525W        W45934  32.970  40.543   1.758
79526W        W45935  15.171  40.008  13.685
79527W        W45936   1.439  30.585   1.086
79528W        W45937   8.274  10.853  12.959
79529W        W45938  41.045  39.530  14.721
79530W        W45939  38.934   7.063  10.409
79531W        W45940   3.969  17.109  11.414
79532W        W45941   8.491   4.090  12.377
79533W        W45942   8.771   8.184  12.631
79534W        W45943  14.671  18.277  14.227
79535W        W45944  30.700  12.936   3.895
79536W        W45945  19.054  33.989   0.836
79537W        W45946  43.771  16.403  11.053
79538W        W45947   9.607   1.600   4.581
79539W        W45948  36.416   0.245  11.122
79540W        W45949  15.212   0.726   0.363
79541W        W45950  35.531  33.530   4.325
79542W        W45951  14.127   3.848   1.019
79543W        W45952   6.319  33.860   1.417
79544W        W45953  40.644  31.911  14.086
79545W        W45954  37.949  18.055   1.583
79546W        W45955  26.865  16.595   4.914
79547W        W45956  29.192  35.008   4.628
79548W        W45957  44.013  39.536  14.876
79549W        W45958  41.529   8.350   3.586
79550W        W45959   6.769  33.913  12.680
79551W        W45960  28.622  35.975  14.734
79552W        W45961  44.578   4.715  12.417
79553W        W45962  24.602  31.877  11.640
79554W        W45963  14.382  22.224   1.232
79555W        W45964   1.801  10.414  14.343
79556W        W45965  26.172  40.524  12.263
79557W        W45966  17.930   0.997   1.256
79558W        W45967  43.445  41.956   2.341
79559W        W45968  40.538  14.748  14.247
79560W        W45969  17.759  27.855  11.407
79561W        W45970  10.176   5.264   2.225
79562W        W45971  37.403  21.201   3.248
79563W        W45972  30.443  22.690   2.868
79564W        W45973  43.186  35.451   0.294
79565W        W45974   4.230  22.763  14.670
79566W        W45975  35.620   6.806   0.395
79567W        W45976  22.260  44.900  14.306
79568W        W45977   7.767  26.936  11.593
79569W        W45978  12.553  43.477   1.360
79570W        W45979  34.855   7.374  13.346
79571W        W45980  13.259  34.826  12.056
79572W        W45981   7.737  40.533  11.999
79573W        W45982  18.169   9.549   1.243
79574W        W45983  20.097  14.552  10.725
79575W        W45984  38.512  21.680   0.099
79576W        W45985   5.328   9.253  10.862
79577W        W45986  34.639   4.464   0.323
79578W        W45987  21.338   4.937  13.893
79579W        W45988  20.205  11.099  13.878
79580W        W45989   0.985   3.881   4.197
79581W        W45990  37.674  20.256  10.938
79582W        W45991  43.828   7.754  11.553
79583W        W45992  43.161   8.113  11.945
79584W        W45993  18.767  26.087   3.337
79585W        W45994  38.905  20.510   2.150
79586W        W45995  16.985  25.134  13.940
79587W        W45996  29.382  17.770  14.028
79588W        W45997  44.413  31.979   3.318
79589W        W45998  19.600  31.661  12.912
79590W        W45999  26.549  32.593   0.863
79591W        W46000  43.404  11.403  11.013
79592W        W46001   5.696  42.492  12.538
79593W        W46002  35.418   7.644  11.951
79594W        W46003   3.837  37.092  12.496
79595W        W46004  13.113  26.835   3.326
79596W        W46005  43.811  15.747   2.699
79597W        W46006  30.460  40.403  11.701
79598W        W46007  11.292  19.223  10.639
79599W        W46008  24.774  13.333   0.765
79600W        W46009  39.433   6.357   1.310
79601W        W46010  42.207  23.458   3.721
79602W        W46011  13.759  15.292  13.348
79603W        W46012  18.021  22.054  10.686
79604W        W46013  24.200   7.671  11.479
79605W        W46014  14.009  20.170  13.267
79606W        W46015   1.413  37.616   3.127
79607W        W46016  39.418  42.333  11.966
79608W        W46017  15.800  43.302   3.540
79609W        W46018   5.405  44.246  11.925
79610W        W46019  20.183  14.371   3.320
79611W        W46020  43.390  15.986  13.031
79612W        W46021  24.918  35.359   1.774
79613W        W46022  35.373  16.292   2.157
79614W        W46023  10.319  28.583  11.093
79615W        W46024  39.013  39.381  14.650
79616W        W46025  26.138  17.172   3.358
79617W        W46026  37.661  43.017  10.835
79618W        W46027  35.606  36.126  11.583
79619W        W46028  14.185   6.943   2.617
79620W        W46029  15.148   1.803   0.907
79621W        W46030  32.583  43.348  12.407
79622W        W46031  18.723  27.449   0.927
79623W        W46032  23.575   2.871   2.324
79624W        W46033  30.533  17.355  12.887
79625W        W46034   0.411  34.949   1.013
79626W        W46035   6.752  10.919   1.121
79627W        W46036   3.933  42.746  12.298
79628W        W46037  24.022  25.961  14.364
79629W        W46038  41.876   2.437   3.576
79630W        W46039   0.816  32.526  11.153
79631W        W46040   2.928  20.275   0.309
79632W        W46041  12.654  41.245  14.873
79633W        W46042   0.890  12.651  12.904
79634W        W46043  41.862  28.852  13.395
79635W        W46044  22.249  26.680  13.271
79636W        W46045  40.458  32.060   3.540
79637W        W46046  42.532  27.529  14.537
79638W        W46047  34.151  42.236   2.341
79639W        W46048   2.910  16.096   4.613
79640W        W46049   0.427  26.452   4.567
79641W        W46050  27.473  16.144   4.064
79642W        W46051  32.373  18.735  11.298
79643W        W46052  26.030  16.924  13.669
79644W        W46053  14.784  43.618   0.019
79645W        W46054  38.203  12.410  11.150
79646W        W46055  43.356   9.403  12.900
79647W        W46056  28.590  43.262  13.755
79648W        W46057  18.861  19.171   2.743
79649W        W46058  26.969  16.756   4.418
79650W        W46059  16.397  24.884   3.309
79651W        W46060  22.612   3.008   1.289
79652W        W46061  24.196  17.116   1.166
79653W        W46062  27.055  28.607   2.694
79654W        W46063   4.209  33.611  12.996
79655W        W46064  29.866   0.792  11.955
79656W        W46065  17.806  14.698   2.339
79657W        W46066  36.492  30.093  12.018
79658W        W46067   3.853  22.522   4.257
79659W        W46068  19.669   7.116  13.565
79660W        W46069  40.058   7.758  14.911
79661W        W46070  12.608  27.396  14.019
79662W        W46071  15.847  27.400   3.234
79663W        W46072  15.165   0.493  11.988
79664W        W46073  23.978  19.523   4.384
79665W        W46074  10.879  16.895  14.770
79666W        W46075  44.274  43.392  14.771
79667W        W46076  30.470   8.774  11.154
79668W        W46077  23.056  42.994   3.567
79669W        W46078  35.967  10.919   2.685
79670W        W46079  39.624   9.282  11.671
79671W        W46080  33.567  41.529   4.602
79672W        W46081  25.116  44.445   4.884
79673W        W46082  23.123  34.519   1.094
79674W        W46083  42.531   0.844   4.584
79675W        W46084  41.335  22.300  10.723
79676W        W46085   8.146  14.853   4.127
79677W        W46086  40.610  18.281   3.608
79678W        W46087  18.709   9.055  12.502
79679W        W46088   1.044  32.527   3.652
79680W        W46089  36.633  15.022  13.020
79681W        W46090  31.896   4.752   3.668
79682W        W46091  10.669  37.511   1.849
79683W        W46092   3.456  32.547   4.182
79684W        W46093  12.342  11.993  12.380
79685W        W46094  16.035   5.303  12.547
79686W        W46095  27.723   6.662   0.832
79687W        W46096  32.391  15.768   4.604
79688W        W46097  34.493  38.190  13.028
79689W        W46098   0.255  24.949   2.811
79690W        W46099   3.862  20.106  10.976
79691W        W46100  14.179  31.025   3.093
79692W        W46101  26.018  30.411  13.066
79693W        W46102  10.057  36.023   2.331
79694W        W46103  36.855   9.382   0.504
79695W        W46104  25.536  36.690  11.580
79696W        W46105  12.805  37.845   1.406
79697W        W46106  39.315  39.412  10.395
79698W        W46107  31.200   9.622   1.937
79699W        W46108  22.737  31.106   0.473
79700W        W46109  42.474  18.662  14.809
79701W        W46110  25.220  40.295  12.017
79702W        W46111  40.129  37.512   1.860
79703W        W46112  30.186  43.866   4.967
79704W        W46113  15.539  13.152  13.056
79705W        W46114   8.751   0.565  14.384
79706W        W46115  21.512  30.586   3.904
79707W        W46116  29.446  11.163  12.089
79708W        W46117   8.229   9.351   3.943
79709W        W46118  20.241  21.487   1.234
79710W        W46119   3.333  15.307   2.343
79711W        W46120  40.952  40.993  12.392
79712W        W46121   7.374  16.098  12.011
79713W        W46122   1.996   9.891  13.899
79714W        W46123  21.205   2.367   4.448
79715W        W46124  41.535  17.627  14.035
79716W        W46125  29.623   1.770   2.819
79717W        W46126   3.881  35.812   4.616
79718W        W46127   5.615   9.230  11.570
79719W        W46128  14.313  19.040   1.847
79720W        W46129  27.239  20.075   2.781
79721W        W46130  17.811  21.089   4.222
79722W        W46131  25.737  20.753   1.382
79723W        W46132  22.170  38.896   0.247
79724W        W46133  24.759   1.035   1.301
79725W        W46134  21.351  38.118   2.582
79726W        W46135   4.631   1.235  14.661
79727W        W46136  36.035  24.416   0.264
79728W        W46137  33.454   5.449  10.739
79729W        W46138   3.051   2.299  13.047
79730W        W46139  19.911  19.056   2.903
79731W        W46140  12.569  41.428   1.782
79732W        W46141  15.666  40.764   1.819
79733W        W46142  16.620  18.124   0.425
79734W        W46143  31.559   4.632  12.037
79735W        W46144  44.918  11.262  10.643
79736W        W46145  16.924   0.978   3.477
79737W        W46146  18.820  21.071   4.159
79738W        W46147   1.819  27.123   4.244
79739W        W46148  43.721  38.649  13.492
79740W        W46149  21.417  22.053  13.355
79741W        W46150  22.204  24.128   0.829
79742W        W46151  40.419  16.401   2.574
79743W        W46152  14.185  25.983  12.330
79744W        W46153  30.073  21.608  13.471
79745W        W46154  39.137  14.751   3.962
79746W        W46155  26.146  19.104   1.280
79747W        W46156   8.818  35.393   0.348
79748W        W46157  41.679  39.680   2.719
79749W        W46158   4.948  32.829  14.413
79750W        W46159  11.231  38.177  13.761
79751W        W46160  33.809  17.257  14.374
79752W        W46161  25.100   2.693  13.507
79753W        W46162  20.235   9.584   3.496
79754W        W46163  20.185   8.834   0.467
79755W        W46164  39.112   1.400  10.244
79756W        W46165   4.743  40.563   1.328
79757W        W46166  18.558  17.756   4.931
79758W        W46167  32.576   8.243  14.778
79759W        W46168  16.091  13.406   0.205
79760W        W46169  33.039  18.618  12.659
79761W        W46170  29.656  25.653  13.877
79762W        W46171  26.503   5.690   2.692
79763W        W46172   2.681   1.819  11.898
79764W        W46173  12.872   6.649   2.408
79765W        W46174  23.531  15.559   3.718
79766W        W46175  17.575  31.206  12.927
79767W        W46176  40.474  33.916   4.030
79768W        W46177  36.959  36.992  12.564
79769W        W46178  16.821   5.331   1.823
79770W        W46179  32.575  38.513  10.641
79771W        W46180  31.209  16.976   4.421
79772W        W46181  14.315  15.158  11.436
79773W        W46182  11.263   6.875   1.255
79774W        W46183  13.842  38.510   3.541
79775W        W46184  19.060  19.585   0.887
79776W        W46185  22.861  24.161   1.751
79777W        W46186  43.940  38.516   2.247
79778W        W46187  22.708  16.365  14.121
79779W        W46188  20.012  32.300  11.148
79780W        W46189  31.698  43.422   0.299
79781W        W46190  37.566  43.919  14.345
79782W        W46191   8.420  17.543  11.154
79783W        W46192  21.103   4.823   2.242
79784W        W46193   1.723   0.582   4.137
79785W        W46194  19.334   8.250  14.536
79786W        W46195   1.521   4.467  12.090
79787W        W46196   3.853  36.607   4.116
79788W        W46197  30.102  31.115   3.621
79789W        W46198  17.779  18.560  11.133
79790W        W46199   4.247   8.814   0.889
79791W        W46200  10.169  26.824  11.941
79792W        W46201  33.778   9.834  12.808
79793W        W46202   7.126  39.842  12.482
79794W        W46203  39.275  36.881  13.603
79795W        W46204  14.025  30.992   0.936
79796W        W46205  37.472  31.410  13.445
79797W        W46206  41.759  38.545   4.145
79798W        W46207  41.320  40.435   0.653
79799W        W46208  15.344   6.458  12.552
79800W        W46209   5.178  20.840   0.887
79801W        W46210  16.678  11.568   0.874
79802W        W46211  36.149  35.778   3.085
79803W        W46212  15.363  39.453  11.675
79804W        W46213  27.108  28.935  11.986
79805W        W46214  19.136  12.141  14.963
79806W        W46215  18.573  43.190   2.178
79807W        W46216  22.020  10.868   0.424
79808W        W46217   1.598  19.432   1.686
79809W        W46218  14.994  11.132   0.243
79810W        W46219  23.777  30.687  12.441
79811W        W46220  35.005   8.368  13.918
79812W        W46221  37.620   2.341   1.255
79813W        W46222  10.869  37.441  10.711
79814W        W46223   1.172   6.819  13.633
79815W        W46224  31.838   3.906  13.277
79816W        W46225   0.506  35.929   3.596
79817W        W46226  38.072  36.792  10.569
79818W        W46227   9.084   0.492  11.124
79819W        W46228  25.266  27.765   0.415
79820W        W46229  44.349  31.636   0.534
79821W        W46230  40.588  31.603   2.661
79822W        W46231  18.524  41.866  13.925
79823W        W46232  38.427  30.047   0.330
79824W        W46233  26.391  14.663   0.258
79825W        W46234  14.720  29.200  14.404
79826W        W46235  26.698  32.069   5.155
79827W        W46236   9.311  44.441  10.481
79828W        W46237  10.865  21.695   3.289
79829W        W46238  40.523  39.167   2.395
79830W        W46239  33.672   9.470  14.775
79831W        W46240   5.927   8.738  14.365
79832W        W46241  19.645   5.847   1.326
79833W        W46242   8.675  19.735  14.939
79834W        W46243  27.388   7.075  10.676
79835W        W46244  44.964   7.198   2.126
79836W        W46245  43.864   2.510  14.952
79837W        W46246  22.819  34.641   2.887
79838W        W46247  21.652  43.285   0.995
79839W        W46248  17.248  32.928  10.711
79840W        W46249   7.565   6.852  11.752
79841W        W46250  15.649  32.839  11.455
79842W        W46251  28.977   0.485   4.314
79843W        W46252   0.534  21.581   2.902
79844W        W46253  15.208  25.062   3.086
79845W        W46254  18.011   5.792   3.195
79846W        W46255  29.171   4.036   3.351
79847W        W46256  14.834  24.507   2.430
79848W        W46257  39.695  15.786   2.286
79849W        W46258  22.907  36.626  12.048
79850W        W46259  24.598  26.151   4.604
79851W        W46260  43.973  39.641   4.682
79852W        W46261  41.766   0.777  14.768
79853W        W46262  35.290   1.119   5.063
79854W        W46263  28.936  43.796  13.885
79855W        W46264   6.274  34.594  11.988
79856W        W46265   0.461  20.981   2.422
79857W        W46266  17.641  19.595   2.907
79858W        W46267  22.806  29.108   9.844
79859W        W46268   1.939  39.731   3.745
79860W        W46269   0.704   6.888   3.639
79861W        W46270  39.264  27.759  11.040
79862W        W46271  43.696  24.668  14.763
79863W        W46272  25.502  41.347  13.369
79864W        W46273  41.030  40.021  14.575
79865W        W46274  12.877   8.327  11.803
79866W        W46275  19.946  40.641  11.174
79867W        W46276  15.236  34.437   9.815
79868W        W46277  31.707  14.953  11.197
79869W        W46278  21.507  16.024   0.654
79870W        W46279  39.397  17.061  12.612
79871W        W46280  31.147   8.482   1.495
79872W        W46281  36.240   9.425  13.445
79873W        W46282   8.328  23.102  13.826
79874W        W46283   2.275   7.653  13.295
79875W        W46284   6.761  23.525  12.449
79876W        W46285  40.374  40.800  11.554
79877W        W46286   5.779   4.812   3.853
79878W        W46287   3.135  31.104  13.881
79879W        W46288   3.255  42.859  10.675
79880W        W46289  35.074  16.981   4.983
79881W        W46290  20.856  40.533   4.210
79882W        W46291  27.577  34.323  13.866
79883W        W46292  19.269  39.498   3.711
79884W        W46293   7.939  23.360   4.914
79885W        W46294   2.718  27.083   4.057
79886W        W46295  29.130  21.106  12.957
79887W        W46296  23.783  43.975  14.815
79888W        W46297  39.412  30.205  12.446
79889W        W46298   8.784  32.923  13.437
79890W        W46299   2.759  32.368   0.447
79891W        W46300  12.370  19.144   2.457
79892W        W46301  35.081  19.389   4.810
79893W        W46302  14.806  40.586  14.728
79894W        W46303  43.280  27.051  12.913
79895W        W46304  43.753  21.142  13.985
79896W        W46305  30.121  41.479  12.795
79897W        W46306  21.493  34.888  11.238
79898W        W46307  31.988  27.010   4.803
79899W        W46308  11.788   3.202   4.301
79900W        W46309  35.572  20.897   1.830
79901W        W46310  32.081  44.043  12.525
79902W        W46311  43.250  25.639  12.569
79903W        W46312  28.170  10.862   4.952
79904W        W46313  24.412  34.599  13.777
79905W        W46314  34.528  12.600  13.334
79906W        W46315  30.474  10.191  13.003
79907W        W46316  10.124   1.248   2.820
79908W        W46317  42.179  16.517  12.683
79909W        W46318  30.152  17.081  12.630
79910W        W46319  40.799  43.362   0.350
79911W        W46320  17.856  42.478  14.375
79912W        W46321  23.236  40.580   2.850
79913W        W46322   2.219   7.767  14.349
79914W        W46323  26.633  30.440   1.232
79915W        W46324   4.170  44.501   3.715
79916W        W46325   2.676   2.695   0.240
79917W        W46326  35.319   4.644   4.166
79918W        W46327  15.091  12.953  12.814
79919W        W46328   9.315  32.335   1.480
79920W        W46329  15.293  34.488   4.622
79921W        W46330  30.468   5.356   0.354
79922W        W46331  27.777  10.545   0.252
79923W        W46332  20.075  24.699   1.392
79924W        W46333  39.375  43.262  14.977
79925W        W46334  25.196  18.662   1.820
79926W        W46335  24.295  41.786  13.441
79927W        W46336   4.991  19.584   3.330
79928W        W46337  21.689  18.588  11.480
79929W        W46338  22.105  24.280   3.219
79930W        W46339  18.083   5.808  14.833
79931W        W46340   4.293   7.244   2.361
79932W        W46341  15.833  24.980  11.660
79933W        W46342  41.967  25.915  12.346
79934W        W46343   0.420  29.645  10.706
79935W        W46344  37.470  18.769   3.257
79936W        W46345   7.891  33.879  13.427
79937W        W46346  30.185  41.708   1.349
79938W        W46347  16.876  13.099   4.467
79939W        W46348  29.355   9.081   0.443
79940W        W46349   6.452  14.511  12.037
79941W        W46350  35.843  20.591  11.276
79942W        W46351  40.531  36.669   2.183
79943W        W46352  23.640  35.399   0.422
79944W        W46353  27.993  36.133   2.763
79945W        W46354  12.344  43.572   0.891
79946W        W46355   9.123   8.741  14.995
79947W        W46356  25.650   8.404  13.470
79948W        W46357  13.931  36.930   2.791
79949W        W46358  40.531  25.703   0.754
79950W        W46359  19.039  28.043   4.129
79951W        W46360  41.851  33.921   4.803
79952W        W46361  23.778   2.314   1.857
79953W        W46362  33.590   0.243  11.168
79954W        W46363  43.290   7.271   4.818
79955W        W46364  31.912   0.005   0.315
79956W        W46365  13.036  22.826  13.914
79957W        W46366   4.897  37.624  12.564
79958W        W46367  13.397  41.886   2.722
79959W        W46368  21.139  44.152  14.304
79960W        W46369  27.001   6.422   0.718
79961W        W46370  40.626  44.323  12.630
79962W        W46371  23.170  10.189   3.762
79963W        W46372  12.706  24.190  14.961
79964W        W46373   3.680  19.269  14.445
79965W        W46374  22.194   5.616  11.041
79966W        W46375  26.251   2.703  14.072
79967W        W46376   7.001  43.373  13.087
79968W        W46377  39.982   8.706  14.940
79969W        W46378  29.598  32.504  13.520
79970W        W46379  10.416  40.225  12.211
79971W        W46380  16.693   4.129  11.898
79972W        W46381  24.625   9.702  14.100
79973W        W46382  29.865  10.840  14.712
79974W        W46383  25.535  34.841  14.863
79975W        W46384  10.312  39.997   4.252
79976W        W46385  29.152   4.572  12.174
79977W        W46386  12.187   5.839  11.014
79978W        W46387  19.863  23.557  12.634
79979W        W46388  25.236   4.341  13.991
79980W        W46389  43.968  27.111  12.408
79981W        W46390  21.924  32.804   2.202
79982W        W46391  20.069  44.918   4.187
79983W        W46392  41.965   1.400  11.593
79984W        W46393  24.478  41.804  14.729
79985W        W46394   6.261   5.380  11.542
79986W        W46395  38.886  12.872   2.700
79987W        W46396  23.128  33.104  11.565
79988W        W46397  34.456  27.252   4.521
79989W        W46398  30.578  30.208  11.621
79990W        W46399  24.447   2.402  13.713
79991W        W46400  12.304  23.846  11.060
79992W        W46401   8.875  26.148  11.681
79993W        W46402   1.751  13.690   2.131
79994W        W46403  12.327  30.409  13.745
79995W        W46404  43.810  18.062   2.612
79996W        W46405   8.531  41.466  11.660
79997W        W46406  17.041  40.338   1.337
79998W        W46407   4.692  42.516  12.365
79999W        W46408  32.841  19.633  10.760
80000W        W46409  33.984  43.739   0.244
80001W        W46410  21.540  19.218   1.837
80002W        W46411  31.008  42.850   9.784
80003W        W46412  13.292  44.326  13.852
80004W        W46413  42.353  20.180   3.602
80005W        W46414  41.174  16.853   1.518
80006W        W46415   1.426   1.212   3.342
80007W        W46416  28.477   2.291  13.735
80008W        W46417  42.384  33.543   3.707
80009W        W46418  40.070   8.274   2.267
80010W        W46419  30.107   3.703   0.817
80011W        W46420  37.668  16.536  13.791
80012W        W46421  43.336   0.333  11.401
80013W        W46422  11.611  21.502  12.213
80014W        W46423  31.888   5.708  13.452
80015W        W46424   6.680  16.561  12.625
80016W        W46425  17.493  25.290  12.059
80017W        W46426  26.817   3.773  13.315
80018W        W46427  15.548  23.994  11.508
80019W        W46428  17.863  29.892  13.297
80020W        W46429   3.823   5.253  13.034
80021W        W46430   3.769  25.950   1.960
80022W        W46431  21.429  19.288   2.766
80023W        W46432  11.196  30.518  10.256
80024W        W46433   3.544  36.631   1.724
80025W        W46434  10.936  22.310   4.273
80026W        W46435  22.086  12.735   4.248
80027W        W46436  37.403   5.477  11.112
80028W        W46437   0.871  19.295   1.261
80029W        W46438  28.671  17.858   3.658
80030W        W46439  21.851  13.712   0.178
80031W        W46440  23.536  22.199   2.535
80032W        W46441  44.822  23.753   4.707
80033W        W46442  30.564  21.095   4.335
80034W        W46443  28.710   7.750  14.546
80035W        W46444   6.403  24.746  14.347
80036W        W46445  36.988   0.105  14.504
80037W        W46446   1.249   9.560  14.310
80038W        W46447   2.743  11.886  11.107
80039W        W46448  24.192  24.690  10.932
80040W        W46449  11.590  37.850   4.011
80041W        W46450  38.550   5.118   0.601
80042W        W46451  25.434  26.046   1.140
80043W        W46452   1.356  29.059  11.161
80044W        W46453   7.159  17.149  13.027
80045W        W46454   2.166  23.222  11.906
80046W        W46455  13.328   1.816  10.263
80047W        W46456  13.807  19.005  14.796
80048W        W46457  15.043  27.443   2.171
80049W        W46458  40.226  43.916  14.168
80050W        W46459   1.027  27.927   0.248
80051W        W46460  29.683   2.461   1.424
80052W        W46461   7.810  33.322  13.392
80053W        W46462  43.119  15.786  12.595
80054W        W46463  30.625  41.551  14.975
80055W        W46464  33.495   3.254  14.846
80056W        W46465   6.681  30.177  11.649
80057W        W46466  13.116  24.499  10.603
80058W        W46467  16.083  17.216   0.390
80059W        W46468  19.773  35.211   1.972
80060W        W46469  40.810  12.278   0.355
80061W        W46470  33.607  31.652   9.894
80062W        W46471  34.139   5.674   1.295
80063W        W46472   2.429   3.945   0.936
80064W        W46473   2.195   6.389   1.276
80065W        W46474  32.082   9.802   3.219
80066W        W46475  23.946  21.691   1.942
80067W        W46476   8.971   5.989  11.565
80068W        W46477  43.316  27.921   3.382
80069W        W46478  26.383   9.483   1.317
80070W        W46479  27.452  40.003   3.571
80071W        W46480  35.813   5.435  13.536
80072W        W46481  18.166   3.501   3.730
80073W        W46482  15.175  40.571  12.449
80074W        W46483  25.650  44.434  10.745
80075W        W46484  41.840  16.013  11.142
80076W        W46485  29.892  12.383  13.482
80077W        W46486   1.721   9.746  10.685
80078W        W46487   6.222  20.337   4.554
80079W        W46488  18.308  24.498  14.844
80080W        W46489  26.828  25.570  13.584
80081W        W46490  23.053  29.368   0.900
80082W        W46491  16.256   3.756   4.012
80083W        W46492  16.632  25.976   4.558
80084W        W46493  34.956   3.561  13.381
80085W        W46494  26.006  36.939  10.709
80086W        W46495   0.322  37.609  13.901
80087W        W46496  22.562  25.038   2.333
80088W        W46497  10.649  44.341   1.776
80089W        W46498   3.001  19.227  10.631
80090W        W46499  37.816  32.853   1.176
80091W        W46500  31.541  20.730   2.240
80092W        W46501   4.461  38.054  14.545
80093W        W46502  27.123  17.902   1.046
80094W        W46503  10.223  13.123   5.109
80095W        W46504   8.655  43.444  12.748
80096W        W46505  33.606  39.360   4.088
80097W        W46506  13.237  16.527  11.235
80098W        W46507  14.824  16.012   1.889
80099W        W46508  42.875  17.137  14.853
80100W        W46509  40.827   3.219  12.906
80101W        W46510  10.890   5.488   0.027
80102W        W46511  27.945   7.322  12.647
80103W        W46512   1.758  17.119  11.467
80104W        W46513  35.110  22.960   0.310
80105W        W46514  26.521  38.119   3.185
80106W        W46515  11.592  25.679   2.131
80107W        W46516  28.020  43.940  13.395
80108W        W46517  26.433  12.652   1.837
80109W        W46518  32.246  29.476  10.778
80110W        W46519  44.565  11.383   3.204
80111W        W46520  18.287  35.649   0.865
80112W        W46521  27.209  31.149  13.093
80113W        W46522   9.157   4.855   0.181
80114W        W46523  33.877  11.678  11.111
80115W        W46524  28.251  27.929   0.396
80116W        W46525  26.937  42.999   4.573
80117W        W46526  12.409  34.311   1.352
80118W        W46527  33.869   8.199  14.377
80119W        W46528  33.561  28.389   0.896
80120W        W46529  10.861   0.946   0.844
80121W        W46530  43.066  17.037   9.959
80122W        W46531  36.255  42.864   4.549
80123W        W46532  29.112  41.380  12.413
80124W        W46533  22.960  18.116  11.050
80125W        W46534   1.414  32.387  13.949
80126W        W46535  39.114  14.785  10.599
80127W        W46536  42.001  25.167   4.614
80128W        W46537  25.957  40.920  14.337
80129W        W46538  35.341  39.340  14.012
80130W        W46539  25.727  10.215  11.125
80131W        W46540   0.984  22.560   5.038
80132W        W46541   5.090  17.079  12.952
80133W        W46542  39.757  16.142   0.326
80134W        W46543   9.881  36.615  10.565
80135W        W46544   5.699  16.891  12.004
80136W        W46545  37.269   3.340  10.586
80137W        W46546  33.544  23.620   3.791
80138W        W46547  10.299  41.394   2.367
80139W        W46548  24.574  26.470  13.315
80140W        W46549  14.809   7.774  13.998
80141W        W46550  21.144  22.118  14.415
80142W        W46551  42.757  15.443  13.618
80143W        W46552  17.761  42.681   3.677
80144W        W46553   5.890  11.798  12.596
80145W        W46554  27.206  15.289  13.270
80146W        W46555  28.744   0.073   4.084
80147W        W46556  16.207  33.508   4.048
80148W        W46557  37.128   7.280   2.715
80149W        W46558   8.454   3.540  12.069
80150W        W46559  29.636  43.068   2.231
80151W        W46560   5.648   6.481   2.592
80152W        W46561  16.255   7.760  14.010
80153W        W46562  41.401  15.710  14.821
80154W        W46563  41.042  17.182  10.164
80155W        W46564   2.749  11.297  14.016
80156W        W46565  17.281   4.970  13.941
80157W        W46566  27.629  38.158   2.347
80158W        W46567  10.706  41.155   1.333
80159W        W46568  44.490  25.703   0.919
80160W        W46569  14.099  39.162  10.296
80161W        W46570  20.780   6.943   3.305
80162W        W46571   0.078   3.292   2.338
80163W        W46572  36.393   1.750   1.122
80164W        W46573   9.477   8.387  10.974
80165W        W46574  40.104   8.254   0.205
80166W        W46575  34.854  39.542  11.560
80167W        W46576  38.265   8.382  12.982
80168W        W46577  25.600  31.605   3.376
80169W        W46578  44.570   0.208  12.123
80170W        W46579  36.068  22.057   2.286
80171W        W46580  18.580  33.485   3.329
80172W        W46581  23.772  30.424   4.774
80173W        W46582  33.036  13.766  14.851
80174W        W46583   5.849  39.291  10.904
80175W        W46584   2.944  20.497  13.538
80176W        W46585  39.617   3.791   4.899
80177W        W46586   9.152  19.046  10.467
80178W        W46587  39.347  10.586   1.284
80179W        W46588  18.576  17.312   5.232
80180W        W46589  22.629  32.872  12.942
80181W        W46590   4.423   9.327  10.833
80182W        W46591  37.880  10.726   4.194
80183W        W46592   3.875  24.475  14.045
80184W        W46593  31.615  35.934  10.535
80185W        W46594  29.197  38.631   1.804
80186W        W46595  19.286   8.395  11.459
80187W        W46596  23.410   5.640   0.941
80188W        W46597  41.547   9.923  13.509
80189W        W46598  32.493  34.215  10.519
80190W        W46599  15.588  42.381  11.401
80191W        W46600  43.453   5.170  13.032
80192W        W46601  44.978   5.657   4.359
80193W        W46602  35.015   3.347  14.913
80194W        W46603  39.403  11.230   2.999
80195W        W46604  18.064   7.144   0.504
80196W        W46605  15.286  36.404   4.097
80197W        W46606  43.578  32.292   3.631
80198W        W46607  16.560  24.363  14.737
80199W        W46608   0.702  12.239   2.816
80200W        W46609  14.279  35.839   5.248
80201W        W46610   0.357  33.186  10.722
80202W        W46611   2.678  38.051   4.986
80203W        W46612  28.839  12.105  12.076
80204W        W46613  16.546   6.481   1.636
80205W        W46614  19.134  23.386  14.408
80206W        W46615  33.194  16.006  11.994
80207W        W46616   6.903  38.470   0.461
80208W        W46617  29.770  38.020  11.961
80209W        W46618  14.166   3.693  14.487
80210W        W46619  43.417  18.202   3.251
80211W        W46620  40.556  16.034  11.597
80212W        W46621   9.857  35.952  11.166
80213W        W46622  17.897  32.928  12.411
80214W        W46623  19.101  42.657   3.743
80215W        W46624  27.122   5.582   4.746
80216W        W46625  12.804  15.361  13.837
80217W        W46626  16.550  34.656   3.229
80218W        W46627  13.308  25.644  14.826
80219W        W46628  40.494  25.466   3.655
80220W        W46629  10.215  43.676   1.746
80221W        W46630  28.473  23.113  11.726
80222W        W46631  25.307   5.132   2.470
80223W        W46632   2.143   9.155   3.142
80224W        W46633  32.445   6.555  12.335
80225W        W46634  43.738  35.241   1.882
80226W        W46635  31.752  18.063  11.143
80227W        W46636  31.219  21.555   4.102
80228W        W46637  10.838   9.480   1.485
80229W        W46638  18.697  23.457   1.266
80230W        W46639  41.058   5.616   2.184
80231W        W46640  27.635  20.334  11.029
80232W        W46641  26.085   6.265   2.425
80233W        W46642  11.657  21.757  14.844
80234W        W46643   6.536  37.902  12.456
80235W        W46644  12.839  42.452   2.281
80236W        W46645  42.288   4.862   4.217
80237W        W46646  28.118  18.660  14.190
80238W        W46647  43.452  23.143  10.950
80239W        W46648  35.020  12.224  13.761
80240W        W46649  23.807   6.664   5.031
80241W        W46650  42.987  25.585  11.618
80242W        W46651   0.972   4.530  12.373
80243W        W46652  16.280  33.036   2.542
80244W        W46653  20.766  29.288  10.549
80245W        W46654   8.969  26.945   3.686
80246W        W46655  11.162  10.142  12.933
80247W        W46656  28.572  34.013  13.132
80248W        W46657   8.876  12.727   3.743
80249W        W46658  18.863  23.106   0.913
80250W        W46659   3.076   3.318  10.946
80251W        W46660  20.543  11.061   0.227
80252W        W46661   8.234  15.084  11.107
80253W        W46662  14.961   3.902   0.531
80254W        W46663  22.180  35.904  11.974
80255W        W46664  35.704   4.438   0.415
80256W        W46665   1.084   9.283  11.542
80257W        W46666  25.449  28.172  11.567
80258W        W46667   9.761  24.138  14.084
80259W        W46668  37.901  35.627  12.009
80260W        W46669  27.912   0.300  12.459
80261W        W46670  25.060  40.228   3.189
80262W        W46671  26.161  40.591   1.354
80263W        W46672  31.009  16.713  11.588
80264W        W46673  27.483  36.573   0.295
80265W        W46674  40.476   3.050   2.162
80266W        W46675  42.516   2.481   4.219
80267W        W46676  20.371  25.687   2.862
80268W        W46677  35.228  32.588  13.969
80269W        W46678  13.644   6.849   4.018
80270W        W46679  12.753   0.423  14.851
80271W        W46680  42.132  24.745  14.808
80272W        W46681  21.822   6.901  12.284
80273W        W46682  30.199  22.985  10.709
80274W        W46683  32.634  41.309  12.950
80275W        W46684  44.093  27.510   3.066
80276W        W46685  42.778  33.370  13.180
80277W        W46686  36.171  43.358  10.725
80278W        W46687  44.725  17.469  14.985
80279W        W46688   3.701  18.704   0.770
80280W        W46689  21.704   9.064  13.363
80281W        W46690  21.582  42.628  13.096
80282W        W46691   0.750  38.526   3.758
80283W        W46692  21.709  10.236  10.144
80284W        W46693  30.094  14.169  11.116
80285W        W46694   2.294   0.101   4.776
80286W        W46695  17.061   7.795  14.487
80287W        W46696  21.050  36.013  12.901
80288W        W46697  26.248  15.648   2.527
80289W        W46698  19.760   3.778   3.486
80290W        W46699  32.436  44.283   1.787
80291W        W46700  11.743  27.464  11.129
80292W        W46701  28.496  43.114   1.719
80293W        W46702   3.816  16.064  14.946
80294W        W46703   6.824  34.937   3.598
80295W        W46704   2.033  15.111   4.208
80296W        W46705  31.682   6.922  14.494
80297W        W46706  31.189  11.887  13.292
80298W        W46707  13.079  41.453  12.892
80299W        W46708  34.265  21.493  12.210
80300W        W46709  21.076  29.473   3.646
80301W        W46710  24.303  22.261   1.305
80302W        W46711   7.876   9.094   1.036
80303W        W46712  36.925  15.676   1.251
80304W        W46713  38.329   7.494   1.020
80305W        W46714  20.088   2.459  11.653
80306W        W46715  39.772  22.903   1.808
80307W        W46716   8.844  12.279   2.813
80308W        W46717  19.108  35.871  12.473
80309W        W46718   8.607  42.531   2.806
80310W        W46719  16.734  28.549   4.230
80311W        W46720  13.647  35.619   3.136
80312W        W46721   7.263  18.294   3.637
80313W        W46722   3.940  33.594   0.635
80314W        W46723  11.073  23.549  12.985
80315W        W46724  22.270  42.939   4.655
80316W        W46725   9.309  16.593  14.700
80317W        W46726  36.315  32.423  14.816
80318W        W46727  22.731  43.845  14.897
80319W        W46728   4.960  28.505  12.851
80320W        W46729  23.275  12.348  11.475
80321W        W46730  32.388  19.921  12.599
80322W        W46731  38.153  29.710  12.613
80323W        W46732  41.263  23.184  11.677
80324W        W46733  26.430  39.486  13.948
80325W        W46734  18.302  40.274  11.863
80326W        W46735  15.113  14.557  12.699
80327W        W46736   1.240  11.291  12.811
80328W        W46737   6.878  16.592   3.710
80329W        W46738  22.736  25.020  11.931
80330W        W46739  28.428  32.887   3.304
80331W        W46740   6.134   5.823  13.081
80332W        W46741  28.551  40.749   1.332
80333W        W46742   6.128  37.811  14.901
80334W        W46743   4.931  40.251  13.109
80335W        W46744  25.039  21.041  10.301
80336W        W46745  36.463  27.374   3.712
80337W        W46746   5.225  14.749  10.914
80338W        W46747  15.219  28.453  12.981
80339W        W46748  29.210  14.337  10.268
80340W        W46749  29.968   7.325  14.505
80341W        W46750   1.194  37.889   2.210
80342W        W46751  44.395  22.222   1.222
80343W        W46752  13.610  14.057  12.151
80344W        W46753  41.637   3.456  12.446
80345W        W46754  22.946   0.003  11.520
80346W        W46755   6.239  42.947   0.423
80347W        W46756  30.916  37.949   2.448
80348W        W46757  44.054  14.612   1.282
80349W        W46758  21.302   8.182  14.068
80350W        W46759  25.021  41.965   1.987
80351W        W46760  33.946  28.967   2.698
80352W        W46761  35.578  33.175  12.474
80353W        W46762   8.678  10.764   0.938
80354W        W46763  29.975  17.617  10.852
80355W        W46764   8.612  34.777  12.049
80356W        W46765   7.564  20.631  11.943
80357W        W46766  33.843   4.198  14.930
80358W        W46767  10.886   5.970  11.377
80359W        W46768  20.804  15.743   3.497
80360W        W46769   0.888  37.611   1.391
80361W        W46770  13.361  32.025   0.230
80362W        W46771  37.796  13.529   1.273
80363W        W46772  34.278   4.830  11.617
80364W        W46773  23.994   6.884   0.809
80365W        W46774  22.641   8.935   2.282
80366W        W46775  20.277   9.134  10.368
80367W        W46776  14.932  24.717  11.810
80368W        W46777  35.957  11.959   1.812
80369W        W46778  17.204   5.962  10.588
80370W        W46779  35.407   6.387   3.415
80371W        W46780  41.166  14.809  11.512
80372W        W46781  30.667  24.982   3.328
80373W        W46782  10.356   9.903  12.535
80374W        W46783   0.984  22.339  11.147
80375W        W46784  14.759  33.597  11.221
80376W        W46785  14.503  26.144  13.461
80377W        W46786   6.746  31.512  12.679
80378W        W46787  39.889  36.729   3.048
80379W        W46788   3.708  12.328  14.861
80380W        W46789  44.881  21.028   0.850
80381W        W46790  38.354  44.310   3.142
80382W        W46791  17.863  17.062   3.572
80383W        W46792  16.478  14.225   0.446
80384W        W46793  32.156  12.158  14.762
80385W        W46794   3.231   8.584  11.266
80386W        W46795  44.539  15.489   0.261
80387W        W46796  36.083  19.451  12.533
80388W        W46797   5.177  22.004   1.920
80389W        W46798   8.646   8.730   4.518
80390W        W46799  27.148  43.139   2.763
80391W        W46800  29.374  13.531  12.831
80392W        W46801  37.991  10.622   0.973
80393W        W46802  15.568  29.895   0.695
80394W        W46803   3.750  10.447   1.895
80395W        W46804  11.959  21.112  13.834
80396W        W46805   1.780   6.952   0.394
80397W        W46806  22.514  24.951  13.285
80398W        W46807   5.864  12.143  11.912
80399W        W46808  25.681   9.119   1.166
80400W        W46809  12.302  44.613   4.208
80401W        W46810  34.629  20.177  10.712
80402W        W46811  19.062  22.537  13.040
80403W        W46812  35.832  28.146   4.360
80404W        W46813  25.115  37.979  12.843
80405W        W46814  38.301   4.070  14.597
80406W        W46815   5.449   5.362   3.231
80407W        W46816  43.122  12.455   4.692
80408W        W46817  19.292  16.701  14.871
80409W        W46818  25.791  27.557  11.204
80410W        W46819   6.750  33.137   0.202
80411W        W46820  18.954  24.529   2.432
80412W        W46821  42.971  35.760   0.674
80413W        W46822  30.578   5.322  14.839
80414W        W46823  23.286   0.135  12.229
80415W        W46824  20.598  29.416   2.855
80416W        W46825  20.995  42.548   3.070
80417W        W46826   0.837   2.695   1.600
80418W        W46827   7.870  26.357  12.366
80419W        W46828  44.606   4.347   3.865
80420W        W46829  30.180  28.820  10.675
80421W        W46830  29.075   1.071  10.332
80422W        W46831  29.378  21.060  13.418
80423W        W46832   8.528  25.810  11.463
80424W        W46833  20.412  41.989   0.352
80425W        W46834  44.791  26.405  12.870
80426W        W46835  34.797  21.503   2.208
80427W        W46836  43.327  37.481  13.902
80428W        W46837  16.061  10.530   4.147
80429W        W46838  26.073  41.539  12.277
80430W        W46839  38.302   2.931   0.688
80431W        W46840  21.725  33.542   3.158
80432W        W46841  36.155  33.485   3.630
80433W        W46842  21.111  13.274  13.333
80434W        W46843  13.052  22.657  10.745
80435W        W46844  35.939   3.441  11.090
80436W        W46845  15.044  39.313  13.030
80437W        W46846   3.212  10.676   2.600
80438W        W46847   2.955  38.429   3.665
80439W        W46848  24.055  26.184  11.478
80440W        W46849  18.212  10.376  13.486
80441W        W46850  30.969  42.603  12.872
80442W        W46851  23.857  21.099  12.619
80443W        W46852  17.755  15.786   0.915
80444W        W46853  29.058  19.308   3.949
80445W        W46854   5.922  32.442   2.938
80446W        W46855  11.584  26.612  13.512
80447W        W46856  31.558  24.938  10.663
80448W        W46857  28.578  20.716   1.758
80449W        W46858  30.613  24.756  14.666
80450W        W46859  24.192  27.300   1.938
80451W        W46860  29.677   2.384  12.789
80452W        W46861  38.367   7.385  11.585
80453W        W46862  42.698  26.719   1.839
80454W        W46863   1.791  43.903   1.264
80455W        W46864   6.561  41.896  11.003
80456W        W46865  37.020  18.797   0.231
80457W        W46866  17.225  12.192   0.334
80458W        W46867  43.495  25.697   0.403
80459W        W46868  25.219  29.654   3.810
80460W        W46869  28.183  41.857   4.763
80461W        W46870  15.539  14.219  12.913
80462W        W46871   4.659  24.869   5.242
80463W        W46872  42.258  39.398  14.568
80464W        W46873  19.769   9.312   2.220
80465W        W46874  10.806   8.277  14.705
80466W        W46875  12.860  12.669  14.755
80467W        W46876  28.561   0.829   3.332
80468W        W46877  25.272  14.588  13.375
80469W        W46878  24.968   7.886   0.348
80470W        W46879  24.425  44.505  12.431
80471W        W46880   0.529  21.540  10.713
80472W        W46881  44.920  22.164   1.351
80473W        W46882  43.063  39.754   2.811
80474W        W46883  34.659   2.137   4.644
80475W        W46884  21.452  29.686   3.978
80476W        W46885   1.135  12.127  10.573
80477W        W46886   2.853  34.915   2.645
80478W        W46887  29.586  36.568  12.545
80479W        W46888  30.583   6.636  11.177
80480W        W46889   1.366  24.117  11.351
80481W        W46890  44.206  39.300  13.595
80482W        W46891   8.157  25.866  13.540
80483W        W46892  44.280  11.700   4.664
80484W        W46893  11.649   8.824   0.815
80485W        W46894  20.202  20.328   0.230
80486W        W46895  12.191  44.111   4.338
80487W        W46896  13.422  34.913   3.865
80488W        W46897  22.727  39.503   0.004
80489W        W46898  41.637  27.583  12.641
80490W        W46899  27.644  29.417   3.691
80491W        W46900   9.440  10.911  12.597
80492W        W46901  44.859   2.864  12.082
80493W        W46902  15.687   2.346   2.433
80494W        W46903  34.431  13.197  13.104
80495W        W46904  21.969   6.446   1.465
80496W        W46905  16.688   7.647   3.783
80497W        W46906  36.062  18.833  10.621
80498W        W46907  43.203  16.759  14.411
80499W        W46908   3.871  34.397   1.664
80500W        W46909  41.837  19.664   4.291
80501W        W46910  44.397   6.279   2.820
80502W        W46911  10.209  24.434   2.872
80503W        W46912   5.809  29.691  12.489
80504W        W46913  38.532  20.437  12.563
80505W        W46914  26.029  15.845  10.559
80506W        W46915   9.908  33.984   3.565
80507W        W46916   1.925  39.933  12.487
80508W        W46917  32.404  22.635  14.804
80509W        W46918  34.917   3.307   3.681
80510W        W46919  15.733  17.769   1.270
80511W        W46920  40.499  37.125  14.430
80512W        W46921  19.781  27.097  13.449
80513W        W46922   5.013   6.083   3.769
80514W        W46923  21.847  33.345   2.713
80515W        W46924   7.636   3.246  14.546
80516W        W46925  38.434  39.375   1.800
80517W        W46926   5.751  24.020  12.867
80518W        W46927  37.961  33.263  11.229
80519W        W46928  36.959  11.232  14.382
80520W        W46929  35.452   1.058   4.594
80521W        W46930  24.035  30.090  11.679
80522W        W46931  25.516  22.933  11.627
80523W        W46932   2.432  44.911   2.378
80524W        W46933   6.691  41.722   4.707
80525W        W46934  25.498  12.889   4.082
80526W        W46935  12.107   1.198  13.530
80527W        W46936  22.854   7.491   0.725
80528W        W46937  20.183  18.685  12.303
80529W        W46938  31.822  39.803   0.785
80530W        W46939  18.423   7.068  11.674
80531W        W46940  37.811   3.230   2.117
80532W        W46941  26.767  11.830  12.414
80533W        W46942  27.511  13.098  12.556
80534W        W46943  44.994  32.098   0.736
80535W        W46944   0.649   0.763   3.056
80536W        W46945  29.141  21.557   4.134
80537W        W46946  33.495  14.673   3.385
80538W        W46947   7.167  16.591  11.553
80539W        W46948  36.655  37.942   3.480
80540W        W46949  28.877   3.290   2.339
80541W        W46950   0.084  11.894  11.163
80542W        W46951  14.017  10.175   2.833
80543W        W46952   6.895  44.381   1.197
80544W        W46953   0.887  44.667  13.874
80545W        W46954   3.289  12.619  14.760
80546W        W46955  13.803  10.892   0.766
80547W        W46956  12.857  14.400   3.610
80548W        W46957  40.327  25.153  10.276
80549W        W46958  13.323   9.870   0.218
80550W        W46959  39.979  25.070  13.817
80551W        W46960   1.884  40.953  12.856
80552W        W46961  33.100   2.809  12.590
80553W        W46962   4.357  16.558   2.849
80554W        W46963  11.059  36.079   4.157
80555W        W46964  11.704   7.713  10.845
80556W        W46965  35.771  32.966  10.739
80557W        W46966  18.488  26.749   3.667
80558W        W46967   7.924   7.814  13.829
80559W        W46968  31.106  42.816   3.349
80560W        W46969   0.411  27.422  12.224
80561W        W46970  12.621   7.714   4.573
80562W        W46971   2.935  37.439   1.367
80563W        W46972  30.514  36.411  11.721
80564W        W46973   4.631   8.621   2.680
80565W        W46974  28.711  10.686  12.482
80566W        W46975  23.079  35.883  13.340
80567W        W46976  14.689  28.368  13.000
80568W        W46977  21.633  39.600  14.258
80569W        W46978  23.678  27.936   0.480
80570W        W46979  32.524  33.073   0.804
80571W        W46980  10.797  31.800   1.101
80572W        W46981  33.207  24.808   4.212
80573W        W46982   8.819  26.510   0.744
80574W        W46983   2.069   5.833   2.703
80575W        W46984   7.843  42.773  10.693
80576W        W46985  11.814  29.414  13.731
80577W        W46986  44.642   4.255  13.998
80578W        W46987   6.284   0.552   4.958
80579W        W46988  19.929  27.632  13.988
80580W        W46989  34.559  16.661   1.756
80581W        W46990  27.201  32.177   1.379
80582W        W46991  15.705  16.080   1.393
80583W        W46992  21.783  21.163  13.608
80584W        W46993  12.105  35.937  11.573
80585W        W46994  33.055  21.559   0.244
80586W        W46995  32.145  13.528  11.280
80587W        W46996  10.080  35.994   1.328
80588W        W46997   7.284  43.576   2.237
80589W        W46998  38.238  30.464  13.992
80590W        W46999  10.277  25.327   2.986
80591W        W47000   1.488  22.761  14.918
80592W        W47001  30.628  11.515   3.735
80593W        W47002  44.858   3.479  10.728
80594W        W47003   5.668  33.538  13.920
80595W        W47004  38.078  28.157  12.870
80596W        W47005  16.704  12.685   1.669
80597W        W47006   3.360   3.203   1.799
80598W        W47007  37.126  14.165  12.063
80599W        W47008  30.628  36.328  13.037
80600W        W47009  23.597  24.246  14.631
80601W        W47010   4.335  27.551  12.417
80602W        W47011  18.256  30.899   4.061
80603W        W47012  43.762  14.686  13.045
80604W        W47013  20.127  40.032   2.692
80605W        W47014  11.295  25.209   1.355
80606W        W47015  28.493  40.880   4.483
80607W        W47016   5.719   8.638   1.945
80608W        W47017  19.954  11.387   4.647
80609W        W47018  36.765  10.287   4.581
80610W        W47019  27.087  43.181   5.139
80611W        W47020  31.139  13.806   3.627
80612W        W47021  41.147  11.296  11.107
80613W        W47022  13.583  28.582  10.718
80614W        W47023  11.029   5.715  12.977
80615W        W47024  16.045   1.514   0.782
80616W        W47025  29.086  36.592   4.703
80617W        W47026  29.518  24.445  11.440
80618W        W47027  12.051  17.762  10.742
80619W        W47028   8.852  43.309  11.013
80620W        W47029  20.985   0.954  12.249
80621W        W47030  23.669  14.126   4.158
80622W        W47031  42.929  29.486   2.672
80623W        W47032  36.077   5.901   0.695
80624W        W47033  34.047  12.274   4.211
80625W        W47034   7.440  37.315   2.814
80626W        W47035  23.982   5.709  13.644
80627W        W47036  39.500  38.346  11.960
80628W        W47037  21.874  41.446   4.255
80629W        W47038  44.507  40.718  11.904
80630W        W47039  23.855  14.692   2.101
80631W        W47040  29.519  34.085  12.384
80632W        W47041   6.855  10.203   0.955
80633W        W47042  33.515  12.356  11.602
80634W        W47043  32.764   1.525   5.347
80635W        W47044  41.923  20.120   4.541
80636W        W47045  14.084  38.749   1.203
80637W        W47046  36.611  29.348  13.641
80638W        W47047  43.464  16.520   4.285
80639W        W47048   0.449   2.246  10.682
80640W        W47049  34.080   5.248   1.579
80641W        W47050  39.771  26.744  10.386
80642W        W47051  17.243  28.713   4.434
80643W        W47052  10.686  37.987   4.788
80644W        W47053  23.593   1.945  10.564
80645W        W47054  13.200  36.118   0.355
80646W        W47055   4.417  13.244  14.460
80647W        W47056  23.945  35.843  11.234
80648W        W47057  22.105   6.414   0.558
80649W        W47058  37.141   1.935  11.409
80650W        W47059  11.095  21.929   1.474
80651W        W47060  42.661  44.038   0.966
80652W        W47061  21.592  40.879  11.870
80653W        W47062   7.019  35.459   4.722
80654W        W47063   0.078  30.536   0.475
80655W        W47064  19.886  26.117  14.888
80656W        W47065  11.427   5.341   4.170
80657W        W47066  13.236   1.268  11.621
80658W        W47067  39.107  23.301  14.982
80659W        W47068  21.329  11.586   3.728
80660W        W47069  27.812  30.702  14.826
80661W        W47070  27.814   9.976   5.733
80662W        W47071  37.969  40.750  13.492
80663W        W47072  38.327  16.162   0.739
80664W        W47073  34.550   1.635   4.597
80665W        W47074   0.891  29.519  14.779
80666W        W47075   1.981  44.808  11.712
80667W        W47076  29.455   2.022   4.586
80668W        W47077  37.051   5.809  10.875
80669W        W47078  40.780  40.992  14.209
80670W        W47079  10.015  23.122   0.470
80671W        W47080  43.030  14.180  12.360
80672W        W47081  43.580  17.522  13.060
80673W        W47082  19.846   8.260  14.502
80674W        W47083  41.083   2.694   3.223
80675W        W47084  14.687  44.858  13.955
80676W        W47085  27.821  27.145  10.710
80677W        W47086   0.140  41.935  12.013
80678W        W47087  18.901  27.109  12.439
80679W        W47088  16.067  29.525  14.106
80680W        W47089   9.222   2.972  10.768
80681W        W47090  12.577  16.758   1.460
80682W        W47091  24.291  29.359  13.251
80683W        W47092  26.294  15.120   4.181
80684W        W47093  44.940  34.648   0.902
80685W        W47094  42.044  35.548   3.204
80686W        W47095   5.403  31.890  13.763
80687W        W47096  30.433  30.186  10.717
80688W        W47097  30.498  14.451   4.591
80689W        W47098  24.442  41.950   2.669
80690W        W47099  10.763  16.322  13.071
80691W        W47100  33.868   8.046   3.305
80692W        W47101  21.830  13.120  13.911
80693W        W47102  28.238  39.917  11.208
80694W        W47103   1.503  23.038   2.793
80695W        W47104  19.796  20.026   4.937
80696W        W47105  24.761  30.726   4.707
80697W        W47106   2.403  25.063  11.569
80698W        W47107  10.805  40.572  12.342
80699W        W47108  23.105  35.320   3.931
80700W        W47109  19.999  30.792   1.803
80701W        W47110  19.096   4.513   2.619
80702W        W47111  36.418  15.808   1.198
80703W        W47112  17.215  17.833  11.223
80704W        W47113   7.434  33.222  11.832
80705W        W47114  32.554  24.928  13.029
80706W        W47115  34.643  35.424   2.444
80707W        W47116  27.219   6.601  10.738
80708W        W47117  31.692  42.862  12.238
80709W        W47118  16.661  25.350   0.738
80710W        W47119  15.137  10.197  12.288
80711W        W47120  11.132  16.472  11.743
80712W        W47121  14.189  30.848   0.005
80713W        W47122  10.171  44.178   1.901
80714W        W47123   7.600  26.065   1.797
80715W        W47124  32.378  20.041   1.003
80716W        W47125  22.117  12.715  13.103
80717W        W47126  44.667  24.846  11.817
80718W        W47127  22.050  10.358  11.304
80719W        W47128  41.974  38.980   2.205
80720W        W47129  15.263  18.354   5.298
80721W        W47130  21.032  27.579  12.523
80722W        W47131  39.095   8.635  11.126
80723W        W47132  34.596  33.997   3.280
80724W        W47133   3.385  16.548  14.123
80725W        W47134  34.915  28.812  12.617
80726W        W47135   6.448  21.684   0.320
80727W        W47136   3.868  31.362   2.862
80728W        W47137   9.518   6.658  13.523
80729W        W47138  23.770   4.268   3.375
80730W        W47139  15.749  12.060  14.891
80731W        W47140  18.702  10.056   2.115
80732W        W47141   0.883   8.921  12.454
80733W        W47142  42.165  21.110   1.209
80734W        W47143  34.447   1.719  13.444
80735W        W47144  14.679   0.131  10.226
80736W        W47145   4.770  10.996  12.143
80737W        W47146  28.530   1.945  14.418
80738W        W47147  41.493   0.494   4.901
80739W        W47148  38.456  40.866   1.606
80740W        W47149   0.960  12.101   0.702
80741W        W47150  31.103  35.749  14.131
80742W        W47151  35.111  41.550  14.912
80743W        W47152  41.535  31.710   4.199
80744W        W47153  20.052  35.205  11.658
80745W        W47154  24.762   6.740   4.323
80746W        W47155  13.301  22.931   3.012
80747W        W47156  35.419  15.885   1.359
80748W        W47157   1.266  35.300  11.069
80749W        W47158  10.382  10.772   4.164
80750W        W47159  27.251   1.406  14.381
80751W        W47160  27.640  37.377  14.447
80752W        W47161  25.431  30.181  10.684
80753W        W47162  43.259  13.731  13.970
80754W        W47163   7.643  28.074  12.658
80755W        W47164  40.795  16.084   1.870
80756W        W47165  25.742  40.223  12.846
80757W        W47166   7.942  12.736  12.768
80758W        W47167   4.866   7.169  11.486
80759W        W47168  37.880  27.011  10.473
80760W        W47169  26.199  13.167   3.589
80761W        W47170   2.409  29.068  13.633
80762W        W47171  11.938   0.111  12.078
80763W        W47172  30.154  10.109  14.368
80764W        W47173  23.912   0.881   4.138
80765W        W47174  18.173  23.248   4.922
80766W        W47175  31.838  35.330  13.773
80767W        W47176  12.830  13.930  11.236
80768W        W47177  35.302  11.027   2.970
80769W        W47178  15.242  38.926   2.725
80770W        W47179  29.385  25.102   5.073
80771W        W47180   0.609  12.254   1.643
80772W        W47181   2.765  11.258   4.209
80773W        W47182  33.439  26.600  10.505
80774W        W47183  34.605  38.591   1.945
80775W        W47184  26.336  11.776  14.235
80776W        W47185   7.568  30.130   4.902
80777W        W47186  25.700  12.351   3.543
80778W        W47187  40.500  44.551   1.225
80779W        W47188  17.202  32.352  14.521
80780W        W47189   1.615   0.430  14.053
80781W        W47190  20.040  15.416  12.367
80782W        W47191   5.696  10.181  12.426
80783W        W47192  33.004  34.862   4.410
80784W        W47193   8.112  20.747  12.940
80785W        W47194  27.925  25.700  11.967
80786W        W47195  18.204   6.634   1.338
80787W        W47196  14.067  43.922   2.128
80788W        W47197  29.068  25.429   3.727
80789W        W47198   1.844  12.353   2.608
80790W        W47199  22.300  44.914  10.889
80791W        W47200   9.864  40.377   2.116
80792W        W47201  12.497  40.499  10.683
80793W        W47202  43.373  22.738   4.800
80794W        W47203  31.740   0.800   2.232
80795W        W47204  17.037  18.301   3.612
80796W        W47205  37.029  24.000  11.673
80797W        W47206  39.993   4.176  13.945
80798W        W47207  27.499  17.697   0.077
80799W        W47208  34.940  21.355  14.492
80800W        W47209  13.635   0.872   3.786
80801W        W47210  14.118  11.218   4.177
80802W        W47211  10.725  28.690  14.514
80803W        W47212   9.254   0.890  11.462
80804W        W47213  27.174   0.296   3.183
80805W        W47214  39.247  35.531  12.763
80806W        W47215  13.766  41.383  14.003
80807W        W47216  10.381   2.178  12.892
80808W        W47217   0.530   6.149   0.041
80809W        W47218   1.734   6.824   1.813
80810W        W47219  42.544  20.094   0.343
80811W        W47220   7.590  34.031  13.826
80812W        W47221  19.906   0.194   3.319
80813W        W47222  43.244  37.790   1.226
80814W        W47223  13.334  33.018  10.472
80815W        W47224  10.094   1.279  13.443
80816W        W47225   4.862  20.969   2.869
80817W        W47226  20.359  37.424  10.271
80818W        W47227  21.177   1.273  11.558
80819W        W47228  24.633  24.789  11.210
80820W        W47229  43.045  21.663  13.857
80821W        W47230  13.828  12.656  14.745
80822W        W47231  44.269  39.536  11.215
80823W        W47232  22.614   9.269  14.416
80824W        W47233  42.903   8.127   0.169
80825W        W47234  42.126   5.596  12.016
80826W        W47235   3.995  15.579  13.046
80827W        W47236   3.853   8.095  14.253
80828W        W47237   5.784   0.508   4.704
80829W        W47238  17.212  43.173   2.407
80830W        W47239  30.977  29.609   3.691
80831W        W47240   6.358  21.528   5.290
80832W        W47241   1.502   0.757   4.596
80833W        W47242  14.055   4.114  10.131
80834W        W47243   2.966  24.212   2.903
80835W        W47244   9.739   6.880   3.686
80836W        W47245  36.903   4.342  12.679
80837W        W47246  38.364  22.681   2.366
80838W        W47247  35.582  29.986  14.383
80839W        W47248  37.058   2.401  12.520
80840W        W47249  37.906   3.283   4.442
80841W        W47250   3.148  12.200   4.322
80842W        W47251  15.895  44.188   2.119
80843W        W47252  27.171  43.234   0.480
80844W        W47253  10.176  22.589  13.392
80845W        W47254  27.586  20.657  12.550
80846W        W47255  26.691  43.513   1.436
80847W        W47256  30.581  19.880  13.085
80848W        W47257  11.313   1.205   2.770
80849W        W47258  17.046  11.300  10.927
80850W        W47259   9.459  15.092   2.147
80851W        W47260  13.936  29.377  12.529
80852W        W47261  15.616  39.394   2.199
80853W        W47262   0.950   5.030   4.933
80854W        W47263   3.945  33.504   1.155
80855W        W47264  31.622   0.138  14.342
80856W        W47265  30.226  40.053   1.752
80857W        W47266  13.784   3.448   1.765
80858W        W47267  10.143  36.693  13.948
80859W        W47268   7.140  42.398  13.621
80860W        W47269  36.921   2.574   3.298
80861W        W47270  37.875  17.708  12.191
80862W        W47271   0.761  43.580  14.822
80863W        W47272  32.422  42.074   2.796
80864W        W47273  43.697   3.695  11.109
80865W        W47274  18.364  25.639  12.306
80866W        W47275  21.529  17.104  12.833
80867W        W47276   9.102  35.534   4.244
80868W        W47277  12.784   7.578  12.459
80869W        W47278  10.184  37.648   1.663
80870W        W47279  15.184  12.239  14.026
80871W        W47280  14.369   0.751   1.161
80872W        W47281  32.628   8.096  13.845
80873W        W47282  44.366  42.042   4.551
80874W        W47283   8.189  23.577   2.922
80875W        W47284  13.364  17.024   4.050
80876W        W47285  23.094  27.835   1.371
80877W        W47286  30.604   3.117  14.274
80878W        W47287  25.869  27.088   2.007
80879W        W47288   5.915  11.154  14.466
80880W        W47289  33.405  22.806  12.931
80881W        W47290   6.386  42.598  14.838
80882W        W47291  32.989   0.251  14.300
80883W        W47292   1.916   4.184   1.634
80884W        W47293  16.128  34.892  14.851
80885W        W47294  16.345   5.801   4.824
80886W        W47295  18.287  38.754   3.334
80887W        W47296  33.155   4.340   3.590
80888W        W47297  20.660  25.128  14.560
80889W        W47298  20.996  16.538   1.966
80890W        W47299  31.434   6.451   3.371
80891W        W47300  11.801   8.696   0.288
80892W        W47301   6.620  41.338  12.994
80893W        W47302  13.354  31.007  14.539
80894W        W47303   7.778  32.420  11.787
80895W        W47304  34.036  13.127   4.474
80896W        W47305  43.501  38.924   2.724
80897W        W47306  16.066  40.416   4.788
80898W        W47307  12.694  16.773  12.581
80899W        W47308  44.305  38.008  14.937
80900W        W47309  26.914  24.743   0.209
80901W        W47310  19.433  26.224  13.550
80902W        W47311  42.795  13.882  13.820
80903W        W47312   3.412  25.436  11.532
80904W        W47313  23.447  23.083   0.367
80905W        W47314  44.082   5.842   3.862
80906W        W47315   0.453  29.209   1.948
80907W        W47316  17.983  31.866  12.679
80908W        W47317  12.912  29.984  11.612
80909W        W47318  24.747  22.802  14.472
80910W        W47319  36.852   7.492   0.644
80911W        W47320  15.587  17.042   4.142
80912W        W47321  16.337  15.779  11.213
80913W        W47322  34.005  44.936  11.039
80914W        W47323   2.598  42.424   4.082
80915W        W47324   0.277  39.090   4.312
80916W        W47325  27.951  41.282   5.056
80917W        W47326  17.730  26.900   4.221
80918W        W47327   8.762  19.205  13.259
80919W        W47328  40.975  34.870   1.260
80920W        W47329  25.517  42.528   1.403
80921W        W47330  42.878  37.627   0.384
80922W        W47331  28.405  16.710   2.748
80923W        W47332  23.395   6.428  13.908
80924W        W47333  18.843  18.626  13.517
80925W        W47334   4.070  38.803   0.297
80926W        W47335   9.494   6.004  11.564
80927W        W47336   7.087  13.751  13.324
80928W        W47337   6.710   4.785   3.370
80929W        W47338  19.493  24.740  12.120
80930W        W47339  44.154  13.604  10.755
80931W        W47340  32.139  22.085   3.790
80932W        W47341  30.019  34.469  13.979
80933W        W47342   5.254  39.079  10.487
80934W        W47343  44.994   9.291  13.795
80935W        W47344  36.340  14.566  12.149
80936W        W47345  17.224  26.394  10.429
80937W        W47346  17.034  39.696   4.034
80938W        W47347  40.399  10.851   4.038
80939W        W47348  41.098  12.600  12.922
80940W        W47349   0.556  42.960   0.459
80941W        W47350   8.416  13.959  14.824
80942W        W47351  18.641  37.809   2.720
80943W        W47352   9.751  32.607   0.287
80944W        W47353  28.599  15.758   4.594
80945W        W47354  28.372  19.082  14.446
80946W        W47355  13.277  43.156  11.534
80947W        W47356  33.482  43.506  10.796
80948W        W47357  10.369  14.162   0.828
80949W        W47358   4.631  12.545   1.720
80950W        W47359  42.441  31.098   0.860
80951W        W47360  10.231  20.450   4.100
80952W        W47361  16.387  13.383  10.614
80953W        W47362  20.198  42.196  14.725
80954W        W47363   4.819  25.240   3.262
80955W        W47364   5.984  19.736  11.247
80956W        W47365  16.253  25.445  14.345
80957W        W47366  31.450  32.011  12.048
80958W        W47367  17.289  22.478   0.330
80959W        W47368  38.841  40.456  10.531
80960W        W47369  24.834  17.038   0.513
80961W        W47370   3.413  16.204   3.270
80962W        W47371  40.618  16.139  10.775
80963W        W47372   4.409  26.526   3.683
80964W        W47373  24.087  39.478  11.109
80965W        W47374  41.265  29.006  12.793
80966W        W47375  23.731   5.212  13.141
80967W        W47376  28.758  13.717  11.552
80968W        W47377  33.953  16.554  13.030
80969W        W47378  18.283   5.121   0.392
80970W        W47379  28.129  30.543   2.193
80971W        W47380  10.624  35.119  12.777
80972W        W47381   5.662  18.765   0.452
80973W        W47382  12.225   9.143  13.122
80974W        W47383  36.493  23.079   4.070
80975W        W47384  40.495  11.783  13.428
80976W        W47385  43.266  31.957  14.448
80977W        W47386  36.444  31.704  13.045
80978W        W47387  22.226   1.531  14.010
80979W        W47388  21.257  18.264   0.540
80980W        W47389  12.810  19.698   1.305
80981W        W47390  15.206  39.880   2.801
80982W        W47391  19.770  11.788   2.155
80983W        W47392   1.954  41.195   2.676
80984W        W47393  18.729  44.010  10.652
80985W        W47394   8.259   9.848  14.538
80986W        W47395  17.499  26.696   3.769
80987W        W47396   3.456  27.580   2.820
80988W        W47397  10.223  31.442  11.589
80989W        W47398  35.491  30.069   1.308
80990W        W47399  37.302  33.429   2.002
80991W        W47400  30.740  35.858  13.156
80992W        W47401   1.302  44.971   2.834
80993W        W47402  24.241  11.627   1.294
80994W        W47403  13.767  36.423  14.384
80995W        W47404  27.020   7.436   4.027
80996W        W47405  11.604  39.277  13.525
80997W        W47406  43.447   2.080   4.968
80998W        W47407  11.193  40.935  11.023
80999W        W47408   1.639  34.151  12.531
81000W        W47409  40.248  25.208  10.783
81001W        W47410   9.249   7.825   1.647
81002W        W47411  12.557  11.132   2.817
81003W        W47412  15.659  11.860   4.563
81004W        W47413  30.467  25.083   3.803
81005W        W47414  33.396  34.692   2.158
81006W        W47415  10.066   2.325   2.054
81007W        W47416  21.167  20.521   4.912
81008W        W47417  41.146  20.860   3.829
81009W        W47418  11.173  42.936  11.564
81010W        W47419   3.881   8.803   4.573
81011W        W47420  31.258  37.845   0.853
81012W        W47421  44.839  18.694  11.453
81013W        W47422  36.844   1.364  13.481
81014W        W47423  28.744  43.798   0.793
81015W        W47424  40.852   1.920   1.381
81016W        W47425   3.546  40.776   0.972
81017W        W47426  34.446   9.629  11.434
81018W        W47427   6.990  38.014   2.154
81019W        W47428  36.995   2.833  13.974
81020W        W47429   2.002  28.835  13.354
81021W        W47430  25.453  37.228  11.440
81022W        W47431  31.511  21.135   1.011
81023W        W47432  19.527  34.475  12.158
81024W        W47433  32.067  30.435  11.703
81025W        W47434  24.648  22.735  12.173
81026W        W47435  16.197   3.042  14.970
81027W        W47436  22.260  26.716   1.665
81028W        W47437  38.533  31.057  14.862
81029W        W47438  14.758  27.526   4.983
81030W        W47439  32.941   9.120  10.641
81031W        W47440  11.329  29.762  10.452
81032W        W47441  26.119  43.696  14.494
81033W        W47442  23.046  32.468   3.602
81034W        W47443  40.392   1.324   0.220
81035W        W47444  13.770  10.157   1.165
81036W        W47445  29.422  34.490   4.592
81037W        W47446  14.354  29.345  10.755
81038W        W47447   2.852   2.877  13.590
81039W        W47448  22.973  21.014   2.464
81040W        W47449  38.992   9.313  13.740
81041W        W47450  34.533  33.175   3.203
81042W        W47451  36.912  43.916   3.227
81043W        W47452   7.481  27.076  10.636
81044W        W47453  11.914  14.401   0.820
81045W        W47454  31.526  28.458  13.453
81046W        W47455  19.480  25.648   5.041
81047W        W47456  23.174   7.980  14.846
81048W        W47457  18.787   4.723  12.927
81049W        W47458   5.681   5.906  10.569
81050W        W47459  23.286  25.772  14.923
81051W        W47460  18.089  13.365   0.308
81052W        W47461  15.355   1.373   1.963
81053W        W47462  43.990  42.496  10.758
81054W        W47463   3.663  38.118   3.188
81055W        W47464  39.615  17.344   3.613
81056W        W47465  23.201  22.529  13.487
81057W        W47466  34.738   0.234  11.954
81058W        W47467  10.113  15.174   2.882
81059W        W47468  22.849  29.627   1.306
81060W        W47469  39.863   4.578   1.263
81061W        W47470  25.448  40.381   1.981
81062W        W47471  42.251  22.657   4.079
81063W        W47472  39.072  27.410  13.624
81064W        W47473  35.098  32.071   1.275
81065W        W47474  29.138  17.458   0.720
81066W        W47475   2.195   1.311   1.946
81067W        W47476  33.223  31.828   4.153
81068W        W47477  23.673  15.161   2.870
81069W        W47478   2.369  44.339   4.116
81070W        W47479  29.916  32.352  10.854
81071W        W47480  20.005  32.960   4.875
81072W        W47481  37.139  15.345   2.674
81073W        W47482  11.630   7.251  12.109
81074W        W47483  19.145   8.791   1.856
81075W        W47484  15.583   4.396   3.136
81076W        W47485   4.017  34.211   4.535
81077W        W47486  22.206  39.857  10.395
81078W        W47487   7.855  41.004   1.605
81079W        W47488  42.897  40.911   3.145
81080W        W47489  40.321  36.046   0.922
81081W        W47490  28.795  29.142  12.033
81082W        W47491  26.572  37.155   2.280
81083W        W47492  40.013  30.877   0.389
81084W        W47493  40.102  37.499   0.465
81085W        W47494   7.250  29.315   1.386
81086W        W47495  41.717  31.677  12.908
81087W        W47496  12.298  27.257   3.610
81088W        W47497   8.204  11.776  14.906
81089W        W47498  17.657  26.546  13.237
81090W        W47499  37.359  36.947   0.851
81091W        W47500  31.714  38.785  11.042
81092W        W47501  41.914  31.931  11.606
81093W        W47502  14.292  28.968  14.571
81094W        W47503  38.396  16.015  10.618
81095W        W47504  31.871   5.216  14.358
81096W        W47505   0.976  14.991   3.180
81097W        W47506   3.569   1.198   2.391
81098W        W47507   5.658  44.885  11.967
81099W        W47508  11.847  39.537  11.616
81100W        W47509  30.452   3.321  12.458
81101W        W47510  30.887  23.523  10.784
81102W        W47511  36.060  33.202   1.720
81103W        W47512  13.129  13.066  10.964
81104W        W47513   1.060  14.536   1.261
81105W        W47514   2.008  31.027   1.513
81106W        W47515   9.619  38.792   2.471
81107W        W47516  21.798  38.395   3.280
81108W        W47517  40.770  25.920  11.896
81109W        W47518   7.653  43.020   4.158
81110W        W47519   4.213  18.801   0.364
81111W        W47520  39.560  37.769   0.860
81112W        W47521   7.351   2.641   1.977
81113W        W47522  28.491   5.051   2.568
81114W        W47523  29.990   1.902  13.257
81115W        W47524   1.227   0.499   2.370
81116W        W47525  29.058   5.348   0.360
81117W        W47526  11.659   1.068  12.099
81118W        W47527  12.853  15.358   3.358
81119W        W47528   6.807  19.331   2.130
81120W        W47529   9.993   2.389   0.051
81121W        W47530  38.268  10.728   0.464
81122W        W47531  35.562  44.223   0.015
81123W        W47532  34.598  40.980  12.882
81124W        W47533  37.972  15.129   2.607
81125W        W47534  32.959  15.187   0.208
81126W        W47535  38.859  11.714  11.286
81127W        W47536  17.732   9.129   2.268
81128W        W47537  13.321  32.577   0.445
81129W        W47538  29.485  19.705   2.715
81130W        W47539  16.094   8.287  10.661
81131W        W47540   4.966   1.297   0.479
81132W        W47541  10.956  22.025  12.531
81133W        W47542   9.772  31.474  14.332
81134W        W47543  24.667  44.204   3.659
81135W        W47544  27.941   0.599   5.083
81136W        W47545  35.406  41.929  14.246
81137W        W47546  37.108   4.917  11.471
81138W        W47547  30.088  24.984   4.697
81139W        W47548  43.319  28.952   0.407
81140W        W47549  33.048  12.515   3.087
81141W        W47550  43.892  35.407   0.754
81142W        W47551   7.160  27.155   0.204
81143W        W47552  13.230  16.154   4.357
81144W        W47553  38.515  29.191   1.348
81145W        W47554  14.331  44.464   2.203
81146W        W47555  37.482   9.687   4.831
81147W        W47556  18.717  24.459   0.233
81148W        W47557  11.213   8.364  13.443
81149W        W47558   7.637  12.692  14.040
81150W        W47559  31.186  23.933  14.970
81151W        W47560  28.580  41.745  14.494
81152W        W47561  22.300  17.454  12.955
81153W        W47562  36.467  19.538   1.298
81154W        W47563  41.119  39.645  14.202
81155W        W47564   7.058   9.026  12.436
81156W        W47565  35.962  22.196   3.171
81157W        W47566  29.254  38.485  13.967
81158W        W47567  16.483  34.154  14.476
81159W        W47568  20.687  16.177  13.839
81160W        W47569  23.996  35.443  10.729
81161W        W47570  30.993  24.132  14.301
81162W        W47571  35.898  32.497   4.336
81163W        W47572   8.968   5.385  13.633
81164W        W47573  20.809  36.060  13.985
81165W        W47574  37.660  41.138   0.317
81166W        W47575   1.018  33.140   0.898
81167W        W47576   1.788  38.086   4.840
81168W        W47577   3.459  28.890  14.956
81169W        W47578  25.417  38.601   0.870
81170W        W47579  16.051  19.155   1.326
81171W        W47580  32.587   1.101   3.280
81172W        W47581   8.230  22.387  12.307
81173W        W47582  18.596  29.680  14.843
81174W        W47583  35.579  23.047   4.197
81175W        W47584  21.275  41.733   2.046
81176W        W47585   4.311  29.139  12.170
81177W        W47586  10.411  18.241   2.144
81178W        W47587  36.418  40.577  14.380
81179W        W47588   4.719  40.582   2.721
81180W        W47589   0.328  12.949  12.704
81181W        W47590   7.350  22.799   3.292
81182W        W47591  38.085  35.586  11.545
81183W        W47592  23.141   1.316  10.665
81184W        W47593  35.567  34.630  12.349
81185W        W47594   0.836  15.035  11.669
81186W        W47595  40.250   6.736  12.368
81187W        W47596  39.310  21.016  14.241
81188W        W47597  13.842   2.701   2.180
81189W        W47598  29.127  23.165   2.122
81190W        W47599  14.278  17.159   1.214
81191W        W47600   6.740   4.954  14.377
81192W        W47601  21.101   8.672   3.814
81193W        W47602  12.908  18.135   3.715
81194W        W47603  12.889   3.473  14.452
81195W        W47604  44.821  43.775  13.755
81196W        W47605   3.459  28.367  14.996
81197W        W47606   7.093  34.898   3.159
81198W        W47607   9.405  27.956  13.606
81199W        W47608   5.005  37.090   3.220
81200W        W47609  29.897   4.332   2.827
81201W        W47610  20.142   1.007   1.715
81202W        W47611  25.294  21.386  10.633
81203W        W47612  21.227  32.406   5.120
81204W        W47613  10.640   4.510   0.975
81205W        W47614  34.451  11.221  11.337
81206W        W47615  21.525  26.524  10.839
81207W        W47616   5.278  17.430  12.538
81208W        W47617  11.164  31.646  11.797
81209W        W47618  10.945  15.709   3.181
81210W        W47619  24.426  37.591   0.279
81211W        W47620   4.258  34.122   1.859
81212W        W47621  11.759  15.862   2.809
81213W        W47622   7.189  37.579   4.386
81214W        W47623   5.923  15.244  12.945
81215W        W47624  14.129  32.566  10.724
81216W        W47625  35.817  32.302   4.832
81217W        W47626  33.473   6.845   1.960
81218W        W47627  13.893  32.560   4.319
81219W        W47628  12.259  22.692   3.575
81220W        W47629  21.423  36.932   0.919
81221W        W47630  41.304   7.203  13.839
81222W        W47631   3.831  34.685  13.582
81223W        W47632   9.543   2.145   4.539
81224W        W47633  22.925  42.248  11.138
81225W        W47634   4.422   0.560   3.893
81226W        W47635  37.082  42.993  12.079
81227W        W47636  33.973  29.637  14.778
81228W        W47637  20.689  24.514   3.174
81229W        W47638  14.387   2.405   2.743
81230W        W47639  14.737  41.254   1.853
81231W        W47640  15.698  19.046  14.275
81232W        W47641  23.148  23.739   1.779
81233W        W47642   8.142  25.139   1.168
81234W        W47643   1.217  20.533   2.770
81235W        W47644  16.844  35.056  11.268
81236W        W47645  42.448   2.708  13.093
81237W        W47646   3.524   8.250   2.720
81238W        W47647   5.222   7.681   3.263
81239W        W47648  33.180  14.863   1.389
81240W        W47649   6.508  28.553   3.769
81241W        W47650  36.414   5.200  12.878
81242W        W47651   2.303  23.493   1.409
81243W        W47652  34.720  26.428   4.271
81244W        W47653  35.241  28.170   4.211
81245W        W47654  43.340  32.893   4.084
81246W        W47655  34.877   7.749   2.498
81247W        W47656   3.463   5.241  13.630
81248W        W47657  38.247  31.233   3.260
81249W        W47658  14.571  34.561  13.520
81250W        W47659  43.645  12.156  11.490
81251W        W47660  11.849  25.936  12.716
81252W        W47661  33.105   0.990  11.693
81253W        W47662  44.441  12.607   4.740
81254W        W47663  11.467  25.187   3.609
81255W        W47664  16.089  14.750  14.987
81256W        W47665  37.241  13.058  11.311
81257W        W47666  43.069  13.683  12.131
81258W        W47667  35.466  38.935   4.255
81259W        W47668  41.316   4.663   0.834
81260W        W47669  21.153  41.342   1.111
81261W        W47670  39.088  41.961  14.831
81262W        W47671  21.401  38.898  11.659
81263W        W47672   2.254  34.853  14.834
81264W        W47673  34.987   1.533   2.023
81265W        W47674  10.546   8.097  14.253
81266W        W47675  33.478  44.824   4.474
81267W        W47676  23.051  18.745   1.223
81268W        W47677  34.178  19.135  13.991
81269W        W47678   7.674  33.709  10.146
81270W        W47679  40.097  24.785  13.408
81271W        W47680   1.414  43.535   3.642
81272W        W47681   0.453  30.976   4.649
81273W        W47682   3.155   1.652  12.010
81274W        W47683  14.237  44.516   1.693
81275W        W47684   8.156  39.381   1.190
81276W        W47685  31.867  26.053  12.417
81277W        W47686  21.192  34.991  10.803
81278W        W47687  18.009  33.779   2.737
81279W        W47688  19.128   1.130   0.906
81280W        W47689  40.789  22.731   4.154
81281W        W47690   8.823   4.452  13.355
81282W        W47691   9.623   7.517   4.272
81283W        W47692  40.075  21.065  11.144
81284W        W47693  16.666  32.968  14.321
81285W        W47694   7.485  34.567   3.121
81286W        W47695  27.243  17.768  13.526
81287W        W47696  23.597  40.904  10.699
81288W        W47697   2.683   8.211   0.370
81289W        W47698  37.497  13.148   3.162
81290W        W47699  19.257  43.078  13.587
81291W        W47700  18.764   9.555  12.635
81292W        W47701  19.268  32.784   3.253
81293W        W47702  40.080  18.809   1.046
81294W        W47703  37.890  44.045   4.538
81295W        W47704  22.474  18.264   1.927
81296W        W47705  14.108  20.501  14.048
81297W        W47706  30.171  13.189   2.280
81298W        W47707  44.995   8.173  13.028
81299W        W47708   4.334  27.797   1.823
81300W        W47709   7.326  29.372   4.616
81301W        W47710  38.115  19.866  11.141
81302W        W47711  42.874  41.390   2.204
81303W        W47712   6.052  18.338  14.798
81304W        W47713  38.695  34.094   0.425
81305W        W47714  27.829  44.254   2.786
81306W        W47715   7.387  13.558  11.168
81307W        W47716   3.780  43.950  10.860
81308W        W47717  12.157  28.136   3.652
81309W        W47718   2.924  36.437   3.140
81310W        W47719   1.981   5.151  14.245
81311W        W47720  13.170  23.685  14.463
81312W        W47721   1.982  11.241  12.128
81313W        W47722  31.974   1.273   2.173
81314W        W47723  25.986  42.442   3.304
81315W        W47724   6.321  11.794   4.979
81316W        W47725   1.024  26.209  12.066
81317W        W47726  16.079   4.506   0.753
81318W        W47727  19.072  41.352   1.232
81319W        W47728   8.140  14.855  14.897
81320W        W47729  43.045  17.182  13.226
81321W        W47730  11.149  26.526   2.421
81322W        W47731  10.858  34.823   4.220
81323W        W47732  24.255  11.405  12.205
81324W        W47733  17.839   3.231  12.640
81325W        W47734  28.643  19.257  13.115
81326W        W47735  20.708  30.687  11.172
81327W        W47736   6.668   3.444   1.019
81328W        W47737   6.773  23.540  11.547
81329W        W47738   1.211  43.864  13.906
81330W        W47739  41.027  12.097  12.992
81331W        W47740  35.939   4.898  10.380
81332W        W47741  16.139  41.016   1.930
81333W        W47742  14.735   7.311   4.602
81334W        W47743  40.560  43.960   3.070
81335W        W47744  27.956  10.388   1.782
81336W        W47745  28.076   4.779  10.010
81337W        W47746  37.503   6.180   0.298
81338W        W47747  17.756  38.134  12.413
81339W        W47748   8.773   1.204  10.446
81340W        W47749   8.653  44.670   3.715
81341W        W47750  25.181   1.370   4.238
81342W        W47751  37.481   0.432   0.397
81343W        W47752   6.683  28.400   1.047
81344W        W47753   6.663  23.201   9.899
81345W        W47754  16.181  25.709   4.695
81346W        W47755  15.777   5.074  10.518
81347W        W47756  17.847  29.394  12.530
81348W        W47757  11.891  37.518  10.148
81349W        W47758  19.559  34.934   0.250
81350W        W47759  26.239  27.675  10.981
81351W        W47760   1.492  15.643   0.264
81352W        W47761  22.429  42.204  13.541
81353W        W47762  30.473  30.964  11.130
81354W        W47763  35.076  11.485   3.546
81355W        W47764  32.368   4.761   4.543
81356W        W47765  39.362  40.148  12.379
81357W        W47766  26.236  32.540   3.678
81358W        W47767  34.646  36.978  10.720
81359W        W47768  37.577  42.438   0.227
81360W        W47769  30.479  30.936  13.283
81361W        W47770  21.780  32.535   4.663
81362W        W47771  11.875  36.893   3.881
81363W        W47772  21.591  15.610   4.576
81364W        W47773   9.549  27.525  13.386
81365W        W47774  16.340  37.473   1.377
81366W        W47775   3.277  28.796  13.105
81367W        W47776  19.089  21.832   4.350
81368W        W47777  13.401  32.495  11.156
81369W        W47778  32.624  16.887  11.054
81370W        W47779  37.157  31.693   0.289
81371W        W47780  38.930   7.111   5.110
81372W        W47781   0.487  18.048  11.304
81373W        W47782   3.237  12.044  11.241
81374W        W47783   4.261   9.963   2.696
81375W        W47784  23.253   9.395  11.925
81376W        W47785  11.731  34.434  11.584
81377W        W47786  38.867  10.904   3.769
81378W        W47787  19.030  32.579  11.275
81379W        W47788   8.545  13.648  11.732
81380W        W47789  35.038   0.920   3.360
81381W        W47790  17.674  12.885  13.967
81382W        W47791  23.065   8.853  14.485
81383W        W47792  20.683   5.164   4.571
81384W        W47793  22.578  25.954  13.798
81385W        W47794   6.670   0.487   4.199
81386W        W47795  30.462  21.042  14.494
81387W        W47796  18.056  24.930  14.636
81388W        W47797  30.582  22.642  11.176
81389W        W47798   0.145  20.298  13.119
81390W        W47799   4.783  33.110  14.854
81391W        W47800  11.485  12.356  12.062
81392W        W47801  28.492  39.094   3.784
81393W        W47802  37.305  35.809   4.617
81394W        W47803   8.294   3.931  14.830
81395W        W47804  21.679  22.516   0.889
81396W        W47805   7.482  13.368   3.287
81397W        W47806   6.422  26.751   4.972
81398W        W47807  29.428  13.305  11.132
81399W        W47808  27.056  41.489  12.163
81400W        W47809  35.631   7.389  10.660
81401W        W47810  35.472  27.744  11.177
81402W        W47811  11.130  22.931  11.052
81403W        W47812   3.813  16.283  12.624
81404W        W47813  11.766   1.118  13.912
81405W        W47814  36.898  39.098   0.870
81406W        W47815  15.556  42.873   3.647
81407W        W47816  40.066  26.890   1.404
81408W        W47817  15.152  43.800  14.709
81409W        W47818  23.945  37.380  13.780
81410W        W47819   3.805  25.531  13.794
81411W        W47820  32.435   1.431  14.952
81412W        W47821  11.658  38.321   0.502
81413W        W47822  34.697  26.607   0.386
81414W        W47823  35.153   0.949  11.100
81415W        W47824  28.728  11.765  11.483
81416W        W47825  17.098  32.579   1.501
81417W        W47826  25.867  29.510   3.062
81418W        W47827  16.439  17.076   3.184
81419W        W47828  43.821   4.745   0.361
81420W        W47829  26.430  35.928   5.156
81421W        W47830  11.924  23.024  14.407
81422W        W47831  38.486  15.886   2.813
81423W        W47832  26.020   6.400   2.926
81424W        W47833  28.297  33.482  13.677
81425W        W47834  42.430   7.876   3.204
81426W        W47835   7.998  32.957   3.645
81427W        W47836  23.688   8.355  10.448
81428W        W47837  11.187  19.823  13.612
81429W        W47838  11.522  32.954  12.054
81430W        W47839  27.113  12.171  13.609
81431W        W47840  30.558  13.155  12.012
81432W        W47841  39.308  42.898   1.804
81433W        W47842  16.368  31.033   4.542
81434W        W47843   2.708  31.979   2.665
81435W        W47844  38.966   0.371   0.205
81436W        W47845  24.212   3.232   2.402
81437W        W47846  35.367  36.056   4.273
81438W        W47847  13.253   7.961  11.088
81439W        W47848   1.677  18.627   4.742
81440W        W47849  35.374  15.607   1.801
81441W        W47850  22.105  33.511  13.973
81442W        W47851  21.036  44.850   0.381
81443W        W47852   8.442  22.460   4.315
81444W        W47853  43.905   5.394   3.685
81445W        W47854  10.248   6.319  13.039
81446W        W47855   8.632  23.439  14.455
81447W        W47856  20.725  35.222  12.037
81448W        W47857  44.844   3.246  13.965
81449W        W47858   7.464  15.071   3.277
81450W        W47859   9.369  33.876   3.380
81451W        W47860  26.994  28.251   0.894
81452W        W47861  29.419  20.472   0.538
81453W        W47862  25.513  24.076   2.946
81454W        W47863  43.994  40.960  13.552
81455W        W47864  18.620  22.956   1.391
81456W        W47865  20.569   0.753  13.545
81457W        W47866  42.460  33.498   0.395
81458W        W47867  22.615   2.036   1.468
81459W        W47868  17.137  19.283   4.583
81460W        W47869  12.312   1.205   2.707
81461W        W47870  14.439  43.200   2.647
81462W        W47871   9.848  15.628  14.717
81463W        W47872   7.650  18.649  13.376
81464W        W47873  39.387  33.288   2.907
81465W        W47874  24.690  24.623  14.030
81466W        W47875  25.139  43.361   4.109
81467W        W47876  26.464  42.783   4.604
81468W        W47877  39.510  34.584  13.939
81469W        W47878  26.925  44.779   1.856
81470W        W47879  34.135  34.235   0.806
81471W        W47880   4.730   4.429  14.264
81472W        W47881   0.483  23.605   3.077
81473W        W47882  33.776  43.898  11.573
81474W        W47883  17.335  42.808  10.846
81475W        W47884  40.454  22.256  10.742
81476W        W47885  41.201  13.113   1.452
81477W        W47886  13.301   8.937  12.585
81478W        W47887  33.333  34.492   1.210
81479W        W47888  30.940  10.173  14.865
81480W        W47889  37.851   4.023  14.982
81481W        W47890   3.019  33.836   3.888
81482W        W47891  17.384  34.505  14.047
81483W        W47892  30.886  21.250  13.330
81484W        W47893  18.525   6.865  14.381
81485W        W47894  25.424  10.240   4.850
81486W        W47895  35.823   7.745  11.642
81487W        W47896   4.107  41.322   3.195
81488W        W47897   9.788  41.240   4.269
81489W        W47898   7.953  21.269   4.074
81490W        W47899  19.971  29.919  11.000
81491W        W47900  13.126  17.928  14.400
81492W        W47901  36.616  13.636   2.745
81493W        W47902  38.092   8.673  12.065
81494W        W47903  27.254  21.163   0.456
81495W        W47904  35.517   7.125  11.092
81496W        W47905   1.174  21.103  13.596
81497W        W47906  16.081  10.357  10.834
81498W        W47907  30.988  36.313  13.416
81499W        W47908  41.721  37.424  12.380
81500W        W47909  29.060   6.956  14.150
81501W        W47910   1.867  30.883  13.520
81502W        W47911   1.799  31.932  13.543
81503W        W47912  21.111  22.550   4.044
81504W        W47913  36.839   5.227   3.313
81505W        W47914  31.701   0.816  14.363
81506W        W47915  25.359  24.525   2.376
81507W        W47916   2.018  22.831  11.053
81508W        W47917   0.805  25.057   1.306
81509W        W47918   8.275  13.291   1.101
81510W        W47919  23.029  24.253   2.225
81511W        W47920   8.544  36.054  12.525
81512W        W47921  44.875  19.244   3.174
81513W        W47922   7.832  41.727   4.457
81514W        W47923  17.732  18.027  11.393
81515W        W47924  29.944  36.554   3.287
81516W        W47925   4.620  27.162   2.891
81517W        W47926  23.981  21.986   3.723
81518W        W47927  27.527  36.381   3.471
81519W        W47928  28.857  39.486  11.572
81520W        W47929  22.621  23.756  14.792
81521W        W47930   6.380  36.511   3.479
81522W        W47931  23.649  24.443   3.673
81523W        W47932  38.943  43.163  10.162
81524W        W47933  21.261  39.972  14.257
81525W        W47934  12.806  11.727   3.212
81526W        W47935  35.383   2.081  14.354
81527W        W47936  16.638   5.278  11.371
81528W        W47937  15.222  23.527   4.040
81529W        W47938  24.004  27.582   4.843
81530W        W47939  41.861  44.228  11.950
81531W        W47940  30.047   5.700  14.510
81532W        W47941   6.812  36.659  11.609
81533W        W47942  19.761  24.619  14.758
81534W        W47943  33.362  27.068   1.349
81535W        W47944   9.686  16.401   0.032
81536W        W47945  25.466   2.138  14.393
81537W        W47946  37.514  14.503  14.028
81538W        W47947  42.662  15.637  10.123
81539W        W47948  21.295  14.352  14.301
81540W        W47949  17.426   0.985   1.716
81541W        W47950  29.935  44.865   2.695
81542W        W47951  28.094  44.210   1.234
81543W        W47952   0.275   2.440   3.296
81544W        W47953  21.709  31.475   0.607
81545W        W47954  15.468  12.053  11.152
81546W        W47955  18.275   0.791  12.741
81547W        W47956  21.192  37.753  13.288
81548W        W47957  44.396  23.979  12.915
81549W        W47958  38.382   8.757   2.313
81550W        W47959  20.398  23.416   0.762
81551W        W47960  29.907   6.025   1.272
81552W        W47961   9.082  10.378  13.255
81553W        W47962  11.282  18.762  11.541
81554W        W47963  30.605  15.391  13.967
81555W        W47964   9.891   6.156   3.813
81556W        W47965   6.078  41.821   3.475
81557W        W47966  31.430  43.747  14.371
81558W        W47967  18.790  33.587  11.950
81559W        W47968  26.635  12.907   0.940
81560W        W47969  16.130  22.709   1.920
81561W        W47970  18.032  21.157  10.649
81562W        W47971  33.055  16.661  13.429
81563W        W47972  28.583  13.620  14.388
81564W        W47973  39.358  23.606  13.635
81565W        W47974  36.469  34.326  14.516
81566W        W47975   5.722  43.047   0.897
81567W        W47976  38.948   7.212  10.907
81568W        W47977  18.168  29.969   1.940
81569W        W47978  24.392  25.112   1.609
81570W        W47979  12.017  13.688  14.275
81571W        W47980  20.003  11.001  12.904
81572W        W47981  29.928  15.307   4.689
81573W        W47982  28.950  27.031   4.382
81574W        W47983  18.770  32.894  11.599
81575W        W47984  23.118  37.714   4.137
81576W        W47985  31.326  33.893   3.697
81577W        W47986  37.198   9.196  11.175
81578W        W47987  33.547  28.677   2.902
81579W        W47988   6.650   3.681  12.067
81580W        W47989  14.747  29.001  10.746
81581W        W47990  26.683  20.679  13.617
81582W        W47991  31.641   9.803   2.840
81583W        W47992  24.063  17.578  14.348
81584W        W47993  43.458  23.490  14.781
81585W        W47994  28.892   6.155   3.186
81586W        W47995   3.252  25.710  14.361
81587W        W47996  11.249  12.948  13.354
81588W        W47997  38.536  30.027  13.833
81589W        W47998  34.585   1.991  12.945
81590W        W47999  17.115   3.767   4.099
81591W        W48000  44.515  25.101  13.724
81592W        W48001  12.412  31.183  14.977
81593W        W48002  16.531  28.101   0.765
81594W        W48003   5.188  20.498   4.311
81595W        W48004   2.722  26.525   3.282
81596W        W48005  35.156  34.014   2.046
81597W        W48006  18.025  11.898  11.882
81598W        W48007  38.062   6.379   2.282
81599W        W48008  24.206   7.770  12.873
81600W        W48009  12.956  32.458  13.515
81601W        W48010  27.562  20.719   1.789
81602W        W48011   3.699   1.861  11.291
81603W        W48012  28.588  36.999   2.306
81604W        W48013   1.697  22.417   3.780
81605W        W48014  26.580   5.311  14.363
81606W        W48015   5.208  28.005   1.808
81607W        W48016  20.746  13.643  13.371
81608W        W48017  25.027  36.542  12.495
81609W        W48018  11.747  31.472   3.815
81610W        W48019  25.913  27.363  10.702
81611W        W48020  18.601   6.262   1.225
81612W        W48021   0.903  30.539   0.895
81613W        W48022   0.351  34.045  10.562
81614W        W48023  16.795  33.608   0.330
81615W        W48024   6.498  39.380   1.882
81616W        W48025   9.228  24.409  12.900
81617W        W48026  39.099  27.909   3.250
81618W        W48027  36.994   8.899  14.707
81619W        W48028  27.643  20.650  11.441
81620W        W48029  43.918   0.857   0.282
81621W        W48030  39.253   6.236   2.656
81622W        W48031   5.375  30.923   2.586
81623W        W48032  11.091  14.637   0.385
81624W        W48033  21.131   7.285  12.036
81625W        W48034  13.618   8.434   3.876
81626W        W48035  37.946  15.561  11.207
81627W        W48036  21.548  12.567  13.287
81628W        W48037   4.463  19.729   0.338
81629W        W48038  35.129  43.808   2.179
81630W        W48039  26.657   6.356   4.576
81631W        W48040  15.323   1.864  11.501
81632W        W48041   5.138  27.770   4.215
81633W        W48042  12.760   0.215  11.865
81634W        W48043  32.233   6.064   4.002
81635W        W48044   4.457  27.608   2.686
81636W        W48045  18.726  35.011   1.646
81637W        W48046  31.609   9.787  14.592
81638W        W48047   8.134  11.556   0.367
81639W        W48048  21.828   0.064  11.105
81640W        W48049  43.879  10.457   1.017
81641W        W48050  18.177  37.079  10.324
81642W        W48051  30.092  35.629  12.520
81643W        W48052  20.769  17.352  11.440
81644W        W48053  29.250  43.398  12.021
81645W        W48054  36.898  11.826   2.779
81646W        W48055   6.676  26.085   1.815
81647W        W48056  42.549  24.226   4.178
81648W        W48057   3.325  18.330  11.494
81649W        W48058  33.658  27.673  13.550
81650W        W48059  11.326  37.463  10.953
81651W        W48060  41.513   8.660   0.521
81652W        W48061  24.813   5.678   3.389
81653W        W48062  44.009   1.180  13.418
81654W        W48063   1.139  44.710  11.128
81655W        W48064  27.438  13.241  11.887
81656W        W48065  18.684  32.984   1.051
81657W        W48066  34.411  41.454  12.772
81658W        W48067  18.090  37.933   2.678
81659W        W48068  15.169  28.698   1.132
81660W        W48069  14.215  42.538   0.655
81661W        W48070  19.287  31.820   1.482
81662W        W48071  30.978  32.066   3.207
81663W        W48072  31.928  40.789  12.551
81664W        W48073   7.010  39.047  12.098
81665W        W48074  12.657  27.584  12.538
81666W        W48075  31.440  19.631  13.144
81667W        W48076  34.259  22.506  11.390
81668W        W48077  21.776  25.480   3.576
81669W        W48078  24.353   3.512   1.568
81670W        W48079  20.003  22.655   4.114
81671W        W48080  14.527  42.565  12.096
81672W        W48081   1.394   4.773  12.528
81673W        W48082  36.927  35.593  12.066
81674W        W48083  37.487  34.592  13.952
81675W        W48084  13.262  36.784  13.513
81676W        W48085  11.591  25.937  14.703
81677W        W48086  26.480  19.481   5.216
81678W        W48087  20.531  27.026   2.666
81679W        W48088  38.909  37.112  11.538
81680W        W48089  20.934  44.963  14.646
81681W        W48090  37.425  22.176   4.146
81682W        W48091  23.432   4.905  10.938
81683W        W48092   2.907   6.869  10.794
81684W        W48093  42.119  14.676  11.611
81685W        W48094  25.981  41.422   4.478
81686W        W48095  12.236  36.513   4.393
81687W        W48096  31.236  32.376   4.202
81688W        W48097  43.891  28.119  13.358
81689W        W48098  33.477  43.219  12.160
81690W        W48099  10.911  11.765   2.182
81691W        W48100  11.124  32.045  10.056
81692W        W48101  40.946  23.193   3.927
81693W        W48102  29.075  21.967   1.917
81694W        W48103  12.321  39.856  13.387
81695W        W48104  37.281  25.165  10.920
81696W        W48105   8.812  34.674   0.727
81697W        W48106  32.533  42.563   4.626
81698W        W48107  34.092  34.163  11.849
81699W        W48108   3.931  14.614  11.309
81700W        W48109  17.649   7.559  11.008
81701W        W48110  17.268  17.674   4.153
81702W        W48111   9.512   5.477   1.821
81703W        W48112   5.997  24.182   0.251
81704W        W48113  34.145   9.690   0.984
81705W        W48114  25.066  28.448  10.748
81706W        W48115  27.627  18.037  12.385
81707W        W48116  29.125   3.863   4.371
81708W        W48117  33.563  24.558   1.227
81709W        W48118   6.884  16.844   3.229
81710W        W48119   8.666   4.919  13.855
81711W        W48120   5.190  36.880  11.080
81712W        W48121  15.608  42.488  11.888
81713W        W48122  13.942  28.593   3.325
81714W        W48123  19.175  14.673   4.604
81715W        W48124   4.227   0.088   3.785
81716W        W48125   5.920  19.414   2.392
81717W        W48126  21.245  15.853   1.309
81718W        W48127  39.633  16.834  14.164
81719W        W48128  15.244  40.822  12.003
81720W        W48129  36.641  34.891   3.146
81721W        W48130   8.878  14.875  11.968
81722W        W48131  13.602  24.157  12.421
81723W        W48132  32.058  33.822   0.389
81724W        W48133   5.326  15.596   4.113
81725W        W48134  29.907  42.867   1.377
81726W        W48135  32.230   3.203   3.042
81727W        W48136  14.056  17.271   0.749
81728W        W48137  18.555  10.313  11.262
81729W        W48138  12.645  20.207   0.551
81730W        W48139  30.609   6.226   4.912
81731W        W48140  24.203  19.672   1.029
81732W        W48141  18.624  29.388   3.278
81733W        W48142  13.768  27.410   4.514
81734W        W48143  30.061  42.430   1.115
81735W        W48144  24.483  36.022   3.009
81736W        W48145   3.665  36.964  13.439
81737W        W48146  40.738   5.923  14.465
81738W        W48147  44.336  27.077  10.430
81739W        W48148  20.062  14.411   0.925
81740W        W48149  11.342  29.592   4.351
81741W        W48150  43.484  23.613  11.240
81742W        W48151   0.544  32.985  11.153
81743W        W48152  36.516  41.642  10.304
81744W        W48153   3.411  14.357   0.872
81745W        W48154  37.061  31.597   4.818
81746W        W48155  22.959   1.812   4.368
81747W        W48156  38.553  41.954  11.062
81748W        W48157  42.446  25.214   2.410
81749W        W48158   3.939  31.864   4.553
81750W        W48159  18.655   3.526  11.154
81751W        W48160  16.388   8.633  12.564
81752W        W48161  21.232  10.169   0.006
81753W        W48162  15.806  44.828   3.233
81754W        W48163  33.005   8.825  11.089
81755W        W48164   1.957  18.015  10.982
81756W        W48165   9.660  31.161   3.678
81757W        W48166  27.738  40.604  13.051
81758W        W48167  20.459  32.573  14.616
81759W        W48168   9.846  19.778   4.580
81760W        W48169  16.071  40.523   0.663
81761W        W48170  36.868   9.659   2.728
81762W        W48171  29.594  38.570   1.486
81763W        W48172  23.455   0.301  13.038
81764W        W48173   8.657  25.768  14.240
81765W        W48174   1.503   1.846   4.548
81766W        W48175  20.884  24.429   4.196
81767W        W48176  33.356  32.917  11.167
81768W        W48177  20.285  24.040  14.401
81769W        W48178  11.575  11.920   2.741
81770W        W48179  39.878  20.816   9.850
81771W        W48180  33.564  13.568   0.356
81772W        W48181  35.897  23.778   4.975
81773W        W48182   5.767   6.714  11.532
81774W        W48183  11.057  33.931   2.815
81775W        W48184   1.907  27.172   1.371
81776W        W48185  32.026  42.360   4.783
81777W        W48186  23.117  42.743   1.721
81778W        W48187   5.839   5.707  13.545
81779W        W48188  14.763  23.490   3.757
81780W        W48189  14.676  36.016  13.415
81781W        W48190  15.501   7.962  14.291
81782W        W48191   3.727  13.178  10.650
81783W        W48192  17.976  32.550   1.271
81784W        W48193   2.984  18.297   2.291
81785W        W48194  35.141  21.508  12.028
81786W        W48195  19.315  12.572   0.520
81787W        W48196  39.924  42.431  12.575
81788W        W48197   9.823   8.107   4.344
81789W        W48198  41.737  40.440   1.700
81790W        W48199  12.465  27.578   4.234
81791W        W48200   0.562  15.609   4.125
81792W        W48201   4.724   9.148   2.720
81793W        W48202  15.139  43.099   4.608
81794W        W48203  10.431  41.911   0.159
81795W        W48204  11.573   0.126   4.610
81796W        W48205  18.913  42.435   0.325
81797W        W48206  36.634  44.027   2.816
81798W        W48207  25.469  35.501   4.093
81799W        W48208  29.682  41.127   0.831
81800W        W48209  19.742  24.130   4.722
81801W        W48210   7.237   5.854  14.264
81802W        W48211   5.288  38.395  12.429
81803W        W48212  40.092  16.999  11.997
81804W        W48213  35.364   1.726   2.860
81805W        W48214  22.776  24.171  11.358
81806W        W48215   2.276   6.533  11.435
81807W        W48216  20.197  37.425   2.157
81808W        W48217  24.573  21.022  14.010
81809W        W48218  23.957  38.615  11.254
81810W        W48219  37.407   7.801  14.306
81811W        W48220  44.537  11.683   1.303
81812W        W48221   5.975  27.082  14.034
81813W        W48222   4.730  21.170   3.757
81814W        W48223  32.089   1.486  13.376
81815W        W48224  43.515  44.233   3.834
81816W        W48225  28.615  39.565  13.176
81817W        W48226  39.940  23.196   4.128
81818W        W48227  39.953  14.087   3.276
81819W        W48228  17.694  34.846   3.706
81820W        W48229  17.745  35.312   0.039
81821W        W48230  13.737   7.096  12.607
81822W        W48231  25.127  30.468  14.022
81823W        W48232  29.218  43.600  11.111
81824W        W48233  32.768  37.708  14.932
81825W        W48234  31.991  18.799  13.769
81826W        W48235  27.954  13.320   0.292
81827W        W48236  31.509  24.364   0.043
81828W        W48237  31.589  25.430  11.611
81829W        W48238  26.484  29.022   0.740
81830W        W48239  35.026  21.611   0.393
81831W        W48240  44.373   6.503  14.485
81832W        W48241  24.522   9.825  12.032
81833W        W48242  17.417  10.956   2.195
81834W        W48243  33.455  24.719  13.118
81835W        W48244   3.766  22.817  13.914
81836W        W48245  20.485  40.989   4.085
81837W        W48246  13.162   3.906   3.628
81838W        W48247  20.275   8.807   1.515
81839W        W48248  16.048  41.884   0.890
81840W        W48249  13.242  26.052   1.797
81841W        W48250  42.503  15.268   1.831
81842W        W48251  33.592  31.649   5.074
81843W        W48252   7.209  37.866  14.864
81844W        W48253  19.701  16.987  13.886
81845W        W48254  20.735  21.098  12.395
81846W        W48255  28.960  15.079  12.459
81847W        W48256   3.536   0.549   3.414
81848W        W48257  25.281  32.568   2.301
81849W        W48258  19.035  15.653  14.841
81850W        W48259   1.003  38.995   2.888
81851W        W48260  43.402   4.665  11.000
81852W        W48261   9.614  28.848   2.412
81853W        W48262   3.359  21.111   2.409
81854W        W48263   6.173  11.766  12.162
81855W        W48264  26.338   2.808   4.741
81856W        W48265  21.488  27.653  14.841
81857W        W48266  21.992  41.877  12.336
81858W        W48267   5.219  42.814  11.736
81859W        W48268  44.192  22.740   1.203
81860W        W48269  24.129  17.403   4.044
81861W        W48270   8.373   8.932  10.772
81862W        W48271   6.812  31.010  12.903
81863W        W48272  39.585  19.506  13.039
81864W        W48273  39.073  38.917   0.436
81865W        W48274  30.653  29.169   3.713
81866W        W48275  29.518   9.242  11.853
81867W        W48276  19.780  19.118   1.247
81868W        W48277  26.056  14.127  13.940
81869W        W48278  16.123  43.724   0.679
81870W        W48279  18.707   6.666   4.487
81871W        W48280  12.310  36.464  12.393
81872W        W48281  13.767  22.641   4.075
81873W        W48282  24.980  14.944  14.254
81874W        W48283  41.287   2.199  14.809
81875W        W48284  16.733  35.928   1.804
81876W        W48285  18.176  18.622   0.669
81877W        W48286  13.590  20.914  12.222
81878W        W48287  18.006   6.788  11.572
81879W        W48288  44.393  16.121  10.890
81880W        W48289  10.257  25.913  13.551
81881W        W48290   0.034  17.056  12.783
81882W        W48291   9.023  44.988  12.977
81883W        W48292   2.223   3.284  14.580
81884W        W48293  24.057  44.329  12.883
81885W        W48294  14.010  41.771   0.263
81886W        W48295  28.146   5.603   5.271
81887W        W48296   9.669  23.631   4.632
81888W        W48297  10.399  40.972  10.722
81889W        W48298  14.204   6.800  14.890
81890W        W48299  12.057  10.119   0.782
81891W        W48300  31.532  13.147   4.410
81892W        W48301  44.960  28.443   0.731
81893W        W48302  27.727  17.324  14.785
81894W        W48303  41.004  23.603  12.645
81895W        W48304  27.423  11.161   2.949
81896W        W48305   6.852  13.267  14.757
81897W        W48306   8.185   2.365  11.485
81898W        W48307   1.726  35.823  12.413
81899W        W48308   7.708  21.598  12.309
81900W        W48309   8.606  15.225   4.082
81901W        W48310   8.285   2.800   2.799
81902W        W48311  25.017   2.766   2.703
81903W        W48312   0.290   2.358   0.823
81904W        W48313  39.083  24.636  14.425
81905W        W48314   2.934  36.568   1.034
81906W        W48315  17.518  44.342   0.916
81907W        W48316  15.992  36.954  12.025
81908W        W48317   7.313  16.985   2.219
81909W        W48318  11.099  42.811  12.400
81910W        W48319  25.767  20.251   0.491
81911W        W48320  32.753  39.008  14.141
81912W        W48321  27.229   7.719  12.285
81913W        W48322  28.425  28.916  14.275
81914W        W48323   3.165   2.520   2.356
81915W        W48324  12.031  27.479   1.906
81916W        W48325  28.226  44.886  14.997
81917W        W48326  12.294  17.282   2.835
81918W        W48327  29.961  40.000  12.055
81919W        W48328  12.286  37.430   3.905
81920W        W48329   3.945  36.136  11.164
81921W        W48330  13.722   7.318  14.542
81922W        W48331  33.745  23.633  10.717
81923W        W48332  35.327  10.583  13.601
81924W        W48333  18.760  44.719   4.486
81925W        W48334  32.114   3.717  14.734
81926W        W48335   9.211  14.982   3.921
81927W        W48336  17.136  43.670   4.884
81928W        W48337  35.059  21.571   2.644
81929W        W48338  39.907   3.273   0.095
81930W        W48339   6.753   2.949   0.863
81931W        W48340  38.558  36.444  14.504
81932W        W48341  40.112  28.862   1.296
81933W        W48342   9.189  12.922   3.360
81934W        W48343  31.449  11.154   2.749
81935W        W48344  14.433   8.712  13.298
81936W        W48345  38.990  12.604  10.354
81937W        W48346  20.594   9.398  12.136
81938W        W48347  26.448  21.119  11.685
81939W        W48348  38.231  38.315   2.153
81940W        W48349   3.957   6.939  13.162
81941W        W48350  17.095   6.280  12.590
81942W        W48351  40.495   5.983  10.659
81943W        W48352  24.904   1.391  13.017
81944W        W48353  18.047  19.300   3.147
81945W        W48354  33.051   6.520   2.390
81946W        W48355  35.676  13.313  13.998
81947W        W48356  13.115  28.087   2.233
81948W        W48357  14.656  15.806   1.441
81949W        W48358  25.211  42.187   2.884
81950W        W48359   8.988  29.902  13.857
81951W        W48360   3.056  19.784  12.015
81952W        W48361  21.715   4.231   4.621
81953W        W48362   1.681  35.796  14.341
81954W        W48363  38.097  31.013  13.027
81955W        W48364  35.975   8.786  12.403
81956W        W48365  20.112  11.240  12.012
81957W        W48366   8.166   7.350  10.351
81958W        W48367  20.432  32.930  13.769
81959W        W48368   8.397  15.823   4.709
81960W        W48369  19.140  18.804   0.176
81961W        W48370  37.341  32.339  13.135
81962W        W48371  42.013  23.782   3.320
81963W        W48372   6.217  11.104  12.597
81964W        W48373   0.902  39.992  11.552
81965W        W48374  33.133  25.552  12.123
81966W        W48375  20.263  44.926  12.616
81967W        W48376  25.141  36.346  10.701
81968W        W48377  18.812  24.889   3.025
81969W        W48378  38.165  36.200   0.349
81970W        W48379  10.417  35.629   3.816
81971W        W48380  36.600  23.709   1.150
81972W        W48381  17.222   1.591  14.751
81973W        W48382  27.720  17.519  12.372
81974W        W48383  16.539  20.297  14.459
81975W        W48384   7.946  23.454   5.435
81976W        W48385   2.900  33.377   4.259
81977W        W48386  14.168   2.037   4.181
81978W        W48387  19.960  10.092   4.837
81979W        W48388  23.741  32.573  11.075
81980W        W48389  11.539   6.743   3.363
81981W        W48390   3.277  30.982   1.773
81982W        W48391  20.341   2.499   1.838
81983W        W48392  14.308  16.739   3.796
81984W        W48393  16.740   9.092  11.552
81985W        W48394   9.633  22.184   4.481
81986W        W48395  22.967  39.952   1.762
81987W        W48396  25.559   8.649  11.649
81988W        W48397   9.081  14.673   0.341
81989W        W48398  30.481  30.890   2.692
81990W        W48399  29.496  41.578  13.400
81991W        W48400   7.412  24.672   1.333
81992W        W48401  37.657  23.666   0.275
81993W        W48402  31.361  23.734   4.413
81994W        W48403  32.339  22.714   4.604
81995W        W48404  22.103  22.798   3.625
81996W        W48405   8.551  20.559  11.989
81997W        W48406  35.359  32.176  10.747
81998W        W48407  31.678  19.114   1.797
81999W        W48408  32.654  34.298   0.893
82000W        W48409   4.335  35.353  13.707
82001W        W48410  35.466  10.648   3.360
82002W        W48411  37.007  32.678  10.651
82003W        W48412  25.858   7.448   4.210
82004W        W48413   6.685  20.203  14.821
82005W        W48414  32.853  41.563  12.556
82006W        W48415  41.018  29.586  10.545
82007W        W48416  29.191   3.469   3.405
82008W        W48417  35.852  31.466   3.117
82009W        W48418  36.544  27.049   1.400
82010W        W48419  34.404   2.655  12.144
82011W        W48420  24.472  20.012   3.095
82012W        W48421  35.729   2.895  11.556
82013W        W48422  11.889  41.091   3.165
82014W        W48423  16.110  44.009   4.896
82015W        W48424   8.677  15.124  12.406
82016W        W48425  26.159  29.859   0.254
82017W        W48426   4.213   0.554   1.709
82018W        W48427  14.368  41.699   4.154
82019W        W48428  42.337  25.751   3.368
82020W        W48429  38.831  35.415   4.870
82021W        W48430  19.689  42.436   2.816
82022W        W48431   9.814  30.531   1.360
82023W        W48432  41.409  43.460  13.062
82024W        W48433  18.522  13.204  11.188
82025W        W48434  25.098   4.695  10.685
82026W        W48435  35.496  15.178   3.871
82027W        W48436   2.649   7.208   2.757
82028W        W48437  16.781  35.069  10.760
82029W        W48438   7.408  42.716   0.920
82030W        W48439  19.752  23.226   5.194
82031W        W48440  33.504  44.971   0.223
82032W        W48441   0.725  24.081  12.902
82033W        W48442  36.882  24.432  10.766
82034W        W48443  10.108  30.027   4.338
82035W        W48444  14.203  14.340   1.242
82036W        W48445  41.675  14.160  11.222
82037W        W48446  40.937  43.330  13.273
82038W        W48447  33.422  44.342   2.235
82039W        W48448  18.467  41.481  11.559
82040W        W48449   9.883  30.882  11.592
82041W        W48450   3.504   9.269  10.823
82042W        W48451   8.087  31.610  12.913
82043W        W48452  33.007  13.916   3.287
82044W        W48453   5.833  32.056   1.976
82045W        W48454  17.005  33.620   4.927
82046W        W48455  15.766  43.730   1.821
82047W        W48456  21.485  43.555  13.154
82048W        W48457  34.966   8.185  10.536
82049W        W48458  18.417   6.752   4.056
82050W        W48459   9.895  27.627  11.963
82051W        W48460  13.370  24.953   3.771
82052W        W48461   4.306  29.871  12.660
82053W        W48462  27.855  25.702  13.025
82054W        W48463  21.827   8.395  10.627
82055W        W48464   1.347  13.667   2.887
82056W        W48465   8.973  12.405  12.041
82057W        W48466  24.440  20.282   0.262
82058W        W48467   1.537  30.113   4.647
82059W        W48468  17.686   0.812  14.941
82060W        W48469  32.433  44.340   3.199
82061W        W48470  40.533   8.049   4.899
82062W        W48471  41.561  24.407   0.426
82063W        W48472  32.249   5.480   9.963
82064W        W48473  24.590  33.312   2.389
82065W        W48474  43.036  43.301   1.860
82066W        W48475  38.173  21.143   3.801
82067W        W48476  33.064   2.738   1.643
82068W        W48477  10.393   9.183   0.651
82069W        W48478  41.025  16.537   1.911
82070W        W48479  44.984   0.174  12.569
82071W        W48480  41.726  38.352  13.470
82072W        W48481  20.342  38.073  13.950
82073W        W48482  40.412   3.931  12.519
82074W        W48483  25.314  24.954   0.725
82075W        W48484  29.478  27.843  14.916
82076W        W48485  31.985  22.454  10.798
82077W        W48486  32.979   8.376   4.586
82078W        W48487  28.015  38.830  12.389
82079W        W48488   7.604  15.331   2.840
82080W        W48489  16.835   1.474   4.517
82081W        W48490  30.367  23.489  13.092
82082W        W48491  39.749  35.947   3.307
82083W        W48492   3.433   2.983  10.637
82084W        W48493  16.477   3.393  12.906
82085W        W48494  21.573  27.653   3.224
82086W        W48495  17.621   8.738   1.923
82087W        W48496  35.623  10.161  13.565
82088W        W48497  11.394  40.518  13.920
82089W        W48498  26.943  26.088   0.282
82090W        W48499   9.105  23.142  12.037
82091W        W48500  36.832  37.601  11.191
82092W        W48501  23.581  27.662   1.275
82093W        W48502  39.845  37.375   2.283
82094W        W48503   3.943   2.417  10.579
82095W        W48504  39.545   5.689   4.179
82096W        W48505   9.191  35.922   3.579
82097W        W48506   4.200  31.895   1.912
82098W        W48507  15.763  44.922  13.092
82099W        W48508  37.901   6.714   0.984
82100W        W48509  34.915  36.871   2.418
82101W        W48510  29.549  29.241   4.654
82102W        W48511   7.384  10.665   3.029
82103W        W48512  16.209   4.042   2.555
82104W        W48513  43.361  41.890  14.959
82105W        W48514  13.466   3.002   4.517
82106W        W48515   8.749  15.257   0.492
82107W        W48516  35.038  29.512   0.774
82108W        W48517  19.855  12.205  13.951
82109W        W48518  42.104  33.929   1.939
82110W        W48519  40.443  17.730   1.616
82111W        W48520  21.578  23.410  13.403
82112W        W48521   8.684  37.946  12.487
82113W        W48522  17.572  15.463   1.723
82114W        W48523   0.909   7.972  13.493
82115W        W48524  35.024  41.075   3.636
82116W        W48525   4.687   7.590  10.437
82117W        W48526  26.955  41.284  11.167
82118W        W48527  14.714  26.944   0.683
82119W        W48528   8.171   6.373  11.581
82120W        W48529  16.775  21.659  11.749
82121W        W48530  21.073  32.149   3.144
82122W        W48531  41.308  13.175   3.220
82123W        W48532  12.345  31.918   4.707
82124W        W48533   6.024  16.398  13.390
82125W        W48534  24.202  28.428  13.419
82126W        W48535  44.366  19.623   2.507
82127W        W48536  43.502  27.663  14.013
82128W        W48537  22.219  30.693   3.410
82129W        W48538   3.795  19.751  13.479
82130W        W48539  43.461  32.661  11.035
82131W        W48540  40.049  18.262   3.582
82132W        W48541  14.156  36.567  11.173
82133W        W48542  37.973  17.362   1.003
82134W        W48543  42.395  17.852   2.809
82135W        W48544   6.584   0.763  11.577
82136W        W48545  25.240  12.243   3.300
82137W        W48546  14.268  39.692  13.316
82138W        W48547  34.583  29.567   0.481
82139W        W48548  31.020  41.668  11.588
82140W        W48549  23.753  10.901   3.285
82141W        W48550  14.633  24.946   1.877
82142W        W48551  12.545  18.786   1.957
82143W        W48552  19.480  16.599  10.622
82144W        W48553  18.740  44.518  12.771
82145W        W48554  20.653  23.604   0.335
82146W        W48555  18.823   1.381  14.636
82147W        W48556  20.309   5.880  13.107
82148W        W48557  28.442  24.949  10.823
82149W        W48558  15.388  31.964  14.323
82150W        W48559  42.423  16.925   3.206
82151W        W48560  42.053  31.086   2.762
82152W        W48561  42.771   2.165  12.096
82153W        W48562   6.686  35.878  11.139
82154W        W48563  43.840  26.152   0.758
82155W        W48564  43.855   5.716  11.362
82156W        W48565  12.451  22.412   3.140
82157W        W48566  19.632  13.383   1.810
82158W        W48567  31.570  11.809   0.067
82159W        W48568   7.649   3.914   2.955
82160W        W48569  26.566  44.235   2.427
82161W        W48570  34.306  20.575  12.034
82162W        W48571  26.780  36.009  13.424
82163W        W48572  26.272  34.851  14.010
82164W        W48573  43.090  44.473  10.722
82165W        W48574  38.365  10.664   2.927
82166W        W48575  28.059  19.542  12.063
82167W        W48576   6.934  24.130   4.045
82168W        W48577  44.026  12.515  12.571
82169W        W48578  38.857  16.136   1.240
82170W        W48579   6.171   8.736  13.378
82171W        W48580  17.085   0.045   3.717
82172W        W48581  35.067  29.755   1.328
82173W        W48582  30.934  16.565  13.146
82174W        W48583   1.931  18.515  12.886
82175W        W48584  29.131  39.448  11.122
82176W        W48585  33.488  10.453   4.330
82177W        W48586  36.668  41.016  14.269
82178W        W48587   6.813  15.419  13.261
82179W        W48588   3.844  17.660  14.468
82180W        W48589   9.327  38.513   4.552
82181W        W48590  30.984   8.026   3.292
82182W        W48591  19.309  31.273   1.647
82183W        W48592  41.584  15.654   4.077
82184W        W48593  13.010   8.223   0.118
82185W        W48594  18.294  35.012  12.870
82186W        W48595  29.302  19.550  11.588
82187W        W48596  34.383  11.242  14.022
82188W        W48597   2.191   2.178  13.409
82189W        W48598  41.181  11.104  12.975
82190W        W48599  24.433   0.032  12.437
82191W        W48600  34.407  27.481  12.901
82192W        W48601  37.556  40.291   2.775
82193W        W48602   5.262  23.508   0.321
82194W        W48603  21.795  11.264   4.092
82195W        W48604  25.577  13.583   1.331
82196W        W48605  37.761  37.705   0.300
82197W        W48606   2.435  34.432   3.292
82198W        W48607  32.440  44.770  11.461
82199W        W48608  23.270  29.587  11.268
82200W        W48609  36.067  26.923  12.165
82201W        W48610  42.770  21.638  13.420
82202W        W48611  13.690   0.312   0.815
82203W        W48612  21.522  30.918   1.856
82204W        W48613  42.384  15.987   2.844
82205W        W48614  19.576  37.002  14.391
82206W        W48615   0.759  31.589  11.104
82207W        W48616  28.579  21.209   3.026
82208W        W48617  11.317   4.174   0.493
82209W        W48618  41.295  29.409   1.149
82210W        W48619  19.582  26.753   3.296
82211W        W48620   1.919  14.618  13.108
82212W        W48621  40.403  15.148  11.847
82213W        W48622  26.725   9.420   3.576
82214W        W48623  36.364  15.617   5.094
82215W        W48624  34.586   4.293   2.900
82216W        W48625  16.707  26.751   3.290
82217W        W48626  35.573  10.116   0.559
82218W        W48627  20.819   2.979   4.778
82219W        W48628  15.177  12.888  11.081
82220W        W48629  41.788  14.673  11.228
82221W        W48630  18.523   3.973   1.715
82222W        W48631  22.263  17.973   4.678
82223W        W48632  43.712  29.687  11.131
82224W        W48633  31.636  16.379  14.907
82225W        W48634  19.078  18.240  14.038
82226W        W48635  34.332  25.130  13.532
82227W        W48636  37.724  26.311  11.603
82228W        W48637  20.094  29.243   4.152
82229W        W48638   8.241  20.102  11.348
82230W        W48639   2.958  23.918  10.515
82231W        W48640  30.546  44.322  13.389
82232W        W48641  37.483  27.059  11.827
82233W        W48642  33.729  12.148  14.143
82234W        W48643  20.954  26.892   4.840
82235W        W48644  14.829  41.638  11.953
82236W        W48645  38.889   7.772  12.201
82237W        W48646  16.096  31.295   4.918
82238W        W48647  42.626  17.596  14.197
82239W        W48648  10.814   6.188   0.467
82240W        W48649  42.374  17.313   3.537
82241W        W48650  16.288  15.016  12.863
82242W        W48651  13.280   4.493   2.749
82243W        W48652   3.337  19.348   0.835
82244W        W48653  32.089  28.200   4.628
82245W        W48654   8.235   0.009   3.410
82246W        W48655  36.354  35.588  11.319
82247W        W48656  35.758  20.966   3.657
82248W        W48657  13.832  32.337   0.349
82249W        W48658  20.764  19.677   0.457
82250W        W48659   1.484   5.117   0.370
82251W        W48660   1.469   1.070   1.167
82252W        W48661  30.991  28.606   3.703
82253W        W48662  36.324   1.910   4.959
82254W        W48663   0.448   8.724  14.922
82255W        W48664  22.831   3.337   3.876
82256W        W48665  16.691  13.655   0.311
82257W        W48666  20.772  21.068   0.465
82258W        W48667  16.849  37.447   1.253
82259W        W48668  16.692  43.371   4.904
82260W        W48669  35.862  29.723  14.917
82261W        W48670  18.022   8.154  11.950
82262W        W48671   8.333  13.901   2.355
82263W        W48672   2.352  18.045  14.002
82264W        W48673  10.809  26.110   3.130
82265W        W48674  44.902  41.473  11.873
82266W        W48675   3.853  35.163  13.783
82267W        W48676  29.653  44.353   2.840
82268W        W48677  39.022   9.634   1.991
82269W        W48678  32.345  38.520   0.002
82270W        W48679  42.004  41.975   2.835
82271W        W48680  44.931  30.132   1.303
82272W        W48681  19.196  33.820  12.345
82273W        W48682  28.038  33.186   3.138
82274W        W48683  41.842  41.935  11.599
82275W        W48684  44.896  23.567  11.898
82276W        W48685  26.201  26.640  11.171
82277W        W48686  41.761  10.924   4.161
82278W        W48687  36.025   7.422  13.795
82279W        W48688  32.452  31.838   3.960
82280W        W48689  35.487  40.881  11.679
82281W        W48690  39.881  41.448  14.557
82282W        W48691  18.243  25.667  13.090
82283W        W48692   7.926   1.522   3.677
82284W        W48693   4.060   4.597  13.837
82285W        W48694  40.347  37.329   1.388
82286W        W48695  21.031   3.487   4.513
82287W        W48696  33.903  37.628   1.239
82288W        W48697  41.940  24.551  10.652
82289W        W48698   4.833  30.041   4.799
82290W        W48699   0.442  39.995  11.878
82291W        W48700  10.564  13.235  12.474
82292W        W48701  40.023  42.959   0.184
82293W        W48702  13.699  30.457   0.194
82294W        W48703  43.058   2.026   0.722
82295W        W48704  17.812  27.800  10.858
82296W        W48705  23.429  13.223   2.255
82297W        W48706   7.838  25.873   4.992
82298W        W48707   4.903   0.011  14.993
82299W        W48708  18.042   0.173   3.670
82300W        W48709  40.329   5.123   4.095
82301W        W48710   7.417  10.383  14.055
82302W        W48711  27.226  35.413   1.697
82303W        W48712   4.653  29.871   1.638
82304W        W48713  35.393  40.397  12.498
82305W        W48714  40.067  10.816  14.889
82306W        W48715   1.455  13.759  14.117
82307W        W48716  23.717   9.371  14.491
82308W        W48717   2.969  33.709  13.381
82309W        W48718  41.643  15.205   4.325
82310W        W48719  27.271  34.854  14.714
82311W        W48720   4.377  26.260  11.754
82312W        W48721  40.585  41.256  11.603
82313W        W48722  41.454  37.144  13.961
82314W        W48723  12.374  30.991  14.467
82315W        W48724   8.191  32.713  11.615
82316W        W48725   1.035  11.782   1.134
82317W        W48726   3.919  41.450   1.139
82318W        W48727  11.459  34.935  12.756
82319W        W48728   5.804  11.376   4.635
82320W        W48729   0.767  22.784  13.436
82321W        W48730  25.146   1.790   2.296
82322W        W48731   3.793  15.650   2.305
82323W        W48732   6.681  37.597   1.999
82324W        W48733  18.560  38.483  14.934
82325W        W48734  41.595   5.480  11.636
82326W        W48735   2.839  43.885  14.325
82327W        W48736  33.843  27.198  14.442
82328W        W48737  10.840  42.816  12.841
82329W        W48738  42.437  15.209  13.951
82330W        W48739   8.284  12.480   4.674
82331W        W48740  44.343  21.535   1.711
82332W        W48741  16.757  31.980  12.491
82333W        W48742   8.533   8.493   3.609
82334W        W48743   4.282  41.430   2.254
82335W        W48744  18.080  16.199   2.754
82336W        W48745  39.452   9.312  13.948
82337W        W48746  13.085  39.483  12.084
82338W        W48747  16.855  17.094  12.823
82339W        W48748  23.165  32.136  11.689
82340W        W48749   7.743  36.938   0.831
82341W        W48750   0.689   2.280  12.041
82342W        W48751  39.543  18.594   3.999
82343W        W48752  39.965  20.073  11.148
82344W        W48753  44.003  10.772   2.322
82345W        W48754  23.038  14.807  11.184
82346W        W48755  14.099  27.198   3.600
82347W        W48756  28.962  32.366  12.924
82348W        W48757  11.919  24.171   0.891
82349W        W48758  43.800   6.712  11.533
82350W        W48759  29.148  36.575  14.828
82351W        W48760  12.751   0.943   3.703
82352W        W48761  32.122  22.153  11.200
82353W        W48762  15.669  24.317   5.007
82354W        W48763  37.520   7.395   1.329
82355W        W48764  10.158  23.978   3.829
82356W        W48765  11.114   5.273  13.965
82357W        W48766  26.183  15.871   0.948
82358W        W48767  21.920  20.561   3.256
82359W        W48768  11.100  17.849  10.481
82360W        W48769  31.647  17.259  12.370
82361W        W48770  30.488  13.781  13.850
82362W        W48771  21.100   9.408  13.302
82363W        W48772  42.534  25.337  11.199
82364W        W48773  38.361   9.295   1.806
82365W        W48774   0.023   3.113   1.163
82366W        W48775  31.858   6.579  14.874
82367W        W48776   7.743  35.099  11.189
82368W        W48777  14.751   7.262  11.424
82369W        W48778  12.322   1.475  13.056
82370W        W48779  37.580  44.604  10.998
82371W        W48780  21.875  38.062  12.604
82372W        W48781   4.934  24.946  11.665
82373W        W48782   4.984  40.529   4.153
82374W        W48783  13.902  15.269   4.200
82375W        W48784  37.493  27.014   3.724
82376W        W48785  19.833  10.496  12.542
82377W        W48786  31.603  28.282   3.300
82378W        W48787  14.533  39.752   4.659
82379W        W48788  35.483   0.638   4.311
82380W        W48789  33.017  12.736   3.542
82381W        W48790  18.668  29.359  11.316
82382W        W48791  27.168  22.432  11.960
82383W        W48792  23.314  14.579   3.431
82384W        W48793   8.102  11.362   3.870
82385W        W48794  12.794  23.973   3.843
82386W        W48795  19.455  44.442   1.334
82387W        W48796  24.177   7.029   1.921
82388W        W48797  30.946  12.260   0.499
82389W        W48798  15.360  44.329  14.113
82390W        W48799  23.742   9.620  14.037
82391W        W48800  13.432  31.521  11.543
82392W        W48801   8.227  19.844   0.155
82393W        W48802  11.231  27.009   1.416
82394W        W48803  13.731  28.961   2.319
82395W        W48804  27.066  27.048   4.009
82396W        W48805  16.278  18.994  11.597
82397W        W48806  13.147  25.889  12.960
82398W        W48807  44.791  21.283   1.749
82399W        W48808   5.993  31.361  12.864
82400W        W48809  25.612  37.418   2.167
82401W        W48810  20.849   2.499   4.083
82402W        W48811  26.602  22.201  14.297
82403W        W48812  31.510   9.282   1.190
82404W        W48813  30.100   5.964   2.289
82405W        W48814   9.588   6.195  14.801
82406W        W48815  12.084   0.603   0.249
82407W        W48816  18.053  29.117   2.333
82408W        W48817  22.304  36.778  14.140
82409W        W48818  23.387  17.525   2.182
82410W        W48819   9.083  40.733  14.091
82411W        W48820  41.438   2.968  13.046
82412W        W48821  16.203   4.817   0.359
82413W        W48822  19.301  17.278   1.167
82414W        W48823  34.961  44.519   2.160
82415W        W48824  13.581  38.602   4.737
82416W        W48825  26.602  13.409  11.738
82417W        W48826  30.892  40.152   4.083
82418W        W48827  25.477  43.997   3.817
82419W        W48828   1.013   9.738  12.180
82420W        W48829  17.867   5.796  14.343
82421W        W48830   9.993  37.186  13.982
82422W        W48831  33.698   5.532  14.902
82423W        W48832  10.060  40.027  11.711
82424W        W48833  28.489  43.006  12.170
82425W        W48834  42.026  12.096  10.524
82426W        W48835   7.475  30.056   1.993
82427W        W48836  30.113  13.038  12.202
82428W        W48837  43.762  15.246  14.855
82429W        W48838  32.575  18.042   1.408
82430W        W48839  25.030  17.991   4.140
82431W        W48840  32.329  13.605   4.288
82432W        W48841  44.796   9.494   3.475
82433W        W48842  19.683  33.655  11.004
82434W        W48843  23.329  37.065   4.519
82435W        W48844  16.808   4.741  13.902
82436W        W48845  32.657   5.928   3.269
82437W        W48846  43.060  38.310  11.677
82438W        W48847  40.598   5.909  14.960
82439W        W48848  25.060  18.134  10.610
82440W        W48849  12.153  15.302  11.409
82441W        W48850  18.694  16.383   3.843
82442W        W48851  15.695  32.833   0.269
82443W        W48852  43.494  26.095   3.646
82444W        W48853  26.996  17.599  14.439
82445W        W48854  27.218   2.319   5.029
82446W        W48855   5.206  19.337  10.725
82447W        W48856  28.662  26.770   3.770
82448W        W48857  17.489   5.616   4.088
82449W        W48858  41.962  18.106   0.811
82450W        W48859   5.133  43.842   0.532
82451W        W48860  15.272  37.406   1.684
82452W        W48861  34.038   0.848   0.392
82453W        W48862   0.537   6.040   0.563
82454W        W48863  32.430  29.596   1.158
82455W        W48864   2.502   6.377   4.611
82456W        W48865  34.412  35.038   0.200
82457W        W48866  24.458   7.240   0.789
82458W        W48867  13.207  33.964   1.117
82459W        W48868  17.220  39.290  11.864
82460W        W48869  10.916   2.826   4.049
82461W        W48870  43.913  23.470  11.470
82462W        W48871  35.561  32.424  14.402
82463W        W48872   7.713  38.386   0.991
82464W        W48873  20.547   4.554  12.427
82465W        W48874  30.899   3.800  13.657
82466W        W48875  12.348  42.797   2.896
82467W        W48876  38.522  21.775  11.918
82468W        W48877   3.801  17.306   2.669
82469W        W48878  29.056  31.758  13.592
82470W        W48879  38.893  44.241  12.977
82471W        W48880   4.899  32.583  13.579
82472W        W48881  15.720  17.513   1.722
82473W        W48882  29.231  25.141  12.053
82474W        W48883  14.533  15.853  14.572
82475W        W48884  38.085   2.942  10.600
82476W        W48885  38.327  25.100   0.332
82477W        W48886  16.331  44.023   0.274
82478W        W48887   7.310  37.815   2.819
82479W        W48888  44.763  19.759   2.169
82480W        W48889  17.165  32.059  14.082
82481W        W48890   0.504  18.317  10.836
82482W        W48891  17.790  42.786  13.956
82483W        W48892  11.659  39.434  13.048
82484W        W48893  15.213   5.866  10.949
82485W        W48894  21.829  12.211  11.116
82486W        W48895   7.013  21.841   1.338
82487W        W48896  14.760  12.574  14.812
82488W        W48897   0.571   2.919   0.292
82489W        W48898  15.167  19.799   0.469
82490W        W48899  32.910  33.826  11.194
82491W        W48900  19.153  30.936   3.638
82492W        W48901  10.102  23.635   0.540
82493W        W48902   5.924   7.924  11.112
82494W        W48903  32.377  11.345  12.583
82495W        W48904  38.108   3.263  14.606
82496W        W48905  23.222  39.232   2.855
82497W        W48906   3.713  27.419   2.377
82498W        W48907  35.973  10.570   3.648
82499W        W48908   8.220  23.544   2.383
82500W        W48909  21.087  12.958   4.282
82501W        W48910  28.686   3.790   2.328
82502W        W48911   7.214  33.200   0.402
82503W        W48912  26.417  23.129  10.774
82504W        W48913  19.528   2.155   3.094
82505W        W48914  37.628   1.379  12.916
82506W        W48915  15.639  25.792  13.387
82507W        W48916  13.170  43.476   3.443
82508W        W48917  41.951  27.342   2.695
82509W        W48918  21.089  43.534   1.908
82510W        W48919  17.691  37.599  14.495
82511W        W48920   4.298  17.949   0.751
82512W        W48921  27.391   6.094   0.836
82513W        W48922  42.379  42.381  12.001
82514W        W48923   6.507   1.398  13.676
82515W        W48924  42.728  35.301   1.977
82516W        W48925  27.303  24.024   2.695
82517W        W48926  10.238  10.151   2.358
82518W        W48927  38.060   2.014  12.676
82519W        W48928  18.657  38.500  13.567
82520W        W48929  13.273  37.432  14.731
82521W        W48930  16.822  44.687   1.270
82522W        W48931  16.192   3.570  14.957
82523W        W48932   1.381  14.902   1.441
82524W        W48933   4.516  20.165   1.891
82525W        W48934  29.767  31.407   2.310
82526W        W48935  29.414  40.821  13.066
82527W        W48936   5.154  29.918   1.789
82528W        W48937   0.253  34.074  12.521
82529W        W48938  21.958  44.308  12.020
82530W        W48939  34.528  37.169   3.740
82531W        W48940  33.167   0.847   2.054
82532W        W48941  21.084  37.656  12.558
82533W        W48942  36.559   0.809   1.182
82534W        W48943   9.647  18.049   4.810
82535W        W48944  44.624  32.000   4.631
82536W        W48945  26.244  27.908   3.844
82537W        W48946   7.605   7.822   1.892
82538W        W48947  23.770   7.665  12.343
82539W        W48948  18.299  28.198   0.354
82540W        W48949  10.792   7.320  12.090
82541W        W48950   9.087  44.888   3.184
82542W        W48951  34.611  23.928  10.792
82543W        W48952   7.764  21.130   4.526
82544W        W48953  15.384  37.323  13.980
82545W        W48954   2.867  26.634   3.818
82546W        W48955  18.144  17.713  13.041
82547W        W48956   1.902  10.521   1.998
82548W        W48957  32.824   5.450  12.094
82549W        W48958   4.973  39.897   4.303
82550W        W48959   4.494  16.110  11.864
82551W        W48960   0.988  39.962   1.842
82552W        W48961  44.205  41.583  12.607
82553W        W48962  31.073  36.463   0.552
82554W        W48963   0.495   4.996  13.067
82555W        W48964   0.434   1.698   4.020
82556W        W48965  16.459  42.582  11.816
82557W        W48966  44.950  24.106   1.477
82558W        W48967   1.849   8.370  14.885
82559W        W48968  36.028  24.202   2.713
82560W        W48969  26.546  35.987   0.761
82561W        W48970  12.944  17.755   3.171
82562W        W48971  37.508  27.217  13.956
82563W        W48972   0.771  20.222   0.316
82564W        W48973  37.081  23.430  12.186
82565W        W48974  31.493  25.071   0.011
82566W        W48975  39.393   9.171   3.401
82567W        W48976  14.120   5.133   1.255
82568W        W48977  21.717  27.990   3.600
82569W        W48978  28.604  41.582  13.503
82570W        W48979  36.111  18.018  11.012
82571W        W48980  21.527   9.607  12.500
82572W        W48981   5.936   3.771   3.750
82573W        W48982  16.760  15.087   0.409
82574W        W48983  42.541  39.401   3.785
82575W        W48984  16.475  10.263  14.064
82576W        W48985  18.307   0.998  11.620
82577W        W48986  14.384  37.853  13.427
82578W        W48987   1.625  43.523   4.129
82579W        W48988  28.099  36.954   0.723
82580W        W48989   0.005  20.249   2.222
82581W        W48990   5.927   1.532  14.751
82582W        W48991  20.832  21.382  11.945
82583W        W48992   9.323  39.069   0.867
82584W        W48993  22.511  26.193   0.391
82585W        W48994  43.406   6.337   4.510
82586W        W48995  40.448  20.148   1.856
82587W        W48996   7.603  18.677   0.370
82588W        W48997  18.817   4.689   0.907
82589W        W48998   9.287  26.904  12.855
82590W        W48999  12.781  30.754  12.540
82591W        W49000  11.273   5.651  11.449
82592W        W49001  22.192   4.468   4.401
82593W        W49002  26.678  25.489   2.205
82594W        W49003  40.599  13.429  14.775
82595W        W49004  10.258  18.488   1.666
82596W        W49005  37.640  34.940   4.787
82597W        W49006   7.136  19.716   0.921
82598W        W49007   9.893  36.921  13.523
82599W        W49008  16.746  11.609   2.219
82600W        W49009  35.383  30.222   4.222
82601W        W49010  12.069  31.468   4.736
82602W        W49011  12.127   8.830  13.528
82603W        W49012   2.835  30.019  11.758
82604W        W49013  15.385  40.015   3.789
82605W        W49014  17.772  38.879   0.879
82606W        W49015   7.118  12.020  11.006
82607W        W49016  38.797   3.792   0.676
82608W        W49017  42.550  36.352  11.002
82609W        W49018   3.408   4.591  12.611
82610W        W49019  23.593  38.255   1.187
82611W        W49020  28.720  14.626  12.465
82612W        W49021   7.419   0.346   0.878
82613W        W49022  24.066   8.159   2.816
82614W        W49023  40.567   4.272   0.832
82615W        W49024  36.547  40.438  14.865
82616W        W49025   3.498  22.572  12.788
82617W        W49026  13.457   0.192  12.994
82618W        W49027  10.324  32.915   2.095
82619W        W49028   1.240  34.770  11.990
82620W        W49029   7.366  44.477  11.183
82621W        W49030   3.229  20.028  14.348
82622W        W49031  38.901  28.028  13.584
82623W        W49032  37.107  37.426  13.851
82624W        W49033   7.554  12.587   3.142
82625W        W49034  26.983  11.094   4.106
82626W        W49035   0.317  22.509  11.067
82627W        W49036  10.921  42.405   1.885
82628W        W49037  22.985  19.990   0.205
82629W        W49038  35.748   1.975  13.698
82630W        W49039  21.039  26.455  10.636
82631W        W49040  43.936  42.995   1.448
82632W        W49041  23.785  40.370   0.660
82633W        W49042  11.701  12.437  12.991
82634W        W49043  44.480  34.585   4.805
82635W        W49044  23.303  20.093  13.297
82636W        W49045  43.771  29.107  12.541
82637W        W49046  37.266  12.841   2.825
82638W        W49047  13.540  38.542   3.127
82639W        W49048  19.308  40.842   1.149
82640W        W49049  16.301  14.197  11.202
82641W        W49050  43.483   3.438  12.903
82642W        W49051  44.867  23.650   0.739
82643W        W49052  37.844  40.883   4.668
82644W        W49053  36.495  41.076   1.834
82645W        W49054   8.183  39.301   0.204
82646W        W49055  33.626  25.132   3.447
82647W        W49056   9.462  14.545   2.367
82648W        W49057  12.759  15.971   5.048
82649W        W49058  21.556  34.091   1.450
82650W        W49059  20.708  33.395   1.491
82651W        W49060  28.104   1.380   4.704
82652W        W49061  28.112  31.538   3.178
82653W        W49062  37.218  13.212   3.628
82654W        W49063  41.302  20.682   2.145
82655W        W49064  41.472  17.657  12.458
82656W        W49065  40.384  12.764  13.399
82657W        W49066  29.080  41.714   3.253
82658W        W49067  21.268   0.364  13.077
82659W        W49068   4.638  38.432  12.935
82660W        W49069   9.305  39.581  12.756
82661W        W49070   3.575   9.213   3.034
82662W        W49071  13.083  31.688   1.842
82663W        W49072  44.981  34.167  12.949
82664W        W49073  27.892  23.141   1.012
82665W        W49074   4.411  14.431  13.839
82666W        W49075   6.730  11.194  10.468
82667W        W49076   2.461  39.034   1.085
82668W        W49077   7.490  10.375   9.833
82669W        W49078  35.697   0.300   4.780
82670W        W49079  43.931  20.070   3.660
82671W        W49080  10.421  42.769   1.677
82672W        W49081  22.097  25.240  13.417
82673W        W49082  29.626   8.925  11.083
82674W        W49083  13.901  33.648  10.876
82675W        W49084  22.448  32.088   1.307
82676W        W49085  21.666   5.769  12.960
82677W        W49086   3.186  38.325   3.213
82678W        W49087  34.882  15.818   3.597
82679W        W49088  31.474   8.387   0.664
82680W        W49089  23.825  17.153  12.773
82681W        W49090  42.337   1.941  14.025
82682W        W49091  10.377   6.693  11.471
82683W        W49092  12.138  23.646  10.604
82684W        W49093  40.285   3.732   1.134
82685W        W49094  42.816   1.370   1.904
82686W        W49095  26.018   8.359   2.521
82687W        W49096  10.846  20.111   0.361
82688W        W49097   5.712  38.372  11.508
82689W        W49098   3.751  23.662   2.667
82690W        W49099  34.530  31.544   1.694
82691W        W49100  21.737   6.152  11.503
82692W        W49101  40.330  32.739   4.256
82693W        W49102  13.540  15.621  12.163
82694W        W49103   7.365   5.155   3.302
82695W        W49104  43.273  21.156   3.167
82696W        W49105  28.651  33.469  10.574
82697W        W49106  40.738  23.671  14.119
82698W        W49107  31.439  40.620   3.133
82699W        W49108  12.387  12.870  14.788
82700W        W49109  39.569   2.669   1.883
82701W        W49110   1.071  39.814   3.242
82702W        W49111  30.495   6.696  11.959
82703W        W49112  22.044  25.083  10.671
82704W        W49113  27.916  22.317  13.087
82705W        W49114  33.111   3.287  12.123
82706W        W49115  10.642  24.319   2.614
82707W        W49116  20.243  35.848  13.317
82708W        W49117  21.096  37.541  11.619
82709W        W49118  17.090  34.152   4.230
82710W        W49119   3.346  39.409  10.747
82711W        W49120  20.955  18.209   2.277
82712W        W49121  13.606  27.442   0.368
82713W        W49122  21.736   9.999   1.803
82714W        W49123  33.563  29.702  11.756
82715W        W49124  22.613  37.230  13.460
82716W        W49125   2.238  22.278  10.623
82717W        W49126   6.850   2.541   1.183
82718W        W49127   9.209  14.256  14.364
82719W        W49128  20.770  19.646  11.662
82720W        W49129   2.212  36.597   4.172
82721W        W49130  23.628  26.861  10.645
82722W        W49131   8.222  23.204  12.020
82723W        W49132  21.674  42.299  11.564
82724W        W49133  26.762  15.071  12.029
82725W        W49134  20.272  34.808   0.905
82726W        W49135  43.834  24.652  12.328
82727W        W49136   7.823  20.997  11.658
82728W        W49137  17.434  17.217   5.585
82729W        W49138   5.727  21.939  14.612
82730W        W49139  10.473  24.948   3.702
82731W        W49140  34.803   2.169   0.377
82732W        W49141  15.385   0.315   2.407
82733W        W49142  42.819  11.187   3.210
82734W        W49143  41.320  41.636   2.888
82735W        W49144  16.227  37.651  14.826
82736W        W49145   3.677  14.166  10.573
82737W        W49146  35.553   5.873  13.400
82738W        W49147   9.619  24.988  10.300
82739W        W49148  31.465  23.479   3.131
82740W        W49149  38.341  44.334   4.354
82741W        W49150  23.446   7.835   0.283
82742W        W49151  35.441   4.201   1.843
82743W        W49152  39.379   7.949  10.846
82744W        W49153   2.946  43.740  11.396
82745W        W49154  17.254  44.800   3.299
82746W        W49155  39.339   4.475   2.282
82747W        W49156  20.075  18.867   4.304
82748W        W49157  22.335  44.818  10.365
82749W        W49158  35.978  34.167  14.434
82750W        W49159  43.216  21.111  14.042
82751W        W49160   1.433  16.766  11.837
82752W        W49161  41.376   8.717  12.590
82753W        W49162  38.709   9.472   2.777
82754W        W49163   2.994  40.082   3.274
82755W        W49164  39.935  35.472   2.393
82756W        W49165  42.963   6.887   4.926
82757W        W49166  42.672  42.418  10.154
82758W        W49167   5.696  14.160   0.187
82759W        W49168  29.172  28.442   4.692
82760W        W49169  34.726  42.910  14.569
82761W        W49170  18.017  24.520  12.579
82762W        W49171   9.922  28.541  13.338
82763W        W49172  38.001  44.952   3.773
82764W        W49173  44.526  32.342  12.227
82765W        W49174  38.099  40.469   0.881
82766W        W49175   2.503  20.125   2.239
82767W        W49176  27.534  24.484  10.738
82768W        W49177  42.269  28.545  12.116
82769W        W49178   0.302   6.425  11.812
82770W        W49179   1.508  12.616   0.409
82771W        W49180   6.908  14.197  10.615
82772W        W49181  14.244   2.545   4.104
82773W        W49182  12.359   8.622   3.631
82774W        W49183  11.807   9.370  12.951
82775W        W49184   9.304  34.009   0.311
82776W        W49185   5.199  41.226   2.177
82777W        W49186   4.196  28.602  13.245
82778W        W49187   1.532  25.173  14.805
82779W        W49188   6.692  14.287   0.401
82780W        W49189   5.988   1.004  14.876
82781W        W49190   3.916  10.617  14.177
82782W        W49191   9.179  44.875  12.482
82783W        W49192  20.067  38.114   3.289
82784W        W49193   3.448  41.309   0.941
82785W        W49194  37.534  31.069   1.379
82786W        W49195  42.797   0.115  13.888
82787W        W49196  34.561  25.889   0.037
82788W        W49197  41.539  29.899   2.725
82789W        W49198  18.513  17.015   0.049
82790W        W49199  28.358  29.387   0.606
82791W        W49200  44.985   1.031  11.660
82792W        W49201   4.743  38.762   4.605
82793W        W49202  12.271   6.045   2.295
82794W        W49203  22.308  29.098   2.873
82795W        W49204  27.391  35.519   0.750
82796W        W49205   5.383  21.403   1.983
82797W        W49206   8.133  10.832   4.028
82798W        W49207  38.153  34.104  12.888
82799W        W49208  14.579  20.119  12.396
82800W        W49209  19.925  36.459   5.114
82801W        W49210  40.208   8.676   4.170
82802W        W49211  39.510  10.347   4.187
82803W        W49212  16.170  13.145   4.267
82804W        W49213  18.040  39.464   4.095
82805W        W49214  33.465  36.640   3.605
82806W        W49215  25.997  33.087  13.405
82807W        W49216  36.974  29.658   0.457
82808W        W49217   6.858   9.746  11.272
82809W        W49218  31.548   3.861   2.761
82810W        W49219  24.607   1.810  14.360
82811W        W49220  42.378  11.842   1.259
82812W        W49221  25.789  12.849   4.509
82813W        W49222  40.771  20.644  14.505
82814W        W49223  11.858   7.710  12.110
82815W        W49224   9.912  17.289   2.330
82816W        W49225  31.016   4.042  12.550
82817W        W49226  28.499  35.903  10.533
82818W        W49227  15.242   8.063  13.457
82819W        W49228  26.107  12.811   0.376
82820W        W49229  11.810   2.311   5.037
82821W        W49230  33.794  35.808   3.708
82822W        W49231  16.265  41.868   1.385
82823W        W49232   5.192  17.622   4.174
82824W        W49233  32.924  12.603   1.854
82825W        W49234  10.366  16.398  13.887
82826W        W49235  10.735  13.608  12.095
82827W        W49236  16.857   7.619   4.272
82828W        W49237  33.646   1.260  13.523
82829W        W49238  12.379  41.282   0.608
82830W        W49239  27.004   4.426  11.534
82831W        W49240  15.768  28.983  12.595
82832W        W49241   0.562  39.867   3.159
82833W        W49242  18.685  39.661   3.239
82834W        W49243  33.654   1.760   4.609
82835W        W49244  28.281  31.209   0.306
82836W        W49245  40.148  31.553  12.623
82837W        W49246   2.241  11.263  11.644
82838W        W49247  41.656  33.617   1.254
82839W        W49248   8.658  43.456   2.851
82840W        W49249  34.581  11.643  13.744
82841W        W49250  37.010  18.518   3.264
82842W        W49251   1.348  15.772  11.619
82843W        W49252  11.672   6.758  10.467
82844W        W49253  16.969  29.461   0.695
82845W        W49254   9.266  22.774   1.616
82846W        W49255  22.232   4.170  10.910
82847W        W49256  41.162  10.979   2.975
82848W        W49257  36.840  16.101   4.055
82849W        W49258  22.090  25.743  11.275
82850W        W49259  13.850  24.702  11.305
82851W        W49260  24.208  35.025   4.215
82852W        W49261  19.128  34.799   0.521
82853W        W49262  13.307  44.139   0.356
82854W        W49263  31.488  11.773  10.727
82855W        W49264  23.114  29.222   3.247
82856W        W49265  16.980  21.599   1.503
82857W        W49266   5.381  19.254   4.463
82858W        W49267  34.020  13.313   0.364
82859W        W49268   3.980  25.936  11.896
82860W        W49269  27.668  18.558  12.422
82861W        W49270  42.339  11.239  10.702
82862W        W49271   1.975  29.215   1.235
82863W        W49272  17.162  43.696   2.293
82864W        W49273  38.879  30.149   3.841
82865W        W49274  10.872  43.888   4.570
82866W        W49275  23.395   7.292   2.901
82867W        W49276  11.096  16.113   1.491
82868W        W49277  13.283   1.826  11.603
82869W        W49278  18.551  13.461  13.444
82870W        W49279  21.229  30.670  14.470
82871W        W49280  38.576  30.368  10.972
82872W        W49281  37.591  14.881  12.416
82873W        W49282   9.476  21.226   2.269
82874W        W49283  20.334  38.470  13.623
82875W        W49284  22.492  10.346   3.327
82876W        W49285   3.260   2.913   3.319
82877W        W49286  21.067  26.569  10.101
82878W        W49287  42.047  16.245   4.689
82879W        W49288   9.109  28.865   3.279
82880W        W49289  23.738  43.787  12.331
82881W        W49290  41.275  33.135   3.180
82882W        W49291  13.908  35.037   3.984
82883W        W49292  30.266  40.969  12.006
82884W        W49293  12.789   3.474   9.721
82885W        W49294  40.743   4.409   4.680
82886W        W49295  12.910  36.319  10.677
82887W        W49296  38.329  44.531   0.815
82888W        W49297  35.999  11.756   5.337
82889W        W49298  41.861  25.762  14.769
82890W        W49299  27.071  13.051  10.547
82891W        W49300  42.860  41.844  12.649
82892W        W49301  40.516   6.653  13.131
82893W        W49302  34.455  36.137  13.135
82894W        W49303  33.989  10.359  13.042
82895W        W49304   2.228  21.625  11.559
82896W        W49305   3.862   4.324  12.423
82897W        W49306  44.712  11.303  12.883
82898W        W49307   8.099  32.567   2.095
82899W        W49308   8.702  38.985  14.357
82900W        W49309   6.832   7.127  12.119
82901W        W49310  28.153  27.883  14.432
82902W        W49311   0.787  26.054  13.075
82903W        W49312  29.205   0.153  12.085
82904W        W49313  40.886  39.363   0.202
82905W        W49314  16.218   3.438   3.622
82906W        W49315  24.710  44.749  12.792
82907W        W49316  26.110  30.151  13.520
82908W        W49317  44.416   2.891   1.741
82909W        W49318  10.192  18.395  13.590
82910W        W49319  22.440  38.371  11.993
82911W        W49320  35.982  29.008  12.523
82912W        W49321  19.578  33.495   4.360
82913W        W49322  34.134   7.384  13.755
82914W        W49323  11.707  25.984   4.574
82915W        W49324  11.061  43.529  12.962
82916W        W49325  35.146   2.260   4.064
82917W        W49326  31.960  14.200   0.044
82918W        W49327  40.297  18.800  14.485
82919W        W49328  16.695  20.180   4.560
82920W        W49329  28.802  17.147  11.452
82921W        W49330   9.676  27.065  13.142
82922W        W49331  19.737  13.345  12.017
82923W        W49332  34.450  22.299   2.847
82924W        W49333  22.434   7.745   3.530
82925W        W49334  15.790  20.931   0.051
82926W        W49335  37.073  16.687  12.482
82927W        W49336  22.610  14.444  10.725
82928W        W49337   4.757  39.894  14.671
82929W        W49338  13.465  35.571  13.433
82930W        W49339   9.115  13.155   2.295
82931W        W49340  42.080   4.781  12.558
82932W        W49341  15.356  10.706  12.939
82933W        W49342   5.165   4.820   4.064
82934W        W49343  32.104  24.620  13.504
82935W        W49344  37.119   1.353  12.531
82936W        W49345  44.035  14.653   2.168
82937W        W49346  17.193  19.990  11.952
82938W        W49347  27.255  18.188  12.910
82939W        W49348  31.659   0.873  13.399
82940W        W49349  15.084  27.456  13.086
82941W        W49350  35.351  35.624  12.527
82942W        W49351  44.342   1.817   3.824
82943W        W49352   3.644  15.421   1.025
82944W        W49353  20.536  21.460   3.729
82945W        W49354  25.070   9.852   4.741
82946W        W49355  15.019  42.851   5.165
82947W        W49356  40.875  25.715   3.906
82948W        W49357  32.895   9.848   1.436
82949W        W49358  14.457  34.651   5.294
82950W        W49359  11.960   1.971   4.237
82951W        W49360   5.750  12.280  10.854
82952W        W49361  31.271   9.425  13.020
82953W        W49362  10.360  13.920   4.517
82954W        W49363  41.546  24.184  13.016
82955W        W49364  16.178   8.931   2.346
82956W        W49365  24.748   3.835   3.154
82957W        W49366  34.637  40.508   2.757
82958W        W49367   6.190  28.652   0.973
82959W        W49368  33.811   3.936  11.049
82960W        W49369  16.276  19.826  11.907
82961W        W49370   1.167   9.696  13.599
82962W        W49371  25.779  34.327  13.462
82963W        W49372   9.633  10.898   1.919
82964W        W49373  30.783  30.783   3.507
82965W        W49374   7.363  43.777   3.157
82966W        W49375  41.693   2.957  11.248
82967W        W49376   4.628   0.495  10.776
82968W        W49377  14.108  23.100  12.621
82969W        W49378  36.882  32.081   3.460
82970W        W49379  38.326  42.583   0.902
82971W        W49380  30.668   5.840  13.067
82972W        W49381  11.576   5.460  13.263
82973W        W49382  42.905  19.780   5.099
82974W        W49383  35.461  13.159   2.248
82975W        W49384   6.646  36.540   0.023
82976W        W49385  34.561   1.727   0.278
82977W        W49386  43.274   5.918   4.123
82978W        W49387  44.415  18.485   3.821
82979W        W49388   2.416   8.323   3.289
82980W        W49389   4.261  44.084   2.898
82981W        W49390  20.499  30.470   4.272
82982W        W49391   0.920   1.693  12.628
82983W        W49392  20.338  39.838   3.105
82984W        W49393  32.454  18.770   0.170
82985W        W49394  17.340   9.137  14.586
82986W        W49395  24.464   8.844  13.934
82987W        W49396  14.038  13.804   0.405
82988W        W49397  34.591   4.249  10.803
82989W        W49398  16.577   6.625   2.646
82990W        W49399  17.627  44.859   4.476
82991W        W49400  20.277  28.209  11.996
82992W        W49401   6.403  21.512  14.829
82993W        W49402  15.723  22.031  11.198
82994W        W49403  30.837  19.811  10.760
82995W        W49404  28.439  19.730  10.871
82996W        W49405  35.962  43.753   1.711
82997W        W49406  42.249  18.271   0.423
82998W        W49407  11.687  19.966   0.997
82999W        W49408   5.813  33.545   4.626
83000W        W49409  34.930  18.388  12.500
83001W        W49410  29.362  44.230  11.953
83002W        W49411   0.335  19.776   3.736
83003W        W49412   5.852  18.218   1.756
83004W        W49413  33.563  43.227  13.049
83005W        W49414  24.240  14.577  13.400
83006W        W49415   0.453  22.958   2.679
83007W        W49416  26.277  12.368  10.963
83008W        W49417  21.832  34.128   2.472
83009W        W49418  41.063  37.801   1.773
83010W        W49419  28.025  42.800  10.795
83011W        W49420  39.534  43.932   1.229
83012W        W49421  28.684   6.324   2.366
83013W        W49422  15.688  22.514   4.655
83014W        W49423  16.779   8.139   2.758
83015W        W49424  39.162  29.912   3.003
83016W        W49425  12.624  30.319   4.789
83017W        W49426  29.464  28.045   3.585
83018W        W49427  15.307  36.131  10.970
83019W        W49428  13.088  27.423   0.333
83020W        W49429  29.584  10.696   2.377
83021W        W49430  21.554  19.162  12.392
83022W        W49431  30.953  26.567   4.491
83023W        W49432   5.331  20.997   4.262
83024W        W49433  42.243  10.851  14.303
83025W        W49434  24.422  15.672  13.590
83026W        W49435  14.146  40.593   0.867
83027W        W49436   9.124  21.236  12.540
83028W        W49437  29.804  22.955  11.049
83029W        W49438  12.226  35.897  13.565
83030W        W49439  31.060  19.335  13.380
83031W        W49440  39.496  23.414  10.529
83032W        W49441  43.210   0.834  11.484
83033W        W49442  23.160  14.133  12.926
83034W        W49443  29.376   8.827   3.166
83035W        W49444  23.768  36.761  13.081
83036W        W49445  29.525  20.816  10.957
83037W        W49446  12.923  23.652   3.217
83038W        W49447  10.781   3.980   4.111
83039W        W49448  43.133  21.808   1.512
83040W        W49449  38.443  41.812   1.529
83041W        W49450  25.776  14.361  13.265
83042W        W49451  40.968   2.993   3.680
83043W        W49452  42.292  22.585   0.255
83044W        W49453  30.080  28.432  11.535
83045W        W49454  16.075  20.416   3.451
83046W        W49455  14.069  39.297  13.554
83047W        W49456  11.462  32.707   0.234
83048W        W49457   1.478  23.430  12.523
83049W        W49458  15.714  13.112  14.730
83050W        W49459  24.634  42.071  12.078
83051W        W49460   5.300  34.019  12.519
83052W        W49461  26.962  19.426   0.842
83053W        W49462   4.453  32.034  13.433
83054W        W49463  16.110  24.190  10.253
83055W        W49464   5.681  18.200  13.089
83056W        W49465   2.963  25.223   1.826
83057W        W49466  19.055  29.024   1.417
83058W        W49467  34.391  40.541   1.817
83059W        W49468  18.316  16.650   2.822
83060W        W49469   9.749  40.878   3.909
83061W        W49470   7.155  40.450   3.557
83062W        W49471  10.082  40.205  10.120
83063W        W49472   8.813  32.464  13.133
83064W        W49473  37.504  13.610   4.279
83065W        W49474  39.894  14.650  12.252
83066W        W49475  36.370  43.597   1.239
83067W        W49476  29.359  29.021  14.329
83068W        W49477  31.621  18.108  11.639
83069W        W49478  35.003  25.699  14.789
83070W        W49479  11.203  36.508  12.361
83071W        W49480  25.543  19.463  11.539
83072W        W49481  42.783  35.085  11.961
83073W        W49482   0.031  23.974  14.986
83074W        W49483   7.876   7.665   0.927
83075W        W49484  37.976  33.947   2.607
83076W        W49485  11.644  43.941   0.075
83077W        W49486  27.963  20.739  10.998
83078W        W49487   2.871   2.320   4.689
83079W        W49488  21.556  33.150   2.329
83080W        W49489  43.338  17.719  10.881
83081W        W49490  17.770  40.757   1.562
83082W        W49491  43.435  10.891  11.101
83083W        W49492  34.912  24.249   2.419
83084W        W49493  35.985  33.384  14.178
83085W        W49494  33.642  11.118  12.793
83086W        W49495  30.933  36.437   2.520
83087W        W49496  29.691  43.393   4.241
83088W        W49497  42.439   2.890   1.900
83089W        W49498  31.993   4.787   0.164
83090W        W49499  23.108  25.745  12.808
83091W        W49500  14.916  27.031  13.329
83092W        W49501  18.130  21.453   3.302
83093W        W49502  10.904  23.435  11.092
83094W        W49503   3.039  32.538   3.864
83095W        W49504   2.795  36.498  11.599
83096W        W49505  28.357  29.963   4.895
83097W        W49506   2.313  36.679   2.317
83098W        W49507  40.057  41.903  12.767
83099W        W49508  14.246   0.134   5.454
83100W        W49509  21.639  17.281   0.032
83101W        W49510  29.815   3.759  11.060
83102W        W49511   5.819  11.238   2.772
83103W        W49512  19.562  43.345   4.974
83104W        W49513  37.597  33.348   4.508
83105W        W49514  13.872  18.937   4.016
83106W        W49515  25.173  26.561  11.408
83107W        W49516   0.239   0.913  13.829
83108W        W49517  25.189  17.922   1.184
83109W        W49518  31.095  29.553   2.728
83110W        W49519   7.452  27.450  14.873
83111W        W49520  12.747  35.105  14.507
83112W        W49521   8.727  33.626   3.434
83113W        W49522  32.071  30.900  10.720
83114W        W49523  14.023  33.097  14.436
83115W        W49524  27.163  32.304  13.445
83116W        W49525  40.390   7.756   3.572
83117W        W49526   0.820  24.513   1.192
83118W        W49527  35.430  28.969  14.756
83119W        W49528  25.444  34.459  14.497
83120W        W49529  18.651  22.660  10.855
83121W        W49530   2.044  32.948   4.818
83122W        W49531   5.246  16.667  12.150
83123W        W49532   7.709  32.818  10.549
83124W        W49533   8.538  15.286  11.937
83125W        W49534  16.710  15.250  10.705
83126W        W49535  22.633  14.806   0.054
83127W        W49536  24.981  17.036  15.000
83128W        W49537  22.207   4.969   0.479
83129W        W49538  23.128  10.223   3.182
83130W        W49539  17.022  39.452  12.823
83131W        W49540  13.391  14.787  13.534
83132W        W49541   7.696  36.663  13.351
83133W        W49542   5.422   1.543   1.799
83134W        W49543  38.541  37.301   0.287
83135W        W49544  30.173  34.990   1.420
83136W        W49545  31.554  26.889  13.047
83137W        W49546   1.699   0.335  13.571
83138W        W49547  20.648   0.480   4.660
83139W        W49548  27.637   5.464  11.039
83140W        W49549   7.036  28.524   0.713
83141W        W49550  13.216  22.548  11.627
83142W        W49551  19.546  11.688  11.216
83143W        W49552  10.528   2.020  11.549
83144W        W49553  12.884  28.640   3.263
83145W        W49554  11.284  44.634   0.485
83146W        W49555   7.946  13.607  12.591
83147W        W49556  37.813  32.080   3.177
83148W        W49557  31.099  23.469   1.903
83149W        W49558   0.180   5.821   2.373
83150W        W49559  30.998  19.633  12.891
83151W        W49560  44.485  32.854   4.560
83152W        W49561  28.230  27.481   1.740
83153W        W49562  10.550  37.536   3.213
83154W        W49563  31.016   6.353  10.098
83155W        W49564  39.830  40.520  10.744
83156W        W49565  25.232   1.280   3.739
83157W        W49566   0.735   9.626   0.417
83158W        W49567  13.782  31.121  14.822
83159W        W49568   6.667  27.659   0.341
83160W        W49569  30.157  42.695   1.812
83161W        W49570  31.167  16.810  13.535
83162W        W49571  35.989  44.209   3.419
83163W        W49572  14.267   7.753  12.887
83164W        W49573  40.344  40.550   4.698
83165W        W49574  36.801   3.914  11.282
83166W        W49575  33.504  39.055   0.562
83167W        W49576  24.104   5.440  11.491
83168W        W49577   7.331  29.344   0.411
83169W        W49578   1.200  43.241  14.774
83170W        W49579  33.425  22.933   2.202
83171W        W49580  26.172  17.422  10.543
83172W        W49581   8.138   1.846  14.966
83173W        W49582  27.178  31.344  12.624
83174W        W49583  32.892  32.436  11.994
83175W        W49584  19.274   7.764  13.933
83176W        W49585  38.373  41.501   1.941
83177W        W49586   2.704  14.664   3.483
83178W        W49587   6.590  24.562   0.297
83179W        W49588  27.591  15.640   2.627
83180W        W49589  13.107   7.625   1.015
83181W        W49590  26.201  39.615   4.076
83182W        W49591  17.327   1.714   4.685
83183W        W49592  13.165   9.595   2.934
83184W        W49593  36.301  19.339   5.623
83185W        W49594  13.977   9.090  11.013
83186W        W49595   6.364  21.624  11.015
83187W        W49596  10.331   8.860   2.751
83188W        W49597  34.521  18.471   0.051
83189W        W49598  29.907  40.918   4.616
83190W        W49599  33.936  15.682   2.883
83191W        W49600  29.183  37.469  11.968
83192W        W49601   5.770  12.192   1.123
83193W        W49602  14.534  11.169  13.055
83194W        W49603  37.773  40.428   1.332
83195W        W49604  29.100   7.799  12.556
83196W        W49605   0.801  22.083  12.907
83197W        W49606  20.964   4.340  11.542
83198W        W49607  40.936  26.532  14.699
83199W        W49608   3.267  25.644  13.818
83200W        W49609  41.930  11.764  13.988
83201W        W49610  22.776  18.848   2.614
83202W        W49611  11.024  22.081   2.434
83203W        W49612   2.271   0.408  14.872
83204W        W49613  13.413  23.123   1.466
83205W        W49614  37.885  31.229  11.786
83206W        W49615  31.112  38.664  10.755
83207W        W49616  21.598  27.165   0.703
83208W        W49617  27.125  44.909  12.548
83209W        W49618  29.529  33.018  11.505
83210W        W49619  14.156  44.369   3.083
83211W        W49620  27.003  29.218  11.569
83212W        W49621  21.875  31.375  12.844
83213W        W49622  10.170  10.405  14.320
83214W        W49623  20.965  15.592  12.630
83215W        W49624  16.959  29.084  12.438
83216W        W49625   9.162  30.308  10.900
83217W        W49626  39.990  23.947   1.790
83218W        W49627  28.201  12.276  13.020
83219W        W49628   7.064  41.631   3.529
83220W        W49629   0.134   7.587  10.866
83221W        W49630  25.513  30.550   1.202
83222W        W49631   5.785  29.448  13.856
83223W        W49632  23.560  34.022   1.861
83224W        W49633  17.113  41.908   2.869
83225W        W49634   3.785   0.979  10.835
83226W        W49635  14.680  28.985   0.395
83227W        W49636  38.135   8.877   3.812
83228W        W49637  23.013  18.107   3.128
83229W        W49638  32.903  16.718   0.649
83230W        W49639   2.400   3.299  12.060
83231W        W49640  30.066  13.080  14.465
83232W        W49641   4.393  28.470  14.192
83233W        W49642  25.434  26.757  13.414
83234W        W49643   0.349   7.906   0.286
83235W        W49644  21.145  21.769   0.853
83236W        W49645  22.692  18.642  13.986
83237W        W49646   3.890  16.483  11.094
83238W        W49647   2.006  15.277  14.308
83239W        W49648  16.355  27.413   1.180
83240W        W49649  41.572   6.507  11.524
83241W        W49650   5.643  32.982   1.859
83242W        W49651  12.226  25.452  11.966
83243W        W49652  15.237  38.560  11.236
83244W        W49653  27.623  15.651  12.382
83245W        W49654  16.378  43.413  12.130
83246W        W49655  14.070   0.665  14.991
83247W        W49656  16.232  13.344  13.863
83248W        W49657  40.454  39.941   0.936
83249W        W49658  32.475  27.547   0.239
83250W        W49659  26.331  14.252   1.179
83251W        W49660  33.915  10.243   5.095
83252W        W49661  27.168  23.410  14.430
83253W        W49662  24.597  20.784  13.537
83254W        W49663  29.370  12.059  12.069
83255W        W49664   3.750  21.593  14.465
83256W        W49665  37.470  22.185   3.221
83257W        W49666  18.638  40.258  14.735
83258W        W49667  21.726  22.340   4.345
83259W        W49668  25.618  23.836   1.957
83260W        W49669  38.784  35.915   5.038
83261W        W49670  34.917  44.586  12.812
83262W        W49671  42.686  18.999   4.597
83263W        W49672  27.992  20.197  11.579
83264W        W49673  22.025  35.140  12.523
83265W        W49674  20.670   2.332   2.195
83266W        W49675   8.819  18.442  11.513
83267W        W49676  30.069  28.837  13.195
83268W        W49677  30.667  27.195  12.897
83269W        W49678  37.552  27.090   2.783
83270W        W49679  10.665  44.835   2.511
83271W        W49680   3.400  35.900  13.038
83272W        W49681  34.789   6.340   0.395
83273W        W49682  40.685  44.298  11.245
83274W        W49683   6.901  31.568  11.668
83275W        W49684  37.199   2.014  11.942
83276W        W49685  25.483   6.427  12.954
83277W        W49686  12.176  37.187   1.203
83278W        W49687   4.047  37.925  12.331
83279W        W49688  12.646  29.513   0.564
83280W        W49689  44.562  28.409  14.841
83281W        W49690  17.373   1.146  13.978
83282W        W49691  21.187  37.555   1.414
83283W        W49692  20.625  18.696   4.630
83284W        W49693  42.357  39.828  11.965
83285W        W49694   5.312  42.543   1.957
83286W        W49695  27.435  33.481  12.944
83287W        W49696  17.316  37.727  13.143
83288W        W49697  43.526  39.302   1.295
83289W        W49698  14.316  13.651   1.387
83290W        W49699  11.846  10.963  11.388
83291W        W49700  40.897   4.816   2.548
83292W        W49701   9.679  31.587   2.106
83293W        W49702   3.460  17.850  14.774
83294W        W49703  31.057  17.185   2.664
83295W        W49704  24.596  30.426  11.748
83296W        W49705  16.238  37.842  13.616
83297W        W49706  35.589  40.720   0.908
83298W        W49707  35.006  38.552  14.382
83299W        W49708  34.614  36.446   2.334
83300W        W49709  25.270   9.143   3.469
83301W        W49710  17.888  27.888  11.948
83302W        W49711  11.739  42.947   0.488
83303W        W49712  28.595   4.704  10.051
83304W        W49713   5.803   7.380  13.351
83305W        W49714  28.895  33.227  13.408
83306W        W49715  41.011   8.186   1.272
83307W        W49716   3.443  38.891  10.645
83308W        W49717  27.463  31.716   1.277
83309W        W49718  28.415  40.448   0.934
83310W        W49719  32.052  30.177  12.134
83311W        W49720  21.703  30.129   4.108
83312W        W49721   6.773  29.471   1.281
83313W        W49722  39.863   0.661  12.039
83314W        W49723  38.478  37.858   3.332
83315W        W49724  34.974  38.320   0.944
83316W        W49725  38.622  21.476   9.895
83317W        W49726   2.846  42.699   1.001
83318W        W49727   3.828  42.957  10.715
83319W        W49728   8.868  31.411   1.486
83320W        W49729   4.660  32.808   1.706
83321W        W49730  14.167   2.243   0.831
83322W        W49731  40.828  15.106  13.999
83323W        W49732   0.492  28.231  13.966
83324W        W49733  44.573  24.308  13.759
83325W        W49734   0.918  26.453  11.620
83326W        W49735  39.305  28.358  14.419
83327W        W49736   2.881  17.748   3.046
83328W        W49737   3.222   5.945  13.347
83329W        W49738  28.948  43.995   0.353
83330W        W49739  14.298  12.870  14.729
83331W        W49740  22.149   4.668  11.526
83332W        W49741  19.206  16.079   3.039
83333W        W49742  23.236  23.495  10.691
83334W        W49743  17.281  38.780  13.084
83335W        W49744  32.032  14.142   3.472
83336W        W49745  29.060  20.161   4.397
83337W        W49746  36.413   9.359  12.125
83338W        W49747   1.542  24.615  13.503
83339W        W49748  11.313  11.172  12.825
83340W        W49749   6.881   9.734   0.719
83341W        W49750  33.363   6.807   4.251
83342W        W49751  10.923  16.339  13.899
83343W        W49752  11.926   5.274   0.684
83344W        W49753  26.042  17.658   1.704
83345W        W49754  31.954   3.698  12.422
83346W        W49755  24.795  30.969  12.832
83347W        W49756  20.528   5.345   2.821
83348W        W49757  28.528   1.230  14.732
83349W        W49758   4.815  23.686   0.569
83350W        W49759  35.757  27.200  14.064
83351W        W49760   7.943  19.475  11.101
83352W        W49761  29.087   7.821  13.067
83353W        W49762  16.350  20.905  12.331
83354W        W49763  29.473  41.412  11.594
83355W        W49764  15.599  26.618   2.360
83356W        W49765  32.999  37.329   2.682
83357W        W49766   4.263  25.143   2.783
83358W        W49767  14.874  31.400  13.582
83359W        W49768   0.282  14.456   3.417
83360W        W49769   9.482  37.423   1.360
83361W        W49770  37.411   6.348   0.946
83362W        W49771  25.768   5.277  14.872
83363W        W49772  10.777  12.541  14.374
83364W        W49773   1.790  33.916  13.708
83365W        W49774  33.858   4.830  12.509
83366W        W49775   7.946   2.851   3.263
83367W        W49776  34.625  32.113  13.394
83368W        W49777  16.101  35.854  13.420
83369W        W49778  36.043  32.231   3.516
83370W        W49779  27.882   1.414   0.363
83371W        W49780  30.023   2.395   1.015
83372W        W49781  21.083  13.701   2.346
83373W        W49782  43.543  13.357  13.407
83374W        W49783  29.512  41.840   0.047
83375W        W49784  37.495   5.390  14.772
83376W        W49785   4.757  25.456   1.817
83377W        W49786   3.680  26.926   9.848
83378W        W49787  20.022   4.770   2.321
83379W        W49788  35.501  22.979   3.695
83380W        W49789  25.208  19.767   2.682
83381W        W49790   3.420  19.737   5.259
83382W        W49791  24.977  36.480   4.152
83383W        W49792   9.848   0.791   3.216
83384W        W49793  32.309  41.868   2.340
83385W        W49794  16.109  12.353  13.288
83386W        W49795  18.353  22.598  14.782
83387W        W49796  38.259  16.161   3.650
83388W        W49797  11.505   8.884  11.460
83389W        W49798  44.448  11.730   0.402
83390W        W49799  22.567  15.048  14.342
83391W        W49800  37.063  38.414  12.884
83392W        W49801  40.596  32.697  12.505
83393W        W49802   8.730  39.832   2.836
83394W        W49803   8.238  43.547   1.408
83395W        W49804  28.227  41.491  11.109
83396W        W49805  17.578  31.931   1.823
83397W        W49806  13.453   5.171  10.684
83398W        W49807   4.691  23.341   3.805
83399W        W49808  26.868  42.459   4.562
83400W        W49809  24.865  23.684  12.398
83401W        W49810  20.637  15.210  13.078
83402W        W49811  12.024  44.535  11.488
83403W        W49812  27.987  15.253   4.185
83404W        W49813  29.598  34.052   3.831
83405W        W49814  24.814  43.799   3.349
83406W        W49815  21.292  21.195   4.120
83407W        W49816   7.842  23.580  13.272
83408W        W49817  31.537  25.959  14.754
83409W        W49818  15.445  37.168  12.383
83410W        W49819  37.333  21.846   1.465
83411W        W49820  16.779  32.124  10.832
83412W        W49821  11.930  37.672   1.214
83413W        W49822  12.751  43.285   1.820
83414W        W49823  44.411  10.339  12.951
83415W        W49824  43.280   2.910  11.184
83416W        W49825  23.693  10.202   3.725
83417W        W49826  21.570   8.838   4.007
83418W        W49827  19.093  15.562  10.370
83419W        W49828   5.912  18.774   0.958
83420W        W49829  35.559   1.888  10.596
83421W        W49830  41.212  11.982   0.495
83422W        W49831   2.874  23.171   0.932
83423W        W49832  20.639   0.225   1.855
83424W        W49833  17.427  13.371   3.190
83425W        W49834  15.165  21.627  12.483
83426W        W49835  37.141  11.661   0.965
83427W        W49836  20.441  28.609  11.706
83428W        W49837   3.177  40.541   4.544
83429W        W49838   1.446  24.764  14.000
83430W        W49839  38.737  42.311   0.680
83431W        W49840  40.019  37.877  14.889
83432W        W49841  37.086  27.572  14.924
83433W        W49842  22.671  15.233  13.030
83434W        W49843  26.876  15.294   1.473
83435W        W49844   8.229  31.305  12.487
83436W        W49845  22.092   1.936  14.844
83437W        W49846  23.748  12.200   4.319
83438W        W49847  29.044  15.768  10.883
83439W        W49848   9.406  21.216   4.081
83440W        W49849  41.876   8.833  12.573
83441W        W49850  31.544  41.224   2.472
83442W        W49851  35.859  14.026  10.941
83443W        W49852  10.220  31.284   5.447
83444W        W49853  44.409  26.263   5.125
83445W        W49854  40.885  23.013  11.992
83446W        W49855  30.623   5.818  14.092
83447W        W49856  34.077  11.912  11.966
83448W        W49857  11.289  14.703   1.887
83449W        W49858   7.401  30.994  14.540
83450W        W49859  35.433  21.034   0.195
83451W        W49860  40.859  44.956  13.980
83452W        W49861  36.484  27.987   1.802
83453W        W49862  37.927  32.367   1.004
83454W        W49863   0.175   1.540  11.222
83455W        W49864  43.775  11.481  12.481
83456W        W49865   4.248  12.349  11.089
83457W        W49866  28.261  31.931  14.593
83458W        W49867   8.157  14.621   2.725
83459W        W49868  17.810  17.743   0.899
83460W        W49869   8.828  43.793   3.235
83461W        W49870   8.289  10.267   0.212
83462W        W49871  27.056   1.965  11.286
83463W        W49872   8.977  27.200  10.227
83464W        W49873  10.564  36.899  11.201
83465W        W49874  18.906  28.171  13.127
83466W        W49875  27.007  22.999   0.880
83467W        W49876  43.042   6.561  11.940
83468W        W49877  38.863  43.592   4.492
83469W        W49878  21.280  19.317  13.440
83470W        W49879  19.697  30.945  13.380
83471W        W49880  16.629  10.634  11.555
83472W        W49881  38.622   9.374   4.351
83473W        W49882  41.922   0.493  11.583
83474W        W49883  44.031  36.954  14.018
83475W        W49884  30.630  12.662   2.862
83476W        W49885   7.949   1.740   1.427
83477W        W49886  16.182  38.506   3.148
83478W        W49887   0.390  23.967   4.436
83479W        W49888   7.726  19.308  10.643
83480W        W49889  21.631  20.146   3.376
83481W        W49890  31.341  25.486  12.926
83482W        W49891  28.891  38.815   2.241
83483W        W49892   1.379   4.148   1.429
83484W        W49893  13.079  12.823   2.702
83485W        W49894  34.494   4.771   2.253
83486W        W49895  16.237  19.596  14.952
83487W        W49896  34.021  13.335  12.333
83488W        W49897  10.154   9.881  14.426
83489W        W49898  10.153  42.832  11.284
83490W        W49899  27.657   2.711   2.150
83491W        W49900  40.912  12.951  10.768
83492W        W49901  37.999  42.697   1.337
83493W        W49902  28.985  25.681  11.448
83494W        W49903  19.344  17.311   2.316
83495W        W49904  28.269  39.072  13.833
83496W        W49905  22.654  17.441   0.493
83497W        W49906  30.508  28.133   4.182
83498W        W49907   2.477   3.588   1.400
83499W        W49908  42.941  27.503  13.280
83500W        W49909  25.741  11.173  13.620
83501W        W49910  36.980  39.333   2.201
83502W        W49911   8.118  29.791   3.519
83503W        W49912  30.095  19.431  11.108
83504W        W49913  36.972  39.281   0.003
83505W        W49914  25.230  12.668  12.696
83506W        W49915  20.205  12.917   1.410
83507W        W49916  32.845  35.090   1.848
83508W        W49917  26.967  44.260   1.885
83509W        W49918  22.243  36.502   4.071
83510W        W49919  32.586  33.043  14.379
83511W        W49920  18.581  23.580   4.588
83512W        W49921  44.659  13.826   5.083
83513W        W49922   8.764  39.140  12.169
83514W        W49923  42.456  16.261   4.371
83515W        W49924  16.026  25.030  14.494
83516W        W49925  23.614  32.350  11.551
83517W        W49926  13.273  43.665  11.496
83518W        W49927   9.381  43.330  14.009
83519W        W49928  13.109   1.500   0.356
83520W        W49929  19.482   0.415  11.630
83521W        W49930  23.770  29.055   0.920
83522W        W49931  43.045  43.416  12.462
83523W        W49932  17.305   1.374   4.298
83524W        W49933  31.728   2.275   0.751
83525W        W49934  29.060   4.989   5.023
83526W        W49935   6.462  41.399   5.063
83527W        W49936  18.628  24.672  11.894
83528W        W49937  41.314   4.273   3.657
83529W        W49938  18.025   0.974   4.428
83530W        W49939   0.400   2.883   0.804
83531W        W49940  12.704  17.177   4.698
83532W        W49941  24.957  28.263  11.731
83533W        W49942  34.776  20.804  13.409
83534W        W49943   9.256   9.473  13.366
83535W        W49944   2.935   6.329  14.036
83536W        W49945  39.413  15.251  13.343
83537W        W49946  43.781  13.691  14.547
83538W        W49947  35.263  26.556   4.240
83539W        W49948  15.548   9.654   4.291
83540W        W49949  38.512  36.581  10.744
83541W        W49950  33.862  18.499   0.779
83542W        W49951  38.480  38.764  12.664
83543W        W49952  27.686  24.651  11.202
83544W        W49953  21.050  33.149   2.247
83545W        W49954   9.136  29.474   2.673
83546W        W49955  26.561  30.299  13.683
83547W        W49956   1.906  16.350   0.432
83548W        W49957  12.681  10.640  12.481
83549W        W49958  21.053  43.751   3.589
83550W        W49959  33.499  23.028  11.415
83551W        W49960  26.744  21.199   0.558
83552W        W49961  12.829  10.727  14.363
83553W        W49962  44.947  22.130   4.957
83554W        W49963  34.420  30.861  13.045
83555W        W49964  11.156  35.358  12.449
83556W        W49965  21.181  39.074  10.683
83557W        W49966  25.068  30.574  10.744
83558W        W49967   7.318  32.140  12.977
83559W        W49968  33.865  16.255  14.339
83560W        W49969  19.525   6.370  13.060
83561W        W49970  10.711  39.766  11.238
83562W        W49971  16.319  36.781  13.514
83563W        W49972  34.817  25.505   1.464
83564W        W49973  30.309  26.514   2.935
83565W        W49974  16.009  26.743  14.069
83566W        W49975  14.020   7.330  10.688
83567W        W49976   7.824  33.126  14.630
83568W        W49977  25.175  41.790  10.912
83569W        W49978  24.527   9.502  13.376
83570W        W49979   7.896  43.379   0.856
83571W        W49980  41.722  21.461  10.387
83572W        W49981   8.484   2.366  10.218
83573W        W49982   0.797  36.412  11.512
83574W        W49983  25.293   9.359   0.017
83575W        W49984  34.037  40.457  13.485
83576W        W49985   2.207  43.863   1.971
83577W        W49986  34.873  18.566   0.932
83578W        W49987  10.890  26.130   1.350
83579W        W49988   1.004   5.858  13.743
83580W        W49989  42.085  23.123  12.918
83581W        W49990  24.143  27.216  11.677
83582W        W49991  37.401  25.760   3.213
83583W        W49992   4.914  31.340   0.753
83584W        W49993  13.365   3.322   0.445
83585W        W49994  33.800  44.440  11.073
83586W        W49995   0.989   8.719   4.557
83587W        W49996  23.581  17.292  10.462
83588W        W49997  15.738  19.220  12.273
83589W        W49998  16.229  41.761   2.385
83590W        W49999  21.748   1.268   1.421
83591W        W50000   8.105   5.384  13.299
83592W        W50001   4.829   5.670  10.049
83593W        W50002  14.112  44.518   0.799
83594W        W50003  16.182  35.039   3.997
83595W        W50004  21.740  40.035   2.315
83596W        W50005  24.007   2.487  12.233
83597W        W50006  31.326  41.009   1.126
83598W        W50007  36.589  19.755   3.636
83599W        W50008  30.971  13.352  11.760
83600W        W50009  17.772  26.881   2.555
83601W        W50010  10.113  23.421   0.066
83602W        W50011   2.341  30.976  11.901
83603W        W50012  32.156  26.930   0.855
83604W        W50013  41.405  43.219  12.597
83605W        W50014  23.280  14.140   3.108
83606W        W50015   0.321   8.323   3.971
83607W        W50016  31.029  44.812   4.141
83608W        W50017   6.985  19.123   1.705
83609W        W50018  18.587  31.643  12.068
83610W        W50019  18.508  17.226   1.754
83611W        W50020  32.079   1.765   2.334
83612W        W50021  26.124  39.704  11.162
83613W        W50022  19.809  35.290   1.464
83614W        W50023  13.840   7.175   3.621
83615W        W50024  27.682  37.947   0.192
83616W        W50025   7.688   6.349   3.669
83617W        W50026  28.636   0.354  12.888
83618W        W50027  39.100  22.750   0.691
83619W        W50028  11.855  32.452  12.603
83620W        W50029   9.333  28.903   5.073
83621W        W50030  31.362   0.729  14.846
83622W        W50031  14.483  22.317  12.958
83623W        W50032  30.883  28.508   1.603
83624W        W50033  38.902  30.635   2.507
83625W        W50034  43.845  41.262  12.889
83626W        W50035  37.019   7.195  10.802
83627W        W50036   4.875   6.950   4.166
83628W        W50037   2.224  24.604  14.900
83629W        W50038   2.763  18.213  14.447
83630W        W50039  23.167  21.219   0.987
83631W        W50040  37.296   9.309   3.899
83632W        W50041  23.089   6.273   3.209
83633W        W50042  43.032  43.677   1.225
83634W        W50043   9.700   3.504  12.957
83635W        W50044   5.679  20.578  12.292
83636W        W50045  32.017  18.624  14.773
83637W        W50046  37.289  18.956   2.795
83638W        W50047  25.476   6.613   0.018
83639W        W50048  43.349  36.600  11.244
83640W        W50049  26.479  16.689  13.727
83641W        W50050  37.518  18.544  12.079
83642W        W50051  42.933  25.394   2.483
83643W        W50052  25.088  36.090   1.255
83644W        W50053  26.972  29.062   2.452
83645W        W50054  17.373   9.484   0.797
83646W        W50055   9.644  35.621   3.338
83647W        W50056   2.293   0.930  12.970
83648W        W50057  32.111  39.364  14.417
83649W        W50058  41.237  15.282  14.257
83650W        W50059  32.627  16.173   3.837
83651W        W50060   3.337  28.209   3.253
83652W        W50061  36.973  25.952   2.884
83653W        W50062   6.201   8.434  10.361
83654W        W50063  15.489   1.295  13.519
83655W        W50064  37.905   5.435  14.457
83656W        W50065  10.215   1.889   0.135
83657W        W50066  33.334  30.657  12.641
83658W        W50067  37.586   8.619  11.936
83659W        W50068  21.389  30.465  11.878
83660W        W50069  16.240  11.298   1.994
83661W        W50070  32.405  14.305  10.664
83662W        W50071  22.758  10.705  10.982
83663W        W50072   2.183  38.615  11.604
83664W        W50073  21.914  38.116  14.804
83665W        W50074  11.441   2.801  14.023
83666W        W50075  39.979  32.553   3.346
83667W        W50076   6.173  16.448  10.839
83668W        W50077  42.695  16.554  11.547
83669W        W50078  42.831  15.176  13.169
83670W        W50079  31.999  25.155   2.862
83671W        W50080  20.162  11.046   0.813
83672W        W50081  36.575  31.651  11.153
83673W        W50082  22.538   5.821   0.362
83674W        W50083  28.627  11.801   1.683
83675W        W50084  35.026  27.609   4.730
83676W        W50085  11.754  23.363   3.808
83677W        W50086  24.077  26.563  14.131
83678W        W50087  20.685  11.229   4.126
83679W        W50088  25.518  11.413  14.054
83680W        W50089  30.546  17.385   2.728
83681W        W50090  40.168  44.855  14.779
83682W        W50091   5.246  27.642   0.474
83683W        W50092  33.040  43.143  12.889
83684W        W50093  13.633  31.204   1.844
83685W        W50094  11.372  12.730   4.140
83686W        W50095  16.995  38.958   1.223
83687W        W50096  39.282  11.776   2.862
83688W        W50097   2.118  42.038  14.930
83689W        W50098  33.308  24.081  13.725
83690W        W50099  15.681   6.211  12.275
83691W        W50100  10.175  30.271   3.216
83692W        W50101  32.414  31.031   1.729
83693W        W50102  37.296   8.430   4.198
83694W        W50103  40.306  44.161   0.891
83695W        W50104  11.586  29.068  10.989
83696W        W50105   7.465   4.803   4.527
83697W        W50106  16.782   8.242  14.563
83698W        W50107  23.003  25.569   1.949
83699W        W50108  39.368  26.730   1.783
83700W        W50109  20.657  37.663  14.540
83701W        W50110   9.684  18.534  13.502
83702W        W50111  11.839  18.711   3.940
83703W        W50112  33.263  15.620   5.085
83704W        W50113   6.136  31.595   4.164
83705W        W50114  33.785  23.024   2.558
83706W        W50115  16.175  20.715   1.831
83707W        W50116   5.439  36.562   0.682
83708W        W50117  39.889   8.552  12.806
83709W        W50118  29.636  27.639   0.401
83710W        W50119  40.933  10.053  14.508
83711W        W50120  26.586  12.621   2.331
83712W        W50121   8.128  27.938  13.906
83713W        W50122  34.466  12.126   3.917
83714W        W50123  43.562  19.750   1.168
83715W        W50124  22.562   4.498  10.681
83716W        W50125   3.944   9.381  11.079
83717W        W50126  34.504  16.402   1.182
83718W        W50127  12.884  26.779   1.707
83719W        W50128  13.668  36.012  13.220
83720W        W50129  32.570  23.964  10.683
83721W        W50130  40.449  10.232   3.153
83722W        W50131   2.291  42.315   2.138
83723W        W50132  19.973  22.335   3.690
83724W        W50133  26.986  12.888   0.276
83725W        W50134  30.543  24.695  12.606
83726W        W50135  34.600  42.350  12.891
83727W        W50136  37.807  14.259   2.502
83728W        W50137   3.942   6.073  14.791
83729W        W50138  28.146  32.106  13.129
83730W        W50139  37.065  28.709   1.725
83731W        W50140  17.121   4.137   0.863
83732W        W50141  23.501   1.792  14.316
83733W        W50142   8.337  18.269  11.549
83734W        W50143  21.159  29.972  14.009
83735W        W50144  17.057  18.193  10.199
83736W        W50145  36.567  14.284  11.214
83737W        W50146  38.414  18.068   2.322
83738W        W50147  33.670   3.534  12.082
83739W        W50148  19.582  16.784   3.375
83740W        W50149  18.577  44.497  11.487
83741W        W50150  32.620  35.472  14.254
83742W        W50151   0.019  17.133  14.028
83743W        W50152  40.564  10.473  11.425
83744W        W50153  16.827  39.838   3.585
83745W        W50154  17.056  25.235  14.661
83746W        W50155  23.114   9.461   0.274
83747W        W50156  38.192  39.183   0.351
83748W        W50157  16.679  25.645  14.542
83749W        W50158  14.008  35.096   4.638
83750W        W50159   0.290  18.099  12.085
83751W        W50160  22.600  38.404   2.628
83752W        W50161  37.520  31.922   2.349
83753W        W50162   5.840  34.541   4.270
83754W        W50163  44.782  43.585   3.079
83755W        W50164  14.594  39.544  12.943
83756W        W50165  33.143  21.545   5.195
83757W        W50166   6.864  44.282  12.561
83758W        W50167  40.455   7.197  12.279
83759W        W50168  32.578  36.134   4.256
83760W        W50169  40.982  19.536  11.243
83761W        W50170  43.848  15.149  12.821
83762W        W50171  11.706  13.277  14.871
83763W        W50172  40.838  14.011   3.126
83764W        W50173   2.094  29.310  11.664
83765W        W50174  23.466   4.154   3.792
83766W        W50175   9.339  15.673   0.392
83767W        W50176   6.969   0.448   2.453
83768W        W50177  16.836  36.880   3.331
83769W        W50178   9.809  39.042  10.956
83770W        W50179  22.184  31.916   2.336
83771W        W50180  19.957  33.843   4.637
83772W        W50181  34.477  39.645   1.938
83773W        W50182  39.053  28.955  10.121
83774W        W50183  44.204  19.806  12.132
83775W        W50184   9.592   3.927  13.914
83776W        W50185  42.237  10.668   0.647
83777W        W50186   7.771  27.576  14.089
83778W        W50187  18.579  10.557   2.733
83779W        W50188  40.539   0.372  11.587
83780W        W50189  42.944   0.034  13.044
83781W        W50190  14.679  32.080  12.154
83782W        W50191  39.775  22.663   4.092
83783W        W50192  10.905  44.526   2.187
83784W        W50193  35.917  36.938  14.781
83785W        W50194   8.832  28.681  14.517
83786W        W50195  16.140  26.081   3.219
83787W        W50196   3.797  20.582  13.054
83788W        W50197  17.095  10.249   4.340
83789W        W50198   5.052  15.627   3.666
83790W        W50199  36.157   8.365  10.652
83791W        W50200   9.538  12.651  13.709
83792W        W50201  37.828   5.866   4.750
83793W        W50202  19.287  13.348   1.244
83794W        W50203  40.140   9.431  11.636
83795W        W50204  22.482  22.421   1.232
83796W        W50205   4.248  14.058   1.804
83797W        W50206  42.407  30.855  10.795
83798W        W50207  44.190   0.811  14.806
83799W        W50208  32.529  23.758  11.556
83800W        W50209  16.683  38.401   1.739
83801W        W50210   6.057   6.348  12.489
83802W        W50211  20.080  17.809  12.425
83803W        W50212  16.125  28.555  11.546
83804W        W50213   0.382  34.398  10.921
83805W        W50214  40.966  14.359   4.468
83806W        W50215  40.654  31.699  12.671
83807W        W50216  38.337   0.675   3.694
83808W        W50217  26.722  36.113  12.025
83809W        W50218  12.753  37.448  14.832
83810W        W50219  29.204  43.039   4.161
83811W        W50220  23.729  24.230   1.406
83812W        W50221  14.247  16.073  13.749
83813W        W50222  37.929   9.567   1.686
83814W        W50223   8.425  17.690  12.044
83815W        W50224  25.544   6.681   3.064
83816W        W50225  19.217  33.451  11.045
83817W        W50226  34.990   7.850   0.540
83818W        W50227  13.467   7.461  10.445
83819W        W50228  32.924   5.419  10.727
83820W        W50229  13.984  11.568   3.797
83821W        W50230  20.008   6.828  14.354
83822W        W50231  19.828   9.148   0.772
83823W        W50232  36.210  26.591   3.880
83824W        W50233  23.159  10.384  11.563
83825W        W50234   1.361  26.705  10.955
83826W        W50235  42.542  22.684  12.281
83827W        W50236  34.470  31.520   4.651
83828W        W50237  21.626  30.915  12.027
83829W        W50238  26.726   1.763  10.957
83830W        W50239   9.040   7.688  11.949
83831W        W50240  33.312  25.539   1.642
83832W        W50241  12.065   1.034   1.371
83833W        W50242  20.068  30.329  12.889
83834W        W50243   3.177  14.675   2.193
83835W        W50244  40.944  13.816  11.275
83836W        W50245   0.549   8.320   2.772
83837W        W50246  17.590  37.796   3.810
83838W        W50247  34.789  32.841  14.619
83839W        W50248  12.858  30.192   4.331
83840W        W50249  15.197   2.038  13.191
83841W        W50250  14.323  25.084   4.088
83842W        W50251  43.825  26.813  11.455
83843W        W50252   3.509   0.845   0.277
83844W        W50253   8.201  25.949  14.524
83845W        W50254  17.859  19.240  10.371
83846W        W50255  21.773  36.003  14.459
83847W        W50256  28.480  35.858   2.882
83848W        W50257  24.579  37.723  14.375
83849W        W50258   4.309  40.061   1.940
83850W        W50259   1.712  33.467  14.549
83851W        W50260  16.718  10.640  14.300
83852W        W50261  24.088   6.935   3.640
83853W        W50262  13.275  20.361  11.080
83854W        W50263  32.437  26.077   0.233
83855W        W50264  14.143  39.877  13.984
83856W        W50265  36.936  37.341  10.767
83857W        W50266  11.427  18.194  12.952
83858W        W50267  31.975   5.176  13.511
83859W        W50268  43.207  42.951  14.902
83860W        W50269  33.517  24.050   1.303
83861W        W50270  25.684  29.634  14.486
83862W        W50271  13.283  31.182  11.922
83863W        W50272  28.642  22.597  10.442
83864W        W50273  12.941  37.552  14.350
83865W        W50274  20.989  17.117  12.944
83866W        W50275  28.743  31.012   3.126
83867W        W50276  39.747  36.417  11.124
83868W        W50277  25.220   0.559   4.681
83869W        W50278  13.482   0.923   0.841
83870W        W50279  12.132  16.641   3.681
83871W        W50280   5.732  23.595  11.546
83872W        W50281   2.046  40.062  10.768
83873W        W50282  31.809   3.789  11.914
83874W        W50283   9.452  19.979   1.962
83875W        W50284  41.157  17.108  12.966
83876W        W50285  17.667  21.522   0.381
83877W        W50286  21.898  35.504   2.304
83878W        W50287   9.400  31.112  14.370
83879W        W50288  39.913  34.135  14.726
83880W        W50289  13.218  15.538   2.143
83881W        W50290  26.573   7.197  12.567
83882W        W50291  14.281  19.956  11.938
83883W        W50292   3.965  43.056   0.665
83884W        W50293   9.203   4.218  13.027
83885W        W50294  25.243  10.721   1.495
83886W        W50295  20.262  22.107   4.073
83887W        W50296   6.903  24.478  14.819
83888W        W50297  32.348  14.292   0.476
83889W        W50298  21.273  18.799   1.720
83890W        W50299  12.362  23.228   2.685
83891W        W50300  28.090   7.782  12.860
83892W        W50301  30.460  10.559  10.622
83893W        W50302  24.197  44.406  14.738
83894W        W50303  40.077  32.811  11.111
83895W        W50304  41.551  39.317  11.126
83896W        W50305  37.004   4.145   1.759
83897W        W50306   5.252  40.105  14.546
83898W        W50307  12.317  19.781  12.451
83899W        W50308  23.593  14.152   2.675
83900W        W50309  19.259  33.756  14.795
83901W        W50310  17.538  29.521  10.912
83902W        W50311   0.447  30.361  11.843
83903W        W50312  32.606  42.066  13.972
83904W        W50313  15.378  29.960   2.162
83905W        W50314  12.842  36.870   5.518
83906W        W50315  10.749   5.277  12.593
83907W        W50316  15.969  13.061   1.737
83908W        W50317  28.593  41.790   1.487
83909W        W50318   4.756  37.185   2.324
83910W        W50319  39.393  16.101  13.352
83911W        W50320  20.146  42.144  12.966
83912W        W50321  40.333  32.616  13.312
83913W        W50322  24.651  21.875   1.243
83914W        W50323   8.864  42.038  10.606
83915W        W50324  19.542  15.296  13.194
83916W        W50325  38.019  32.466   2.054
83917W        W50326  30.591   1.420  14.894
83918W        W50327   2.918  28.962   4.300
83919W        W50328  24.161  29.589  14.304
83920W        W50329   9.235  20.646  13.754
83921W        W50330  32.613  34.618   2.701
83922W        W50331  33.912   1.877   1.308
83923W        W50332  34.606  28.195   1.928
83924W        W50333  34.931  31.107   2.774
83925W        W50334  26.799  38.227  14.839
83926W        W50335  14.681  12.904  12.379
83927W        W50336  33.575  11.271  13.284
83928W        W50337  15.358  19.642   9.677
83929W        W50338  42.194   6.477   1.829
83930W        W50339  27.566  27.287  13.316
83931W        W50340  13.484  33.901  12.065
83932W        W50341  42.955  43.796   1.759
83933W        W50342  16.760   4.973   4.870
83934W        W50343   9.128  23.496  14.616
83935W        W50344   3.334  30.066  11.899
83936W        W50345   7.593  37.426   0.963
83937W        W50346  38.770  18.704   0.053
83938W        W50347  34.860  26.395   1.720
83939W        W50348  42.935  43.246   4.607
83940W        W50349  31.067  41.163  11.658
83941W        W50350  40.937  14.252  13.047
83942W        W50351  27.979  25.102   0.817
83943W        W50352   4.710   0.920   3.217
83944W        W50353   9.904  20.355   0.704
83945W        W50354  13.601  18.601   1.764
83946W        W50355  44.548  36.291   3.593
83947W        W50356  10.606  28.592   3.280
83948W        W50357  31.808  21.634  13.061
83949W        W50358   6.723  14.701   1.738
83950W        W50359  22.536  18.468  14.464
83951W        W50360  20.975  40.030  12.790
83952W        W50361  43.073   6.692  13.662
83953W        W50362  15.003  32.724  10.617
83954W        W50363  44.373  44.483  12.931
83955W        W50364  17.273   8.485   0.956
83956W        W50365  23.479  43.307   3.434
83957W        W50366   6.240  39.375  10.566
83958W        W50367  20.747  25.332  12.047
83959W        W50368  38.956  39.438  12.552
83960W        W50369  30.835  19.562   3.211
83961W        W50370  26.999  44.571  11.127
83962W        W50371  31.180   2.893   1.819
83963W        W50372  40.809  22.805   2.449
83964W        W50373  36.308  32.445   2.161
83965W        W50374  39.648  12.013  14.999
83966W        W50375  37.908  42.861   2.200
83967W        W50376  24.813  15.790  10.075
83968W        W50377  29.820  23.435   1.436
83969W        W50378  16.256  15.806   0.548
83970W        W50379  44.759   1.331  13.067
83971W        W50380  38.362  37.537  13.583
83972W        W50381  14.631   5.195   0.777
83973W        W50382  10.416  29.663  10.428
83974W        W50383  14.267  37.308  11.562
83975W        W50384  32.838   5.349  13.465
83976W        W50385  13.575  26.679   4.286
83977W        W50386  25.238  30.497   3.727
83978W        W50387   0.630   7.741   2.662
83979W        W50388  23.974  26.885   1.681
83980W        W50389  44.891  11.717  11.619
83981W        W50390  18.542   4.200   4.157
83982W        W50391  22.983  19.745   4.565
83983W        W50392  20.095  36.368   0.868
83984W        W50393  19.275  41.413  14.271
83985W        W50394  43.747  23.818  13.859
83986W        W50395  40.408  10.138   2.218
83987W        W50396  39.657  32.163  13.905
83988W        W50397  35.071  36.862   1.926
83989W        W50398  22.037  15.212  11.627
83990W        W50399   4.893  31.188  13.638
83991W        W50400   4.239   4.190   0.693
83992W        W50401   9.831  26.576   4.540
83993W        W50402  38.102  43.943   4.070
83994W        W50403  33.377  28.116   0.473
83995W        W50404  31.094   5.898   1.834
83996W        W50405  37.539  27.706  13.858
83997W        W50406   8.609   9.333   3.559
83998W        W50407  24.670  25.145   3.633
83999W        W50408   6.302  15.603   1.691
84000W        W50409  19.629  27.204  13.966
84001W        W50410  23.167  26.351  11.915
84002W        W50411  30.899  29.143   4.583
84003W        W50412  21.551  34.994  12.931
84004W        W50413   4.510   8.019  13.884
84005W        W50414  30.549  35.569  11.051
84006W        W50415  32.972  37.401   0.300
84007W        W50416  43.430  26.635  13.174
84008W        W50417  16.848  11.528  11.644
84009W        W50418  38.464  22.272   3.290
84010W        W50419   1.783  21.287   3.212
84011W        W50420  35.523  44.606  11.918
84012W        W50421   8.922   8.320   0.396
84013W        W50422  28.295   2.461  11.303
84014W        W50423  10.950  19.211  14.991
84015W        W50424  26.645  12.079   0.533
84016W        W50425  43.585   3.964   2.728
84017W        W50426  31.654  10.964   1.763
84018W        W50427   2.935  11.807  13.986
84019W        W50428  18.693  29.074   4.916
84020W        W50429   6.388  39.137   3.216
84021W        W50430  30.607  23.781  13.482
84022W        W50431  22.177  10.974  14.950
84023W        W50432  30.003   0.818   2.628
84024W        W50433  29.445  31.394  12.520
84025W        W50434  22.676   2.978  13.455
84026W        W50435  44.825   1.968  11.987
84027W        W50436   6.773  24.096   4.548
84028W        W50437  32.563  24.044  10.157
84029W        W50438   2.384   9.163   0.242
84030W        W50439  37.547   8.082  14.735
84031W        W50440   1.900  24.164  14.400
84032W        W50441  26.378  18.019  14.012
84033W        W50442   0.590  23.281  13.476
84034W        W50443  41.788  30.777   9.800
84035W        W50444  33.944  32.407   3.241
84036W        W50445  37.918   4.399   3.120
84037W        W50446   1.809   8.117   4.577
84038W        W50447   5.885  44.966   4.068
84039W        W50448   9.790  26.448   0.845
84040W        W50449  19.195  32.888  12.786
84041W        W50450  38.076  10.605  13.669
84042W        W50451  11.672  22.476  11.879
84043W        W50452   2.940  37.092  14.374
84044W        W50453  23.215  11.689   1.263
84045W        W50454   4.500   3.642   2.841
84046W        W50455  17.353  43.260  11.664
84047W        W50456   5.689  11.134   4.195
84048W        W50457  33.325  44.802  11.326
84049W        W50458  27.473   8.374   1.368
84050W        W50459  22.590   0.976   1.564
84051W        W50460  37.448  17.327   1.004
84052W        W50461  29.496   7.151  13.331
84053W        W50462  12.438   7.789   2.831
84054W        W50463   6.746   5.810  14.494
84055W        W50464   0.217  32.866   1.144
84056W        W50465  41.522  21.182   2.417
84057W        W50466  22.668  22.138  14.908
84058W        W50467  15.183  30.406  11.435
84059W        W50468  33.637   2.443  13.894
84060W        W50469  37.412  29.473  14.740
84061W        W50470   3.741  31.530   2.402
84062W        W50471  20.696  11.964   2.190
84063W        W50472  18.774   2.239  14.479
84064W        W50473  39.788  21.388   4.998
84065W        W50474  11.041  19.041   2.420
84066W        W50475  25.376  35.374  11.701
84067W        W50476  19.330  20.159   0.016
84068W        W50477  13.225  10.775   0.829
84069W        W50478   1.769  39.071  10.814
84070W        W50479   1.455  18.086  11.183
84071W        W50480   7.468  23.749   0.819
84072W        W50481  33.638   9.811  10.666
84073W        W50482  33.671  40.848  11.920
84074W        W50483  42.615  30.655   1.376
84075W        W50484   7.937  34.931   3.738
84076W        W50485   7.841  23.782  12.398
84077W        W50486  10.303   7.785   3.711
84078W        W50487  40.798  11.639   0.408
84079W        W50488  40.881  13.954  10.770
84080W        W50489  37.387  41.417  11.474
84081W        W50490  25.024  11.328   2.235
84082W        W50491  23.576  40.017  14.023
84083W        W50492  44.767  37.944  14.700
84084W        W50493   4.933   7.283  14.884
84085W        W50494  28.558  41.548   2.340
84086W        W50495  29.088   4.832   2.834
84087W        W50496  18.566  29.564  14.344
84088W        W50497   0.994   3.568   3.744
84089W        W50498  39.028  11.351   2.693
84090W        W50499  31.979   0.885   4.579
84091W        W50500  43.761  10.778  11.485
84092W        W50501  34.889  37.986   2.742
84093W        W50502  33.055  14.911   3.236
84094W        W50503   3.485   3.811   3.714
84095W        W50504  39.379  23.417  14.116
84096W        W50505  17.656  28.708   3.651
84097W        W50506  44.112  34.391  11.499
84098W        W50507   4.836  14.421  12.574
84099W        W50508  39.160  14.919   1.709
84100W        W50509   6.672  27.365  10.747
84101W        W50510   2.052  22.029  11.928
84102W        W50511   6.956  26.717   0.444
84103W        W50512  35.452  24.515  11.264
84104W        W50513  12.378   7.159   0.870
84105W        W50514   0.229  42.449   4.804
84106W        W50515  44.300  17.160  11.178
84107W        W50516  18.659   6.932   1.820
84108W        W50517   4.202  19.309  13.647
84109W        W50518  21.651   4.696  13.041
84110W        W50519  15.565  35.575   1.421
84111W        W50520  26.122  25.018   9.807
84112W        W50521  22.158  30.890   3.960
84113W        W50522   4.314  35.634   1.488
84114W        W50523   2.937   9.182   4.200
84115W        W50524  26.720   9.432  14.283
84116W        W50525  41.802   7.757  11.376
84117W        W50526  34.087  25.987  14.796
84118W        W50527  35.975  11.569   4.621
84119W        W50528   5.158   2.715  11.422
84120W        W50529  25.942   1.812   3.691
84121W        W50530  15.671  20.156   2.131
84122W        W50531  30.503  43.102  11.545
84123W        W50532  13.449  29.607   0.024
84124W        W50533  38.908  40.316   0.500
84125W        W50534  36.259   7.213   3.816
84126W        W50535  10.259  36.381   1.672
84127W        W50536   0.179  40.197  10.652
84128W        W50537  10.770  29.046   3.556
84129W        W50538   8.692  28.103  10.684
84130W        W50539  13.658  22.619   3.169
84131W        W50540  15.128  19.755  11.535
84132W        W50541   9.699  26.877   4.949
84133W        W50542  34.513  27.779   4.663
84134W        W50543  10.785  28.548  11.982
84135W        W50544  18.257  19.547  11.090
84136W        W50545   2.034   8.512  14.007
84137W        W50546   0.089   4.419   3.083
84138W        W50547  18.774   6.769  14.840
84139W        W50548  27.607  18.026  10.690
84140W        W50549  22.817   6.267  14.398
84141W        W50550  27.108  38.315  11.092
84142W        W50551  19.576  17.816  13.420
84143W        W50552  13.244   4.506  11.868
84144W        W50553  22.026   7.397  10.527
84145W        W50554  39.304  32.126   2.751
84146W        W50555  43.031  30.994  12.225
84147W        W50556  19.008  30.623  13.071
84148W        W50557   6.889  10.896   4.086
84149W        W50558  15.146   4.788   1.395
84150W        W50559  44.796  29.868  12.598
84151W        W50560  28.679  40.365  12.875
84152W        W50561   8.335  41.749  13.590
84153W        W50562  38.000  44.240  14.382
84154W        W50563  18.811  37.155   5.012
84155W        W50564  12.863  31.934   4.770
84156W        W50565  11.294  43.081  12.840
84157W        W50566  10.799  25.627   1.292
84158W        W50567   5.388  36.543   2.183
84159W        W50568   9.974   3.833   3.206
84160W        W50569  14.366  28.029   3.085
84161W        W50570  28.193  14.728   1.332
84162W        W50571  14.102  10.277  14.954
84163W        W50572   5.853  32.009  14.081
84164W        W50573  15.393  44.014  11.865
84165W        W50574  10.252  40.101   0.907
84166W        W50575   0.572  35.156   2.424
84167W        W50576  22.735  16.221   2.610
84168W        W50577  44.737  23.253   4.801
84169W        W50578  11.567  10.317  12.000
84170W        W50579  44.707   5.739  11.872
84171W        W50580  32.832  16.918  12.824
84172W        W50581   9.457   3.246   2.254
84173W        W50582   2.727  26.915  13.837
84174W        W50583  37.290   6.843   2.462
84175W        W50584  29.229  25.154   2.791
84176W        W50585  23.520  16.102  14.984
84177W        W50586   5.964  21.770   4.543
84178W        W50587  13.556  19.468  10.666
84179W        W50588  38.716  44.534  13.448
84180W        W50589  33.500  10.353   0.769
84181W        W50590  42.191   9.392   3.130
84182W        W50591  44.032   6.412  11.895
84183W        W50592  14.232  33.127  14.918
84184W        W50593  36.793  23.314  12.588
84185W        W50594  18.548  17.281   2.618
84186W        W50595  27.050   3.173  10.782
84187W        W50596   6.957  41.784  11.287
84188W        W50597  39.912   3.650  11.882
84189W        W50598  27.744   5.851   0.506
84190W        W50599  23.872  30.407  11.188
84191W        W50600   3.494   9.871   0.357
84192W        W50601  21.802   4.038   2.846
84193W        W50602  25.198   1.556   1.812
84194W        W50603  30.967   4.857  10.926
84195W        W50604  11.695  21.494  13.582
84196W        W50605   7.143   2.220  11.662
84197W        W50606  18.680  35.326  12.070
84198W        W50607  22.564  27.630   2.124
84199W        W50608   6.174  31.689  11.165
84200W        W50609  27.080  27.986  13.459
84201W        W50610  24.978  30.034   0.653
84202W        W50611  40.690  34.340   2.416
84203W        W50612  43.412   0.051  13.901
84204W        W50613  21.462  12.264   0.521
84205W        W50614  16.587  19.144   4.620
84206W        W50615   4.862  14.584  14.994
84207W        W50616   0.423  16.225  10.711
84208W        W50617  41.446  42.731  13.770
84209W        W50618   6.728  19.006   0.703
84210W        W50619   7.695  18.696   2.967
84211W        W50620  40.868  24.108  14.373
84212W        W50621  21.684  13.794   1.659
84213W        W50622  29.514  27.596   3.359
84214W        W50623  38.558  25.688   1.726
84215W        W50624  42.263  42.762  10.298
84216W        W50625   7.747  12.828  10.998
84217W        W50626   7.780   9.779  12.389
84218W        W50627  24.429  19.258   0.801
84219W        W50628  27.186  36.778  11.054
84220W        W50629  34.134  20.524   2.969
84221W        W50630  35.314   8.704   0.784
84222W        W50631  25.970  29.735   0.783
84223W        W50632  35.424  42.179   2.424
84224W        W50633  18.064  39.303  11.110
84225W        W50634   6.206  40.391   4.599
84226W        W50635  16.147  44.261  12.402
84227W        W50636  30.352   9.701   0.504
84228W        W50637  30.248   7.389  12.035
84229W        W50638  14.924   7.852   3.769
84230W        W50639  31.894  41.591  12.903
84231W        W50640  20.502  38.337   4.131
84232W        W50641  38.223   6.821   3.314
84233W        W50642  37.736  32.658  13.071
84234W        W50643  40.255   5.851   0.765
84235W        W50644  36.278  24.549   0.754
84236W        W50645  10.238  16.771   3.167
84237W        W50646  12.238  43.482   2.661
84238W        W50647  14.134  31.334  14.029
84239W        W50648  18.797  42.034   4.211
84240W        W50649  15.327   4.685   0.563
84241W        W50650  32.663  38.537  12.013
84242W        W50651  29.647  29.074  13.423
84243W        W50652  17.487  18.399  13.104
84244W        W50653  10.288  40.982  13.399
84245W        W50654   6.772  19.091  12.039
84246W        W50655  10.819   9.224  10.739
84247W        W50656  25.957  32.007   3.252
84248W        W50657  36.891  33.029   3.860
84249W        W50658  12.606  15.862  13.033
84250W        W50659   4.360  32.367  12.946
84251W        W50660  34.710  21.851   2.895
84252W        W50661   2.748  25.655   3.726
84253W        W50662   7.263  14.336   0.296
84254W        W50663  24.241  28.866   0.829
84255W        W50664  13.597  22.875   3.633
84256W        W50665  40.475  29.564  12.475
84257W        W50666  11.762   3.498  11.232
84258W        W50667  12.904   2.178  12.975
84259W        W50668   0.953  36.553   1.042
84260W        W50669   5.031   7.233  14.001
84261W        W50670   3.429  41.121  13.083
84262W        W50671  25.203  15.354  12.687
84263W        W50672  11.181  25.615  13.357
84264W        W50673  36.281   8.644  11.518
84265W        W50674  21.165   5.361   1.464
84266W        W50675  28.816  30.584  10.791
84267W        W50676  30.028  23.084   2.165
84268W        W50677  13.193  35.511   4.363
84269W        W50678  21.513  28.479   3.579
84270W        W50679  15.171  27.502   0.483
84271W        W50680  37.016  13.365   4.106
84272W        W50681  25.280  33.432  10.431
84273W        W50682  30.377  21.935  14.994
84274W        W50683  29.132  13.376  10.700
84275W        W50684  15.752  33.122   2.419
84276W        W50685  25.984  26.591   1.887
84277W        W50686   0.432  29.129  10.777
84278W        W50687  36.379  39.199   9.845
84279W        W50688  40.755  35.909  11.618
84280W        W50689  13.261  23.058   0.104
84281W        W50690  27.187   2.407   2.549
84282W        W50691  37.788  43.314  13.470
84283W        W50692  17.749  18.773  14.365
84284W        W50693  26.580  25.561  11.457
84285W        W50694   6.866   3.507  13.542
84286W        W50695  26.685   9.187   2.276
84287W        W50696  41.574  13.793   0.954
84288W        W50697   9.904  36.120  11.664
84289W        W50698  19.337  22.983   3.833
84290W        W50699  39.129  34.540   4.191
84291W        W50700  32.361  22.526   0.939
84292W        W50701  13.835  22.614  14.258
84293W        W50702  24.302  28.937  11.127
84294W        W50703  32.935  24.014  12.203
84295W        W50704   2.489   1.743   5.112
84296W        W50705   9.683   0.903   0.825
84297W        W50706   6.545   8.321  14.195
84298W        W50707  40.932  38.049  11.579
84299W        W50708  20.849  27.087   3.081
84300W        W50709  27.946  31.891   4.566
84301W        W50710   4.259  11.319  13.502
84302W        W50711  40.791  17.735   1.230
84303W        W50712  23.533  39.044   4.760
84304W        W50713  21.069  16.945  11.189
84305W        W50714  39.270  42.712  11.616
84306W        W50715  20.696  30.253  10.902
84307W        W50716  14.543  36.061  12.908
84308W        W50717  14.050   2.892   0.196
84309W        W50718  14.848   4.847  12.853
84310W        W50719  44.959  18.189   2.199
84311W        W50720  37.191  38.018  12.488
84312W        W50721   7.479  17.915   1.284
84313W        W50722  33.368  25.668  13.022
84314W        W50723  35.106  32.147   2.656
84315W        W50724  44.871  37.507   2.410
84316W        W50725  34.350  12.210   2.886
84317W        W50726   0.735  43.753  13.747
84318W        W50727  27.138  24.260  13.787
84319W        W50728  26.562  14.724   1.167
84320W        W50729   5.400  37.815  11.833
84321W        W50730   0.064  26.240  13.287
84322W        W50731  38.718  41.049  14.140
84323W        W50732  19.120  29.830   4.460
84324W        W50733  19.556  35.355  11.801
84325W        W50734   3.763  18.703  12.111
84326W        W50735  21.734  42.563  14.044
84327W        W50736  33.952  13.756   4.196
84328W        W50737  19.625   4.831   1.319
84329W        W50738   9.279  43.061   0.779
84330W        W50739   1.264  29.216   3.746
84331W        W50740  28.716  10.440  11.400
84332W        W50741  26.699  23.817  12.091
84333W        W50742  34.593   7.156  13.726
84334W        W50743  32.996   7.363  11.006
84335W        W50744   9.214  26.647  14.789
84336W        W50745  25.692  11.322   1.828
84337W        W50746   0.960   3.374   1.313
84338W        W50747  21.840  21.035  14.482
84339W        W50748  36.750  36.082  14.152
84340W        W50749  24.514  19.845  10.212
84341W        W50750  26.436  16.499   3.262
84342W        W50751   4.889  34.210   3.581
84343W        W50752  17.273   0.535  14.828
84344W        W50753   0.830  31.021  10.170
84345W        W50754  30.691  41.680   5.151
84346W        W50755  23.158  19.520   2.414
84347W        W50756  35.931  16.534   2.383
84348W        W50757  42.949  10.321  11.603
84349W        W50758   9.359  17.065  11.173
84350W        W50759   9.750  30.316  12.430
84351W        W50760  40.375  44.605   2.948
84352W        W50761   5.829  40.538  12.465
84353W        W50762  41.469  25.523  11.681
84354W        W50763  25.965  11.223   1.382
84355W        W50764  27.767  26.870  12.435
84356W        W50765   9.374   0.216   0.358
84357W        W50766   0.957  43.951   0.127
84358W        W50767  10.737  25.252  13.912
84359W        W50768  31.359   3.460   3.654
84360W        W50769  39.537  19.676   1.251
84361W        W50770  20.271  16.656  13.367
84362W        W50771   0.747   5.170   2.817
84363W        W50772  31.800   8.619   1.988
84364W        W50773  27.191  23.435   3.979
84365W        W50774  18.478  15.815   3.248
84366W        W50775  33.479  30.835   4.417
84367W        W50776   0.481  25.056   3.701
84368W        W50777  14.297  37.523  12.973
84369W        W50778   9.240  42.584  12.572
84370W        W50779  42.474  17.515  11.020
84371W        W50780  31.916  37.960   1.547
84372W        W50781   8.678  28.043   1.337
84373W        W50782  21.998  31.002  14.929
84374W        W50783  21.207   6.439  10.812
84375W        W50784  25.152   7.679  13.899
84376W        W50785  34.674   4.779   2.745
84377W        W50786  11.383   6.862   2.878
84378W        W50787   2.685  39.369   3.760
84379W        W50788  13.552   6.209  14.997
84380W        W50789  15.069  36.933  14.962
84381W        W50790  13.575  26.536   0.201
84382W        W50791  29.065  11.217  14.423
84383W        W50792  32.372   3.238  11.588
84384W        W50793  29.794  12.854   3.722
84385W        W50794  14.795  35.867   4.873
84386W        W50795   4.983  18.527  10.276
84387W        W50796   0.379  27.250   3.269
84388W        W50797   4.396  43.998   1.512
84389W        W50798  36.510  30.381   3.843
84390W        W50799   4.850  27.208  11.603
84391W        W50800  15.084   8.131  10.791
84392W        W50801  43.664  42.868  10.920
84393W        W50802  31.100  19.449   4.186
84394W        W50803  37.697  25.535   2.814
84395W        W50804  40.894  30.872  11.133
84396W        W50805  23.564   0.633  12.051
84397W        W50806   6.762  40.782  11.161
84398W        W50807  39.302  25.125  14.329
84399W        W50808   3.690   2.700   2.231
84400W        W50809  25.354   5.969  13.177
84401W        W50810  10.679   5.325  13.115
84402W        W50811   5.938  40.490   0.040
84403W        W50812   6.546  12.680  13.170
84404W        W50813   6.902   8.419   4.015
84405W        W50814  19.711   6.571  13.512
84406W        W50815  10.381  43.277   0.791
84407W        W50816  35.260   4.711  11.977
84408W        W50817  33.629   8.116   1.315
84409W        W50818   5.476  28.129   4.487
84410W        W50819  38.914  25.414  12.574
84411W        W50820  37.583  27.968   1.603
84412W        W50821   2.082   8.320  11.650
84413W        W50822  20.402  23.146  12.903
84414W        W50823  36.793  40.008   2.676
84415W        W50824   2.725  15.602   4.586
84416W        W50825  34.477   0.874   0.664
84417W        W50826  18.818  41.761   3.782
84418W        W50827  21.612   6.226   0.492
84419W        W50828  27.172   9.349   2.166
84420W        W50829  14.695   8.263  13.821
84421W        W50830  27.710  37.014  12.655
84422W        W50831  26.485  39.364   2.814
84423W        W50832  12.776  16.075   4.543
84424W        W50833  36.512  21.714  12.440
84425W        W50834  14.966  40.420  10.798
84426W        W50835  35.847   1.083   2.151
84427W        W50836  28.226  11.852   2.879
84428W        W50837  22.034  37.473   0.545
84429W        W50838   3.247  41.384  12.635
84430W        W50839  21.029  10.389   4.177
84431W        W50840  35.554  29.511  14.575
84432W        W50841   3.830  21.676   4.706
84433W        W50842   0.999   7.462   1.330
84434W        W50843  39.029   6.750  13.089
84435W        W50844  38.980  32.565  11.640
84436W        W50845  14.737  11.322   1.014
84437W        W50846  21.761  21.789   5.648
84438W        W50847  21.745  44.178  13.198
84439W        W50848  21.231  31.708  14.223
84440W        W50849  10.240  16.300  12.059
84441W        W50850  13.176  24.983   1.260
84442W        W50851   4.645  28.069  11.581
84443W        W50852  38.380  31.870   0.030
84444W        W50853  12.484  27.012   4.871
84445W        W50854  14.615  14.297  12.529
84446W        W50855  24.700  40.894  14.880
84447W        W50856  10.349  25.862   3.251
84448W        W50857   7.593  12.368   2.667
84449W        W50858  25.659   7.669  14.008
84450W        W50859   6.301  43.568  14.188
84451W        W50860   4.745  22.992   4.195
84452W        W50861  41.601  12.225   4.122
84453W        W50862  16.889  18.216  11.433
84454W        W50863  31.032  22.559  12.823
84455W        W50864   6.773  33.477  11.865
84456W        W50865  14.051  42.276  12.148
84457W        W50866  25.065  25.711  12.531
84458W        W50867  17.165  12.772   3.765
84459W        W50868  20.377  43.060   0.765
84460W        W50869  17.591  12.737   2.128
84461W        W50870  43.788  26.151  11.338
84462W        W50871   6.260  23.066  11.232
84463W        W50872  29.628  31.584  12.986
84464W        W50873   3.747  14.601  13.112
84465W        W50874  27.948  35.027  11.393
84466W        W50875  15.211  41.496   1.874
84467W        W50876   2.652  16.991   1.960
84468W        W50877  18.289  31.509  12.486
84469W        W50878  30.959  33.075  14.469
84470W        W50879  43.740  26.601   3.638
84471W        W50880  16.899  19.845   3.323
84472W        W50881  14.876  12.274   4.747
84473W        W50882  25.112   9.340   4.920
84474W        W50883  39.427  15.228  12.838
84475W        W50884  20.257  25.463  14.554
84476W        W50885   8.616   0.073  14.400
84477W        W50886   1.866  23.898  13.511
84478W        W50887   0.214  22.583   1.157
84479W        W50888  29.119   0.910  12.452
84480W        W50889  33.132  35.478  14.418
84481W        W50890  21.792  35.572   4.259
84482W        W50891  19.047  13.883   2.196
84483W        W50892  42.794  38.093   4.586
84484W        W50893  24.704  17.470  14.975
84485W        W50894  21.014   9.459  11.521
84486W        W50895   4.438  24.416   5.520
84487W        W50896  37.848  33.500   0.324
84488W        W50897  22.369  23.223  11.924
84489W        W50898   9.133   1.518  10.203
84490W        W50899   0.044  34.607  14.684
84491W        W50900  42.851  12.854   0.795
84492W        W50901  25.684   1.084   2.125
84493W        W50902  18.593  36.607  13.991
84494W        W50903  39.277  19.471   4.015
84495W        W50904  39.788   9.719  13.900
84496W        W50905  13.830  43.282   4.054
84497W        W50906  26.184  20.315   0.196
84498W        W50907  14.789  33.539   3.307
84499W        W50908   6.785  32.619  13.919
84500W        W50909  30.435  21.832  13.817
84501W        W50910  29.643  19.562  14.177
84502W        W50911  38.047   0.490  10.403
84503W        W50912  22.086  23.108  14.679
84504W        W50913  40.495  41.495   4.488
84505W        W50914  22.556  22.752   4.732
84506W        W50915  44.897  33.639   3.754
84507W        W50916  39.344  36.874  13.071
84508W        W50917   4.493   4.428  12.916
84509W        W50918  20.476   9.099  13.117
84510W        W50919  11.170  20.242   1.743
84511W        W50920  11.858  25.542   0.135
84512W        W50921  31.613  18.085   2.857
84513W        W50922  15.697  19.328  10.866
84514W        W50923  27.537  27.464   4.662
84515W        W50924   6.315  40.013  10.918
84516W        W50925  13.140  23.440  11.432
84517W        W50926  28.984  18.091  13.140
84518W        W50927  42.741  21.518  11.551
84519W        W50928   5.934  19.190   1.846
84520W        W50929   1.537  26.016   3.009
84521W        W50930  17.992  34.658   3.270
84522W        W50931  11.107  20.379   4.045
84523W        W50932  31.934   1.871  12.373
84524W        W50933  41.199  30.033  14.406
84525W        W50934  32.693  44.943   5.073
84526W        W50935  16.094   7.617   3.244
84527W        W50936  24.473  29.334   0.112
84528W        W50937   9.720  32.586  13.025
84529W        W50938  21.222   7.277  14.507
84530W        W50939  11.338  36.899   3.252
84531W        W50940  35.468  28.700  14.236
84532W        W50941  34.465   6.119   1.603
84533W        W50942  42.911   6.663   0.859
84534W        W50943  16.634  16.263  10.731
84535W        W50944  20.855   6.148  12.093
84536W        W50945   9.127   2.309  14.515
84537W        W50946   9.833   7.291  11.893
84538W        W50947  31.185  28.477  12.048
84539W        W50948  21.821   6.940   4.161
84540W        W50949  10.416  30.841   4.113
84541W        W50950  37.407  40.518   3.230
84542W        W50951  13.756  44.487  14.064
84543W        W50952  43.279  27.569   3.754
84544W        W50953   0.883   9.701  11.157
84545W        W50954   2.788  30.971  13.073
84546W        W50955  24.517  26.919   1.730
84547W        W50956  30.667  35.343   2.316
84548W        W50957   9.354  12.807  10.631
84549W        W50958  43.209  42.680  11.103
84550W        W50959   0.290  14.201  11.562
84551W        W50960  14.569  35.204   3.251
84552W        W50961  15.136  36.749   1.162
84553W        W50962  12.724   9.167  14.811
84554W        W50963  10.048  14.333   1.829
84555W        W50964  15.063  43.424  14.097
84556W        W50965  15.158  35.571  11.149
84557W        W50966  11.257  24.482  13.414
84558W        W50967   6.965  35.993  14.130
84559W        W50968  11.741  27.066  11.449
84560W        W50969  29.922  30.622   3.554
84561W        W50970  12.373   6.855  12.005
84562W        W50971  36.541  25.227   1.260
84563W        W50972  40.244  16.347   1.755
84564W        W50973   0.883  41.788  10.482
84565W        W50974  23.154  26.847   1.267
84566W        W50975  10.911  14.233  10.977
84567W        W50976  37.799   5.983   4.251
84568W        W50977  16.524  33.481  14.879
84569W        W50978   1.949  38.282   2.543
84570W        W50979  14.226  20.977   0.309
84571W        W50980  26.007   7.865   4.642
84572W        W50981  43.433   3.770   4.135
84573W        W50982  38.876  44.721   1.957
84574W        W50983   3.708  43.246   0.186
84575W        W50984  19.383  18.813  11.710
84576W        W50985   6.344  22.514  13.510
84577W        W50986  31.705  39.030   1.176
84578W        W50987  42.257  11.666   2.649
84579W        W50988  19.027  12.786   3.646
84580W        W50989  31.728  19.222  13.010
84581W        W50990  35.016  43.581  13.030
84582W        W50991  37.441  21.507  10.401
84583W        W50992  36.978  41.017  13.469
84584W        W50993  30.877  38.912   5.424
84585W        W50994   0.844  11.249   4.565
84586W        W50995  34.021   4.276  14.374
84587W        W50996  33.562  36.650   1.702
84588W        W50997  42.967  29.011  10.705
84589W        W50998  10.826  15.189   3.183
84590W        W50999  18.448  39.035  12.383
84591W        W51000  30.692  44.324   2.828
84592W        W51001  44.939  32.178   4.225
84593W        W51002  11.223  38.325  13.217
84594W        W51003  42.258  15.361  14.443
84595W        W51004   1.959  43.398   2.401
84596W        W51005  31.649   0.632  10.277
84597W        W51006  17.892  22.913   2.232
84598W        W51007  31.562  25.308   1.905
84599W        W51008   2.738  22.498  11.505
84600W        W51009   4.382  39.773  12.483
84601W        W51010  18.769  40.808   1.819
84602W        W51011   2.025   1.263  13.891
84603W        W51012  24.136  44.494   4.777
84604W        W51013   9.184   6.382   1.939
84605W        W51014  17.485  11.198   0.461
84606W        W51015  17.807   0.947  12.545
84607W        W51016  17.796  17.759  14.329
84608W        W51017  31.444  36.301   3.704
84609W        W51018  13.471  39.020   4.434
84610W        W51019  13.773  32.897  13.089
84611W        W51020  16.585  20.242   2.698
84612W        W51021  44.796  21.215  12.508
84613W        W51022  10.086  11.599  13.289
84614W        W51023   9.922  43.745   1.321
84615W        W51024  18.459   8.355   1.922
84616W        W51025  25.811  12.220   0.813
84617W        W51026   0.569  18.358  11.712
84618W        W51027  39.801  12.646  12.061
84619W        W51028  34.104  41.087  12.980
84620W        W51029  28.881  25.175  11.673
84621W        W51030  23.625  10.644  13.951
84622W        W51031   9.811  13.998  11.913
84623W        W51032   1.819  12.463  14.174
84624W        W51033  32.152  22.115  13.997
84625W        W51034  19.734  12.809   2.692
84626W        W51035  29.322   8.188   4.712
84627W        W51036  12.663   1.299  10.585
84628W        W51037  44.588  33.687  10.457
84629W        W51038  31.091  40.524  12.994
84630W        W51039  24.436  20.177  11.006
84631W        W51040  37.527  11.129  14.370
84632W        W51041  22.050  14.259   2.790
84633W        W51042  40.443  44.661   0.716
84634W        W51043  11.429  34.874  11.739
84635W        W51044  20.390  34.328  10.245
84636W        W51045  10.352  26.647   4.598
84637W        W51046  38.124  13.762  10.691
84638W        W51047  43.679   7.936   0.868
84639W        W51048  32.844  11.626  11.602
84640W        W51049  13.266  13.690  11.970
84641W        W51050   8.693  20.211   4.864
84642W        W51051   6.382  20.187   0.351
84643W        W51052  15.710  40.658  12.859
84644W        W51053  23.037   3.897   1.029
84645W        W51054  41.943   3.252  12.037
84646W        W51055  30.023  27.227  13.614
84647W        W51056   7.294  10.584   4.177
84648W        W51057  22.201  32.900   1.369
84649W        W51058  34.377  26.971   1.392
84650W        W51059  32.598   3.425   4.565
84651W        W51060  29.487  33.670  10.005
84652W        W51061  16.526   7.782  14.480
84653W        W51062  33.680  40.557   2.900
84654W        W51063   4.568  37.162  13.461
84655W        W51064  29.944  17.286  12.206
84656W        W51065   2.187  25.545   1.422
84657W        W51066  40.808   2.270  14.002
84658W        W51067  41.884   9.989  11.229
84659W        W51068   4.524  29.376   1.170
84660W        W51069  13.352  33.639   4.156
84661W        W51070  34.830  17.203   4.149
84662W        W51071  39.542   3.999   2.253
84663W        W51072   3.724  34.453   4.126
84664W        W51073  20.144  30.400  12.394
84665W        W51074  34.101  26.881   3.769
84666W        W51075  41.526  11.901   1.884
84667W        W51076  38.018  36.524  13.069
84668W        W51077   5.989  29.315  14.337
84669W        W51078   6.772  42.567   1.229
84670W        W51079   2.170   5.490   4.769
84671W        W51080   9.843  17.211  12.338
84672W        W51081  29.467  23.302  11.199
84673W        W51082  32.953   5.344  11.609
84674W        W51083   5.378  10.117   2.473
84675W        W51084  41.354  28.220  10.987
84676W        W51085  38.334  19.441  13.814
84677W        W51086  26.709  41.980   4.409
84678W        W51087  23.297  15.085  12.481
84679W        W51088   0.500  13.776   0.342
84680W        W51089  16.316  39.721   1.285
84681W        W51090   1.232  11.227   4.070
84682W        W51091   5.192  14.748  13.101
84683W        W51092  26.286  30.067   4.158
84684W        W51093  24.940  26.228   4.992
84685W        W51094  19.618   7.528  12.483
84686W        W51095  10.457   5.920  11.126
84687W        W51096   3.671  24.497   2.621
84688W        W51097  38.097  35.297   3.355
84689W        W51098   2.979   3.199  12.640
84690W        W51099   7.479   5.464  14.572
84691W        W51100   0.460  15.292   2.365
84692W        W51101   9.384  20.077   2.846
84693W        W51102  35.439  12.122  13.461
84694W        W51103  41.274  18.547   2.873
84695W        W51104  13.088  26.248  13.897
84696W        W51105  25.396  30.214  12.435
84697W        W51106  20.054  35.969  14.985
84698W        W51107   6.317  44.700   2.210
84699W        W51108  34.709  32.077   2.351
84700W        W51109  23.076  11.952  13.931
84701W        W51110  34.037   0.828   1.362
84702W        W51111  14.111  18.795   2.934
84703W        W51112   6.492  11.298  12.188
84704W        W51113  34.353   7.910   3.165
84705W        W51114  31.012   2.664  12.167
84706W        W51115   2.861  44.323   3.495
84707W        W51116  40.222  40.475   0.240
84708W        W51117   2.984  39.791   3.704
84709W        W51118  11.241  16.252   2.391
84710W        W51119  24.638  25.411   1.961
84711W        W51120  27.980   1.786   0.009
84712W        W51121  17.020  40.408   5.052
84713W        W51122  25.598  18.273  12.170
84714W        W51123  29.804  31.105   1.188
84715W        W51124  40.610  38.518  11.600
84716W        W51125  27.480  10.293  10.530
84717W        W51126  11.702  30.816  12.032
84718W        W51127  27.062   0.485  10.889
84719W        W51128  22.161  15.200  12.998
84720W        W51129   1.901  40.797  11.056
84721W        W51130  10.473  40.208   4.719
84722W        W51131  40.892   5.037  14.798
84723W        W51132  16.682  16.997   1.698
84724W        W51133  32.226   0.800   5.012
84725W        W51134  38.439  19.579   4.538
84726W        W51135   5.442  14.013   3.356
84727W        W51136  32.224  13.683  12.238
84728W        W51137   4.389  32.823   2.365
84729W        W51138   0.321   0.263  14.991
84730W        W51139   5.384  23.059   0.551
84731W        W51140   4.006   9.342  14.172
84732W        W51141  19.850  35.006   3.537
84733W        W51142   5.406  40.516  11.120
84734W        W51143  32.073  34.873  13.860
84735W        W51144  22.020  15.019   1.834
84736W        W51145  43.841  39.805  11.275
84737W        W51146  19.790  26.969  12.532
84738W        W51147  30.208   8.895   1.532
84739W        W51148  26.489   7.643  11.495
84740W        W51149  21.577   2.961  11.630
84741W        W51150  27.026  41.523   3.207
84742W        W51151  40.559  13.198  13.608
84743W        W51152  36.575  27.374  13.058
84744W        W51153  30.845  22.164  10.658
84745W        W51154  17.345  31.453  13.314
84746W        W51155  31.837  42.815  14.552
84747W        W51156  12.785   4.381  10.558
84748W        W51157  24.727  27.693  13.360
84749W        W51158  34.909   2.386   0.864
84750W        W51159  18.845  19.654  14.515
84751W        W51160  23.576   3.112  13.476
84752W        W51161   1.326  16.799   4.426
84753W        W51162  25.117  38.864  13.543
84754W        W51163  12.256   9.137  13.935
84755W        W51164   2.248  17.738   0.773
84756W        W51165   0.434  32.454   1.414
84757W        W51166   6.407  20.167   1.909
84758W        W51167  27.096  40.034  11.997
84759W        W51168  15.316  13.607  11.519
84760W        W51169  31.162  39.412  13.026
84761W        W51170  24.101  18.344  12.794
84762W        W51171   9.194  20.179   0.996
84763W        W51172  10.759  25.682  11.389
84764W        W51173  44.802  25.622   1.906
84765W        W51174  29.515  26.118   4.549
84766W        W51175   5.545  15.085  13.282
84767W        W51176   9.617  24.864  14.776
84768W        W51177  32.781  26.081   1.929
84769W        W51178  37.468  25.478   4.396
84770W        W51179  25.233  22.816   5.063
84771W        W51180   2.408  18.240   3.630
84772W        W51181  30.295  31.625  12.828
84773W        W51182   6.443  35.541   1.952
84774W        W51183  28.615   6.954   1.773
84775W        W51184  28.243  22.283  13.490
84776W        W51185   7.160  10.292   2.281
84777W        W51186  28.378  17.949  11.052
84778W        W51187   1.491   7.281   1.786
84779W        W51188  43.432   6.175  11.977
84780W        W51189   1.405  10.210   3.369
84781W        W51190  37.396  43.817   4.560
84782W        W51191   9.615   0.868  13.055
84783W        W51192  40.958  31.323  14.863
84784W        W51193  37.367   1.620  14.893
84785W        W51194  24.470  32.454   2.657
84786W        W51195  29.702  37.884   1.828
84787W        W51196  18.222  18.587  10.866
84788W        W51197  38.063   0.401   4.674
84789W        W51198  12.724  37.451   2.166
84790W        W51199  42.298   5.232  14.973
84791W        W51200  44.767   3.735  11.153
84792W        W51201  21.808  24.041  11.623
84793W        W51202  28.975  23.271   3.758
84794W        W51203  16.839   8.676  13.340
84795W        W51204  33.502  13.613  12.116
84796W        W51205   8.125   9.858  12.803
84797W        W51206  16.766  29.713   0.297
84798W        W51207  11.370   3.661  12.012
84799W        W51208  43.035  12.649  11.001
84800W        W51209   2.552  18.773  11.366
84801W        W51210  18.092  13.184  13.564
84802W        W51211  19.024  30.371  11.573
84803W        W51212   8.435  12.581   2.273
84804W        W51213   2.228   7.938  14.863
84805W        W51214  43.791  36.056   0.786
84806W        W51215   6.804  31.408   2.360
84807W        W51216   2.388   3.387   3.389
84808W        W51217  38.402  30.041   3.649
84809W        W51218  33.442  38.919  12.903
84810W        W51219  15.388   9.225   4.567
84811W        W51220  42.469  33.881  10.490
84812W        W51221  39.731  18.258  11.436
84813W        W51222  27.147  36.811   1.092
84814W        W51223  32.943  44.168  12.935
84815W        W51224  33.407   0.289   4.250
84816W        W51225  22.201  10.234  14.654
84817W        W51226  38.477   1.730   3.664
84818W        W51227  15.496  22.719  11.527
84819W        W51228  35.321  16.918   1.367
84820W        W51229   3.202   9.447   0.354
84821W        W51230   3.763  27.232  14.426
84822W        W51231  43.584   4.231   3.171
84823W        W51232  28.701   5.772   4.380
84824W        W51233   3.094   9.369   2.924
84825W        W51234  42.525  23.213   4.838
84826W        W51235   6.275  24.998  11.382
84827W        W51236   4.775  34.769   2.669
84828W        W51237  21.276  30.013   4.393
84829W        W51238  41.727   8.362  12.828
84830W        W51239  18.288  24.198  11.924
84831W        W51240   3.689  27.544  10.861
84832W        W51241  20.547  21.858  14.194
84833W        W51242  16.140  25.798   2.762
84834W        W51243   4.243  20.199   0.018
84835W        W51244  25.012  10.685  11.383
84836W        W51245  14.059   4.362  14.688
84837W        W51246  17.104  16.035  11.586
84838W        W51247   5.179  10.296   1.003
84839W        W51248  20.051   4.396  13.883
84840W        W51249  10.142  37.519  12.330
84841W        W51250  29.065  37.367  14.605
84842W        W51251  42.497   7.388  12.578
84843W        W51252  17.599  27.513  13.799
84844W        W51253   6.858   9.531   3.663
84845W        W51254   2.606  13.105  10.686
84846W        W51255  16.063  16.249   0.311
84847W        W51256  11.393  31.551   0.753
84848W        W51257   3.287  27.046  10.180
84849W        W51258  10.421  21.558   4.753
84850W        W51259  22.474  37.001  10.929
84851W        W51260  14.307   3.368  11.692
84852W        W51261   2.244  14.785  12.235
84853W        W51262   6.818   7.317   3.758
84854W        W51263  19.900  40.259   5.062
84855W        W51264  30.479  21.644   4.471
84856W        W51265  20.306  16.074  14.518
84857W        W51266   9.446  37.917  14.316
84858W        W51267  20.848   1.721  14.289
84859W        W51268   4.705  10.637  11.743
84860W        W51269  34.939   3.384  11.756
84861W        W51270  13.272  26.571  11.161
84862W        W51271   2.337  40.388  14.360
84863W        W51272  31.970  40.479   2.353
84864W        W51273  22.510  21.663   0.076
84865W        W51274  25.498  15.305   3.662
84866W        W51275  39.377  13.776   4.263
84867W        W51276   8.081  38.336  14.965
84868W        W51277  31.609   1.338  13.604
84869W        W51278  17.767  36.325   4.650
84870W        W51279   2.817  24.940   1.390
84871W        W51280  18.512  39.644   4.119
84872W        W51281  41.569  38.626  13.894
84873W        W51282   1.001  40.794   2.234
84874W        W51283  20.782   1.429  12.475
84875W        W51284  10.608   7.666   4.409
84876W        W51285  41.367  30.961   0.981
84877W        W51286  12.102  23.667   2.735
84878W        W51287  35.453  27.970   1.319
84879W        W51288   4.424  16.449  12.625
84880W        W51289  13.268  40.751   3.313
84881W        W51290  42.480  39.567  13.536
84882W        W51291  17.710  30.678  12.989
84883W        W51292   2.507  19.486   5.048
84884W        W51293  28.421  11.435   9.762
84885W        W51294  33.389  11.343   1.897
84886W        W51295  18.570  39.263  10.994
84887W        W51296   2.143  31.091  11.441
84888W        W51297  42.530  27.496   0.550
84889W        W51298  39.928   4.680  13.981
84890W        W51299  12.235   0.249  12.506
84891W        W51300  20.075  29.449  12.501
84892W        W51301  19.619  18.785   4.582
84893W        W51302  28.469  21.000   1.309
84894W        W51303  42.741   8.701   1.230
84895W        W51304  18.903  18.226   3.691
84896W        W51305   0.229  40.566   0.807
84897W        W51306  10.563  17.540  13.467
84898W        W51307  31.987  43.321   4.354
84899W        W51308  21.959  27.025  14.471
84900W        W51309   9.819  10.884  14.267
84901W        W51310  28.065  43.509  12.759
84902W        W51311  17.355  21.223  14.778
84903W        W51312   5.692  27.909   0.316
84904W        W51313   5.789  19.311  11.474
84905W        W51314  33.455   4.019   5.684
84906W        W51315  13.140   5.728  13.374
84907W        W51316  39.310  26.058  11.601
84908W        W51317  11.279   7.118  11.323
84909W        W51318  39.810  29.102   2.735
84910W        W51319   4.355  33.056  13.412
84911W        W51320  22.649  35.858  14.064
84912W        W51321  29.632  11.608  11.303
84913W        W51322  38.652  31.565  11.618
84914W        W51323  41.030  26.617  13.280
84915W        W51324   9.378   5.112  13.514
84916W        W51325   7.518  11.584   4.152
84917W        W51326  35.048   5.624   2.236
84918W        W51327  34.006  14.210   3.716
84919W        W51328   2.966  40.809   3.834
84920W        W51329  15.124  39.533   5.491
84921W        W51330   0.507  21.609   1.287
84922W        W51331  17.231   9.231   4.524
84923W        W51332  29.648  37.967   4.504
84924W        W51333  11.654  41.828  12.381
84925W        W51334  34.826   1.180   2.843
84926W        W51335  21.165  31.666   2.250
84927W        W51336  15.600  43.456   0.408
84928W        W51337  42.291  24.697  13.952
84929W        W51338   2.248   7.727  13.813
84930W        W51339  42.885  20.507  11.098
84931W        W51340  37.991  18.263   1.090
84932W        W51341  11.880  39.931   1.452
84933W        W51342  24.019  36.782   0.358
84934W        W51343  44.273  18.292  12.921
84935W        W51344   8.312  42.858  12.027
84936W        W51345   3.802  24.804   0.733
84937W        W51346   1.848  20.693   4.580
84938W        W51347  15.884   2.714  11.701
84939W        W51348  25.958  21.524   2.774
84940W        W51349   8.064  27.574  11.741
84941W        W51350  37.543   2.899  12.345
84942W        W51351  44.768  29.921  11.718
84943W        W51352  31.926  25.459   3.616
84944W        W51353  24.839  29.835   0.177
84945W        W51354  21.615  14.971  14.242
84946W        W51355  35.748  27.244   4.087
84947W        W51356  11.898  23.292  14.859
84948W        W51357   6.876  10.675  11.656
84949W        W51358   0.507  28.529   3.733
84950W        W51359  19.498   3.586   2.619
84951W        W51360   1.114   7.697  11.047
84952W        W51361  41.674  30.696  12.064
84953W        W51362  44.913  27.698  13.523
84954W        W51363   0.748  44.854   1.695
84955W        W51364  19.433  39.855  13.797
84956W        W51365   3.984  35.119   2.238
84957W        W51366  34.159  12.504   2.375
84958W        W51367  43.413   1.901   2.400
84959W        W51368  41.500  21.424  12.475
84960W        W51369  26.951   7.300  12.923
84961W        W51370  36.363   2.220   3.679
84962W        W51371  22.285  38.847  12.046
84963W        W51372  25.713   5.624   1.296
84964W        W51373  37.309  34.526   2.927
84965W        W51374  17.506  17.186   1.712
84966W        W51375  27.886  29.138  12.601
84967W        W51376   7.434  38.260   1.924
84968W        W51377  36.911   5.410  11.649
84969W        W51378  24.363  32.105  12.076
84970W        W51379  36.570  35.088   2.683
84971W        W51380  44.364  18.669  11.212
84972W        W51381  44.935  20.785  13.075
84973W        W51382  11.886  30.303  10.705
84974W        W51383   4.973  13.520  12.064
84975W        W51384  32.497  31.064  13.425
84976W        W51385  17.812   9.144   1.237
84977W        W51386  38.346  38.970  14.896
84978W        W51387  44.816   1.740   1.187
84979W        W51388  30.068  19.173  10.666
84980W        W51389  39.537  28.612   1.809
84981W        W51390   8.345  21.926   2.562
84982W        W51391  36.999  14.906  14.374
84983W        W51392  13.236  18.706   3.991
84984W        W51393  40.563   2.492  14.432
84985W        W51394  12.580  43.893  12.124
84986W        W51395  10.750  39.480   3.148
84987W        W51396   9.463  35.340   0.941
84988W        W51397  26.517  29.142  14.366
84989W        W51398  40.325  44.252   1.690
84990W        W51399  19.657  18.769  10.932
84991W        W51400  34.899  21.821  13.351
84992W        W51401  29.048   0.440   4.876
84993W        W51402   6.914  27.464  12.534
84994W        W51403  13.561  20.718   1.680
84995W        W51404  42.630   6.209   1.842
84996W        W51405  12.852  24.262   2.501
84997W        W51406  31.623  14.741   2.189
84998W        W51407  24.122   2.877  10.393
84999W        W51408  17.492  26.136  14.477
85000W        W51409   0.302  18.504  14.877
85001W        W51410  39.444   5.564   1.722
85002W        W51411  30.732  26.455   3.237
85003W        W51412   2.490  11.662  10.684
85004W        W51413  35.941  27.582  11.031
85005W        W51414  13.579  32.600  11.776
85006W        W51415  10.241  33.859  10.289
85007W        W51416  39.050  31.961   2.329
85008W        W51417  28.714  17.717   0.535
85009W        W51418   2.471  17.739  13.600
85010W        W51419  14.128  25.061   1.253
85011W        W51420  39.992   3.762   2.392
85012W        W51421   3.302  34.408   0.032
85013W        W51422  38.452   7.915  10.807
85014W        W51423  34.385  24.923   2.098
85015W        W51424  28.610  31.798  12.369
85016W        W51425   5.781  29.761  10.565
85017W        W51426  27.464  33.870  14.747
85018W        W51427  32.966  20.618  13.124
85019W        W51428  10.814  20.662   1.265
85020W        W51429  16.341  35.408  12.138
85021W        W51430  34.271   5.221  13.412
85022W        W51431  38.050  34.868   0.425
85023W        W51432  37.014  41.267  12.892
85024W        W51433  17.795  27.373  13.012
85025W        W51434  23.594  43.999  14.311
85026W        W51435  26.506   5.184   2.676
85027W        W51436  40.508  43.075  12.053
85028W        W51437  32.490  37.670   4.086
85029W        W51438  34.902  20.541  13.852
85030W        W51439  38.345   6.362   3.137
85031W        W51440  31.343  31.625  12.682
85032W        W51441  32.430  18.870   2.098
85033W        W51442  17.200  14.284   0.712
85034W        W51443   9.520  32.104  13.620
85035W        W51444   7.961  18.701  13.949
85036W        W51445  18.641  16.068   1.004
85037W        W51446   0.271  23.003  14.826
85038W        W51447   7.173  13.876  11.522
85039W        W51448  21.629  25.495  13.410
85040W        W51449   4.738  22.118   4.896
85041W        W51450   5.285   8.685   1.210
85042W        W51451  12.109   2.867   3.577
85043W        W51452  33.857  32.936  14.471
85044W        W51453  35.464   9.682   3.005
85045W        W51454  26.374  17.980   3.360
85046W        W51455  21.971  35.911  12.946
85047W        W51456  27.700   0.968   0.828
85048W        W51457  12.581  30.550   2.181
85049W        W51458  11.308  31.912  12.961
85050W        W51459   2.061  30.434  14.392
85051W        W51460  11.293   5.847   4.891
85052W        W51461   0.865  28.195   5.123
85053W        W51462  23.549   2.914   1.791
85054W        W51463  29.962  39.532   0.954
85055W        W51464  39.921  32.541  11.562
85056W        W51465  15.137  40.273   2.497
85057W        W51466  33.457   7.371   2.767
85058W        W51467   6.141   1.731   4.128
85059W        W51468  22.432  32.853   3.413
85060W        W51469  28.366   8.585  13.435
85061W        W51470  23.143   7.440  12.959
85062W        W51471  41.417  25.264   0.006
85063W        W51472   8.776  18.582   4.527
85064W        W51473  37.941  34.169  14.744
85065W        W51474  27.623  29.941   3.169
85066W        W51475  15.943  14.258   4.570
85067W        W51476   2.680  15.148   1.672
85068W        W51477  35.519  17.563  12.248
85069W        W51478  19.954  30.601  11.484
85070W        W51479  16.811   4.303   1.879
85071W        W51480  26.921  35.252  14.731
85072W        W51481  43.380  20.656   3.048
85073W        W51482  43.218  24.641   3.669
85074W        W51483  43.549  40.455  14.229
85075W        W51484  34.916   0.810   0.931
85076W        W51485  12.659  27.140  13.548
85077W        W51486  27.544  21.310  12.580
85078W        W51487  26.040   6.763   0.179
85079W        W51488  32.261  42.527   3.751
85080W        W51489  29.124  22.563  10.639
85081W        W51490  12.578  23.045  13.956
85082W        W51491  13.068  43.045   3.711
85083W        W51492  39.880  27.791  14.050
85084W        W51493   4.350  39.572   3.675
85085W        W51494  28.389   8.135  14.385
85086W        W51495  13.945  31.443  13.528
85087W        W51496  28.583  12.195  10.644
85088W        W51497  42.751   7.561   2.852
85089W        W51498  40.736  32.177  11.512
85090W        W51499  24.609  38.453   2.885
85091W        W51500  22.020   9.871   3.224
85092W        W51501   5.637  26.678  13.943
85093W        W51502  18.873  33.414  13.906
85094W        W51503   8.574  35.957   1.287
85095W        W51504  11.798  39.209   1.580
85096W        W51505  17.593  14.104   1.295
85097W        W51506  22.417  40.486   4.909
85098W        W51507   9.394  33.473   2.099
85099W        W51508   4.797  37.432   5.407
85100W        W51509  27.495  24.123  14.530
85101W        W51510  18.775   5.852  13.022
85102W        W51511  32.160  15.879   5.079
85103W        W51512   2.415  39.776  13.218
85104W        W51513  15.810  22.238   1.471
85105W        W51514  26.105  34.697   1.271
85106W        W51515  43.942  36.894  10.726
85107W        W51516  38.937   2.926   1.900
85108W        W51517  31.824   7.702  13.854
85109W        W51518  11.285   2.314  13.887
85110W        W51519  36.981  15.848   1.763
85111W        W51520  14.244  25.651   4.567
85112W        W51521   4.646  11.614  12.812
85113W        W51522  15.176  20.445  11.738
85114W        W51523  32.922   5.707  12.581
85115W        W51524  21.332  35.153  11.682
85116W        W51525  36.097  34.380   0.855
85117W        W51526  33.480  25.115   1.328
85118W        W51527  26.686  42.328   3.717
85119W        W51528   2.848  10.304  11.500
85120W        W51529  27.586   3.704  11.295
85121W        W51530  24.105  37.646  11.498
85122W        W51531  39.004  18.980   1.460
85123W        W51532  18.714  30.169   1.740
85124W        W51533  29.514   0.987   0.448
85125W        W51534  26.545  31.765   2.352
85126W        W51535  22.021  25.002  14.849
85127W        W51536   0.324  37.010  12.985
85128W        W51537  18.132  31.033  11.938
85129W        W51538   8.395  38.138   0.340
85130W        W51539  41.601  44.889   4.252
85131W        W51540   2.284  30.688  14.832
85132W        W51541   9.912  39.796   4.503
85133W        W51542  37.903  21.112   4.748
85134W        W51543  36.581  13.791   0.782
85135W        W51544  11.479  21.940  12.453
85136W        W51545  17.264  21.303  12.611
85137W        W51546  36.389  34.414  10.672
85138W        W51547  19.242  27.430   0.914
85139W        W51548   0.499  31.991   1.190
85140W        W51549  43.033  39.722  11.191
85141W        W51550  10.486   9.236  11.129
85142W        W51551  38.085  12.684  12.606
85143W        W51552   9.376  27.461  10.427
85144W        W51553   7.768  39.080  14.432
85145W        W51554   5.967  43.320  12.986
85146W        W51555   5.666  43.197  10.765
85147W        W51556  19.715   8.770   1.204
85148W        W51557  39.253  16.202  11.084
85149W        W51558  16.595   8.830   1.746
85150W        W51559  15.819  34.404   5.045
85151W        W51560  18.560  10.271   4.728
85152W        W51561  22.643  25.971  12.749
85153W        W51562  23.697  17.696  12.083
85154W        W51563  33.393  25.125  14.471
85155W        W51564  37.200  40.042   4.500
85156W        W51565   0.906  17.209  12.336
85157W        W51566  16.695   9.883  13.788
85158W        W51567  37.587  44.075   4.121
85159W        W51568  21.481  34.344  11.162
85160W        W51569  21.764  27.452  13.523
85161W        W51570  20.871  37.955   0.833
85162W        W51571   8.119  42.972   2.318
85163W        W51572  33.648  24.987   3.932
85164W        W51573  30.015  30.329   0.475
85165W        W51574  34.665  14.667  12.119
85166W        W51575  24.097   7.660  10.967
85167W        W51576   0.397  31.315   0.905
85168W        W51577  44.286  19.120   2.397
85169W        W51578  13.175   5.711  12.841
85170W        W51579  15.150   0.510  14.117
85171W        W51580   3.955  35.668  13.896
85172W        W51581   2.951  14.178   0.683
85173W        W51582  32.149  20.473  12.508
85174W        W51583  29.225   3.343   2.873
85175W        W51584  15.531  14.562   3.584
85176W        W51585  37.895  12.910   0.192
85177W        W51586  21.845  44.821   4.522
85178W        W51587  14.176  38.099   2.728
85179W        W51588  19.026  12.535  12.695
85180W        W51589  37.072  44.350   1.681
85181W        W51590  19.692   7.004  10.418
85182W        W51591  41.860  20.803   0.404
85183W        W51592   4.366   5.838   2.658
85184W        W51593   9.203  34.384   2.670
85185W        W51594  43.402  23.592  10.738
85186W        W51595  41.872   4.129   2.329
85187W        W51596  24.089  30.183   2.328
85188W        W51597  29.325  30.596   5.010
85189W        W51598  17.225  39.778  11.001
85190W        W51599   9.845   2.882   3.172
85191W        W51600  25.531  29.201   2.169
85192W        W51601   3.443   5.229   2.393
85193W        W51602   6.340  33.807   4.133
85194W        W51603  13.966  25.527   3.915
85195W        W51604  44.048  42.489   0.271
85196W        W51605  31.688  23.993   2.332
85197W        W51606  36.362   3.644  14.955
85198W        W51607  10.769  21.127  10.532
85199W        W51608  37.525   2.070  11.059
85200W        W51609  40.012  29.373  12.537
85201W        W51610  17.255   7.777  14.013
85202W        W51611  26.978   5.671   1.816
85203W        W51612  18.764  13.301   1.366
85204W        W51613  14.391   3.016   1.284
85205W        W51614   3.917   3.216  12.563
85206W        W51615  37.866  25.478  12.511
85207W        W51616  16.003  10.185  12.850
85208W        W51617  14.199  31.164   3.714
85209W        W51618   5.392  41.978  11.133
85210W        W51619  30.659   9.910   4.459
85211W        W51620  20.926  30.604  11.744
85212W        W51621   2.529  26.178   2.861
85213W        W51622  27.646  32.410   1.234
85214W        W51623  25.144   6.671   0.758
85215W        W51624  23.694  43.771   2.676
85216W        W51625  16.168  43.428  10.641
85217W        W51626   6.969   4.416  11.917
85218W        W51627  12.562  27.988  14.913
85219W        W51628  16.865   9.646  13.341
85220W        W51629  31.698  14.579  13.752
85221W        W51630   9.276  11.418   4.669
85222W        W51631  29.422  22.110   1.164
85223W        W51632  23.203  31.255  12.533
85224W        W51633  34.955  16.580   0.383
85225W        W51634  25.586  42.052   4.196
85226W        W51635  16.612   1.002   2.467
85227W        W51636  12.653  29.228   5.027
85228W        W51637  39.842  26.429   1.281
85229W        W51638  29.568   3.330  11.692
85230W        W51639  35.698  28.683  13.332
85231W        W51640  24.020   0.769  14.041
85232W        W51641  33.110  17.302   3.206
85233W        W51642  16.191  23.064   1.190
85234W        W51643  41.390   0.455  13.981
85235W        W51644  23.470  32.989  10.660
85236W        W51645  19.438  38.518  13.922
85237W        W51646  34.933  42.077  14.877
85238W        W51647  40.302  20.157   2.350
85239W        W51648   3.201  39.608   4.629
85240W        W51649   4.320  31.847  13.891
85241W        W51650  41.869  37.800  13.969
85242W        W51651  44.708  17.761   2.389
85243W        W51652   0.345  24.750   1.270
85244W        W51653  27.142  35.581  13.388
85245W        W51654  23.922   6.962  10.920
85246W        W51655  42.420  11.393   0.297
85247W        W51656   3.250  28.502  13.579
85248W        W51657   0.338  11.421  11.671
85249W        W51658   3.974  17.615   0.961
85250W        W51659   8.532  44.816  13.109
85251W        W51660  19.803  44.109  13.470
85252W        W51661  11.295  13.347  13.706
85253W        W51662  14.106  18.828  10.131
85254W        W51663   7.777  25.231  14.310
85255W        W51664  34.770  17.991   3.692
85256W        W51665  25.516  35.859  14.777
85257W        W51666  34.874  13.760   4.201
85258W        W51667  18.268   1.973   2.736
85259W        W51668  37.907  26.638   4.690
85260W        W51669  28.481  43.259  14.901
85261W        W51670   4.753  11.232   1.914
85262W        W51671  25.071  13.288  12.398
85263W        W51672  36.649  35.953   0.890
85264W        W51673  16.905  28.393   4.706
85265W        W51674  21.209   0.743  12.660
85266W        W51675  38.478   9.789   4.030
85267W        W51676   4.262  18.350  14.478
85268W        W51677  42.973   7.781   4.134
85269W        W51678   4.905  33.345  14.403
85270W        W51679  17.247   4.693  12.121
85271W        W51680  27.641  23.549  10.444
85272W        W51681  11.371  27.616   2.588
85273W        W51682  30.846   6.477  11.637
85274W        W51683  38.380  24.724  13.610
85275W        W51684  16.531   7.947   0.782
85276W        W51685  29.699  28.990  10.544
85277W        W51686  14.132   4.499   3.202
85278W        W51687   2.298   5.079  12.946
85279W        W51688  38.572  18.709   3.997
85280W        W51689   5.346   3.297  14.258
85281W        W51690  38.524  14.087  12.001
85282W        W51691  33.867  31.813  12.499
85283W        W51692  35.621  34.932   3.211
85284W        W51693  43.576  24.009  14.887
85285W        W51694  11.588  40.936   0.763
85286W        W51695   0.133  12.333  11.537
85287W        W51696  38.184  31.406  13.378
85288W        W51697  10.111  32.408   0.583
85289W        W51698  11.736  11.773   1.885
85290W        W51699  17.375  34.583   0.433
85291W        W51700  31.399  23.626   1.439
85292W        W51701  44.060   8.162   1.424
85293W        W51702  33.320   8.715   4.334
85294W        W51703   4.179   6.186  12.589
85295W        W51704  26.433  32.919   1.256
85296W        W51705  28.171  29.550   1.050
85297W        W51706   9.257  24.707  14.399
85298W        W51707  40.399  20.429   4.486
85299W        W51708  12.148   7.870   0.139
85300W        W51709  33.850  12.631   4.556
85301W        W51710   4.853   2.931  10.533
85302W        W51711  22.130  21.288   0.866
85303W        W51712  26.533   8.776  13.745
85304W        W51713   2.469  10.187   3.451
85305W        W51714  42.041  31.180   4.648
85306W        W51715  40.571   7.546   4.018
85307W        W51716   1.207  22.831  14.062
85308W        W51717  30.368  33.999  11.143
85309W        W51718   9.857  36.459   1.172
85310W        W51719  13.678  19.215   0.859
85311W        W51720  17.983   4.398  14.862
85312W        W51721  21.154  44.863  12.919
85313W        W51722  38.322  18.154   3.644
85314W        W51723  16.505  41.417  10.083
85315W        W51724  15.150  36.432   2.280
85316W        W51725   2.998  18.343   4.794
85317W        W51726  12.060   1.965  13.021
85318W        W51727  30.232   4.971   0.020
85319W        W51728   8.886  21.321  14.380
85320W        W51729  37.746  27.945  10.396
85321W        W51730  31.626  14.920  12.898
85322W        W51731  30.634  24.690  13.631
85323W        W51732  28.378  30.720  12.644
85324W        W51733  38.575   3.962   4.547
85325W        W51734  25.242  20.113  10.718
85326W        W51735   0.159   7.715   1.715
85327W        W51736  21.133   1.614   0.045
85328W        W51737  35.400  32.299   0.413
85329W        W51738  24.440  11.635   1.798
85330W        W51739   7.595  15.654  14.834
85331W        W51740  35.843   2.759   2.402
85332W        W51741  27.108  34.637  11.579
85333W        W51742  44.751   7.965  14.440
85334W        W51743  12.220  31.286   3.734
85335W        W51744  23.045  25.947   4.182
85336W        W51745   2.762   1.946   1.945
85337W        W51746  11.819  29.642   0.903
85338W        W51747  11.691  22.565   3.697
85339W        W51748  13.178   8.711   3.165
85340W        W51749  35.632  10.375  12.422
85341W        W51750  38.143  12.806  13.503
85342W        W51751  18.545  30.657   3.453
85343W        W51752  26.695  20.307   1.024
85344W        W51753  31.567  19.096   0.866
85345W        W51754  15.647   1.108   2.785
85346W        W51755  18.567  15.740   0.096
85347W        W51756  43.252   7.969  10.764
85348W        W51757   7.108  30.134  14.643
85349W        W51758  12.268   5.421   3.627
85350W        W51759   2.385  16.787  12.584
85351W        W51760  35.085  23.633  10.669
85352W        W51761   6.290  15.872  13.949
85353W        W51762  27.586  28.218   0.816
85354W        W51763   9.602  11.281   0.416
85355W        W51764  14.239  19.799  13.001
85356W        W51765  41.847  24.637   4.282
85357W        W51766  35.563  15.748  10.382
85358W        W51767   9.142   0.855  13.339
85359W        W51768   1.131  26.489   1.348
85360W        W51769  21.966  13.299   1.393
85361W        W51770  18.518  12.293   3.268
85362W        W51771  40.892  32.336   2.156
85363W        W51772  10.111  36.430  13.522
85364W        W51773  35.339   8.874  14.788
85365W        W51774   7.714  13.425  13.864
85366W        W51775  27.919   9.311  14.866
85367W        W51776  22.889  43.593   0.368
85368W        W51777  11.945  11.470   3.663
85369W        W51778  43.959   9.899   3.262
85370W        W51779  27.402  36.936  14.352
85371W        W51780   4.786  20.088  10.860
85372W        W51781  33.100   2.947   1.127
85373W        W51782  24.308   0.700  14.477
85374W        W51783  23.236  41.739   1.517
85375W        W51784  24.215  38.813  13.509
85376W        W51785  37.920  35.935  10.800
85377W        W51786  40.159  36.566  12.806
85378W        W51787  12.394  16.786  10.699
85379W        W51788   3.939   2.810   0.875
85380W        W51789  43.510  32.120  10.286
85381W        W51790  23.571  42.499   4.215
85382W        W51791   7.744  38.054   3.076
85383W        W51792  34.848   1.807   3.383
85384W        W51793  11.410  21.525  14.445
85385W        W51794  35.782  36.956   0.946
85386W        W51795  41.120  39.950   4.541
85387W        W51796  23.162   1.326   4.291
85388W        W51797  17.217  24.652   3.396
85389W        W51798  15.052  24.678  13.646
85390W        W51799  35.386  25.022   1.757
85391W        W51800  20.611   6.684   0.192
85392W        W51801  28.963  13.047   3.154
85393W        W51802  13.387   4.863   1.750
85394W        W51803  13.181  17.849   1.011
85395W        W51804  33.145   6.866   2.776
85396W        W51805  14.603   2.544   4.477
85397W        W51806   8.086  16.282   3.884
85398W        W51807  10.319  13.224  13.630
85399W        W51808  22.598  27.144  11.004
85400W        W51809  33.895  26.127  14.335
85401W        W51810  19.995  22.783  12.873
85402W        W51811  11.710  44.066   3.213
85403W        W51812  30.409   1.794   0.969
85404W        W51813   0.834  43.096  13.064
85405W        W51814  20.487  24.102  13.928
85406W        W51815  19.463  35.372   3.825
85407W        W51816  30.826  26.652  13.799
85408W        W51817  23.574   3.491  10.728
85409W        W51818   6.574   3.526   1.503
85410W        W51819  42.884  12.091  14.512
85411W        W51820  33.414  22.353   0.098
85412W        W51821   1.384  43.017  10.683
85413W        W51822  28.980  15.190   4.364
85414W        W51823   4.185  19.751   1.792
85415W        W51824  14.567   1.298  11.895
85416W        W51825   8.704   0.225   3.387
85417W        W51826  20.957   0.284  12.662
85418W        W51827  18.635   5.749  11.699
85419W        W51828  37.822  20.091   1.830
85420W        W51829  44.910  36.091   0.482
85421W        W51830   2.509  36.499  11.183
85422W        W51831  20.055  41.351  13.407
85423W        W51832  27.451  40.512   3.578
85424W        W51833   4.730  23.003  12.100
85425W        W51834  23.285   5.504   4.182
85426W        W51835  35.552  16.591   4.069
85427W        W51836  40.308  29.033   4.891
85428W        W51837   1.370  37.503  13.545
85429W        W51838  42.004  21.656   0.550
85430W        W51839  15.611  21.148  14.153
85431W        W51840  18.884  25.456  14.202
85432W        W51841  35.292  15.237   3.387
85433W        W51842  28.526   7.798   2.708
85434W        W51843   5.747   6.749  12.495
85435W        W51844  26.736   6.857   9.916
85436W        W51845   9.163  30.812  12.049
85437W        W51846   0.727  33.078   2.828
85438W        W51847  10.617   8.667  11.970
85439W        W51848  31.689   3.276   0.265
85440W        W51849   8.215   0.079  10.416
85441W        W51850  36.301  20.814  13.882
85442W        W51851  25.889   7.995   3.338
85443W        W51852  26.645   5.846   3.182
85444W        W51853  26.152  43.125   2.789
85445W        W51854  10.442  43.226  14.892
85446W        W51855  44.292  10.371   2.070
85447W        W51856  41.045   7.412   0.979
85448W        W51857  21.933  37.546   2.061
85449W        W51858  18.831   8.735  10.670
85450W        W51859  22.885   1.672  12.074
85451W        W51860  36.195  30.520  14.360
85452W        W51861  37.376  41.443   4.096
85453W        W51862  36.522   5.858   1.945
85454W        W51863  40.733  32.149   2.630
85455W        W51864  32.379  32.714   0.409
85456W        W51865  17.365  20.806   3.533
85457W        W51866  25.084   7.476   2.987
85458W        W51867  39.955  29.270  13.047
85459W        W51868   0.550  41.995  11.255
85460W        W51869  34.353  40.566  13.893
85461W        W51870  43.110  41.906   0.432
85462W        W51871  38.302  35.346  11.137
85463W        W51872  40.452  39.208   4.745
85464W        W51873  41.091  12.753  12.048
85465W        W51874  25.012   4.903   3.604
85466W        W51875  16.767  23.044  12.036
85467W        W51876  29.455  30.411   3.679
85468W        W51877   2.418  38.806   4.588
85469W        W51878   1.723  17.004   0.921
85470W        W51879  21.289  19.655  11.657
85471W        W51880  16.223  12.185  10.731
85472W        W51881   5.733   0.892  12.626
85473W        W51882  36.106  27.161  13.058
85474W        W51883  35.387  18.275  14.895
85475W        W51884   8.099  25.562  14.927
85476W        W51885  22.043  15.814   2.433
85477W        W51886  18.091  14.283  12.455
85478W        W51887  40.221   1.472   3.204
85479W        W51888   7.227  35.132  10.006
85480W        W51889  28.677  31.619   3.796
85481W        W51890  37.657  36.292  14.293
85482W        W51891  33.734   7.492  10.613
85483W        W51892  16.521  18.248   3.618
85484W        W51893  43.778  19.953   3.184
85485W        W51894  33.154  41.364  12.950
85486W        W51895   5.208  38.021   0.638
85487W        W51896  31.372  44.103  12.916
85488W        W51897  22.643   3.947  11.170
85489W        W51898  41.723  10.744   0.640
85490W        W51899  42.828  23.515   2.973
85491W        W51900  37.399  18.764   1.442
85492W        W51901  24.892  26.864  10.650
85493W        W51902   4.637  43.312   2.808
85494W        W51903  17.109  15.294  12.616
85495W        W51904  43.677  20.246  13.051
85496W        W51905   3.427  38.612   0.202
85497W        W51906  16.332  30.838  12.009
85498W        W51907   8.374  26.221   0.783
85499W        W51908  42.306  34.576  14.920
85500W        W51909  29.475  27.247   1.326
85501W        W51910  35.560  27.507  10.702
85502W        W51911  30.098  31.269   2.688
85503W        W51912   7.023   8.386  10.706
85504W        W51913  15.870  26.262   4.312
85505W        W51914  12.620  36.981  12.835
85506W        W51915  19.204  28.954  10.536
85507W        W51916  12.069  40.383   9.750
85508W        W51917  40.343   7.868  11.978
85509W        W51918   7.431  19.651   4.699
85510W        W51919  31.925  42.541   1.930
85511W        W51920  28.039   5.741  11.406
85512W        W51921  25.009  30.482   3.262
85513W        W51922  25.609  31.113   4.832
85514W        W51923  10.575  12.854  13.943
85515W        W51924  20.661  27.454   0.429
85516W        W51925  18.777  26.592   3.286
85517W        W51926  38.983  33.466   4.447
85518W        W51927  38.272  14.766   1.928
85519W        W51928   0.965  41.728  12.054
85520W        W51929  10.791  35.591   2.909
85521W        W51930  35.663  30.414  13.749
85522W        W51931  17.026  28.222   1.271
85523W        W51932   0.230  40.699  11.464
85524W        W51933   2.334  13.650  14.298
85525W        W51934  39.456   2.694   1.385
85526W        W51935   6.335  30.955   2.336
85527W        W51936  24.934   6.272   4.121
85528W        W51937  11.850  41.090  14.420
85529W        W51938  43.542   5.213   4.541
85530W        W51939  24.630   2.952   2.218
85531W        W51940  28.677  28.236   0.435
85532W        W51941  15.785  37.428   1.797
85533W        W51942   4.848  40.823   3.170
85534W        W51943   0.927  41.772  14.556
85535W        W51944  16.842  38.625   5.284
85536W        W51945  38.884  32.884  13.561
85537W        W51946  36.088   9.325  11.491
85538W        W51947  19.790  42.827  10.664
85539W        W51948  38.622  43.370  11.465
85540W        W51949  38.998  38.725   1.852
85541W        W51950   7.217  10.728  13.472
85542W        W51951  34.412  26.405  14.122
85543W        W51952  10.950  30.930   4.099
85544W        W51953  18.809  17.375   0.338
85545W        W51954  15.743  16.223  10.757
85546W        W51955  32.473  16.219   2.925
85547W        W51956  43.649   5.417  14.030
85548W        W51957  36.180   8.761  14.415
85549W        W51958  25.720  34.004   3.072
85550W        W51959  24.214   9.668  11.074
85551W        W51960   6.957  42.239  11.064
85552W        W51961  29.137  13.624  13.277
85553W        W51962   2.116  25.094  12.780
85554W        W51963  36.984  35.081  14.470
85555W        W51964  36.029  39.001  10.708
85556W        W51965   9.315  14.570  11.191
85557W        W51966   4.185  42.397  14.516
85558W        W51967  44.380  38.409  13.855
85559W        W51968  28.899  17.003  13.670
85560W        W51969  23.593  35.452   4.847
85561W        W51970   8.971  14.699  14.086
85562W        W51971  19.189  38.010  10.896
85563W        W51972  20.164   0.435   1.766
85564W        W51973  23.516  29.940  14.394
85565W        W51974   7.873  43.730  13.056
85566W        W51975  41.229  42.797  11.123
85567W        W51976  30.943  32.823  13.968
85568W        W51977  39.854  16.443  14.469
85569W        W51978   7.723   4.725   4.072
85570W        W51979  25.428   0.927   3.112
85571W        W51980  37.027  22.582  13.266
85572W        W51981   8.868  37.113  13.437
85573W        W51982  27.637  38.741  11.050
85574W        W51983  44.876  14.165   0.488
85575W        W51984  20.838  18.206   4.683
85576W        W51985  15.729  44.773  12.011
85577W        W51986  31.101  17.552  14.249
85578W        W51987  20.451  28.645  14.816
85579W        W51988  31.115  19.577  14.721
85580W        W51989  28.431  33.103   0.766
85581W        W51990  38.084  20.223  13.886
85582W        W51991   5.938  17.259  10.735
85583W        W51992   7.160  32.042  13.664
85584W        W51993  10.878  39.969   4.460
85585W        W51994  44.525   2.447  14.336
85586W        W51995  27.487  24.984   0.672
85587W        W51996   7.962  20.941   3.209
85588W        W51997   8.815  30.429  13.993
85589W        W51998  32.906  17.371  11.084
85590W        W51999  27.912  42.899  14.512
85591W        W52000   2.815  18.985  13.014
85592W        W52001  39.908  34.727   3.887
85593W        W52002  28.971  17.234  10.646
85594W        W52003  31.921  22.712  11.240
85595W        W52004   5.017  39.812  11.498
85596W        W52005  38.616  27.014   1.676
85597W        W52006  17.958  15.981   3.251
85598W        W52007  19.065  18.484  14.782
85599W        W52008  11.582   8.730  13.503
85600W        W52009  17.547  29.609   0.461
85601W        W52010  19.208  30.362  13.874
85602W        W52011  39.038  21.290  10.839
85603W        W52012   4.800  30.461  12.935
85604W        W52013  16.183   8.113   3.360
85605W        W52014   1.958  21.048  10.742
85606W        W52015  14.305  23.109  13.950
85607W        W52016   2.439  25.758   0.447
85608W        W52017   7.376  12.915   3.491
85609W        W52018   1.042   4.911  10.630
85610W        W52019   4.480  27.551  14.796
85611W        W52020   3.962  26.639  12.520
85612W        W52021  25.391  26.599   0.061
85613W        W52022  20.979  11.899   1.303
85614W        W52023  13.472  35.544  10.554
85615W        W52024  40.826  30.511  13.395
85616W        W52025  37.104  34.569  12.549
85617W        W52026  35.392  38.063   2.786
85618W        W52027  18.309  20.329   2.225
85619W        W52028  12.422   4.183  12.450
85620W        W52029  25.077   5.703  14.165
85621W        W52030   4.726   9.208  12.617
85622W        W52031   6.691  17.255   5.225
85623W        W52032  22.980  38.816  11.507
85624W        W52033  38.577  35.882  12.906
85625W        W52034  41.646  20.078  10.738
85626W        W52035  27.297   7.276  13.867
85627W        W52036  34.492  33.049   4.281
85628W        W52037   2.381  35.171  11.863
85629W        W52038  11.418  19.636   0.487
85630W        W52039   7.765  21.412   3.167
85631W        W52040  32.918  10.703  10.667
85632W        W52041  37.502  43.430  14.458
85633W        W52042  25.267   5.385   0.922
85634W        W52043  33.531  32.420  13.837
85635W        W52044  11.164  41.095  12.756
85636W        W52045  35.499   3.763  11.653
85637W        W52046  12.109  38.148   0.332
85638W        W52047  39.506  23.447   2.829
85639W        W52048  44.975  34.389  11.236
85640W        W52049  24.951  25.969   2.254
85641W        W52050   6.376  32.005  10.247
85642W        W52051  12.047  12.981  12.325
85643W        W52052  12.499  27.282  10.759
85644W        W52053  14.138  42.940   1.715
85645W        W52054  12.308  36.364  14.406
85646W        W52055   6.249   2.798   0.942
85647W        W52056  42.888  11.408   3.670
85648W        W52057   0.258  11.275  14.364
85649W        W52058   2.770  40.115   0.449
85650W        W52059  11.358   7.339   1.723
85651W        W52060   7.937  31.660  14.873
85652W        W52061  44.829  16.870  10.517
85653W        W52062  32.450  25.111  12.546
85654W        W52063   8.390   1.217   1.931
85655W        W52064  15.327  18.756   4.991
85656W        W52065  37.098   6.074  14.337
85657W        W52066  19.128  37.470  14.778
85658W        W52067   4.453   8.842  10.621
85659W        W52068  35.453   5.092   0.975
85660W        W52069  44.984  37.853  14.241
85661W        W52070  33.338  36.924   4.635
85662W        W52071  25.631  44.028  11.667
85663W        W52072   2.204  21.080  11.997
85664W        W52073   5.402  41.871   0.521
85665W        W52074  40.533  42.355  10.735
85666W        W52075  21.697  40.065  13.981
85667W        W52076  30.419  38.962  14.885
85668W        W52077  35.980  23.569   1.888
85669W        W52078  34.812  28.310   3.210
85670W        W52079  12.439  12.748   0.304
85671W        W52080  29.281  30.004  14.240
85672W        W52081  16.243  34.685   3.643
85673W        W52082  19.420  26.509  10.621
85674W        W52083  26.649   9.800   1.643
85675W        W52084   7.476  10.741  14.447
85676W        W52085  34.401   9.155  14.324
85677W        W52086  36.879   8.411   0.249
85678W        W52087  43.255  17.091   3.259
85679W        W52088  12.668  15.471  13.360
85680W        W52089  16.329  20.261  11.135
85681W        W52090  31.607  27.743   2.814
85682W        W52091  14.896   3.904   1.414
85683W        W52092  36.323   7.648   2.775
85684W        W52093  32.768  36.130  11.664
85685W        W52094  12.138   4.387   2.670
85686W        W52095  37.093  25.723  13.893
85687W        W52096  37.364   0.734   4.571
85688W        W52097  15.125  15.393   3.455
85689W        W52098   3.195  11.901  12.774
85690W        W52099   3.432   6.671  14.057
85691W        W52100  30.436  21.475  11.983
85692W        W52101  26.922   3.582   3.604
85693W        W52102   3.242  42.792  10.156
85694W        W52103  11.610   4.164   1.817
85695W        W52104  11.187  10.293  11.682
85696W        W52105  37.111  26.310   4.071
85697W        W52106  27.766   7.415   0.389
85698W        W52107  16.948   1.894  10.758
85699W        W52108  15.334  23.338  10.742
85700W        W52109  39.878  41.518   0.073
85701W        W52110  22.741   9.208   4.541
85702W        W52111  20.997  37.964   4.764
85703W        W52112  11.291  43.344  11.893
85704W        W52113  38.607  23.762  12.064
85705W        W52114  30.673  13.176   2.108
85706W        W52115  20.060   0.753  12.122
85707W        W52116   0.757  36.543   3.705
85708W        W52117  38.789  29.626  14.903
85709W        W52118  15.122  21.745   1.285
85710W        W52119   6.753  25.170  13.947
85711W        W52120  10.562  22.122  13.962
85712W        W52121  14.370   6.554   1.245
85713W        W52122  40.968  21.318  13.516
85714W        W52123  11.357  21.302  11.416
85715W        W52124  41.960  21.159  12.505
85716W        W52125  18.469   3.753  10.734
85717W        W52126   6.160   2.517  11.398
85718W        W52127  25.193  24.112   2.102
85719W        W52128  37.498  21.415   0.237
85720W        W52129  36.954  28.749  13.010
85721W        W52130  39.825  40.206  11.559
85722W        W52131  28.960   8.329   0.364
85723W        W52132  28.170  22.783   0.538
85724W        W52133  21.970   8.427  13.552
85725W        W52134  27.890  17.703  14.249
85726W        W52135  19.837  37.847   0.730
85727W        W52136  22.452   8.790  13.009
85728W        W52137  12.825  37.365   1.673
85729W        W52138  17.322  20.372   1.018
85730W        W52139   5.462  37.097  14.148
85731W        W52140  15.129  40.410  11.328
85732W        W52141  41.012  21.980  11.957
85733W        W52142  10.198  25.112  13.880
85734W        W52143  40.103  43.798   3.326
85735W        W52144  34.173  39.504  13.642
85736W        W52145  21.480  10.188   2.734
85737W        W52146  34.359  20.058  12.051
85738W        W52147   7.242  22.667   0.167
85739W        W52148  28.576  20.715   0.880
85740W        W52149   7.751  32.682  11.298
85741W        W52150  16.661  19.301  13.308
85742W        W52151  26.587  38.163   2.290
85743W        W52152   9.161  25.542   3.673
85744W        W52153  17.161  13.276   3.607
85745W        W52154   9.542  20.508  14.608
85746W        W52155  22.767   2.670  12.114
85747W        W52156  14.305  12.845  10.810
85748W        W52157  35.651  15.626  11.870
85749W        W52158  44.535   7.748  10.681
85750W        W52159  12.384   1.806   5.445
85751W        W52160   0.696   0.957  10.940
85752W        W52161  16.074  14.882   3.995
85753W        W52162  14.309  34.970   0.430
85754W        W52163  18.556  40.153   3.084
85755W        W52164  26.052   9.089  12.617
85756W        W52165  18.034  13.097  14.418
85757W        W52166  19.672  33.636  13.550
85758W        W52167  25.740  21.117  13.018
85759W        W52168  42.462   7.088  11.558
85760W        W52169   3.300  35.602  10.710
85761W        W52170   6.168  29.580  12.117
85762W        W52171   4.671   4.842  13.172
85763W        W52172  33.860  40.850   0.883
85764W        W52173  41.379  22.294  12.177
85765W        W52174  27.983  44.658  12.094
85766W        W52175  31.646  22.764   1.378
85767W        W52176  32.353  30.127  14.997
85768W        W52177   8.774  38.514  14.537
85769W        W52178   7.818  42.110   4.071
85770W        W52179  21.798  38.583   0.020
85771W        W52180  32.512  12.724   3.683
85772W        W52181  11.211  37.492   9.919
85773W        W52182  34.971  25.405   4.236
85774W        W52183  35.889  31.714   2.649
85775W        W52184   4.654  41.450  14.411
85776W        W52185   4.676   1.648   0.947
85777W        W52186   2.213  42.030  10.838
85778W        W52187  14.145  37.098   3.271
85779W        W52188  27.415  43.793  14.375
85780W        W52189  30.506  22.549  14.505
85781W        W52190  43.306  30.720   0.735
85782W        W52191  10.359  42.250  14.766
85783W        W52192  15.318   7.211  14.736
85784W        W52193  32.492  13.049  14.337
85785W        W52194  17.686  34.108  13.380
85786W        W52195  11.933  30.913  12.490
85787W        W52196  27.770  10.953   2.335
85788W        W52197   9.190  15.837  10.490
85789W        W52198  17.376   3.350  12.450
85790W        W52199  13.589  39.477  13.599
85791W        W52200  42.132  36.419  11.899
85792W        W52201  44.087  27.461  10.725
85793W        W52202  30.452  28.070   1.286
85794W        W52203  32.363  40.449   0.206
85795W        W52204   2.343  13.601   0.720
85796W        W52205  34.020  42.317   0.821
85797W        W52206   1.239   8.864  10.238
85798W        W52207  16.728   2.144   1.813
85799W        W52208   0.018  10.857  14.592
85800W        W52209  16.795  18.568   4.531
85801W        W52210  25.205   1.232  14.402
85802W        W52211  30.627  17.759  12.515
85803W        W52212  34.289   2.264   5.562
85804W        W52213  28.183  38.820   4.508
85805W        W52214  15.848  14.776   4.473
85806W        W52215   5.210  43.305  11.596
85807W        W52216  31.412  16.270   3.064
85808W        W52217  40.289  11.377  10.517
85809W        W52218   2.048  22.089  11.420
85810W        W52219   8.595   4.872  12.836
85811W        W52220  11.451  40.997   0.263
85812W        W52221  11.891  18.387  12.795
85813W        W52222  38.192   8.894  14.022
85814W        W52223   3.840   8.829  14.337
85815W        W52224  40.939  28.408  14.876
85816W        W52225   4.203   1.432  12.427
85817W        W52226  35.851  11.177   2.269
85818W        W52227   5.215  34.353  10.796
85819W        W52228  37.390  12.727   1.181
85820W        W52229  44.812  10.501   3.521
85821W        W52230   8.740  22.721   3.209
85822W        W52231   1.215  27.976   2.141
85823W        W52232  18.243  36.553  10.690
85824W        W52233   2.092  42.337   4.170
85825W        W52234  17.243  40.903  11.974
85826W        W52235   0.783  20.078  13.832
85827W        W52236  35.964  16.812  13.383
85828W        W52237   6.500  33.814   3.157
85829W        W52238  41.367  27.703   3.858
85830W        W52239  23.266  34.122   1.439
85831W        W52240  42.801  10.175   1.454
85832W        W52241  20.074  36.461  10.436
85833W        W52242  29.426   7.608   4.155
85834W        W52243  24.298  14.650   1.807
85835W        W52244  43.565   3.516   5.133
85836W        W52245   8.575  16.645  13.091
85837W        W52246  30.074  10.212   1.837
85838W        W52247  20.249   8.912   4.386
85839W        W52248  27.296  35.275   1.190
85840W        W52249  31.423  29.706   3.122
85841W        W52250   4.469   4.342   2.243
85842W        W52251   8.711  40.268  14.479
85843W        W52252  30.871  25.626  14.363
85844W        W52253   9.141  12.418  12.991
85845W        W52254  18.115  32.515  11.544
85846W        W52255  18.594  44.214   1.414
85847W        W52256  18.140  17.158  11.222
85848W        W52257   0.225  19.242   0.873
85849W        W52258  15.897  34.909   1.755
85850W        W52259  27.965  13.503   0.781
85851W        W52260  36.613  14.614   2.973
85852W        W52261  37.439  24.976   4.238
85853W        W52262  31.624  20.703  14.733
85854W        W52263  23.211  21.294   2.834
85855W        W52264   3.567  32.994   4.719
85856W        W52265   4.426  37.934  11.095
85857W        W52266   3.206  26.276   3.619
85858W        W52267  34.502  39.269   0.157
85859W        W52268  10.619  26.563   2.412
85860W        W52269  43.440  10.606   3.558
85861W        W52270   9.671   0.417  14.520
85862W        W52271   5.201   9.977   0.172
85863W        W52272   8.298  31.660   2.628
85864W        W52273   7.731   1.262   1.406
85865W        W52274  18.057  27.570   2.722
85866W        W52275  25.476  21.847  13.440
85867W        W52276  23.636   9.748  12.545
85868W        W52277  44.916  13.232   3.103
85869W        W52278  15.606  44.039  14.467
85870W        W52279  24.545  15.637   3.913
85871W        W52280   6.514  42.379  10.827
85872W        W52281   9.002  30.102   1.346
85873W        W52282  20.282  30.984   2.248
85874W        W52283  33.007  25.990  14.761
85875W        W52284  11.379  26.390   4.590
85876W        W52285  30.851   7.009   3.149
85877W        W52286  29.889  38.015   2.336
85878W        W52287  38.742  34.865  13.330
85879W        W52288  34.356  10.673  13.264
85880W        W52289  12.516  10.718  13.872
85881W        W52290  23.742  32.853  14.356
85882W        W52291  22.145  44.159  14.851
85883W        W52292   3.215  31.068  13.368
85884W        W52293   6.459  20.152   4.118
85885W        W52294  43.501  22.163  12.055
85886W        W52295   8.920   8.152   1.384
85887W        W52296  32.025  21.624   3.605
85888W        W52297  44.883  19.590  11.057
85889W        W52298   7.985   4.826  11.285
85890W        W52299  21.453  31.425   2.662
85891W        W52300  28.670  43.407   1.291
85892W        W52301  14.373  13.466   1.899
85893W        W52302  11.795  19.067   3.141
85894W        W52303  38.094   4.898   2.282
85895W        W52304  20.716  31.056   1.317
85896W        W52305  16.147   0.471  13.156
85897W        W52306  30.904  20.172  11.156
85898W        W52307  21.183  13.896   1.071
85899W        W52308  44.207  20.011   1.832
85900W        W52309   6.332  19.707   1.284
85901W        W52310  40.137   2.810   0.259
85902W        W52311  40.858  31.836   2.247
85903W        W52312  39.231  11.419  12.345
85904W        W52313  18.104   4.750   1.363
85905W        W52314  36.487   6.554   2.296
85906W        W52315   8.346  37.897  14.854
85907W        W52316   3.264   3.971   0.355
85908W        W52317  17.312  31.909   0.947
85909W        W52318  43.138  10.535   2.773
85910W        W52319  31.154   7.568  12.004
85911W        W52320  17.708  39.105  11.902
85912W        W52321   2.296  29.087  14.124
85913W        W52322  20.969  11.768  11.052
85914W        W52323  25.111  23.520   0.319
85915W        W52324  34.606  37.453  13.553
85916W        W52325  24.497  25.553  11.661
85917W        W52326  32.506  30.436  12.083
85918W        W52327  20.071  36.442   2.596
85919W        W52328  34.061  28.766   1.276
85920W        W52329  24.751  11.216  11.141
85921W        W52330  14.630  19.593  12.047
85922W        W52331  36.411   7.614  11.930
85923W        W52332  33.452  26.024  13.390
85924W        W52333  32.772  12.278  13.885
85925W        W52334  37.545  15.334  14.281
85926W        W52335   2.308  38.367   4.821
85927W        W52336  31.517  36.568  11.064
85928W        W52337  24.504  13.899   2.694
85929W        W52338  12.811  13.932  12.136
85930W        W52339   0.960   5.859   0.228
85931W        W52340  40.879  24.570   3.257
85932W        W52341  41.447  20.654   3.215
85933W        W52342  14.800  23.731   3.306
85934W        W52343  37.363  14.822   1.998
85935W        W52344  28.910  18.239   0.444
85936W        W52345  31.087  27.343   4.144
85937W        W52346  18.730  42.403  12.505
85938W        W52347  10.667  37.779   1.401
85939W        W52348   3.731  43.003  11.908
85940W        W52349  32.603  36.755  13.967
85941W        W52350   3.369  30.451   3.687
85942W        W52351  37.980  15.411   0.467
85943W        W52352  26.661  38.404  13.555
85944W        W52353  14.192  36.394  13.536
85945W        W52354  22.456  40.405   3.217
85946W        W52355  36.037  27.992   2.051
85947W        W52356  33.926  20.135   3.275
85948W        W52357  28.796  20.509   2.194
85949W        W52358  12.763  20.925   1.833
85950W        W52359  14.455  12.026  11.334
85951W        W52360  44.283  16.548  12.474
85952W        W52361  21.267  27.708   0.357
85953W        W52362  43.515  32.392  11.879
85954W        W52363  25.112  12.434   2.825
85955W        W52364   3.478  27.463  12.700
85956W        W52365  33.947  26.596   2.715
85957W        W52366   0.885  24.107   4.598
85958W        W52367  33.346  24.468  14.893
85959W        W52368  16.129  28.829   2.299
85960W        W52369   2.723  20.154   4.617
85961W        W52370   3.881   9.951  13.100
85962W        W52371  36.038  25.638  10.723
85963W        W52372  14.166  37.639   3.337
85964W        W52373   2.251  25.666  12.843
85965W        W52374   7.817  13.613   3.590
85966W        W52375  41.228  39.555   1.976
85967W        W52376  29.649   5.230  10.242
85968W        W52377   1.758  29.664  11.171
85969W        W52378  22.831  32.572  11.140
85970W        W52379  30.766   7.589  14.989
85971W        W52380   5.992  24.029  12.419
85972W        W52381   2.781  10.525   0.127
85973W        W52382  23.927  33.862  13.438
85974W        W52383  23.559  29.971   4.895
85975W        W52384   1.492  24.539  10.677
85976W        W52385  10.236  29.529  11.940
85977W        W52386   4.227  35.176   1.733
85978W        W52387  38.182  27.583  13.398
85979W        W52388  32.416   7.393   1.414
85980W        W52389  32.069  40.388  10.721
85981W        W52390  26.107  43.133   4.728
85982W        W52391   5.251   5.513   3.704
85983W        W52392  14.263  27.566  12.539
85984W        W52393  43.484  27.124  14.974
85985W        W52394   4.735   2.266  14.540
85986W        W52395  22.690   6.874  12.129
85987W        W52396  30.561  27.628   0.650
85988W        W52397  21.657  36.262   3.733
85989W        W52398  31.973  38.349   1.215
85990W        W52399   0.870  14.149  10.836
85991W        W52400  18.312  11.447   2.781
85992W        W52401  17.329  17.600  14.585
85993W        W52402  30.311  16.201  11.102
85994W        W52403  21.093  23.409   1.918
85995W        W52404  29.739   2.209   4.993
85996W        W52405   5.398  40.094  13.545
85997W        W52406  10.919  37.296  13.012
85998W        W52407  26.360  39.846  12.389
85999W        W52408   7.020  25.360   0.240
86000W        W52409  30.907  15.722   4.062
86001W        W52410   4.294  34.429  13.519
86002W        W52411   5.584   1.384  12.738
86003W        W52412  42.002  37.401   3.083
86004W        W52413  18.386   5.743   1.195
86005W        W52414  35.000  41.603   3.732
86006W        W52415  37.382  16.609   3.217
86007W        W52416  26.225  15.306   4.761
86008W        W52417  27.121  23.944   3.930
86009W        W52418  10.625  20.395   1.726
86010W        W52419  35.994  34.354   4.675
86011W        W52420  39.891  15.144  12.034
86012W        W52421  20.271  32.585  14.114
86013W        W52422  37.569  24.754  11.045
86014W        W52423   3.664  25.052   1.170
86015W        W52424  14.650  35.608  14.973
86016W        W52425   2.719   7.749   1.946
86017W        W52426  33.054  13.908  12.113
86018W        W52427  15.768  37.027  11.555
86019W        W52428  27.079  12.650   0.741
86020W        W52429   0.733  30.633   2.283
86021W        W52430  22.652  12.401  11.013
86022W        W52431  13.235  41.001   1.462
86023W        W52432  18.959  31.952  12.502
86024W        W52433  41.252  37.823   3.230
86025W        W52434   9.190  27.887  10.658
86026W        W52435  31.123  13.339   1.842
86027W        W52436  18.018  17.654  11.622
86028W        W52437  35.836  19.816   4.270
86029W        W52438  40.044  32.127  11.958
86030W        W52439  18.900  10.045  12.485
86031W        W52440  35.021  11.622   1.798
86032W        W52441  38.222  30.158  13.162
86033W        W52442  26.019   5.739  14.927
86034W        W52443  38.055  20.492   0.679
86035W        W52444  21.000  24.483  11.565
86036W        W52445   2.591  24.525   3.610
86037W        W52446  37.893  25.697  14.719
86038W        W52447  17.057  35.505   1.242
86039W        W52448  11.245  24.542   4.180
86040W        W52449   0.445   7.842  13.059
86041W        W52450  35.190  42.935  13.490
86042W        W52451   4.822   0.521  12.809
86043W        W52452  23.662  25.070  14.049
86044W        W52453  11.973   5.754   3.921
86045W        W52454  13.639   0.917  13.363
86046W        W52455  25.401   1.765   3.697
86047W        W52456  36.427   8.606  11.019
86048W        W52457  15.067  15.749   4.169
86049W        W52458  23.631  30.449  10.717
86050W        W52459   1.888  43.075   1.328
86051W        W52460  26.984  26.743   4.424
86052W        W52461  11.904  26.077   4.085
86053W        W52462  34.401   9.856  13.618
86054W        W52463  42.075  23.443  11.557
86055W        W52464  16.850  35.048   3.400
86056W        W52465  27.196  20.559  14.967
86057W        W52466  18.766  14.077   0.232
86058W        W52467   7.938   2.297  10.521
86059W        W52468  19.029  39.166  10.238
86060W        W52469  11.609   6.696   0.472
86061W        W52470  41.574  35.663  14.023
86062W        W52471  16.572  12.257   1.960
86063W        W52472   6.922  44.099   0.247
86064W        W52473  43.402  13.295   1.761
86065W        W52474   4.760  34.024  11.474
86066W        W52475  16.757  17.012   4.005
86067W        W52476   0.770  15.814   9.992
86068W        W52477  17.913  28.495  13.597
86069W        W52478  33.071  40.901   4.239
86070W        W52479  14.066  34.439   2.405
86071W        W52480  35.344   3.978  14.003
86072W        W52481   9.203  18.060   2.323
86073W        W52482  22.491   8.099  14.388
86074W        W52483   4.044  29.121  10.706
86075W        W52484  11.850  35.365   1.762
86076W        W52485  10.782   3.506  11.474
86077W        W52486  28.750  13.698  13.882
86078W        W52487   9.736  32.465   3.154
86079W        W52488  19.776  35.347  12.802
86080W        W52489  12.332  25.238   2.310
86081W        W52490  17.036  10.507   0.765
86082W        W52491  23.560  19.632   4.054
86083W        W52492  16.808  41.892  11.727
86084W        W52493  43.192   8.966  11.713
86085W        W52494  13.179   6.194   1.564
86086W        W52495  23.505  10.220  12.770
86087W        W52496  21.474  19.568  13.856
86088W        W52497   2.851  20.698   4.659
86089W        W52498  21.737  41.518  12.031
86090W        W52499  44.379  12.095   3.805
86091W        W52500  23.246  18.015   2.351
86092W        W52501  14.124  23.105   4.203
86093W        W52502   1.011  18.066  13.807
86094W        W52503   5.648  37.989   4.561
86095W        W52504  38.232  27.037   1.344
86096W        W52505  35.412   3.998   0.391
86097W        W52506  20.630  31.397   4.567
86098W        W52507  39.861  31.403  14.338
86099W        W52508  32.198  34.562   3.804
86100W        W52509   5.988  20.286  13.680
86101W        W52510  11.069  13.372  10.638
86102W        W52511   0.401  36.898   1.725
86103W        W52512  18.659  33.315   1.445
86104W        W52513  35.429  25.613  14.507
86105W        W52514  34.892  25.887   4.419
86106W        W52515  40.897  15.136   1.394
86107W        W52516  29.599  40.961   3.271
86108W        W52517  13.749  10.586   4.724
86109W        W52518  34.092  37.352   1.668
86110W        W52519  35.141   8.272   1.865
86111W        W52520  29.759  40.584   4.995
86112W        W52521  14.177  18.462  11.987
86113W        W52522  11.302  44.412  10.354
86114W        W52523  15.124  40.348   3.017
86115W        W52524  14.372  33.025   3.498
86116W        W52525   8.678  38.098   0.793
86117W        W52526  34.883  31.114  12.084
86118W        W52527   0.487  36.485  14.746
86119W        W52528  24.901  11.683  11.405
86120W        W52529  11.418  13.897  13.252
86121W        W52530   7.875  39.327   2.598
86122W        W52531   5.526  27.774  13.301
86123W        W52532   4.318   4.121  12.553
86124W        W52533   3.556  39.576   4.275
86125W        W52534  39.023  16.252  14.366
86126W        W52535  37.356  22.148  12.162
86127W        W52536  27.508  16.379   0.976
86128W        W52537  29.290  19.694   3.686
86129W        W52538  12.624  29.112   1.331
86130W        W52539  44.309   4.641  10.128
86131W        W52540   4.651   6.835   3.280
86132W        W52541  32.336  22.402   2.879
86133W        W52542  29.469  33.913   1.933
86134W        W52543  44.096   4.000   2.700
86135W        W52544  13.090  29.610   3.827
86136W        W52545  43.685  38.416  14.809
86137W        W52546  10.203   3.786  13.461
86138W        W52547  42.328  22.279  14.316
86139W        W52548  35.434  12.559   0.438
86140W        W52549  25.498  20.080  12.020
86141W        W52550  13.023  21.031   2.268
86142W        W52551  31.979  20.637   2.503
86143W        W52552  10.318  10.862  14.504
86144W        W52553  32.839  26.055  14.293
86145W        W52554  31.966  19.639   4.189
86146W        W52555  40.391  24.748   0.792
86147W        W52556   9.186  32.159  14.579
86148W        W52557  18.561  19.596  14.073
86149W        W52558  44.680  11.752  14.923
86150W        W52559  17.194  22.844   4.404
86151W        W52560  14.901  34.157   0.503
86152W        W52561   0.064  28.861  11.016
86153W        W52562   5.305   3.796   0.091
86154W        W52563  35.742  32.031   1.310
86155W        W52564  29.374  15.795   1.484
86156W        W52565  23.938  23.854  14.997
86157W        W52566  19.447   8.842  14.849
86158W        W52567   6.294  36.070  13.345
86159W        W52568   4.657   3.948  11.143
86160W        W52569  15.430   8.813  12.498
86161W        W52570  32.050  39.744  11.625
86162W        W52571  34.940  28.049   0.417
86163W        W52572   9.231   4.472   4.567
86164W        W52573   5.323   5.860  12.784
86165W        W52574  18.683  30.174  14.714
86166W        W52575  23.479  39.374  10.787
86167W        W52576  43.940  26.231   2.294
86168W        W52577  44.315   5.926   0.697
86169W        W52578   4.897  19.767  10.159
86170W        W52579  30.013  15.311   0.896
86171W        W52580  10.648   9.734   0.349
86172W        W52581  28.055  21.863   3.672
86173W        W52582  38.951  23.453  12.305
86174W        W52583  12.165   3.375  13.976
86175W        W52584  36.127   7.874   3.202
86176W        W52585  21.662  15.333  12.056
86177W        W52586  12.636  26.568   4.104
86178W        W52587   8.861  18.337   4.089
86179W        W52588  22.786  38.150   2.219
86180W        W52589   0.530   7.279   1.434
86181W        W52590  15.589   2.655  10.997
86182W        W52591   5.195   6.463  11.032
86183W        W52592  33.168  10.788   1.502
86184W        W52593   3.435  18.275   3.158
86185W        W52594  16.961  22.421   4.568
86186W        W52595  36.974   8.166   1.689
86187W        W52596  10.129  42.272  11.020
86188W        W52597   3.384  35.717   2.768
86189W        W52598  32.987  35.535  12.474
86190W        W52599  38.279  37.482   1.549
86191W        W52600  14.154   3.210   3.326
86192W        W52601  30.400  12.398  13.408
86193W        W52602   6.607  30.543   2.198
86194W        W52603   2.071  44.934  12.211
86195W        W52604  27.483  41.806  12.110
86196W        W52605  44.048   4.389   1.492
86197W        W52606  40.452  38.502  13.810
86198W        W52607  42.019   1.104   4.410
86199W        W52608   5.326  16.198   0.500
86200W        W52609  17.004  30.431  11.056
86201W        W52610  23.528  16.118   4.741
86202W        W52611  20.636  40.783   4.603
86203W        W52612  19.187  18.257   2.440
86204W        W52613  24.305  15.720  10.211
86205W        W52614   3.703  27.886   4.144
86206W        W52615  29.532   8.474  12.535
86207W        W52616   9.380  27.132   2.362
86208W        W52617  17.778  37.320   3.665
86209W        W52618  20.106   8.395   1.239
86210W        W52619  34.035   7.313   3.781
86211W        W52620  21.300   4.773   3.623
86212W        W52621  43.968  42.489   3.307
86213W        W52622   8.665   1.383  12.531
86214W        W52623  21.487  17.736   2.819
86215W        W52624  10.919   5.375   0.844
86216W        W52625  12.819  42.562   4.977
86217W        W52626  12.675  14.005   2.880
86218W        W52627  39.784  20.086   2.394
86219W        W52628  43.951  26.093   4.956
86220W        W52629   6.612   9.878  14.870
86221W        W52630  17.066  11.367  14.784
86222W        W52631  43.916  17.106   1.704
86223W        W52632  18.062  41.101   0.838
86224W        W52633  42.579  32.539  12.694
86225W        W52634  14.543  25.347  11.170
86226W        W52635   9.758  19.844   1.571
86227W        W52636  25.148  13.784  10.745
86228W        W52637  42.736  15.628  12.909
86229W        W52638  17.504  11.923  11.826
86230W        W52639  15.570  41.021  14.551
86231W        W52640  39.551   7.766   3.916
86232W        W52641   9.553  35.804  14.820
86233W        W52642  31.053  19.412   0.210
86234W        W52643  20.728   5.232  12.053
86235W        W52644  25.955  43.887  14.957
86236W        W52645  23.713  37.649  11.145
86237W        W52646  30.127  34.028   2.799
86238W        W52647  13.135   9.354  10.658
86239W        W52648  38.151  43.580  11.628
86240W        W52649  18.490  30.738  12.948
86241W        W52650   3.898  20.749   3.732
86242W        W52651  17.844  16.199   4.871
86243W        W52652  29.438  28.488  14.361
86244W        W52653  35.044  29.869   3.133
86245W        W52654  25.451   5.161   3.322
86246W        W52655  20.397  12.719  12.387
86247W        W52656  39.130   1.294   4.502
86248W        W52657  13.758   0.253  11.922
86249W        W52658  19.042  29.856   1.510
86250W        W52659  22.836  32.141   2.779
86251W        W52660  21.568  15.674   2.158
86252W        W52661  11.734  20.337   3.728
86253W        W52662  43.546  10.983   4.488
86254W        W52663   5.159  35.596   0.874
86255W        W52664  33.513  24.772   2.832
86256W        W52665  12.162  34.346   2.309
86257W        W52666  20.012  16.218  13.587
86258W        W52667  20.505  38.794   0.394
86259W        W52668  36.075  22.462  13.554
86260W        W52669  35.022  32.580  10.838
86261W        W52670   0.159  37.632   4.291
86262W        W52671  20.992  33.827   2.690
86263W        W52672  11.452  32.118   3.289
86264W        W52673  20.153   1.689   4.672
86265W        W52674  39.994  31.939   3.722
86266W        W52675  26.220  21.102   0.558
86267W        W52676   2.238   4.001   4.719
86268W        W52677  34.381  18.356  11.672
86269W        W52678  36.327  17.545   0.196
86270W        W52679  16.751   7.998   2.195
86271W        W52680   5.291  27.122   2.313
86272W        W52681  13.159  14.745  11.242
86273W        W52682   5.736  25.091   3.580
86274W        W52683  40.958  43.496   3.575
86275W        W52684  15.976  30.013  14.361
86276W        W52685  39.580  34.074  13.887
86277W        W52686   0.357  37.346  11.040
86278W        W52687  44.894   8.197   4.980
86279W        W52688   6.540  14.732  13.384
86280W        W52689   7.752  34.377   4.576
86281W        W52690  29.986  44.222  13.540
86282W        W52691  42.382  11.941   2.205
86283W        W52692  38.870  21.043  11.932
86284W        W52693  13.290  28.901   0.794
86285W        W52694  38.758  29.818  12.896
86286W        W52695  14.684   3.450   1.282
86287W        W52696   7.691  25.648  13.628
86288W        W52697  30.167  17.155  10.700
86289W        W52698  39.290  13.542  14.858
86290W        W52699  17.216  34.411   1.212
86291W        W52700  14.614  18.733  14.725
86292W        W52701  31.466  25.211   3.755
86293W        W52702  36.937   8.914   0.728
86294W        W52703  44.013  16.761  12.064
86295W        W52704   8.862  23.206   4.286
86296W        W52705  19.282   2.202  14.530
86297W        W52706  35.103  31.739  10.863
86298W        W52707  10.632   4.618   3.282
86299W        W52708   6.112   6.846   3.681
86300W        W52709  27.448  25.150  11.847
86301W        W52710   6.696  20.050   4.578
86302W        W52711   1.759  17.353  12.388
86303W        W52712  35.703   6.683  13.536
86304W        W52713   7.857   9.737   3.245
86305W        W52714  31.270  22.544   2.340
86306W        W52715  13.239   0.740  11.626
86307W        W52716  13.526  14.199   4.767
86308W        W52717  29.500  42.866  12.009
86309W        W52718  31.441  37.971   1.764
86310W        W52719  25.065  33.190  13.547
86311W        W52720  15.073  26.426  11.148
86312W        W52721  25.847  27.431   0.435
86313W        W52722  38.944   5.798  12.828
86314W        W52723  26.634  37.873  13.534
86315W        W52724   2.950  13.843   0.268
86316W        W52725  12.181  18.128   0.805
86317W        W52726  44.888   0.995   2.534
86318W        W52727   8.788  12.153  11.003
86319W        W52728  33.877  13.177  13.875
86320W        W52729  13.306  25.025   0.643
86321W        W52730   8.259  31.965  10.726
86322W        W52731  15.236   3.955   1.008
86323W        W52732  30.202   6.395  10.494
86324W        W52733  15.739  21.208   3.383
86325W        W52734  28.604  21.016  12.975
86326W        W52735  23.132   6.468   0.705
86327W        W52736  28.731  27.465   1.682
86328W        W52737  34.415  41.559  10.713
86329W        W52738  26.165  34.477  14.759
86330W        W52739  16.266  33.368   1.241
86331W        W52740  10.803  23.959   0.816
86332W        W52741   1.900  41.575   1.750
86333W        W52742   8.159  31.110  11.034
86334W        W52743  13.938  37.786   0.086
86335W        W52744  40.706  22.136   4.625
86336W        W52745  31.027  12.962  12.124
86337W        W52746   0.773  44.307  11.222
86338W        W52747  26.213  19.777  10.666
86339W        W52748  20.154  30.154  13.994
86340W        W52749  34.493  42.944  12.708
86341W        W52750   1.246  17.654   4.911
86342W        W52751  34.079  42.433  14.084
86343W        W52752  40.133  35.364   4.675
86344W        W52753  28.509  22.079   1.231
86345W        W52754  19.657  17.076   3.861
86346W        W52755   6.752  24.086  10.266
86347W        W52756  23.756   6.971   3.215
86348W        W52757  17.054  37.935   2.942
86349W        W52758  44.740  17.100  13.570
86350W        W52759  40.990  33.033   1.877
86351W        W52760  11.606  32.772   1.608
86352W        W52761  17.279   4.788  10.308
86353W        W52762  35.767  18.977   2.076
86354W        W52763  42.870  30.843   3.612
86355W        W52764  21.289  17.557  12.908
86356W        W52765  17.686  35.695   2.624
86357W        W52766  18.280  23.201   4.415
86358W        W52767  25.768  43.558   1.145
86359W        W52768  32.870  20.401   1.485
86360W        W52769   7.680   3.968  12.651
86361W        W52770   5.741  12.683  12.931
86362W        W52771  20.696  34.903  12.430
86363W        W52772  35.294  27.455   0.303
86364W        W52773  43.952  31.357   3.652
86365W        W52774  20.549   4.212   3.706
86366W        W52775   0.898  11.981  11.374
86367W        W52776  14.217  19.173  12.561
86368W        W52777  27.167   4.794   4.232
86369W        W52778  44.944  33.681  13.084
86370W        W52779  12.930   2.004   0.332
86371W        W52780  12.941  35.168  14.994
86372W        W52781  43.879  10.736   3.776
86373W        W52782   0.066  38.535   0.270
86374W        W52783   1.937  42.467  13.782
86375W        W52784  12.531  25.679   4.199
86376W        W52785  37.133  43.296  11.642
86377W        W52786  15.000  18.045  12.161
86378W        W52787  18.644   3.508   2.649
86379W        W52788   8.329  29.406  13.528
86380W        W52789  41.041  33.359  11.461
86381W        W52790  23.038  35.530   3.446
86382W        W52791  40.816  44.339  10.775
86383W        W52792  28.438  19.664   0.743
86384W        W52793   9.545   1.847   3.319
86385W        W52794  39.390   4.228   1.764
86386W        W52795  24.487  43.739   3.781
86387W        W52796  36.853  39.772  14.296
86388W        W52797   2.502  44.538   3.167
86389W        W52798  15.231   7.428  11.601
86390W        W52799   4.372  23.669  12.052
86391W        W52800  19.777  44.823  12.411
86392W        W52801   4.231  42.856   2.209
86393W        W52802   6.321   0.810  13.495
86394W        W52803  11.709  20.790  12.974
86395W        W52804  18.092  17.416   2.342
86396W        W52805  34.963  34.355  12.955
86397W        W52806  24.289  27.528  11.040
86398W        W52807  33.404  10.099   0.316
86399W        W52808  17.070  22.698  12.406
86400W        W52809  27.975   4.008  11.558
86401W        W52810   8.620  13.193  14.791
86402W        W52811  36.907   3.287   2.169
86403W        W52812   5.335  15.520   3.238
86404W        W52813   9.258  43.339  12.005
86405W        W52814   2.429   0.454   3.098
86406W        W52815  18.363   2.090  14.018
86407W        W52816  36.389  35.960  13.159
86408W        W52817   5.271  24.547  13.397
86409W        W52818  34.103  18.973   0.833
86410W        W52819  11.165  43.666  10.964
86411W        W52820  22.717   5.860   1.793
86412W        W52821   1.828   2.841   0.428
86413W        W52822   3.030  40.546   0.268
86414W        W52823  43.264  11.614  14.834
86415W        W52824  38.349  26.940  12.849
86416W        W52825  43.376  18.559  13.918
86417W        W52826  35.561  36.569  12.507
86418W        W52827   8.103  27.594   4.573
86419W        W52828   9.199  23.556   0.666
86420W        W52829  23.489  11.674  11.566
86421W        W52830  22.225  15.602   0.347
86422W        W52831  15.700  12.748   3.840
86423W        W52832  29.390   7.726   4.995
86424W        W52833   2.453  34.613  13.406
86425W        W52834   3.899  32.611  12.908
86426W        W52835   0.591  19.137  14.514
86427W        W52836   4.369  31.618   4.396
86428W        W52837   6.224  42.257   3.698
86429W        W52838  22.282  29.180   2.012
86430W        W52839  10.437  41.435   0.981
86431W        W52840   0.329  33.388  12.932
86432W        W52841   8.715  22.757  13.804
86433W        W52842  28.381   7.311  12.399
86434W        W52843  21.763  16.752   2.409
86435W        W52844  43.036  22.701   1.725
86436W        W52845  38.949  24.477   3.224
86437W        W52846   5.757   6.464  14.881
86438W        W52847  37.669  40.707  12.871
86439W        W52848  41.946  35.893  13.733
86440W        W52849  11.410  43.886   2.586
86441W        W52850  38.787  34.942  14.338
86442W        W52851  18.847   3.172  14.835
86443W        W52852  39.816  19.816  13.880
86444W        W52853   5.283  39.896   3.159
86445W        W52854  27.526  44.475   0.479
86446W        W52855  28.693  28.476  11.051
86447W        W52856   0.270  28.059  12.468
86448W        W52857  17.105  25.904  13.371
86449W        W52858  30.322   8.682   2.021
86450W        W52859   9.757  21.895  14.925
86451W        W52860   6.469  25.450   0.263
86452W        W52861   9.928  25.562  13.716
86453W        W52862  25.644  15.182   2.646
86454W        W52863  29.562   5.915   4.655
86455W        W52864  38.562   5.710  14.999
86456W        W52865  14.643  25.098   1.372
86457W        W52866  21.696  12.786  12.332
86458W        W52867  36.361  42.459  14.766
86459W        W52868  19.247   5.959   0.196
86460W        W52869   8.793   0.433  14.878
86461W        W52870   4.446  25.250   4.128
86462W        W52871  19.562   0.902  13.476
86463W        W52872  42.443  38.349   2.879
86464W        W52873  41.956  14.282  12.934
86465W        W52874  16.044  21.882  10.365
86466W        W52875   6.300   9.107  12.045
86467W        W52876  12.861  21.509  14.302
86468W        W52877  16.186  23.273   3.130
86469W        W52878  26.161  34.611   3.802
86470W        W52879  20.287  10.744   4.112
86471W        W52880  43.388  31.244   1.152
86472W        W52881  43.863   2.426  11.881
86473W        W52882   7.565   4.943  13.886
86474W        W52883   2.338   9.655   2.663
86475W        W52884  37.578  19.770   3.144
86476W        W52885  37.376   4.380  10.029
86477W        W52886   0.491  15.750  10.427
86478W        W52887  13.544  24.064   4.390
86479W        W52888   6.938  22.215  12.572
86480W        W52889  13.230  15.165   1.758
86481W        W52890  21.376   4.733  14.378
86482W        W52891   5.453   7.725   2.276
86483W        W52892  30.019  22.884  11.856
86484W        W52893  36.886   4.439  13.193
86485W        W52894  11.186  23.689  14.488
86486W        W52895  44.975  40.546  11.882
86487W        W52896   0.741  11.869  14.853
86488W        W52897  43.326  10.063   1.164
86489W        W52898  23.179  22.019  13.436
86490W        W52899  44.859  37.904  11.511
86491W        W52900  44.867  20.981  12.047
86492W        W52901  38.905  14.185  13.908
86493W        W52902  42.000  43.567  10.568
86494W        W52903  21.033  15.805   0.727
86495W        W52904  17.746  24.198  14.008
86496W        W52905  14.224  13.682   4.440
86497W        W52906  38.669  23.659   4.644
86498W        W52907  18.981  35.369  12.505
86499W        W52908  36.508   9.820   4.629
86500W        W52909   3.728  37.085   3.205
86501W        W52910  26.100  30.202  14.866
86502W        W52911   3.695   3.236  11.608
86503W        W52912  36.325  37.519  14.314
86504W        W52913  33.727   9.336  12.577
86505W        W52914   3.870  28.279   3.205
86506W        W52915  10.859   4.303  10.494
86507W        W52916  21.580  31.676   4.783
86508W        W52917  15.170  25.131   1.841
86509W        W52918  33.589  39.834  11.840
86510W        W52919  16.012  32.362  10.633
86511W        W52920  42.317   4.430   1.825
86512W        W52921  13.199  18.915  13.520
86513W        W52922  14.580  21.983   0.812
86514W        W52923  40.206  10.797   0.379
86515W        W52924  21.482  42.530  11.997
86516W        W52925   8.861  29.626   3.112
86517W        W52926   7.818  19.964  13.043
86518W        W52927  35.476  16.089   3.958
86519W        W52928  15.136  43.338  11.993
86520W        W52929  37.888  26.316   4.282
86521W        W52930  28.527  26.251   2.377
86522W        W52931  18.728  40.547  11.851
86523W        W52932   4.796  41.500   2.414
86524W        W52933  38.865  35.288   1.886
86525W        W52934  21.543   1.336   1.923
86526W        W52935  19.246  41.454   2.665
86527W        W52936  41.003  10.126   0.921
86528W        W52937  13.763  11.898  10.732
86529W        W52938  42.819  17.675   4.028
86530W        W52939  43.414  15.982   4.691
86531W        W52940  23.193  18.050   0.773
86532W        W52941   8.953  14.430  13.022
86533W        W52942  20.932  23.882  13.793
86534W        W52943  17.238   4.172  11.196
86535W        W52944  27.393  17.692  14.038
86536W        W52945  29.600   5.093  13.300
86537W        W52946  26.191  33.878   1.705
86538W        W52947  21.240  42.742   2.308
86539W        W52948  26.286  26.977   4.935
86540W        W52949  40.797  38.311  14.578
86541W        W52950  31.587   1.915   2.465
86542W        W52951  32.271   0.834   2.211
86543W        W52952  10.366  27.661  11.614
86544W        W52953  22.528  23.090  12.536
86545W        W52954  43.439  33.666  13.937
86546W        W52955  23.174   8.604  10.950
86547W        W52956  24.961  20.631   5.106
86548W        W52957  25.896  13.652  13.587
86549W        W52958  13.198   4.421  13.287
86550W        W52959  35.395   1.054  10.440
86551W        W52960  19.247   9.311  11.847
86552W        W52961  14.709   4.228  11.139
86553W        W52962  28.926   5.262  12.387
86554W        W52963  15.182  20.069   3.227
86555W        W52964  17.381   3.260   4.999
86556W        W52965  34.947  38.918   4.148
86557W        W52966  28.052   8.330   1.311
86558W        W52967  35.268  11.082  13.469
86559W        W52968  30.969  19.336  14.273
86560W        W52969   0.942   6.103  12.566
86561W        W52970   4.043   2.114  12.994
86562W        W52971  36.092   5.892   1.689
86563W        W52972  22.105  36.479   0.603
86564W        W52973  42.121  22.061   1.320
86565W        W52974   7.163  13.829   3.866
86566W        W52975  34.587  32.562  11.160
86567W        W52976  14.821   0.348  11.068
86568W        W52977  18.101  44.707  11.468
86569W        W52978  23.715  21.949  14.871
86570W        W52979  29.291   4.316   5.350
86571W        W52980  18.737   0.511   0.068
86572W        W52981   7.913  34.284  14.795
86573W        W52982  19.969  27.788  10.824
86574W        W52983  29.440   4.930  14.476
86575W        W52984  37.718  25.390  10.665
86576W        W52985  37.889  28.034  13.333
86577W        W52986  31.871  41.824  13.363
86578W        W52987  14.702  28.941  14.875
86579W        W52988   6.195  32.173   1.590
86580W        W52989  17.264  42.904   2.851
86581W        W52990  25.628  35.653   0.260
86582W        W52991  23.038  14.312  11.957
86583W        W52992  28.048   6.184  14.209
86584W        W52993   2.305  26.881   2.390
86585W        W52994  23.612  14.874   4.864
86586W        W52995  38.236   4.389  12.735
86587W        W52996  18.812  13.294  13.875
86588W        W52997   0.856  33.572   3.716
86589W        W52998  13.302  34.224  13.293
86590W        W52999  20.748  27.675  14.484
86591W        W53000  41.929  42.013  14.793
86592W        W53001   6.905  27.654  11.693
86593W        W53002  44.488  20.623  14.320
86594W        W53003   4.044  19.612  12.167
86595W        W53004  21.091   3.313  14.099
86596W        W53005  37.254   3.658   1.351
86597W        W53006  24.778  26.803  11.602
86598W        W53007  21.163  17.908   3.224
86599W        W53008  33.877  28.688  12.627
86600W        W53009  44.745   4.487  10.486
86601W        W53010  44.032  15.664  12.479
86602W        W53011   7.087  37.058   1.509
86603W        W53012  16.094   2.833  13.601
86604W        W53013  28.550  15.705   3.643
86605W        W53014   1.953   8.698  13.536
86606W        W53015   8.749   7.660  12.883
86607W        W53016  14.645  30.982  13.789
86608W        W53017   3.331  20.037   4.841
86609W        W53018  27.945  34.924  11.892
86610W        W53019  41.280  19.654   4.200
86611W        W53020  14.636   8.115  14.358
86612W        W53021  11.120  11.148   0.406
86613W        W53022  38.463  15.194  10.218
86614W        W53023  29.175  13.730   2.640
86615W        W53024  14.721   2.725  10.723
86616W        W53025   3.062  15.363  11.271
86617W        W53026   6.745   8.562  10.297
86618W        W53027  35.073   2.900  11.558
86619W        W53028  40.931  38.235   3.163
86620W        W53029   1.945  25.937  12.509
86621W        W53030  18.599  10.036   2.626
86622W        W53031  13.734  31.486  13.058
86623W        W53032  41.003  20.128  12.064
86624W        W53033   1.217  36.976   4.608
86625W        W53034  19.823  19.549   0.418
86626W        W53035  36.305  29.432  14.981
86627W        W53036  38.746  29.364  11.159
86628W        W53037   7.777  36.345  12.148
86629W        W53038  29.026  25.505   1.398
86630W        W53039  42.359  23.603   1.306
86631W        W53040   4.411  11.328  14.365
86632W        W53041  16.215  27.145   0.758
86633W        W53042  13.172  39.889   0.816
86634W        W53043  11.514   0.863   0.016
86635W        W53044  30.485  23.761   2.794
86636W        W53045  15.762  36.780   2.949
86637W        W53046   0.465   5.753  13.779
86638W        W53047   9.896  22.124   4.022
86639W        W53048   3.794  24.549   9.752
86640W        W53049  31.426  42.098  13.480
86641W        W53050   6.374  25.396  11.790
86642W        W53051  24.702  29.037  11.997
86643W        W53052   0.371  33.146   0.236
86644W        W53053  29.091  22.516  11.154
86645W        W53054  11.121  29.048   3.117
86646W        W53055  28.549  11.696   3.264
86647W        W53056  10.338  37.136   1.718
86648W        W53057  44.538  13.578   4.601
86649W        W53058  23.463  44.898  14.991
86650W        W53059  38.780  16.762  11.920
86651W        W53060   1.792  15.489  11.571
86652W        W53061  38.958   2.193  14.923
86653W        W53062  44.352  13.418  11.536
86654W        W53063  26.665   4.836   4.501
86655W        W53064  30.980   0.971   1.841
86656W        W53065  19.317  14.944   4.165
86657W        W53066   6.334  20.055  13.018
86658W        W53067  20.239  29.474   2.198
86659W        W53068  20.211  21.698  13.824
86660W        W53069  41.444  22.238  11.226
86661W        W53070  19.554  34.969  13.730
86662W        W53071  12.277  15.085  13.374
86663W        W53072   6.141  19.536   4.130
86664W        W53073  14.490   4.067   9.812
86665W        W53074  34.908  38.318   3.382
86666W        W53075  17.595   4.419  14.497
86667W        W53076  32.897  44.748  14.426
86668W        W53077   7.844  35.061  14.317
86669W        W53078  25.684  22.728  11.170
86670W        W53079   2.975   0.872   3.607
86671W        W53080   5.680   9.925  11.981
86672W        W53081  35.949  27.026   4.511
86673W        W53082  33.869  26.569  10.189
86674W        W53083  24.975  13.919   4.711
86675W        W53084  43.513  17.076  11.616
86676W        W53085  21.799  29.060  13.895
86677W        W53086  14.277  20.556  13.545
86678W        W53087  20.616  39.325   0.247
86679W        W53088  16.107  20.224   1.881
86680W        W53089  27.266  21.230   5.050
86681W        W53090  20.191   2.389  12.381
86682W        W53091  41.451  16.707  10.610
86683W        W53092  12.227  36.911  13.197
86684W        W53093   6.808  17.219   0.011
86685W        W53094  13.949  31.492  10.269
86686W        W53095  22.496   1.345  14.909
86687W        W53096  24.786  25.645  11.237
86688W        W53097  43.630  17.359   3.515
86689W        W53098   7.674   0.061   1.777
86690W        W53099  12.230  20.797   9.814
86691W        W53100  16.630  28.568  11.486
86692W        W53101  15.876  10.685  12.895
86693W        W53102   2.756   4.217   3.153
86694W        W53103  41.046   8.344   3.825
86695W        W53104   8.770  43.994  12.077
86696W        W53105  19.262   1.797   2.765
86697W        W53106  16.382  35.676  13.033
86698W        W53107  21.542  15.597  14.816
86699W        W53108  28.727  19.344   2.303
86700W        W53109  31.697   7.389  10.968
86701W        W53110  21.737  28.491   1.645
86702W        W53111  33.601   0.805  10.989
86703W        W53112  27.987  22.978   3.709
86704W        W53113   5.518  31.585  12.889
86705W        W53114  34.087   1.147  13.776
86706W        W53115  25.607   6.190   2.661
86707W        W53116   9.620   2.432  14.534
86708W        W53117  12.687  16.724  13.578
86709W        W53118  41.309  22.089  13.725
86710W        W53119  34.415  11.228   1.875
86711W        W53120   6.289  19.867  12.116
86712W        W53121   5.332   2.734  12.978
86713W        W53122   6.833  36.134  11.609
86714W        W53123   4.978  11.925  12.569
86715W        W53124  20.482  30.957   1.774
86716W        W53125  43.874  30.463   3.705
86717W        W53126   4.789  38.345  10.270
86718W        W53127  37.596   5.043  11.315
86719W        W53128  44.558  22.160   0.276
86720W        W53129   6.197  19.070  11.738
86721W        W53130  17.406  32.635   3.516
86722W        W53131  41.280  16.624  12.521
86723W        W53132  29.399  16.587   0.711
86724W        W53133   9.132  28.343   3.254
86725W        W53134   1.300  22.037   2.824
86726W        W53135   4.704  43.793   1.157
86727W        W53136  21.088  35.021   1.433
86728W        W53137  16.294  11.523  13.509
86729W        W53138  33.607  20.318   2.085
86730W        W53139   5.853  22.100   9.665
86731W        W53140  28.094  33.376  11.420
86732W        W53141  25.442   4.592  13.593
86733W        W53142  18.255   0.439   4.490
86734W        W53143  38.668  13.343   0.731
86735W        W53144  32.081   1.224  10.688
86736W        W53145   8.914   3.243   2.245
86737W        W53146   8.308  41.703  11.123
86738W        W53147   6.239  25.826  13.516
86739W        W53148  27.115   7.636  14.496
86740W        W53149  38.990   1.468   2.723
86741W        W53150  13.676  24.143   3.902
86742W        W53151   1.521  25.525  12.579
86743W        W53152   7.243  29.885   4.573
86744W        W53153  33.630  18.297  11.469
86745W        W53154  25.183   7.901  12.841
86746W        W53155  42.237  12.304  10.967
86747W        W53156  14.069  11.313   3.301
86748W        W53157   6.244   5.313  13.064
86749W        W53158  28.402  36.924  11.884
86750W        W53159  36.118  26.955   3.071
86751W        W53160  38.864   4.358   3.611
86752W        W53161  17.713  13.873  13.956
86753W        W53162  40.987  16.710   2.394
86754W        W53163  15.033  38.382   1.244
86755W        W53164  21.452  33.882   4.577
86756W        W53165  13.666   8.195   1.296
86757W        W53166  21.063   0.660  13.534
86758W        W53167   8.877   2.285  14.014
86759W        W53168  27.033  16.575   0.923
86760W        W53169  35.823   7.624  14.983
86761W        W53170   7.331   2.435   0.972
86762W        W53171   7.352  36.098  11.994
86763W        W53172  30.863  36.901  14.460
86764W        W53173  16.295   8.393   0.674
86765W        W53174  23.212  24.468   2.665
86766W        W53175   6.833  30.496  13.044
86767W        W53176  13.096  17.095  12.374
86768W        W53177  42.357  30.643   2.791
86769W        W53178   0.854  34.085  11.627
86770W        W53179   9.663  40.336  11.906
86771W        W53180  36.600  15.175   4.841
86772W        W53181  14.604  41.324   3.612
86773W        W53182  29.697  32.624   2.302
86774W        W53183   2.532  43.997  14.810
86775W        W53184  36.298  36.885   0.889
86776W        W53185   9.760  36.424   2.121
86777W        W53186  34.018  10.740   0.706
86778W        W53187  16.628   8.209   0.297
86779W        W53188  11.102  41.586  10.915
86780W        W53189  28.680  26.311   0.952
86781W        W53190  23.021  13.848   0.948
86782W        W53191  23.746  43.590   1.885
86783W        W53192   3.393  23.693  10.664
86784W        W53193  33.087  23.037   4.323
86785W        W53194  36.523  15.143  14.293
86786W        W53195  36.648  18.831  10.681
86787W        W53196   9.927  15.079   3.385
86788W        W53197  20.779  32.298  10.836
86789W        W53198  25.290  18.704  12.259
86790W        W53199   4.576  30.631  12.488
86791W        W53200  37.428  25.647  14.938
86792W        W53201  25.219  20.654  14.788
86793W        W53202   4.918  29.546   4.651
86794W        W53203   0.665  17.665  12.195
86795W        W53204  22.107  25.288   2.321
86796W        W53205  13.036  10.332   1.039
86797W        W53206  40.179  20.551  10.951
86798W        W53207  32.359  30.052   4.839
86799W        W53208  43.759   4.624  10.042
86800W        W53209  19.836  39.554  14.494
86801W        W53210  12.230  32.667   9.459
86802W        W53211  37.336  35.945   2.263
86803W        W53212  17.552   4.378   4.531
86804W        W53213   2.911  33.592  12.564
86805W        W53214  39.398  18.631   0.507
86806W        W53215  39.589  32.825  11.278
86807W        W53216   9.614  34.115  14.461
86808W        W53217  38.413  40.436  12.525
86809W        W53218  15.199  26.071   3.188
86810W        W53219  21.826  23.162   3.959
86811W        W53220  30.050  40.752  12.535
86812W        W53221  11.314  20.772   3.109
86813W        W53222  29.721  30.943  14.898
86814W        W53223  25.698   0.847  13.549
86815W        W53224  16.182  27.442  14.027
86816W        W53225  18.039  41.786   2.631
86817W        W53226  31.113  38.471   3.116
86818W        W53227   0.776   1.353   2.811
86819W        W53228  11.897  41.860   2.966
86820W        W53229  11.210  32.120   4.120
86821W        W53230  34.439   9.792   1.964
86822W        W53231   8.230  12.675  10.919
86823W        W53232  30.172   5.707  13.067
86824W        W53233  13.285  13.308   3.359
86825W        W53234  25.960  23.681  12.400
86826W        W53235   0.790   2.346  13.463
86827W        W53236   8.440  27.082   0.003
86828W        W53237  14.768  31.356   2.363
86829W        W53238   4.378  28.947   1.428
86830W        W53239   0.457  39.920  12.429
86831W        W53240  37.885  10.504   4.682
86832W        W53241  19.028  24.977  12.984
86833W        W53242  29.230   0.116   3.169
86834W        W53243  37.594   4.786   1.666
86835W        W53244   8.151  28.957   2.175
86836W        W53245  16.057  18.357   9.802
86837W        W53246  18.730   0.890   1.788
86838W        W53247   0.475  14.270  14.148
86839W        W53248  18.081  39.449  12.069
86840W        W53249  37.019  42.500  13.003
86841W        W53250  41.030  14.552   1.272
86842W        W53251   2.981  24.761  11.556
86843W        W53252  42.007  20.400   3.221
86844W        W53253  36.220  39.410   1.237
86845W        W53254  44.017  10.270   2.487
86846W        W53255   6.236   7.862  12.859
86847W        W53256  21.239  40.905   0.178
86848W        W53257  27.923  19.115  10.166
86849W        W53258  35.146  28.418   2.819
86850W        W53259   5.849  34.046   1.335
86851W        W53260  41.556  11.753   0.805
86852W        W53261   8.408   1.957  14.459
86853W        W53262  11.285  19.764  11.435
86854W        W53263   9.413   0.288   4.562
86855W        W53264  33.458  39.963   0.911
86856W        W53265  13.420  16.534   0.546
86857W        W53266  29.915   5.387  11.152
86858W        W53267  30.739  22.531   4.166
86859W        W53268   2.358   0.747   0.240
86860W        W53269  31.737   9.404   3.144
86861W        W53270  14.231   9.439  11.568
86862W        W53271  20.109   3.218   2.271
86863W        W53272   2.088  32.387  13.587
86864W        W53273  37.877   0.806   4.376
86865W        W53274   7.395   6.837  12.609
86866W        W53275  37.298  15.813   4.770
86867W        W53276  28.934   6.298   0.342
86868W        W53277  42.222  38.965   4.682
86869W        W53278   0.758  24.667   2.795
86870W        W53279  24.288  30.867   0.824
86871W        W53280  25.705  21.491  12.485
86872W        W53281  26.041  30.069   3.682
86873W        W53282  30.646   5.298   1.444
86874W        W53283  42.236  38.795   2.637
86875W        W53284  12.691  43.472   0.441
86876W        W53285  10.337  38.444  10.626
86877W        W53286  13.563  19.103  13.857
86878W        W53287   9.240  26.086  12.164
86879W        W53288  14.822   5.961   2.060
86880W        W53289  26.535   0.684  13.070
86881W        W53290  41.266   7.931   3.415
86882W        W53291   9.685  10.801   4.719
86883W        W53292  26.489  43.018  11.615
86884W        W53293  31.885  19.845  11.871
86885W        W53294  13.954   0.032  12.833
86886W        W53295  18.222  23.771   0.401
86887W        W53296  11.875  36.741  13.565
86888W        W53297  32.838   2.932   4.001
86889W        W53298  35.344   4.960  12.828
86890W        W53299   2.908  18.662  14.752
86891W        W53300  29.169  10.537   0.376
86892W        W53301  36.908  39.388  10.739
86893W        W53302  22.099  11.177  13.458
86894W        W53303  38.514  29.928   4.136
86895W        W53304   2.957  30.361   0.358
86896W        W53305  32.135  24.190   1.215
86897W        W53306  40.371   9.285   1.839
86898W        W53307   5.333  25.530  14.349
86899W        W53308   3.048  16.329   3.618
86900W        W53309  41.981  11.580   1.032
86901W        W53310  34.093  10.866  12.880
86902W        W53311  33.286  16.910  11.025
86903W        W53312  18.183  25.708   2.446
86904W        W53313  14.629  36.298  12.009
86905W        W53314   4.896  40.615  11.178
86906W        W53315  26.560   6.412  12.065
86907W        W53316   6.658   5.079   4.685
86908W        W53317  26.979   8.897   2.849
86909W        W53318  43.523  42.455   4.634
86910W        W53319  24.697  13.229   4.063
86911W        W53320  42.838  37.552   1.913
86912W        W53321  38.833  21.672   1.326
86913W        W53322   9.713  42.008  10.927
86914W        W53323   9.852  20.302   3.753
86915W        W53324  19.356   0.808  14.199
86916W        W53325  21.978  19.577  13.910
86917W        W53326  15.182  28.928  14.253
86918W        W53327  44.951  41.444   2.778
86919W        W53328  32.064  26.618   1.390
86920W        W53329  13.446  44.558  12.601
86921W        W53330  15.060   4.918  11.545
86922W        W53331   6.150  20.223  14.879
86923W        W53332  28.529  15.191   3.848
86924W        W53333   5.843  42.595  11.581
86925W        W53334  40.652   8.008  12.370
86926W        W53335  44.208  41.949  14.634
86927W        W53336   5.964  11.267   3.781
86928W        W53337  28.034  11.684   0.985
86929W        W53338  23.511  42.942   2.639
86930W        W53339  36.871  14.259  11.632
86931W        W53340  30.579  18.168   3.274
86932W        W53341  33.664  27.427  12.562
86933W        W53342  14.109  26.178  11.101
86934W        W53343   9.369  34.115  13.706
86935W        W53344   7.175  26.960   4.059
86936W        W53345  24.462  35.486  12.931
86937W        W53346  40.003   2.928   1.998
86938W        W53347  16.309   3.216   3.173
86939W        W53348  31.160  41.481   2.723
86940W        W53349  34.865   4.352  12.006
86941W        W53350  23.259  19.599   5.010
86942W        W53351   7.966  38.948  10.130
86943W        W53352  44.907   0.520   4.736
86944W        W53353  33.915  25.145  10.452
86945W        W53354  40.892  43.027  11.452
86946W        W53355  25.794  41.270  10.448
86947W        W53356  40.517   4.634  11.275
86948W        W53357   2.710  22.166   3.296
86949W        W53358  19.304  10.840  11.129
86950W        W53359   0.737  32.608  13.037
86951W        W53360  34.405  43.501  13.384
86952W        W53361  26.065  32.624   2.704
86953W        W53362  30.400  14.675  14.495
86954W        W53363  35.834  23.733   2.776
86955W        W53364  38.934   7.750  11.000
86956W        W53365  34.780  44.382  10.949
86957W        W53366  21.095  38.837   3.753
86958W        W53367   8.478  10.437   4.098
86959W        W53368  14.532  17.978   0.723
86960W        W53369  26.071   4.703  10.364
86961W        W53370  27.512  38.946   3.847
86962W        W53371  15.384  37.304   0.360
86963W        W53372  16.583  30.664   2.631
86964W        W53373  19.747  27.503   0.943
86965W        W53374  42.219  28.537  11.219
86966W        W53375  36.970   3.012  14.487
86967W        W53376  25.929  35.115   0.908
86968W        W53377   6.113  21.687  13.816
86969W        W53378  26.080   6.470  14.207
86970W        W53379   0.343   0.957   1.661
86971W        W53380  14.660  12.740   0.700
86972W        W53381  35.317   7.483  14.875
86973W        W53382  13.576  10.398  14.298
86974W        W53383  30.120  28.497  14.923
86975W        W53384  34.949  34.613  10.525
86976W        W53385  21.085   2.977  14.846
86977W        W53386  40.308  14.965  12.876
86978W        W53387  34.101  16.572   3.897
86979W        W53388   5.907  11.387   0.891
86980W        W53389  14.720  21.803  13.870
86981W        W53390  43.051  30.234   0.680
86982W        W53391  14.564   2.915   3.496
86983W        W53392  39.037  29.193  11.596
86984W        W53393   9.581  35.749   2.664
86985W        W53394  19.686  32.610  14.968
86986W        W53395  25.291  12.551  13.459
86987W        W53396  23.708  35.095  12.915
86988W        W53397  14.612  41.999   3.314
86989W        W53398  17.109  25.708   4.505
86990W        W53399  32.905  22.287   3.116
86991W        W53400  27.972  44.418  10.519
86992W        W53401  19.191   4.701  11.116
86993W        W53402  39.099  19.585  10.910
86994W        W53403   2.903   7.926  10.608
86995W        W53404  22.492  28.350  14.000
86996W        W53405   2.767  21.694  14.689
86997W        W53406  13.611   3.452   4.252
86998W        W53407   4.851  29.414   3.244
86999W        W53408  12.296  44.958   4.587
87000W        W53409   9.616  12.282  14.886
87001W        W53410   2.096   5.269  11.271
87002W        W53411  44.693  40.087  10.415
87003W        W53412  26.756  20.986   4.118
87004W        W53413  39.501  38.856   3.259
87005W        W53414   0.746  18.671  12.606
87006W        W53415   9.094  14.146  12.367
87007W        W53416  29.517  28.754   9.934
87008W        W53417  18.579  13.606   2.178
87009W        W53418  32.060  26.251  13.882
87010W        W53419  35.932   0.735   3.639
87011W        W53420  30.853   9.868  12.475
87012W        W53421  10.996  44.529  13.916
87013W        W53422   9.697  39.316   4.105
87014W        W53423  12.728  11.141  14.673
87015W        W53424  40.734  14.158  10.317
87016W        W53425   6.238  23.385   0.788
87017W        W53426  26.835  37.779  11.507
87018W        W53427  26.251  23.120   3.130
87019W        W53428  13.287  20.268  13.736
87020W        W53429  30.073  23.500   1.871
87021W        W53430  34.432  28.072   2.904
87022W        W53431  33.011  25.301   4.125
87023W        W53432  11.628  10.207  13.223
87024W        W53433  38.290  25.072  14.422
87025W        W53434  17.066  21.927  11.317
87026W        W53435  31.069  27.937   9.863
87027W        W53436   1.245  30.622   3.262
87028W        W53437   5.834  18.104  12.620
87029W        W53438  25.243   2.837  12.510
87030W        W53439   4.907  42.936  12.147
87031W        W53440   9.645  44.499   4.578
87032W        W53441   1.036  32.059   5.017
87033W        W53442  19.687  34.978  10.963
87034W        W53443  28.577  44.710   2.807
87035W        W53444  28.643  10.071   3.994
87036W        W53445  25.213  26.743   0.532
87037W        W53446  42.972  23.432   4.612
87038W        W53447  43.315  43.459   0.364
87039W        W53448  10.157  28.109  14.531
87040W        W53449   3.783  26.125   3.430
87041W        W53450  26.444  16.052  10.798
87042W        W53451  20.969  26.141  13.500
87043W        W53452  13.632  39.890  11.584
87044W        W53453   5.489  10.369  12.858
87045W        W53454  39.380  43.782   4.678
87046W        W53455  13.951  13.279   0.959
87047W        W53456  25.612  14.904  12.055
87048W        W53457  21.801  26.418  13.288
87049W        W53458   1.540   5.875  13.714
87050W        W53459  18.229  22.338  14.300
87051W        W53460  10.418  13.588   1.280
87052W        W53461  11.856  42.930   4.977
87053W        W53462  40.490  43.371  13.018
87054W        W53463  24.192  39.544  11.624
87055W        W53464   5.420  32.084  12.762
87056W        W53465  39.610  12.580  14.522
87057W        W53466  37.605  28.929   1.485
87058W        W53467  33.401  26.742  12.125
87059W        W53468  37.576  14.216  11.126
87060W        W53469   1.339  31.161   1.737
87061W        W53470  42.864  17.668  14.938
87062W        W53471  19.169  21.339   4.391
87063W        W53472  16.060  44.993  14.048
87064W        W53473  29.528  14.027   3.253
87065W        W53474   7.834  15.867   2.667
87066W        W53475  15.232  24.792   2.605
87067W        W53476  11.248  37.920   0.756
87068W        W53477  23.652  40.940  14.316
87069W        W53478  30.013   3.015   2.688
87070W        W53479  44.691  12.183   4.549
87071W        W53480   7.095  34.885   1.633
87072W        W53481  30.495   7.147   3.929
87073W        W53482  29.755  29.185   0.227
87074W        W53483  28.525  34.461  13.497
87075W        W53484   1.192  15.177  13.444
87076W        W53485  10.620  20.672  14.018
87077W        W53486  39.331  18.582  11.990
87078W        W53487   2.441   7.113   3.237
87079W        W53488   4.741   3.516   2.385
87080W        W53489  36.518  10.002  10.422
87081W        W53490  17.104  28.253  13.003
87082W        W53491  41.131  43.008   2.846
87083W        W53492  39.853  32.704   1.462
87084W        W53493   3.052  41.705  11.857
87085W        W53494  38.013  24.988   1.478
87086W        W53495  44.977  12.299   0.752
87087W        W53496  31.570  15.829  14.040
87088W        W53497   0.900  23.430   4.486
87089W        W53498  15.208   0.377  14.967
87090W        W53499   0.061  44.561  12.395
87091W        W53500   2.822  33.977  12.934
87092W        W53501  24.137  20.542  13.365
87093W        W53502  31.465  19.754   0.065
87094W        W53503  10.154  41.757  14.762
87095W        W53504   2.305   9.315   3.606
87096W        W53505   9.579   9.066   2.194
87097W        W53506  17.715  22.822   3.300
87098W        W53507  41.273  28.066  13.388
87099W        W53508  37.060   5.614  10.409
87100W        W53509   6.144  29.849   2.707
87101W        W53510  39.922  27.753   0.947
87102W        W53511  29.178  11.197   0.924
87103W        W53512  13.708   4.640   0.743
87104W        W53513  22.503  34.468   0.051
87105W        W53514  40.085   1.978   0.854
87106W        W53515   8.129  19.990  10.359
87107W        W53516  17.067   1.499   0.699
87108W        W53517  13.557  16.365   1.896
87109W        W53518  24.899  41.461  14.759
87110W        W53519  43.111  41.591   5.140
87111W        W53520   0.140  24.949  11.571
87112W        W53521  30.294   3.506   4.496
87113W        W53522  27.942   2.284   0.280
87114W        W53523   1.773  28.475   4.959
87115W        W53524   2.134  27.177  11.259
87116W        W53525  17.839  12.346  13.087
87117W        W53526  35.046  28.730   0.061
87118W        W53527  40.404  43.946   2.138
87119W        W53528  41.929  42.509  14.972
87120W        W53529  17.672  39.837  10.710
87121W        W53530  15.273  13.836  10.684
87122W        W53531   8.736   5.474   2.250
87123W        W53532  21.797   9.623  11.167
87124W        W53533   4.954  30.417   0.832
87125W        W53534  16.058  40.546  13.847
87126W        W53535   8.844  19.425  12.395
87127W        W53536  32.166  10.446   4.506
87128W        W53537   5.595  20.277  13.309
87129W        W53538  10.100   3.970  12.591
87130W        W53539  12.233  38.060  14.459
87131W        W53540  33.136  23.650  13.463
87132W        W53541  11.905  31.531   0.811
87133W        W53542   5.586   1.502  12.237
87134W        W53543   9.410   2.219  14.076
87135W        W53544  27.219  20.148   4.494
87136W        W53545   6.028   9.509  11.887
87137W        W53546  40.431  33.640  10.710
87138W        W53547  18.847  26.158   2.025
87139W        W53548  25.225  34.026   4.194
87140W        W53549  27.627  26.987   1.232
87141W        W53550   4.373  39.920  13.821
87142W        W53551  30.616  29.673  11.583
87143W        W53552  38.995   1.992   2.774
87144W        W53553  43.457   7.120   0.800
87145W        W53554  32.665   6.753   0.901
87146W        W53555  33.930  22.761  13.863
87147W        W53556  39.856  28.507   2.217
87148W        W53557  39.811  11.682   2.883
87149W        W53558  39.818  18.854   1.507
87150W        W53559  19.374  16.612   0.842
87151W        W53560   8.133   4.191   1.767
87152W        W53561   1.275  15.535  11.162
87153W        W53562  23.606  29.739   1.719
87154W        W53563   7.242  13.681   1.396
87155W        W53564  33.930  39.021   0.187
87156W        W53565  30.349  19.614  10.683
87157W        W53566  35.058  25.957   0.229
87158W        W53567   5.098   8.965   3.878
87159W        W53568  19.597  18.213  11.764
87160W        W53569  37.557  24.139   0.496
87161W        W53570  26.492  14.190  12.358
87162W        W53571  30.958  29.414   1.743
87163W        W53572   2.778  17.962  11.057
87164W        W53573  38.353   0.787   1.325
87165W        W53574  37.305  38.110   3.220
87166W        W53575  15.960  21.908  12.105
87167W        W53576  30.390  11.098  13.885
87168W        W53577  29.026   0.022   3.644
87169W        W53578  33.544  30.448  13.695
87170W        W53579  32.673  17.984   4.709
87171W        W53580   9.785  26.673  10.955
87172W        W53581  43.754  12.588  11.750
87173W        W53582  31.987   1.421   0.250
87174W        W53583  31.973  16.914  11.824
87175W        W53584  38.717  44.976   2.395
87176W        W53585  11.600  10.675  11.054
87177W        W53586  34.368  34.807  11.131
87178W        W53587  14.335   9.463   3.200
87179W        W53588   5.385   9.153   2.318
87180W        W53589  14.253  17.941   5.019
87181W        W53590  29.056   3.546  11.536
87182W        W53591  21.413  16.856   4.274
87183W        W53592   2.643   8.108  14.496
87184W        W53593  34.213  10.789  14.261
87185W        W53594  42.928  34.800  12.411
87186W        W53595  20.621  37.616   3.396
87187W        W53596  29.642   4.419  12.147
87188W        W53597   6.333  17.188   4.837
87189W        W53598  26.245  21.080   2.796
87190W        W53599  29.096  40.234  13.223
87191W        W53600  35.080  24.771  13.499
87192W        W53601   1.694   4.150   0.633
87193W        W53602  37.110  36.430  14.392
87194W        W53603  24.550  13.157  11.530
87195W        W53604  18.331  17.271   4.515
87196W        W53605  30.238   2.505   1.478
87197W        W53606  17.119  30.916  12.889
87198W        W53607   1.729  12.756   0.851
87199W        W53608  43.525  39.334  14.923
87200W        W53609  35.506   3.231   3.062
87201W        W53610   3.551  13.734   3.470
87202W        W53611  30.572  33.829   0.905
87203W        W53612  11.715  25.704   0.612
87204W        W53613   3.859  24.035  13.750
87205W        W53614  34.530  27.479   1.424
87206W        W53615  26.810  42.718   5.007
87207W        W53616  37.746  43.981   0.248
87208W        W53617  42.162  32.618   4.671
87209W        W53618  12.182  37.214  10.910
87210W        W53619   4.362   3.465  14.329
87211W        W53620  22.466  36.702  11.705
87212W        W53621  35.901   6.391  14.355
87213W        W53622  18.277   3.440   1.880
87214W        W53623  39.336  38.918  12.971
87215W        W53624  19.560  16.789  14.411
87216W        W53625  21.560   7.890   4.243
87217W        W53626  21.206  43.055  11.488
87218W        W53627   9.074  13.029  10.996
87219W        W53628  40.501  30.160   1.834
87220W        W53629  36.293   7.296  14.235
87221W        W53630  20.705  38.753   1.792
87222W        W53631  10.191   3.309  11.512
87223W        W53632  29.424  42.398   4.898
87224W        W53633  18.188  38.718  13.483
87225W        W53634  11.270   0.378  12.455
87226W        W53635  40.032  42.053   0.248
87227W        W53636  24.436  18.566  12.399
87228W        W53637  13.183  25.213  13.786
87229W        W53638  35.076  39.771  13.872
87230W        W53639  31.464  24.144  13.028
87231W        W53640  40.849  10.560   2.799
87232W        W53641  26.674   4.342  11.928
87233W        W53642   0.411  24.236   1.300
87234W        W53643  13.637  29.001  13.795
87235W        W53644  17.285  37.214   5.050
87236W        W53645   2.715  27.163  13.361
87237W        W53646  11.706  10.960   3.737
87238W        W53647   5.832  14.023   2.769
87239W        W53648  28.609  32.490  11.974
87240W        W53649  33.395  35.626   1.900
87241W        W53650  36.861  40.045  11.183
87242W        W53651  38.366   1.908  10.704
87243W        W53652  44.972  28.065   3.258
87244W        W53653   6.246  20.844   4.578
87245W        W53654  33.960  44.734  10.567
87246W        W53655  16.290  38.833   0.948
87247W        W53656  44.191   3.305  12.430
87248W        W53657  35.442  23.748   4.691
87249W        W53658  43.497  17.045   4.208
87250W        W53659   4.380  40.991   2.787
87251W        W53660  13.409   9.458  12.547
87252W        W53661  35.439  40.844   2.120
87253W        W53662  24.113  16.710   3.545
87254W        W53663   9.701  42.256   4.283
87255W        W53664  37.552  21.051   2.742
87256W        W53665  40.945   9.387  12.736
87257W        W53666  19.585  33.190  13.124
87258W        W53667  21.506  25.391  11.575
87259W        W53668   8.603  44.742   3.173
87260W        W53669  30.100   9.565  14.284
87261W        W53670  31.455  20.057  11.140
87262W        W53671  35.133  19.434   1.781
87263W        W53672  38.873  16.250  10.643
87264W        W53673  26.269  26.187  12.485
87265W        W53674  15.634  29.141  14.147
87266W        W53675  36.356  44.458  12.672
87267W        W53676  31.946  28.026  14.556
87268W        W53677  37.002  19.814  14.859
87269W        W53678   7.414  26.813  11.111
87270W        W53679   6.910  42.704  12.295
87271W        W53680  12.791  21.456   5.006
87272W        W53681  13.465  33.510  14.412
87273W        W53682  42.688  10.866  10.595
87274W        W53683  26.101  43.977   2.460
87275W        W53684  22.290   3.875   2.673
87276W        W53685  30.071  22.569  11.447
87277W        W53686  20.583  25.705   0.787
87278W        W53687  23.260  13.116   0.913
87279W        W53688  29.456   7.210  11.505
87280W        W53689  39.226  39.910  10.984
87281W        W53690  14.783  19.104  11.965
87282W        W53691  39.754  10.598  11.991
87283W        W53692  14.778  42.970  11.878
87284W        W53693  26.924  27.322  12.621
87285W        W53694  37.670   2.240   4.496
87286W        W53695  16.350  17.396  11.109
87287W        W53696   9.422  26.077  13.955
87288W        W53697  39.990  29.773  11.580
87289W        W53698  20.178  41.807   2.285
87290W        W53699  13.158  30.171  12.879
87291W        W53700  42.435  41.097  12.515
87292W        W53701   7.749  11.762  14.549
87293W        W53702  28.998  22.175   2.384
87294W        W53703  16.681  28.649  12.401
87295W        W53704  23.026   2.376   3.499
87296W        W53705  20.520   5.713   2.261
87297W        W53706  17.756  18.041  11.922
87298W        W53707  19.044  39.249   1.952
87299W        W53708  25.031  20.251   0.243
87300W        W53709   7.145  21.041   0.856
87301W        W53710  18.829  23.303   1.755
87302W        W53711  21.711  32.737   1.208
87303W        W53712  31.683  21.725   2.690
87304W        W53713  44.513  27.622   2.267
87305W        W53714  32.857   1.236   3.730
87306W        W53715   4.418  19.178  10.511
87307W        W53716  13.408  18.997  10.183
87308W        W53717   4.394  28.475   2.791
87309W        W53718  22.431  32.508   2.785
87310W        W53719  43.452  28.164   2.957
87311W        W53720  39.411  38.256   0.939
87312W        W53721  23.191  41.968   3.256
87313W        W53722  24.982   7.223  12.588
87314W        W53723   5.035  38.649   0.170
87315W        W53724  11.154  34.609  13.980
87316W        W53725  31.872  32.747  11.101
87317W        W53726  23.697   1.343   4.292
87318W        W53727  26.971  30.012  13.502
87319W        W53728  26.234  42.779   2.405
87320W        W53729   7.429  42.420  11.951
87321W        W53730  33.610   7.875  13.905
87322W        W53731  30.445  26.026   3.120
87323W        W53732   8.171   0.358  14.307
87324W        W53733  18.045  32.961   0.821
87325W        W53734  19.480  32.200  14.258
87326W        W53735   0.321  20.772  10.060
87327W        W53736   4.639  25.936   2.500
87328W        W53737   5.313  15.977  11.692
87329W        W53738  35.649  40.273   4.458
87330W        W53739  20.140  31.335  11.070
87331W        W53740  33.835  30.990  13.778
87332W        W53741  27.635  27.588  14.626
87333W        W53742  40.899   5.814   4.358
87334W        W53743  30.582  20.197   4.200
87335W        W53744   3.740  29.721  13.972
87336W        W53745  32.329  32.957  12.497
87337W        W53746  20.970  17.042   3.397
87338W        W53747  38.438  24.279   3.321
87339W        W53748  32.274  27.437   3.599
87340W        W53749  24.733  39.515  14.982
87341W        W53750  27.607   4.865   3.300
87342W        W53751   8.997  39.394   0.389
87343W        W53752  33.174  35.650  11.430
87344W        W53753  26.541   2.333   4.733
87345W        W53754  37.521   9.005   1.866
87346W        W53755  17.143  30.019  11.580
87347W        W53756  10.869   7.298  13.965
87348W        W53757   8.031  24.672  12.077
87349W        W53758   7.704  32.583   9.742
87350W        W53759  38.445  18.201  14.416
87351W        W53760  29.558  18.553   1.303
87352W        W53761  18.736  38.777  11.019
87353W        W53762   1.266  38.484  11.607
87354W        W53763  22.959  44.989   0.068
87355W        W53764  17.915  15.523   1.332
87356W        W53765   0.474  10.981  13.273
87357W        W53766  28.534  11.365  11.757
87358W        W53767  19.007  40.625   0.119
87359W        W53768  10.136  30.682   0.999
87360W        W53769   6.965  31.628   3.244
87361W        W53770  32.140  26.535  11.044
87362W        W53771   5.919  30.615  14.599
87363W        W53772  19.359  36.514   1.393
87364W        W53773  38.820  15.791  14.253
87365W        W53774  22.267   4.967  13.772
87366W        W53775  26.759  15.047  11.169
87367W        W53776   4.457   5.285   3.474
87368W        W53777  24.004  36.897  13.513
87369W        W53778  29.562  34.001   2.922
87370W        W53779  10.640  15.572  12.369
87371W        W53780   5.287  15.998  13.961
87372W        W53781  20.766  10.751   3.938
87373W        W53782   7.967  28.465  12.517
87374W        W53783  25.660  31.175   0.218
87375W        W53784   1.624  42.797  14.025
87376W        W53785  13.300  25.223   4.194
87377W        W53786  34.859   9.281  10.727
87378W        W53787  16.749  20.593  12.413
87379W        W53788  35.252  26.756   3.374
87380W        W53789  31.285  34.658  13.191
87381W        W53790   6.717  16.337   2.325
87382W        W53791   7.910  29.168  13.694
87383W        W53792  14.092  17.456   5.053
87384W        W53793   9.318  38.843   4.140
87385W        W53794  23.080  41.788  11.559
87386W        W53795  25.960  12.454   2.211
87387W        W53796  35.998  43.165  14.088
87388W        W53797  28.018  13.840  14.949
87389W        W53798  15.600  13.931   0.220
87390W        W53799  21.296  22.695  11.706
87391W        W53800  37.490   0.292   2.660
87392W        W53801  44.380   9.730  13.856
87393W        W53802  18.187  22.189   1.091
87394W        W53803  10.681  31.512  13.184
87395W        W53804  34.568  40.796  11.251
87396W        W53805  27.239  11.757  13.911
87397W        W53806  44.515  15.551  12.634
87398W        W53807   0.475  16.927  13.074
87399W        W53808  44.276  20.329  11.987
87400W        W53809   3.732  44.392  14.186
87401W        W53810  35.881  41.200  11.635
87402W        W53811  29.887  35.803   2.809
87403W        W53812  34.982  29.194   0.357
87404W        W53813  28.104   0.822   4.635
87405W        W53814  41.455  38.878   3.817
87406W        W53815  43.317  33.077   0.904
87407W        W53816  36.384  26.379  14.133
87408W        W53817  40.984  28.546   2.360
87409W        W53818  15.583   2.552  12.514
87410W        W53819  20.975  18.703   2.119
87411W        W53820  25.160  38.317   4.614
87412W        W53821  36.628   1.969  12.425
87413W        W53822   7.811  44.584   2.696
87414W        W53823   1.067  20.176  12.980
87415W        W53824   1.506  44.420   3.219
87416W        W53825  36.267   7.362  14.822
87417W        W53826   0.789  33.890   2.231
87418W        W53827  21.603  39.665  13.226
87419W        W53828  21.978  17.073  13.051
87420W        W53829  42.777  14.428  14.594
87421W        W53830  11.387  27.537  14.853
87422W        W53831  31.522   3.050  12.996
87423W        W53832  35.024  34.807  11.579
87424W        W53833   5.292   6.431   1.772
87425W        W53834   7.943   7.179  11.581
87426W        W53835  29.161   7.067   3.067
87427W        W53836   8.868  37.813   3.700
87428W        W53837  13.241  12.555   4.149
87429W        W53838   1.582  44.191  12.052
87430W        W53839   9.354  24.974   0.220
87431W        W53840  27.153  20.614   4.265
87432W        W53841  24.815   5.251   2.321
87433W        W53842  31.540  24.929  11.633
87434W        W53843   9.826  42.757  12.929
87435W        W53844  33.161  29.590  13.521
87436W        W53845  40.865   3.367   0.584
87437W        W53846  24.491  12.248  14.293
87438W        W53847  32.147   9.249  12.498
87439W        W53848  12.776  43.468   3.837
87440W        W53849  43.881  23.954  13.360
87441W        W53850  25.762  15.013  11.184
87442W        W53851  43.837  34.446  13.614
87443W        W53852  31.504  11.802  11.812
87444W        W53853  44.353  14.081   0.296
87445W        W53854   7.336  43.254   3.208
87446W        W53855  22.955  38.438  11.116
87447W        W53856  21.020  31.518  10.843
87448W        W53857  10.845  37.005   1.877
87449W        W53858  44.046  24.223  14.741
87450W        W53859  31.884  41.853  12.456
87451W        W53860   4.910  38.597   2.884
87452W        W53861  32.826  43.929   4.544
87453W        W53862  41.526  25.091  13.079
87454W        W53863   4.793  25.804   1.442
87455W        W53864  44.080  10.460   5.067
87456W        W53865  33.410  18.254  10.550
87457W        W53866   0.798  13.862   0.874
87458W        W53867  31.560  17.068   2.705
87459W        W53868  34.341  19.970   0.896
87460W        W53869  29.111   7.380  11.991
87461W        W53870  16.229  27.485   0.394
87462W        W53871   3.436   4.881  11.703
87463W        W53872  37.865   1.529  14.978
87464W        W53873   5.091  19.843   0.800
87465W        W53874  33.101  11.161  14.608
87466W        W53875  43.023  25.242  10.710
87467W        W53876  33.358  43.106   2.648
87468W        W53877  13.556  15.723  13.099
87469W        W53878  31.553  35.298   1.838
87470W        W53879  44.391  34.949  10.927
87471W        W53880   1.577  42.970   0.906
87472W        W53881  11.745  40.375  12.537
87473W        W53882  23.766   8.298   1.969
87474W        W53883  39.791  41.311   2.413
87475W        W53884  29.901  32.353   4.634
87476W        W53885  13.643  31.392  14.360
87477W        W53886  29.687  39.446   0.444
87478W        W53887   3.195  31.989   1.707
87479W        W53888   2.506  20.152   2.758
87480W        W53889  24.984  41.984  14.875
87481W        W53890  34.404   9.406  10.971
87482W        W53891   9.704  20.379  13.679
87483W        W53892  13.469  10.281   1.964
87484W        W53893  14.589  11.026  11.081
87485W        W53894  40.808   5.049  12.122
87486W        W53895  16.489   3.430  14.088
87487W        W53896  28.002  15.849  12.064
87488W        W53897  34.597   7.648  13.889
87489W        W53898   2.291   4.917  12.406
87490W        W53899   6.007  20.745   0.329
87491W        W53900  43.429  26.476  11.510
87492W        W53901  18.273   0.258  12.825
87493W        W53902  40.194  36.948   0.961
87494W        W53903   7.326  27.453  11.981
87495W        W53904   5.302  40.212   9.953
87496W        W53905   3.202  24.173  11.957
87497W        W53906  37.869  30.066  10.493
87498W        W53907  29.942  21.716   3.803
87499W        W53908  40.518  35.482  13.988
87500W        W53909  40.803  44.221  14.931
87501W        W53910  11.518  19.060  13.366
87502W        W53911  23.990  18.580   4.782
87503W        W53912  40.063  22.884   3.695
87504W        W53913  36.106   4.672   2.118
87505W        W53914  21.682  10.166  14.752
87506W        W53915   2.897   3.177  12.137
87507W        W53916  22.592  21.071   4.340
87508W        W53917  13.476  31.380  11.067
87509W        W53918  10.183  18.231  10.822
87510W        W53919   4.349  29.130  13.117
87511W        W53920   8.236   0.819  11.118
87512W        W53921   9.128   0.485   1.825
87513W        W53922  12.155  16.412   4.154
87514W        W53923  31.428  36.099   0.613
87515W        W53924  30.196  23.644   0.309
87516W        W53925  10.177  20.174  13.561
87517W        W53926  18.255  22.159   3.333
87518W        W53927  42.300  32.144   3.812
87519W        W53928  30.950   1.336   2.260
87520W        W53929   5.843  18.157  10.615
87521W        W53930  20.957  18.571  10.747
87522W        W53931  26.197  21.599   2.318
87523W        W53932  24.178   9.956   2.348
87524W        W53933  22.660   5.422  11.233
87525W        W53934   6.177   9.910   0.355
87526W        W53935  34.167  44.982   2.422
87527W        W53936   6.308  10.858   1.546
87528W        W53937   6.396  10.896   0.271
87529W        W53938   5.221  26.606   2.426
87530W        W53939  41.372   8.893  13.437
87531W        W53940   4.853  36.860  11.473
87532W        W53941  11.086   9.214   2.790
87533W        W53942  28.749   4.392   4.085
87534W        W53943  11.925  41.566   5.069
87535W        W53944  14.060  10.345  14.453
87536W        W53945  33.837  33.319  11.692
87537W        W53946  17.659  17.337   4.396
87538W        W53947  22.503  17.630   2.633
87539W        W53948  39.911  28.239  10.692
87540W        W53949  29.245  20.734   3.574
87541W        W53950   4.812  26.690  10.748
87542W        W53951  32.913  27.587  14.846
87543W        W53952  32.850   9.058   0.913
87544W        W53953  31.974  15.696  13.505
87545W        W53954  24.256   6.209  14.520
87546W        W53955   7.971  31.200   0.502
87547W        W53956  31.900  34.145   1.197
87548W        W53957   1.411   9.276   5.198
87549W        W53958  34.452  35.582  13.995
87550W        W53959   9.371  40.116  14.843
87551W        W53960  19.824   5.887   2.812
87552W        W53961  14.566   1.796   1.929
87553W        W53962  44.530  10.728  14.462
87554W        W53963  31.381  30.983  14.473
87555W        W53964  27.535   7.368  10.298
87556W        W53965  13.162  36.391   3.933
87557W        W53966   8.117  13.719   4.426
87558W        W53967  41.069  23.678  11.695
87559W        W53968  44.417   7.858  10.190
87560W        W53969  25.193  10.388   3.310
87561W        W53970  28.509  18.420  11.278
87562W        W53971   6.446   6.671   1.021
87563W        W53972  38.100  37.920   2.530
87564W        W53973   3.797  16.218  12.101
87565W        W53974  31.610  25.859   0.651
87566W        W53975  15.212  39.491   1.434
87567W        W53976  42.361  35.874  10.813
87568W        W53977  10.387  23.394  11.081
87569W        W53978  29.147  25.729   4.417
87570W        W53979  15.644  16.972  10.032
87571W        W53980  38.335  17.357   2.719
87572W        W53981  42.149   3.454  12.470
87573W        W53982   8.110  40.787  11.111
87574W        W53983  20.700  35.322   1.243
87575W        W53984  19.276  44.795  12.308
87576W        W53985   0.493  25.920   1.643
87577W        W53986  36.648  40.069   1.802
87578W        W53987   2.433   3.019   3.772
87579W        W53988  15.217  18.799   1.767
87580W        W53989   1.453   9.360  13.887
87581W        W53990  33.167  25.021   3.730
87582W        W53991  17.421  28.062   2.224
87583W        W53992  24.670   9.464   4.035
87584W        W53993  37.834  37.660   4.192
87585W        W53994   8.213   5.063   1.466
87586W        W53995   4.260  22.626  13.473
87587W        W53996  35.076  23.207  10.366
87588W        W53997   8.581  33.145   2.156
87589W        W53998  20.946  23.510   3.642
87590W        W53999  12.776  27.484   3.606
87591W        W54000  16.327  43.783  12.476
87592W        W54001   7.126  26.232   0.466
87593W        W54002   0.268  34.076   1.276
87594W        W54003  24.503   2.963  13.359
87595W        W54004  36.193  20.973   1.201
87596W        W54005  44.682  19.902  13.826
87597W        W54006  36.892   9.205   3.209
87598W        W54007  20.443  30.533  11.585
87599W        W54008  39.299  13.248   4.162
87600W        W54009  21.267  19.137  11.087
87601W        W54010  42.046   4.852  14.720
87602W        W54011  36.953  14.691  13.915
87603W        W54012  33.810  41.505  11.612
87604W        W54013   2.953  44.029   3.080
87605W        W54014  44.326  32.411  10.437
87606W        W54015  19.279  37.407   0.279
87607W        W54016  17.645  29.859  11.663
87608W        W54017  36.881  16.079   2.562
87609W        W54018  14.363  17.367  10.705
87610W        W54019  11.589  10.186   4.367
87611W        W54020  22.146  10.267   0.541
87612W        W54021  26.536  42.639  11.957
87613W        W54022  40.021   0.003   1.484
87614W        W54023  35.317   8.728   4.052
87615W        W54024  33.541  23.941  11.081
87616W        W54025  42.431  21.590   3.778
87617W        W54026  19.767  13.402   3.668
87618W        W54027   7.344   8.059   0.219
87619W        W54028  12.228  37.770   2.779
87620W        W54029  23.037  28.679  11.228
87621W        W54030  39.495   3.589  14.940
87622W        W54031   5.447  12.127  12.518
87623W        W54032  34.636  35.462   0.420
87624W        W54033  38.361  22.610  12.883
87625W        W54034  14.565   9.302   2.743
87626W        W54035  31.458  14.300   0.185
87627W        W54036  31.081  41.674  14.752
87628W        W54037  23.226  37.156  10.647
87629W        W54038  41.234  23.705   2.257
87630W        W54039  23.188  42.750   0.759
87631W        W54040  17.323  15.783  11.207
87632W        W54041  37.028  29.733   2.788
87633W        W54042  38.240   7.926   1.291
87634W        W54043  40.784  37.349  11.049
87635W        W54044  33.576   3.511   0.361
87636W        W54045  14.746   7.881  13.485
87637W        W54046  13.134  16.590  13.391
87638W        W54047   1.659  41.237   1.386
87639W        W54048  13.697  11.909   4.161
87640W        W54049  12.619  28.449  10.679
87641W        W54050   9.654  17.546  13.275
87642W        W54051   3.413  23.233  12.022
87643W        W54052  13.530  18.052   4.366
87644W        W54053  10.236   6.178  12.537
87645W        W54054  39.712  34.218   2.767
87646W        W54055  37.099  22.174  14.662
87647W        W54056   7.004   4.875  14.799
87648W        W54057  27.092   5.710   0.047
87649W        W54058  21.418  42.989  13.954
87650W        W54059  32.586  24.091   4.855
87651W        W54060  24.051  34.651   0.782
87652W        W54061  26.689  34.563  14.816
87653W        W54062   9.276  28.633  12.318
87654W        W54063  15.721   6.151  12.781
87655W        W54064   3.404  35.865  13.900
87656W        W54065   3.273  42.491  13.523
87657W        W54066  42.363  21.967   0.846
87658W        W54067  37.344  41.210   3.555
87659W        W54068  17.412  13.749  10.924
87660W        W54069  44.159   4.062  14.049
87661W        W54070  29.682   5.612  13.371
87662W        W54071  16.756  41.104   0.913
87663W        W54072  36.199  24.834  13.693
87664W        W54073   2.296   7.330  10.768
87665W        W54074   1.864  26.599   4.435
87666W        W54075   3.074  33.519  14.386
87667W        W54076  17.630  20.271  12.023
87668W        W54077  35.973  37.324  12.357
87669W        W54078  17.524   1.117  13.080
87670W        W54079   8.211  11.096   2.229
87671W        W54080  30.019  10.435   2.291
87672W        W54081  11.523  36.448  13.857
87673W        W54082   8.161  15.716   3.417
87674W        W54083  35.637  39.081  14.383
87675W        W54084  11.381  29.345  14.023
87676W        W54085  17.644   5.304  10.903
87677W        W54086  39.870  30.468   4.727
87678W        W54087  17.981  18.213   4.059
87679W        W54088  34.595  21.513  10.769
87680W        W54089   4.850  25.012  11.164
87681W        W54090  30.650  27.548   0.142
87682W        W54091   7.265   5.706  13.307
87683W        W54092  39.510   7.997  13.673
87684W        W54093  26.954   3.929  11.641
87685W        W54094   9.398  13.131   0.398
87686W        W54095   0.767  39.473   1.030
87687W        W54096  18.514  24.574   1.267
87688W        W54097  28.009  14.695  11.298
87689W        W54098  34.438  20.622   1.498
87690W        W54099  13.397   6.903  11.995
87691W        W54100  37.721  21.690  13.862
87692W        W54101  14.812  35.786   3.358
87693W        W54102  18.675   7.064   3.700
87694W        W54103  32.828  39.801   4.388
87695W        W54104  25.157   5.010  11.117
87696W        W54105   1.815  36.833  10.834
87697W        W54106   8.231  41.206   1.901
87698W        W54107  13.376  17.066  10.369
87699W        W54108  18.109  19.542  12.709
87700W        W54109  13.645  42.207  14.368
87701W        W54110  42.363  11.817   4.900
87702W        W54111   7.798  10.413  11.233
87703W        W54112  32.136  12.602  11.556
87704W        W54113   6.214  34.879   1.491
87705W        W54114   0.206   6.673  13.435
87706W        W54115  35.693  19.647   0.048
87707W        W54116  22.315  36.000   3.196
87708W        W54117  10.781   6.094  13.900
87709W        W54118  24.666  18.606   2.704
87710W        W54119  35.841  27.574  14.415
87711W        W54120   9.039   8.465   3.742
87712W        W54121  19.092  12.703  13.578
87713W        W54122   6.803  11.386   3.185
87714W        W54123  17.005   6.583  10.078
87715W        W54124  16.116  43.528   0.194
87716W        W54125  10.906  38.956  12.497
87717W        W54126  10.775  42.360   4.145
87718W        W54127  17.261  35.356   3.278
87719W        W54128  25.715  17.368  14.879
87720W        W54129  22.215   4.808   1.569
87721W        W54130  30.592   0.021   0.207
87722W        W54131  37.415  42.110   2.380
87723W        W54132   3.598  17.635   1.339
87724W        W54133  32.780  35.370  14.948
87725W        W54134   0.509  41.917  13.991
87726W        W54135  44.396  32.111  12.732
87727W        W54136  24.098  36.272   0.446
87728W        W54137   6.868  20.630  12.459
87729W        W54138  39.038   7.863   1.714
87730W        W54139  41.329  27.106   0.358
87731W        W54140   5.009   4.402  12.921
87732W        W54141  14.869   8.368   1.834
87733W        W54142  11.664  20.490   0.221
87734W        W54143   9.657  19.866  13.762
87735W        W54144   1.790  16.801   2.276
87736W        W54145  37.643   9.311  13.425
87737W        W54146  17.299   8.223  12.737
87738W        W54147  25.655  40.814  12.065
87739W        W54148  38.834   0.402   3.382
87740W        W54149   2.942  16.312  14.259
87741W        W54150  18.709  21.880  10.202
87742W        W54151  41.404  34.120  11.189
87743W        W54152  39.509  31.228   3.643
87744W        W54153  37.385   1.424  14.358
87745W        W54154   0.997  39.351  11.085
87746W        W54155  25.183  29.045   0.795
87747W        W54156  42.485  20.698   1.469
87748W        W54157  21.314  39.876  10.956
87749W        W54158  39.942   5.403   1.754
87750W        W54159  17.135  41.751  14.319
87751W        W54160   3.754   2.306  14.978
87752W        W54161  27.896  23.579   3.388
87753W        W54162   7.401  31.559  11.612
87754W        W54163  27.547   4.329  13.973
87755W        W54164   3.433  28.858  11.505
87756W        W54165  20.458  29.888   3.092
87757W        W54166  22.068  12.657   2.182
87758W        W54167   3.643  43.307   5.001
87759W        W54168  26.040  42.559  13.473
87760W        W54169   5.411  23.132  13.461
87761W        W54170  18.143   0.413  10.929
87762W        W54171  41.713   7.729   3.554
87763W        W54172  17.385  33.725  10.382
87764W        W54173  10.687   0.491   1.840
87765W        W54174  15.678  31.962   1.840
87766W        W54175   3.392   4.667  14.762
87767W        W54176  19.815  23.162   4.226
87768W        W54177  28.417  21.714   0.386
87769W        W54178  38.058  26.901  12.430
87770W        W54179   3.211   0.471   3.809
87771W        W54180  29.841  10.402   1.082
87772W        W54181  18.148  21.542  11.915
87773W        W54182  34.642  13.589  11.528
87774W        W54183  26.740  27.053  12.221
87775W        W54184  26.185  20.151   2.715
87776W        W54185  40.005  44.032  11.679
87777W        W54186  19.595  40.553  12.049
87778W        W54187  27.255  24.871  10.434
87779W        W54188  25.782  36.917   3.146
87780W        W54189  23.920  24.453  14.285
87781W        W54190  29.242  33.475   1.784
87782W        W54191  12.791  23.736  12.225
87783W        W54192  29.560   6.359   1.439
87784W        W54193   9.889  25.053   4.973
87785W        W54194   1.301  43.217   3.229
87786W        W54195  42.706  31.642   2.148
87787W        W54196  36.412  26.520  11.764
87788W        W54197  31.555  36.066  14.996
87789W        W54198   9.822  41.445  13.867
87790W        W54199  18.249  26.210   1.465
87791W        W54200  18.015  42.344  11.551
87792W        W54201  31.941  14.504  11.630
87793W        W54202  35.464  43.350  12.892
87794W        W54203  27.785  28.164   0.349
87795W        W54204   0.584  26.732  13.612
87796W        W54205  17.267   2.028  12.991
87797W        W54206  31.996   1.681  12.904
87798W        W54207  43.383  10.644   1.944
87799W        W54208   6.111   0.298  13.404
87800W        W54209  38.818  17.786   2.087
87801W        W54210  35.369  13.115  13.624
87802W        W54211   2.969  23.537  10.950
87803W        W54212   8.758  19.369   3.273
87804W        W54213  16.747  33.112   3.543
87805W        W54214  21.484  33.114   1.475
87806W        W54215  10.409  23.231  14.548
87807W        W54216  18.299  20.963   3.403
87808W        W54217  22.491  20.063   4.631
87809W        W54218  30.006  43.975   0.436
87810W        W54219  10.846  16.072   4.715
87811W        W54220  33.078  26.779   3.890
87812W        W54221  33.691  15.548  14.020
87813W        W54222  43.804  36.997   1.040
87814W        W54223  42.196  28.970  12.408
87815W        W54224  31.834  15.843   3.748
87816W        W54225   4.973   6.343  14.890
87817W        W54226  31.963  41.209   0.778
87818W        W54227  36.136  31.689   1.343
87819W        W54228  12.108  33.544   0.010
87820W        W54229   9.712   7.248   3.325
87821W        W54230  42.710  30.625   0.845
87822W        W54231  17.229  22.621   3.395
87823W        W54232   9.594  26.987  10.197
87824W        W54233  13.317  13.691  10.965
87825W        W54234  23.047  34.180  13.154
87826W        W54235   8.338  12.251   0.075
87827W        W54236  28.062  14.152  12.673
87828W        W54237  32.050  15.843   3.165
87829W        W54238  39.892   3.371  11.408
87830W        W54239  18.233   2.935  13.920
87831W        W54240  20.976   2.459  14.810
87832W        W54241  30.086  18.249  13.446
87833W        W54242   5.905  33.042  13.734
87834W        W54243   9.592   8.281  14.479
87835W        W54244   0.624   6.310  10.559
87836W        W54245  29.686   2.392  13.327
87837W        W54246  41.006  24.074  11.389
87838W        W54247  17.277  42.886  11.340
87839W        W54248  22.142   7.382   1.233
87840W        W54249  39.901  21.049   4.122
87841W        W54250  34.939  36.108   0.766
87842W        W54251  11.734  39.168   0.181
87843W        W54252   2.396  17.900  11.446
87844W        W54253   4.981  26.102  13.415
87845W        W54254  37.407  23.562   1.864
87846W        W54255  35.123   8.690  13.504
87847W        W54256  11.780  40.212  14.990
87848W        W54257  18.717   1.379   0.640
87849W        W54258   6.380  26.387  14.786
87850W        W54259  39.813   1.412   3.678
87851W        W54260  32.745  28.776   1.032
87852W        W54261  22.564   6.732   0.387
87853W        W54262  14.689  21.719  12.287
87854W        W54263  18.230  29.183  10.389
87855W        W54264  28.482  31.584   2.824
87856W        W54265  30.938  21.332  12.020
87857W        W54266  40.032  21.078   2.315
87858W        W54267  16.018   6.315  14.938
87859W        W54268  25.481   5.327  10.487
87860W        W54269  43.917  26.036   3.323
87861W        W54270  36.869  15.147   1.326
87862W        W54271   2.905  37.427  12.356
87863W        W54272  33.635  39.386  13.265
87864W        W54273   3.703  28.635  13.379
87865W        W54274  33.278  13.732   4.934
87866W        W54275   7.620  43.483  14.464
87867W        W54276   9.369   7.071  10.273
87868W        W54277   3.740   6.575  10.971
87869W        W54278   4.801   5.918   2.271
87870W        W54279  37.077  21.415   2.341
87871W        W54280   7.457   1.811  11.713
87872W        W54281  44.879  15.122   0.478
87873W        W54282  41.811  37.977   2.227
87874W        W54283  31.013   7.949   2.752
87875W        W54284   0.014  36.145  13.803
87876W        W54285   2.229  42.758  14.148
87877W        W54286  36.804   0.044   0.418
87878W        W54287  43.463  30.020  12.971
87879W        W54288  15.611   5.395   4.229
87880W        W54289  18.088   3.922   3.435
87881W        W54290  35.294  31.825   4.102
87882W        W54291  23.596   1.019   3.141
87883W        W54292  13.164  27.760   5.086
87884W        W54293  26.758  23.064   3.144
87885W        W54294  27.203   3.094  14.385
87886W        W54295  22.819  23.330   3.729
87887W        W54296  12.563  34.552   0.770
87888W        W54297  21.766  10.872   4.890
87889W        W54298  11.653   9.657  14.368
87890W        W54299  25.198  20.862   2.612
87891W        W54300  33.106  10.385  14.906
87892W        W54301  42.785  16.188  10.860
87893W        W54302  12.762  18.590  13.541
87894W        W54303  32.391  37.160   3.078
87895W        W54304  19.489  22.152  10.789
87896W        W54305  24.214  31.157   2.902
87897W        W54306  23.298  32.579   0.309
87898W        W54307  21.920   3.855  11.706
87899W        W54308  28.899  15.107   1.393
87900W        W54309   8.674  18.686   2.628
87901W        W54310  28.478  21.202   4.171
87902W        W54311  12.406   8.943  14.379
87903W        W54312  24.140  29.118   2.341
87904W        W54313  29.530  32.194  12.080
87905W        W54314   8.779  27.505  14.943
87906W        W54315  41.914  23.999  10.800
87907W        W54316  37.466  44.988   2.213
87908W        W54317   5.477  35.078  13.087
87909W        W54318   0.739  22.318   1.879
87910W        W54319  13.668  26.112   3.247
87911W        W54320  15.021   4.901   3.618
87912W        W54321  25.135  12.884  13.874
87913W        W54322   3.679  31.924   4.106
87914W        W54323   1.927  25.401   1.846
87915W        W54324  15.597  21.649   2.687
87916W        W54325  32.860  34.640   0.338
87917W        W54326  34.408  40.337  11.425
87918W        W54327  32.664  32.665  10.726
87919W        W54328   2.509  37.053   4.188
87920W        W54329  17.261  36.286   4.627
87921W        W54330  17.347   6.782   1.467
87922W        W54331  24.963   4.455  13.384
87923W        W54332  26.059  16.815   4.598
87924W        W54333  13.679  17.883  13.161
87925W        W54334  37.718  11.771   4.166
87926W        W54335   5.903  41.785  12.115
87927W        W54336  11.380  11.685  12.832
87928W        W54337   3.925  14.632  13.912
87929W        W54338  31.036   0.029  14.376
87930W        W54339   5.955  35.409   1.927
87931W        W54340  29.407  32.070  10.333
87932W        W54341   4.759  20.597  10.739
87933W        W54342  22.004  43.189  12.490
87934W        W54343  18.486  30.446  11.561
87935W        W54344   0.207  16.877  13.547
87936W        W54345   5.059  23.053   2.862
87937W        W54346   0.905   5.021  12.425
87938W        W54347   1.923  33.121   0.835
87939W        W54348  17.763  23.156   1.802
87940W        W54349  29.988  31.167  11.124
87941W        W54350  21.934  38.409  11.972
87942W        W54351  21.268  15.241   2.217
87943W        W54352  27.523  16.862  14.611
87944W        W54353  10.690  39.085   0.974
87945W        W54354  37.243  21.742  13.590
87946W        W54355  35.346  26.084   1.902
87947W        W54356  26.518  35.526   0.490
87948W        W54357  16.746  34.780  12.549
87949W        W54358  29.184   7.910   2.149
87950W        W54359  18.641  21.750  13.085
87951W        W54360  38.441  32.799  13.848
87952W        W54361  16.468  19.677  12.362
87953W        W54362  36.973  20.333  10.394
87954W        W54363   6.983  25.897   5.029
87955W        W54364  18.764   9.770   3.996
87956W        W54365  26.220  19.407  12.914
87957W        W54366  41.322   4.876  12.052
87958W        W54367  25.655   8.271   5.812
87959W        W54368  11.423   6.804   2.368
87960W        W54369  10.205  32.134   1.414
87961W        W54370  14.709  44.154  13.369
87962W        W54371   3.542  40.822  13.859
87963W        W54372  29.458  37.408  10.639
87964W        W54373  10.242  14.596  14.547
87965W        W54374  44.311  14.090  10.704
87966W        W54375   3.867  26.049   2.457
87967W        W54376  36.264  14.362  13.569
87968W        W54377  34.275  11.380   0.946
87969W        W54378  36.126  41.758  10.812
87970W        W54379  33.252   7.170   5.055
87971W        W54380  30.534  29.612   2.924
87972W        W54381  44.531  17.847   2.889
87973W        W54382  34.927   6.345   1.348
87974W        W54383   7.183  17.785   0.350
87975W        W54384  13.143  20.993  12.542
87976W        W54385   2.659  20.090   1.269
87977W        W54386  41.045  36.505   3.665
87978W        W54387  44.522  27.772   3.317
87979W        W54388  25.405  12.608  10.886
87980W        W54389  12.689   5.001  14.410
87981W        W54390  39.051  29.802   0.340
87982W        W54391  30.978  29.936  12.561
87983W        W54392  17.856  44.839   1.192
87984W        W54393  30.185  43.061  11.945
87985W        W54394   9.765  11.431   3.313
87986W        W54395  14.704   3.605  14.290
87987W        W54396  25.436  14.795   3.744
87988W        W54397  38.975  24.426  12.488
87989W        W54398  40.427   0.877   2.357
87990W        W54399  18.132  31.358   4.697
87991W        W54400  17.373   2.486   5.103
87992W        W54401  22.765  28.961  11.931
87993W        W54402  17.157  12.397   0.812
87994W        W54403   5.366  43.844  14.532
87995W        W54404  29.340  27.717   2.664
87996W        W54405  42.896  44.456   5.069
87997W        W54406  22.499  25.989  12.266
87998W        W54407   3.671  40.017   0.019
87999W        W54408  37.059   9.666  10.989
88000W        W54409  36.724   8.843   2.870
88001W        W54410  23.571  28.940  10.616
88002W        W54411  13.721   4.878   3.169
88003W        W54412  29.907  23.612  13.336
88004W        W54413   8.092   2.231   0.344
88005W        W54414  34.552  29.944  10.689
88006W        W54415   7.327   4.690   1.647
88007W        W54416  30.077   3.333  13.438
88008W        W54417  32.856  27.627   2.279
88009W        W54418  22.317  26.304   3.209
88010W        W54419  19.687   1.229   0.283
88011W        W54420  18.844  11.275  11.669
88012W        W54421  36.895  24.778  11.985
88013W        W54422  21.729  44.962  14.852
88014W        W54423  13.368  31.042   4.821
88015W        W54424  41.181  14.687   0.669
88016W        W54425  20.807  11.314  12.691
88017W        W54426  26.658  33.920   1.078
88018W        W54427  18.838  34.206   2.605
88019W        W54428   2.846  11.041  14.901
88020W        W54429  10.434  27.489   1.666
88021W        W54430  24.218  36.749  10.734
88022W        W54431  12.025  23.374   2.283
88023W        W54432  37.251  37.603   5.222
88024W        W54433  36.339  10.891   1.856
88025W        W54434  31.006  23.066   0.792
88026W        W54435   6.252   1.778   5.233
88027W        W54436  39.033   0.955  13.461
88028W        W54437  35.456  32.086   0.886
88029W        W54438  26.458  33.625   3.724
88030W        W54439   3.890  18.024   3.177
88031W        W54440  14.903  14.162   1.770
88032W        W54441  35.166  35.952   3.330
88033W        W54442  28.856  30.503  12.554
88034W        W54443  23.196   0.851  10.961
88035W        W54444   8.046  17.480  14.294
88036W        W54445   3.453  35.353  11.140
88037W        W54446  30.972  44.406   2.377
88038W        W54447  12.418  23.144  14.439
88039W        W54448  28.749  11.793   2.785
88040W        W54449  40.466  32.936  12.945
88041W        W54450  44.953   3.427  14.478
88042W        W54451   6.129  28.597  10.242
88043W        W54452  26.604   3.569   4.242
88044W        W54453   3.979  26.663   0.857
88045W        W54454  20.712   9.885  12.022
88046W        W54455  12.767  31.669  13.851
88047W        W54456  25.544  25.114   2.301
88048W        W54457   8.844  16.052   2.259
88049W        W54458  32.623  39.310  11.068
88050W        W54459  27.875  26.267  11.037
88051W        W54460  17.465  32.538   1.130
88052W        W54461  25.534  19.697   4.617
88053W        W54462  27.514  40.311  12.148
88054W        W54463  21.097  43.541  12.399
88055W        W54464  26.544  42.823   3.623
88056W        W54465  18.495  16.346   2.005
88057W        W54466   4.799   5.253  11.861
88058W        W54467  21.766  38.349   0.905
88059W        W54468  14.038  42.239  14.015
88060W        W54469  24.529   1.729   4.637
88061W        W54470  38.755   6.868  14.860
88062W        W54471  18.615  27.080   3.263
88063W        W54472   5.293  22.723  12.757
88064W        W54473  14.206   3.358  11.188
88065W        W54474  41.536   9.656   1.018
88066W        W54475  37.303  10.339  10.923
88067W        W54476  20.699  26.027  11.015
88068W        W54477  11.556  16.472   1.332
88069W        W54478  35.128  27.478  12.467
88070W        W54479   0.866   7.893  10.635
88071W        W54480  36.338  27.593  11.965
88072W        W54481   9.274  34.442  10.175
88073W        W54482  15.869  27.257  13.674
88074W        W54483  23.990  38.813   5.074
88075W        W54484  22.220  10.863  13.840
88076W        W54485  36.063  19.185  13.786
88077W        W54486  22.674  14.454   2.250
88078W        W54487   1.839  20.570   2.151
88079W        W54488   5.248  13.132   4.216
88080W        W54489  44.738  26.181  10.934
88081W        W54490  39.779  23.003  11.610
88082W        W54491  44.948  22.463  14.068
88083W        W54492  16.324  15.789  14.998
88084W        W54493   7.814  16.843   0.904
88085W        W54494   2.805  36.507  10.652
88086W        W54495  40.931  27.921  11.194
88087W        W54496  21.089  14.427   4.148
88088W        W54497   8.195   3.902  12.839
88089W        W54498   5.010  16.302   2.408
88090W        W54499  15.060  31.174  14.994
88091W        W54500  23.434  20.235  10.809
88092W        W54501  10.460  15.686   2.928
88093W        W54502  27.893  18.111  11.944
88094W        W54503  42.901  12.661  11.484
88095W        W54504  30.465   8.093   2.748
88096W        W54505  40.826  33.576  13.531
88097W        W54506   6.322  20.675  14.506
88098W        W54507  32.476  27.196  12.990
88099W        W54508  39.879  26.626   4.049
88100W        W54509   5.361  23.046   4.965
88101W        W54510  17.389  19.351   0.301
88102W        W54511  32.833  30.065   4.554
88103W        W54512   3.729  39.098  13.597
88104W        W54513  34.596  41.974  12.116
88105W        W54514  17.254  24.702   4.760
88106W        W54515  15.005  16.094  12.340
88107W        W54516   4.176  31.171   4.585
88108W        W54517  41.699  25.753   0.276
88109W        W54518  38.967  11.323   5.136
88110W        W54519  13.769  41.980   3.686
88111W        W54520  33.904  11.355  11.494
88112W        W54521  38.565  33.864   1.913
88113W        W54522   7.953  30.122  13.903
88114W        W54523  42.849  20.991   4.594
88115W        W54524  10.273  25.194  12.964
88116W        W54525  13.836   1.361  12.435
88117W        W54526  12.802  11.041   3.760
88118W        W54527  16.838  43.345  12.376
88119W        W54528  14.248  17.060   2.172
88120W        W54529   0.922  40.235  12.020
88121W        W54530  10.544  22.180   2.196
88122W        W54531  28.026  17.298  13.025
88123W        W54532   7.614  26.581   2.367
88124W        W54533   0.452  44.238  14.938
88125W        W54534  32.527   8.000  12.186
88126W        W54535  14.576  11.910   2.683
88127W        W54536  15.856  10.660  11.955
88128W        W54537   9.337  28.437  13.767
88129W        W54538  44.295  21.427  10.372
88130W        W54539   4.199  27.958   3.513
88131W        W54540  21.774  34.523  11.532
88132W        W54541   6.238   8.218  13.239
88133W        W54542  41.316  17.027  11.914
88134W        W54543  23.687   0.404   4.462
88135W        W54544  16.644  38.357   0.424
88136W        W54545  25.569  15.622   4.648
88137W        W54546  38.341  21.070  13.294
88138W        W54547  30.160  44.699  13.485
88139W        W54548  25.114  18.796   3.086
88140W        W54549  30.437   8.288  10.932
88141W        W54550  44.459  38.292   1.902
88142W        W54551  15.115  27.460   4.601
88143W        W54552   3.706  26.732   0.358
88144W        W54553  30.058  28.840   3.912
88145W        W54554  18.117   7.789  14.120
88146W        W54555  38.617  43.871   2.821
88147W        W54556  10.472   1.325  13.092
88148W        W54557  39.478  13.644  11.793
88149W        W54558  12.663  31.400  14.295
88150W        W54559  18.738  15.636   4.553
88151W        W54560  26.661  15.321   4.477
88152W        W54561  10.878  23.668   4.228
88153W        W54562   2.368   7.245  12.442
88154W        W54563  21.724  21.814  13.824
88155W        W54564  33.418  15.216   3.493
88156W        W54565  23.350  39.885   4.459
88157W        W54566  41.338  26.746   4.051
88158W        W54567  17.250   0.730   4.941
88159W        W54568  43.029  15.294   1.327
88160W        W54569  16.404  40.125   0.821
88161W        W54570  14.135  16.849   2.635
88162W        W54571  24.486  14.083   1.735
88163W        W54572  40.457  35.331   4.250
88164W        W54573   7.103  16.391  14.274
88165W        W54574   0.544  18.005   2.390
88166W        W54575  43.956  43.857  14.339
88167W        W54576  10.413  29.131   4.301
88168W        W54577  26.661  20.123   4.519
88169W        W54578  26.477  19.765   0.453
88170W        W54579   7.151  20.478   1.399
88171W        W54580  23.240  37.947   0.913
88172W        W54581  19.053  27.966  14.817
88173W        W54582  21.797  22.601  14.525
88174W        W54583  15.754  14.102   3.544
88175W        W54584  39.063  28.624  14.795
88176W        W54585  24.300  22.695   3.258
88177W        W54586  33.829  24.640   0.771
88178W        W54587  33.134  16.002   3.012
88179W        W54588  37.928  30.107   4.708
88180W        W54589  14.205  20.423   9.863
88181W        W54590   5.248  41.032  14.033
88182W        W54591  32.159  19.971  14.751
88183W        W54592  32.017  34.591  11.624
88184W        W54593  18.641  16.529   4.347
88185W        W54594   7.606  20.722  12.885
88186W        W54595  10.566  15.767  11.509
88187W        W54596  35.392  19.341  11.050
88188W        W54597  19.726  12.262  12.881
88189W        W54598  10.706  25.553   4.580
88190W        W54599  44.059   1.783  12.523
88191W        W54600  21.987  19.046   0.466
88192W        W54601   9.736  12.987  11.929
88193W        W54602   6.237  16.816  12.528
88194W        W54603  18.338  35.068   3.233
88195W        W54604   0.342  26.189  12.827
88196W        W54605  11.288  31.757  11.319
88197W        W54606  28.168   7.396   1.432
88198W        W54607   0.878   8.326  14.798
88199W        W54608  14.417  26.619   3.320
88200W        W54609  18.073   3.554   1.126
88201W        W54610  12.213  10.174  13.032
88202W        W54611  25.516  40.389   3.373
88203W        W54612  41.819  24.480  13.951
88204W        W54613   7.349  41.220  14.437
88205W        W54614  38.232  27.163  14.385
88206W        W54615  21.991   5.923   1.282
88207W        W54616  44.501  22.868   0.773
88208W        W54617  38.477  36.300   4.189
88209W        W54618  29.857  20.651  13.186
88210W        W54619  16.703   4.345  14.218
88211W        W54620  17.783  11.128  14.305
88212W        W54621  22.256  15.851   1.222
88213W        W54622  17.195  44.761   2.251
88214W        W54623  14.178   6.992  10.246
88215W        W54624  40.991  30.572   4.514
88216W        W54625   3.813  25.414  11.908
88217W        W54626  28.501  35.887   1.786
88218W        W54627   7.195  23.176   4.541
88219W        W54628  18.234  19.429   1.735
88220W        W54629  15.529  35.438   0.511
88221W        W54630  30.515  18.064   4.889
88222W        W54631  23.581  15.675   2.854
88223W        W54632  23.131   1.015   4.711
88224W        W54633  25.097   1.878   1.398
88225W        W54634  20.813  15.862   2.674
88226W        W54635  39.047  36.548  14.425
88227W        W54636  24.700   8.515  13.577
88228W        W54637  12.616  12.800   1.760
88229W        W54638   1.691   3.918  12.422
88230W        W54639  38.917   0.050  10.698
88231W        W54640  17.638  41.898   0.772
88232W        W54641  16.017   0.512   1.945
88233W        W54642  30.142  44.459  13.968
88234W        W54643  35.535   2.810   3.383
88235W        W54644  42.283  37.826  11.937
88236W        W54645  12.947  26.581   4.520
88237W        W54646  42.746   2.262  12.917
88238W        W54647  10.756  41.887   1.881
88239W        W54648  14.534  24.950   5.056
88240W        W54649   1.517  18.139   4.138
88241W        W54650  44.259  33.066   0.985
88242W        W54651   9.128  33.618  12.388
88243W        W54652  14.293  40.838   2.340
88244W        W54653   0.800  13.300   3.091
88245W        W54654  43.112  12.911   4.928
88246W        W54655  44.789  26.045   2.255
88247W        W54656   3.336  29.325  13.153
88248W        W54657  21.558  22.226  12.868
88249W        W54658  44.264  36.839  11.138
88250W        W54659   3.495  17.333  14.712
88251W        W54660  33.592   0.452  14.434
88252W        W54661  22.248  36.285  14.250
88253W        W54662  34.649   0.438  13.937
88254W        W54663  16.592  27.824   0.278
88255W        W54664  19.190   0.074   4.542
88256W        W54665  13.470  25.464   3.764
88257W        W54666  37.090  35.441  13.489
88258W        W54667  22.555   8.826  13.884
88259W        W54668  38.465  18.523  11.985
88260W        W54669  38.789   6.125  10.198
88261W        W54670  12.233  37.471  14.802
88262W        W54671  25.210  28.525   1.783
88263W        W54672  31.555   7.867   3.731
88264W        W54673  10.421  18.755  11.451
88265W        W54674  21.122  25.435   0.838
88266W        W54675  18.886   6.657   0.787
88267W        W54676  18.324  42.368  11.139
88268W        W54677  20.130  32.612  10.745
88269W        W54678   8.921  38.707  11.937
88270W        W54679   2.845  41.374  13.898
88271W        W54680  23.985  26.282   2.327
88272W        W54681  25.721   3.969  14.363
88273W        W54682  44.483  37.885  13.363
88274W        W54683  34.285   6.963  11.781
88275W        W54684  44.476  42.260   0.425
88276W        W54685  44.482  25.259  10.056
88277W        W54686   3.391  40.050   1.656
88278W        W54687  44.679  31.057  10.767
88279W        W54688  32.029  40.563  11.208
88280W        W54689  29.451  15.194  12.392
88281W        W54690  41.468  21.502   1.246
88282W        W54691   5.223   9.775  10.783
88283W        W54692  36.902  34.931  11.342
88284W        W54693  27.394  32.466  13.892
88285W        W54694  14.071   8.736   2.118
88286W        W54695  35.610  18.595   1.741
88287W        W54696  26.012  35.293  14.036
88288W        W54697  41.338  28.407  10.509
88289W        W54698   1.546  43.464  14.007
88290W        W54699  14.223  44.891  14.752
88291W        W54700   6.753  43.826   2.357
88292W        W54701   9.617   3.949   0.234
88293W        W54702  12.331   1.236   3.582
88294W        W54703  22.769  32.373  13.074
88295W        W54704   8.344  37.601  14.373
88296W        W54705  31.171  30.936  14.973
88297W        W54706  28.715   0.765  14.812
88298W        W54707  27.247  43.133  11.109
88299W        W54708  23.153   2.706  10.840
88300W        W54709  19.807  27.619  11.270
88301W        W54710   1.643  22.730  12.361
88302W        W54711  33.416  38.930  12.384
88303W        W54712   7.228  33.945  10.290
88304W        W54713  20.122  14.674   4.725
88305W        W54714  28.972  13.071   4.670
88306W        W54715   7.796   0.902   5.018
88307W        W54716  23.194  33.138   2.835
88308W        W54717  37.321  38.963  14.787
88309W        W54718  20.490  16.533   1.600
88310W        W54719  30.533   7.759  10.859
88311W        W54720   4.740   2.272   4.605
88312W        W54721  23.195  21.183  13.810
88313W        W54722  12.256  35.522   2.768
88314W        W54723   6.776  18.300   1.263
88315W        W54724  27.198   0.806  14.865
88316W        W54725  33.549  12.627   0.591
88317W        W54726  42.934  20.944   2.354
88318W        W54727   7.113  43.600   4.476
88319W        W54728  28.987  14.682   5.000
88320W        W54729  25.201  33.082  12.081
88321W        W54730  27.565  35.821   1.678
88322W        W54731   1.257  33.869   3.920
88323W        W54732  40.421  40.446   0.777
88324W        W54733  35.502   1.451   2.055
88325W        W54734  18.851  34.668  11.023
88326W        W54735  19.766  11.829   0.792
88327W        W54736  11.040  29.645  11.583
88328W        W54737  24.543   7.816   3.546
88329W        W54738  42.943  27.639   2.264
88330W        W54739  39.976  32.099   1.221
88331W        W54740  29.626  29.925  10.958
88332W        W54741   7.466  20.198  14.016
88333W        W54742  31.941   0.215   5.063
88334W        W54743   9.689   3.380  11.607
88335W        W54744  33.001   1.766  10.438
88336W        W54745  23.613  14.262  12.687
88337W        W54746   7.840  16.974   1.473
88338W        W54747  18.060   3.909   4.019
88339W        W54748   9.705   3.700   2.394
88340W        W54749  28.368  26.203  11.118
88341W        W54750   4.257  12.401  10.577
88342W        W54751  36.340  11.786   4.914
88343W        W54752  27.932   8.197  14.585
88344W        W54753  44.432  16.544  10.604
88345W        W54754  24.119  10.609  14.269
88346W        W54755  12.209  21.568   4.247
88347W        W54756  14.279  10.306  11.550
88348W        W54757  17.696  10.908   2.639
88349W        W54758  35.090  39.067  11.589
88350W        W54759  38.540  36.483   2.387
88351W        W54760  24.280  18.857  12.007
88352W        W54761  10.225  10.949  13.979
88353W        W54762  28.502  40.409  14.522
88354W        W54763  41.556  31.323   2.802
88355W        W54764  14.302  34.954  12.098
88356W        W54765   6.554  26.158  10.257
88357W        W54766  44.441  28.166   4.551
88358W        W54767  22.667  13.020   0.026
88359W        W54768   8.641   0.564  10.344
88360W        W54769  20.267  31.035  11.526
88361W        W54770  42.259  12.864   0.506
88362W        W54771   0.805  21.153   0.409
88363W        W54772   1.727  36.784  12.728
88364W        W54773  23.913  16.384  12.048
88365W        W54774  34.881  42.847   3.172
88366W        W54775  13.514  13.286   4.539
88367W        W54776  15.640  22.068   4.373
88368W        W54777  36.780   1.833   1.441
88369W        W54778  32.208  11.255  13.357
88370W        W54779  19.563  27.051   4.893
88371W        W54780  32.160  14.730  14.303
88372W        W54781  28.263  30.208   4.378
88373W        W54782  41.695   8.705  10.294
88374W        W54783  30.930  34.263   3.725
88375W        W54784   2.079  12.884  13.408
88376W        W54785  43.383  43.692  13.543
88377W        W54786   0.473  30.945   2.810
88378W        W54787  11.609  40.382   1.383
88379W        W54788  37.209   7.701  14.819
88380W        W54789  38.833  24.473   1.333
88381W        W54790  29.971  14.952  10.724
88382W        W54791  25.201  13.783  12.429
88383W        W54792  29.474   7.193  14.762
88384W        W54793  27.382   1.440   0.209
88385W        W54794   9.566   9.847   1.585
88386W        W54795   0.045  16.553   2.964
88387W        W54796  24.674   6.864  13.929
88388W        W54797   5.400  39.016  13.034
88389W        W54798  22.657  35.311   0.583
88390W        W54799  17.239  44.235  14.399
88391W        W54800  29.008  28.057   3.871
88392W        W54801  35.933   0.684   1.759
88393W        W54802  35.080   8.277  13.220
88394W        W54803  23.044  25.804   2.441
88395W        W54804  13.646  32.669   2.783
88396W        W54805   6.190  29.722  14.025
88397W        W54806  26.199  28.084   2.465
88398W        W54807   8.178   2.634   4.588
88399W        W54808  38.852  23.078   0.388
88400W        W54809  12.034   2.606   2.678
88401W        W54810  32.050  23.116   1.762
88402W        W54811  43.230  11.926   0.253
88403W        W54812   0.455  20.473  13.778
88404W        W54813  13.706  38.302  11.138
88405W        W54814  34.601  41.446   0.946
88406W        W54815  38.299  43.332  13.458
88407W        W54816  28.751  19.585   4.905
88408W        W54817   8.595  13.192   3.724
88409W        W54818  21.894  25.052   0.577
88410W        W54819  23.214  21.718  13.851
88411W        W54820  19.802  43.752  12.659
88412W        W54821  31.968  14.642   4.315
88413W        W54822  13.792   7.981   0.475
88414W        W54823  16.017  44.765  12.430
88415W        W54824  18.824  31.363  11.541
88416W        W54825  30.975   4.606  11.374
88417W        W54826  41.429  28.281  11.898
88418W        W54827  23.540   9.917   3.275
88419W        W54828  22.171  16.122   0.338
88420W        W54829  38.776  13.588   1.929
88421W        W54830   9.649   2.358  13.419
88422W        W54831   9.786  42.376  11.433
88423W        W54832  38.962  38.857   1.336
88424W        W54833  11.793  19.706   4.343
88425W        W54834  44.555  10.315  11.522
88426W        W54835  39.404   8.415  10.608
88427W        W54836  22.041  27.214   4.448
88428W        W54837  41.301  13.879  13.324
88429W        W54838   9.751   7.085   1.685
88430W        W54839  13.572  13.664   3.145
88431W        W54840  10.673  17.830   0.084
88432W        W54841  44.280  33.514  13.529
88433W        W54842  30.389  18.073   1.350
88434W        W54843  29.809  19.885   1.505
88435W        W54844  36.372  22.015   0.268
88436W        W54845  18.100   2.857   1.757
88437W        W54846   8.579  17.079   3.658
88438W        W54847   4.689  13.431  12.527
88439W        W54848  25.642  42.830   1.825
88440W        W54849  18.125  34.373  13.427
88441W        W54850   4.298   2.539   1.773
88442W        W54851   4.021   3.886   3.722
88443W        W54852  16.254  32.695  14.471
88444W        W54853  35.362  29.064  13.376
88445W        W54854  12.876  22.617   1.826
88446W        W54855  36.610  16.006   0.763
88447W        W54856  22.634  21.581  12.378
88448W        W54857  21.723  37.872   2.829
88449W        W54858   1.235   0.813  13.756
88450W        W54859   1.663  14.617   2.249
88451W        W54860  27.069  22.935  14.279
88452W        W54861  18.663   9.892   0.352
88453W        W54862  18.308  19.275   0.385
88454W        W54863  28.721   6.746  11.738
88455W        W54864  31.039  27.434  12.629
88456W        W54865  30.745  43.840  13.401
88457W        W54866  22.254  34.943   0.472
88458W        W54867  44.426  14.647  12.366
88459W        W54868  17.262  38.498  10.247
88460W        W54869  18.736  34.458  12.371
88461W        W54870  13.859  23.538  13.857
88462W        W54871   1.311   6.708   4.062
88463W        W54872  25.315  11.397  11.429
88464W        W54873   1.991  22.005   3.863
88465W        W54874  18.678  36.284  12.882
88466W        W54875  17.709  24.709  14.069
88467W        W54876   5.660  37.363   2.108
88468W        W54877  29.066  12.855  11.864
88469W        W54878  21.952  26.057   3.666
88470W        W54879   6.466  12.480   3.228
88471W        W54880   3.561  17.321   0.908
88472W        W54881   7.745  32.192   3.234
88473W        W54882   5.337  13.681  13.604
88474W        W54883  28.942  44.363  11.675
88475W        W54884  24.480  31.909   0.655
88476W        W54885   9.095  15.628  11.525
88477W        W54886  38.740  37.513   4.057
88478W        W54887   3.503  16.930  13.360
88479W        W54888  11.886  21.656   2.382
88480W        W54889  12.402  19.090   3.944
88481W        W54890  24.578  38.576   0.797
88482W        W54891  30.131  12.890  11.672
88483W        W54892   4.455   3.993  11.636
88484W        W54893  25.185  16.811   4.719
88485W        W54894  31.615  17.088  10.508
88486W        W54895  12.486  25.202   3.621
88487W        W54896   1.315  15.583   3.737
88488W        W54897   2.167  22.234   2.845
88489W        W54898  30.054  20.245   0.930
88490W        W54899  35.699  32.008   4.385
88491W        W54900  10.375  23.618  10.238
88492W        W54901  14.145  31.581   4.063
88493W        W54902   9.376   2.991  12.444
88494W        W54903   2.689  24.409   0.600
88495W        W54904  16.249   9.442   2.227
88496W        W54905  10.540  14.353   1.668
88497W        W54906   6.859  34.003  13.202
88498W        W54907  29.506  20.167   3.625
88499W        W54908   0.231  31.631   3.386
88500W        W54909  20.514  35.524   2.472
88501W        W54910   5.686  28.748  13.481
88502W        W54911  19.780  12.173  11.169
88503W        W54912  27.982  31.372  10.904
88504W        W54913  16.825  26.366   0.855
88505W        W54914  12.232  43.788   0.431
88506W        W54915   6.613  14.914   2.196
88507W        W54916   4.165  23.478  14.306
88508W        W54917  12.325  22.202  10.816
88509W        W54918  21.338  16.582  14.891
88510W        W54919  22.368  30.449   4.108
88511W        W54920  44.009  19.057  14.629
88512W        W54921  23.155  44.942  11.041
88513W        W54922  22.415   9.971   0.115
88514W        W54923  29.053  38.595   0.878
88515W        W54924  32.424  40.035  10.634
88516W        W54925  42.827  13.163  14.397
88517W        W54926  12.825  33.249   2.747
88518W        W54927  15.655  32.368  12.872
88519W        W54928  38.317  19.792  10.636
88520W        W54929  28.282  26.379   1.303
88521W        W54930  13.615  29.593  10.495
88522W        W54931  38.468  32.787  12.906
88523W        W54932  32.519  17.083   4.476
88524W        W54933   3.763  40.470   4.782
88525W        W54934  13.375  33.469   1.940
88526W        W54935  18.328   9.793   4.872
88527W        W54936  10.468  28.965  11.888
88528W        W54937  32.452  10.728   4.175
88529W        W54938   0.858  36.353   4.192
88530W        W54939  18.611   3.912  12.124
88531W        W54940   9.692  44.975   2.847
88532W        W54941   2.389   3.841  14.065
88533W        W54942  13.566   9.366   4.191
88534W        W54943   3.858  41.141   0.701
88535W        W54944  23.982   8.437   0.752
88536W        W54945  25.126  31.538   1.357
88537W        W54946  36.525  13.291  11.984
88538W        W54947  26.860  43.049   1.295
88539W        W54948   4.719  17.004  11.027
88540W        W54949  17.141   2.022   0.700
88541W        W54950   8.621  17.063  12.822
88542W        W54951   6.864  28.166  10.525
88543W        W54952  23.778   0.072   3.125
88544W        W54953  38.218  36.590   0.725
88545W        W54954  10.391   6.017   0.743
88546W        W54955  27.732  27.271   0.813
88547W        W54956  36.555  14.675  14.510
88548W        W54957  34.088  23.814   0.676
88549W        W54958  10.613  41.331   4.134
88550W        W54959  18.268  40.044   2.650
88551W        W54960  39.985  35.035  14.885
88552W        W54961  32.145  25.519  13.344
88553W        W54962  12.086  31.433  14.351
88554W        W54963  37.275  32.211   3.838
88555W        W54964  36.008  18.671   1.404
88556W        W54965  37.364  37.403  12.160
88557W        W54966   1.756   2.350   2.107
88558W        W54967  33.703  37.881   2.687
88559W        W54968  13.098  33.194   3.261
88560W        W54969  36.062  38.607  12.965
88561W        W54970  10.075  34.741   5.102
88562W        W54971  42.749  27.692  12.375
88563W        W54972  15.822  22.981   3.328
88564W        W54973   4.611   6.305   4.548
88565W        W54974  42.339  19.583   1.344
88566W        W54975  24.579  42.882   0.548
88567W        W54976  16.598  24.991   2.858
88568W        W54977  33.481  41.268   3.368
88569W        W54978   0.250  15.178  14.809
88570W        W54979   1.728  21.767   0.748
88571W        W54980  10.258   9.014   4.478
88572W        W54981  38.332   4.414   2.407
88573W        W54982  23.426   3.588   0.939
88574W        W54983  39.619  29.730  12.579
88575W        W54984  24.524   1.429   0.658
88576W        W54985   0.383  28.074  10.640
88577W        W54986  28.010   1.892   4.451
88578W        W54987  19.021   8.303  11.875
88579W        W54988  20.339  43.022  12.915
88580W        W54989  14.777   4.909   4.177
88581W        W54990   6.402  31.407  10.775
88582W        W54991  31.723  12.113   0.906
88583W        W54992  16.361  40.262   4.009
88584W        W54993  24.495  10.869  10.858
88585W        W54994   0.006  32.469  12.136
88586W        W54995   1.801  28.584   0.418
88587W        W54996  35.761   2.712   0.904
88588W        W54997  13.642   1.740   0.967
88589W        W54998  12.768   1.796   1.238
88590W        W54999  39.284  16.856  14.995
88591W        W55000   0.815  30.001   2.757
88592W        W55001  19.595  17.723   4.677
88593W        W55002   4.625  38.751   0.951
88594W        W55003  38.718  11.774   2.737
88595W        W55004   6.867  39.773  12.936
88596W        W55005  30.301  39.867   3.612
88597W        W55006  40.857  31.879   0.700
88598W        W55007   0.014  40.058   3.776
88599W        W55008  43.165   6.761  14.906
88600W        W55009  26.428   1.029  14.374
88601W        W55010  41.270  38.532   0.781
88602W        W55011   2.815  36.429  12.496
88603W        W55012  38.425  27.493   0.201
88604W        W55013  11.941  19.958  10.941
88605W        W55014   2.174  26.124   0.138
88606W        W55015  32.540   3.728  13.854
88607W        W55016   0.885  44.802   4.735
88608W        W55017   8.292  18.054   0.337
88609W        W55018  26.122   3.740   1.655
88610W        W55019  28.872  23.583  14.794
88611W        W55020  24.536  44.983  10.756
88612W        W55021  40.101  24.934  14.683
88613W        W55022  32.933  11.858   2.352
88614W        W55023  20.626  42.878   0.032
88615W        W55024  44.126  32.691   1.313
88616W        W55025   8.667  32.972   0.908
88617W        W55026  25.078  12.781  14.399
88618W        W55027   7.776  18.681   1.310
88619W        W55028  21.671  17.240  11.471
88620W        W55029  44.167  12.154   0.369
88621W        W55030  19.989  33.113   1.293
88622W        W55031  21.694  31.738   2.265
88623W        W55032   3.292  38.919   4.940
88624W        W55033  25.035   9.799   2.270
88625W        W55034  14.197  25.797  14.818
88626W        W55035  18.804  41.560  11.173
88627W        W55036  25.248  33.433   0.068
88628W        W55037   6.916  11.133  11.427
88629W        W55038  40.066   0.376   4.733
88630W        W55039  29.047  17.154   4.717
88631W        W55040  15.378  12.505   1.702
88632W        W55041  18.616  41.219  14.914
88633W        W55042  13.788  24.355  14.752
88634W        W55043  12.408   3.971   1.745
88635W        W55044   1.063  13.446   1.944
88636W        W55045   7.310  24.783   0.834
88637W        W55046   7.698   2.007   4.183
88638W        W55047  42.385  33.960   1.504
88639W        W55048  42.168  32.501  12.308
88640W        W55049  12.300   6.901  11.063
88641W        W55050  16.619   8.421   3.203
88642W        W55051   6.154  15.166   2.359
88643W        W55052  31.982  28.488   3.602
88644W        W55053  28.428  39.326   1.722
88645W        W55054  17.370  16.117   4.622
88646W        W55055  17.731  19.611   2.403
88647W        W55056   5.029  44.232  10.250
88648W        W55057  14.913  19.488   1.376
88649W        W55058   7.283  23.436  11.543
88650W        W55059  29.955  15.335   0.390
88651W        W55060  41.097  39.615   1.491
88652W        W55061   6.170  35.732  11.111
88653W        W55062  16.025  33.553  11.989
88654W        W55063   1.351  39.948   2.210
88655W        W55064  27.579  18.289  14.339
88656W        W55065  10.844  33.829  13.322
88657W        W55066  35.090   0.847   0.433
88658W        W55067  15.711  16.601   2.832
88659W        W55068  40.740  44.407   3.271
88660W        W55069  22.013  14.124  11.916
88661W        W55070  40.477  21.798  12.329
88662W        W55071  38.575   3.252  14.364
88663W        W55072  20.030  38.563   4.185
88664W        W55073  20.515  26.685  13.911
88665W        W55074  42.011  44.392   0.302
88666W        W55075  33.617  18.177   5.109
88667W        W55076  37.866  11.773   2.385
88668W        W55077  28.731   7.010  12.860
88669W        W55078  33.943  12.171   1.384
88670W        W55079  23.775  26.145  11.049
88671W        W55080  14.625  16.816  14.489
88672W        W55081  26.832   4.801  12.682
88673W        W55082  13.318   1.464   2.800
88674W        W55083  40.789  26.890  11.915
88675W        W55084  25.633  27.558  13.626
88676W        W55085  13.749  25.186   0.427
88677W        W55086  21.658  11.787   2.308
88678W        W55087  29.565  29.098   4.145
88679W        W55088  31.006  12.246   4.503
88680W        W55089  39.348  36.358  10.751
88681W        W55090  25.888   0.922   0.799
88682W        W55091  24.480  41.970   1.641
88683W        W55092  11.677  26.575   3.233
88684W        W55093  38.714   0.571  14.232
88685W        W55094  14.294  43.001   3.107
88686W        W55095  44.258  15.418  14.370
88687W        W55096  41.260  11.578  11.556
88688W        W55097  25.520   9.637   2.274
88689W        W55098   6.209  13.785   1.450
88690W        W55099  17.130  10.196  10.566
88691W        W55100  10.247   1.781   2.781
88692W        W55101  30.686  22.205  13.461
88693W        W55102  28.268   4.810  14.816
88694W        W55103  15.872  13.217   3.714
88695W        W55104  13.600   1.735  14.288
88696W        W55105   1.978   4.232   2.146
88697W        W55106   7.002  23.009  11.658
88698W        W55107  35.061  16.208   3.074
88699W        W55108  36.616  13.579  12.760
88700W        W55109  10.737  31.161  14.010
88701W        W55110   1.432   2.941  11.571
88702W        W55111   0.898  35.575  13.861
88703W        W55112  23.686  17.934   3.130
88704W        W55113  29.987   4.574   0.286
88705W        W55114  15.796  25.988  11.652
88706W        W55115  25.608   8.138   2.727
88707W        W55116  33.246  37.731   2.859
88708W        W55117  40.257  27.400   0.777
88709W        W55118  12.703   2.481   2.813
88710W        W55119  35.342  26.137   4.551
88711W        W55120  42.343   9.413   1.664
88712W        W55121  25.169  15.723   1.756
88713W        W55122  25.516  15.176  11.638
88714W        W55123   8.848   8.120  12.098
88715W        W55124  28.667  10.950  11.516
88716W        W55125   0.709   8.011   3.130
88717W        W55126  34.503  37.661  13.086
88718W        W55127  19.704   8.107  11.497
88719W        W55128  43.312  19.570   4.080
88720W        W55129  36.654  43.233   3.656
88721W        W55130  18.471  28.396  11.003
88722W        W55131  42.895  29.536  10.778
88723W        W55132  29.224  14.195   4.978
88724W        W55133  29.421   0.780  12.857
88725W        W55134  31.463   3.331   1.878
88726W        W55135   5.901   2.631  11.839
88727W        W55136   4.785  18.186  13.076
88728W        W55137  19.003  38.787  11.465
88729W        W55138  20.214  42.876   2.183
88730W        W55139  42.900  37.533   3.965
88731W        W55140  25.504   4.604  14.929
88732W        W55141   9.853   9.741  11.430
88733W        W55142   7.170  23.064  13.817
88734W        W55143  22.579  28.589  10.727
88735W        W55144  31.599  29.709   0.519
88736W        W55145  25.986  21.181  14.782
88737W        W55146  30.636  29.407  12.009
88738W        W55147  44.895  42.554   1.189
88739W        W55148  42.029  38.822  14.102
88740W        W55149   6.349   8.704   1.799
88741W        W55150  41.378  14.335   4.135
88742W        W55151  12.327   3.303   0.537
88743W        W55152  19.275  12.359   1.423
88744W        W55153   0.685  35.597   2.181
88745W        W55154  42.450  30.954  13.993
88746W        W55155  23.622  16.815  12.030
88747W        W55156  37.242  38.600   4.675
88748W        W55157  43.328  16.066   3.635
88749W        W55158  22.554   4.681   5.313
88750W        W55159   8.242  17.321  13.842
88751W        W55160   5.688  36.871  13.495
88752W        W55161  18.583  29.003   1.206
88753W        W55162  16.323   6.383   0.366
88754W        W55163  24.113  31.142  14.009
88755W        W55164  11.128   8.726  12.068
88756W        W55165   4.528   4.781  13.696
88757W        W55166  33.605   7.716  14.402
88758W        W55167  23.703  13.859  14.919
88759W        W55168  21.949  43.833  14.379
88760W        W55169  39.009  38.349   4.635
88761W        W55170  28.468  26.110  14.468
88762W        W55171  13.760  26.487  13.573
88763W        W55172  37.478   5.157  14.307
88764W        W55173   9.410  30.413   4.988
88765W        W55174  43.425  43.465   4.755
88766W        W55175  16.231  36.873   2.251
88767W        W55176  34.144  29.298   1.395
88768W        W55177  35.465   3.974  11.188
88769W        W55178  18.200  17.157  11.734
88770W        W55179   3.639  44.968  12.928
88771W        W55180  17.311  43.366   1.362
88772W        W55181  33.455  23.352   1.896
88773W        W55182   2.298  32.737   1.166
88774W        W55183  20.553  35.106  11.535
88775W        W55184  39.345  40.768  11.110
88776W        W55185  13.731  25.745   0.479
88777W        W55186  36.104  22.931  10.588
88778W        W55187   3.002   6.318  14.935
88779W        W55188   5.189  21.027  14.835
88780W        W55189  30.350  14.824   0.528
88781W        W55190  10.845  43.474   0.814
88782W        W55191  37.048  24.555   3.146
88783W        W55192  10.761   2.025  13.423
88784W        W55193   7.077  23.923  12.377
88785W        W55194  42.436  30.123  14.785
88786W        W55195  17.376  39.609  11.490
88787W        W55196   5.473   4.192  14.756
88788W        W55197  40.254  42.657   0.946
88789W        W55198   4.793   5.728  11.614
88790W        W55199  20.797   5.732  10.463
88791W        W55200  41.261  20.640   1.223
88792W        W55201   0.344   2.578   4.102
88793W        W55202  28.545   1.197   2.779
88794W        W55203  23.431  44.394   2.437
88795W        W55204  23.810  43.767   3.200
88796W        W55205  20.626  13.343   3.545
88797W        W55206  35.081  29.360   2.366
88798W        W55207  37.853  42.467   2.534
88799W        W55208   4.871  24.498   3.799
88800W        W55209   1.309  18.119   4.658
88801W        W55210  24.606  15.581  12.632
88802W        W55211  20.527  28.469   1.178
88803W        W55212  16.409  29.598  13.682
88804W        W55213  12.300  31.441  13.873
88805W        W55214  26.051  18.747   2.594
88806W        W55215  34.546  17.190   3.084
88807W        W55216  21.957  20.413  12.909
88808W        W55217  40.279  19.814   4.359
88809W        W55218  43.717  38.778   0.409
88810W        W55219  40.420  36.950  10.636
88811W        W55220  40.441  18.786  11.676
88812W        W55221  38.983  13.996   1.214
88813W        W55222  23.639  44.743   2.763
88814W        W55223  23.585  29.825   2.714
88815W        W55224   4.518  15.200  12.330
88816W        W55225  14.530  10.560  14.790
88817W        W55226  25.017  43.432  14.996
88818W        W55227  38.390   6.318  14.783
88819W        W55228  26.937  38.536   2.223
88820W        W55229  42.822  24.667   4.328
88821W        W55230  36.369  34.072  13.235
88822W        W55231  19.583  29.292   4.870
88823W        W55232  25.993  20.089   4.779
88824W        W55233  32.594  18.066  14.615
88825W        W55234  29.968  21.201  14.406
88826W        W55235  17.761  23.927   0.549
88827W        W55236  30.554  26.230   4.527
88828W        W55237   7.406  10.210   0.924
88829W        W55238  40.648  10.452   4.252
88830W        W55239   6.679  15.387   1.983
88831W        W55240  15.853  11.139   1.192
88832W        W55241  22.198  39.351  14.973
88833W        W55242  24.131   8.585   9.858
88834W        W55243  41.807   8.338   0.935
88835W        W55244   8.680  28.100   3.176
88836W        W55245   6.272   4.900   1.549
88837W        W55246  27.519  12.914  11.125
88838W        W55247  40.620  18.957   1.262
88839W        W55248   0.899  43.450  12.243
88840W        W55249   7.459  26.728   3.696
88841W        W55250  31.072   6.014   3.323
88842W        W55251  14.674  38.546   0.343
88843W        W55252  26.569  16.015  12.967
88844W        W55253  40.502  43.939  11.564
88845W        W55254   2.686  39.155  13.225
88846W        W55255   5.246  30.539   0.419
88847W        W55256  36.912   8.237  14.018
88848W        W55257  27.619  34.779   4.635
88849W        W55258  27.420   0.387   4.177
88850W        W55259  35.824  44.395  13.546
88851W        W55260   8.179  15.057  12.537
88852W        W55261  31.667  39.310  11.911
88853W        W55262  42.391  37.396   9.932
88854W        W55263  32.432  43.061   4.522
88855W        W55264  42.111  21.317  10.693
88856W        W55265   7.638  22.516  12.922
88857W        W55266   0.813  25.537   1.746
88858W        W55267  35.921  25.483  14.416
88859W        W55268  28.473   4.349   1.745
88860W        W55269  15.870   8.296   2.928
88861W        W55270  42.774   5.276  13.623
88862W        W55271   2.606  38.348   0.465
88863W        W55272  17.295  26.440  12.647
88864W        W55273  35.513  18.141   2.569
88865W        W55274  35.409   8.657  11.116
88866W        W55275  32.036   8.798   3.313
88867W        W55276  10.189  18.014  14.910
88868W        W55277  26.365  20.631  14.025
88869W        W55278   8.686  17.197   1.651
88870W        W55279  33.839  16.204   2.156
88871W        W55280  11.932  35.848   1.288
88872W        W55281   3.674  27.804   3.232
88873W        W55282  21.660   2.287   5.056
88874W        W55283  21.522  35.551   4.709
88875W        W55284  34.692  31.180  13.382
88876W        W55285  36.824  18.724   2.785
88877W        W55286  30.875  38.622  14.867
88878W        W55287   0.643  44.832  11.081
88879W        W55288  30.465  28.726  14.375
88880W        W55289  20.686  12.364  14.019
88881W        W55290   6.374  15.058  12.056
88882W        W55291  31.042  19.159  11.315
88883W        W55292   8.868  43.211  14.897
88884W        W55293  22.252   2.232  10.677
88885W        W55294  42.729  38.970   2.541
88886W        W55295  37.347  42.437   3.320
88887W        W55296  38.957  17.569  14.788
88888W        W55297  30.409  17.417  14.782
88889W        W55298  38.094   0.383   4.085
88890W        W55299  17.557  16.266  11.558
88891W        W55300  30.146  13.210   0.068
88892W        W55301  28.470  18.886  12.336
88893W        W55302  37.484  11.062   4.122
88894W        W55303  19.701  20.686   4.921
88895W        W55304  32.045   3.980   2.691
88896W        W55305  26.696  21.188  11.206
88897W        W55306  32.698   2.269   0.455
88898W        W55307   0.307  20.675   1.833
88899W        W55308  18.236  16.749   1.796
88900W        W55309  37.916  42.567  10.731
88901W        W55310   5.716  18.943  14.309
88902W        W55311  40.388  16.244   4.029
88903W        W55312   2.057  42.300  12.395
88904W        W55313  29.967   8.955  11.698
88905W        W55314  19.706  18.394   1.794
88906W        W55315   7.461  36.442   0.767
88907W        W55316   6.795  39.753   1.709
88908W        W55317   4.778  14.782  13.955
88909W        W55318   3.854  23.007  13.417
88910W        W55319   3.806   2.787   4.523
88911W        W55320  44.489   2.690  12.375
88912W        W55321  24.640   9.919  13.636
88913W        W55322  25.624   2.012   2.320
88914W        W55323  20.257  13.147  11.932
88915W        W55324  31.630   7.365   1.336
88916W        W55325  29.959   3.016   3.655
88917W        W55326  44.421  35.691  14.382
88918W        W55327  37.311  38.056  14.003
88919W        W55328  43.239   2.802   3.927
88920W        W55329  12.889   5.244   2.943
88921W        W55330  25.977  31.128  11.174
88922W        W55331  29.938   2.512  11.502
88923W        W55332   9.758  41.316  12.832
88924W        W55333   1.982  31.862  10.463
88925W        W55334  39.991  24.971   1.665
88926W        W55335  10.901  33.461  11.727
88927W        W55336  41.882   1.955   3.337
88928W        W55337   8.214  32.148   2.409
88929W        W55338  20.580  23.200  14.360
88930W        W55339  38.934  32.025  11.637
88931W        W55340   3.773  43.288   1.493
88932W        W55341  44.020  12.423   5.085
88933W        W55342  43.828  25.249  11.493
88934W        W55343  32.605  20.379   4.097
88935W        W55344   7.606   9.258   3.283
88936W        W55345   8.210   8.700   2.342
88937W        W55346   5.478  22.757  11.891
88938W        W55347  30.789   8.292   4.661
88939W        W55348  40.113  22.204  11.148
88940W        W55349  16.080  21.608  13.507
88941W        W55350  24.013  34.082  14.386
88942W        W55351  31.411  14.371   0.865
88943W        W55352  26.007  28.904   1.401
88944W        W55353  42.974  28.583   1.548
88945W        W55354  15.699  34.886  11.551
88946W        W55355  16.336  44.518   1.036
88947W        W55356  39.829  34.643   1.253
88948W        W55357  28.902  26.715  10.406
88949W        W55358  14.367  30.857   4.124
88950W        W55359  13.857   5.148   2.725
88951W        W55360  43.368   1.203   0.908
88952W        W55361  26.341   5.460  11.962
88953W        W55362   1.282  32.166  13.484
88954W        W55363  20.575  42.709   4.664
88955W        W55364   9.814  10.384  12.025
88956W        W55365  10.595  20.371  12.010
88957W        W55366   2.181  44.338  10.370
88958W        W55367  36.976   6.427   1.223
88959W        W55368  19.688  37.672   2.856
88960W        W55369  40.214  44.515  13.561
88961W        W55370  43.392   5.916  11.526
88962W        W55371  21.397  33.200  10.236
88963W        W55372   7.236  38.442  13.375
88964W        W55373  28.183  34.524  14.664
88965W        W55374  10.848  17.330  13.855
88966W        W55375  29.507  38.954  13.038
88967W        W55376   4.346   2.441  13.336
88968W        W55377  18.038  41.459   2.014
88969W        W55378  43.602  20.016   4.245
88970W        W55379  19.045   9.149  13.366
88971W        W55380   5.231   0.884   3.127
88972W        W55381  39.042  43.223   4.162
88973W        W55382   0.238  18.759  10.794
88974W        W55383  36.405  15.909  13.153
88975W        W55384  22.113  29.386  10.485
88976W        W55385   8.805  23.716  12.443
88977W        W55386  42.295  35.340   1.672
88978W        W55387  28.276  25.075   0.382
88979W        W55388  36.593  12.652   4.623
88980W        W55389  17.719   2.187   3.861
88981W        W55390  36.995  27.690  12.980
88982W        W55391  43.651  11.398  10.169
88983W        W55392  26.490  42.443   3.238
88984W        W55393   2.460  23.292   2.800
88985W        W55394  35.381  17.050   1.863
88986W        W55395  39.803  36.362  12.428
88987W        W55396  42.654  16.840   4.504
88988W        W55397   5.709   7.439  11.166
88989W        W55398  25.082   2.837   1.659
88990W        W55399  27.083  32.724  11.056
88991W        W55400  11.956  42.543  13.367
88992W        W55401  31.382  36.955  14.475
88993W        W55402  35.185  26.644  14.493
88994W        W55403  33.917  43.704   3.679
88995W        W55404  36.785   6.097   3.193
88996W        W55405  36.563  34.810   3.990
88997W        W55406  27.114  34.081   1.250
88998W        W55407  33.482  35.290  11.253
88999W        W55408  31.890  37.152   3.711
89000W        W55409  32.438  16.325  12.469
89001W        W55410   0.349   7.091  14.101
89002W        W55411   6.794  11.600   3.678
89003W        W55412  40.598   8.352   0.349
89004W        W55413  13.645  36.171  11.945
89005W        W55414  19.625  25.666   2.305
89006W        W55415  30.768   4.873   0.037
89007W        W55416   2.415   6.358  13.382
89008W        W55417  44.565  38.566   2.807
89009W        W55418  12.259  36.842  14.194
89010W        W55419  18.268  24.820  12.895
89011W        W55420  22.588  40.852   1.935
89012W        W55421  29.857   7.491  14.985
89013W        W55422  20.347  37.372  12.095
89014W        W55423  33.994  11.291  14.983
89015W        W55424  26.206  35.810   3.392
89016W        W55425  36.840  37.854   4.247
89017W        W55426  29.923  27.229  14.494
89018W        W55427   8.707  20.049  11.105
89019W        W55428  10.909  22.693  12.730
89020W        W55429   4.889  13.227   0.387
89021W        W55430  13.966  12.125  11.455
89022W        W55431  36.497  39.136  14.848
89023W        W55432  21.170  14.150   2.080
89024W        W55433   6.289   7.823   4.737
89025W        W55434   4.825   1.795   2.598
89026W        W55435  44.028  40.077  13.458
89027W        W55436  34.326  21.779  14.934
89028W        W55437   7.360   8.777   4.741
89029W        W55438   8.095  16.844  13.040
89030W        W55439  40.466  35.905   0.071
89031W        W55440  36.886  11.787   0.455
89032W        W55441   6.447  33.293   3.129
89033W        W55442   1.556   9.155   0.390
89034W        W55443  25.855  13.940  14.412
89035W        W55444  34.190  34.178  13.700
89036W        W55445   1.810   9.739   1.938
89037W        W55446  28.308  34.012  13.598
89038W        W55447  25.693  23.858   4.825
89039W        W55448  16.151  33.928  14.849
89040W        W55449  30.467  26.420  13.403
89041W        W55450   8.727  43.867  14.117
89042W        W55451  11.851   3.286   3.813
89043W        W55452  29.613  40.458  12.499
89044W        W55453  30.741  12.961  13.444
89045W        W55454   3.534  29.057  10.603
89046W        W55455   2.461  18.348   1.764
89047W        W55456  27.178  25.412   1.324
89048W        W55457  25.569  13.419  11.647
89049W        W55458   5.224  13.956  14.977
89050W        W55459  20.857  10.908   2.927
89051W        W55460   2.984  29.345  12.181
89052W        W55461  20.056  30.196   4.339
89053W        W55462  38.606  38.328   3.212
89054W        W55463  17.622   9.266   4.884
89055W        W55464  35.553   7.114  13.758
89056W        W55465  36.936  44.182   4.523
89057W        W55466  37.724  27.211  14.445
89058W        W55467  25.231  32.954  13.109
89059W        W55468  26.560  13.403  14.030
89060W        W55469  39.594  26.475  14.369
89061W        W55470  41.611  10.908  13.344
89062W        W55471  34.938  21.078   2.488
89063W        W55472  14.692  24.654  14.316
89064W        W55473  28.214  24.392   1.391
89065W        W55474  11.212  13.718   2.266
89066W        W55475  21.164  39.037  10.136
89067W        W55476   2.516  14.257   4.442
89068W        W55477  43.835  29.097   0.433
89069W        W55478   6.912  37.528   0.099
89070W        W55479  27.082  18.612  14.929
89071W        W55480  10.756  34.983   5.368
89072W        W55481  37.807  27.693   2.018
89073W        W55482  27.468  15.199   4.259
89074W        W55483  29.116  41.077  14.050
89075W        W55484  27.064  36.633   4.748
89076W        W55485  16.692   6.708  11.087
89077W        W55486   3.421  28.738   2.381
89078W        W55487  28.129  18.086  12.488
89079W        W55488   9.870  32.110   4.102
89080W        W55489  20.021  29.033  11.661
89081W        W55490  40.509  42.734  11.594
89082W        W55491  36.618  41.311   3.106
89083W        W55492   6.106   1.342  10.791
89084W        W55493   7.972   6.129   4.629
89085W        W55494   0.928  22.230   0.652
89086W        W55495  23.877   6.404  13.738
89087W        W55496  17.134  23.220  14.691
89088W        W55497  16.710  12.889   3.594
89089W        W55498   9.027  23.951   0.962
89090W        W55499  36.481  34.486   4.832
89091W        W55500   4.644  27.693  10.802
89092W        W55501  34.995   5.202   4.459
89093W        W55502  44.297  36.267   2.918
89094W        W55503  23.835  29.376   1.405
89095W        W55504  15.186  39.948  11.575
89096W        W55505  22.166  31.496  14.328
89097W        W55506  34.257  43.345  14.379
89098W        W55507  43.388  38.781   1.254
89099W        W55508  29.650  32.468   0.616
89100W        W55509  42.946  43.686  11.096
89101W        W55510  33.130  12.350   0.671
89102W        W55511  25.201  36.555   1.448
89103W        W55512  44.868  41.954   1.877
89104W        W55513   5.760  44.070   3.608
89105W        W55514  12.038  41.548   0.916
89106W        W55515  16.889  37.303   0.382
89107W        W55516  21.076   3.426   3.186
89108W        W55517  10.239  24.081  14.311
89109W        W55518   7.295  13.138  14.032
89110W        W55519   1.772   1.366  13.383
89111W        W55520   4.406  35.746  13.362
89112W        W55521  10.989  31.834   3.306
89113W        W55522  27.032  37.038   2.440
89114W        W55523  40.602  18.387   5.591
89115W        W55524  29.152  23.491   1.119
89116W        W55525  15.522  21.297   4.383
89117W        W55526  22.497  26.699   0.414
89118W        W55527  33.580  36.306   1.293
89119W        W55528  44.327  21.280   1.227
89120W        W55529  34.318  38.572  13.342
89121W        W55530  14.325  21.193  12.512
89122W        W55531  13.623  10.871   2.615
89123W        W55532  14.689  41.018   3.215
89124W        W55533  22.003   3.435  13.911
89125W        W55534  28.998  15.063   2.936
89126W        W55535  39.074  20.070   2.825
89127W        W55536  35.156   4.622   1.663
89128W        W55537  16.733   4.156   3.656
89129W        W55538   5.358  32.088  14.233
89130W        W55539  41.024  44.397  10.309
89131W        W55540  32.335  39.958   4.388
89132W        W55541  26.229  27.641  11.503
89133W        W55542  40.372  31.534  10.778
89134W        W55543  14.174  38.307  13.347
89135W        W55544  27.521  26.097   1.309
89136W        W55545  14.032  37.461  13.485
89137W        W55546  40.912   2.814  13.198
89138W        W55547  10.609  18.011   0.724
89139W        W55548  22.805  37.118  12.971
89140W        W55549  35.750  12.900   4.574
89141W        W55550  30.794   0.104  13.920
89142W        W55551  11.922   2.514  13.095
89143W        W55552  12.255  40.112  11.066
89144W        W55553  24.631  40.394  11.496
89145W        W55554  27.662   9.637  14.048
89146W        W55555  25.026  32.928  10.708
89147W        W55556  34.020  43.317  12.618
89148W        W55557  22.499  16.254   3.066
89149W        W55558  10.379  28.027  14.050
89150W        W55559   8.837   8.004  14.599
89151W        W55560  37.491  30.828   3.566
89152W        W55561  34.949  13.290  13.210
89153W        W55562  11.103   8.194  12.921
89154W        W55563  20.815   8.047  14.993
89155W        W55564  39.983  25.592  11.576
89156W        W55565  21.374  24.165  12.531
89157W        W55566  26.903   2.774  12.038
89158W        W55567  27.667   0.355  14.445
89159W        W55568  32.840  19.661  14.793
89160W        W55569  15.315   4.900   2.751
89161W        W55570  17.478  11.386   2.478
89162W        W55571  28.685  27.259   3.602
89163W        W55572  11.111  22.128  13.409
89164W        W55573  14.515  39.957  10.725
89165W        W55574  17.183   0.093  10.499
89166W        W55575   0.223  16.380   3.720
89167W        W55576  25.596  38.983   1.196
89168W        W55577  30.941  42.761   0.782
89169W        W55578  12.770   9.056  12.511
89170W        W55579  33.183  42.413   2.269
89171W        W55580  15.555  31.795  14.788
89172W        W55581  11.653  23.439   2.715
89173W        W55582  10.644   0.872  12.913
89174W        W55583  41.386  30.102  11.691
89175W        W55584  38.549  35.096  11.549
89176W        W55585  16.876  35.041  10.255
89177W        W55586  26.720  17.825   2.412
89178W        W55587  18.273  34.282  11.467
89179W        W55588  30.574  23.252   0.982
89180W        W55589  32.599   3.714   0.042
89181W        W55590  36.037  44.429  13.085
89182W        W55591  21.158  14.401   2.570
89183W        W55592  32.234  14.118   4.320
89184W        W55593  26.928   4.520  13.907
89185W        W55594  31.363  15.265  13.186
89186W        W55595  29.875  40.600   2.337
89187W        W55596  22.503  13.167  12.758
89188W        W55597  17.323   0.583  10.439
89189W        W55598  44.229  16.100   3.612
89190W        W55599  44.576  38.287  12.041
89191W        W55600  19.988  28.618  11.943
89192W        W55601   9.460  14.886   1.640
89193W        W55602  38.553  11.146   2.791
89194W        W55603  17.147  21.926   4.254
89195W        W55604  36.002  32.516   1.259
89196W        W55605  44.999  40.180  11.492
89197W        W55606  24.459  10.403  10.641
89198W        W55607   0.533   9.491   5.289
89199W        W55608  35.614  35.724   1.866
89200W        W55609  43.284  14.095   1.408
89201W        W55610   2.226  13.272   3.683
89202W        W55611  28.914  33.947  10.583
89203W        W55612   5.202  40.300   1.222
89204W        W55613  31.369  34.568  14.420
89205W        W55614  44.164  22.226  14.467
89206W        W55615  31.871  11.253   2.439
89207W        W55616  21.749  19.611  13.428
89208W        W55617   1.795  34.682   1.352
89209W        W55618  39.854  37.344   0.937
89210W        W55619  26.682   2.115  10.212
89211W        W55620   5.832   7.318   0.472
89212W        W55621  16.755   2.313  13.368
89213W        W55622  10.198  38.800   3.253
89214W        W55623  38.902  29.192   1.003
89215W        W55624  32.733  31.877   1.462
89216W        W55625  42.376   1.756   3.278
89217W        W55626  35.189  38.224   1.441
89218W        W55627  29.966  28.150   2.346
89219W        W55628  11.511   1.909  11.594
89220W        W55629   8.753   9.634  11.909
89221W        W55630   2.600  39.273   4.277
89222W        W55631  25.559  15.068   3.145
89223W        W55632  15.212  22.615   3.721
89224W        W55633   6.431   5.935   3.682
89225W        W55634  12.306   1.910   1.495
89226W        W55635  32.596  36.350   3.733
89227W        W55636  10.545   5.435  12.078
89228W        W55637  16.195  23.638   0.251
89229W        W55638   2.666   5.370  14.811
89230W        W55639  15.279  13.054  12.362
89231W        W55640  26.057   5.080   3.919
89232W        W55641   6.594   7.167   2.887
89233W        W55642  11.200  14.759  14.887
89234W        W55643  33.075  36.525  13.973
89235W        W55644   2.427  41.988  14.513
89236W        W55645  12.340  17.319   3.734
89237W        W55646  29.954   3.899   1.703
89238W        W55647  35.017  10.175   0.194
89239W        W55648  18.530  38.608  13.051
89240W        W55649   2.668  15.040   0.714
89241W        W55650  29.814   2.503   3.099
89242W        W55651  43.771  11.461  13.325
89243W        W55652   3.722  22.586  12.329
89244W        W55653  34.574  20.609   3.299
89245W        W55654   7.932  18.650  11.706
89246W        W55655  10.588  29.124   0.918
89247W        W55656  36.162  24.665  14.229
89248W        W55657  17.850  28.888  12.897
89249W        W55658   7.940  43.985  12.194
89250W        W55659  21.687  22.197   0.487
89251W        W55660  27.838  36.102  13.663
89252W        W55661  12.166  44.723  14.932
89253W        W55662  23.492   6.651  14.392
89254W        W55663  11.506  42.785   4.609
89255W        W55664  31.841  40.930   3.314
89256W        W55665  19.149   0.630  13.326
89257W        W55666  14.248  16.201  10.564
89258W        W55667  18.641  30.615  13.434
89259W        W55668  16.462  15.119   4.248
89260W        W55669  23.537  17.088  13.188
89261W        W55670  13.149   7.277   1.453
89262W        W55671  43.223   0.005   2.266
89263W        W55672   0.852  26.820  10.665
89264W        W55673  33.379  24.546   3.786
89265W        W55674  42.307   0.341   1.219
89266W        W55675  39.207  42.419   3.309
89267W        W55676  44.944  42.575  12.852
89268W        W55677  16.844  10.811  11.132
89269W        W55678  36.019  44.923   4.594
89270W        W55679   2.870  21.374  14.280
89271W        W55680  32.843  24.151  11.669
89272W        W55681  17.814  18.266   0.854
89273W        W55682  36.030  44.716   3.524
89274W        W55683  42.403   8.895   2.358
89275W        W55684  19.224   8.590   1.292
89276W        W55685   5.911  20.617   4.889
89277W        W55686  42.841  40.745   0.822
89278W        W55687  30.554  39.729   2.885
89279W        W55688  32.995   2.504  11.434
89280W        W55689   9.729  11.225   3.801
89281W        W55690  43.268  12.782  11.820
89282W        W55691  41.678  30.952  14.158
89283W        W55692  34.955  17.341  13.353
89284W        W55693  43.705   1.009  14.827
89285W        W55694  44.379  37.625  11.445
89286W        W55695  14.092  10.673   2.735
89287W        W55696  36.274  16.756  12.016
89288W        W55697  22.793  20.905  13.001
89289W        W55698   2.260   4.002  14.969
89290W        W55699  42.352   9.903   0.274
89291W        W55700   2.894  15.557  13.967
89292W        W55701  16.306   3.350  10.616
89293W        W55702  18.217  35.617  11.966
89294W        W55703  17.149  11.264   1.299
89295W        W55704  34.645  27.396   4.067
89296W        W55705  31.089   0.477   1.665
89297W        W55706  32.907   0.121   4.242
89298W        W55707  12.202  22.278   4.848
89299W        W55708   6.834  35.171   1.302
89300W        W55709  33.607   8.676  14.429
89301W        W55710   7.485   7.754  12.156
89302W        W55711  11.237  14.300  14.023
89303W        W55712  40.996  21.233   2.679
89304W        W55713  26.569  34.359  10.395
89305W        W55714  23.412  31.590  13.067
89306W        W55715  28.449  27.145   4.597
89307W        W55716   5.554  36.377   4.166
89308W        W55717  30.205  44.864   0.541
89309W        W55718  22.696  23.203  11.460
89310W        W55719  33.093  28.094   2.330
89311W        W55720  21.601  10.731   0.702
89312W        W55721  11.325  12.145  11.139
89313W        W55722  41.473   5.691  14.847
89314W        W55723  23.821  41.381   0.222
89315W        W55724  29.193  25.914  13.851
89316W        W55725  38.412   2.803  14.617
89317W        W55726  31.306  32.877   0.949
89318W        W55727  14.152  38.295   2.225
89319W        W55728  20.379   6.705  14.710
89320W        W55729  16.632  31.590   1.657
89321W        W55730  40.953  31.378  11.224
89322W        W55731  10.529  24.434  13.113
89323W        W55732   5.877  41.932   2.555
89324W        W55733   3.153  11.328   3.341
89325W        W55734  26.697  17.047  11.341
89326W        W55735  16.887  42.411  13.565
89327W        W55736   1.203  40.943   0.584
89328W        W55737  36.020  10.796   4.126
89329W        W55738  28.584  18.320  10.749
89330W        W55739  15.314  32.052   2.785
89331W        W55740  25.265  19.161  12.992
89332W        W55741  32.121   5.264   5.032
89333W        W55742  17.992  10.511   1.463
89334W        W55743  30.575   7.126   1.826
89335W        W55744  15.743  17.138  14.871
89336W        W55745   6.436  43.032  11.065
89337W        W55746  37.375  28.005   3.978
89338W        W55747  29.339  22.181  14.850
89339W        W55748  31.885  30.464  12.594
89340W        W55749  44.727  14.217  14.946
89341W        W55750   6.971  22.654  12.268
89342W        W55751  27.922  30.983  13.573
89343W        W55752   6.860  41.692   1.828
89344W        W55753   9.215  28.759  11.319
89345W        W55754  17.114   0.968   0.734
89346W        W55755  35.623  12.815  14.008
89347W        W55756  10.220  11.383   3.600
89348W        W55757   4.881   5.860  13.550
89349W        W55758  25.748  44.754  13.338
89350W        W55759  26.653  11.819   4.466
89351W        W55760   1.895   3.337  14.970
89352W        W55761   7.339   3.950   4.751
89353W        W55762  30.133  25.694   0.414
89354W        W55763  16.326  39.029  12.993
89355W        W55764   5.928  44.239   0.349
89356W        W55765  10.449  33.705  12.054
89357W        W55766  43.215  38.932  10.577
89358W        W55767  23.462  38.348   4.113
89359W        W55768  33.664  12.424  10.760
89360W        W55769  31.149  33.458   2.616
89361W        W55770  16.329  40.829   5.062
89362W        W55771  26.693  10.365   4.163
89363W        W55772  13.825  15.066  14.784
89364W        W55773  18.148  26.061  11.250
89365W        W55774   5.226   8.859   1.866
89366W        W55775  20.096  33.902  12.110
89367W        W55776   0.332  20.149   1.005
89368W        W55777  44.572   9.906  11.183
89369W        W55778  41.255   2.729  11.173
89370W        W55779  39.505  29.661  11.519
89371W        W55780  18.618  44.987  11.553
89372W        W55781  27.045  22.988   2.725
89373W        W55782  21.123  35.155  12.571
89374W        W55783  17.431  27.898   4.101
89375W        W55784  38.703  33.237   0.858
89376W        W55785  35.562   0.906   3.312
89377W        W55786  38.845  44.911  12.506
89378W        W55787  15.158  12.816   3.672
89379W        W55788   1.856  40.293  13.524
89380W        W55789  31.426  24.213   4.626
89381W        W55790   1.222  15.431   3.270
89382W        W55791   5.903  32.978  14.768
89383W        W55792  41.057  31.982  13.473
89384W        W55793  24.398  24.728  13.425
89385W        W55794   8.739  17.104  13.821
89386W        W55795  35.033  33.892  12.118
89387W        W55796   9.280  42.216  11.646
89388W        W55797  23.150  28.574   1.332
89389W        W55798   9.715  22.545   2.484
89390W        W55799  24.625  12.535   1.807
89391W        W55800  21.754  10.711   2.342
89392W        W55801  24.337  33.107   0.851
89393W        W55802  17.246  13.682  10.446
89394W        W55803  20.459   6.420   4.206
89395W        W55804  20.145   2.026   1.802
89396W        W55805  10.862  13.373   3.514
89397W        W55806  30.130  16.121  14.740
89398W        W55807  18.838  27.544   2.286
89399W        W55808  34.617   5.822   3.089
89400W        W55809  18.238  34.026   0.040
89401W        W55810   9.376  21.806  11.300
89402W        W55811   7.293  12.414   3.603
89403W        W55812  25.208  17.670   1.640
89404W        W55813  29.380  29.626   0.303
89405W        W55814  37.422  27.367  12.981
89406W        W55815  27.638  32.527   0.737
89407W        W55816   9.899  24.891  11.986
89408W        W55817  15.101  20.017  14.075
89409W        W55818  31.369   4.075   3.205
89410W        W55819  19.886  18.183   3.790
89411W        W55820  10.549  35.448   1.203
89412W        W55821  28.228   5.948   3.110
89413W        W55822  31.586  30.925  12.341
89414W        W55823  25.614  36.954  12.028
89415W        W55824  23.324   5.637  11.979
89416W        W55825  31.774  26.301   1.877
89417W        W55826  11.389  34.061   2.434
89418W        W55827  32.375  44.537   1.312
89419W        W55828  30.028  25.006   1.355
89420W        W55829  41.443   5.872  10.902
89421W        W55830   1.943  17.701  11.643
89422W        W55831   1.315  10.052   1.439
89423W        W55832   0.948   4.719  12.866
89424W        W55833  10.813   6.654   1.390
89425W        W55834  21.003  43.207   2.304
89426W        W55835   7.128  18.660  13.381
89427W        W55836  14.304   2.246  12.353
89428W        W55837  39.222  40.977  14.176
89429W        W55838  36.038  22.065  11.172
89430W        W55839  20.798   3.284  14.527
89431W        W55840  31.983  33.671   3.676
89432W        W55841  10.687  40.986  11.164
89433W        W55842  36.062  14.366   2.788
89434W        W55843  26.116  43.228   1.312
89435W        W55844  44.435  16.839   0.779
89436W        W55845  26.892   6.312   3.187
89437W        W55846  13.776  28.462   1.612
89438W        W55847   7.311   8.578   0.040
89439W        W55848   6.873  42.758  10.951
89440W        W55849  41.949   2.811   1.733
89441W        W55850  38.743  33.044  10.695
89442W        W55851  33.613  10.959  10.180
89443W        W55852   4.143  16.103   2.779
89444W        W55853  29.698  44.973  10.395
89445W        W55854  32.943   4.080   4.957
89446W        W55855   6.887  30.683   0.698
89447W        W55856  41.985  37.063   1.517
89448W        W55857  17.556  14.510   1.872
89449W        W55858  19.752  10.024  10.273
89450W        W55859  16.879  39.530  14.515
89451W        W55860   6.678  16.177   1.042
89452W        W55861  33.593  41.363  12.089
89453W        W55862  29.416  33.964  10.452
89454W        W55863   1.672  32.077   2.723
89455W        W55864   0.811  20.762  12.547
89456W        W55865  16.793  10.602  10.677
89457W        W55866  18.079  27.527  11.640
89458W        W55867  24.741  31.860   2.414
89459W        W55868  25.148  40.824  12.030
89460W        W55869   8.713  30.288   0.938
89461W        W55870   7.667   3.928  12.080
89462W        W55871  20.000  34.923  14.014
89463W        W55872   1.460  42.284   1.163
89464W        W55873  15.022  22.108  12.427
89465W        W55874  28.658  16.211   3.811
89466W        W55875  24.460  32.624  12.030
89467W        W55876  26.651  11.300  14.434
89468W        W55877  13.562  14.271   2.745
89469W        W55878   4.213  30.044  10.760
89470W        W55879  10.300  37.349   2.549
89471W        W55880   3.798  26.069   0.023
89472W        W55881  26.098  22.656   2.212
89473W        W55882  14.843   6.320   1.275
89474W        W55883  30.503   8.617   3.761
89475W        W55884  24.546  15.791  11.619
89476W        W55885  14.958  25.593   0.484
89477W        W55886  40.318   3.724  14.378
89478W        W55887   8.687   1.836  11.116
89479W        W55888  21.642   3.846  10.829
89480W        W55889   0.530   4.174   1.341
89481W        W55890   3.371  28.001   1.846
89482W        W55891   7.178   0.384   4.296
89483W        W55892  32.603  28.047   2.116
89484W        W55893  20.156   3.733   2.208
89485W        W55894   4.475  23.454   1.332
89486W        W55895   6.968  39.031   1.064
89487W        W55896  42.373   2.515   2.846
89488W        W55897  29.654  28.056  11.179
89489W        W55898  40.225   9.435  10.821
89490W        W55899  14.149  12.163   4.245
89491W        W55900  14.313  17.070  13.186
89492W        W55901  13.278   5.152  11.576
89493W        W55902  36.655   6.314   2.723
89494W        W55903   2.892  22.782   2.144
89495W        W55904  11.727  18.186   4.570
89496W        W55905   9.208  16.788  13.858
89497W        W55906   3.290   3.504  11.370
89498W        W55907  28.030  31.100  12.688
89499W        W55908   0.928   3.350  14.872
89500W        W55909  28.971  40.328  10.690
89501W        W55910  43.381   0.666  12.106
89502W        W55911  14.526  28.876   3.252
89503W        W55912   5.862   8.489   4.113
89504W        W55913  30.184  13.175  12.675
89505W        W55914   4.405   0.979   3.617
89506W        W55915  27.086  29.441   3.678
89507W        W55916   9.150  20.361   4.653
89508W        W55917   6.197  10.727  13.571
89509W        W55918   7.376  36.616  11.993
89510W        W55919  18.633   4.882   1.362
89511W        W55920  25.755  36.606   1.773
89512W        W55921  27.716  22.008   3.278
89513W        W55922  44.805  43.692   2.167
89514W        W55923   3.267   9.125   1.775
89515W        W55924  21.302  25.553  12.506
89516W        W55925  21.848  15.687   3.771
89517W        W55926   9.448  21.736   2.315
89518W        W55927  44.280  39.324   4.169
89519W        W55928  11.113   4.139   3.744
89520W        W55929  20.979  21.569  14.355
89521W        W55930   1.367  39.395   4.425
89522W        W55931  17.324  31.915  14.980
89523W        W55932   1.875   3.547  12.057
89524W        W55933  25.915   0.359  12.523
89525W        W55934  37.902  31.715  14.868
89526W        W55935  14.595  43.125  14.967
89527W        W55936  26.229  29.903  13.965
89528W        W55937   5.682  11.628  13.585
89529W        W55938  28.990  24.574   3.277
89530W        W55939   4.409  11.856  10.490
89531W        W55940  24.427  23.350   2.898
89532W        W55941  36.863  44.860   0.894
89533W        W55942  21.035  22.671   3.167
89534W        W55943  33.370  19.639  13.382
89535W        W55944  31.128   1.464  12.785
89536W        W55945  12.574  37.869  12.295
89537W        W55946  20.311  21.456  10.668
89538W        W55947  28.956  37.545  12.424
89539W        W55948   4.945  42.890   0.159
89540W        W55949  34.519  31.388   3.762
89541W        W55950  15.561  40.603   2.813
89542W        W55951  43.343  28.544  10.751
89543W        W55952  13.786  32.103   3.618
89544W        W55953  12.582  37.946  10.321
89545W        W55954  31.631   8.297  11.145
89546W        W55955  20.261   3.467  12.996
89547W        W55956  39.572  12.829   3.261
89548W        W55957  20.622   0.055  12.986
89549W        W55958  34.517  16.315   0.212
89550W        W55959  16.336  27.033   4.189
89551W        W55960  23.258  41.835  13.438
89552W        W55961  21.184  18.410   3.263
89553W        W55962  31.066  40.354   4.816
89554W        W55963   2.242  29.549  13.882
89555W        W55964  25.631  41.906  11.136
89556W        W55965  34.667  41.002   1.870
89557W        W55966  32.323   1.466  14.430
89558W        W55967  19.640  21.553   3.749
89559W        W55968  14.700   6.222  12.143
89560W        W55969  33.138  36.923   3.302
89561W        W55970  36.263  37.594   3.637
89562W        W55971  25.513   2.280  11.381
89563W        W55972   3.791  37.245  13.891
89564W        W55973  20.863   5.718   2.665
89565W        W55974   9.457  30.117  12.997
89566W        W55975  14.655   1.975   3.250
89567W        W55976  10.057   0.714   2.736
89568W        W55977  11.652  34.034  14.352
89569W        W55978  27.180  26.628   0.345
89570W        W55979  42.846  23.535   2.257
89571W        W55980  30.018  29.449   4.594
89572W        W55981  12.163  22.399  11.710
89573W        W55982   6.040  15.619   0.034
89574W        W55983  23.596  44.511  12.791
89575W        W55984  10.625  18.066  13.416
89576W        W55985  11.367   6.314   2.181
89577W        W55986  11.806  21.328   1.114
89578W        W55987  32.445  41.767   3.284
89579W        W55988  38.962  22.262   4.683
89580W        W55989  32.911   9.725  12.462
89581W        W55990  43.802  37.601   4.320
89582W        W55991   3.868  39.952  12.451
89583W        W55992   3.518  44.306  11.996
89584W        W55993  17.501  10.169   4.674
89585W        W55994  32.001   4.360  13.523
89586W        W55995   9.676  26.945   4.201
89587W        W55996   3.798  29.323  10.245
89588W        W55997  26.237  26.623   3.230
89589W        W55998  38.391  23.578  12.489
89590W        W55999  12.200  44.234   3.325
89591W        W56000   5.451  28.485  11.640
89592W        W56001  35.400   7.868  13.424
89593W        W56002  33.715   2.759   3.232
89594W        W56003  10.143  31.981  12.302
89595W        W56004  43.345  20.194   4.696
89596W        W56005  22.112  37.923  11.208
89597W        W56006  26.705   2.205  12.955
89598W        W56007   4.432   3.256  13.820
89599W        W56008   3.773  10.442  10.738
89600W        W56009  23.929  20.166  10.899
89601W        W56010  16.693  33.338   3.992
89602W        W56011  15.756  38.412  14.132
89603W        W56012  11.606  38.321   3.173
89604W        W56013   8.657  29.901  11.684
89605W        W56014  29.466  21.607  12.212
89606W        W56015   8.691  22.815   4.588
89607W        W56016  43.235  13.222   1.239
89608W        W56017  25.500  15.742  13.788
89609W        W56018  33.627  37.466   1.913
89610W        W56019  11.727  29.463  12.253
89611W        W56020  31.640  15.260   1.804
89612W        W56021  22.960  28.597  13.970
89613W        W56022  11.260   9.234  14.831
89614W        W56023  16.762  10.166  13.358
89615W        W56024  44.023  29.770   1.253
89616W        W56025  32.539  30.608  14.932
89617W        W56026  44.308  31.191  11.665
89618W        W56027  18.193  15.743  11.372
89619W        W56028  41.436  43.049   2.426
89620W        W56029   8.147  44.713   3.828
89621W        W56030  34.969  41.991  13.963
89622W        W56031  42.791  16.690  13.410
89623W        W56032  16.376   0.966  14.744
89624W        W56033   5.474  21.091  13.919
89625W        W56034  19.751  26.216  13.963
89626W        W56035   1.810  18.987  13.076
89627W        W56036  28.200  11.821   1.980
89628W        W56037  37.625  23.588   4.519
89629W        W56038   6.833   3.912   1.232
89630W        W56039  23.753  19.268  12.880
89631W        W56040   2.997   0.026  13.806
89632W        W56041  30.636   2.220  11.129
89633W        W56042  17.228  32.824   0.301
89634W        W56043  44.219  32.605   4.140
89635W        W56044  13.754  25.613  10.948
89636W        W56045  31.609  41.520  10.750
89637W        W56046  33.648  23.227  10.440
89638W        W56047  41.012  19.336   1.331
89639W        W56048  39.404  36.471   4.628
89640W        W56049  30.532  36.004   3.535
89641W        W56050  28.166  38.778  10.738
89642W        W56051  31.440   9.313   2.728
89643W        W56052  20.153  14.633  13.481
89644W        W56053  20.659  17.578   3.279
89645W        W56054  18.324  24.517   1.756
89646W        W56055  18.879   9.819  11.254
89647W        W56056  43.015  10.752  13.254
89648W        W56057  14.515   3.754  11.097
89649W        W56058  15.831  36.285   1.692
89650W        W56059   3.350  26.740  12.069
89651W        W56060   1.070  21.104  14.096
89652W        W56061  36.434  33.932   3.562
89653W        W56062  21.747  12.066   2.799
89654W        W56063  12.858   9.812  10.798
89655W        W56064  23.213  28.188   3.541
89656W        W56065   3.951  44.972   0.042
89657W        W56066  34.845  10.252  10.712
89658W        W56067  43.494  11.238  11.504
89659W        W56068   2.983  34.317   1.254
89660W        W56069  22.826  39.880  11.089
89661W        W56070  23.292  31.272   2.861
89662W        W56071   1.486  10.934   3.730
89663W        W56072   2.435   0.520   4.492
89664W        W56073  25.183  38.398  12.529
89665W        W56074  38.978  12.513  12.462
89666W        W56075  22.783   9.310  11.078
89667W        W56076  11.814  14.593   4.379
89668W        W56077  28.190   4.621  13.945
89669W        W56078  15.552   4.814   1.006
89670W        W56079  12.363  21.613   0.510
89671W        W56080  38.008   7.200  13.812
89672W        W56081  33.966  27.047   2.448
89673W        W56082  43.452  32.075   2.124
89674W        W56083  22.528  20.236   3.218
89675W        W56084  12.296  15.310   1.479
89676W        W56085  31.870  18.658  10.528
89677W        W56086  39.613  38.998  13.415
89678W        W56087  43.706  39.678  11.909
89679W        W56088  34.492  20.003  12.550
89680W        W56089  21.309  41.367   2.475
89681W        W56090   6.502  23.545   2.341
89682W        W56091  36.181   0.748  11.999
89683W        W56092  35.608  19.482   1.978
89684W        W56093  43.342  38.160  13.891
89685W        W56094  15.464  21.731   0.851
89686W        W56095  11.300  10.167   1.292
89687W        W56096  14.390   6.030   1.285
89688W        W56097  16.062  24.437   4.069
89689W        W56098   5.452  39.559  11.698
89690W        W56099   6.140  21.719  12.786
89691W        W56100   4.324  40.263   1.458
89692W        W56101  17.299  12.236  10.721
89693W        W56102   2.558   8.233   2.787
89694W        W56103  31.139  23.024  13.011
89695W        W56104  24.254  15.023   3.363
89696W        W56105   9.987   8.235  14.107
89697W        W56106   8.765  37.345   0.279
89698W        W56107  37.120  41.410   3.140
89699W        W56108  35.286   1.467  10.723
89700W        W56109   9.670  29.841  12.607
89701W        W56110  12.805  23.901  12.736
89702W        W56111  20.710  19.969  12.057
89703W        W56112  20.483   1.527   4.179
89704W        W56113  41.913  33.072   1.917
89705W        W56114  21.165  26.549   4.138
89706W        W56115  12.376  23.762   2.321
89707W        W56116  15.886  42.444   3.607
89708W        W56117  38.339  36.803   4.194
89709W        W56118  14.317  31.556  11.622
89710W        W56119   4.114  10.945   2.702
89711W        W56120  29.131   4.070  12.249
89712W        W56121  20.952  14.082   0.631
89713W        W56122  31.978  33.524  10.688
89714W        W56123  42.419  39.874  14.702
89715W        W56124  15.235  23.500   3.531
89716W        W56125  34.629   5.912   2.151
89717W        W56126   5.583  27.933   2.175
89718W        W56127   4.730  25.476  10.978
89719W        W56128  24.591  35.852   2.525
89720W        W56129  21.960  23.783  11.203
89721W        W56130  32.113   7.608   3.671
89722W        W56131   3.691  17.756   3.621
89723W        W56132  40.439  26.774  14.765
89724W        W56133   8.709  36.826   0.313
89725W        W56134  28.048  44.166  10.021
89726W        W56135  18.785  44.077  14.842
89727W        W56136  27.283  22.276   3.439
89728W        W56137  18.689   9.991  11.676
89729W        W56138  14.374  14.680  11.612
89730W        W56139  16.559  34.402  11.458
89731W        W56140  29.518   2.979   2.417
89732W        W56141   6.224  40.853   4.377
89733W        W56142  17.254  13.193  10.731
89734W        W56143  25.517  34.596  10.678
89735W        W56144  19.018  13.093  12.587
89736W        W56145   8.314  20.700   2.435
89737W        W56146   3.841  32.369   3.874
89738W        W56147  11.732  15.673   1.004
89739W        W56148  29.389   5.275  12.644
89740W        W56149  14.325  16.843   0.778
89741W        W56150   2.926  37.416  10.830
89742W        W56151  42.736  42.346  13.873
89743W        W56152  26.009   3.369   1.206
89744W        W56153  29.417  43.745   1.703
89745W        W56154  31.198  37.546  12.863
89746W        W56155  40.930  21.198   3.220
89747W        W56156  39.441  15.140  12.327
89748W        W56157  44.660  16.120   2.319
89749W        W56158  41.902  44.956  12.443
89750W        W56159   2.323  26.374   1.827
89751W        W56160   8.366  23.683   3.428
89752W        W56161  10.080   8.857  13.118
89753W        W56162  32.224  12.053   0.773
89754W        W56163  25.100   8.147  11.520
89755W        W56164   4.627   4.536  11.981
89756W        W56165  41.602  26.112   3.400
89757W        W56166  33.338   1.387  12.057
89758W        W56167  13.793   4.941  11.080
89759W        W56168   9.689  32.094  12.109
89760W        W56169  24.023  26.038   2.843
89761W        W56170   4.843  14.608   1.545
89762W        W56171  43.493   2.147  14.872
89763W        W56172  24.577  20.246   1.736
89764W        W56173  27.664  31.864  12.508
89765W        W56174  22.236  23.496   0.017
89766W        W56175  42.031  43.822   1.610
89767W        W56176  19.247  17.735  11.191
89768W        W56177  43.564   8.757   0.965
89769W        W56178  33.522   1.245   4.598
89770W        W56179   0.775   0.173  13.800
89771W        W56180  17.708   1.718  12.993
89772W        W56181  10.797  10.168  14.972
89773W        W56182  25.723  40.847   1.232
89774W        W56183  11.523  20.545   1.945
89775W        W56184  31.886  10.726  10.693
89776W        W56185  41.405   2.201   0.712
89777W        W56186  28.473  39.927  14.355
89778W        W56187  16.393   0.703   0.214
89779W        W56188  43.387   3.482   2.653
89780W        W56189  16.883   9.911  12.901
89781W        W56190  43.395  30.449  12.542
89782W        W56191   0.263  17.977  14.922
89783W        W56192  35.277   8.642   2.386
89784W        W56193  21.302  11.637   1.681
89785W        W56194   0.719   5.705  11.173
89786W        W56195  18.643  29.998   2.646
89787W        W56196   2.353  34.884   3.575
89788W        W56197   5.405  16.539  14.870
89789W        W56198  40.561  39.279  12.034
89790W        W56199  26.201  39.817   0.797
89791W        W56200   1.819  23.457   3.637
89792W        W56201  28.736   7.560   4.845
89793W        W56202  30.821  36.356   3.015
89794W        W56203  17.306  34.953  11.486
89795W        W56204  18.754  35.516   4.319
89796W        W56205   6.930  14.810  14.481
89797W        W56206  29.581  11.355  13.549
89798W        W56207   0.955  38.780  14.587
89799W        W56208  11.941  14.726  10.566
89800W        W56209  25.681  20.485  11.549
89801W        W56210  16.220  13.887  10.449
89802W        W56211  30.065  17.648   2.863
89803W        W56212   4.410  37.638   3.543
89804W        W56213  42.259  28.078  11.424
89805W        W56214  16.946   5.691  13.490
89806W        W56215   7.303  25.263  13.941
89807W        W56216   7.310  10.908  12.993
89808W        W56217  14.629  42.125   4.189
89809W        W56218   3.891  36.861  11.573
89810W        W56219  17.132   5.387   1.408
89811W        W56220  43.810   4.103   4.315
89812W        W56221  39.396   1.795   1.225
89813W        W56222   1.092  42.937   0.465
89814W        W56223   2.206  13.230   3.177
89815W        W56224   1.745   9.849  13.040
89816W        W56225  37.448  19.119   0.290
89817W        W56226   0.140   6.827   0.657
89818W        W56227  38.982  31.618  10.128
89819W        W56228   7.899  29.462  14.467
89820W        W56229   1.978  41.423   0.436
89821W        W56230  11.852   3.018  13.311
89822W        W56231   7.443  11.333   1.282
89823W        W56232  11.881  17.224  11.915
89824W        W56233   0.451  29.699  13.361
89825W        W56234  11.743  16.731   4.078
89826W        W56235   9.627  22.705   4.672
89827W        W56236  15.059  12.569  12.478
89828W        W56237  34.357  40.788  11.710
89829W        W56238  28.254  36.215   3.631
89830W        W56239  40.338  36.132  14.535
89831W        W56240  36.806  23.607  11.448
89832W        W56241  31.949   4.276   0.050
89833W        W56242  30.572  20.016   3.230
89834W        W56243  11.635  36.118   5.022
89835W        W56244  14.051  36.070   4.344
89836W        W56245   5.668  31.562  14.234
89837W        W56246  34.071  27.933   3.715
89838W        W56247   4.546   9.214  14.983
89839W        W56248  23.571   4.891   2.384
89840W        W56249  31.174   8.268   1.962
89841W        W56250  36.325  34.785  13.882
89842W        W56251   3.389  21.426   0.950
89843W        W56252  17.577   1.608   3.055
89844W        W56253  28.764   3.887  12.624
89845W        W56254  18.261  30.155  12.540
89846W        W56255  44.017  27.374  13.786
89847W        W56256   9.529  32.080   4.787
89848W        W56257  23.057  26.522  10.693
89849W        W56258  15.656  41.803   1.795
89850W        W56259  38.452   7.159   1.932
89851W        W56260  28.901  19.571  14.025
89852W        W56261  23.038  35.059   3.162
89853W        W56262   7.813   3.462  13.379
89854W        W56263  16.526  16.640  12.916
89855W        W56264  13.261  21.031   1.300
89856W        W56265  13.639  41.461   0.013
89857W        W56266  36.972  41.376  11.979
89858W        W56267  13.787  17.317   2.190
89859W        W56268   1.296  30.844   0.687
89860W        W56269  10.468  16.167   0.247
89861W        W56270  18.982  14.236  10.716
89862W        W56271  30.000  39.404   2.687
89863W        W56272  39.194  28.227   4.995
89864W        W56273  28.590  25.253   1.279
89865W        W56274  20.099  33.101   2.352
89866W        W56275  26.876   9.156  10.799
89867W        W56276  11.408  42.449  10.423
89868W        W56277  22.996  26.356   1.245
89869W        W56278  38.106   0.838  10.778
89870W        W56279  44.059  33.476   3.323
89871W        W56280  14.716  43.901   0.446
89872W        W56281  34.082  12.877  12.069
89873W        W56282  28.431  27.704   1.296
89874W        W56283  21.492  19.843   3.778
89875W        W56284  22.647  39.460   3.189
89876W        W56285  22.306  34.260   4.126
89877W        W56286  11.305  31.284   3.615
89878W        W56287  11.110  10.903   4.590
89879W        W56288  25.507   0.213  14.745
89880W        W56289  29.691   7.870   2.235
89881W        W56290  36.391  32.490   2.822
89882W        W56291  37.904  13.193  10.754
89883W        W56292  43.960  42.933   1.959
89884W        W56293  16.695  43.001   0.701
89885W        W56294  20.240  20.364   4.088
89886W        W56295  31.040  18.094   3.072
89887W        W56296   1.966  35.380  14.421
89888W        W56297  30.288   8.203   2.223
89889W        W56298  27.168  39.155   3.467
89890W        W56299  31.448  40.555  14.345
89891W        W56300   7.318  13.164   1.442
89892W        W56301  19.753  23.101   1.517
89893W        W56302   2.643   5.228  12.145
89894W        W56303  10.695  19.886   0.824
89895W        W56304  23.244  29.859  13.553
89896W        W56305  18.185   0.004  11.878
89897W        W56306  13.785  10.835   4.071
89898W        W56307   3.950  35.499  13.388
89899W        W56308  36.452  17.231   3.459
89900W        W56309  29.388  11.204  11.049
89901W        W56310  38.991  29.531   5.154
89902W        W56311   9.439   2.286   3.658
89903W        W56312  29.243  30.613   2.384
89904W        W56313  43.308  42.301  12.223
89905W        W56314  10.639  12.836   4.839
89906W        W56315   9.791  42.891   4.609
89907W        W56316   1.930  21.198   4.495
89908W        W56317  44.327   9.503   1.864
89909W        W56318  26.158  14.776   1.999
89910W        W56319  15.487  43.009   1.358
89911W        W56320  25.395  39.279  12.795
89912W        W56321  28.663  12.042   2.176
89913W        W56322  42.462   6.840   4.016
89914W        W56323  18.145  17.082   0.411
89915W        W56324  29.513  20.761   2.669
89916W        W56325  41.806  40.426   4.871
89917W        W56326  10.632  31.822  12.391
89918W        W56327  34.568  10.706  14.653
89919W        W56328  40.835  26.159  11.451
89920W        W56329  33.339  18.505   0.889
89921W        W56330  26.594  14.606   1.680
89922W        W56331   4.972  11.111  13.582
89923W        W56332  10.199  24.204  14.794
89924W        W56333  10.644  35.371  13.230
89925W        W56334  35.127  26.043   2.623
89926W        W56335  15.679   8.710   1.749
89927W        W56336   6.895  42.782  13.946
89928W        W56337  25.072   6.354  14.491
89929W        W56338  31.034  11.313   3.460
89930W        W56339  16.539  42.150  12.089
89931W        W56340  19.621  24.249  10.779
89932W        W56341  21.581  20.784   4.199
89933W        W56342  21.729  13.573  13.672
89934W        W56343  22.574  29.882  11.014
89935W        W56344  12.409  20.283   9.789
89936W        W56345   8.633  22.947  11.114
89937W        W56346  20.024  42.064   2.692
89938W        W56347   3.117  34.380   3.292
89939W        W56348  32.659  36.325   4.740
89940W        W56349  30.445  32.705   4.583
89941W        W56350  40.421  43.411   2.238
89942W        W56351   6.744   6.329   0.793
89943W        W56352   1.543  21.906  11.993
89944W        W56353  18.771  20.620  11.669
89945W        W56354   3.525  40.483   3.204
89946W        W56355  41.073  23.059  11.212
89947W        W56356   5.393  34.580   4.572
89948W        W56357   7.346  10.295   5.167
89949W        W56358  20.288   8.021   5.094
89950W        W56359   9.689  31.375   5.491
89951W        W56360  31.887  11.690  11.488
89952W        W56361   3.346  31.571   3.339
89953W        W56362   2.851  41.619  11.260
89954W        W56363  13.768  11.598  14.755
89955W        W56364   5.180   6.343   2.760
89956W        W56365  12.562  24.914   4.356
89957W        W56366  15.581  14.239   1.204
89958W        W56367  37.267  13.642  14.514
89959W        W56368  19.054  19.710   0.001
89960W        W56369  26.937  23.132  10.757
89961W        W56370  19.487  19.836   1.673
89962W        W56371  15.317  39.071   4.617
89963W        W56372   8.726   1.425   0.704
89964W        W56373  15.502  10.324   1.434
89965W        W56374  42.049   8.670   0.536
89966W        W56375   3.370   0.230  10.439
89967W        W56376  36.963  22.095   4.367
89968W        W56377   9.733  26.209   3.563
89969W        W56378  14.826   9.926  14.314
89970W        W56379  41.743   8.015  14.678
89971W        W56380  25.016  23.313  13.995
89972W        W56381  10.624  39.084  14.476
89973W        W56382  38.556  17.053  14.278
89974W        W56383  22.211   5.950   0.788
89975W        W56384  20.063  14.403  14.984
89976W        W56385  21.632  17.027  12.289
89977W        W56386   5.170  43.354  12.496
89978W        W56387  15.265  32.138  10.340
89979W        W56388  28.221  42.436   0.978
89980W        W56389  11.276   9.866  11.176
89981W        W56390  44.662  11.242  12.364
89982W        W56391  24.729  11.779  10.909
89983W        W56392  36.769  26.564  13.536
89984W        W56393  32.923  14.954  11.309
89985W        W56394  29.524  34.940   1.911
89986W        W56395  22.010  34.555   2.708
89987W        W56396  16.722  13.552  13.944
89988W        W56397   8.702  44.810  13.956
89989W        W56398  33.762  35.037   2.308
89990W        W56399  10.681  31.395  12.678
89991W        W56400  29.720  24.573  11.897
89992W        W56401  26.669  40.388   4.612
89993W        W56402   0.183   8.833   1.356
89994W        W56403  41.408  33.871   3.612
89995W        W56404  30.914  14.785   3.381
89996W        W56405  27.085  42.898  12.688
89997W        W56406  18.127  40.246  13.436
89998W        W56407  40.379  16.574  12.020
89999W        W56408  13.063  35.965   2.749
90000W        W56409  34.160  26.946  11.539
90001W        W56410  21.256  11.670   4.643
90002W        W56411  42.479   2.252  13.355
90003W        W56412   2.726  32.591   4.680
90004W        W56413  19.863  15.349   0.274
90005W        W56414  30.726  39.522  12.083
90006W        W56415  16.575  43.591   0.458
90007W        W56416  22.098  11.508  11.183
90008W        W56417  19.742  26.973   3.762
90009W        W56418   9.358  42.979   4.892
90010W        W56419   9.677  19.018   4.234
90011W        W56420  27.313   2.360  11.070
90012W        W56421  25.999  13.284   1.305
90013W        W56422  30.074  32.116   0.850
90014W        W56423  32.210  23.673  12.521
90015W        W56424  21.183  31.000   3.431
90016W        W56425  27.182  29.177  14.056
90017W        W56426  37.506   4.820  13.301
90018W        W56427  11.241  44.869  12.538
90019W        W56428  37.402  33.337  11.975
90020W        W56429   3.538  14.291  14.010
90021W        W56430  24.781  37.410   4.515
90022W        W56431  22.665  22.137  13.487
90023W        W56432  43.301  10.312  11.963
90024W        W56433   0.955  10.131   0.490
90025W        W56434   4.001   8.327   2.506
90026W        W56435  10.671  21.444   0.817
90027W        W56436  14.993  14.586  12.206
90028W        W56437  12.305  12.691  11.990
90029W        W56438  19.325  12.841  11.252
90030W        W56439  23.669  40.489   3.121
90031W        W56440  38.273  20.563   1.157
90032W        W56441  31.621   8.310  14.258
90033W        W56442   4.922  32.354   1.654
90034W        W56443  44.264   7.214   1.873
90035W        W56444  21.091  24.344  12.097
90036W        W56445  27.606  15.158   2.814
90037W        W56446  28.490  40.740  12.002
90038W        W56447  16.211  14.557  10.419
90039W        W56448  33.419  37.149   3.721
90040W        W56449  10.857  44.635  10.232
90041W        W56450  19.104   1.245   1.812
90042W        W56451   0.306  10.469  13.321
90043W        W56452  19.712   0.433   3.738
90044W        W56453   9.700  20.798  12.169
90045W        W56454  18.134   0.544  13.999
90046W        W56455   2.487  19.814  10.289
90047W        W56456  36.503  16.294  11.923
90048W        W56457  11.334  15.610  11.245
90049W        W56458  23.666   9.340  13.038
90050W        W56459  26.314  30.589   0.776
90051W        W56460  15.520  15.827  12.132
90052W        W56461   8.367  34.864   2.894
90053W        W56462  25.093  26.084   4.518
90054W        W56463  26.767  21.042   2.756
90055W        W56464  20.552  10.946  10.655
90056W        W56465  11.748  25.967   1.733
90057W        W56466   5.351  43.703   3.180
90058W        W56467  19.688  38.576  14.456
90059W        W56468  19.061  21.899  14.334
90060W        W56469  24.341  37.151   4.422
90061W        W56470  15.437  23.657   4.930
90062W        W56471  21.021  34.336   2.785
90063W        W56472  31.576  32.078   5.032
90064W        W56473   3.839   0.781   2.249
90065W        W56474  34.431  30.937   0.201
90066W        W56475  10.333  35.871  11.458
90067W        W56476  19.079   3.401  14.008
90068W        W56477   2.008  34.400   1.772
90069W        W56478  34.035  31.640   2.770
90070W        W56479  38.569   8.349  10.524
90071W        W56480   4.285  44.008   3.666
90072W        W56481  44.590  21.201  12.998
90073W        W56482  23.129   4.909   3.172
90074W        W56483   5.859   2.404   0.210
90075W        W56484  16.281  44.339   2.507
90076W        W56485  10.886  32.713  14.942
90077W        W56486  34.462  26.877   2.355
90078W        W56487   8.681  10.303   1.206
90079W        W56488   1.035  25.918   3.135
90080W        W56489   3.411  27.437   3.511
90081W        W56490  19.159  20.093   0.995
90082W        W56491  11.355  43.738   4.491
90083W        W56492  36.870  29.147   0.360
90084W        W56493  29.538   2.774   3.444
90085W        W56494  12.314  10.656  10.739
90086W        W56495  15.315   8.655   3.587
90087W        W56496  38.074  19.425   1.482
90088W        W56497  28.411  37.812   2.216
90089W        W56498  39.280  27.000  10.627
90090W        W56499  29.759  25.409  10.806
90091W        W56500   7.754  11.795  14.007
90092W        W56501  30.399  42.003  10.794
90093W        W56502  11.928   3.409   1.312
90094W        W56503  44.915  39.888  12.469
90095W        W56504   1.740  23.551  12.064
90096W        W56505  30.324  23.517   1.369
90097W        W56506  21.589  42.057  14.056
90098W        W56507   5.006  33.580  10.533
90099W        W56508  35.260  36.910   0.961
90100W        W56509   6.238  16.895   2.564
90101W        W56510  19.003   3.862   0.872
90102W        W56511  28.985  13.688   4.113
90103W        W56512  32.701   0.943   4.111
90104W        W56513  34.528   0.285   2.191
90105W        W56514  27.434  38.522   4.166
90106W        W56515  29.906  13.518  14.750
90107W        W56516  19.304  24.613   2.828
90108W        W56517   5.599  24.801   2.705
90109W        W56518  44.430  20.466  14.902
90110W        W56519  44.688  34.298  13.349
90111W        W56520  16.918  32.613  13.987
90112W        W56521  25.950   9.673  14.758
90113W        W56522  33.221   5.419  11.184
90114W        W56523  25.235  44.860  14.454
90115W        W56524  19.095  32.243   3.970
90116W        W56525  29.057  31.849  13.093
90117W        W56526  27.487  21.772   1.723
90118W        W56527  40.330  27.259  11.952
90119W        W56528  13.342  10.290   1.465
90120W        W56529  42.472  38.883   2.113
90121W        W56530  30.131  34.032   5.002
90122W        W56531  36.583   1.945  10.764
90123W        W56532   3.927   8.734   2.193
90124W        W56533  18.376   1.400  10.692
90125W        W56534   2.330  44.158  13.893
90126W        W56535   9.982  27.150   3.855
90127W        W56536  32.406  10.926   2.748
90128W        W56537   4.893  42.354  14.960
90129W        W56538  23.908  17.742   4.406
90130W        W56539   6.323  16.936   3.852
90131W        W56540  27.493  17.315  13.692
90132W        W56541  15.732  23.646  14.055
90133W        W56542  27.892   6.443  11.924
90134W        W56543  41.966  35.655  12.434
90135W        W56544  43.804   8.455   1.802
90136W        W56545  44.689  12.680  14.926
90137W        W56546  37.581  16.624  14.900
90138W        W56547  39.341  39.288  13.823
90139W        W56548   3.366   7.158  13.854
90140W        W56549   9.716  12.303   3.653
90141W        W56550  42.736   2.217  10.820
90142W        W56551   1.753  28.223   1.300
90143W        W56552  28.094   4.455  10.783
90144W        W56553  27.583   4.861   3.949
90145W        W56554  32.789  22.749  11.486
90146W        W56555  43.292  11.766   2.984
90147W        W56556  36.337  32.200   1.647
90148W        W56557  38.446  10.385   0.792
90149W        W56558  11.660  25.139   3.137
90150W        W56559  41.876   1.501   4.096
90151W        W56560  31.251   4.740  14.805
90152W        W56561  15.212  37.586   3.496
90153W        W56562  44.481  10.850  12.874
90154W        W56563  21.372  21.000  11.152
90155W        W56564  15.398  23.212  14.908
90156W        W56565  30.551   3.066  12.941
90157W        W56566  19.930  42.771   0.768
90158W        W56567  25.230   3.741  12.666
90159W        W56568  12.687  43.252   5.060
90160W        W56569   3.805  14.311  13.539
90161W        W56570   0.224  36.532   2.350
90162W        W56571   9.226  27.282  11.542
90163W        W56572   0.336  21.239   4.231
90164W        W56573  25.915  17.765  14.056
90165W        W56574  27.115  43.929  12.485
90166W        W56575  10.393  11.747   2.195
90167W        W56576  36.762   4.235  12.166
90168W        W56577  30.047  29.567   1.627
90169W        W56578  34.388  16.849  13.031
90170W        W56579  15.997  41.408  10.178
90171W        W56580  41.467  13.843  14.249
90172W        W56581  31.531  11.554   4.609
90173W        W56582  43.138  34.842  10.365
90174W        W56583  30.563  29.064   1.619
90175W        W56584  25.883  18.618  12.995
90176W        W56585  32.658  36.686   4.123
90177W        W56586  35.682  40.384   2.872
90178W        W56587  42.552   6.343   4.151
90179W        W56588  26.548  19.386  14.512
90180W        W56589  16.170  15.279  13.803
90181W        W56590  14.097  11.596   1.504
90182W        W56591  26.736   7.658  13.893
90183W        W56592   4.944  33.979   2.303
90184W        W56593  40.947  12.172  11.236
90185W        W56594  26.703  36.954   0.877
90186W        W56595  41.030   2.313  13.423
90187W        W56596   9.786   2.047   2.830
90188W        W56597  32.429   7.100   1.885
90189W        W56598  25.345  17.873  11.949
90190W        W56599  43.995  41.614  10.607
90191W        W56600  31.635  22.271  11.246
90192W        W56601  38.457  40.921  14.577
90193W        W56602  33.921  30.030  12.537
90194W        W56603  37.568   2.953   0.241
90195W        W56604  26.339  30.546   1.670
90196W        W56605  20.174  27.152  13.935
90197W        W56606   1.906  27.464   1.784
90198W        W56607  21.268  43.253   3.631
90199W        W56608   6.608  34.332   3.132
90200W        W56609  13.893  40.125   1.237
90201W        W56610  15.939  26.525  10.026
90202W        W56611  40.260   9.748   0.530
90203W        W56612  10.121  32.905  13.288
90204W        W56613  35.579   3.687  12.549
90205W        W56614  17.973   7.715   4.220
90206W        W56615  34.862   6.730  13.789
90207W        W56616   1.961  38.172  12.609
90208W        W56617  44.982  37.503  14.894
90209W        W56618  36.174  36.800   3.256
90210W        W56619  30.679  34.992   1.329
90211W        W56620   3.274   4.745   2.472
90212W        W56621  40.126  39.552  12.116
90213W        W56622  20.731  16.108   0.349
90214W        W56623  23.766  33.354  14.328
90215W        W56624  23.011  36.234   5.149
90216W        W56625  10.745   1.296   2.210
90217W        W56626  15.082  34.474   1.812
90218W        W56627  37.384  39.542   4.525
90219W        W56628  27.966   5.981   4.915
90220W        W56629  35.368  38.426  12.522
90221W        W56630   5.293  18.605   3.625
90222W        W56631  20.375  14.901  11.521
90223W        W56632  31.399  34.060   1.218
90224W        W56633  40.795   7.678  14.241
90225W        W56634  13.719  18.761  11.966
90226W        W56635  24.796  18.994  13.179
90227W        W56636  18.633  36.174  13.395
90228W        W56637   9.889  26.628  13.328
90229W        W56638  25.599  17.533  11.018
90230W        W56639  29.566  21.230  13.869
90231W        W56640  26.580  31.959  12.911
90232W        W56641  24.491  36.752  12.394
90233W        W56642   7.759  11.753   4.600
90234W        W56643   7.138  10.275   0.500
90235W        W56644  33.153   4.421   5.431
90236W        W56645   8.839  34.814  12.971
90237W        W56646  32.024  39.407   0.291
90238W        W56647  35.764  26.429   2.845
90239W        W56648  41.715  35.275   3.716
90240W        W56649  32.181  35.163  10.759
90241W        W56650  36.877  21.106   0.513
90242W        W56651   1.376   4.457  13.008
90243W        W56652  18.324  12.396  11.386
90244W        W56653  34.581  12.517  14.975
90245W        W56654  31.539   0.064   1.041
90246W        W56655  35.906  24.480   4.124
90247W        W56656  41.751  30.800   2.281
90248W        W56657  19.641  27.733   3.163
90249W        W56658  20.285  15.900   3.626
90250W        W56659  22.188  36.357  12.907
90251W        W56660   4.023   7.363   1.822
90252W        W56661   6.234  22.709   4.159
90253W        W56662  18.327   6.036  14.427
90254W        W56663  16.645   5.683   2.634
90255W        W56664  16.795  14.708   4.147
90256W        W56665  43.055   2.278   3.856
90257W        W56666  30.813   4.830   4.577
90258W        W56667  12.698  41.437  11.923
90259W        W56668  34.605  31.803   0.663
90260W        W56669  32.041  29.186   0.507
90261W        W56670   5.941  12.832  14.875
90262W        W56671  11.641  43.342  11.048
90263W        W56672  37.444  16.739   0.945
90264W        W56673  12.240  29.497   4.220
90265W        W56674  13.118  33.550   3.666
90266W        W56675  24.950   9.131  13.343
90267W        W56676  28.566  27.676  10.672
90268W        W56677  35.510  22.038   4.645
90269W        W56678  15.150  26.950  12.308
90270W        W56679  17.630  42.030  11.078
90271W        W56680  39.528  24.100   1.206
90272W        W56681  13.823  34.639   2.830
90273W        W56682  39.841   9.077  12.813
90274W        W56683  36.581  21.255  13.952
90275W        W56684  11.794  10.943   2.385
90276W        W56685  14.000   5.692   1.261
90277W        W56686  39.609  22.712  13.423
90278W        W56687   7.484   5.488  12.583
90279W        W56688  42.193  20.258  13.039
90280W        W56689  22.415  42.655  14.963
90281W        W56690  11.629  14.356  14.549
90282W        W56691  33.195   0.700   4.958
90283W        W56692  12.425  11.172  10.738
90284W        W56693  27.759  21.290  12.079
90285W        W56694  13.313  26.177  14.799
90286W        W56695  24.931  10.210  11.564
90287W        W56696  20.030  29.407   0.797
90288W        W56697   3.806  13.540   1.145
90289W        W56698  30.538  34.642  10.700
90290W        W56699  44.060   1.233  14.514
90291W        W56700  21.790  25.786   2.723
90292W        W56701  26.482  27.539  12.891
90293W        W56702  38.552  29.373  13.032
90294W        W56703  31.950  21.517  11.719
90295W        W56704  21.832  31.174   1.407
90296W        W56705  27.143  28.665   1.297
90297W        W56706  11.870  22.916   1.289
90298W        W56707  35.637  23.715   1.407
90299W        W56708  34.657  41.271   3.961
90300W        W56709   9.261  15.671  12.449
90301W        W56710   1.494  24.036  14.721
90302W        W56711  22.512  13.882  13.477
90303W        W56712   5.699  11.188  14.971
90304W        W56713   9.905   2.195  13.865
90305W        W56714  32.887  13.445  11.215
90306W        W56715  12.159   8.679  12.192
90307W        W56716  20.088   4.436   2.779
90308W        W56717  44.970  11.778   0.363
90309W        W56718   6.424  29.397   0.309
90310W        W56719  24.697   6.139  11.677
90311W        W56720  23.813  29.470   2.124
90312W        W56721  43.792  40.354  12.505
90313W        W56722  36.358  33.057   0.654
90314W        W56723  33.151  16.200  11.515
90315W        W56724  11.756  35.747  12.813
90316W        W56725  36.589  39.949  12.878
90317W        W56726  12.877  30.917  14.351
90318W        W56727  29.679  14.684  13.521
90319W        W56728  21.557  36.266   0.815
90320W        W56729  39.437  24.216  14.418
90321W        W56730  13.429  42.495   1.413
90322W        W56731  27.244   0.018  14.568
90323W        W56732  29.078  33.886   0.304
90324W        W56733  28.723  16.249   4.858
90325W        W56734  15.407   6.850   3.118
90326W        W56735  41.253  44.925  11.638
90327W        W56736   7.922   1.795  14.491
90328W        W56737   1.526  11.072   1.369
90329W        W56738   5.667  14.619   0.891
90330W        W56739   6.317  39.940  13.599
90331W        W56740  32.239  10.616  14.815
90332W        W56741  39.070   7.455   3.341
90333W        W56742  20.621  36.520  11.166
90334W        W56743  25.438   8.176   3.202
90335W        W56744   1.320  24.309   1.126
90336W        W56745  18.492  18.105   4.222
90337W        W56746  12.866  37.971  11.856
90338W        W56747  34.628   0.211  14.563
90339W        W56748  28.640   0.786   0.677
90340W        W56749  40.835   1.217  10.526
90341W        W56750   6.767  15.229   0.466
90342W        W56751   7.903  18.244  13.578
90343W        W56752   7.644   1.296  10.609
90344W        W56753  38.692  15.564  13.313
90345W        W56754  10.437  22.302  11.617
90346W        W56755  34.609  15.183  13.988
90347W        W56756  41.094  29.173   0.519
90348W        W56757  43.793  29.745   2.197
90349W        W56758  10.288  29.937  13.445
90350W        W56759  34.388  15.517  13.240
90351W        W56760   1.975  12.480  10.903
90352W        W56761  31.454  15.033  13.670
90353W        W56762  40.891  24.580  12.614
90354W        W56763  13.718  42.450   2.337
90355W        W56764  18.615  23.054   4.772
90356W        W56765  20.590  32.925   2.375
90357W        W56766  32.076  10.096   1.845
90358W        W56767  42.745  42.390  11.061
90359W        W56768  30.722   1.973  13.948
90360W        W56769  24.071   9.624  10.578
90361W        W56770  13.199   1.949   0.837
90362W        W56771  31.413  37.926  10.775
90363W        W56772  10.375  24.244  11.915
90364W        W56773   3.149  43.592   2.821
90365W        W56774  33.948  33.108  10.729
90366W        W56775  12.150  10.184  10.919
90367W        W56776  19.300   2.761   2.377
90368W        W56777  34.640  16.162   1.647
90369W        W56778  13.191   7.454  11.107
90370W        W56779  43.952  38.077   0.915
90371W        W56780   7.612  36.345  14.896
90372W        W56781   1.039  32.405   2.386
90373W        W56782   3.834  19.536  13.951
90374W        W56783  22.216  28.775  13.975
90375W        W56784  13.698   5.656   0.798
90376W        W56785  38.907  30.548  11.593
90377W        W56786  16.441  21.729  12.168
90378W        W56787  26.731   6.836  13.099
90379W        W56788  34.424  20.750  11.277
90380W        W56789  20.193  34.535  10.881
90381W        W56790  19.851  20.665   3.109
90382W        W56791   3.306   4.938   4.155
90383W        W56792  34.067  19.201   0.004
90384W        W56793  32.973   7.123  10.142
90385W        W56794  28.490   3.751  10.747
90386W        W56795  43.036  18.600   4.476
90387W        W56796  23.845  42.960  14.981
90388W        W56797  21.271  41.952  10.788
90389W        W56798   7.146  35.908   2.726
90390W        W56799  18.531  13.996  12.479
90391W        W56800  20.951   4.348   0.209
90392W        W56801  42.523  15.443   4.906
90393W        W56802  23.030  19.999  10.973
90394W        W56803   6.452   9.145   4.290
90395W        W56804  17.212  26.085  10.847
90396W        W56805  44.065   1.896  10.671
90397W        W56806   0.963  11.439  13.649
90398W        W56807   9.710  20.546   4.201
90399W        W56808  13.374  24.629  12.367
90400W        W56809  12.021  24.655  12.937
90401W        W56810  40.929  33.845  11.297
90402W        W56811  27.931  40.272   1.763
90403W        W56812  26.033  38.388   0.036
90404W        W56813  39.583  29.102  10.937
90405W        W56814  20.604  25.780  11.871
90406W        W56815  27.806   4.329   9.883
90407W        W56816  14.874   6.157   4.927
90408W        W56817  16.846  15.659  14.391
90409W        W56818   3.602   6.258   4.564
90410W        W56819   0.464  24.402  10.687
90411W        W56820   0.290  41.653   3.992
90412W        W56821  38.347  25.183  12.905
90413W        W56822  13.141  44.435   3.743
90414W        W56823  21.672  33.229  14.289
90415W        W56824  37.915  26.444  10.332
90416W        W56825  33.545  13.126   2.234
90417W        W56826  30.042  43.840   4.343
90418W        W56827  12.322  44.841  13.599
90419W        W56828  19.210  29.031  11.889
90420W        W56829   9.719   7.177   4.682
90421W        W56830   7.776   8.478   4.635
90422W        W56831  21.114  36.526   0.691
90423W        W56832  35.476   8.186  12.873
90424W        W56833   0.531  27.482   4.544
90425W        W56834  30.831  14.611  14.156
90426W        W56835  34.522  23.716  12.090
90427W        W56836   0.239  19.734  13.308
90428W        W56837  22.753   1.817   1.002
90429W        W56838   7.784  35.867  14.759
90430W        W56839  29.124   9.994   4.494
90431W        W56840  29.433   9.399   1.425
90432W        W56841   4.735   0.737  14.481
90433W        W56842   9.524  17.359  11.562
90434W        W56843   4.714  31.195   2.817
90435W        W56844  35.224  30.775   2.170
90436W        W56845  11.263   2.105   2.398
90437W        W56846  15.879  15.320   2.418
90438W        W56847   8.440   7.267   2.779
90439W        W56848  14.147  11.071   0.390
90440W        W56849  14.059  15.756  10.287
90441W        W56850   1.281  11.565  13.258
90442W        W56851  32.509  28.779   2.786
90443W        W56852  28.087  14.631  14.444
90444W        W56853   1.446  32.034   4.300
90445W        W56854  10.804  27.191  14.328
90446W        W56855  29.446  15.762   2.782
90447W        W56856  29.152  32.562  14.974
90448W        W56857  11.689  24.244  14.977
90449W        W56858  37.008  25.497  11.655
90450W        W56859   0.612  10.843   1.414
90451W        W56860   4.353   6.441   3.086
90452W        W56861   7.857   3.792   1.541
90453W        W56862  21.107  39.080   1.826
90454W        W56863  31.126  33.905   2.938
90455W        W56864  31.555  11.315   4.157
90456W        W56865   3.519  19.623   3.633
90457W        W56866  29.205  17.816   0.347
90458W        W56867  22.566  23.597  12.608
90459W        W56868  20.564  44.538   1.942
90460W        W56869  40.804   1.877  12.982
90461W        W56870  38.984  11.940   5.025
90462W        W56871  29.636  19.303   0.987
90463W        W56872  38.496  29.375  11.606
90464W        W56873  29.959  12.118  14.448
90465W        W56874  42.739   9.869  12.539
90466W        W56875  20.756   9.245   1.952
90467W        W56876  35.998  41.520  11.259
90468W        W56877  24.003  40.890   4.291
90469W        W56878  42.469   9.828  14.383
90470W        W56879  11.745  22.541  14.357
90471W        W56880  39.582   8.874   0.767
90472W        W56881  44.523  44.268  14.984
90473W        W56882  27.236  35.092  12.596
90474W        W56883  10.817  35.545   2.205
90475W        W56884  43.380  18.858   0.890
90476W        W56885  17.002  11.199   2.409
90477W        W56886  28.961   5.199  13.525
90478W        W56887  29.764   0.268   1.663
90479W        W56888  19.706   9.668  12.984
90480W        W56889   4.290  18.871  10.904
90481W        W56890   4.955   1.392  13.606
90482W        W56891  30.804  23.542   0.003
90483W        W56892  16.720   1.790  14.796
90484W        W56893  25.259  34.408   2.782
90485W        W56894  34.932  30.936   1.768
90486W        W56895   4.977  12.628   2.136
90487W        W56896  39.775   6.908  10.986
90488W        W56897  30.453  27.076   1.324
90489W        W56898  32.974  36.390  14.531
90490W        W56899  44.118  17.738  11.071
90491W        W56900  13.440  17.730  11.611
90492W        W56901  11.678  11.288   4.132
90493W        W56902  42.901   4.924  11.022
90494W        W56903  32.026  14.835   2.672
90495W        W56904  19.263  13.114   4.174
90496W        W56905  38.294  11.308   3.214
90497W        W56906  44.942   1.546  11.685
90498W        W56907  16.378  33.471  13.875
90499W        W56908  29.559   1.755  10.186
90500W        W56909  17.856  10.647   2.223
90501W        W56910  24.562   6.672  12.029
90502W        W56911   3.265  17.806  13.823
90503W        W56912  25.908   8.163  14.863
90504W        W56913  41.359  15.231   3.314
90505W        W56914  11.879  34.767  11.953
90506W        W56915  37.159  23.770   0.268
90507W        W56916  29.064  35.491   0.073
90508W        W56917  44.182  28.117   3.004
90509W        W56918  43.728  25.004  13.109
90510W        W56919  18.105  38.693   4.159
90511W        W56920  42.696  12.245  11.164
90512W        W56921  12.080  40.507   3.785
90513W        W56922   9.723  12.731   4.851
90514W        W56923  39.311  14.048  11.514
90515W        W56924  13.458  33.826  11.100
90516W        W56925  42.432  34.880   0.350
90517W        W56926   5.338  28.443  13.983
90518W        W56927  39.106  18.311  12.456
90519W        W56928  25.067   2.471  12.139
90520W        W56929  42.549  15.991  14.398
90521W        W56930  39.536   9.939  12.790
90522W        W56931   2.788  39.793   2.313
90523W        W56932   8.864   5.450   3.646
90524W        W56933  20.988   7.775  12.936
90525W        W56934  23.617  29.920  11.933
90526W        W56935  23.924  11.762   1.717
90527W        W56936  41.981  23.874   0.921
90528W        W56937  26.622  40.415  13.593
90529W        W56938  14.211  32.928  13.790
90530W        W56939  27.907  30.586   4.113
90531W        W56940   9.276  12.075  11.146
90532W        W56941  10.189  26.844   3.269
90533W        W56942  14.960  39.516  13.755
90534W        W56943  37.466  18.149   0.350
90535W        W56944  10.731  32.063   2.728
90536W        W56945  32.408   9.197   1.679
90537W        W56946  11.178  33.961   3.335
90538W        W56947  35.218  40.261  14.017
90539W        W56948  10.925  14.801   3.564
90540W        W56949  28.332  25.643  12.820
90541W        W56950  14.214  23.505   1.528
90542W        W56951  14.765  30.349  12.990
90543W        W56952  24.797  42.481   2.878
90544W        W56953  26.686  39.703  10.426
90545W        W56954  17.774  17.034  12.035
90546W        W56955   3.228  21.449   0.456
90547W        W56956  14.150  30.113   4.829
90548W        W56957   5.988  42.372  10.772
90549W        W56958  40.760  19.704   4.235
90550W        W56959  35.078   9.763  11.616
90551W        W56960   1.677  28.403  13.316
90552W        W56961   7.705   0.997   2.832
90553W        W56962  32.880  35.346  12.012
90554W        W56963  15.175  15.980   1.268
90555W        W56964  10.278  38.423   4.338
90556W        W56965  15.620  39.541  10.325
90557W        W56966  34.946  35.418   3.424
90558W        W56967  43.723  19.629  10.409
90559W        W56968   8.900  34.313   4.441
90560W        W56969   7.611  28.076   2.272
90561W        W56970  41.042  37.634  10.650
90562W        W56971  41.098  38.355   1.632
90563W        W56972  32.831  12.762  14.819
90564W        W56973  35.300  38.285  13.418
90565W        W56974  17.546  30.082  14.226
90566W        W56975  23.495  35.046   2.951
90567W        W56976   8.702   9.509   4.062
90568W        W56977  40.544  37.299   3.047
90569W        W56978  44.047  25.141  13.974
90570W        W56979   4.738  33.716  12.951
90571W        W56980   3.334  20.253  12.189
90572W        W56981   3.644  22.451  10.581
90573W        W56982  10.408  43.469   2.181
90574W        W56983  18.103  19.021  11.132
90575W        W56984   4.880  28.999   1.268
90576W        W56985   7.546  41.710   2.360
90577W        W56986   5.661  40.383   0.918
90578W        W56987  40.070  24.116  10.735
90579W        W56988  43.362  30.398   0.306
90580W        W56989  20.293  11.212  12.540
90581W        W56990  44.053  39.838   1.705
90582W        W56991  27.859  28.577  13.528
90583W        W56992  30.171  28.881   0.316
90584W        W56993  41.778   5.637  11.181
90585W        W56994  27.158  36.632   2.125
90586W        W56995  32.670   5.289  14.804
90587W        W56996  24.226  27.236   2.929
90588W        W56997  40.996  38.437  13.881
90589W        W56998  42.491  37.071   0.806
90590W        W56999   3.764  12.643  13.028
90591W        W57000  30.123  42.003  12.883
90592W        W57001  28.902  20.588   1.270
90593W        W57002  19.146  20.877  11.152
90594W        W57003  26.396   4.412   4.611
90595W        W57004   0.905  22.642  11.904
90596W        W57005   2.583  27.180   2.069
90597W        W57006  30.991  33.941   2.443
90598W        W57007  19.539  30.569   0.072
90599W        W57008  13.078  14.155   1.847
90600W        W57009  26.549  10.748  14.669
90601W        W57010   7.821  23.689  10.997
90602W        W57011  27.416  14.318   2.154
90603W        W57012  14.825  18.275   4.508
90604W        W57013  39.491  32.851   4.892
90605W        W57014  30.196  41.702  11.572
90606W        W57015  23.564  37.758  12.865
90607W        W57016  21.260  13.899  14.535
90608W        W57017  44.413  15.907  12.184
90609W        W57018   1.895   4.751   1.178
90610W        W57019  43.304   8.260   3.223
90611W        W57020   2.830  34.635   3.639
90612W        W57021  12.492  29.535  14.640
90613W        W57022  30.061  24.721   1.949
90614W        W57023   3.838  19.035   3.144
90615W        W57024  18.638  18.728   4.672
90616W        W57025  32.604  23.515   0.029
90617W        W57026  27.161  19.111  12.892
90618W        W57027  33.884  44.226   2.416
90619W        W57028  38.300   8.827  11.581
90620W        W57029  24.234  37.898   4.002
90621W        W57030  13.033  38.935   4.664
90622W        W57031  16.135  41.153  11.040
90623W        W57032  20.083  32.317  12.123
90624W        W57033  29.196   7.643  11.570
90625W        W57034  16.605   8.953   3.246
90626W        W57035  21.726   1.854   0.207
90627W        W57036  34.965   0.535   4.350
90628W        W57037   3.222  42.823  11.172
90629W        W57038  28.057  33.843  14.507
90630W        W57039   7.061  27.742  10.890
90631W        W57040  43.407  23.168  12.900
90632W        W57041   3.507   2.452   0.413
90633W        W57042   0.461  40.347   1.963
90634W        W57043  40.950  43.481   0.864
90635W        W57044  19.391  26.707  11.094
90636W        W57045  33.489   6.279  14.050
90637W        W57046  20.754  43.483   4.169
90638W        W57047   9.114  12.138   1.853
90639W        W57048  30.627  21.110  12.895
90640W        W57049   8.484   5.026  13.356
90641W        W57050   8.921   8.917   3.525
90642W        W57051  36.020   0.532   4.133
90643W        W57052  34.465   1.484  12.970
90644W        W57053  26.162  13.304  11.505
90645W        W57054  40.210  40.495  12.843
90646W        W57055  16.146   8.761   5.057
90647W        W57056  35.456   8.609  13.977
90648W        W57057  27.580  11.448   4.658
90649W        W57058  42.689  43.040   0.027
90650W        W57059  27.791  22.791  12.909
90651W        W57060  38.548  16.383  12.866
90652W        W57061   8.196  40.256  13.137
90653W        W57062  20.116  11.300   3.294
90654W        W57063  11.349   9.118   1.291
90655W        W57064  34.197  43.276   1.005
90656W        W57065  41.009   4.185  12.912
90657W        W57066  38.644  12.247   1.860
90658W        W57067  21.012  11.582   3.332
90659W        W57068  44.888   4.856   4.892
90660W        W57069   7.926  26.138   2.204
90661W        W57070  14.820  25.211   4.184
90662W        W57071   6.374   6.285  12.089
90663W        W57072  31.638  37.571  13.186
90664W        W57073  30.956   8.881  10.002
90665W        W57074  37.954  40.891  14.935
90666W        W57075   6.426  30.162   1.883
90667W        W57076  10.836  17.109  13.366
90668W        W57077  15.433  12.721   0.327
90669W        W57078  41.443  18.177  14.302
90670W        W57079   6.858  22.058   1.804
90671W        W57080   4.878  28.652  10.628
90672W        W57081  20.589  26.151  12.729
90673W        W57082  14.557  23.143  14.387
90674W        W57083   5.698   6.969   1.389
90675W        W57084  15.393  21.028  10.167
90676W        W57085  10.559  44.803   3.007
90677W        W57086  10.384  25.412  13.486
90678W        W57087  21.219  16.132   3.616
90679W        W57088  41.928  20.078  11.173
90680W        W57089  39.373  38.524  10.393
90681W        W57090  41.485   7.703  13.883
90682W        W57091  20.395  24.547   2.755
90683W        W57092  39.519  37.753  14.986
90684W        W57093  16.282  34.004  12.521
90685W        W57094  23.824  41.864  11.223
90686W        W57095  32.718  42.457   0.266
90687W        W57096  27.764   1.816  13.462
90688W        W57097  18.234  38.882  10.900
90689W        W57098  39.303  31.972  11.266
90690W        W57099  16.693   6.768  10.568
90691W        W57100  27.122  20.165  12.060
90692W        W57101  20.128   2.505   1.338
90693W        W57102  19.030  15.376   2.595
90694W        W57103   0.923  39.588   3.715
90695W        W57104  25.891  25.410  13.000
90696W        W57105   6.167  27.714   0.437
90697W        W57106  27.521  29.077  14.887
90698W        W57107  19.449  39.712  12.833
90699W        W57108  24.513   7.501  13.334
90700W        W57109   5.758  10.483  13.604
90701W        W57110  10.853  24.731   0.376
90702W        W57111  41.349  28.703  14.740
90703W        W57112  27.627  24.003   3.490
90704W        W57113   9.903  11.129  13.359
90705W        W57114  27.387  12.231  14.925
90706W        W57115   0.305  22.029   0.996
90707W        W57116  16.545  19.464  14.230
90708W        W57117  28.890   8.743  13.999
90709W        W57118  24.999  42.840   1.758
90710W        W57119  14.247  13.558  13.952
90711W        W57120   6.403   1.074   5.017
90712W        W57121   9.397  35.057  14.374
90713W        W57122  11.650  14.746  11.364
90714W        W57123  23.585  25.374  11.964
90715W        W57124  17.719   4.402   2.457
90716W        W57125   9.784   0.777  11.594
90717W        W57126  15.401  31.025   0.334
90718W        W57127   8.820   7.138   1.799
90719W        W57128   5.639  20.081  10.644
90720W        W57129   5.359  26.246   3.716
90721W        W57130  12.144   4.262   3.535
90722W        W57131  13.126  16.520   2.166
90723W        W57132  44.898  31.538  10.743
90724W        W57133   3.253  28.496  12.621
90725W        W57134  42.088  25.975   4.137
90726W        W57135  34.118  38.478   4.424
90727W        W57136  34.389  10.282  13.969
90728W        W57137  31.154   8.895  11.938
90729W        W57138  33.923  19.152  12.043
90730W        W57139   9.103  17.689   1.421
90731W        W57140  26.426   8.237  14.848
90732W        W57141  27.958  43.511   3.114
90733W        W57142  13.123  15.778   0.670
90734W        W57143   0.307  26.117   2.127
90735W        W57144  22.930  30.532  12.104
90736W        W57145  42.720  31.372  13.077
90737W        W57146  24.011  24.347   0.925
90738W        W57147  35.894  11.709   2.272
90739W        W57148  10.285  14.741   4.286
90740W        W57149  39.895   2.474   3.201
90741W        W57150  40.664  11.218  12.856
90742W        W57151  35.603  22.305   1.394
90743W        W57152   6.195  30.467   4.063
90744W        W57153  20.135  32.850  14.894
90745W        W57154  18.091  14.203   3.062
90746W        W57155   7.648  21.279   2.248
90747W        W57156   5.873  20.167  12.016
90748W        W57157  34.418  29.832  14.992
90749W        W57158  11.559  18.919   0.948
90750W        W57159   3.867  23.117  14.842
90751W        W57160  21.413  26.160  12.006
90752W        W57161  17.611   3.032   4.251
90753W        W57162  36.402   3.854   3.081
90754W        W57163  16.658  27.839   1.215
90755W        W57164   4.449  31.550   0.730
90756W        W57165  40.974   2.006   1.895
90757W        W57166  18.250   4.397   3.769
90758W        W57167   8.227  35.751   2.221
90759W        W57168   4.131  12.739   0.455
90760W        W57169  32.900  18.800   0.865
90761W        W57170  42.882   7.057   2.795
90762W        W57171  11.386  22.946   1.497
90763W        W57172   8.664  20.820  14.307
90764W        W57173  21.046  22.584   1.542
90765W        W57174  34.013  28.649   4.843
90766W        W57175   5.116  36.931   3.699
90767W        W57176   6.944   4.359  13.350
90768W        W57177  31.006  42.066   3.978
90769W        W57178  20.190  16.396   3.705
90770W        W57179  41.334  43.445   4.829
90771W        W57180   5.368  19.596  13.926
90772W        W57181  15.074   3.260   3.368
90773W        W57182  35.954   4.780   2.601
90774W        W57183  20.000  27.660  14.757
90775W        W57184   0.728  34.376   1.331
90776W        W57185  11.664   8.697  14.769
90777W        W57186  36.990   3.646   2.626
90778W        W57187  22.235   3.915  13.016
90779W        W57188  41.757  28.078   4.584
90780W        W57189  26.610  34.013   4.075
90781W        W57190   7.820  30.622  10.319
90782W        W57191  31.535  14.711   0.465
90783W        W57192  36.395   8.040  13.394
90784W        W57193  35.419  36.902   2.332
90785W        W57194  25.512  11.722   5.106
90786W        W57195  17.273  26.565   3.315
90787W        W57196  38.162  24.062  13.370
90788W        W57197  42.923  21.266   2.764
90789W        W57198  36.995  40.912   2.983
90790W        W57199  14.601  28.480  10.757
90791W        W57200  17.242  34.062   2.889
90792W        W57201  24.780  41.550  11.185
90793W        W57202  16.610  24.974  10.647
90794W        W57203  22.168  21.451  13.851
90795W        W57204  31.583  31.601  13.989
90796W        W57205  35.566  29.485  11.615
90797W        W57206  28.428  20.724   3.240
90798W        W57207  17.103  17.108   2.961
90799W        W57208   5.778   6.596   1.730
90800W        W57209  37.065  38.795  13.553
90801W        W57210  19.880  36.757   1.225
90802W        W57211  27.948  37.580  13.994
90803W        W57212  17.733   8.431  14.315
90804W        W57213  36.778  12.323   0.479
90805W        W57214  19.038   2.781  11.545
90806W        W57215   7.391   1.367  12.953
90807W        W57216  21.905  17.643   4.220
90808W        W57217  17.731  38.929   1.777
90809W        W57218  33.982  13.587   4.716
90810W        W57219  33.421  39.497  11.495
90811W        W57220   8.757  27.019   0.535
90812W        W57221   1.963  32.370  10.551
90813W        W57222  20.128  19.721  13.950
90814W        W57223  10.875   8.717   3.665
90815W        W57224  44.178  34.965   4.105
90816W        W57225  38.914  20.352  10.734
90817W        W57226  13.296  10.702   2.221
90818W        W57227  28.578  43.467  12.800
90819W        W57228  24.498   7.441   4.810
90820W        W57229  28.031  34.173   1.634
90821W        W57230   9.752  15.731   3.707
90822W        W57231   7.715  11.876   0.410
90823W        W57232  25.985  33.872  14.824
90824W        W57233   5.233   9.712  14.709
90825W        W57234  38.580  37.097  10.693
90826W        W57235  33.922  32.214  10.677
90827W        W57236  41.319  33.882  13.540
90828W        W57237   6.934  22.316   2.761
90829W        W57238  12.613   9.061  13.449
90830W        W57239  21.506  32.462   0.830
90831W        W57240  22.225  26.229  13.551
90832W        W57241  17.756  11.260   0.977
90833W        W57242  27.129   3.929   0.870
90834W        W57243  12.594  12.291  13.574
90835W        W57244  35.991  42.731   0.903
90836W        W57245  27.756  11.658   3.756
90837W        W57246  15.077   4.623  12.001
90838W        W57247  39.087  22.119  10.422
90839W        W57248  40.000  27.176   4.745
90840W        W57249   5.837  36.815   4.241
90841W        W57250  14.497  27.478  10.315
90842W        W57251  28.535  22.980  13.970
90843W        W57252  29.445  18.826   4.561
90844W        W57253  21.071  37.316   0.965
90845W        W57254  35.643  15.110  13.063
90846W        W57255  22.043  35.658   1.814
90847W        W57256  13.620   2.674   1.072
90848W        W57257  11.992  20.176  12.374
90849W        W57258  22.656  26.575  13.993
90850W        W57259  21.768   1.777  10.881
90851W        W57260  40.394  35.908   4.217
90852W        W57261  30.604  10.095  11.612
90853W        W57262  42.999  39.343  14.890
90854W        W57263  16.841  25.993   1.300
90855W        W57264  19.594  14.810   4.974
90856W        W57265  33.421  26.345   0.955
90857W        W57266  13.955  18.131   4.636
90858W        W57267  20.194  16.106  12.196
90859W        W57268  11.018  22.758   4.586
90860W        W57269  13.576  35.461   4.708
90861W        W57270  34.499   4.369  11.630
90862W        W57271  16.843  12.122  12.356
90863W        W57272  31.391  37.487  11.541
90864W        W57273   1.349   9.191   2.719
90865W        W57274  28.058  24.558   0.920
90866W        W57275   5.687  17.269  11.187
90867W        W57276   1.648   1.723   3.207
90868W        W57277  21.195  29.162   0.019
90869W        W57278  10.374   1.938  13.771
90870W        W57279  30.371  13.297  13.626
90871W        W57280  33.016  36.353  12.952
90872W        W57281  30.725  19.060   3.131
90873W        W57282  26.496  25.189   4.207
90874W        W57283  24.628  36.716   1.422
90875W        W57284   7.490  43.054   2.176
90876W        W57285  36.887  16.585   2.399
90877W        W57286  29.851  44.734   0.918
90878W        W57287  40.895   9.215   0.650
90879W        W57288  27.780  23.094   3.241
90880W        W57289  37.782   0.803   4.870
90881W        W57290  40.787  27.363  14.102
90882W        W57291  38.164  23.600   0.261
90883W        W57292  44.170  35.404   2.111
90884W        W57293  18.350  37.400   2.798
90885W        W57294   1.746  41.141  10.719
90886W        W57295  39.416  29.375  14.579
90887W        W57296  16.974  36.183  10.260
90888W        W57297  33.539  22.273  14.603
90889W        W57298  17.088  35.434  11.512
90890W        W57299  22.801  25.574   5.024
90891W        W57300  38.812   6.783   3.772
90892W        W57301  20.443  12.268   0.219
90893W        W57302  43.743  13.218  13.882
90894W        W57303  42.841  43.199   0.988
90895W        W57304  42.749  21.899   4.625
90896W        W57305   8.413   0.688   4.153
90897W        W57306  10.614  31.172  14.792
90898W        W57307   0.896  42.911  11.546
90899W        W57308  14.673  22.697   1.876
90900W        W57309  26.457   6.019  14.475
90901W        W57310  18.122  31.469   3.380
90902W        W57311  25.163  16.315   4.832
90903W        W57312  22.238  14.745  11.695
90904W        W57313  25.030   9.636  13.362
90905W        W57314   5.760   8.216  10.594
90906W        W57315   8.229  13.887  13.008
90907W        W57316  31.137  39.775   1.293
90908W        W57317  16.301   9.188   4.319
90909W        W57318  30.511  20.745  12.515
90910W        W57319   9.418  25.488   2.388
90911W        W57320  15.609  38.938  11.845
90912W        W57321  42.109  43.859   0.705
90913W        W57322  38.273  31.163   4.028
90914W        W57323  35.768  34.683   0.265
90915W        W57324  14.811  24.977  10.934
90916W        W57325   7.259  34.083   2.467
90917W        W57326  44.959  27.620  11.085
90918W        W57327  42.897  13.366   5.019
90919W        W57328  39.991  21.607  13.326
90920W        W57329  18.298  38.461   3.749
90921W        W57330   7.620  28.141  12.156
90922W        W57331   6.240  27.436   2.792
90923W        W57332   4.983  30.998   0.366
90924W        W57333  31.407  23.548  10.899
90925W        W57334  23.850  22.513   3.066
90926W        W57335  19.238   3.187  14.467
90927W        W57336  11.135  36.536   1.979
90928W        W57337  34.449  30.464   2.589
90929W        W57338  12.163  44.040  10.234
90930W        W57339   1.459  40.841  12.567
90931W        W57340   7.916   8.070  11.127
90932W        W57341  31.051  25.465  13.900
90933W        W57342  31.487  27.201  12.647
90934W        W57343  44.449  43.225   1.697
90935W        W57344  38.364  35.329  13.965
90936W        W57345  42.732  37.657  10.719
90937W        W57346  17.328   2.985  12.846
90938W        W57347  10.244  23.060   2.551
90939W        W57348  40.888  27.516   2.317
90940W        W57349  40.869  43.324   4.594
90941W        W57350  40.456  30.932   3.140
90942W        W57351   5.928  15.046   3.662
90943W        W57352   6.495  37.959  11.458
90944W        W57353  23.257  36.017   0.350
90945W        W57354  22.321  32.978   4.255
90946W        W57355  24.595   8.462   1.411
90947W        W57356  25.670   6.406   0.877
90948W        W57357  17.809  40.871  13.189
90949W        W57358  33.037  18.148  12.447
90950W        W57359  26.416  16.638  12.046
90951W        W57360  38.922  31.316  11.979
90952W        W57361   7.164  20.236   0.926
90953W        W57362  42.814  29.704   0.688
90954W        W57363   0.287  44.823   2.612
90955W        W57364  15.605  26.574   0.340
90956W        W57365  14.406  15.647  14.062
90957W        W57366  33.403  36.404  10.398
90958W        W57367   9.965   3.222   2.356
90959W        W57368  16.362  33.833  13.486
90960W        W57369  42.031  33.254   1.373
90961W        W57370  20.796  11.719   1.754
90962W        W57371  40.656  37.244  13.434
90963W        W57372  35.085  10.420   3.703
90964W        W57373  12.000  14.717  14.417
90965W        W57374  25.068   8.669   2.141
90966W        W57375   6.921   3.974  14.845
90967W        W57376  19.846   4.315   4.160
90968W        W57377  18.122  41.270  11.923
90969W        W57378  31.563  22.756   3.631
90970W        W57379  44.791  20.980  13.975
90971W        W57380  27.783  17.785  13.725
90972W        W57381  41.364  15.194   3.875
90973W        W57382   0.458  31.104   1.660
90974W        W57383  29.636  32.719  12.179
90975W        W57384  40.803  15.163  11.530
90976W        W57385  30.614  41.020  13.499
90977W        W57386  41.686  30.552   0.907
90978W        W57387  31.292  15.683  14.456
90979W        W57388  26.208  44.729   1.183
90980W        W57389  15.540  39.131   0.322
90981W        W57390  21.163  39.531   2.923
90982W        W57391   0.901  36.209   3.320
90983W        W57392   4.638   6.769   1.264
90984W        W57393  19.634  28.488   3.822
90985W        W57394  17.307  35.615  11.973
90986W        W57395  28.611  38.243   3.232
90987W        W57396  37.008   2.931  12.540
90988W        W57397  37.881  18.805   0.302
90989W        W57398  24.036  32.641  12.991
90990W        W57399   2.582  12.901  13.328
90991W        W57400  23.127  32.444   0.778
90992W        W57401  22.060  21.979  14.226
90993W        W57402  10.845  11.006  12.649
90994W        W57403  40.777  26.961   3.272
90995W        W57404  44.870  24.545  14.138
90996W        W57405  37.028   9.854   4.670
90997W        W57406  13.278  18.193  12.447
90998W        W57407  31.138   6.648  11.249
90999W        W57408  30.610  24.497  11.174
91000W        W57409  19.549  10.713  12.922
91001W        W57410  18.778   4.559   4.498
91002W        W57411  10.882  41.627   0.147
91003W        W57412  30.110  11.432  10.654
91004W        W57413  17.662   4.408  11.936
91005W        W57414  36.536  42.078   2.725
91006W        W57415  21.674  14.628   0.080
91007W        W57416  10.111   6.229   2.559
91008W        W57417  21.680  24.189   0.890
91009W        W57418  19.652  16.827  11.987
91010W        W57419  40.253  26.575  10.284
91011W        W57420  11.650  34.528  11.089
91012W        W57421  21.537   7.522   2.741
91013W        W57422  35.927   0.581   2.280
91014W        W57423   7.229  31.278  11.172
91015W        W57424  36.441  25.460  12.427
91016W        W57425  16.451   7.428  14.846
91017W        W57426  39.208   1.773  14.004
91018W        W57427  44.738  31.866   0.298
91019W        W57428  27.189  28.688  13.891
91020W        W57429  24.390  21.668   0.342
91021W        W57430  38.642  44.694  14.935
91022W        W57431  26.977  22.093   2.160
91023W        W57432  20.290   2.875   3.191
91024W        W57433  34.475   0.335  13.275
91025W        W57434  12.145  29.417   0.153
91026W        W57435  21.193  43.571  11.414
91027W        W57436  34.494   6.108  11.059
91028W        W57437  40.252  27.266  14.730
91029W        W57438   5.902   1.634  10.417
91030W        W57439  22.229  20.429   0.569
91031W        W57440  16.199   2.901   1.721
91032W        W57441  13.229  29.003  11.499
91033W        W57442  14.914  39.024  10.639
91034W        W57443  43.317  41.281   4.771
91035W        W57444  22.913  16.689  13.775
91036W        W57445  21.589   7.738  11.247
91037W        W57446  24.939   1.532  14.059
91038W        W57447  17.972  38.544  12.123
91039W        W57448  32.058   9.183   2.782
91040W        W57449  44.703   7.875   2.834
91041W        W57450  30.995  41.267  12.473
91042W        W57451  44.981  32.142   2.312
91043W        W57452  34.555  43.958  11.131
91044W        W57453  26.290   5.264  14.831
91045W        W57454  24.542   2.630   4.536
91046W        W57455  32.750  23.459  10.661
91047W        W57456  18.798  14.408  11.243
91048W        W57457  20.439  13.204   0.336
91049W        W57458  20.052  11.584  13.779
91050W        W57459  35.498  33.622  13.992
91051W        W57460  30.939  34.347  10.553
91052W        W57461  40.106  26.683  13.023
91053W        W57462  30.714  34.891  13.471
91054W        W57463  18.573   9.190  14.081
91055W        W57464  10.878  20.774   2.391
91056W        W57465  44.068  15.670   0.429
91057W        W57466  36.850  24.274  12.118
91058W        W57467  22.102  29.597   1.767
91059W        W57468   3.282  22.489  11.550
91060W        W57469  40.944  29.968   3.866
91061W        W57470  18.862   5.618   4.608
91062W        W57471   9.368  22.733  12.178
91063W        W57472  34.724   2.863   0.758
91064W        W57473  19.584  27.445   2.711
91065W        W57474  37.164  15.731  13.852
91066W        W57475  37.339  34.634  12.099
91067W        W57476  10.268  22.636   0.381
91068W        W57477  16.432  29.003  11.704
91069W        W57478   8.630  17.458  12.485
91070W        W57479  43.915  10.079  11.230
91071W        W57480  17.625  34.288   1.859
91072W        W57481  10.931  40.028   2.196
91073W        W57482   6.963   2.114   2.619
91074W        W57483  36.107   3.948   4.358
91075W        W57484  41.831  40.853  14.284
91076W        W57485  25.896  37.088  14.279
91077W        W57486   7.784  10.712  13.049
91078W        W57487  41.848   8.583   3.181
91079W        W57488   9.246   2.965   1.453
91080W        W57489  19.517  29.182   1.631
91081W        W57490  14.170  30.495  11.251
91082W        W57491  27.915  27.485  11.519
91083W        W57492  38.416  30.371   2.812
91084W        W57493  27.677   0.712   3.854
91085W        W57494  24.179   4.431   3.671
91086W        W57495  39.028  20.938  11.450
91087W        W57496   6.379   7.250   3.500
91088W        W57497  37.496  19.563  14.999
91089W        W57498  14.251   0.005  14.251
91090W        W57499  19.146  10.775  14.540
91091W        W57500  30.668  44.892  11.954
91092W        W57501   8.799  31.088  13.043
91093W        W57502  19.142  21.639  10.418
91094W        W57503  41.773   6.742   3.528
91095W        W57504   7.647  42.624  12.369
91096W        W57505   0.467  41.376  12.827
91097W        W57506   8.117  25.262  13.345
91098W        W57507   1.949  34.140   1.240
91099W        W57508  10.383  34.188   5.488
91100W        W57509   0.341  37.726  12.550
91101W        W57510  21.288  19.480   5.197
91102W        W57511  42.629  20.016   2.171
91103W        W57512  30.569  38.133   4.233
91104W        W57513  23.180  31.647  11.651
91105W        W57514  42.479  43.038   0.512
91106W        W57515   1.253  30.497  11.134
91107W        W57516   1.907  18.724   3.220
91108W        W57517  29.331  34.459   2.711
91109W        W57518  18.647   1.476   1.137
91110W        W57519   7.976  30.420   5.010
91111W        W57520  44.203  41.520   4.522
91112W        W57521  35.504  27.361  12.963
91113W        W57522   2.432  15.077   3.362
91114W        W57523  26.487  35.126  13.033
91115W        W57524   9.123  22.627  14.681
91116W        W57525  20.185  27.295   4.287
91117W        W57526   7.937   6.412   1.424
91118W        W57527  39.497  44.046   3.765
91119W        W57528  34.258  17.743  14.326
91120W        W57529  44.745  26.697   3.896
91121W        W57530  21.993  39.367  13.390
91122W        W57531  35.931  25.853   0.445
91123W        W57532  22.672  31.444  12.573
91124W        W57533  31.550   7.817   4.645
91125W        W57534  10.216  28.117   3.994
91126W        W57535  33.691   2.908   1.004
91127W        W57536  31.869  17.808   2.494
91128W        W57537   7.875  27.507   4.123
91129W        W57538   7.864   8.275   2.708
91130W        W57539  43.669  22.446   0.387
91131W        W57540  18.257  44.324   0.450
91132W        W57541  38.809   8.085   0.400
91133W        W57542  32.975  20.596  12.195
91134W        W57543  12.662  23.603  14.384
91135W        W57544  33.569  19.185  11.055
91136W        W57545  35.091   0.648  13.075
91137W        W57546  37.285  10.092  12.188
91138W        W57547  16.526  33.284  11.336
91139W        W57548  18.578  16.360  13.860
91140W        W57549   5.327  11.315   2.627
91141W        W57550  15.976  15.636   2.827
91142W        W57551  10.590  40.395   9.992
91143W        W57552  40.491  31.121   3.639
91144W        W57553  41.880  30.135   1.162
91145W        W57554   6.003  13.388   1.181
91146W        W57555  16.737  42.005   1.184
91147W        W57556  11.273   7.951  11.012
91148W        W57557  20.136  18.172  11.560
91149W        W57558  10.313  22.941   3.076
91150W        W57559  15.482  42.935  14.732
91151W        W57560  42.951  16.149  11.353
91152W        W57561  20.690  25.320  11.010
91153W        W57562   8.765  13.095  10.548
91154W        W57563  10.251  10.995   0.940
91155W        W57564  29.669  25.123   0.419
91156W        W57565   5.967  10.109   1.830
91157W        W57566   6.887   1.222   0.704
91158W        W57567  42.061  25.213  11.014
91159W        W57568  16.357  21.708   2.143
91160W        W57569  14.138  37.256   1.255
91161W        W57570  42.005   4.919   0.254
91162W        W57571  11.361  13.760  10.450
91163W        W57572  19.251  10.118   1.307
91164W        W57573  38.894   5.222   4.095
91165W        W57574  41.865  25.117   1.111
91166W        W57575  14.928  31.918  13.470
91167W        W57576  29.115   4.038   3.901
91168W        W57577  27.678  38.924  13.144
91169W        W57578  31.067  19.346   2.789
91170W        W57579   9.515  26.805  12.393
91171W        W57580  17.254  42.696   2.198
91172W        W57581  17.692  23.104  11.588
91173W        W57582  17.107  37.806   2.328
91174W        W57583  26.077  43.092   1.979
91175W        W57584  19.936  33.281  11.727
91176W        W57585  23.336   9.839  11.547
91177W        W57586  37.901   0.447   5.213
91178W        W57587  36.607  23.139   0.769
91179W        W57588   2.484  34.875   2.205
91180W        W57589  27.987   8.249  13.601
91181W        W57590  34.444   1.523  11.535
91182W        W57591  28.193  38.847  14.281
91183W        W57592  17.241  15.174  12.089
91184W        W57593  27.687  42.845  11.178
91185W        W57594  27.381  30.522  12.383
91186W        W57595  44.212  25.460   3.720
91187W        W57596  14.673  26.199   4.899
91188W        W57597   2.230  36.914  13.830
91189W        W57598  41.155  18.474   0.575
91190W        W57599  29.029  12.610  14.325
91191W        W57600   0.483  12.214  11.116
91192W        W57601  25.783  40.506  11.038
91193W        W57602   6.540   1.684  12.929
91194W        W57603  27.104  23.897  14.246
91195W        W57604  23.122  27.452   1.030
91196W        W57605  39.629  38.026  10.502
91197W        W57606  15.912  39.447  14.023
91198W        W57607  36.050  15.131  10.887
91199W        W57608  37.985  35.384   0.327
91200W        W57609  12.162   8.110  14.606
91201W        W57610  21.565   2.885   4.118
91202W        W57611  37.568  39.982   2.340
91203W        W57612  44.270  17.764   1.977
91204W        W57613  24.952  29.673  13.788
91205W        W57614  17.053  13.849  14.826
91206W        W57615  15.234  14.254  10.352
91207W        W57616   5.861  33.882  10.754
91208W        W57617   3.183   2.645  13.951
91209W        W57618   5.276   3.388  13.760
91210W        W57619   9.704  28.382  14.570
91211W        W57620  42.411  44.915  14.606
91212W        W57621  21.719  29.130  14.787
91213W        W57622   9.495  29.581  11.428
91214W        W57623  26.403  37.336   1.393
91215W        W57624  38.753  14.077   2.216
91216W        W57625   5.388   2.504   1.783
91217W        W57626  36.573  35.288   2.217
91218W        W57627  26.391  21.201   0.082
91219W        W57628   8.652  43.756   3.712
91220W        W57629   2.894  22.224   0.445
91221W        W57630  37.285  26.220  13.843
91222W        W57631   1.746  37.559  14.437
91223W        W57632  44.306   9.417   2.369
91224W        W57633  19.541  15.685  10.092
91225W        W57634  16.131  26.234  14.021
91226W        W57635  23.942  30.385  12.072
91227W        W57636  25.171  15.924   4.482
91228W        W57637  22.189  33.214   3.714
91229W        W57638  10.681  41.095   3.612
91230W        W57639  41.547  14.593   1.335
91231W        W57640  37.111  36.357  13.350
91232W        W57641  44.472   9.750   0.828
91233W        W57642   4.956  30.561  10.632
91234W        W57643  28.679  27.131   2.599
91235W        W57644  14.086  16.265   4.380
91236W        W57645  10.766  36.308  12.951
91237W        W57646  21.018  44.543  12.114
91238W        W57647  16.827  36.986  10.111
91239W        W57648  13.142  22.940  11.195
91240W        W57649  14.332  38.418  13.834
91241W        W57650   9.788  41.488  13.333
91242W        W57651  33.375   0.215   4.815
91243W        W57652   1.327  26.172   2.088
91244W        W57653  35.505  25.809  14.977
91245W        W57654  10.322  44.788   4.536
91246W        W57655   3.121  41.294   2.961
91247W        W57656  44.387  15.760  11.689
91248W        W57657  13.542   6.980   3.155
91249W        W57658  20.752   1.950  14.909
91250W        W57659   5.774  23.884   1.661
91251W        W57660  22.550  38.965   2.426
91252W        W57661  33.258  21.534   2.544
91253W        W57662   2.346  18.342  11.165
91254W        W57663  25.026  37.475  12.654
91255W        W57664   3.923  19.247  10.703
91256W        W57665  33.966   8.093  14.900
91257W        W57666  13.654  30.453  11.975
91258W        W57667  41.101  25.564  14.327
91259W        W57668  19.275  33.251  10.576
91260W        W57669  36.969  41.358   0.793
91261W        W57670  37.494   4.696   0.258
91262W        W57671  33.383  27.651  10.838
91263W        W57672  35.525   7.871  12.424
91264W        W57673   4.535  34.846   1.347
91265W        W57674  23.031  34.810   3.945
91266W        W57675   1.973  12.286   0.801
91267W        W57676  39.914  41.503  11.966
91268W        W57677  12.314  17.274   0.605
91269W        W57678  25.687  16.064   2.722
91270W        W57679  39.991  33.161   1.661
91271W        W57680  38.884  38.104  11.566
91272W        W57681  24.229  32.349  11.166
91273W        W57682  42.393  10.308   1.179
91274W        W57683  11.960  13.547   1.074
91275W        W57684  28.991   1.399  13.917
91276W        W57685  11.323  34.611   4.073
91277W        W57686   2.677  20.489   4.204
91278W        W57687  36.872  41.412  11.494
91279W        W57688  21.674  16.696   1.309
91280W        W57689  40.034   7.104   3.265
91281W        W57690  36.087  41.817  14.070
91282W        W57691  28.173  10.788  13.903
91283W        W57692  41.552  31.358   4.570
91284W        W57693  23.882  35.395   4.076
91285W        W57694  42.557  38.496  10.781
91286W        W57695  21.143   9.111  10.551
91287W        W57696   7.177  39.989   0.798
91288W        W57697  29.396  14.063   0.784
91289W        W57698  43.149   2.886  13.427
91290W        W57699  13.156   0.773   4.014
91291W        W57700   7.725  15.628   4.518
91292W        W57701  28.985   4.491   1.630
91293W        W57702  17.479  39.107  11.431
91294W        W57703   2.281  39.399   3.418
91295W        W57704  20.096  41.999  11.507
91296W        W57705  13.244   0.169  12.501
91297W        W57706  21.978   5.380   1.209
91298W        W57707   4.837  37.609  12.035
91299W        W57708  13.899  29.570  10.914
91300W        W57709  41.322  39.284   3.360
91301W        W57710  24.831   9.622   0.483
91302W        W57711  18.219  37.100   0.725
91303W        W57712   5.747  35.998   4.476
91304W        W57713  22.929  18.430   3.556
91305W        W57714  19.224  41.722  11.966
91306W        W57715   3.886   2.823  10.899
91307W        W57716  19.145  29.490  13.190
91308W        W57717   0.300  24.800  13.334
91309W        W57718  37.368   6.178   4.976
91310W        W57719  18.271   0.912   3.142
91311W        W57720  43.468  40.038   4.141
91312W        W57721  30.173   3.332  12.014
91313W        W57722   9.822  39.611  12.942
91314W        W57723  36.018  37.343   0.707
91315W        W57724  23.257   8.715   2.203
91316W        W57725  26.047  44.448   4.872
91317W        W57726  29.128  44.543   4.533
91318W        W57727  25.831  18.014   3.849
91319W        W57728  32.351  25.890  14.244
91320W        W57729  32.436  22.489   1.818
91321W        W57730   0.851  26.697  11.162
91322W        W57731   9.884  39.566  14.326
91323W        W57732  11.747   7.749   1.966
91324W        W57733  20.679  37.086   1.463
91325W        W57734  11.337  18.887  13.972
91326W        W57735   6.033  40.929  13.513
91327W        W57736   0.981  33.358   1.372
91328W        W57737  17.520  41.826  13.986
91329W        W57738   2.823  43.052   1.392
91330W        W57739  25.864  40.263   1.658
91331W        W57740  20.191   7.108   0.940
91332W        W57741   1.466  13.183  14.608
91333W        W57742  20.615  16.406  14.759
91334W        W57743  32.444  33.724  11.413
91335W        W57744  25.191  34.468  14.966
91336W        W57745   4.216  12.790  12.186
91337W        W57746   5.312  27.156   0.263
91338W        W57747  39.434  27.190   2.048
91339W        W57748  29.331  29.156   1.647
91340W        W57749  14.860   1.361   1.811
91341W        W57750  32.307  41.390  14.334
91342W        W57751  24.126  43.245  11.012
91343W        W57752  26.932  11.667  12.892
91344W        W57753  41.459  41.010   4.610
91345W        W57754  23.268  15.602   0.784
91346W        W57755  30.827   1.858   1.726
91347W        W57756  32.659  10.146  12.272
91348W        W57757  22.964   8.074   2.753
91349W        W57758   2.456  32.948   2.191
91350W        W57759  39.347  33.837   2.882
91351W        W57760  40.801  11.271  10.698
91352W        W57761  31.793   2.056   3.314
91353W        W57762  16.007   5.413  13.190
91354W        W57763  26.269  25.948   3.559
91355W        W57764  37.593  28.963  14.403
91356W        W57765  12.418   6.701   4.590
91357W        W57766  19.728  29.450  14.024
91358W        W57767   6.616   4.713  12.840
91359W        W57768  39.115  13.243   9.754
91360W        W57769  32.414  23.985  14.986
91361W        W57770  35.066  43.575  13.964
91362W        W57771  35.845   4.373  11.121
91363W        W57772  43.433  36.443   4.623
91364W        W57773  35.110   0.362  14.362
91365W        W57774  40.060   8.633   2.860
91366W        W57775   0.788   4.876  11.069
91367W        W57776  14.315   1.749   1.473
91368W        W57777  10.201   2.232   4.946
91369W        W57778  10.388  33.887   0.966
91370W        W57779  31.368   3.631   0.474
91371W        W57780  39.322   1.441   0.797
91372W        W57781  28.744  41.249   2.701
91373W        W57782  11.109  39.556   2.362
91374W        W57783   6.897   3.308  11.124
91375W        W57784   2.904  27.084   4.592
91376W        W57785  12.322  19.876  10.144
91377W        W57786  16.953  38.861  10.046
91378W        W57787   3.413   7.330   3.209
91379W        W57788  10.128  44.682  13.294
91380W        W57789   8.250  19.222  13.346
91381W        W57790  34.927   7.479  11.217
91382W        W57791  30.756  26.320   4.057
91383W        W57792  39.309  22.944  10.654
91384W        W57793  26.098  29.699  11.065
91385W        W57794  44.428   2.386   4.178
91386W        W57795   5.370   0.191   1.277
91387W        W57796  17.062   4.946   2.250
91388W        W57797   0.983  12.692   3.705
91389W        W57798  41.971  36.529  12.691
91390W        W57799  29.931  35.221  11.643
91391W        W57800   8.597  40.487   3.677
91392W        W57801   9.291   5.215  14.016
91393W        W57802  24.066  13.103  11.201
91394W        W57803  18.985  40.864  10.800
91395W        W57804  43.842  37.807   0.046
91396W        W57805   0.936  24.738   2.162
91397W        W57806   7.898  17.995  14.914
91398W        W57807   7.357  34.449  14.006
91399W        W57808  37.641   4.830   3.192
91400W        W57809  34.435  21.863  13.959
91401W        W57810  36.176  21.114  14.851
91402W        W57811  37.535  32.403  11.754
91403W        W57812  35.531  10.670   3.904
91404W        W57813  38.978  34.951   2.772
91405W        W57814   4.201  37.423   1.762
91406W        W57815  34.099  39.812   2.259
91407W        W57816  43.707   0.049   2.520
91408W        W57817  11.743  36.112   3.120
91409W        W57818  24.051  32.984   0.345
91410W        W57819  15.855   3.225   0.898
91411W        W57820  12.499  21.067  13.136
91412W        W57821  24.573   1.064   2.340
91413W        W57822  26.019   2.338  11.948
91414W        W57823  14.104  19.314  11.592
91415W        W57824  40.741   1.291   3.223
91416W        W57825  19.204  40.054   4.413
91417W        W57826  26.394  33.726   2.245
91418W        W57827  35.590   8.863   3.640
91419W        W57828  20.735  36.968  10.931
91420W        W57829  11.871  41.291   4.172
91421W        W57830  10.328   6.099   2.107
91422W        W57831  44.229  29.147   3.638
91423W        W57832  37.949   7.528   4.129
91424W        W57833  17.340   5.922  11.419
91425W        W57834  28.786  37.798  11.952
91426W        W57835   0.945  27.464  11.472
91427W        W57836  27.607  42.012  10.635
91428W        W57837  23.255  27.209   2.025
91429W        W57838  20.527  14.295  13.033
91430W        W57839  37.236  26.731   1.799
91431W        W57840   8.767   9.617   4.588
91432W        W57841   7.870  13.367   1.912
91433W        W57842   0.695  40.098   2.727
91434W        W57843  17.402  23.058   0.766
91435W        W57844  37.626  34.468  12.506
91436W        W57845  37.569  28.480  12.118
91437W        W57846  12.622  25.690   2.332
91438W        W57847  15.762  27.927  10.664
91439W        W57848  13.663  34.522  11.054
91440W        W57849  12.188   8.155  14.081
91441W        W57850  36.791  35.396  11.139
91442W        W57851  26.065  38.908   1.698
91443W        W57852  21.456  38.524  11.014
91444W        W57853  18.932  22.269   0.574
91445W        W57854  36.495  15.141   3.748
91446W        W57855   5.839   2.191   1.903
91447W        W57856  12.797  38.546  12.432
91448W        W57857  17.870   5.356   0.186
91449W        W57858  36.990  41.829   2.117
91450W        W57859  40.309   3.761   4.175
91451W        W57860   6.935  37.706  11.462
91452W        W57861  16.599  30.094   0.965
91453W        W57862   1.235  23.206   0.018
91454W        W57863   9.730   1.312   4.136
91455W        W57864  44.398  16.943   4.586
91456W        W57865  35.318  28.309   3.319
91457W        W57866  40.655  35.478  12.131
91458W        W57867   0.423  33.518   2.921
91459W        W57868  33.904  26.425   3.672
91460W        W57869  17.287  43.367  12.662
91461W        W57870  31.118   1.420  11.503
91462W        W57871  28.906  21.188  10.434
91463W        W57872  24.131   1.976   0.495
91464W        W57873  32.487  44.260  11.424
91465W        W57874  19.291   0.894   4.067
91466W        W57875  36.587   7.260   4.235
91467W        W57876  36.042  25.238  11.454
91468W        W57877  18.599  15.690   0.606
91469W        W57878  14.584  38.012   2.135
91470W        W57879   9.612  10.392  11.178
91471W        W57880  22.411  41.094   3.709
91472W        W57881  42.010   1.072   3.831
91473W        W57882  44.895  10.916   4.746
91474W        W57883  36.312  40.937   4.362
91475W        W57884  30.565   7.342   1.347
91476W        W57885  25.794  29.680   2.276
91477W        W57886  29.605  18.014  12.357
91478W        W57887   5.874  41.942   0.763
91479W        W57888  33.861   9.651  14.123
91480W        W57889  43.842  31.544   0.375
91481W        W57890  27.020  24.041  14.737
91482W        W57891   5.668  36.430   1.177
91483W        W57892  22.458  39.389  10.488
91484W        W57893  26.553  21.304   3.710
91485W        W57894  34.449  19.244   1.380
91486W        W57895   8.585  22.245  13.779
91487W        W57896  28.718   4.009  14.941
91488W        W57897  44.762   2.215  13.177
91489W        W57898  27.718  26.527  12.881
91490W        W57899   6.292  10.842  13.064
91491W        W57900  33.660  24.126  14.656
91492W        W57901   2.173  39.565  11.608
91493W        W57902  16.235  25.185   2.028
91494W        W57903  43.306  11.719   0.723
91495W        W57904  31.994  12.699  10.658
91496W        W57905   2.555  15.465  12.598
91497W        W57906  24.895  23.259   2.609
91498W        W57907  37.566  23.507  10.810
91499W        W57908  42.062  22.413  10.078
91500W        W57909   9.795  18.799   2.397
91501W        W57910  27.458   6.494  12.988
91502W        W57911  28.517  31.912  10.743
91503W        W57912  15.741  16.373  11.916
91504W        W57913   7.135  37.027  10.675
91505W        W57914  20.331  35.754   0.375
91506W        W57915  19.315  36.017   2.473
91507W        W57916  13.185  21.028  14.279
91508W        W57917  37.378  19.144  11.032
91509W        W57918   4.479   4.275  13.849
91510W        W57919  40.476  17.865   0.229
91511W        W57920  30.309  13.869  12.945
91512W        W57921  31.308  31.713   0.390
91513W        W57922  13.857   2.120  10.656
91514W        W57923  11.204  13.085  14.538
91515W        W57924  13.108   3.989   1.039
91516W        W57925  32.486  33.533  11.875
91517W        W57926  18.686  30.228  13.772
91518W        W57927  42.040   6.274   4.216
91519W        W57928  16.846  34.180   2.004
91520W        W57929  37.247  43.998   0.368
91521W        W57930  44.811  28.383   1.927
91522W        W57931   2.704  43.577   3.113
91523W        W57932  10.252   9.649   0.854
91524W        W57933  24.135  40.865   4.800
91525W        W57934  13.445   1.918   0.366
91526W        W57935  29.256  33.676   0.937
91527W        W57936   5.786  35.072  11.656
91528W        W57937  24.231  40.369   2.605
91529W        W57938  36.822   0.453   2.723
91530W        W57939  42.309  32.947   0.367
91531W        W57940  19.785  37.509   0.340
91532W        W57941  42.716  20.474   2.419
91533W        W57942  27.040   1.252  13.003
91534W        W57943  38.311  13.405   1.159
91535W        W57944  16.354  21.621  13.045
91536W        W57945  24.038  10.350  13.814
91537W        W57946  30.684  29.157   2.677
91538W        W57947  36.682  21.346  13.065
91539W        W57948  29.152  42.096   2.281
91540W        W57949  10.357   8.321  11.007
91541W        W57950  19.005  38.413  11.993
91542W        W57951  37.811  12.250  12.535
91543W        W57952  10.977   2.381  12.035
91544W        W57953  44.455  37.333  10.000
91545W        W57954  43.310   7.684  14.472
91546W        W57955  30.667  19.188   4.063
91547W        W57956   8.208   0.859   2.826
91548W        W57957  38.886  24.232   2.770
91549W        W57958  33.235  29.130   4.351
91550W        W57959  29.972  43.240  14.947
91551W        W57960  26.861  20.773  10.933
91552W        W57961  40.675  35.002  14.315
91553W        W57962  32.883  33.835   4.762
91554W        W57963  21.636  44.855  12.642
91555W        W57964  44.956   5.958   1.641
91556W        W57965  19.254  30.899  11.849
91557W        W57966  25.380  13.612  13.497
91558W        W57967  43.228  24.390  14.835
91559W        W57968  21.416   7.535   0.883
91560W        W57969   7.213   0.245  13.501
91561W        W57970  43.768  32.014  12.100
91562W        W57971  37.443  39.519  14.978
91563W        W57972  41.286  22.581   2.339
91564W        W57973  29.693  10.717  12.832
91565W        W57974  15.036  32.974  14.524
91566W        W57975   7.221  15.724   2.856
91567W        W57976  25.153  34.569   1.416
91568W        W57977   3.890  44.479   0.981
91569W        W57978  27.597   5.519   2.245
91570W        W57979   1.585  30.271   4.158
91571W        W57980  15.509  13.713  12.004
91572W        W57981  40.552  10.522   1.301
91573W        W57982   8.681  13.819  14.393
91574W        W57983  35.111  15.244  14.478
91575W        W57984   1.744   3.838   4.916
91576W        W57985  33.150   1.692   1.794
91577W        W57986   1.376   6.124   0.422
91578W        W57987  14.575  14.329  13.041
91579W        W57988  44.022  37.494   0.463
91580W        W57989  31.107  14.687  10.553
91581W        W57990  20.831   2.870   3.291
91582W        W57991  39.361  15.706  11.044
91583W        W57992  35.485  33.636  12.075
91584W        W57993   9.372  39.121   1.802
91585W        W57994  26.776  37.403   2.715
91586W        W57995  44.166  43.543  13.101
91587W        W57996  25.125  19.983  14.260
91588W        W57997   5.336  26.627  10.926
91589W        W57998  35.589  27.969  13.972
91590W        W57999  40.908  25.197   4.692
91591W        W58000  30.278  14.670  11.049
91592W        W58001  32.874  30.471  14.327
91593W        W58002   9.822  37.282  14.944
91594W        W58003  29.116  27.996   1.076
91595W        W58004  26.585  20.229  11.846
91596W        W58005  10.682  41.292   2.706
91597W        W58006  11.112  43.202  11.134
91598W        W58007  34.625   9.212  13.834
91599W        W58008  36.033  30.408   1.639
91600W        W58009  22.061  39.912  13.592
91601W        W58010  11.102  44.830   2.940
91602W        W58011  36.118  37.788  12.200
91603W        W58012  21.673  42.273  13.596
91604W        W58013  15.676  37.826  10.756
91605W        W58014   1.173  33.844   0.590
91606W        W58015   5.986  18.205   4.093
91607W        W58016  42.657  21.030  11.637
91608W        W58017  30.894  33.888   3.378
91609W        W58018   1.053  44.791   0.737
91610W        W58019  33.508  35.928   4.157
91611W        W58020  30.979   0.940   4.710
91612W        W58021  41.126  25.682  13.482
91613W        W58022  26.537  33.223  12.328
91614W        W58023  38.854   8.629   2.636
91615W        W58024  44.255  35.751   2.925
91616W        W58025   2.388   4.868  14.962
91617W        W58026   6.322  17.104   3.349
91618W        W58027  33.015  13.204  12.555
91619W        W58028   1.815  34.897   4.524
91620W        W58029   7.433  21.500   1.349
91621W        W58030  40.121  26.187   4.795
91622W        W58031  29.829  28.954  11.063
91623W        W58032  20.067  22.298   1.385
91624W        W58033  19.537   2.449   0.811
91625W        W58034  44.788   0.508  13.550
91626W        W58035  43.842  10.886   1.844
91627W        W58036  25.152   7.652  14.907
91628W        W58037  22.492  38.989   2.934
91629W        W58038  23.008  27.602  13.983
91630W        W58039  30.853  23.433  12.904
91631W        W58040   1.132  20.177   1.402
91632W        W58041  44.690  20.952   2.710
91633W        W58042  26.660  41.238  13.944
91634W        W58043  31.512  17.403   4.504
91635W        W58044  39.313  11.567  10.641
91636W        W58045  40.065  43.584  13.822
91637W        W58046   9.724  15.676  13.277
91638W        W58047  25.835  33.815   1.303
91639W        W58048  30.278  10.348   1.336
91640W        W58049   4.337  23.567   0.825
91641W        W58050  10.737   7.903   2.984
91642W        W58051  41.992  18.147  10.743
91643W        W58052  37.047  13.941   2.962
91644W        W58053  44.274  44.010   3.077
91645W        W58054   6.282  42.124  13.964
91646W        W58055  41.323  25.029  11.614
91647W        W58056  26.042  27.046   1.506
91648W        W58057  31.381  27.384  11.057
91649W        W58058   6.675   4.426  10.746
91650W        W58059  23.964  13.693   0.941
91651W        W58060  30.484  37.219  13.443
91652W        W58061  21.515   4.304  10.093
91653W        W58062  11.422  13.408   1.758
91654W        W58063  24.159  28.666   2.634
91655W        W58064  25.924  42.047   0.633
91656W        W58065  30.174  43.763  12.767
91657W        W58066  38.540  31.827   0.523
91658W        W58067   5.288  10.736   1.295
91659W        W58068  10.490  26.099  13.987
91660W        W58069  42.322  34.118   2.361
91661W        W58070  33.948  32.482   0.305
91662W        W58071  42.428   6.911   0.705
91663W        W58072  29.959  38.495   0.671
91664W        W58073  24.716  34.573   1.784
91665W        W58074  36.173  39.827   1.854
91666W        W58075  36.576  16.737   1.705
91667W        W58076  32.924  44.979  10.661
91668W        W58077  41.926   4.409   0.235
91669W        W58078   9.752  20.022  14.684
91670W        W58079  25.978  20.212  11.104
91671W        W58080  21.876   1.553   3.142
91672W        W58081  39.088  19.144  11.939
91673W        W58082  19.999  44.219   1.371
91674W        W58083  19.503  25.165   0.832
91675W        W58084  35.914  35.339  11.207
91676W        W58085  28.662  37.662  13.907
91677W        W58086   4.836  25.587  14.100
91678W        W58087  12.245   9.220   1.058
91679W        W58088  30.562   8.718  12.977
91680W        W58089  36.462  42.922  14.152
91681W        W58090   9.618  19.732   0.173
91682W        W58091  25.106  22.565   4.602
91683W        W58092  30.692  44.844   2.260
91684W        W58093  10.624  23.144  13.601
91685W        W58094  14.487  18.318   4.113
91686W        W58095  27.217  10.649   4.086
91687W        W58096  41.205  16.656  11.589
91688W        W58097  18.506   5.228  11.605
91689W        W58098  28.559  22.295   1.730
91690W        W58099   3.419   8.331   4.147
91691W        W58100  24.182   4.692   0.400
91692W        W58101  37.244   9.110   4.780
91693W        W58102  32.790  32.255  10.202
91694W        W58103  25.666  29.889  14.945
91695W        W58104  16.802   4.402   2.421
91696W        W58105  42.928   0.075  11.944
91697W        W58106  44.707  29.968  13.462
91698W        W58107  43.206  23.789   3.888
91699W        W58108  16.541  37.042   3.708
91700W        W58109  36.803  17.199  10.292
91701W        W58110  22.988  43.303   4.304
91702W        W58111  24.760  16.021   2.584
91703W        W58112  11.634  35.311  13.068
91704W        W58113  15.169  36.079   2.699
91705W        W58114  28.519   9.223  12.039
91706W        W58115  37.808  26.742  11.285
91707W        W58116  42.812  21.969  11.094
91708W        W58117  15.292  13.773  13.810
91709W        W58118  11.570  26.873   4.519
91710W        W58119  31.382   6.437  12.980
91711W        W58120   1.314   0.249   0.965
91712W        W58121   1.374  10.640  14.781
91713W        W58122  29.122   4.224   1.213
91714W        W58123  37.386   0.789   3.053
91715W        W58124  21.906  35.564  11.658
91716W        W58125   0.327  25.574   1.977
91717W        W58126   9.207  16.034   9.993
91718W        W58127  44.235  30.057   0.327
91719W        W58128  14.680  24.922   0.838
91720W        W58129  35.530   3.309   4.615
91721W        W58130  37.485  26.269   3.178
91722W        W58131  26.085  25.418  14.579
91723W        W58132  27.962   8.005   4.007
91724W        W58133   0.998  35.531  11.974
91725W        W58134  14.567  21.695   2.757
91726W        W58135   1.241  28.014  11.566
91727W        W58136  43.483  40.335  10.700
91728W        W58137  33.913  27.987   2.579
91729W        W58138   8.759  25.490   1.735
91730W        W58139   0.245  36.016   1.793
91731W        W58140  13.836  20.720   2.143
91732W        W58141  10.096  35.188  12.017
91733W        W58142  14.097  15.230   0.185
91734W        W58143   2.937  38.520  13.839
91735W        W58144  29.436   8.439  11.006
91736W        W58145  38.754  23.025  12.489
91737W        W58146  41.219  30.364   3.649
91738W        W58147  40.474  12.427  14.971
91739W        W58148  37.355  32.457   4.751
91740W        W58149  11.206  33.386  13.442
91741W        W58150  21.938  16.311   0.761
91742W        W58151  30.488  10.598  13.902
91743W        W58152  42.606   1.344  12.171
91744W        W58153  36.637  33.672  11.414
91745W        W58154  23.642   8.852  13.284
91746W        W58155   6.386  15.303  12.500
91747W        W58156  42.032  11.206  13.151
91748W        W58157  32.729   9.269   3.335
91749W        W58158  37.592   7.698   3.801
91750W        W58159   0.232  30.112  14.472
91751W        W58160   5.386   4.001  13.025
91752W        W58161  36.633  26.110   1.250
91753W        W58162  14.394  37.319   3.704
91754W        W58163  33.901  22.221  10.621
91755W        W58164   3.842  10.931   1.777
91756W        W58165   2.875  34.574  12.186
91757W        W58166  14.438  31.611   1.429
91758W        W58167   0.780  11.858  10.850
91759W        W58168  18.936   3.688  13.077
91760W        W58169  25.521  38.556  14.266
91761W        W58170   8.671  38.482  13.137
91762W        W58171  43.498  16.854  12.075
91763W        W58172  13.255   8.707   4.112
91764W        W58173  27.985  17.485   4.535
91765W        W58174   0.432  22.100   1.492
91766W        W58175   4.525  23.119  14.474
91767W        W58176  31.598   1.248   3.133
91768W        W58177   8.314   8.441  12.705
91769W        W58178  22.465  14.238  11.613
91770W        W58179  38.304  32.069   1.871
91771W        W58180  44.546  11.286   4.782
91772W        W58181  41.075  18.275  13.360
91773W        W58182  42.010  23.201  13.475
91774W        W58183   8.788  38.572   1.001
91775W        W58184  17.837  20.678  10.742
91776W        W58185  17.147  23.273   2.610
91777W        W58186  19.752  14.319   5.168
91778W        W58187  23.998  10.822  14.940
91779W        W58188  23.467  30.979   3.281
91780W        W58189  27.119  22.301  14.049
91781W        W58190   7.658  19.726   2.594
91782W        W58191  19.229  41.581   0.475
91783W        W58192  25.247  42.581   3.750
91784W        W58193  29.181  12.128  14.799
91785W        W58194   7.456  29.838   3.766
91786W        W58195  18.907  28.462  14.920
91787W        W58196  27.193  13.844   2.191
91788W        W58197  25.579  30.673  10.766
91789W        W58198  39.606   4.260   0.784
91790W        W58199  26.205  20.624  11.699
91791W        W58200  36.790  19.634  12.965
91792W        W58201   4.412  10.614   3.895
91793W        W58202  23.457  41.452  14.846
91794W        W58203  20.188  43.401   3.826
91795W        W58204   7.232  24.536   0.234
91796W        W58205  25.563  28.053  13.795
91797W        W58206  35.388  13.077   4.254
91798W        W58207   6.318   3.950   2.558
91799W        W58208   1.605  44.715  12.061
91800W        W58209  41.343  25.707  11.221
91801W        W58210  40.986  43.281  11.886
91802W        W58211  21.574  16.303  10.603
91803W        W58212  12.169  32.344   5.646
91804W        W58213  30.158  27.393   2.832
91805W        W58214  21.538  26.733  12.950
91806W        W58215  19.737   0.236  14.966
91807W        W58216   4.762  19.130  10.906
91808W        W58217  28.829   5.906  13.870
91809W        W58218  27.492  27.840  11.480
91810W        W58219  44.727  26.205  14.269
91811W        W58220  20.965   5.175   3.732
91812W        W58221   8.844  25.674   0.167
91813W        W58222  36.562  24.550  13.443
91814W        W58223  38.321  11.776  12.468
91815W        W58224   9.422  10.552   3.271
91816W        W58225  40.981   1.466   4.073
91817W        W58226  38.284  18.423   1.788
91818W        W58227  43.388  27.537  13.012
91819W        W58228  26.100  12.349   3.224
91820W        W58229   1.817  42.576   1.443
91821W        W58230   5.635  30.130  13.421
91822W        W58231  15.645  36.240  12.622
91823W        W58232   8.960  16.562   2.236
91824W        W58233   8.166  39.326  13.432
91825W        W58234   3.920   1.733   1.504
91826W        W58235  38.876   9.220   1.726
91827W        W58236   9.455  30.159  11.306
91828W        W58237   5.319  30.429   2.703
91829W        W58238  38.537  38.300  12.949
91830W        W58239  36.139  30.418  10.663
91831W        W58240  19.546  10.092   0.320
91832W        W58241   4.246  27.880  11.968
91833W        W58242  28.648  13.142  11.650
91834W        W58243  36.339  16.268  11.444
91835W        W58244   8.154  36.399  13.398
91836W        W58245  42.250   4.332  12.400
91837W        W58246  26.497  26.126  12.939
91838W        W58247  18.829   1.568  13.351
91839W        W58248  28.365   7.631   0.395
91840W        W58249  44.436  31.327   3.833
91841W        W58250  12.563  34.863  11.461
91842W        W58251  15.223  29.674  10.768
91843W        W58252  19.428  29.380  11.117
91844W        W58253  40.791  37.052  12.971
91845W        W58254  36.904  12.551  14.027
91846W        W58255  44.368  44.635   0.325
91847W        W58256  18.683  17.242  11.923
91848W        W58257  15.851  35.420   2.693
91849W        W58258  15.459  38.125   4.134
91850W        W58259  31.152  44.751  10.604
91851W        W58260  28.347  10.644  14.444
91852W        W58261  12.945  12.276   2.498
91853W        W58262  19.209  34.057   2.210
91854W        W58263  16.629  32.359   3.183
91855W        W58264  38.625   8.870  11.155
91856W        W58265  36.065  17.805  14.394
91857W        W58266   5.311  19.794   2.165
91858W        W58267  20.181  29.118  10.698
91859W        W58268  10.214  16.621   0.707
91860W        W58269  10.898  25.198  11.675
91861W        W58270  26.693  24.717  14.309
91862W        W58271   6.002  34.154  11.753
91863W        W58272  25.752  30.971  14.505
91864W        W58273  42.562   2.419  11.674
91865W        W58274  31.920  12.706   2.968
91866W        W58275   1.879   3.306  10.714
91867W        W58276  44.223  24.817   0.929
91868W        W58277  20.520   9.665  14.935
91869W        W58278  10.782   9.690  14.783
91870W        W58279  13.012  28.060  14.279
91871W        W58280  20.628   6.826   0.815
91872W        W58281   1.401  30.613  13.545
91873W        W58282  27.411  18.664   4.102
91874W        W58283  28.114  18.180   0.040
91875W        W58284   5.034  35.319  11.847
91876W        W58285  29.894  13.314  13.426
91877W        W58286  42.311  24.659   4.012
91878W        W58287   7.249  23.247   0.828
91879W        W58288  32.158  40.652   2.789
91880W        W58289  28.537   9.127  12.582
91881W        W58290  43.109  29.352  10.332
91882W        W58291   2.982   3.400   2.081
91883W        W58292  19.336  18.705  14.413
91884W        W58293  32.013   1.826  10.557
91885W        W58294  10.018  13.844   2.053
91886W        W58295  28.062  19.932  13.904
91887W        W58296  21.658  20.756   3.703
91888W        W58297  34.427  10.389   4.965
91889W        W58298   2.336  41.880  12.652
91890W        W58299  18.298  42.940  14.890
91891W        W58300  17.207   3.926  13.783
91892W        W58301  33.515  33.996   0.364
91893W        W58302   2.006   9.988   1.096
91894W        W58303  26.952   5.656   0.953
91895W        W58304  17.679  41.059  11.198
91896W        W58305  39.746  16.749   3.149
91897W        W58306  33.112  23.933   0.842
91898W        W58307  24.118  18.626  13.274
91899W        W58308  12.194  17.036  14.620
91900W        W58309   9.366  26.134   0.864
91901W        W58310   6.926   4.795  13.895
91902W        W58311  14.343   6.179   0.397
91903W        W58312  33.976  13.216  10.557
91904W        W58313  12.094  20.498  11.988
91905W        W58314  19.855  41.454   0.774
91906W        W58315  14.252  11.843  10.898
91907W        W58316   3.089   1.993   2.356
91908W        W58317  38.001  23.986   4.505
91909W        W58318  37.541  10.662  10.594
91910W        W58319  30.600  41.411  11.623
91911W        W58320   6.201  11.246   4.289
91912W        W58321  39.475  18.248   3.584
91913W        W58322  37.301  29.113   3.465
91914W        W58323  12.194  32.115  14.819
91915W        W58324  13.822  32.251  11.010
91916W        W58325  17.233  19.048   4.133
91917W        W58326  25.983  16.334   3.460
91918W        W58327  41.770  13.732  11.919
91919W        W58328  10.640   8.780   0.365
91920W        W58329  10.146  28.013   2.720
91921W        W58330  15.129  40.505   4.611
91922W        W58331  25.786   8.645  12.660
91923W        W58332  41.295  36.922  12.087
91924W        W58333  16.430  23.076  14.052
91925W        W58334  34.403  43.978   4.529
91926W        W58335  15.007  42.475  14.251
91927W        W58336  24.253  12.155   1.829
91928W        W58337  33.325  24.344   1.688
91929W        W58338  26.893  31.456   2.688
91930W        W58339  39.237  12.307  12.034
91931W        W58340  25.468  42.469   4.530
91932W        W58341  35.115   3.821  10.405
91933W        W58342  43.301  24.542  13.338
91934W        W58343  11.432  27.363   4.403
91935W        W58344  35.879   7.876  10.739
91936W        W58345   0.868  20.584   1.728
91937W        W58346  30.902   0.075  12.994
91938W        W58347  24.126  15.646  12.540
91939W        W58348  14.004  18.094   4.121
91940W        W58349  25.130  22.151   0.279
91941W        W58350  21.501  14.439  11.624
91942W        W58351  18.188  15.588  10.879
91943W        W58352  20.785   5.269   2.382
91944W        W58353  10.818   3.921  11.176
91945W        W58354  37.645  23.091   1.838
91946W        W58355  18.550  31.198   0.914
91947W        W58356   2.259  44.457  13.469
91948W        W58357  19.133  12.608   4.132
91949W        W58358  37.633  27.599   4.193
91950W        W58359  14.066  32.056   3.186
91951W        W58360  41.509  36.114  12.076
91952W        W58361  14.035  34.069  12.109
91953W        W58362  24.010  26.721   2.581
91954W        W58363  44.028  20.999   2.315
91955W        W58364   5.821  33.328  12.381
91956W        W58365  27.232  24.226  11.167
91957W        W58366   9.247  38.009   0.042
91958W        W58367  24.233   7.227  11.210
91959W        W58368  23.593  23.916   3.211
91960W        W58369  10.066   8.036  11.580
91961W        W58370  38.763  11.558  12.605
91962W        W58371   8.631  37.561   0.735
91963W        W58372  31.781  21.616   5.053
91964W        W58373  19.032   2.845  10.710
91965W        W58374  12.199  33.418   3.543
91966W        W58375  11.482  36.577   3.778
91967W        W58376  18.304  40.541   1.851
91968W        W58377  42.582  30.569  11.254
91969W        W58378  29.862  30.911   2.089
91970W        W58379  41.222  23.619   3.494
91971W        W58380  14.511  36.435  11.537
91972W        W58381   1.642  37.334  11.567
91973W        W58382  35.904  39.835   4.506
91974W        W58383   8.109  21.529   2.784
91975W        W58384  35.026  13.333  11.283
91976W        W58385   9.363  37.760   0.987
91977W        W58386  21.051  23.762   4.090
91978W        W58387  27.656  28.670  14.576
91979W        W58388  39.865  26.028  14.473
91980W        W58389  27.983  39.482  13.734
91981W        W58390   3.932   6.855   2.379
91982W        W58391  13.742  38.350   0.002
91983W        W58392   5.189   4.853  11.184
91984W        W58393  19.560   2.689  11.570
91985W        W58394  39.246  35.016  14.017
91986W        W58395  15.253  43.426   4.223
91987W        W58396  33.568  14.513  11.608
91988W        W58397  38.359  21.290   4.581
91989W        W58398  34.852  29.973  11.097
91990W        W58399  25.977   2.478  11.401
91991W        W58400  21.621  37.546  11.570
91992W        W58401  28.102  17.116   1.875
91993W        W58402  13.699  20.300   3.758
91994W        W58403   8.882  28.436   1.090
91995W        W58404  29.535  25.922  13.437
91996W        W58405  18.453  29.747  11.099
91997W        W58406   4.568  24.589   2.304
91998W        W58407  34.950  40.570   1.786
91999W        W58408   4.767  44.160   0.802
92000W        W58409  25.977  13.097   4.068
92001W        W58410  16.394   7.280  12.934
92002W        W58411  38.042  14.292   2.048
92003W        W58412   3.248  24.215  13.136
92004W        W58413  31.156  26.712  11.529
92005W        W58414   8.729   0.193   2.888
92006W        W58415  34.095   3.425  13.259
92007W        W58416  32.991  15.330   1.639
92008W        W58417  30.127   7.090   1.221
92009W        W58418   2.810  21.539   4.035
92010W        W58419  14.998  22.355  12.866
92011W        W58420  36.301  30.422  14.859
92012W        W58421  14.767  37.596   1.524
92013W        W58422   7.812  23.753   9.992
92014W        W58423  21.066  25.483   4.358
92015W        W58424  34.918  23.251   2.722
92016W        W58425  30.389  44.844   1.778
92017W        W58426  32.359  10.141   9.681
92018W        W58427   4.616  19.597  13.479
92019W        W58428  24.354   1.054   3.874
92020W        W58429  12.077   5.819  12.028
92021W        W58430  39.122  32.998   1.065
92022W        W58431  38.538  16.029   2.295
92023W        W58432  32.171  43.597  10.612
92024W        W58433  44.412  41.751   1.639
92025W        W58434  23.519  20.802   0.937
92026W        W58435   7.499  21.986   2.205
92027W        W58436  44.031  20.481   2.313
92028W        W58437  18.619  30.569   0.036
92029W        W58438  32.028  10.009  14.360
92030W        W58439  38.500  35.187   2.703
92031W        W58440  38.587   1.865   1.868
92032W        W58441   9.630  39.557   3.639
92033W        W58442  37.105  43.079  14.463
92034W        W58443  14.255  27.768  13.027
92035W        W58444  36.205  15.852  12.006
92036W        W58445   5.268  30.235  12.951
92037W        W58446   3.946  25.369  14.270
92038W        W58447  13.787   4.843  13.905
92039W        W58448   4.944  40.298  14.177
92040W        W58449  44.676  10.663   2.232
92041W        W58450  23.620   4.361  14.923
92042W        W58451  19.843  42.932  11.644
92043W        W58452  25.835  27.080  12.446
92044W        W58453  11.645  39.490   2.351
92045W        W58454   3.220  19.886  12.511
92046W        W58455   1.324  28.051  14.834
92047W        W58456  10.814  30.443  14.953
92048W        W58457  14.324  36.259   5.535
92049W        W58458  28.080  15.296  13.254
92050W        W58459   4.865  40.533  12.696
92051W        W58460  13.643   7.848  14.393
92052W        W58461  21.259  16.379   1.493
92053W        W58462   3.290  12.933  14.348
92054W        W58463  33.798  25.130   0.885
92055W        W58464  17.600  16.741  13.751
92056W        W58465  10.823  13.858   3.758
92057W        W58466  16.303  25.909   1.300
92058W        W58467  44.062  39.092  12.103
92059W        W58468   3.722   9.747  10.779
92060W        W58469  43.890  12.829  12.991
92061W        W58470  37.449   2.466  12.038
92062W        W58471   2.871  23.083  14.469
92063W        W58472  16.214  13.619  14.344
92064W        W58473  35.044  43.014   3.969
92065W        W58474  38.141  20.765  12.495
92066W        W58475   0.781   4.739  11.962
92067W        W58476  41.306   9.623  12.983
92068W        W58477   3.803  23.896   4.632
92069W        W58478  19.545  28.972  14.871
92070W        W58479  18.799  40.556   4.234
92071W        W58480  27.438   5.077  11.411
92072W        W58481  32.424   0.347   4.953
92073W        W58482  26.154  24.587   1.751
92074W        W58483   8.978  37.370  13.899
92075W        W58484   3.015  18.460   4.095
92076W        W58485  15.257  30.225  13.862
92077W        W58486  10.144   5.860   0.276
92078W        W58487  42.878   8.335   2.364
92079W        W58488  40.466   4.676   1.417
92080W        W58489  43.704  25.475   1.215
92081W        W58490  44.052  28.634  12.525
92082W        W58491   6.242  10.408   0.247
92083W        W58492  33.969  36.430  14.046
92084W        W58493   2.806  31.169   1.665
92085W        W58494  28.151   9.875   1.746
92086W        W58495  43.779   1.902   3.767
92087W        W58496  15.079  20.758  14.794
92088W        W58497  19.260  20.177  12.036
92089W        W58498  21.178  41.481   3.741
92090W        W58499  16.998  42.550  10.523
92091W        W58500   8.226   8.236  14.903
92092W        W58501  41.500  20.143  14.172
92093W        W58502  37.861  42.890  13.801
92094W        W58503  41.174  33.441  12.586
92095W        W58504  30.723  31.710  10.680
92096W        W58505  40.944  28.479  13.461
92097W        W58506  26.425  14.609  12.668
92098W        W58507   8.036  11.674   2.748
92099W        W58508  42.464   4.687   2.858
92100W        W58509   0.883  16.137   2.790
92101W        W58510  36.389   4.076   3.943
92102W        W58511  18.138  20.096   1.273
92103W        W58512  25.092  11.822  10.532
92104W        W58513   4.011  24.585   0.323
92105W        W58514  20.366   2.921  12.972
92106W        W58515  11.126   3.403  12.904
92107W        W58516   7.693  30.096   3.362
92108W        W58517  17.812   6.331  12.689
92109W        W58518   6.058  21.921   5.477
92110W        W58519   5.891  20.365   2.748
92111W        W58520  25.246  37.440  14.892
92112W        W58521  18.613  34.036   3.316
92113W        W58522  30.630  10.480   5.063
92114W        W58523   2.259  41.006   0.530
92115W        W58524  22.721  23.738   4.607
92116W        W58525   6.813  15.602  12.414
92117W        W58526  39.962  40.796  11.173
92118W        W58527  20.804  15.595   0.309
92119W        W58528  15.806  40.042  10.190
92120W        W58529  18.608  28.017   3.192
92121W        W58530  30.566  20.633   3.608
92122W        W58531  19.185  13.094   4.694
92123W        W58532  44.225  24.266   2.180
92124W        W58533   2.694  20.316  14.832
92125W        W58534  36.393  40.417  13.103
92126W        W58535  44.778  17.375   3.254
92127W        W58536  38.530  42.240  13.858
92128W        W58537  27.123   8.403   1.783
92129W        W58538  12.851  28.688  13.355
92130W        W58539   7.770  18.177   3.733
92131W        W58540  21.659  17.237   4.014
92132W        W58541  16.280  44.947   4.071
92133W        W58542  27.672  17.612   1.131
92134W        W58543   1.377  27.350   1.470
92135W        W58544  12.564  40.543   2.780
92136W        W58545  21.723  43.937   2.340
92137W        W58546  32.148  32.423   1.409
92138W        W58547   4.320  14.713  14.243
92139W        W58548  28.481  24.475  10.618
92140W        W58549  12.462  43.161   4.160
92141W        W58550  42.031   5.185  14.256
92142W        W58551  30.056  19.094  12.046
92143W        W58552   9.154   3.783  14.325
92144W        W58553  25.666   1.014  12.581
92145W        W58554   5.249  12.841  12.988
92146W        W58555   2.327   8.150  13.126
92147W        W58556  30.470   7.949   4.141
92148W        W58557   0.795  18.833   1.471
92149W        W58558  28.401  11.344   1.900
92150W        W58559  28.461  16.684   4.667
92151W        W58560  31.173  13.804  11.964
92152W        W58561  21.882   7.225   4.967
92153W        W58562   8.776  21.077   2.958
92154W        W58563  38.924   1.988   3.746
92155W        W58564   0.034   7.816  14.876
92156W        W58565  30.132   6.514  14.103
92157W        W58566  35.585  21.290  11.268
92158W        W58567  22.611  10.664   1.983
92159W        W58568  37.893  16.052   1.565
92160W        W58569  30.311  36.987   4.631
92161W        W58570  12.321   8.395  11.796
92162W        W58571  14.185  15.843   2.527
92163W        W58572  42.332  19.580   2.835
92164W        W58573  34.163   1.945   4.733
92165W        W58574   8.403  26.939   1.353
92166W        W58575  37.319  38.528  12.445
92167W        W58576  21.023   3.817   1.732
92168W        W58577  27.062  36.718   1.608
92169W        W58578  33.101  27.423  14.383
92170W        W58579  23.490  35.953  14.865
92171W        W58580  19.766  25.097  11.320
92172W        W58581  16.601  39.276   1.218
92173W        W58582  16.553  11.297   3.347
92174W        W58583  15.527  37.890   1.699
92175W        W58584  43.059  22.080  13.507
92176W        W58585  20.121  17.100   0.636
92177W        W58586  32.851  17.716  14.300
92178W        W58587  28.185  26.746  12.797
92179W        W58588   7.143  22.638  12.817
92180W        W58589  34.947  14.441   4.806
92181W        W58590  17.659  32.687  14.452
92182W        W58591  13.717  30.170   1.235
92183W        W58592  33.383  13.090  13.049
92184W        W58593  22.875  12.183  12.917
92185W        W58594  36.841  20.052  11.210
92186W        W58595  37.954  43.395  12.087
92187W        W58596   9.808  21.414  12.201
92188W        W58597  15.102   9.321  13.156
92189W        W58598  42.114  22.126   0.391
92190W        W58599  10.295  36.135  13.126
92191W        W58600  18.515  40.995   3.583
92192W        W58601   8.377   8.206  12.253
92193W        W58602  31.002  22.487  13.845
92194W        W58603  33.451  24.406  10.832
92195W        W58604  42.709  30.113   0.283
92196W        W58605  18.258  29.011   0.413
92197W        W58606  35.368  12.029   0.412
92198W        W58607  27.733   2.048   3.187
92199W        W58608  16.311  24.299  11.122
92200W        W58609  20.932  25.223   2.379
92201W        W58610  43.051  20.528  14.113
92202W        W58611   5.381  11.328  13.277
92203W        W58612   3.845  22.540  14.361
92204W        W58613  25.112  20.568  10.908
92205W        W58614  24.529  37.572   1.891
92206W        W58615   1.987   7.880  12.464
92207W        W58616  39.260  25.083  11.672
92208W        W58617  36.152  22.643  11.706
92209W        W58618  38.169   1.856  12.208
92210W        W58619  39.968  20.606  10.315
92211W        W58620  24.205  31.011   2.355
92212W        W58621  15.064  15.329   0.471
92213W        W58622   5.892  26.191  13.313
92214W        W58623  36.370  41.460  14.683
92215W        W58624  23.047  20.542  10.925
92216W        W58625  18.224  39.002  12.881
92217W        W58626   1.779  29.857  13.305
92218W        W58627   0.347  28.739   3.249
92219W        W58628  27.450  19.152  13.755
92220W        W58629  20.159   9.287  11.884
92221W        W58630  11.820  19.898  13.177
92222W        W58631   8.103  18.837   2.227
92223W        W58632   5.259  19.849   5.138
92224W        W58633  27.211  30.120  12.086
92225W        W58634  31.931  43.667  14.403
92226W        W58635  38.552  34.313  14.106
92227W        W58636   8.779  21.961   3.750
92228W        W58637  24.715  34.060   4.124
92229W        W58638  10.134  30.046   0.309
92230W        W58639  43.984   7.360  12.408
92231W        W58640   7.263  38.754  14.284
92232W        W58641  19.093  16.661  12.901
92233W        W58642  21.642  28.731   2.691
92234W        W58643  36.864  23.536  14.891
92235W        W58644  27.165  17.314   0.349
92236W        W58645  11.965  41.301  10.895
92237W        W58646  22.738  41.808  13.458
92238W        W58647   6.188  28.696  12.133
92239W        W58648  24.000  29.908   0.687
92240W        W58649  26.605  10.907  12.017
92241W        W58650  43.897  11.819   2.344
92242W        W58651  12.333   4.915   3.513
92243W        W58652  11.670   2.887   2.154
92244W        W58653  18.656  11.377  12.975
92245W        W58654  42.385   4.517  14.472
92246W        W58655  12.606  10.308   4.122
92247W        W58656  35.392  41.371  11.575
92248W        W58657  37.332   8.143   0.225
92249W        W58658  18.470  26.680  10.308
92250W        W58659  20.022  22.995  11.624
92251W        W58660  26.220  17.593  12.280
92252W        W58661   4.878  24.730   9.886
92253W        W58662   1.669  21.331  14.817
92254W        W58663  17.100  43.228   3.239
92255W        W58664  14.759  40.876  10.708
92256W        W58665  28.495  17.538  13.052
92257W        W58666  22.609  10.400  12.459
92258W        W58667  23.570  44.680  12.200
92259W        W58668  25.144  32.374   1.805
92260W        W58669  38.392  27.106  13.900
92261W        W58670  30.974  17.815  11.601
92262W        W58671  15.265  29.916   1.300
92263W        W58672  23.455  28.096  13.950
92264W        W58673  21.684  35.214  12.053
92265W        W58674  13.611  41.469   4.882
92266W        W58675  32.725  12.804  13.377
92267W        W58676  18.722  44.317  12.309
92268W        W58677  35.964  34.036  11.417
92269W        W58678  11.274  41.009   2.769
92270W        W58679  31.028  33.635   4.553
92271W        W58680  42.879  20.114  14.914
92272W        W58681  28.266   6.677   0.786
92273W        W58682   7.664  40.237   5.063
92274W        W58683   5.347  22.261  12.483
92275W        W58684   7.704   0.216   0.451
92276W        W58685  20.609   0.944   3.368
92277W        W58686  30.384  43.506  13.613
92278W        W58687  26.461  31.228   4.582
92279W        W58688   4.844  40.885   1.757
92280W        W58689  35.071   1.930  10.892
92281W        W58690   4.660  40.273   0.015
92282W        W58691   6.168  29.091   0.640
92283W        W58692  44.144  10.435   0.559
92284W        W58693  30.424  37.752   5.030
92285W        W58694  24.159  18.078   3.235
92286W        W58695   7.916   1.604  10.922
92287W        W58696  25.752  40.311  11.964
92288W        W58697   9.821  30.945  12.972
92289W        W58698  28.377   9.568  12.384
92290W        W58699  32.946  35.975   3.928
92291W        W58700  20.474  38.012  12.631
92292W        W58701  20.165  40.273   0.794
92293W        W58702  23.664  27.512   2.152
92294W        W58703  27.641  30.917   2.959
92295W        W58704  16.668   0.277   3.898
92296W        W58705  36.732  15.543   2.427
92297W        W58706  18.624  34.189  11.088
92298W        W58707   7.009   4.594  12.421
92299W        W58708  19.187  24.074  12.832
92300W        W58709   5.482  29.191  11.082
92301W        W58710   2.376   2.512   3.823
92302W        W58711  19.205  26.212   3.978
92303W        W58712  26.933   1.746  12.047
92304W        W58713  37.896  11.036   4.625
92305W        W58714  44.016  22.956  13.556
92306W        W58715  26.490  33.037   3.628
92307W        W58716  39.374   2.972   4.570
92308W        W58717  31.883  26.170  11.353
92309W        W58718   2.643   7.006   0.259
92310W        W58719  21.093   3.378   4.987
92311W        W58720   6.237   1.933  13.881
92312W        W58721  23.289   0.123   0.438
92313W        W58722  25.567  32.102  12.899
92314W        W58723  39.922  27.360   1.922
92315W        W58724  41.949  28.601   4.652
92316W        W58725  34.953  40.399  11.215
92317W        W58726  21.051  34.818  14.938
92318W        W58727  41.408  12.072  11.605
92319W        W58728  30.168   0.848  11.517
92320W        W58729  33.156  31.132   1.413
92321W        W58730  23.571  36.072   3.656
92322W        W58731  10.709  26.973  11.696
92323W        W58732  22.600   0.321  13.540
92324W        W58733  40.768  17.902   3.098
92325W        W58734  32.478   2.247   1.476
92326W        W58735  38.953  42.445  12.695
92327W        W58736  37.108  44.252   4.053
92328W        W58737   4.413   3.760  13.845
92329W        W58738  11.626  30.599  12.826
92330W        W58739   7.502  12.700  14.992
92331W        W58740  12.334  34.507  14.031
92332W        W58741  33.721   7.720  12.134
92333W        W58742  14.096  30.895  12.539
92334W        W58743   6.950  17.815   1.265
92335W        W58744  35.430   6.852   4.092
92336W        W58745  34.679  24.289   3.358
92337W        W58746   6.768  21.977  13.002
92338W        W58747  37.841  23.403   3.121
92339W        W58748  38.901  30.412  12.096
92340W        W58749   6.949  43.799  13.358
92341W        W58750   8.898  31.244  14.392
92342W        W58751  41.564  11.224   4.585
92343W        W58752  37.413  11.586  12.978
92344W        W58753  40.166   0.864   0.876
92345W        W58754   8.423  33.970  13.402
92346W        W58755  38.159   2.256   4.673
92347W        W58756   4.365  17.824   3.251
92348W        W58757  37.488  22.733  13.486
92349W        W58758  20.285  29.042   1.857
92350W        W58759  13.967   8.934  14.439
92351W        W58760  42.585  17.792  12.829
92352W        W58761  11.915  41.991   4.744
92353W        W58762  40.294   3.696   2.916
92354W        W58763  32.510  31.594  12.999
92355W        W58764  18.208  19.987   1.818
92356W        W58765  44.361  25.993   2.006
92357W        W58766  33.046   9.398   0.543
92358W        W58767  43.640  19.566  13.924
92359W        W58768  38.372  30.784   4.899
92360W        W58769  43.857  31.150  12.055
92361W        W58770  37.490  37.537   3.123
92362W        W58771  39.387  30.309   4.917
92363W        W58772  34.950  24.432   4.259
92364W        W58773  23.423   4.370  11.217
92365W        W58774   0.941   2.828   2.955
92366W        W58775  18.316  24.105   4.627
92367W        W58776  38.526  42.781   1.342
92368W        W58777  22.464  13.243  14.598
92369W        W58778  37.934  39.060  13.436
92370W        W58779  20.662  31.314  14.293
92371W        W58780  28.237  14.012  14.513
92372W        W58781  12.478  14.680   3.888
92373W        W58782  32.279  34.425   3.267
92374W        W58783   8.690   2.734   4.604
92375W        W58784  41.827  11.443  13.569
92376W        W58785  36.118   8.898  10.734
92377W        W58786  13.204  13.775  10.486
92378W        W58787  38.413  32.357  14.786
92379W        W58788  16.193  38.357  10.174
92380W        W58789  10.914  27.409  10.911
92381W        W58790  25.084  16.783   2.212
92382W        W58791  25.971   6.616  11.460
92383W        W58792   4.833  42.386   1.869
92384W        W58793   6.026  30.927   1.487
92385W        W58794  23.842  34.420   2.340
92386W        W58795  29.967  39.071  11.973
92387W        W58796  23.124  11.130  13.500
92388W        W58797  26.639  40.267  11.698
92389W        W58798  17.568   5.111   4.012
92390W        W58799   7.800  35.135   1.281
92391W        W58800  44.634  33.184  10.702
92392W        W58801   4.790   3.409   1.543
92393W        W58802  38.269  43.712   1.311
92394W        W58803  14.172  32.080  14.779
92395W        W58804  20.355   4.259   4.555
92396W        W58805  17.064  38.402   3.357
92397W        W58806   5.785  12.364   4.523
92398W        W58807  22.158   2.928  12.906
92399W        W58808  17.382  35.083  14.720
92400W        W58809  32.697   6.898   9.759
92401W        W58810  43.353  21.311  11.115
92402W        W58811  19.670  38.142   3.632
92403W        W58812  40.994  43.054   1.260
92404W        W58813  30.959  31.364   4.109
92405W        W58814  43.841  42.226  11.660
92406W        W58815  30.960  42.134  11.436
92407W        W58816  15.085  26.611   2.336
92408W        W58817  11.986   5.658  13.550
92409W        W58818   7.771   7.012  13.522
92410W        W58819  17.954  41.130  14.412
92411W        W58820  33.193  17.795   3.071
92412W        W58821  26.905  38.934  11.521
92413W        W58822  21.987  25.329   4.036
92414W        W58823  25.546  26.628  11.723
92415W        W58824   6.038   8.290  14.082
92416W        W58825  43.853  36.569   0.739
92417W        W58826  23.231  12.247   0.751
92418W        W58827  31.130  30.862   0.922
92419W        W58828  43.852  15.320   3.852
92420W        W58829  31.371  16.555  14.459
92421W        W58830   2.399  44.953  11.352
92422W        W58831  28.349   4.823  10.470
92423W        W58832   4.771  42.347  12.887
92424W        W58833  17.986  19.794   0.851
92425W        W58834  44.588  30.377   0.573
92426W        W58835  37.391   6.984  13.047
92427W        W58836  35.331  32.848  14.572
92428W        W58837   7.458  25.046  12.507
92429W        W58838  25.686  34.976  12.505
92430W        W58839  13.699   7.052   2.670
92431W        W58840  26.853   3.840   0.057
92432W        W58841  17.707  11.056   4.746
92433W        W58842   3.152   8.185   4.581
92434W        W58843  14.955  36.549  10.255
92435W        W58844  23.547   2.337  13.942
92436W        W58845  29.419  15.189   2.161
92437W        W58846  37.811  31.940   4.070
92438W        W58847  23.750   3.732  11.953
92439W        W58848   9.739   5.933  13.962
92440W        W58849  14.983  25.260   4.943
92441W        W58850  19.292  15.254  11.627
92442W        W58851  39.876  26.127  12.538
92443W        W58852   6.892   8.607   2.680
92444W        W58853  24.996   8.342  14.577
92445W        W58854   9.949  23.929  11.841
92446W        W58855  37.754   7.724   3.300
92447W        W58856   2.315  19.135  13.203
92448W        W58857  16.617  29.815   1.569
92449W        W58858  30.861  30.252  10.426
92450W        W58859  18.180  21.256  12.549
92451W        W58860   4.875  28.026   1.384
92452W        W58861  43.785  28.250   3.981
92453W        W58862  23.671  24.334  11.520
92454W        W58863  39.873  31.482   4.584
92455W        W58864   7.349  10.290   3.733
92456W        W58865  10.105  30.979   1.406
92457W        W58866  32.541   3.858   2.747
92458W        W58867   7.805  19.206   1.381
92459W        W58868  13.207  37.917   0.570
92460W        W58869  43.816   3.928  14.986
92461W        W58870   5.344  10.708  10.562
92462W        W58871   2.868  18.053   3.816
92463W        W58872  22.639  12.684  12.968
92464W        W58873  13.180  16.706   2.667
92465W        W58874  38.860   1.795   4.529
92466W        W58875  37.198   0.323   1.743
92467W        W58876  35.262  41.510   4.804
92468W        W58877  11.383  39.420   2.788
92469W        W58878  28.963  35.109  14.517
92470W        W58879  13.121   7.927   4.524
92471W        W58880   9.736  40.709   4.388
92472W        W58881  42.730  12.676   0.324
92473W        W58882  11.262  33.089  11.629
92474W        W58883  35.364  33.072   3.682
92475W        W58884   2.775  12.494   3.643
92476W        W58885  36.357  30.921  14.953
92477W        W58886   9.594   4.768   1.183
92478W        W58887  25.722   0.000   3.668
92479W        W58888  19.278  37.253   1.649
92480W        W58889  14.833   3.736  13.373
92481W        W58890  36.414  31.429  14.798
92482W        W58891  16.391  10.072  12.508
92483W        W58892   4.979  18.136  12.433
92484W        W58893  16.022  38.499  12.389
92485W        W58894   3.288  15.570   0.290
92486W        W58895  14.691  20.019  14.373
92487W        W58896  30.131  19.099   2.288
92488W        W58897   4.718  38.452  14.785
92489W        W58898   1.940  23.663  14.547
92490W        W58899  35.568  39.905  12.982
92491W        W58900   0.690  32.044  13.466
92492W        W58901  17.069   3.317   1.355
92493W        W58902  41.741   0.313  14.962
92494W        W58903  43.910   8.662   1.336
92495W        W58904   9.166  20.499  11.567
92496W        W58905  26.475  12.233   2.896
92497W        W58906   5.828  17.275   4.714
92498W        W58907  41.765  26.125   4.533
92499W        W58908  11.685   0.104  13.857
92500W        W58909   5.111  39.947  10.564
92501W        W58910  28.700  18.357   0.893
92502W        W58911  31.923  43.730   4.664
92503W        W58912  18.067   8.809   2.496
92504W        W58913  29.010  10.267  14.846
92505W        W58914  18.209  27.667  10.565
92506W        W58915  12.569  42.354  10.459
92507W        W58916  17.355  43.986   4.545
92508W        W58917   1.219  27.847   1.520
92509W        W58918   6.907  25.398   4.958
92510W        W58919  18.155  32.016   3.288
92511W        W58920  19.271   5.758   1.685
92512W        W58921   1.975  21.765   3.026
92513W        W58922  15.278  20.998   0.200
92514W        W58923   8.012  16.389  11.409
92515W        W58924   1.305  37.475  11.094
92516W        W58925  13.746  22.358  10.793
92517W        W58926  42.030   2.302   4.632
92518W        W58927  31.631   7.787  11.995
92519W        W58928  17.987  32.455  13.180
92520W        W58929   2.052  23.875   3.828
92521W        W58930  11.047  39.590   0.451
92522W        W58931  31.376  26.607  13.888
92523W        W58932  36.193  30.217   2.662
92524W        W58933  33.653  41.445   3.806
92525W        W58934  31.192   7.884  14.984
92526W        W58935  11.229   2.959   2.465
92527W        W58936  35.896  31.659   4.064
92528W        W58937  35.520   2.680   0.312
92529W        W58938  13.602  39.809   3.106
92530W        W58939  34.309  36.047   3.790
92531W        W58940  31.568  40.071   1.348
92532W        W58941  37.146  37.144   3.365
92533W        W58942  10.150  35.627  13.920
92534W        W58943  27.671  18.573   0.875
92535W        W58944   7.378   0.093  10.459
92536W        W58945  37.436  36.011   1.546
92537W        W58946  35.357   1.658  11.974
92538W        W58947   8.622  32.115   0.418
92539W        W58948  27.035  13.685   0.842
92540W        W58949  25.325  36.859   0.886
92541W        W58950  20.464  32.604  11.148
92542W        W58951  39.476  36.968   3.847
92543W        W58952   5.430  37.863   2.821
92544W        W58953   0.398  35.831  11.223
92545W        W58954   3.531  19.547   0.390
92546W        W58955   6.637  17.788  12.020
92547W        W58956   5.433  20.762   4.733
92548W        W58957  33.451  41.387   1.463
92549W        W58958  31.584   6.803   4.313
92550W        W58959  40.274  10.869  12.985
92551W        W58960   5.281  18.490  11.105
92552W        W58961  36.877  34.053  14.353
92553W        W58962  41.138  10.746  14.900
92554W        W58963   6.210  14.069  11.169
92555W        W58964   9.227  39.640   2.846
92556W        W58965  15.651  11.549  14.850
92557W        W58966  22.073  24.127  13.611
92558W        W58967   1.475   0.484  13.131
92559W        W58968  17.686  42.729  12.085
92560W        W58969  44.262  27.687   4.626
92561W        W58970   3.874  25.681  11.465
92562W        W58971  26.531  24.649   0.564
92563W        W58972  37.067  11.071  13.853
92564W        W58973  44.245  40.595   2.790
92565W        W58974  35.639   3.775   4.124
92566W        W58975   4.660  31.849  11.088
92567W        W58976  39.896  21.715  11.106
92568W        W58977  39.881  30.595  11.257
92569W        W58978  43.936  41.629   1.817
92570W        W58979  27.121  12.660   2.399
92571W        W58980  12.182  28.152  13.566
92572W        W58981  20.471  38.027  14.865
92573W        W58982   4.398  19.592   1.348
92574W        W58983   3.020  10.194  14.814
92575W        W58984  39.938  17.849   1.422
92576W        W58985   0.922  36.848   1.721
92577W        W58986  19.416  37.211   2.849
92578W        W58987  18.537  19.834  10.682
92579W        W58988  17.258  40.167  13.183
92580W        W58989   4.984  39.489   3.074
92581W        W58990  18.684  11.035  13.773
92582W        W58991   2.360  39.505  14.810
92583W        W58992  41.110  26.370  12.805
92584W        W58993  26.721  17.581   1.019
92585W        W58994  40.207  30.675   3.543
92586W        W58995  13.683  34.619   4.190
92587W        W58996  28.709  36.424  12.556
92588W        W58997   7.628   1.914  14.943
92589W        W58998   3.980  41.275  14.733
92590W        W58999  40.393  20.625  11.642
92591W        W59000  41.909  17.228   0.800
92592W        W59001  16.649  31.186   2.503
92593W        W59002  12.193   2.118  12.526
92594W        W59003  28.741  13.137  14.420
92595W        W59004  18.136  34.900  13.357
92596W        W59005  19.233  30.441  12.107
92597W        W59006  35.088  13.339  14.587
92598W        W59007  28.549  10.906   1.635
92599W        W59008  16.241  22.938  14.934
92600W        W59009  32.841  40.994   2.378
92601W        W59010  14.547  31.018   1.812
92602W        W59011  16.494  30.919  14.420
92603W        W59012  41.764  36.580  14.329
92604W        W59013  17.160  27.966  12.526
92605W        W59014  27.620  36.380  11.598
92606W        W59015  15.220  36.292  13.960
92607W        W59016  21.674  13.697   1.157
92608W        W59017   0.483  22.758  12.163
92609W        W59018  12.844   4.702  13.040
92610W        W59019   2.201  20.563  10.765
92611W        W59020  41.502  19.732   0.692
92612W        W59021  42.370  28.206  13.387
92613W        W59022  29.501  35.198   0.201
92614W        W59023  34.548   5.321   0.509
92615W        W59024  17.090  22.346  10.356
92616W        W59025  34.861  33.476  12.380
92617W        W59026   2.382  31.584  13.308
92618W        W59027  40.309  10.782  14.411
92619W        W59028  34.047  14.380   4.192
92620W        W59029   9.420  44.032   2.754
92621W        W59030  10.310   1.165  12.643
92622W        W59031  24.704  16.218   1.104
92623W        W59032  27.178   4.792   1.298
92624W        W59033  26.661  16.146   1.472
92625W        W59034   0.173  42.252  11.536
92626W        W59035  18.993  41.405  11.633
92627W        W59036  14.783  22.155   2.697
92628W        W59037  36.122   2.254  13.939
92629W        W59038  13.563  32.706   5.500
92630W        W59039   1.373  41.495   4.903
92631W        W59040  19.337  36.387   0.500
92632W        W59041  10.591  39.936   1.795
92633W        W59042   1.399   6.909  14.957
92634W        W59043  33.059  28.637  14.643
92635W        W59044   2.735  12.708   0.962
92636W        W59045  41.261  41.768  12.681
92637W        W59046   1.700  17.614  11.213
92638W        W59047  16.044  18.891   2.668
92639W        W59048  25.218  28.955  14.901
92640W        W59049  22.270  38.807   4.350
92641W        W59050  32.736  35.357   2.291
92642W        W59051  26.165  40.847   0.905
92643W        W59052  20.274  33.046  14.417
92644W        W59053  17.478  37.075  13.298
92645W        W59054  34.378   1.868   3.149
92646W        W59055  18.108  14.051  14.556
92647W        W59056  17.169  15.968   2.228
92648W        W59057  24.274  43.926  14.941
92649W        W59058   0.521  40.344   1.450
92650W        W59059   2.484  38.923   9.762
92651W        W59060   0.771  33.538   1.831
92652W        W59061  29.282  19.578   3.177
92653W        W59062  21.124  32.122  10.244
92654W        W59063  42.221  33.421  10.513
92655W        W59064  19.167  26.964  13.906
92656W        W59065  41.851  42.834   2.725
92657W        W59066  37.149  40.944   3.943
92658W        W59067  35.973  22.553   2.169
92659W        W59068   2.994   5.850  10.622
92660W        W59069  24.061  30.395   3.282
92661W        W59070  26.643   5.334  12.852
92662W        W59071   2.204  32.930   2.975
92663W        W59072  12.354  41.900   1.830
92664W        W59073  27.508  16.006   1.341
92665W        W59074  31.459  35.024   0.857
92666W        W59075   9.488  12.274  11.984
92667W        W59076  27.733  19.281   1.377
92668W        W59077  43.812  27.882   3.284
92669W        W59078  34.547  20.725   1.010
92670W        W59079  31.592  21.996  12.108
92671W        W59080  19.097  17.347   4.040
92672W        W59081   8.432  44.905  11.260
92673W        W59082  21.595  15.301   1.745
92674W        W59083  31.511  31.589   4.888
92675W        W59084  38.321  18.967  14.999
92676W        W59085  35.881   3.517  10.056
92677W        W59086  42.535  10.862  13.430
92678W        W59087  42.912   6.030  14.229
92679W        W59088  41.044  38.892  12.781
92680W        W59089  21.894   0.776  13.833
92681W        W59090  23.232  18.513   2.210
92682W        W59091  16.273  35.547  10.734
92683W        W59092  33.409   5.417   2.905
92684W        W59093  29.182  34.646  13.255
92685W        W59094   7.556   8.200  14.395
92686W        W59095  41.754  29.171  12.110
92687W        W59096   7.959  23.979   3.999
92688W        W59097  11.322  10.256   3.444
92689W        W59098  16.219  37.528   3.670
92690W        W59099  28.997  24.055   4.090
92691W        W59100   4.128  29.413   4.556
92692W        W59101  10.856  25.498   0.797
92693W        W59102  38.109  17.301  14.362
92694W        W59103  39.464  22.127   3.444
92695W        W59104  11.327   0.587  13.405
92696W        W59105  15.792  14.668  14.078
92697W        W59106  44.424  13.906   4.209
92698W        W59107   7.926  10.737  12.549
92699W        W59108   1.615   5.387  13.967
92700W        W59109  36.826   8.865   4.589
92701W        W59110   2.768  35.933  13.583
92702W        W59111  15.184  23.245   2.209
92703W        W59112  20.978  32.360   2.671
92704W        W59113  22.090   4.439   4.907
92705W        W59114  23.297  44.387   4.705
92706W        W59115  16.208   2.936   4.601
92707W        W59116  15.517  38.214  10.433
92708W        W59117  20.634  26.586   2.394
92709W        W59118   7.830  43.979  14.481
92710W        W59119  40.750  24.542   4.134
92711W        W59120  23.993   6.856  10.424
92712W        W59121  36.792  38.425  13.336
92713W        W59122  34.856  41.239   3.180
92714W        W59123   5.186  10.832   3.799
92715W        W59124  23.517   4.392   0.460
92716W        W59125  33.215  34.974   1.035
92717W        W59126  36.854  33.566   1.808
92718W        W59127  24.728   7.979   4.419
92719W        W59128  28.186  10.613   2.416
92720W        W59129   7.668  38.849  13.981
92721W        W59130  27.876   6.557  12.431
92722W        W59131  18.144  26.101  12.225
92723W        W59132  44.745  43.674  11.059
92724W        W59133   6.437  11.181  13.441
92725W        W59134  14.615  32.414   3.847
92726W        W59135  37.457  44.487   1.321
92727W        W59136   9.602  41.816  12.905
92728W        W59137  26.836  11.792  14.342
92729W        W59138  20.542  12.511  13.554
92730W        W59139  15.339  21.089   1.561
92731W        W59140  34.862  11.201  13.785
92732W        W59141  37.377  14.723   0.525
92733W        W59142  17.483  40.249  13.912
92734W        W59143  12.229  13.673   3.595
92735W        W59144  28.453  17.504   1.862
92736W        W59145  33.606  19.055   4.026
92737W        W59146  37.536  18.106   0.855
92738W        W59147  44.958  10.252  11.109
92739W        W59148  12.646  22.487  13.883
92740W        W59149  27.119  17.806  10.669
92741W        W59150  32.068  19.090  14.969
92742W        W59151  42.362  21.983  12.595
92743W        W59152  14.986   1.660   2.243
92744W        W59153   1.389  31.405  10.848
92745W        W59154   3.728   8.518  13.933
92746W        W59155  11.054  19.973  12.413
92747W        W59156  42.336  24.957   1.947
92748W        W59157  37.828   1.891   3.288
92749W        W59158  19.693  13.205   4.623
92750W        W59159   7.125   0.978  12.284
92751W        W59160  21.240  40.847   3.331
92752W        W59161   8.404  37.104  13.051
92753W        W59162  24.548  39.098   0.782
92754W        W59163   5.949   5.649   4.555
92755W        W59164  29.716  27.354  14.974
92756W        W59165  33.774  41.893   2.221
92757W        W59166  22.221   4.223  10.396
92758W        W59167  31.125  25.392  11.867
92759W        W59168  31.927   5.532  14.859
92760W        W59169   3.293   5.976  14.238
92761W        W59170  13.171   0.805  14.955
92762W        W59171  36.832  23.146  11.665
92763W        W59172   3.832   5.993   0.625
92764W        W59173   4.340  41.842  11.939
92765W        W59174   7.929   5.916  11.520
92766W        W59175  27.007  42.315   1.890
92767W        W59176  19.523   8.794   3.693
92768W        W59177  38.733  44.131   4.606
92769W        W59178  29.996  14.211  12.599
92770W        W59179  44.835  38.944  10.519
92771W        W59180  44.927  29.622   1.382
92772W        W59181  42.294  30.210  12.538
92773W        W59182   0.474  31.135  12.535
92774W        W59183  32.465  39.416   2.758
92775W        W59184  28.760  19.902  14.963
92776W        W59185  31.094   9.780   2.767
92777W        W59186  43.746   4.888  11.365
92778W        W59187   1.719  40.502  10.682
92779W        W59188   1.244  33.446  14.873
92780W        W59189  30.714  15.240   4.061
92781W        W59190  14.723  17.797  14.403
92782W        W59191  41.781  28.463  10.771
92783W        W59192  25.107  44.363   3.848
92784W        W59193   7.149  16.194   4.122
92785W        W59194  18.420   0.865   4.774
92786W        W59195   9.213  13.091   1.773
92787W        W59196  34.016  29.146  12.421
92788W        W59197  39.017  14.376   2.839
92789W        W59198  35.474  29.849  12.937
92790W        W59199  30.494   9.574   0.996
92791W        W59200  29.247  33.474  14.926
92792W        W59201  14.150  26.030   4.149
92793W        W59202  25.010  31.912   4.661
92794W        W59203  14.819   8.922   2.465
92795W        W59204   7.524   9.686  14.953
92796W        W59205  29.767  31.836   1.258
92797W        W59206  31.815  29.563  14.738
92798W        W59207   1.173   4.256  14.381
92799W        W59208  11.761  41.556  13.199
92800W        W59209   6.955  30.189   0.540
92801W        W59210  10.356  36.540   4.629
92802W        W59211  25.162  35.100   1.379
92803W        W59212  25.190  20.074  11.584
92804W        W59213   1.554  34.570  12.906
92805W        W59214  12.281   4.197  14.262
92806W        W59215  36.649  24.290   3.350
92807W        W59216  43.468   7.682   2.202
92808W        W59217  19.775  20.566   1.223
92809W        W59218   8.350  28.563  12.187
92810W        W59219  10.357  13.297   3.133
92811W        W59220  32.505  19.194   2.730
92812W        W59221  10.820  33.599   0.862
92813W        W59222   5.588  18.317  14.088
92814W        W59223  28.565  21.893  12.646
92815W        W59224  11.924  33.539   2.421
92816W        W59225   5.995  20.798  13.804
92817W        W59226  25.284  24.754  11.094
92818W        W59227  39.508  33.541   2.439
92819W        W59228  22.210  18.036   2.421
92820W        W59229  28.153   6.311   3.798
92821W        W59230  24.589  26.622   4.978
92822W        W59231   6.032  25.130   0.265
92823W        W59232  33.149  27.997  14.012
92824W        W59233  35.381  21.166   4.461
92825W        W59234  14.623  26.558   1.028
92826W        W59235   1.484  10.227   0.554
92827W        W59236  44.587   6.381   0.838
92828W        W59237  30.955   8.278   0.512
92829W        W59238   4.802  29.538  11.448
92830W        W59239  36.230  29.460  10.650
92831W        W59240  24.188  37.058   2.241
92832W        W59241   0.027  34.733   1.782
92833W        W59242  43.919  43.017  13.839
92834W        W59243  14.719   8.464  11.664
92835W        W59244  23.181  10.925  13.977
92836W        W59245  33.082  29.380   3.478
92837W        W59246  32.450  36.023  13.296
92838W        W59247  40.542   1.455  12.915
92839W        W59248  28.190  20.157  13.046
92840W        W59249   9.714  29.722   1.631
92841W        W59250  41.238  24.672  12.169
92842W        W59251   1.201   3.765  11.154
92843W        W59252  14.254  33.910  12.587
92844W        W59253  41.061  14.878  13.567
92845W        W59254  24.633  22.069   3.185
92846W        W59255  20.644  23.745  13.373
92847W        W59256  23.895  23.133   1.726
92848W        W59257  25.277  20.628   4.681
92849W        W59258   3.357   2.701   1.721
92850W        W59259  10.212   4.762   0.039
92851W        W59260  37.538  26.694  14.741
92852W        W59261   3.147  26.169   4.635
92853W        W59262  16.101  28.464  13.916
92854W        W59263  20.126  37.210  13.438
92855W        W59264  42.031  17.135  13.405
92856W        W59265  10.888  13.449   1.934
92857W        W59266  31.042  19.563  12.370
92858W        W59267   0.372  35.065   1.549
92859W        W59268  11.344  21.680  13.273
92860W        W59269   9.595  23.414  12.015
92861W        W59270  26.129  21.719   0.854
92862W        W59271  33.877  22.619   0.782
92863W        W59272  13.275  28.632   1.570
92864W        W59273   2.921   3.813   1.668
92865W        W59274  12.178  28.531   2.486
92866W        W59275  31.982  37.351   5.097
92867W        W59276  10.196  29.552   4.539
92868W        W59277  12.076  25.936  14.862
92869W        W59278  21.767  42.053   1.372
92870W        W59279  42.078  43.547   2.862
92871W        W59280  23.253   1.000  12.665
92872W        W59281  26.436  36.170  10.196
92873W        W59282  22.609   3.249  12.987
92874W        W59283   3.289  18.086  12.461
92875W        W59284  11.267  23.946   3.309
92876W        W59285  11.257  36.551  11.836
92877W        W59286  32.992  23.186  12.680
92878W        W59287   3.691  33.025   3.164
92879W        W59288   5.285  15.482  11.575
92880W        W59289  31.040   8.338  10.542
92881W        W59290  41.488  34.486   1.864
92882W        W59291   7.890  40.021  13.513
92883W        W59292  35.822  44.801  11.536
92884W        W59293  29.825  17.718   4.811
92885W        W59294  32.629  32.525  14.847
92886W        W59295  21.858  23.974   4.368
92887W        W59296  10.690   5.049   3.570
92888W        W59297   4.102   1.408  10.973
92889W        W59298   6.070  18.553   0.247
92890W        W59299  38.605  44.413  13.979
92891W        W59300  44.991  11.345  14.800
92892W        W59301  41.507  24.192   2.230
92893W        W59302  20.047  42.102  13.834
92894W        W59303   6.476  33.127  11.646
92895W        W59304   9.154   8.470  11.855
92896W        W59305  43.058  24.267   4.060
92897W        W59306  10.266   3.016  12.381
92898W        W59307  31.456   3.539   3.163
92899W        W59308  23.599  34.883  12.452
92900W        W59309  27.834   3.885  14.758
92901W        W59310  36.940  21.211   1.879
92902W        W59311  29.674  33.021   1.573
92903W        W59312  35.945  13.258   1.962
92904W        W59313  19.033  31.155   0.763
92905W        W59314  11.638  38.858   3.214
92906W        W59315  19.966  38.030  14.846
92907W        W59316  43.506   0.922   1.331
92908W        W59317  10.306  24.835   3.213
92909W        W59318  16.353  22.345   3.187
92910W        W59319  26.540  24.417  10.657
92911W        W59320  17.792  21.061   3.324
92912W        W59321   6.484  16.651  13.526
92913W        W59322  31.853  11.322   4.982
92914W        W59323  29.814   3.271   1.701
92915W        W59324   6.675  23.117   4.513
92916W        W59325  30.598  26.912   0.836
92917W        W59326  11.651  43.094  11.607
92918W        W59327  44.567  44.539  14.044
92919W        W59328  44.100  18.167   1.656
92920W        W59329   6.443  22.169  11.683
92921W        W59330  12.544   5.024   4.369
92922W        W59331   6.643  22.624  12.651
92923W        W59332  13.388  35.473  11.510
92924W        W59333  39.789  36.334  13.774
92925W        W59334  17.287   0.976  12.424
92926W        W59335  28.116  32.627   4.155
92927W        W59336  13.561  39.531  11.967
92928W        W59337  37.404  29.438   4.269
92929W        W59338   3.547  33.644  11.658
92930W        W59339  43.485  22.798   2.465
92931W        W59340   2.248   0.312  13.523
92932W        W59341   2.456  30.486   5.002
92933W        W59342  39.120  39.153   4.975
92934W        W59343  18.034  38.536  13.018
92935W        W59344  43.695   6.180  10.979
92936W        W59345  14.563  37.607  12.512
92937W        W59346   4.013  23.143  10.272
92938W        W59347   7.952   5.601   4.576
92939W        W59348  17.884  19.725   3.369
92940W        W59349  30.785  26.232   2.766
92941W        W59350  29.788  36.064   3.230
92942W        W59351   1.948  25.463  13.520
92943W        W59352  15.624  44.348   1.704
92944W        W59353   1.992   0.818  11.986
92945W        W59354  33.292  24.069   3.611
92946W        W59355  36.825  42.536   3.335
92947W        W59356  11.229   7.667  13.936
92948W        W59357  12.409  15.110  11.856
92949W        W59358   8.629   0.971   3.764
92950W        W59359  39.938   5.779  12.933
92951W        W59360  14.563  13.878  14.226
92952W        W59361   3.371  17.185   0.422
92953W        W59362   7.655  21.628   4.667
92954W        W59363  41.992  12.079  14.471
92955W        W59364  38.756  10.887  11.008
92956W        W59365  21.892  21.436   9.922
92957W        W59366  37.358  30.928   2.278
92958W        W59367  29.641  32.160  13.878
92959W        W59368  31.867  24.428  12.853
92960W        W59369  16.527  41.712   3.654
92961W        W59370  35.778  34.008  10.941
92962W        W59371  32.659  21.458   4.171
92963W        W59372   3.609   8.292  12.563
92964W        W59373  44.068  13.507   2.182
92965W        W59374  43.256  38.208  12.150
92966W        W59375  36.607  42.797   1.299
92967W        W59376  22.192  14.240  12.937
92968W        W59377  43.484  42.735  13.599
92969W        W59378   8.774   2.159  12.010
92970W        W59379  38.808  34.854  12.838
92971W        W59380  12.589   8.826   1.040
92972W        W59381  23.918   9.846   1.366
92973W        W59382  43.950   0.953   4.159
92974W        W59383  34.369  30.503  13.428
92975W        W59384  25.712  18.179  11.682
92976W        W59385  31.195  26.915  11.068
92977W        W59386  37.926  18.723  14.767
92978W        W59387   8.193  24.187   1.050
92979W        W59388  14.456  32.616  12.878
92980W        W59389  13.754  38.312   1.749
92981W        W59390  29.975  10.379  10.603
92982W        W59391   5.846  28.598  10.703
92983W        W59392  25.363   3.478  13.610
92984W        W59393  22.472  35.884  12.860
92985W        W59394   2.529  39.401  11.140
92986W        W59395  36.569  10.365   2.088
92987W        W59396  36.304  13.746   3.156
92988W        W59397  33.952   2.763   2.766
92989W        W59398  14.253   2.019  11.005
92990W        W59399  10.778  39.911   3.594
92991W        W59400  44.243  24.938  11.477
92992W        W59401  35.243  38.971  11.099
92993W        W59402  12.434  26.564   4.588
92994W        W59403  20.162   0.572  14.289
92995W        W59404   6.590  26.532   2.396
92996W        W59405  34.519   8.172  13.991
92997W        W59406  22.080  30.009  14.552
92998W        W59407  22.121  23.787   5.479
92999W        W59408  20.497   1.606  11.891
93000W        W59409  10.202  11.453  13.762
93001W        W59410   6.544  37.617   1.068
93002W        W59411  11.891   4.694   3.663
93003W        W59412  13.051  17.109   5.138
93004W        W59413  44.659  30.870   3.777
93005W        W59414  19.986  24.160   3.823
93006W        W59415   0.592  29.709  14.389
93007W        W59416  36.729   7.487   2.438
93008W        W59417  25.685   6.416  13.861
93009W        W59418  39.876   3.445   2.788
93010W        W59419  37.358  21.213  13.556
93011W        W59420  43.002  20.827   1.464
93012W        W59421  12.588   5.628  11.321
93013W        W59422  42.410   4.452  10.985
93014W        W59423  17.722   6.861   4.627
93015W        W59424  24.929  10.188  10.749
93016W        W59425   3.460  30.564  14.511
93017W        W59426  15.217  22.756   0.067
93018W        W59427  15.688   5.420   2.240
93019W        W59428  15.248   6.870   2.634
93020W        W59429  35.935   6.128  14.784
93021W        W59430  32.603  39.285  14.539
93022W        W59431  36.498  42.139  11.992
93023W        W59432  40.820   3.394  11.185
93024W        W59433  15.676  20.548   1.766
93025W        W59434   3.313  34.088  11.616
93026W        W59435  43.465  27.655   0.019
93027W        W59436  27.543  25.704   2.320
93028W        W59437   0.258  11.837  12.524
93029W        W59438  10.337  20.967   3.239
93030W        W59439  13.513  34.551   3.241
93031W        W59440  13.410  17.508   3.155
93032W        W59441  44.982  10.823  10.270
93033W        W59442   5.458  41.125  12.116
93034W        W59443   7.648  27.906  13.138
93035W        W59444  10.088  21.104   0.213
93036W        W59445  23.576  32.017  13.376
93037W        W59446  36.847  29.411  12.210
93038W        W59447  18.267   9.664  11.784
93039W        W59448  10.022  33.365   3.969
93040W        W59449  15.647  39.802  12.422
93041W        W59450  38.599  44.087   0.873
93042W        W59451  29.202  22.111  11.973
93043W        W59452  22.081  35.884  11.273
93044W        W59453  22.781  17.599  13.083
93045W        W59454  18.532  24.439  12.347
93046W        W59455   2.964  20.637  12.197
93047W        W59456   5.954  43.888  12.393
93048W        W59457   8.766   0.602   2.205
93049W        W59458  44.995  20.541   0.979
93050W        W59459  17.598  26.526   4.558
93051W        W59460  32.242  33.806  12.289
93052W        W59461  36.672   7.310   1.904
93053W        W59462  40.767  44.557   1.695
93054W        W59463  41.015  33.928  12.597
93055W        W59464  17.403  24.186   4.176
93056W        W59465  15.711  28.081   0.149
93057W        W59466  39.091   5.779  14.937
93058W        W59467  32.858  26.017  12.122
93059W        W59468  14.569  34.471   3.690
93060W        W59469  40.500  35.472  11.610
93061W        W59470  11.808  20.556  11.550
93062W        W59471  35.568   6.061   2.406
93063W        W59472  39.220  44.494  13.426
93064W        W59473  14.758  18.377  12.498
93065W        W59474  24.235   9.340  14.793
93066W        W59475  18.722  34.687  14.422
93067W        W59476  39.430   0.384  12.944
93068W        W59477  23.259  44.387   1.218
93069W        W59478  19.122  17.089   3.161
93070W        W59479  44.887  31.586   0.715
93071W        W59480   1.691   6.631   4.999
93072W        W59481  37.089  41.962   4.019
93073W        W59482  35.897   4.707   5.029
93074W        W59483  21.614  23.719   1.221
93075W        W59484  42.934  13.652  12.691
93076W        W59485  27.518  34.972   3.340
93077W        W59486  31.670  43.687  11.478
93078W        W59487  36.585  33.824   2.320
93079W        W59488  42.995   7.448  12.647
93080W        W59489  11.776  16.712  14.509
93081W        W59490  13.358  19.771   2.205
93082W        W59491   4.926   0.712  11.147
93083W        W59492  16.347  17.319   0.816
93084W        W59493   2.991  29.507  14.447
93085W        W59494   0.928  25.165   4.672
93086W        W59495  31.569  18.530  10.954
93087W        W59496  35.322  28.466   1.565
93088W        W59497  43.828  14.594  11.092
93089W        W59498  15.097  36.903   1.653
93090W        W59499  34.037  31.395  12.169
93091W        W59500  29.298  15.029  11.913
93092W        W59501   0.269  13.681  11.533
93093W        W59502  20.508  23.962   1.432
93094W        W59503  21.043  18.054  13.613
93095W        W59504  41.258  21.062  13.904
93096W        W59505  44.508  35.512   3.308
93097W        W59506  20.513   9.316   1.490
93098W        W59507  43.013  22.048  12.060
93099W        W59508   4.145  24.173   9.858
93100W        W59509  19.506   3.772  13.098
93101W        W59510  27.531  26.312  13.570
93102W        W59511  30.374   3.775   1.426
93103W        W59512  12.101  15.893   4.106
93104W        W59513   3.782  33.581   0.141
93105W        W59514  10.619  16.808  12.978
93106W        W59515   4.978   7.237  12.357
93107W        W59516  15.283   1.775  13.628
93108W        W59517  44.578   8.276   4.566
93109W        W59518  39.407  12.740   2.762
93110W        W59519  41.392   7.410   3.771
93111W        W59520  11.207  35.603   0.301
93112W        W59521   0.978  18.333   1.365
93113W        W59522  10.522  44.199  12.509
93114W        W59523  34.690  24.630   2.954
93115W        W59524   1.326  37.937   3.531
93116W        W59525  12.749  12.139  14.457
93117W        W59526  20.665  40.738  11.486
93118W        W59527  14.996  13.933  11.169
93119W        W59528  35.129  39.555  13.399
93120W        W59529  27.769  21.564  11.613
93121W        W59530  18.121  29.342  12.988
93122W        W59531  40.435  35.612  14.497
93123W        W59532  26.666  18.427  14.121
93124W        W59533  10.889  16.579  14.358
93125W        W59534  23.794  34.974   0.125
93126W        W59535  13.196  36.306   2.218
93127W        W59536  32.457  18.028  14.092
93128W        W59537  20.218  40.029  14.319
93129W        W59538  22.705  13.730   1.337
93130W        W59539  25.211   4.805   4.104
93131W        W59540  30.563  28.890  11.986
93132W        W59541  10.335  20.536   0.929
93133W        W59542  24.727  32.292  13.442
93134W        W59543  11.901   1.675   0.766
93135W        W59544  31.837  14.296   0.559
93136W        W59545  18.647  33.566   4.249
93137W        W59546  21.772  37.034  13.463
93138W        W59547   1.177  34.038  13.460
93139W        W59548  23.669  21.332   0.878
93140W        W59549   4.116  31.313  11.158
93141W        W59550  26.101  17.889   4.621
93142W        W59551  26.402  41.295   4.744
93143W        W59552   5.807  33.367  14.405
93144W        W59553  25.008   9.122   9.793
93145W        W59554  24.414  31.885  13.455
93146W        W59555  38.366  17.209  12.542
93147W        W59556  33.749  12.677   1.439
93148W        W59557  37.216  40.198   3.614
93149W        W59558  41.459  15.148  10.751
93150W        W59559  10.102  37.386   3.015
93151W        W59560  30.831  25.068   2.247
93152W        W59561  17.431  21.280   2.570
93153W        W59562  24.065  26.530  11.859
93154W        W59563  43.761  31.397  13.048
93155W        W59564  14.197  42.743   1.236
93156W        W59565  22.122   6.904  14.105
93157W        W59566  13.826  33.583   1.697
93158W        W59567   4.141  27.660  10.636
93159W        W59568   2.907  17.360   2.725
93160W        W59569  12.257   2.973   4.075
93161W        W59570   3.338  19.671   2.730
93162W        W59571   3.734  19.404   4.087
93163W        W59572  35.173  26.957  13.054
93164W        W59573  29.214  28.675  11.647
93165W        W59574  37.495  18.238   1.365
93166W        W59575  19.124  43.455  13.184
93167W        W59576  17.639  23.549   4.249
93168W        W59577  32.837  39.269   4.578
93169W        W59578  24.285   2.934   4.198
93170W        W59579  11.674  26.334   5.034
93171W        W59580  12.069  38.599   0.703
93172W        W59581   1.443  16.192  14.392
93173W        W59582   5.278  11.147   2.135
93174W        W59583  24.863   4.269   1.446
93175W        W59584  40.383   3.438   2.479
93176W        W59585  23.769  35.285   3.340
93177W        W59586  44.579  27.604   3.830
93178W        W59587  20.333  36.792   2.307
93179W        W59588   7.893   1.518  13.045
93180W        W59589   6.137   2.991   2.267
93181W        W59590  28.623  28.028  12.731
93182W        W59591  15.600  36.467  13.642
93183W        W59592  13.811  11.737   3.326
93184W        W59593  27.703  43.735  13.021
93185W        W59594   0.031  40.784  12.582
93186W        W59595  11.742  29.893   0.200
93187W        W59596   2.091  15.701   1.529
93188W        W59597  38.891  15.537  11.138
93189W        W59598  20.022  41.841  10.968
93190W        W59599   2.060  18.660   1.631
93191W        W59600   6.529  30.086  11.176
93192W        W59601  14.014  30.768  10.848
93193W        W59602   9.860  18.112  13.242
93194W        W59603  38.809  36.324  14.036
93195W        W59604   8.685  18.710  13.476
93196W        W59605  16.120  25.588  13.413
93197W        W59606  43.424  29.429  10.760
93198W        W59607  19.664  26.034  12.562
93199W        W59608  30.067  18.381  14.066
93200W        W59609  19.549  23.062   4.734
93201W        W59610   0.203  35.172   2.034
93202W        W59611   8.354  21.107  13.825
93203W        W59612   5.410  12.644  12.531
93204W        W59613  35.457  33.050  11.161
93205W        W59614  32.137   1.141   1.219
93206W        W59615  42.075  23.527  10.657
93207W        W59616  26.167  20.110  11.581
93208W        W59617   8.329  30.361  13.242
93209W        W59618   2.157  39.803   1.652
93210W        W59619  41.774   4.454  11.595
93211W        W59620   1.502  12.803   3.739
93212W        W59621  11.889  31.900   1.621
93213W        W59622  14.827  44.337  11.149
93214W        W59623   9.094  12.331  13.888
93215W        W59624  34.244  40.594   1.168
93216W        W59625  23.884  11.128  11.975
93217W        W59626   0.877  34.470  11.055
93218W        W59627  18.967  29.710  11.068
93219W        W59628   4.740  33.006  11.042
93220W        W59629  16.089  13.872   0.403
93221W        W59630  16.415   5.675  13.826
93222W        W59631   2.473  26.706  13.394
93223W        W59632  28.991  15.227   4.873
93224W        W59633  25.218   7.086  11.638
93225W        W59634  43.992  29.866  13.032
93226W        W59635  12.224  26.923  13.328
93227W        W59636   1.619  44.509   2.716
93228W        W59637  17.775   5.309  13.443
93229W        W59638   7.986  37.613  12.375
93230W        W59639  34.023  21.164   4.287
93231W        W59640  44.785  32.099   2.808
93232W        W59641  16.490  12.895  11.729
93233W        W59642  42.638  36.558  11.894
93234W        W59643  18.252  32.949   4.636
93235W        W59644  40.043  20.982  11.646
93236W        W59645  25.675  21.980   0.747
93237W        W59646   6.757  14.779  10.935
93238W        W59647  16.160  26.168  14.940
93239W        W59648  28.051  19.146   2.397
93240W        W59649  14.004  16.648  11.687
93241W        W59650  32.348  13.148  13.172
93242W        W59651  30.257  25.215   4.259
93243W        W59652  19.980   8.337   2.282
93244W        W59653   2.703  36.904   0.250
93245W        W59654  33.117  25.602   5.068
93246W        W59655   9.204  39.626   1.900
93247W        W59656   7.709   4.715   3.166
93248W        W59657  21.659   4.910  10.883
93249W        W59658  39.303   3.361  13.881
93250W        W59659  42.957  26.830  10.346
93251W        W59660  39.973   6.498  11.232
93252W        W59661  30.410  42.519  10.748
93253W        W59662  38.909  35.536   0.372
93254W        W59663   8.958  23.073   2.893
93255W        W59664  31.463   4.256  14.856
93256W        W59665  23.099   5.088   4.479
93257W        W59666  38.363  41.768   3.075
93258W        W59667   8.202   3.921   2.682
93259W        W59668   6.221  17.910  11.738
93260W        W59669   3.643  12.808   0.595
93261W        W59670  18.344  34.604   4.790
93262W        W59671  33.177  12.362  14.754
93263W        W59672  34.076  16.569  10.714
93264W        W59673  10.336   5.857   3.792
93265W        W59674  25.523  31.150  10.930
93266W        W59675  39.073   4.259   0.750
93267W        W59676   8.871   0.713   3.354
93268W        W59677  38.351  27.160  11.614
93269W        W59678  28.208  27.967  11.114
93270W        W59679  16.094   6.422   2.514
93271W        W59680  17.777  13.070  13.171
93272W        W59681  34.495  35.854  13.541
93273W        W59682  31.307  35.126  12.488
93274W        W59683  23.971   1.762  10.218
93275W        W59684  40.593  13.364   4.485
93276W        W59685  13.132  28.092   4.671
93277W        W59686   1.626  38.386   1.587
93278W        W59687   4.034  19.073  14.780
93279W        W59688  25.646  10.318  14.808
93280W        W59689  44.462  42.762   1.966
93281W        W59690  25.885  30.599  11.175
93282W        W59691  23.157  27.068   3.099
93283W        W59692  13.932  23.557   3.137
93284W        W59693  43.347  41.067  12.440
93285W        W59694  39.272  43.880   0.563
93286W        W59695  27.068  39.344  11.270
93287W        W59696   1.710  22.509   0.308
93288W        W59697  40.615  15.203  11.060
93289W        W59698  30.594  25.168  13.875
93290W        W59699  22.740   6.754   4.904
93291W        W59700  31.495  26.694  10.240
93292W        W59701  27.134  40.698  13.353
93293W        W59702  32.560   8.148   1.881
93294W        W59703  36.513  32.584  12.346
93295W        W59704  21.332  13.853   0.261
93296W        W59705  38.074  20.580  13.456
93297W        W59706  34.096   9.095   4.537
93298W        W59707   8.435  35.962   2.859
93299W        W59708   3.819  19.320   4.591
93300W        W59709  28.972  20.065   1.808
93301W        W59710  25.378  22.327  10.355
93302W        W59711  32.448  27.660   4.069
93303W        W59712  22.700   3.912   0.388
93304W        W59713  34.782  38.913  14.896
93305W        W59714  41.902   7.253   3.694
93306W        W59715   5.742   6.215   0.865
93307W        W59716  14.204  34.109   3.663
93308W        W59717   9.446  13.642   4.480
93309W        W59718  11.672  11.853  13.641
93310W        W59719  24.197  43.964  12.545
93311W        W59720  19.310  32.984   1.856
93312W        W59721  37.938  33.308   4.126
93313W        W59722  23.153  30.034  12.138
93314W        W59723  12.599  26.875  11.068
93315W        W59724   2.445  10.173  13.475
93316W        W59725  30.138  40.808  11.524
93317W        W59726  26.630  13.397   3.923
93318W        W59727  31.566   2.307  13.409
93319W        W59728  25.493   1.348   5.148
93320W        W59729   3.370  40.382   2.519
93321W        W59730   5.551  37.251   4.381
93322W        W59731  11.624  31.998   0.669
93323W        W59732   3.515  21.473   1.822
93324W        W59733  37.951  13.241   4.191
93325W        W59734  28.348  42.523  13.774
93326W        W59735  32.636  39.966  13.953
93327W        W59736   8.887   1.336  13.844
93328W        W59737  13.229  14.099   4.000
93329W        W59738   9.695   7.660  13.267
93330W        W59739  38.459   8.984   3.397
93331W        W59740  42.387   7.692  10.266
93332W        W59741  12.379   3.417   1.057
93333W        W59742  25.703  34.074   1.750
93334W        W59743  11.663  28.699  14.296
93335W        W59744  23.550  11.366  13.310
93336W        W59745  20.914  30.360   4.573
93337W        W59746  40.635  36.289  12.000
93338W        W59747  40.508  35.940  13.320
93339W        W59748  11.228  25.427   3.218
93340W        W59749  29.012  26.781  12.183
93341W        W59750  38.089  15.730  11.680
93342W        W59751  26.479  19.299  12.472
93343W        W59752  40.144   8.723   1.981
93344W        W59753  13.582   1.152   2.227
93345W        W59754  22.436   6.346   5.022
93346W        W59755  41.484   3.181  14.914
93347W        W59756   4.661  43.868  11.866
93348W        W59757  12.817  40.078  10.701
93349W        W59758  19.618  24.311  13.016
93350W        W59759  27.863  32.328  11.398
93351W        W59760  20.237   0.055  14.942
93352W        W59761  27.444  30.408   2.970
93353W        W59762  22.586  29.998   4.116
93354W        W59763  40.895  29.552  14.457
93355W        W59764   5.558  40.310   0.347
93356W        W59765  16.823  37.317  12.223
93357W        W59766  44.005   7.964  12.157
93358W        W59767  11.628  12.018  10.734
93359W        W59768  29.566  40.846   1.317
93360W        W59769  27.414  21.490   4.630
93361W        W59770  21.187  19.649  11.161
93362W        W59771  28.128  19.572  14.781
93363W        W59772  41.483  15.314   1.803
93364W        W59773  37.806  19.791  10.709
93365W        W59774   9.648  43.018  13.344
93366W        W59775  41.309   7.708  14.387
93367W        W59776  32.191  36.433   4.084
93368W        W59777  21.727  14.476  14.041
93369W        W59778  34.163   4.792   1.803
93370W        W59779  42.322  22.273  11.534
93371W        W59780  17.879  28.089   4.280
93372W        W59781  26.318   4.361   3.294
93373W        W59782  35.430  30.487   2.909
93374W        W59783  14.685  26.631   1.567
93375W        W59784  21.454   3.637   2.837
93376W        W59785   6.267   1.736  13.378
93377W        W59786  12.551  11.685  13.860
93378W        W59787  21.489  39.907   1.841
93379W        W59788  16.736  11.165   1.946
93380W        W59789  42.526  44.369   0.262
93381W        W59790  44.997  24.115   3.754
93382W        W59791  44.478  23.581  12.590
93383W        W59792  40.111  39.366  14.315
93384W        W59793  39.910  39.036  13.827
93385W        W59794  30.547  35.304   0.681
93386W        W59795  20.515  42.642  11.971
93387W        W59796  40.292  29.174   3.550
93388W        W59797  35.419   8.159   2.290
93389W        W59798  14.236  21.997   1.686
93390W        W59799  44.348  23.342   2.211
93391W        W59800   3.336   6.381   3.269
93392W        W59801   9.252  16.393   0.961
93393W        W59802  27.122   4.714   0.289
93394W        W59803   0.835  31.331   4.590
93395W        W59804  29.731  26.018   4.095
93396W        W59805  42.876  21.466  11.053
93397W        W59806  25.078  12.769   1.986
93398W        W59807  24.467   3.547  10.659
93399W        W59808  19.104   3.488   0.502
93400W        W59809   0.997  26.593  14.305
93401W        W59810  17.259  26.514   4.170
93402W        W59811  41.095   6.352   2.756
93403W        W59812  40.871  20.144  14.437
93404W        W59813  34.148  24.618  13.534
93405W        W59814  27.573   8.332  11.517
93406W        W59815  23.140  36.169  10.768
93407W        W59816  30.929   6.360   2.294
93408W        W59817  39.284  18.843   4.957
93409W        W59818  35.659  33.416  10.383
93410W        W59819  25.778  12.937  11.618
93411W        W59820  38.139  38.393  13.874
93412W        W59821   8.506  31.227  13.445
93413W        W59822  21.514  32.047   0.475
93414W        W59823  31.160  38.580  11.648
93415W        W59824   0.938  24.122  11.051
93416W        W59825  39.344  29.401   4.626
93417W        W59826   8.624   6.765  11.973
93418W        W59827  36.024  41.461  12.949
93419W        W59828  23.059  41.762  10.778
93420W        W59829  29.146  20.759  10.576
93421W        W59830  27.604  16.946   1.925
93422W        W59831  34.881  26.559  12.894
93423W        W59832   8.660  26.995  10.616
93424W        W59833  44.084   2.708   1.393
93425W        W59834   9.865  34.678   4.628
93426W        W59835  44.539  28.712  11.528
93427W        W59836  42.890  12.912  14.895
93428W        W59837  20.167   5.731   3.723
93429W        W59838   4.265  23.744  10.745
93430W        W59839  13.765   7.942   1.764
93431W        W59840  33.250  14.611  12.599
93432W        W59841  38.511  16.447   3.303
93433W        W59842  25.753   7.262   1.302
93434W        W59843  17.228  24.700  13.841
93435W        W59844  18.348  39.840  14.775
93436W        W59845   8.940  43.787   1.463
93437W        W59846  29.999   0.354   2.886
93438W        W59847  43.462  38.255  11.064
93439W        W59848  23.503  15.210  13.590
93440W        W59849  34.763  25.048   5.036
93441W        W59850  36.586  28.167   0.397
93442W        W59851  44.242   4.949  11.509
93443W        W59852   7.902  15.067  13.409
93444W        W59853  18.662  31.155   1.431
93445W        W59854   5.271  14.943   0.971
93446W        W59855  21.751  22.923  11.592
93447W        W59856  12.555  44.914   1.830
93448W        W59857  14.915  19.156   2.856
93449W        W59858  38.936   2.494   2.864
93450W        W59859  41.445  13.445  11.620
93451W        W59860  41.343   1.814  14.440
93452W        W59861  40.121  27.419   0.277
93453W        W59862  34.858  15.698   1.757
93454W        W59863  40.826  42.530  12.426
93455W        W59864  15.762  35.949  11.710
93456W        W59865  26.173   0.484   0.778
93457W        W59866  32.441   7.201  10.123
93458W        W59867  33.905  23.654   0.193
93459W        W59868   5.710   5.996  11.824
93460W        W59869  32.911  16.288   3.384
93461W        W59870  26.042  29.206   1.872
93462W        W59871  43.034  27.590   0.271
93463W        W59872  24.638  29.633   4.649
93464W        W59873  43.765  33.078   3.128
93465W        W59874  43.489  43.028   4.037
93466W        W59875  31.959  42.286   0.891
93467W        W59876  41.847   1.904  14.291
93468W        W59877  36.007  33.687  14.596
93469W        W59878  16.275   2.320   4.244
93470W        W59879  32.276  44.303  14.911
93471W        W59880  44.838  38.498   2.349
93472W        W59881  28.449   7.177  11.525
93473W        W59882  22.125  28.360  13.427
93474W        W59883  14.608   8.265   3.787
93475W        W59884  44.796   5.382   2.767
93476W        W59885   9.746  28.368  12.867
93477W        W59886  31.231   0.758   2.252
93478W        W59887   5.244  37.067   2.184
93479W        W59888  11.557  11.295  11.640
93480W        W59889  27.567  23.117  14.237
93481W        W59890  44.111  30.704  11.187
93482W        W59891  30.882  21.652   1.151
93483W        W59892  24.455  10.210  14.082
93484W        W59893  28.763  18.139   3.115
93485W        W59894  30.898   2.645   0.935
93486W        W59895  25.919  40.998  11.668
93487W        W59896   4.538   3.519   5.066
93488W        W59897  16.628  42.195  14.043
93489W        W59898  11.656  11.205   1.886
93490W        W59899  32.399   4.413   5.050
93491W        W59900  41.388  22.974   1.714
93492W        W59901  32.424  30.156  12.525
93493W        W59902  25.206  19.669  12.847
93494W        W59903  31.276  26.573  10.696
93495W        W59904   7.280  28.280  13.010
93496W        W59905  29.471  24.816   4.629
93497W        W59906   3.984  20.564  14.759
93498W        W59907   0.242  38.456  12.408
93499W        W59908  36.375   1.048  11.595
93500W        W59909  20.652   3.806   4.388
93501W        W59910  10.109  21.778  13.991
93502W        W59911  25.513   1.740  11.501
93503W        W59912  42.377  27.936  14.260
93504W        W59913  25.081  37.891   4.910
93505W        W59914  24.474   7.746  10.165
93506W        W59915  17.572   9.841   3.426
93507W        W59916  43.645  39.885  10.456
93508W        W59917   4.158  35.559   2.470
93509W        W59918  37.510  24.883  10.541
93510W        W59919  10.785  19.299  14.016
93511W        W59920   8.207  36.058  14.441
93512W        W59921  27.025   0.782  13.269
93513W        W59922  13.845  12.169  13.042
93514W        W59923  21.075  14.247  11.804
93515W        W59924  21.707  10.796   3.887
93516W        W59925  44.880  30.415   2.892
93517W        W59926  43.859  44.860   3.379
93518W        W59927  26.276  22.958  12.095
93519W        W59928  10.964  37.324   1.452
93520W        W59929  12.580  38.926   4.447
93521W        W59930  26.601  26.155   2.232
93522W        W59931   3.511  16.788   1.731
93523W        W59932  16.326  34.456   4.573
93524W        W59933  30.739  24.519   2.342
93525W        W59934   0.882  27.670   2.767
93526W        W59935  32.425   1.124   4.497
93527W        W59936  27.331  43.280   0.994
93528W        W59937   2.490  23.528   0.922
93529W        W59938  25.746   0.490   3.364
93530W        W59939  34.824  14.751  13.400
93531W        W59940  34.272   5.255   2.471
93532W        W59941  30.741  30.957   5.037
93533W        W59942  36.636  15.847  11.702
93534W        W59943   1.209  30.081  10.619
93535W        W59944  18.210  16.353  14.274
93536W        W59945  26.032   2.807   2.016
93537W        W59946  23.583  30.117  12.408
93538W        W59947  17.788  17.547  12.078
93539W        W59948  27.492   1.172  13.892
93540W        W59949  39.315   1.224  14.944
93541W        W59950   8.527  25.048   1.511
93542W        W59951   2.269  36.147  14.307
93543W        W59952  38.824  32.655   2.591
93544W        W59953   7.158  26.754  12.921
93545W        W59954  28.586   9.387  13.971
93546W        W59955   8.740  31.976   2.348
93547W        W59956  44.925  39.017   3.656
93548W        W59957   0.008  30.164   3.357
93549W        W59958  35.120  43.874  13.517
93550W        W59959  40.865  27.029  14.512
93551W        W59960  19.724  20.575   4.113
93552W        W59961  12.390  42.734  11.268
93553W        W59962  43.148  19.277  11.503
93554W        W59963  35.418  23.991   3.828
93555W        W59964   8.710  37.788  14.041
93556W        W59965  42.052  42.396   4.561
93557W        W59966   8.238   2.762  13.120
93558W        W59967  25.282  11.030   1.902
93559W        W59968  32.234   5.218  13.965
93560W        W59969  36.074  41.925   2.921
93561W        W59970  38.013  29.772   4.341
93562W        W59971   3.974  42.256   1.702
93563W        W59972   1.046   3.961   1.790
93564W        W59973   5.205   8.735  10.988
93565W        W59974  28.508  39.532  13.690
93566W        W59975  40.911  10.275   5.121
93567W        W59976  23.681   7.002  12.226
93568W        W59977   9.899  40.316   4.058
93569W        W59978  29.624  40.357  13.006
93570W        W59979  16.895   3.167  13.789
93571W        W59980  22.714  30.445  11.631
93572W        W59981   7.468  26.605   0.451
93573W        W59982   3.083  36.501  12.956
93574W        W59983   7.285  12.801   4.528
93575W        W59984  34.802  23.596   0.621
93576W        W59985  18.018  38.394  10.705
93577W        W59986  10.373  10.162  10.920
93578W        W59987  14.831  11.073  13.892
93579W        W59988  26.962   6.709  14.081
93580W        W59989  26.968  17.714   0.033
93581W        W59990  39.465   2.811  12.081
93582W        W59991  26.949  27.070   3.136
93583W        W59992  25.163   7.317   1.743
93584W        W59993  10.118  40.439   5.062
93585W        W59994  34.799  37.550   0.103
93586W        W59995  28.307   3.746  12.382
93587W        W59996   4.287  20.755  12.978
93588W        W59997  15.113   8.075   1.198
93589W        W59998  39.376   1.736   2.247
93590W        W59999   3.155  28.451  11.659
93591W        W60000   4.454  11.167   0.802
93592W        W60001   4.768  23.900   4.605
93593W        W60002  27.777  18.263  12.835
93594W        W60003  14.812   2.349  14.051
93595W        W60004  42.437  30.634  14.905
93596W        W60005  33.673  18.705  12.082
93597W        W60006  15.703  27.989   1.155
93598W        W60007   4.645  12.282   4.246
93599W        W60008  18.165  18.093  10.652
93600W        W60009   5.714   3.006  10.518
93601W        W60010   0.988   9.943   3.208
93602W        W60011  14.076  21.567   1.914
93603W        W60012  11.581  23.730  14.932
93604W        W60013  38.751  31.011   1.669
93605W        W60014  31.867   7.841   3.302
93606W        W60015  17.597  18.198  13.580
93607W        W60016   0.705  42.321  13.511
93608W        W60017   1.999  12.562   0.279
93609W        W60018   4.520  39.433  10.968
93610W        W60019  39.023  31.103   1.239
93611W        W60020  26.363  35.523  10.904
93612W        W60021  29.603   7.934  12.418
93613W        W60022  21.774  39.976   3.292
93614W        W60023  23.239  10.770  14.466
93615W        W60024  16.484   7.302   4.127
93616W        W60025  31.982  27.944   4.180
93617W        W60026  36.077  35.440   0.940
93618W        W60027   1.423  33.025   4.197
93619W        W60028   3.606  13.875  13.336
93620W        W60029  44.313  14.003  11.581
93621W        W60030  39.609   2.810   2.394
93622W        W60031  28.535  40.956  12.485
93623W        W60032  13.239   1.538  12.056
93624W        W60033   4.395  40.586   1.900
93625W        W60034   9.102  24.566   0.799
93626W        W60035  19.292  35.887   1.953
93627W        W60036  14.293  20.134   2.066
93628W        W60037  23.161  29.041  14.921
93629W        W60038  27.243   2.598   0.759
93630W        W60039   3.249  29.911  10.416
93631W        W60040   8.673  23.474  11.119
93632W        W60041  44.320  17.387  10.243
93633W        W60042  22.278  30.123   1.820
93634W        W60043  15.522  23.045   0.393
93635W        W60044  39.240  21.114   0.984
93636W        W60045  10.663  34.838  10.688
93637W        W60046  28.752   2.449  11.020
93638W        W60047  12.648  32.274  11.371
93639W        W60048  31.621  12.293   1.783
93640W        W60049  38.985  32.493   4.391
93641W        W60050  19.976  13.910   2.459
93642W        W60051  29.002  37.550   0.940
93643W        W60052  22.749  38.567   3.643
93644W        W60053  32.332  39.999   1.646
93645W        W60054   0.683  19.678  10.750
93646W        W60055  36.127   9.697   1.342
93647W        W60056  38.480  16.868   2.882
93648W        W60057  11.212  28.466  14.432
93649W        W60058  20.705   2.333   0.254
93650W        W60059  25.385   7.638   1.383
93651W        W60060  44.531  26.162  12.034
93652W        W60061  17.805  11.376   2.880
93653W        W60062  21.286  18.595   3.744
93654W        W60063   9.387  27.071  13.798
93655W        W60064  13.086  40.619   4.978
93656W        W60065  28.666  18.401   5.084
93657W        W60066  11.041  40.114   0.374
93658W        W60067  34.978  32.604   0.442
93659W        W60068   8.743  17.185   2.623
93660W        W60069  40.249   3.442   3.374
93661W        W60070  35.744  29.116  12.087
93662W        W60071  36.456  10.200   2.580
93663W        W60072  36.635  44.768  11.108
93664W        W60073  29.142  13.121   4.140
93665W        W60074  40.738  40.329   0.364
93666W        W60075   3.308  43.233   1.224
93667W        W60076   6.716   6.533   4.215
93668W        W60077   4.600  32.451  11.172
93669W        W60078  43.308  38.068   0.775
93670W        W60079   8.771  30.436  11.975
93671W        W60080  25.065   8.666  11.482
93672W        W60081  44.379  37.401   1.353
93673W        W60082   1.624  37.291  13.130
93674W        W60083  22.281  16.103  14.490
93675W        W60084  13.046  26.136   1.317
93676W        W60085  35.438   3.728   9.848
93677W        W60086   5.253   5.377   1.753
93678W        W60087  39.087  18.591   1.841
93679W        W60088   8.147  38.025  10.680
93680W        W60089   6.280  23.941  12.869
93681W        W60090   8.310  23.006   1.240
93682W        W60091  41.908   8.194  14.182
93683W        W60092  20.775  44.356   0.398
93684W        W60093  31.140  11.189   4.468
93685W        W60094  12.579   6.160  11.271
93686W        W60095  20.046  14.380   4.156
93687W        W60096  33.248  17.783  12.947
93688W        W60097  16.107  12.221   3.213
93689W        W60098  36.620   6.745   1.469
93690W        W60099   7.438  31.611   4.004
93691W        W60100  44.459  21.490   3.920
93692W        W60101  34.904  44.987  10.969
93693W        W60102  23.958  25.301  12.997
93694W        W60103   3.022  11.867   2.262
93695W        W60104  31.086   5.738  13.369
93696W        W60105  35.532  13.532   3.548
93697W        W60106  39.982   0.644   2.196
93698W        W60107  38.945  13.296  14.304
93699W        W60108   7.739   1.529   2.871
93700W        W60109  36.621  27.969  12.201
93701W        W60110  32.990  39.585  14.402
93702W        W60111  13.110  40.805   4.023
93703W        W60112   7.690  36.079  14.295
93704W        W60113  34.134   1.503   2.344
93705W        W60114  10.882  22.780   4.083
93706W        W60115   6.164  29.148   2.123
93707W        W60116  19.281  21.007   0.435
93708W        W60117  32.850   8.172   3.083
93709W        W60118   7.273  29.425  12.338
93710W        W60119  16.796  17.595  14.468
93711W        W60120  13.183  31.344   3.862
93712W        W60121  20.616  31.923   0.749
93713W        W60122  23.736  41.442  12.143
93714W        W60123  31.478  19.362  14.414
93715W        W60124  36.484  41.172  12.916
93716W        W60125  39.519  12.909   0.931
93717W        W60126   7.771  41.535   4.005
93718W        W60127  28.197  15.123  10.546
93719W        W60128   0.490  37.640   3.165
93720W        W60129  19.260  24.139   2.622
93721W        W60130  25.715   9.798   1.840
93722W        W60131  35.930   0.774  11.553
93723W        W60132  31.329  38.914   0.733
93724W        W60133   6.718  28.571   2.454
93725W        W60134  25.001  41.388  13.476
93726W        W60135  18.546  18.666  12.038
93727W        W60136  42.777  24.238  12.410
93728W        W60137  41.387  40.338   3.238
93729W        W60138  41.147  17.355   4.846
93730W        W60139  31.650   7.762  13.025
93731W        W60140  40.924  41.357   1.042
93732W        W60141  29.682  12.189  14.871
93733W        W60142  38.548  27.259   2.632
93734W        W60143  20.723  10.567  13.267
93735W        W60144  20.138   9.136  10.868
93736W        W60145  32.122   8.348  11.296
93737W        W60146  42.832   4.334  13.741
93738W        W60147  31.084  41.221   4.558
93739W        W60148   6.883   2.755   1.769
93740W        W60149  36.444  14.830   1.454
93741W        W60150   6.323  40.884   2.832
93742W        W60151  28.183  14.812  13.417
93743W        W60152  18.123   3.913   2.075
93744W        W60153  19.054  13.722  14.961
93745W        W60154  25.138  44.534  14.914
93746W        W60155  27.795  39.842   0.390
93747W        W60156  14.185  33.042  12.849
93748W        W60157  15.625  40.771  14.102
93749W        W60158  33.592  43.431   0.393
93750W        W60159   6.520  40.687   1.295
93751W        W60160  38.507  33.324  13.827
93752W        W60161   2.308   3.029  10.599
93753W        W60162  27.452   6.902   4.905
93754W        W60163  25.632  36.096   1.815
93755W        W60164   1.765  22.812   0.815
93756W        W60165  44.030  17.090  11.635
93757W        W60166  14.184  13.211  11.144
93758W        W60167  36.815   5.191   4.264
93759W        W60168   8.784   2.218  10.686
93760W        W60169  16.878  27.288  12.828
93761W        W60170   1.213  40.400  11.602
93762W        W60171  28.736  32.950  11.286
93763W        W60172  40.084  37.524   4.863
93764W        W60173  23.067  20.525   2.386
93765W        W60174  23.753  44.303  13.800
93766W        W60175  29.210   2.437  10.744
93767W        W60176  25.155  34.977  11.445
93768W        W60177  27.759  37.888  11.623
93769W        W60178   0.515  10.872   0.391
93770W        W60179  20.557   4.578   1.399
93771W        W60180  33.527  31.040   3.931
93772W        W60181   5.605   6.418  12.104
93773W        W60182   0.117  44.774   4.302
93774W        W60183  26.495  43.777  10.915
93775W        W60184  34.895   7.907   3.846
93776W        W60185  42.377   1.814  12.059
93777W        W60186   2.492  14.031  12.708
93778W        W60187  38.391   7.653   2.139
93779W        W60188  25.964   4.799  14.826
93780W        W60189  20.661  38.517  11.546
93781W        W60190  30.684   8.866   2.942
93782W        W60191  38.482  44.000  14.387
93783W        W60192  41.046   0.972   0.472
93784W        W60193  11.151  11.092   3.699
93785W        W60194  39.645   6.400   2.224
93786W        W60195  17.828   1.300   1.900
93787W        W60196  21.483  14.805   1.489
93788W        W60197   4.755   6.820  14.169
93789W        W60198   3.237  36.110  13.476
93790W        W60199  43.372   8.450   0.157
93791W        W60200   1.311  36.478  12.600
93792W        W60201  35.806  23.320  11.474
93793W        W60202  37.347  27.155  11.357
93794W        W60203  44.486  36.451   1.908
93795W        W60204  26.605  27.776   5.113
93796W        W60205  26.279  37.340   2.767
93797W        W60206  38.150  12.112  12.884
93798W        W60207  17.802  43.719  14.864
93799W        W60208  14.408  21.492   2.320
93800W        W60209  37.158  44.820   3.290
93801W        W60210  35.611  23.111   0.989
93802W        W60211  29.184   1.403   1.867
93803W        W60212  37.695  40.295   3.829
93804W        W60213  11.262  42.805  14.817
93805W        W60214  40.329  38.054   0.463
93806W        W60215   2.642  13.415   3.961
93807W        W60216  29.170  10.691  10.701
93808W        W60217   8.345  31.874   4.006
93809W        W60218   1.366  14.644  11.064
93810W        W60219  29.695   1.953  14.559
93811W        W60220  23.983  43.600  11.368
93812W        W60221   4.366  24.947   3.269
93813W        W60222  36.424  42.938   3.287
93814W        W60223   7.096  20.218  12.720
93815W        W60224   8.191  37.776   4.110
93816W        W60225  33.133  12.399  12.052
93817W        W60226  35.877   8.548  11.958
93818W        W60227  14.570   7.127   3.174
93819W        W60228  36.489   3.008  12.564
93820W        W60229  13.271  18.154  14.888
93821W        W60230   5.330  32.484  12.436
93822W        W60231  26.943  25.508   3.185
93823W        W60232  40.797   5.927  13.108
93824W        W60233  27.632   8.831  12.099
93825W        W60234   0.226  39.862   0.247
93826W        W60235  12.767  39.849   0.284
93827W        W60236  42.325  42.264   2.261
93828W        W60237  27.554  11.735  14.931
93829W        W60238  40.632  13.187  14.293
93830W        W60239  27.969   7.626   4.968
93831W        W60240  33.104  31.984  11.555
93832W        W60241  17.852  42.706  14.843
93833W        W60242  17.055  14.086   1.152
93834W        W60243  16.627  11.511  14.062
93835W        W60244  38.465  40.113  12.933
93836W        W60245  12.071   6.314   2.701
93837W        W60246   5.756  24.493   3.077
93838W        W60247  42.049  37.989   1.770
93839W        W60248  25.318  31.617   0.408
93840W        W60249  21.663  44.393   4.278
93841W        W60250   7.886  24.107  11.401
93842W        W60251  33.137  21.466   0.749
93843W        W60252  33.423  22.795  10.281
93844W        W60253   8.069  27.740  10.081
93845W        W60254  42.026  34.981   3.412
93846W        W60255  34.613  34.472  11.486
93847W        W60256  34.259  17.722   2.248
93848W        W60257  32.565  42.459   0.753
93849W        W60258  18.600  12.181   0.880
93850W        W60259  41.048   6.332   4.234
93851W        W60260   2.672   9.664  11.009
93852W        W60261  34.793   9.864   4.491
93853W        W60262  27.621  31.316   3.937
93854W        W60263  20.571  33.596  11.164
93855W        W60264  24.246  14.274   2.170
93856W        W60265  12.236  38.146   4.665
93857W        W60266   5.700   0.444  12.343
93858W        W60267  29.557  26.474   0.449
93859W        W60268   5.440  41.532  12.964
93860W        W60269   8.667  10.864   1.857
93861W        W60270  40.597   1.608  14.256
93862W        W60271  11.280  14.270   2.685
93863W        W60272  26.103  13.144  13.861
93864W        W60273   5.927   5.798   1.151
93865W        W60274  12.139  43.043   4.570
93866W        W60275  24.435  11.820   2.284
93867W        W60276  42.062   4.495  13.783
93868W        W60277  40.002  24.193   3.240
93869W        W60278  12.015   9.871   3.319
93870W        W60279   9.177  42.256  13.417
93871W        W60280  32.340  25.168   2.461
93872W        W60281   7.161   4.041   2.176
93873W        W60282  10.238  28.729  14.819
93874W        W60283  44.873  25.116   2.503
93875W        W60284  22.501  13.157   4.067
93876W        W60285  33.185  41.127  14.307
93877W        W60286   5.729   6.115   1.879
93878W        W60287  10.210  16.648   0.188
93879W        W60288  16.372  29.405  11.375
93880W        W60289  27.305  37.525  11.609
93881W        W60290  42.377   3.931   1.652
93882W        W60291  26.434   2.329  11.554
93883W        W60292  14.750   1.854   0.331
93884W        W60293  39.542  38.092  13.366
93885W        W60294  10.222  10.014   4.872
93886W        W60295  23.469  15.484  12.790
93887W        W60296  14.841  14.521  11.717
93888W        W60297  22.176  39.476   0.914
93889W        W60298  27.994  20.285  13.497
93890W        W60299  24.336  40.738   1.797
93891W        W60300   2.725   2.182  11.273
93892W        W60301  15.486  32.120   2.303
93893W        W60302   6.133  22.903   0.900
93894W        W60303   8.749  33.850  12.027
93895W        W60304  37.984  13.051   2.891
93896W        W60305  26.420  10.288   4.615
93897W        W60306   0.371   3.456   3.174
93898W        W60307  38.853  26.545   1.794
93899W        W60308  13.625  10.580  14.783
93900W        W60309  30.172  10.719  12.971
93901W        W60310  26.674  17.363  13.030
93902W        W60311   0.107  21.276  13.068
93903W        W60312  41.231  38.494  13.030
93904W        W60313   2.291   5.292   0.226
93905W        W60314  42.395  23.245   2.121
93906W        W60315  30.173   5.372  10.365
93907W        W60316  30.944   9.855   1.194
93908W        W60317  41.570  39.998  10.607
93909W        W60318  42.961  34.300  13.084
93910W        W60319  44.410  12.938  11.334
93911W        W60320  44.323   6.198   3.334
93912W        W60321  42.787  32.152  14.447
93913W        W60322  40.264  32.009  12.415
93914W        W60323  44.774  23.661   1.259
93915W        W60324   9.672  44.980  12.200
93916W        W60325  34.774  14.699   3.920
93917W        W60326  24.270  22.297  13.016
93918W        W60327  11.786  19.646   1.399
93919W        W60328  21.573   5.881   4.152
93920W        W60329   9.256  28.514   2.646
93921W        W60330  33.654  12.354  13.351
93922W        W60331  20.611  36.694  14.833
93923W        W60332  35.602   5.932   1.510
93924W        W60333   8.058  15.154   1.855
93925W        W60334  14.666  17.443  14.038
93926W        W60335   8.903  41.905   3.366
93927W        W60336   6.831  17.626  12.484
93928W        W60337   6.817   9.594   1.919
93929W        W60338   9.420   8.806  14.239
93930W        W60339  13.600  23.258  13.489
93931W        W60340  34.844   2.296  10.594
93932W        W60341  32.094  38.742  11.473
93933W        W60342  10.800  38.104   1.005
93934W        W60343  25.249   4.429  12.139
93935W        W60344  30.049  20.528  12.684
93936W        W60345  39.451  30.137   1.937
93937W        W60346   7.623  41.200   2.421
93938W        W60347  21.474  32.947  12.999
93939W        W60348   9.123  10.215  11.510
93940W        W60349   2.512  34.450   1.896
93941W        W60350  17.455   9.458  14.139
93942W        W60351  39.636  34.627   3.258
93943W        W60352  29.953   2.724   2.267
93944W        W60353  30.584  27.138   2.323
93945W        W60354  37.518   0.488   2.163
93946W        W60355  24.355  14.885  12.959
93947W        W60356  19.188  13.650  13.783
93948W        W60357   2.331  38.838   0.629
93949W        W60358  18.625  30.511  12.506
93950W        W60359   1.065   7.991   1.392
93951W        W60360  27.192  42.569  13.065
93952W        W60361   7.020  43.135   4.964
93953W        W60362  36.923   5.711  13.996
93954W        W60363   3.248  21.687  14.524
93955W        W60364   3.921  28.673  14.863
93956W        W60365  33.662  36.999   3.272
93957W        W60366  17.253  32.679   4.138
93958W        W60367  15.622  44.744  13.885
93959W        W60368  19.823   1.344  14.293
93960W        W60369  32.953  11.892  14.737
93961W        W60370   9.646  20.996   2.705
93962W        W60371  42.512   5.878   1.365
93963W        W60372  23.736   6.907  13.053
93964W        W60373  31.876  17.576  11.047
93965W        W60374  12.711  33.199   3.599
93966W        W60375   1.720  42.081  13.500
93967W        W60376  24.015   9.852  14.973
93968W        W60377   0.007  36.359   3.252
93969W        W60378  19.726   4.013   4.598
93970W        W60379  43.848  43.235   4.383
93971W        W60380  18.282  33.793  12.552
93972W        W60381  27.278  40.397  12.964
93973W        W60382   9.888   6.718   1.125
93974W        W60383  26.434  41.473   4.231
93975W        W60384  29.601  18.026   0.617
93976W        W60385  20.738  23.781  14.370
93977W        W60386  14.881  18.412  13.762
93978W        W60387  12.407  39.552  12.547
93979W        W60388  37.783  22.719   0.758
93980W        W60389   9.600  42.567  11.883
93981W        W60390  33.927  26.439  14.968
93982W        W60391  15.724  32.349   4.596
93983W        W60392   0.688  12.178  12.928
93984W        W60393   1.607  24.910  11.149
93985W        W60394  19.464  25.497   1.259
93986W        W60395  25.630  37.435   0.243
93987W        W60396  33.577  21.751  12.123
93988W        W60397  24.477  27.440  14.449
93989W        W60398   5.279  21.869  12.140
93990W        W60399  28.538  24.664   2.475
93991W        W60400  22.011  29.949  12.035
93992W        W60401  31.644  32.621   2.113
93993W        W60402  41.931  41.732  11.122
93994W        W60403  20.099  20.550  11.118
93995W        W60404  41.763  22.187  14.012
93996W        W60405   7.904  28.658   4.616
93997W        W60406  22.157  35.406  12.091
93998W        W60407   2.973  24.585   3.313
93999W        W60408  35.132  39.142   4.595
94000W        W60409  25.502  19.103  14.059
94001W        W60410  33.394  27.547  13.969
94002W        W60411  26.673   0.023  12.272
94003W        W60412  34.490  31.379  12.953
94004W        W60413  30.252   7.148   4.387
94005W        W60414  15.621  38.443  12.717
94006W        W60415  39.644  39.357  12.057
94007W        W60416   7.705   4.788   0.711
94008W        W60417  39.845  11.309   0.488
94009W        W60418  11.394  10.861   4.146
94010W        W60419  43.356  20.559  10.945
94011W        W60420  24.662   2.892   3.231
94012W        W60421  28.922  40.371   0.270
94013W        W60422  22.235  10.628  14.286
94014W        W60423   4.871   6.838   1.834
94015W        W60424  35.961  43.297   1.417
94016W        W60425   6.309  28.580  14.043
94017W        W60426  12.683  30.434  14.404
94018W        W60427  19.800  13.879   3.895
94019W        W60428  38.032  22.238  12.866
94020W        W60429  26.738  41.928  14.489
94021W        W60430   0.320  41.717   1.767
94022W        W60431   1.660  12.051  10.642
94023W        W60432  42.170  27.777   0.282
94024W        W60433   2.342  44.905  13.180
94025W        W60434  41.921  24.594   1.797
94026W        W60435   6.340  25.266  14.342
94027W        W60436   4.904  17.677  10.536
94028W        W60437  34.643  32.894   2.778
94029W        W60438  43.887  24.434   4.149
94030W        W60439  10.775  14.688  11.611
94031W        W60440  10.781   3.434  12.362
94032W        W60441  44.719  44.445   1.006
94033W        W60442  43.869  40.696  11.631
94034W        W60443   4.387  20.959  12.477
94035W        W60444  40.887  41.037   4.124
94036W        W60445   9.477  18.323   1.526
94037W        W60446  33.600  34.279  12.191
94038W        W60447  29.266  31.076   3.145
94039W        W60448  30.944  20.620   0.305
94040W        W60449   3.933   0.974   2.722
94041W        W60450  35.673  35.049   4.596
94042W        W60451  17.216  23.501  10.886
94043W        W60452  32.968   6.389  14.922
94044W        W60453  33.987  43.816  14.344
94045W        W60454  21.241  23.557   4.520
94046W        W60455  42.914  17.969  14.425
94047W        W60456   9.073   2.864   1.921
94048W        W60457  34.806  25.223  13.319
94049W        W60458  42.210  28.056   4.316
94050W        W60459  31.894  24.581  11.566
94051W        W60460   7.634   1.269   2.375
94052W        W60461  33.900  10.430  11.576
94053W        W60462  24.033  12.574  11.196
94054W        W60463  30.327  26.792  13.737
94055W        W60464  10.199  38.816  14.411
94056W        W60465  40.304  21.356  14.321
94057W        W60466  20.517  19.485   2.318
94058W        W60467  39.051   2.472   3.799
94059W        W60468  15.726  29.915   3.280
94060W        W60469  15.912  24.918   2.369
94061W        W60470  33.686   9.758   2.577
94062W        W60471   7.016  44.927  14.770
94063W        W60472  12.243   3.756  13.367
94064W        W60473  18.683  36.978   0.950
94065W        W60474  20.813  17.215   5.150
94066W        W60475  33.536  13.348   4.623
94067W        W60476  39.426   3.165  12.881
94068W        W60477  30.017   7.843  14.635
94069W        W60478  37.826  27.566  12.070
94070W        W60479   1.519  37.465   3.614
94071W        W60480  39.992  31.415   3.792
94072W        W60481  28.511  28.957  11.145
94073W        W60482  43.401  44.044  13.068
94074W        W60483  34.389   2.547  10.647
94075W        W60484  40.445  37.071  11.622
94076W        W60485  28.110   8.874   0.679
94077W        W60486  27.461   7.493  14.988
94078W        W60487  31.787  17.561   3.592
94079W        W60488  27.286   2.696   1.375
94080W        W60489  36.314  27.398   2.809
94081W        W60490  31.949  14.113  10.830
94082W        W60491  20.073  20.037  12.372
94083W        W60492  18.811  41.450  14.504
94084W        W60493  31.889  35.620   0.049
94085W        W60494   2.183  13.566   1.215
94086W        W60495  11.780   9.376  10.731
94087W        W60496  42.934  21.483   3.670
94088W        W60497  23.341  38.001  14.092
94089W        W60498  22.982  13.604   4.597
94090W        W60499  30.519  37.156   4.132
94091W        W60500   2.415  42.981  14.668
94092W        W60501  14.141  42.746   2.648
94093W        W60502  33.941  33.645  10.605
94094W        W60503  44.205  38.393  14.346
94095W        W60504   8.300   6.905   4.623
94096W        W60505   5.392  20.303  14.219
94097W        W60506  18.006  38.835   2.494
94098W        W60507  26.199   9.562   1.835
94099W        W60508   6.778   0.497  14.565
94100W        W60509  10.313  42.365  11.485
94101W        W60510  44.074  19.296  13.058
94102W        W60511  35.936  18.115  12.215
94103W        W60512  15.114  35.262   2.089
94104W        W60513   6.905   3.800   0.697
94105W        W60514  27.272  36.273   4.440
94106W        W60515   1.298   9.639  13.107
94107W        W60516  19.232  13.078   1.687
94108W        W60517  14.758  25.605  12.041
94109W        W60518  34.096   5.120  14.729
94110W        W60519  34.773  10.474   2.450
94111W        W60520  23.516  35.018   4.045
94112W        W60521   5.002  20.544  14.557
94113W        W60522  13.701  35.102  10.286
94114W        W60523   0.166  31.369   2.918
94115W        W60524  17.780  18.281  14.062
94116W        W60525   3.422  41.709  11.521
94117W        W60526  21.533  22.325   1.379
94118W        W60527  38.519  12.440  12.768
94119W        W60528  18.118  16.629   4.504
94120W        W60529  11.922  15.756  11.400
94121W        W60530   0.479  32.086  11.069
94122W        W60531  30.383  40.973   4.413
94123W        W60532  10.152   0.897  13.076
94124W        W60533   6.143  13.543  12.962
94125W        W60534  44.736  25.567  13.785
94126W        W60535   5.757  39.308  10.365
94127W        W60536  35.440  16.096  11.346
94128W        W60537   1.003  35.673   0.898
94129W        W60538  27.943  20.814   3.611
94130W        W60539   2.454  11.599   0.447
94131W        W60540  37.674  38.956   3.923
94132W        W60541  35.007  42.333   3.231
94133W        W60542   2.718  36.796  14.008
94134W        W60543   2.344  36.144  13.391
94135W        W60544  43.602  33.920   1.674
94136W        W60545   0.215   4.458   4.719
94137W        W60546  13.202  14.699   4.256
94138W        W60547  33.929  42.299  12.422
94139W        W60548  10.278  36.007   0.431
94140W        W60549  41.268  37.413  12.644
94141W        W60550   2.467  24.800   0.959
94142W        W60551  26.452  14.803  14.427
94143W        W60552  43.785   3.384   0.746
94144W        W60553  32.903  25.807   4.145
94145W        W60554  33.589  30.604  12.153
94146W        W60555  39.064   1.276  13.889
94147W        W60556  42.795  31.656   3.269
94148W        W60557  30.064  13.240   4.483
94149W        W60558  26.014  12.292  12.603
94150W        W60559  30.186  17.133  14.092
94151W        W60560  37.048  26.716   4.410
94152W        W60561  33.967  29.795   4.149
94153W        W60562  37.763  35.732   3.247
94154W        W60563  37.462  28.030  11.189
94155W        W60564  23.663  20.783  12.168
94156W        W60565  35.030  12.415  14.745
94157W        W60566  33.040   8.267  10.884
94158W        W60567   7.407  42.880   2.825
94159W        W60568  33.230   7.720  12.917
94160W        W60569  15.188  22.277  10.900
94161W        W60570   5.239  39.026  14.885
94162W        W60571  33.753  13.259  11.341
94163W        W60572  12.748  18.020   2.770
94164W        W60573  37.425  43.832  10.672
94165W        W60574  33.553  16.563  10.756
94166W        W60575  43.644  34.825   5.270
94167W        W60576  18.041  27.716   0.467
94168W        W60577   4.348  32.571   3.543
94169W        W60578  29.709  44.000   2.125
94170W        W60579   0.470  36.063   2.280
94171W        W60580  29.530   2.248   0.946
94172W        W60581  29.070  21.289  14.795
94173W        W60582  30.433  34.515   1.274
94174W        W60583  41.949   0.866   2.811
94175W        W60584   3.961  27.548  14.789
94176W        W60585   4.888   9.460  11.000
94177W        W60586  20.921  36.934   3.408
94178W        W60587  40.228   2.921  13.818
94179W        W60588   7.747  26.960   0.232
94180W        W60589  20.297  17.182  11.615
94181W        W60590  11.598  41.666  10.740
94182W        W60591  37.173  29.408   5.166
94183W        W60592  18.517  24.983  14.862
94184W        W60593  14.195  30.153  13.007
94185W        W60594   7.422   4.370  12.150
94186W        W60595  11.631  25.127   0.406
94187W        W60596  41.420   8.315   4.231
94188W        W60597  34.438   8.711   3.733
94189W        W60598   6.807   4.910  12.013
94190W        W60599  35.126   3.345  12.934
94191W        W60600  37.880  28.216   2.013
94192W        W60601  30.386  28.592   1.451
94193W        W60602   5.814   3.823  14.866
94194W        W60603  25.107  44.558  13.522
94195W        W60604  43.018   0.861   3.632
94196W        W60605  37.047  10.652   4.891
94197W        W60606  16.211  41.326  11.927
94198W        W60607  33.679  23.279   0.531
94199W        W60608  40.306  11.885   2.359
94200W        W60609   3.639  16.139  11.609
94201W        W60610  12.595  41.952  12.546
94202W        W60611   7.742  14.255   1.485
94203W        W60612  29.489  21.141   0.884
94204W        W60613  30.060   7.008   1.702
94205W        W60614  26.569  13.974  13.064
94206W        W60615  17.187  24.157   1.668
94207W        W60616  32.373   1.883  12.606
94208W        W60617  30.619  26.571   1.496
94209W        W60618  44.435   6.226   3.847
94210W        W60619  12.479  13.695  12.432
94211W        W60620   3.815  32.460   1.259
94212W        W60621  15.667  14.542   0.804
94213W        W60622   9.411  25.203  14.412
94214W        W60623  43.215  24.890   0.944
94215W        W60624  13.739  44.568  13.568
94216W        W60625  39.419  30.532  13.197
94217W        W60626  19.131  25.728  10.998
94218W        W60627  13.544  19.237   1.361
94219W        W60628  16.412  28.044  14.428
94220W        W60629  23.775  13.813  12.489
94221W        W60630   2.831  10.812   1.149
94222W        W60631  32.299  17.534   1.149
94223W        W60632   2.004  27.975   1.761
94224W        W60633   0.301  14.021   0.772
94225W        W60634  31.108  12.161  12.464
94226W        W60635   2.806  14.862  14.370
94227W        W60636  12.226   0.253  11.027
94228W        W60637  14.635   3.474  10.665
94229W        W60638  30.453  15.871   2.843
94230W        W60639   3.376   9.335   3.499
94231W        W60640  10.341  20.644  13.405
94232W        W60641  11.230  42.971   1.223
94233W        W60642  30.004  19.090  13.014
94234W        W60643   4.458  43.421   4.512
94235W        W60644  37.699  41.745  10.979
94236W        W60645   2.965   2.812   4.836
94237W        W60646   0.855  37.100  13.206
94238W        W60647  43.888   0.776  14.364
94239W        W60648  24.594  19.548   2.355
94240W        W60649  22.688  30.844   0.911
94241W        W60650  22.317   8.166  10.782
94242W        W60651   6.922   5.762  14.994
94243W        W60652   7.176  28.230  12.469
94244W        W60653  43.901  18.598  13.886
94245W        W60654  22.669  10.020  13.752
94246W        W60655  32.619  22.556  11.948
94247W        W60656  38.946  28.048  10.144
94248W        W60657  31.212   5.266  10.630
94249W        W60658  17.612  38.660  10.587
94250W        W60659  33.963  28.919  13.446
94251W        W60660  18.120  12.360   0.971
94252W        W60661   2.414  42.735   0.134
94253W        W60662  12.323  37.373   3.412
94254W        W60663  41.429  34.734   3.343
94255W        W60664  22.467  30.442   2.386
94256W        W60665  32.113  29.119   2.771
94257W        W60666  38.333  31.012   2.126
94258W        W60667   2.331  28.013  11.239
94259W        W60668  40.937  29.895  13.499
94260W        W60669  41.796  24.381  11.108
94261W        W60670  26.073   0.281   3.012
94262W        W60671  41.691  23.566  11.002
94263W        W60672  10.568  37.870   4.286
94264W        W60673  16.106  33.760   3.617
94265W        W60674  39.053   7.425  14.249
94266W        W60675  29.904  10.161  12.196
94267W        W60676  40.525  25.871  13.078
94268W        W60677  11.074   8.341   1.912
94269W        W60678  19.930  15.846  14.834
94270W        W60679  44.816  21.245   0.365
94271W        W60680  10.237   3.003   1.745
94272W        W60681  24.198   5.344  13.357
94273W        W60682  35.297  26.420  13.966
94274W        W60683  36.497   6.794  14.122
94275W        W60684  41.413   2.715   1.769
94276W        W60685   6.852  35.019   2.709
94277W        W60686  12.147  10.138   2.211
94278W        W60687  14.395  40.881   3.769
94279W        W60688  33.724  16.820   0.586
94280W        W60689  38.427  35.860  13.423
94281W        W60690  34.348   8.271  14.543
94282W        W60691   7.137   3.315   0.790
94283W        W60692  12.609  18.141  12.367
94284W        W60693  39.906  30.562   1.256
94285W        W60694   4.246   1.802   0.734
94286W        W60695   3.014  33.208  13.466
94287W        W60696  29.050   9.611  14.081
94288W        W60697  32.465  24.736   2.209
94289W        W60698  40.526  32.775   2.775
94290W        W60699  35.940  34.427   2.241
94291W        W60700  18.517  31.354   0.377
94292W        W60701  38.854  17.273   2.814
94293W        W60702   0.916  20.598  13.997
94294W        W60703  22.668  22.003  11.475
94295W        W60704   1.318  26.829  12.862
94296W        W60705  36.613  41.083  11.192
94297W        W60706  19.396  36.954   2.320
94298W        W60707   6.285  35.326   3.373
94299W        W60708  24.476  10.639  14.856
94300W        W60709   2.255  12.424   4.760
94301W        W60710  43.453  23.049   2.004
94302W        W60711   0.259  41.235  11.461
94303W        W60712   6.248  40.841   2.314
94304W        W60713  10.761  23.975   2.241
94305W        W60714  17.234  12.434  12.505
94306W        W60715  41.503  28.351   1.607
94307W        W60716  22.279  32.613   1.810
94308W        W60717   2.261  36.803  14.912
94309W        W60718  19.775   3.163  14.144
94310W        W60719   3.382  18.085   4.508
94311W        W60720  41.841  26.512  10.273
94312W        W60721   6.725  15.862   4.134
94313W        W60722  17.649  13.476  13.508
94314W        W60723   3.364   6.013   2.628
94315W        W60724  38.359  35.515   4.529
94316W        W60725  32.130   2.861   1.203
94317W        W60726   6.915  32.598   2.724
94318W        W60727   1.355   7.292  12.025
94319W        W60728   9.872  27.378   2.347
94320W        W60729   7.692   4.290   4.370
94321W        W60730  39.873  43.400   2.334
94322W        W60731   8.170  35.377  11.066
94323W        W60732   5.448   6.050  14.924
94324W        W60733  14.554  40.929   0.906
94325W        W60734   5.682  17.857   0.788
94326W        W60735  23.504  37.027   0.433
94327W        W60736  27.014  29.986   2.458
94328W        W60737  18.611  19.054   2.299
94329W        W60738  43.363  44.718  13.521
94330W        W60739  23.721  39.960   2.281
94331W        W60740  25.622   8.194  12.944
94332W        W60741  25.578  29.623   4.809
94333W        W60742  32.537  44.841   0.901
94334W        W60743  40.553   4.953  12.594
94335W        W60744  30.984  27.454  12.030
94336W        W60745  27.482  34.112   0.868
94337W        W60746  12.301   3.241  13.473
94338W        W60747   0.885  39.048   3.737
94339W        W60748   2.966  12.832   2.652
94340W        W60749  43.032  34.774  10.975
94341W        W60750  25.291  15.570   9.932
94342W        W60751   5.424  44.292   0.419
94343W        W60752  44.243  24.498   3.731
94344W        W60753  11.827   8.863  13.952
94345W        W60754   5.944   4.340   4.596
94346W        W60755   8.515   7.225  13.019
94347W        W60756  37.402  26.019   0.752
94348W        W60757   6.922  37.995   0.296
94349W        W60758   1.939  19.993  12.844
94350W        W60759  43.776   2.497  14.083
94351W        W60760  41.415  11.355   3.576
94352W        W60761  25.855  23.935  11.108
94353W        W60762  36.602  10.125  11.619
94354W        W60763  44.955  36.391  14.271
94355W        W60764   0.470   0.987   0.336
94356W        W60765  10.530  19.739   5.156
94357W        W60766  15.607  35.048   1.264
94358W        W60767   0.437  36.061   0.483
94359W        W60768  17.356  10.801  14.136
94360W        W60769  33.943   4.516  12.936
94361W        W60770  33.998   7.923  10.782
94362W        W60771  32.090  32.609  14.421
94363W        W60772  27.056   8.342  13.563
94364W        W60773  40.997  36.072   4.480
94365W        W60774  25.974  41.818  14.031
94366W        W60775  24.880   4.300   4.217
94367W        W60776   8.287  34.193  12.500
94368W        W60777   6.640   0.753   0.788
94369W        W60778  34.540   6.331   4.932
94370W        W60779  14.198  19.074   2.374
94371W        W60780  23.601  14.352  14.767
94372W        W60781  24.565   5.244  12.506
94373W        W60782  26.589  31.506   3.305
94374W        W60783  38.478  38.526  11.425
94375W        W60784  34.415  11.162   3.613
94376W        W60785  28.490  13.816   4.561
94377W        W60786  26.586  44.969   0.227
94378W        W60787  32.528  34.911   3.228
94379W        W60788  40.371  20.512  13.487
94380W        W60789  12.603  20.569  11.975
94381W        W60790  10.874  28.678   1.812
94382W        W60791  27.696  24.729  12.077
94383W        W60792  32.530  39.580  11.519
94384W        W60793  38.566  28.517  11.701
94385W        W60794  35.087  10.675  14.475
94386W        W60795  12.957  12.433   1.588
94387W        W60796  36.550  43.512   4.085
94388W        W60797  17.269  34.982   2.466
94389W        W60798  32.457  43.375   0.066
94390W        W60799  42.045  31.597   1.604
94391W        W60800   3.175  44.215   2.279
94392W        W60801  35.168   2.283   4.578
94393W        W60802  29.631  23.058   3.283
94394W        W60803   2.309  24.228  11.945
94395W        W60804  14.761  42.311   3.715
94396W        W60805  24.593  44.764  14.750
94397W        W60806  27.035  25.476  12.614
94398W        W60807   9.879  30.420  12.930
94399W        W60808  21.968  15.787   0.786
94400W        W60809  17.996  43.794  13.935
94401W        W60810  23.616  33.782   0.952
94402W        W60811  28.238  30.545  13.518
94403W        W60812  10.845   4.583   3.755
94404W        W60813  20.472  15.743  12.503
94405W        W60814  43.446   2.956   0.457
94406W        W60815   6.972  11.409  12.365
94407W        W60816  34.047  31.187  10.867
94408W        W60817  20.013  27.780   4.266
94409W        W60818  29.577  37.948  11.459
94410W        W60819  15.698   5.636  14.209
94411W        W60820   9.398   2.755   4.069
94412W        W60821  31.880  16.641  10.623
94413W        W60822  11.093  11.581  14.385
94414W        W60823  44.496   3.273  12.002
94415W        W60824   6.897  19.578   4.666
94416W        W60825   9.159   9.392  10.584
94417W        W60826   3.740   0.735   4.567
94418W        W60827  22.107  29.118   1.517
94419W        W60828  36.412  44.854   1.723
94420W        W60829  31.978  22.751   3.134
94421W        W60830  35.554  32.042   2.384
94422W        W60831  21.659  42.054  11.115
94423W        W60832  43.964  39.237   0.293
94424W        W60833  24.532  19.382   5.182
94425W        W60834  28.703  43.380  13.282
94426W        W60835  12.251  40.025   0.242
94427W        W60836   8.807   8.666   5.003
94428W        W60837  15.673  25.567   4.939
94429W        W60838  39.764  26.681  12.549
94430W        W60839  20.511  39.611   3.570
94431W        W60840   9.286  35.541  13.098
94432W        W60841  28.507  44.819   4.513
94433W        W60842   7.246  27.440   1.944
94434W        W60843   6.781  25.184  10.372
94435W        W60844  13.819   1.590   1.423
94436W        W60845  31.441   5.386  11.071
94437W        W60846  23.214  39.484   0.788
94438W        W60847   6.133  29.968   1.495
94439W        W60848  21.719  11.813  12.577
94440W        W60849  42.590  39.486   2.888
94441W        W60850  16.287  39.765   0.244
94442W        W60851  21.738  14.575  14.561
94443W        W60852  30.125   8.302  13.787
94444W        W60853  33.661  27.334   0.852
94445W        W60854   4.904  20.514   0.580
94446W        W60855  22.000  18.139  14.999
94447W        W60856  33.431   8.742   2.932
94448W        W60857   1.084  18.603  13.594
94449W        W60858  26.938   2.147  10.676
94450W        W60859  22.307  39.808  10.889
94451W        W60860  25.007  42.272  10.744
94452W        W60861  43.890  20.179   4.639
94453W        W60862  32.010  25.264  11.834
94454W        W60863   5.611  12.643  12.059
94455W        W60864  19.446  32.784   0.451
94456W        W60865   9.721  31.807  12.554
94457W        W60866  24.697  10.874  14.458
94458W        W60867  32.619  41.558   3.726
94459W        W60868  28.333  11.363  14.789
94460W        W60869  13.066  25.989  12.082
94461W        W60870  33.106  26.853   2.157
94462W        W60871  42.887  36.599  10.691
94463W        W60872   8.253  43.102  14.521
94464W        W60873  12.826  28.979   3.694
94465W        W60874  27.930   4.386  12.458
94466W        W60875  32.910  35.376  13.851
94467W        W60876   8.168  31.032  12.033
94468W        W60877  18.761  28.543   2.490
94469W        W60878  14.662  40.289   1.631
94470W        W60879  38.894  15.491   3.394
94471W        W60880  26.721  14.215  13.518
94472W        W60881   5.941  30.347   1.803
94473W        W60882  17.221  15.655   0.749
94474W        W60883  26.542  15.873  11.696
94475W        W60884  41.573   1.694   0.741
94476W        W60885  29.664  41.815   1.468
94477W        W60886  14.691   9.097  12.907
94478W        W60887   5.993  42.801   3.271
94479W        W60888   4.873  23.558   2.961
94480W        W60889  29.060   2.824   2.209
94481W        W60890   5.681   6.687   3.084
94482W        W60891  33.473   7.956   3.628
94483W        W60892  35.522  39.962  11.495
94484W        W60893  20.459  21.777  11.939
94485W        W60894  25.688  41.829   0.221
94486W        W60895  10.589   8.132  12.934
94487W        W60896  11.178   6.900  14.869
94488W        W60897   8.130  32.395  11.095
94489W        W60898  43.723  31.877  11.083
94490W        W60899  40.497  30.158  13.573
94491W        W60900  38.094  36.496   2.672
94492W        W60901   7.819  28.654   3.237
94493W        W60902  34.398   8.127  11.060
94494W        W60903   5.822  10.467  12.005
94495W        W60904  33.208  35.027  12.896
94496W        W60905  22.103   4.292  11.913
94497W        W60906  16.330   1.849   1.585
94498W        W60907  12.514  16.261  10.714
94499W        W60908   9.905  37.884  12.642
94500W        W60909   9.618  23.540  14.774
94501W        W60910  12.965  17.802  12.554
94502W        W60911   1.263  29.846   2.553
94503W        W60912  30.698   0.295  11.180
94504W        W60913  29.877  24.824  11.470
94505W        W60914  15.810  15.254  12.897
94506W        W60915  11.186  13.844   0.010
94507W        W60916  12.181   3.137   2.787
94508W        W60917  14.834  34.546   1.366
94509W        W60918  21.281  42.992   4.845
94510W        W60919  36.502  25.547   4.877
94511W        W60920  20.806  15.352   2.535
94512W        W60921   0.831  37.531  13.493
94513W        W60922  27.657  44.046   4.503
94514W        W60923  38.752  22.910  14.887
94515W        W60924  36.830  18.614  13.223
94516W        W60925  34.658  15.160   4.170
94517W        W60926  37.504  32.896  13.478
94518W        W60927   5.302  25.727   3.736
94519W        W60928  18.828  11.746   4.144
94520W        W60929   1.338  12.240  14.102
94521W        W60930   9.159  26.577  12.086
94522W        W60931  44.547  13.251   0.839
94523W        W60932   1.976   3.390   4.209
94524W        W60933   0.349  32.662  12.471
94525W        W60934  41.957  12.835  13.991
94526W        W60935  40.585   1.525   1.126
94527W        W60936  24.215  33.666   2.654
94528W        W60937  40.154   4.876  10.532
94529W        W60938  26.516  24.488   3.698
94530W        W60939  10.932   8.294   0.729
94531W        W60940  30.548   5.783  12.566
94532W        W60941  11.201  38.626   3.270
94533W        W60942   0.859  27.028   3.276
94534W        W60943  23.731   4.821   4.592
94535W        W60944  22.902  19.247  14.624
94536W        W60945  33.925  20.092   0.035
94537W        W60946   4.405  21.276  10.665
94538W        W60947  28.635  34.868   1.772
94539W        W60948  44.364  35.462  14.839
94540W        W60949  24.341   8.660   5.563
94541W        W60950  22.582  10.301   1.572
94542W        W60951  13.712  32.966   4.037
94543W        W60952   2.041  26.776   3.431
94544W        W60953  29.081  31.554  14.890
94545W        W60954  11.584  16.852   0.417
94546W        W60955  33.054   8.230   4.078
94547W        W60956   0.198  13.595  10.704
94548W        W60957  36.982   5.437  13.093
94549W        W60958  20.647  11.368   0.630
94550W        W60959  29.473  13.034   3.310
94551W        W60960   3.758  24.888  14.421
94552W        W60961   5.394  21.707   1.582
94553W        W60962  16.569  26.680  11.132
94554W        W60963  26.322  40.391  14.039
94555W        W60964  24.543  25.949   1.899
94556W        W60965  12.372  26.376  10.646
94557W        W60966   3.712  31.970   5.002
94558W        W60967  29.790  27.665   2.375
94559W        W60968   9.972   7.237  14.881
94560W        W60969  30.133  21.574  14.726
94561W        W60970  32.165  18.716  12.450
94562W        W60971  25.003  14.814   0.176
94563W        W60972  19.514  33.544   3.844
94564W        W60973  33.025  30.445  13.838
94565W        W60974  37.436  20.708   1.193
94566W        W60975  44.972  33.855   3.117
94567W        W60976  42.560  43.896   0.468
94568W        W60977  26.715  44.856  11.456
94569W        W60978  28.545  17.874   1.004
94570W        W60979  42.291  13.647  12.056
94571W        W60980  16.727  15.305   4.697
94572W        W60981  31.514  42.862   1.953
94573W        W60982  21.802   3.414  10.577
94574W        W60983   3.310  12.137   1.350
94575W        W60984  36.577  22.555  13.537
94576W        W60985   3.869  15.049  11.018
94577W        W60986   2.132  20.747  12.476
94578W        W60987   1.881   2.690  14.235
94579W        W60988   3.587   3.256   0.821
94580W        W60989  26.972   5.122  13.496
94581W        W60990   9.226   1.828   3.758
94582W        W60991  29.704  17.332   1.903
94583W        W60992   9.408   9.591   2.226
94584W        W60993  25.646  42.529  13.915
94585W        W60994  31.076  16.185   3.876
94586W        W60995  17.660  32.999   4.123
94587W        W60996  38.550  14.254   3.691
94588W        W60997  42.517   2.002   2.813
94589W        W60998  23.774  44.031   2.166
94590W        W60999  17.034   8.382   3.918
94591W        W61000  26.407  10.090   9.847
94592W        W61001  18.794  28.060   0.262
94593W        W61002  38.964  36.688   2.589
94594W        W61003  11.178  17.317   2.000
94595W        W61004  40.809   8.952  12.970
94596W        W61005   0.806   0.383   0.943
94597W        W61006  37.054  27.671  12.369
94598W        W61007  34.068  28.452   2.785
94599W        W61008  36.116   5.784  10.987
94600W        W61009  42.415  20.151   1.308
94601W        W61010  12.131  34.676   4.060
94602W        W61011   9.578  41.442  14.364
94603W        W61012   9.423  12.586   1.181
94604W        W61013  24.281   2.804  11.446
94605W        W61014  30.467  42.337  11.229
94606W        W61015  39.383   4.464   4.142
94607W        W61016  27.635  44.273  10.879
94608W        W61017  32.843  30.088  11.182
94609W        W61018  35.421  35.944   2.335
94610W        W61019   4.903  34.832   4.628
94611W        W61020  42.250   5.789  11.180
94612W        W61021  21.886  38.853  11.200
94613W        W61022  20.797  27.907   0.229
94614W        W61023  43.755  13.785   0.942
94615W        W61024  33.930  36.347  10.486
94616W        W61025   9.388  32.506   1.965
94617W        W61026  23.482  10.787  14.953
94618W        W61027  24.444  34.875   3.776
94619W        W61028   2.609  20.593  12.585
94620W        W61029   2.459  32.289  10.416
94621W        W61030  41.054  16.143   4.238
94622W        W61031  21.931  32.669  11.688
94623W        W61032  34.558  25.956   1.362
94624W        W61033  14.799  12.686  10.760
94625W        W61034  42.788  18.332   0.440
94626W        W61035  27.569  39.207   0.953
94627W        W61036  16.039   6.611   1.657
94628W        W61037  17.435  38.005   0.946
94629W        W61038   0.368  25.278  12.765
94630W        W61039  35.357  27.172  14.400
94631W        W61040  40.070  14.829  10.492
94632W        W61041  18.769  37.764  12.635
94633W        W61042  33.431  20.780  11.101
94634W        W61043  44.400  20.036  10.593
94635W        W61044  16.843  38.093  12.510
94636W        W61045  29.943  36.759  10.731
94637W        W61046  25.555  29.414   0.780
94638W        W61047   3.352  12.545  12.063
94639W        W61048  29.405  11.164   1.770
94640W        W61049  40.920  38.179   4.103
94641W        W61050   3.523  37.075   0.468
94642W        W61051  27.207  43.475  13.536
94643W        W61052  32.328  19.627   4.564
94644W        W61053  23.879  36.359  13.395
94645W        W61054   1.950  24.610  12.982
94646W        W61055  36.471   5.274  11.419
94647W        W61056  20.279   6.081   1.006
94648W        W61057  28.779  29.974  14.265
94649W        W61058  13.216  43.114   2.706
94650W        W61059  31.374   8.655   5.444
94651W        W61060   9.468  20.642   3.290
94652W        W61061  37.380  40.069  14.929
94653W        W61062   4.341  39.876  11.178
94654W        W61063  23.532  16.862   0.431
94655W        W61064  27.279  16.579  13.137
94656W        W61065  41.382   7.704   4.885
94657W        W61066  15.303  19.053  14.966
94658W        W61067  36.098  11.959  14.851
94659W        W61068   5.091  28.095   2.303
94660W        W61069  23.167  10.059  13.671
94661W        W61070  33.230   4.325   2.223
94662W        W61071  24.641  16.757   0.976
94663W        W61072  37.511  40.374   0.327
94664W        W61073  41.703  42.288  14.079
94665W        W61074   4.783  18.442   4.236
94666W        W61075  27.499   8.867   3.153
94667W        W61076  26.395  37.935   1.861
94668W        W61077  31.120   1.757  14.272
94669W        W61078   3.814  25.655   4.561
94670W        W61079   8.898  30.855   3.196
94671W        W61080  16.760   5.148  13.542
94672W        W61081  23.025  26.983   4.261
94673W        W61082  39.995  43.754  10.786
94674W        W61083  26.474  11.680  14.725
94675W        W61084  18.266  16.182  11.138
94676W        W61085   1.751  36.428  11.652
94677W        W61086  27.885  42.900  11.650
94678W        W61087  16.837  25.980  10.497
94679W        W61088  34.129   9.097  14.779
94680W        W61089   4.251  31.531   1.213
94681W        W61090  40.163  14.369   5.177
94682W        W61091  31.448  34.939   2.263
94683W        W61092  18.034  28.962  14.835
94684W        W61093   8.620  17.166  10.745
94685W        W61094   4.704  20.661  12.143
94686W        W61095  23.718  43.530   4.203
94687W        W61096  28.282  11.165   5.356
94688W        W61097  21.676  26.696   4.049
94689W        W61098  38.491  16.512   5.093
94690W        W61099   3.314  38.434  13.259
94691W        W61100  18.754  24.077   4.362
94692W        W61101  34.499  44.972   2.880
94693W        W61102  38.020  13.720   0.806
94694W        W61103   5.799   9.904   2.258
94695W        W61104  36.990  34.253   0.685
94696W        W61105   8.020  35.850  10.885
94697W        W61106  12.187  39.214   1.956
94698W        W61107   9.708  43.538  11.090
94699W        W61108   6.144  14.550   4.157
94700W        W61109  18.525  17.782  11.637
94701W        W61110  40.881  21.100   4.193
94702W        W61111  17.712  42.534   1.679
94703W        W61112  15.920  23.625  11.639
94704W        W61113  35.729  42.901   3.569
94705W        W61114  42.774  22.123  13.937
94706W        W61115   0.158  13.427  13.967
94707W        W61116  41.723  15.305  14.457
94708W        W61117   7.714  32.223   2.225
94709W        W61118   4.181  39.793  12.972
94710W        W61119  33.960  28.031   3.166
94711W        W61120  44.578   3.825   1.343
94712W        W61121   9.186  37.040   0.302
94713W        W61122   7.839  13.010   3.229
94714W        W61123   1.260  21.166  13.100
94715W        W61124  43.392  36.336   4.124
94716W        W61125  29.687   8.876   2.751
94717W        W61126  40.997  19.653  14.310
94718W        W61127  15.042  27.394   3.533
94719W        W61128   6.669  26.566   4.559
94720W        W61129  43.938  12.714  11.277
94721W        W61130   4.725  43.737   3.684
94722W        W61131  31.932  34.590   0.930
94723W        W61132  41.289  15.329  13.421
94724W        W61133   3.306  37.623  14.070
94725W        W61134  31.685  24.544   1.300
94726W        W61135  41.541  30.792   3.667
94727W        W61136  22.440  17.100   3.648
94728W        W61137  25.528  21.344  13.435
94729W        W61138  16.734  35.638   4.099
94730W        W61139  33.148  15.627  12.342
94731W        W61140  38.817  12.635   4.379
94732W        W61141  24.526  27.463   0.926
94733W        W61142  15.543  35.110   2.391
94734W        W61143  32.811  36.887   2.884
94735W        W61144  35.008   6.823   0.320
94736W        W61145   9.078  33.069   2.106
94737W        W61146  44.822   4.433   0.460
94738W        W61147  23.263  10.749   3.170
94739W        W61148  31.991  37.924  14.416
94740W        W61149  34.078  42.150   4.177
94741W        W61150  16.595   0.326   2.842
94742W        W61151   4.255  38.428  11.662
94743W        W61152  34.097  42.849  14.423
94744W        W61153  38.380   1.454   4.101
94745W        W61154  36.111   4.948   3.692
94746W        W61155  42.355  20.095  14.855
94747W        W61156  38.592   0.923  13.781
94748W        W61157  37.983  30.754  11.548
94749W        W61158  16.779   0.147   1.513
94750W        W61159  26.536   0.502   2.848
94751W        W61160   1.511  19.008   0.711
94752W        W61161  33.074  10.563   1.019
94753W        W61162  11.192  31.575  10.858
94754W        W61163  38.779  42.831  11.537
94755W        W61164   6.928  37.428   2.808
94756W        W61165  36.958  34.310   2.210
94757W        W61166  13.695  31.225   3.791
94758W        W61167  37.480   7.669   4.313
94759W        W61168  30.967  34.135   0.967
94760W        W61169  33.869  15.768   1.880
94761W        W61170  32.497   2.926   3.609
94762W        W61171  40.538   9.656  12.582
94763W        W61172  44.628  21.644   4.947
94764W        W61173  41.445  14.278  12.968
94765W        W61174  14.470  18.795  13.755
94766W        W61175  28.465  31.329  12.631
94767W        W61176  30.926  39.124  10.846
94768W        W61177  39.350   4.762   2.739
94769W        W61178  15.058   0.049  11.736
94770W        W61179  41.922  26.460  12.990
94771W        W61180  39.070  23.928  12.466
94772W        W61181  39.650  25.488   0.437
94773W        W61182  32.543  19.626   5.074
94774W        W61183  10.554  27.627  13.590
94775W        W61184  10.556  31.037  13.515
94776W        W61185  22.744  39.275  11.453
94777W        W61186  15.264  29.378   2.735
94778W        W61187  25.055  23.207  11.500
94779W        W61188  31.492  29.360  13.802
94780W        W61189  22.150  35.206   0.018
94781W        W61190  23.148   8.599   2.993
94782W        W61191  35.064   8.798   1.940
94783W        W61192   6.359  26.734  14.385
94784W        W61193   8.401   6.894  11.526
94785W        W61194   0.952   9.895  14.030
94786W        W61195  18.673  33.659  11.101
94787W        W61196  15.937  36.381   0.953
94788W        W61197  21.784  41.399  14.389
94789W        W61198  37.811  14.730   3.654
94790W        W61199  39.808  19.168  12.393
94791W        W61200   3.244   0.217  10.945
94792W        W61201  28.118  11.134  11.479
94793W        W61202   4.290  26.156   0.198
94794W        W61203  34.540  18.719  10.556
94795W        W61204   2.284   9.420  12.509
94796W        W61205  24.733  35.921  12.853
94797W        W61206  22.374   4.424   1.168
94798W        W61207  10.905  18.271  13.010
94799W        W61208  43.933   2.790   0.456
94800W        W61209  15.552  25.666  11.150
94801W        W61210  31.438  36.645   0.861
94802W        W61211   6.745  43.056  11.468
94803W        W61212  40.991  44.970   2.844
94804W        W61213  31.686  12.802   3.534
94805W        W61214   4.349  29.898  13.525
94806W        W61215  11.577  12.189  11.581
94807W        W61216  33.563  33.435   2.720
94808W        W61217  33.459  44.486  12.853
94809W        W61218   1.202   8.646  14.169
94810W        W61219  42.033  35.059  13.385
94811W        W61220  28.402   2.796  13.868
94812W        W61221  21.802  35.140  13.385
94813W        W61222  31.550  12.108   2.403
94814W        W61223  30.651  16.638  12.312
94815W        W61224  29.951  29.061   4.950
94816W        W61225  38.092  33.813   2.116
94817W        W61226  12.866  18.999  10.228
94818W        W61227   8.298   8.108  14.111
94819W        W61228   8.474  14.019  10.754
94820W        W61229  18.533  23.903   3.315
94821W        W61230  29.520  24.898  14.421
94822W        W61231  21.478  11.758   3.202
94823W        W61232  32.126  43.811  13.636
94824W        W61233  44.423  24.840  14.185
94825W        W61234  22.515   7.673   1.969
94826W        W61235  14.792  10.300  11.526
94827W        W61236  13.233  40.568  10.237
94828W        W61237  43.223  35.846   1.458
94829W        W61238  17.686  33.563  13.390
94830W        W61239  31.067  10.316  11.583
94831W        W61240  36.965  41.485  11.007
94832W        W61241  19.800   5.552   4.556
94833W        W61242  21.349  41.678   1.531
94834W        W61243  21.574  31.982  14.876
94835W        W61244   3.532   9.793   1.313
94836W        W61245  44.681  23.230   3.419
94837W        W61246  16.731  16.897  14.824
94838W        W61247  33.423  40.833  10.752
94839W        W61248  40.410  37.952   1.868
94840W        W61249  10.823  13.438  12.847
94841W        W61250  32.923  20.797  11.216
94842W        W61251  41.434   6.357  11.050
94843W        W61252   0.458  14.404   2.150
94844W        W61253  17.751  44.009   0.286
94845W        W61254  21.920  11.274   2.260
94846W        W61255  31.619  27.525   1.465
94847W        W61256  35.117  38.809   2.334
94848W        W61257  43.317  40.035  11.866
94849W        W61258  15.203  12.161   2.222
94850W        W61259  39.114  35.888  13.968
94851W        W61260  40.900  28.749  12.539
94852W        W61261  23.325   5.484  13.869
94853W        W61262  11.962  27.936  13.127
94854W        W61263   0.965  22.761  14.863
94855W        W61264  42.921  20.992  11.211
94856W        W61265  22.532  17.285  10.753
94857W        W61266  34.976  11.640  11.590
94858W        W61267  22.122  13.178  10.916
94859W        W61268  27.535  12.381   0.810
94860W        W61269   7.003  21.511   4.101
94861W        W61270  22.732   7.283  10.361
94862W        W61271  35.062  23.676  13.521
94863W        W61272  25.895  42.609   4.853
94864W        W61273  26.534  28.234  11.668
94865W        W61274  19.743  42.400  12.380
94866W        W61275   7.204  29.513   2.260
94867W        W61276   5.279   3.195  10.720
94868W        W61277  32.031  42.316  12.294
94869W        W61278  17.551  32.512  10.469
94870W        W61279  17.241  40.533   3.534
94871W        W61280  17.096  36.397  12.832
94872W        W61281   5.321  22.241  12.987
94873W        W61282  34.054  22.663   2.812
94874W        W61283  44.466  16.393   3.193
94875W        W61284  17.330   0.187  13.686
94876W        W61285  11.288  19.877   2.123
94877W        W61286  38.340  29.854  11.212
94878W        W61287  21.735  15.165   1.232
94879W        W61288  28.048  21.560   0.735
94880W        W61289  30.105  36.381   4.268
94881W        W61290  39.926  13.666  11.166
94882W        W61291  35.197  20.297   2.109
94883W        W61292  42.803  29.307  14.794
94884W        W61293  44.609  36.954   1.728
94885W        W61294  17.197   7.211   5.011
94886W        W61295  43.795  44.314   4.888
94887W        W61296   5.912   2.921   0.318
94888W        W61297   6.941   1.755   1.660
94889W        W61298  42.981  26.485  13.974
94890W        W61299  41.745   4.512   3.150
94891W        W61300   6.658  28.711  11.861
94892W        W61301  23.254  16.351  14.061
94893W        W61302  34.641  44.321  11.506
94894W        W61303   1.355  20.007   3.674
94895W        W61304  38.863   5.415  13.411
94896W        W61305  17.170  40.362  11.875
94897W        W61306  33.126   5.215   3.511
94898W        W61307  19.646  25.137   2.949
94899W        W61308  40.899  40.824   0.204
94900W        W61309  10.185   8.309   0.944
94901W        W61310  18.917  24.027   3.004
94902W        W61311  19.558  26.533   5.049
94903W        W61312   2.429  23.531   2.321
94904W        W61313  41.170  39.560   2.899
94905W        W61314   8.200  12.262   3.958
94906W        W61315  18.308  36.887   4.419
94907W        W61316  38.949  23.050   1.891
94908W        W61317  15.928  43.750  12.137
94909W        W61318  31.018  32.243  11.287
94910W        W61319  16.032  33.430  13.459
94911W        W61320  33.027  44.492  12.524
94912W        W61321   1.860  16.976   3.625
94913W        W61322  34.152   2.466   3.156
94914W        W61323   8.505  35.043  10.805
94915W        W61324  13.884  22.058  14.866
94916W        W61325   7.534   6.656   1.955
94917W        W61326  27.051  20.947  14.579
94918W        W61327  36.847  12.037  12.433
94919W        W61328   2.711   2.436   2.142
94920W        W61329   3.403  24.284  13.627
94921W        W61330  15.091  19.525   2.215
94922W        W61331  23.433  20.017   0.467
94923W        W61332  20.798  36.881  13.881
94924W        W61333  28.242  44.429   2.583
94925W        W61334  32.457  27.082   1.850
94926W        W61335   5.032  41.525   0.432
94927W        W61336  42.084  32.364  12.790
94928W        W61337  36.710  17.723   2.731
94929W        W61338  42.924  26.623  14.472
94930W        W61339  14.253  22.619  12.622
94931W        W61340  20.514  40.842   0.402
94932W        W61341   1.540  12.827   4.688
94933W        W61342  10.906  15.494   2.723
94934W        W61343  29.261  20.358  13.553
94935W        W61344  39.537   7.241  13.449
94936W        W61345   6.569  25.437  14.767
94937W        W61346  44.077  10.782   1.371
94938W        W61347  40.426  43.867   0.064
94939W        W61348  41.866  42.271  11.122
94940W        W61349  10.786  41.883  12.525
94941W        W61350  16.305   6.835  12.398
94942W        W61351   9.688  26.051   4.542
94943W        W61352  40.526  22.100   4.148
94944W        W61353   5.310   6.794  10.643
94945W        W61354  42.352   2.684  11.258
94946W        W61355  37.962  21.052  12.103
94947W        W61356   9.432   5.176   4.093
94948W        W61357  44.027  37.277  12.504
94949W        W61358  27.675  35.637  13.429
94950W        W61359  38.360  11.723  11.416
94951W        W61360  12.255  34.733  12.688
94952W        W61361  11.447  37.034  14.454
94953W        W61362  13.768  32.998  12.548
94954W        W61363  18.159  34.588  11.919
94955W        W61364  25.114  23.102  13.535
94956W        W61365  24.225   5.400   0.891
94957W        W61366  15.846  17.487   3.332
94958W        W61367   0.809  31.593   1.107
94959W        W61368  23.265  14.733  11.647
94960W        W61369  13.192  32.365   2.826
94961W        W61370  18.157  40.768   0.364
94962W        W61371   4.617   1.433   1.422
94963W        W61372  43.089  17.652  12.941
94964W        W61373  39.541  29.602   0.380
94965W        W61374  17.144  27.685   1.314
94966W        W61375  10.901  36.595  11.440
94967W        W61376  40.917   1.312   0.071
94968W        W61377  10.659  11.918   1.174
94969W        W61378  13.066  21.108  14.775
94970W        W61379   3.699  38.276  13.879
94971W        W61380   2.187  15.189   0.802
94972W        W61381  40.673   9.368  11.569
94973W        W61382  43.513  11.326   3.129
94974W        W61383  40.645   2.766   0.204
94975W        W61384  16.782  10.367   3.922
94976W        W61385  41.670  17.260   2.677
94977W        W61386  36.989  19.071   1.412
94978W        W61387  22.343  38.296   3.449
94979W        W61388   6.123  22.007  11.315
94980W        W61389  25.553  41.771  12.171
94981W        W61390  16.847  12.117   4.771
94982W        W61391  39.774   2.023   2.489
94983W        W61392  16.650  24.774  12.068
94984W        W61393  19.803   7.441   2.226
94985W        W61394  39.058  35.078   1.254
94986W        W61395   9.030  11.804   0.541
94987W        W61396  15.950  21.278  13.110
94988W        W61397  24.637  17.119  11.969
94989W        W61398  26.486  24.785  12.460
94990W        W61399  13.759  44.248  14.507
94991W        W61400   4.823  40.536   5.013
94992W        W61401  27.362  31.084   3.371
94993W        W61402  25.529   7.697  10.664
94994W        W61403  35.041   0.445   2.123
94995W        W61404  14.668  22.609   3.687
94996W        W61405  43.449  24.924   3.260
94997W        W61406   0.203   8.583  10.177
94998W        W61407  36.059   5.756  12.003
94999W        W61408   3.728  44.458   2.716
95000W        W61409  43.381   9.872   0.327
95001W        W61410  33.522  18.014  13.405
95002W        W61411  22.883  17.562   2.282
95003W        W61412   6.883  27.529  13.157
95004W        W61413  41.010  25.468   0.770
95005W        W61414   6.873   1.443  14.655
95006W        W61415  14.074  12.014   2.467
95007W        W61416  17.801  35.133  12.602
95008W        W61417   8.649  24.913   3.560
95009W        W61418  23.728  38.127  12.564
95010W        W61419   8.842  38.858   4.902
95011W        W61420  14.333   1.417   2.703
95012W        W61421  40.352  37.774  12.039
95013W        W61422  12.719  34.378  11.500
95014W        W61423  17.599  32.062   2.318
95015W        W61424  17.334  36.128   4.147
95016W        W61425  27.331  19.740   4.114
95017W        W61426  15.593  34.622   0.905
95018W        W61427  35.291  35.309   1.759
95019W        W61428  18.575  17.082  14.529
95020W        W61429   4.345  23.668   1.792
95021W        W61430   5.350  18.343  10.620
95022W        W61431  32.419  26.922  12.529
95023W        W61432   1.490  18.882  10.806
95024W        W61433  17.568  31.143  12.072
95025W        W61434   4.224  35.282   4.144
95026W        W61435  32.184  43.786   4.163
95027W        W61436  22.374  26.415   0.859
95028W        W61437  42.414  30.333   1.761
95029W        W61438  39.613  10.084  10.698
95030W        W61439  38.339  16.184   1.285
95031W        W61440  24.897  25.033   3.092
95032W        W61441  11.702  28.316  10.747
95033W        W61442   2.858  26.608   4.908
95034W        W61443   4.027  28.423  11.105
95035W        W61444  11.492  20.238  12.419
95036W        W61445   6.785  23.130   5.470
95037W        W61446  13.130  13.538   2.375
95038W        W61447  32.307  10.872  11.024
95039W        W61448  26.071  17.965  13.573
95040W        W61449   4.837  42.973   0.663
95041W        W61450  39.786  22.651   2.271
95042W        W61451  28.140  37.247  13.572
95043W        W61452   7.225  31.002   0.940
95044W        W61453   8.404   0.931  14.430
95045W        W61454  23.881   7.359  13.985
95046W        W61455  16.830  43.185   2.768
95047W        W61456  34.588   3.853   1.626
95048W        W61457  15.205   3.253  14.835
95049W        W61458  20.993   9.513  12.431
95050W        W61459   6.152   2.718   4.633
95051W        W61460  28.179  42.912   2.477
95052W        W61461  37.960  24.534   3.168
95053W        W61462  42.706  33.857  13.314
95054W        W61463   8.407  17.796  13.935
95055W        W61464  19.322  31.042   3.168
95056W        W61465  32.568   8.775   2.285
95057W        W61466  37.856   5.227  13.901
95058W        W61467  29.753  22.245   0.185
95059W        W61468  22.000  41.423  14.872
95060W        W61469  43.562  12.778  14.151
95061W        W61470  11.893   2.437  14.520
95062W        W61471  18.560  23.760   1.683
95063W        W61472  43.256   9.543   1.211
95064W        W61473   2.285  40.837  13.586
95065W        W61474   8.991  30.734   4.176
95066W        W61475  22.045  22.445  11.493
95067W        W61476  24.749   5.659   1.456
95068W        W61477  24.040  15.872   0.418
95069W        W61478  19.269  21.025   2.010
95070W        W61479  13.726  40.075   4.051
95071W        W61480  36.559  27.591   4.180
95072W        W61481   0.015  19.014  14.762
95073W        W61482   8.641  19.838   0.469
95074W        W61483  38.953  13.136  14.801
95075W        W61484  23.970  29.433   3.175
95076W        W61485  31.384  10.512  10.548
95077W        W61486  18.281  41.426  13.804
95078W        W61487  12.851  22.723   3.145
95079W        W61488  32.359   5.436  14.424
95080W        W61489  11.035  31.864  13.438
95081W        W61490  14.694   4.447  13.913
95082W        W61491  35.850  12.530   1.105
95083W        W61492   2.757  30.184  13.372
95084W        W61493  27.517  17.471  11.555
95085W        W61494  11.638   3.864   1.367
95086W        W61495   8.939  26.184  14.911
95087W        W61496  34.853  32.106   4.142
95088W        W61497  12.043  35.985   2.702
95089W        W61498   6.638  22.999  10.364
95090W        W61499   8.444  22.947   4.140
95091W        W61500  20.330  35.363  13.992
95092W        W61501  41.974  41.939   2.103
95093W        W61502  26.702  32.413  11.973
95094W        W61503  12.773  41.220   2.233
95095W        W61504  17.305  11.766  14.583
95096W        W61505  38.840   2.197   3.281
95097W        W61506   3.535   0.310   0.391
95098W        W61507  38.596  44.953   3.241
95099W        W61508   5.348  12.217   0.806
95100W        W61509  28.429  25.534  13.942
95101W        W61510  29.424  44.468  14.837
95102W        W61511  34.368   4.475  13.973
95103W        W61512   4.444  38.917  10.884
95104W        W61513  15.357   8.271   1.634
95105W        W61514  19.752  22.224  12.091
95106W        W61515   2.436  44.654  14.148
95107W        W61516  13.678  18.613   0.744
95108W        W61517  26.611  13.843  14.929
95109W        W61518  11.691  23.961  12.478
95110W        W61519   8.484  36.875  14.834
95111W        W61520  18.015  17.663   4.854
95112W        W61521  10.355  40.858   3.256
95113W        W61522   5.762  15.527   1.450
95114W        W61523  36.647   2.363   2.220
95115W        W61524  10.825  18.461   0.918
95116W        W61525  14.808  39.049  13.856
95117W        W61526   8.879  18.555  13.019
95118W        W61527  13.824   6.855   2.197
95119W        W61528   4.673   3.007   2.407
95120W        W61529  15.294  42.453   3.720
95121W        W61530  42.197  19.181   0.424
95122W        W61531  39.813  16.780  12.732
95123W        W61532  13.694  40.975  10.539
95124W        W61533   3.285  43.239  14.846
95125W        W61534  42.280  30.377   0.335
95126W        W61535  37.976  15.204  12.533
95127W        W61536  28.128   0.756  12.466
95128W        W61537  41.551  25.236  11.204
95129W        W61538   4.027  17.071   0.875
95130W        W61539  25.446  11.932  10.036
95131W        W61540   9.227  29.510  11.890
95132W        W61541  14.327  23.332  10.735
95133W        W61542  42.923  14.253   4.985
95134W        W61543  38.873  27.114  11.353
95135W        W61544  30.368  43.586  11.381
95136W        W61545  11.807  28.556  12.056
95137W        W61546  30.355  22.214   2.658
95138W        W61547  24.536  15.296   1.207
95139W        W61548  20.601  43.861  13.516
95140W        W61549  29.454  37.027  11.986
95141W        W61550   4.561  42.884   4.153
95142W        W61551  10.419  36.965   2.223
95143W        W61552  31.523  28.664   2.923
95144W        W61553  21.033  10.694  10.602
95145W        W61554  31.854  27.065   4.293
95146W        W61555  20.517   3.945  10.689
95147W        W61556  24.010   4.374  12.574
95148W        W61557  19.996  33.151  13.498
95149W        W61558  34.339  30.223  11.761
95150W        W61559  16.753   1.405   3.251
95151W        W61560   3.676  13.013  13.547
95152W        W61561  16.673  18.277  13.320
95153W        W61562   2.447  17.137  11.211
95154W        W61563  26.180  39.559   1.264
95155W        W61564  26.177   3.277   2.206
95156W        W61565  38.512  13.563  12.045
95157W        W61566  18.812  34.945  13.025
95158W        W61567  26.228  40.531  14.514
95159W        W61568  12.093  18.075  11.570
95160W        W61569   6.784   6.170  10.644
95161W        W61570   2.547  16.367   0.793
95162W        W61571   7.331   3.712  13.380
95163W        W61572  11.086   4.923   3.276
95164W        W61573  42.456  10.926  11.099
95165W        W61574  31.302  23.351  12.108
95166W        W61575  21.678  28.732  10.524
95167W        W61576  35.900  21.922   3.611
95168W        W61577  14.177  35.327   0.068
95169W        W61578  43.059  24.223  12.837
95170W        W61579  27.165   7.320   4.937
95171W        W61580  14.604  31.526   4.660
95172W        W61581  43.900  22.997  11.178
95173W        W61582  19.015  13.589   4.923
95174W        W61583   5.290  28.594   2.241
95175W        W61584  14.116  27.424  13.419
95176W        W61585   1.974  20.684   3.724
95177W        W61586  16.094  17.110   1.213
95178W        W61587  27.319  41.355   2.759
95179W        W61588  21.262  43.759  10.892
95180W        W61589  19.086   1.004  12.081
95181W        W61590   6.244   1.333   3.773
95182W        W61591  27.637   3.425  14.264
95183W        W61592  23.991   6.708  11.342
95184W        W61593  11.336  22.645   0.100
95185W        W61594  20.326  44.971  11.520
95186W        W61595  15.784   8.679  10.405
95187W        W61596   0.244  23.093   4.152
95188W        W61597  15.875  41.157   3.018
95189W        W61598  33.572  36.235  10.845
95190W        W61599  22.743  44.401   2.721
95191W        W61600  38.334  10.172  12.777
95192W        W61601   8.477  44.569  14.424
95193W        W61602  13.574  40.541   2.852
95194W        W61603  35.049  15.809   4.091
95195W        W61604  30.572   2.984  12.068
95196W        W61605  39.448  19.509   3.518
95197W        W61606  41.293   0.450  13.111
95198W        W61607  34.626  44.193  14.546
95199W        W61608  43.510   5.167  11.015
95200W        W61609  17.135  26.237   4.597
95201W        W61610  38.375   1.508   2.247
95202W        W61611  29.445  35.387   4.397
95203W        W61612  21.019  14.172  14.933
95204W        W61613   2.815   3.573  12.954
95205W        W61614  39.387  40.522   1.963
95206W        W61615  34.432  32.388   4.949
95207W        W61616  23.521  32.737   4.215
95208W        W61617  33.429   7.987   1.947
95209W        W61618  40.165  23.156  13.877
95210W        W61619   1.999  40.576   1.407
95211W        W61620  42.694  29.888   3.445
95212W        W61621  28.338  15.300  14.090
95213W        W61622  29.042  33.702   3.092
95214W        W61623   3.570   8.841   4.150
95215W        W61624  42.771   0.991   3.190
95216W        W61625  35.673   2.377  14.900
95217W        W61626  14.795   5.423   0.340
95218W        W61627   0.447  30.873  14.897
95219W        W61628  10.374  25.770   4.236
95220W        W61629  23.707  31.444  14.076
95221W        W61630   1.740  26.543  12.987
95222W        W61631  10.564  29.626   1.881
95223W        W61632  29.051  43.783   1.222
95224W        W61633  38.137  23.144   1.897
95225W        W61634   2.025  16.662   1.383
95226W        W61635  43.016  29.562  14.367
95227W        W61636   1.250  38.962   2.160
95228W        W61637  30.884  21.647   0.211
95229W        W61638  38.946  25.170   1.624
95230W        W61639  31.800  35.175   2.821
95231W        W61640  21.110  31.009  12.048
95232W        W61641  30.055  16.220  13.268
95233W        W61642  15.840   3.831  14.091
95234W        W61643   4.966  18.629   2.896
95235W        W61644  44.399  12.608   1.980
95236W        W61645  33.708   0.064  14.750
95237W        W61646  24.140  21.193  10.179
95238W        W61647   5.843   6.280   3.482
95239W        W61648  42.387  21.234  10.275
95240W        W61649  27.174   7.793  12.820
95241W        W61650   9.405  23.835   2.838
95242W        W61651  43.469  20.118  11.175
95243W        W61652  43.034  15.960   3.231
95244W        W61653  19.045  12.103  12.367
95245W        W61654  34.191  38.221  14.867
95246W        W61655   7.285  35.316  11.401
95247W        W61656  35.329  20.144   0.254
95248W        W61657  13.433  20.682  14.549
95249W        W61658  40.354   2.633  11.248
95250W        W61659  37.005  42.542  11.305
95251W        W61660  11.386  25.981   4.126
95252W        W61661  29.503  32.122   2.175
95253W        W61662  33.510  21.532   1.494
95254W        W61663  37.968  43.376   2.394
95255W        W61664  16.206  24.558  12.926
95256W        W61665  20.891  18.017  10.627
95257W        W61666  16.870  25.166  11.118
95258W        W61667  26.886   7.151  10.706
95259W        W61668  20.653   7.571   2.665
95260W        W61669  44.131  35.009   0.358
95261W        W61670  39.474  13.944   4.754
95262W        W61671   1.681  21.345  11.074
95263W        W61672  38.443  23.715  13.768
95264W        W61673   2.929   8.937  12.875
95265W        W61674  27.617  32.937  13.848
95266W        W61675  25.327  33.823   0.398
95267W        W61676  20.215  23.941  13.527
95268W        W61677   5.466  15.683   0.437
95269W        W61678  13.778   7.628  13.932
95270W        W61679  21.711  15.264  10.734
95271W        W61680  38.224  12.460   1.630
95272W        W61681  38.634  14.194  11.089
95273W        W61682  37.866  34.732   2.447
95274W        W61683  33.672  41.996  14.886
95275W        W61684   7.453  36.839  14.795
95276W        W61685  34.370  26.618  12.850
95277W        W61686  41.303  32.167  10.749
95278W        W61687  29.339  25.748  12.974
95279W        W61688  35.861  36.736   4.771
95280W        W61689  11.922  31.841  10.716
95281W        W61690  34.392  16.796  11.679
95282W        W61691  31.357  22.640   0.969
95283W        W61692  40.914  20.765   2.900
95284W        W61693  42.082  11.147   2.303
95285W        W61694  30.830  43.490  11.572
95286W        W61695  31.849   0.218   4.168
95287W        W61696  25.143   3.291   1.934
95288W        W61697  30.548   6.782   3.565
95289W        W61698  22.133  44.372   0.890
95290W        W61699  44.792   8.337  12.064
95291W        W61700  43.943  31.145   3.185
95292W        W61701  17.125  28.003  13.466
95293W        W61702  23.065   5.410   3.732
95294W        W61703   8.187   9.818  14.030
95295W        W61704  41.991   5.843  14.823
95296W        W61705  17.832   1.827   4.723
95297W        W61706  27.376  30.225  13.228
95298W        W61707  18.176  24.135   3.604
95299W        W61708  17.520  33.460   3.909
95300W        W61709  34.482  19.580   4.228
95301W        W61710  30.269  15.789   0.968
95302W        W61711  11.643  21.018   0.264
95303W        W61712  22.460  16.286  11.977
95304W        W61713  37.345  30.276  13.631
95305W        W61714   8.749  16.723   0.331
95306W        W61715  40.240  20.444   0.313
95307W        W61716  16.303  43.943  11.400
95308W        W61717  11.150  15.431  10.783
95309W        W61718  10.638  10.649   4.592
95310W        W61719  16.244  25.255  11.500
95311W        W61720   4.863  36.873   0.858
95312W        W61721   5.668   5.209   4.572
95313W        W61722  36.527  28.435  11.968
95314W        W61723  35.493   3.791   2.222
95315W        W61724   2.442  36.043  11.912
95316W        W61725  13.640  31.791   3.217
95317W        W61726  28.054  41.045  13.870
95318W        W61727  36.408   8.708   1.968
95319W        W61728  41.004   9.743  14.932
95320W        W61729   1.253  11.921  14.813
95321W        W61730   2.015  23.095   2.673
95322W        W61731  32.477  21.586   1.801
95323W        W61732   5.207  39.416   4.915
95324W        W61733  29.539  26.032   1.243
95325W        W61734   1.072   9.271   0.249
95326W        W61735  19.743   0.686   3.282
95327W        W61736  31.001   9.340  13.459
95328W        W61737  13.722  20.391   2.635
95329W        W61738   4.538   3.773   3.802
95330W        W61739  28.490  30.177  10.775
95331W        W61740  36.146  40.293  12.118
95332W        W61741   1.616  40.620   4.687
95333W        W61742   3.941  22.708  11.439
95334W        W61743  28.182  37.378   1.290
95335W        W61744  27.206  11.865   1.237
95336W        W61745  42.552  18.302   2.611
95337W        W61746  34.450   3.846   3.132
95338W        W61747  25.462  38.348  12.982
95339W        W61748   5.979  22.150  13.581
95340W        W61749  11.818  26.405  14.821
95341W        W61750  43.976   3.724  12.697
95342W        W61751  43.723  30.635  12.068
95343W        W61752  28.163  43.256  11.891
95344W        W61753  14.756  35.486   2.419
95345W        W61754   8.556  19.461  10.287
95346W        W61755  44.723  24.812  11.284
95347W        W61756  19.842  31.358  14.376
95348W        W61757  15.797  17.980  10.089
95349W        W61758  16.792  31.899  14.422
95350W        W61759  24.006   1.320  12.729
95351W        W61760  35.839  38.568  14.235
95352W        W61761   0.044  29.211   3.261
95353W        W61762  23.597   4.623   1.007
95354W        W61763   3.180  33.390   3.654
95355W        W61764   6.698  19.822  14.239
95356W        W61765   3.190  15.241   0.718
95357W        W61766  44.290   6.257  13.779
95358W        W61767  18.867  20.699  10.736
95359W        W61768   3.772  30.530   4.044
95360W        W61769  28.091  26.559  13.274
95361W        W61770  40.214  35.468   1.562
95362W        W61771   5.922  16.057  10.625
95363W        W61772  31.564  33.458   4.608
95364W        W61773   0.287  23.430   0.931
95365W        W61774  40.343  11.690   2.844
95366W        W61775  29.184  19.773   4.721
95367W        W61776  42.013  31.258  13.865
95368W        W61777  18.781  25.707  10.611
95369W        W61778  42.493   5.810  10.720
95370W        W61779  10.080  28.025   3.489
95371W        W61780  30.838  26.878   4.089
95372W        W61781  39.526  30.923   1.254
95373W        W61782   1.760  11.126   4.150
95374W        W61783   6.495  10.818   4.838
95375W        W61784  29.387   1.090   9.756
95376W        W61785  42.837   2.966  12.488
95377W        W61786  22.114  20.029   3.596
95378W        W61787   9.892  14.039  10.706
95379W        W61788   3.317   7.656  14.953
95380W        W61789  12.096   4.710   2.248
95381W        W61790  12.495  24.493  13.861
95382W        W61791  14.740   9.872   4.846
95383W        W61792   9.669  18.290  10.949
95384W        W61793  30.913  15.307  12.559
95385W        W61794  23.215   6.864   4.063
95386W        W61795  28.644  37.580   1.315
95387W        W61796  13.810  24.216  11.024
95388W        W61797  22.039  40.083   1.858
95389W        W61798  12.659  35.604  14.221
95390W        W61799   4.204  17.577   3.722
95391W        W61800  23.650  23.113   3.587
95392W        W61801  34.942  38.030   0.294
95393W        W61802   6.427  27.083   4.538
95394W        W61803  35.412  17.681   0.734
95395W        W61804  32.800  23.992   3.601
95396W        W61805  25.164  16.717   1.706
95397W        W61806  11.239  11.308   2.228
95398W        W61807  34.898  22.219  12.381
95399W        W61808  17.220  22.328   5.006
95400W        W61809   1.345  36.982  10.936
95401W        W61810   3.920  29.187  14.927
95402W        W61811  35.661  30.496  14.322
95403W        W61812  16.763  43.928   1.766
95404W        W61813  16.644  23.527  13.907
95405W        W61814   3.200  19.318   3.875
95406W        W61815  16.826  29.243   2.871
95407W        W61816  12.054  32.645   1.334
95408W        W61817  39.250  36.002   3.370
95409W        W61818  44.760  34.476   2.130
95410W        W61819  14.015  30.343   3.518
95411W        W61820  29.688   8.690  10.482
95412W        W61821  27.830  26.254   2.655
95413W        W61822   7.361  29.142   2.814
95414W        W61823  17.184  10.138  11.857
95415W        W61824  37.375   8.768   3.824
95416W        W61825  14.201  20.037  14.239
95417W        W61826  19.128  15.594   0.737
95418W        W61827  28.368  29.764   3.118
95419W        W61828   8.760  17.922  11.209
95420W        W61829  34.705  37.903   0.784
95421W        W61830  35.661  19.152  11.474
95422W        W61831  17.378  14.694  13.336
95423W        W61832  41.848  42.353   2.488
95424W        W61833  39.736  10.866  14.175
95425W        W61834   1.502  24.600  11.560
95426W        W61835  43.955  25.760  11.607
95427W        W61836  10.775  36.095  11.251
95428W        W61837   9.285   2.521   1.129
95429W        W61838   6.844   3.720  12.602
95430W        W61839  19.265  43.448  11.269
95431W        W61840  43.815  33.385  12.612
95432W        W61841  19.977  21.754   4.587
95433W        W61842   4.979   5.240  10.858
95434W        W61843  35.100  21.167   1.962
95435W        W61844  42.691  22.884   2.338
95436W        W61845  25.427  28.608   4.900
95437W        W61846  25.319  30.875   0.789
95438W        W61847  33.100  39.892  11.628
95439W        W61848   6.773  25.181  13.034
95440W        W61849  10.736   3.321   3.292
95441W        W61850   3.293  27.053   4.258
95442W        W61851  42.991   0.842   2.703
95443W        W61852  10.298  13.873  13.999
95444W        W61853  12.531   8.166  14.942
95445W        W61854  35.862  19.603  11.096
95446W        W61855   0.747   3.464   4.985
95447W        W61856  36.803  43.569  13.114
95448W        W61857  20.162  12.878  14.032
95449W        W61858  31.627  22.513  12.156
95450W        W61859  39.746  25.091  11.547
95451W        W61860  34.494   2.754  13.475
95452W        W61861   8.383  42.789   3.699
95453W        W61862  10.929  36.648   2.995
95454W        W61863  37.192  21.344  14.769
95455W        W61864   1.194   8.811  13.059
95456W        W61865  12.669  16.213   3.246
95457W        W61866  14.385   8.204  12.021
95458W        W61867   5.198  32.217   4.151
95459W        W61868  10.218  15.846   2.478
95460W        W61869   6.016  15.551   3.665
95461W        W61870  31.336  31.500  14.460
95462W        W61871  29.135  14.692   2.596
95463W        W61872  43.780  19.153   3.722
95464W        W61873   4.362  35.846   4.152
95465W        W61874  14.696  44.288  10.655
95466W        W61875  38.522  38.781   0.355
95467W        W61876  40.958  27.588   4.147
95468W        W61877  14.221  33.926  10.125
95469W        W61878  15.043  32.201  14.039
95470W        W61879  38.533  33.327  12.896
95471W        W61880  23.641  11.167  13.933
95472W        W61881  23.586  20.149   3.816
95473W        W61882  23.619  14.012  11.128
95474W        W61883  22.012  28.441   3.615
95475W        W61884  30.557  32.667  12.118
95476W        W61885  16.078  14.774   1.857
95477W        W61886  19.454  10.885  13.712
95478W        W61887   5.658  41.006  12.603
95479W        W61888  28.904  26.430  13.922
95480W        W61889   7.176  40.708  14.534
95481W        W61890  17.052  41.975  13.831
95482W        W61891  39.854  12.951   2.564
95483W        W61892  31.106  41.425  10.751
95484W        W61893   2.629  12.112  12.056
95485W        W61894  30.037  10.798   0.751
95486W        W61895  43.452  23.050  11.940
95487W        W61896  42.569  44.334  12.416
95488W        W61897  11.172  16.299  11.156
95489W        W61898  30.261   0.537  14.456
95490W        W61899  40.366   6.166  12.969
95491W        W61900  32.462   1.303   1.578
95492W        W61901   7.792  36.472   3.384
95493W        W61902  43.061  34.321  10.136
95494W        W61903  29.658   2.448  11.954
95495W        W61904  15.364   5.864  14.759
95496W        W61905  14.400   3.987   4.152
95497W        W61906  44.345  37.665   2.208
95498W        W61907  21.708  15.481  14.280
95499W        W61908  16.871  28.928  10.571
95500W        W61909   0.770  19.742   1.541
95501W        W61910  32.777  31.363   2.382
95502W        W61911  22.238  19.051   4.550
95503W        W61912  33.196   9.813  12.884
95504W        W61913  11.447  34.018  11.814
95505W        W61914   5.401  27.033  11.992
95506W        W61915  37.056  44.711   3.797
95507W        W61916  11.144  12.084   3.025
95508W        W61917  27.147   4.197   0.389
95509W        W61918  42.755  23.493   0.353
95510W        W61919   3.288   2.117   3.800
95511W        W61920  27.881  13.716   3.225
95512W        W61921  36.035  16.645  12.462
95513W        W61922  29.138   2.251   1.277
95514W        W61923   4.027  18.554  14.915
95515W        W61924  40.378  38.863   3.862
95516W        W61925   2.440  17.708   2.727
95517W        W61926   1.712   6.198   1.296
95518W        W61927   9.288   5.517  11.612
95519W        W61928  12.621  40.035  11.589
95520W        W61929  18.081  44.717   1.840
95521W        W61930  34.854  16.243  14.365
95522W        W61931   0.453  10.404  14.502
95523W        W61932   0.821   9.375  13.808
95524W        W61933  23.575  38.744  12.987
95525W        W61934  13.310  11.516   0.865
95526W        W61935  25.275  28.411  12.099
95527W        W61936  43.306  43.754   3.716
95528W        W61937  16.072   0.316   0.239
95529W        W61938  13.959   0.447  12.359
95530W        W61939  15.643  26.717   3.625
95531W        W61940  10.338  12.384  10.768
95532W        W61941  43.527  29.556  12.705
95533W        W61942   3.904   3.384  12.068
95534W        W61943  37.801   0.984  13.226
95535W        W61944  18.229  43.454   0.060
95536W        W61945  44.255   6.616   4.607
95537W        W61946  31.469  11.475   0.456
95538W        W61947  25.842  39.360  13.025
95539W        W61948  28.706  37.522   3.625
95540W        W61949  43.225  40.466   1.734
95541W        W61950  16.672  35.158   1.248
95542W        W61951  42.062  39.791   3.081
95543W        W61952  36.361   5.931  12.633
95544W        W61953  18.759  17.259  14.037
95545W        W61954   3.732  19.075   1.144
95546W        W61955  23.438  25.090  11.074
95547W        W61956  16.118   7.326   4.512
95548W        W61957  16.859  32.966  12.495
95549W        W61958  23.112  27.531   2.870
95550W        W61959  26.362  42.879  14.418
95551W        W61960  38.950  35.792  14.902
95552W        W61961  28.160  13.334   4.248
95553W        W61962  10.223  20.615   0.323
95554W        W61963  22.417   8.184   2.309
95555W        W61964   0.709   1.619   0.879
95556W        W61965  33.556  22.517   4.290
95557W        W61966  29.497  23.289   4.536
95558W        W61967   0.476   4.296  14.964
95559W        W61968  25.944   5.233  11.672
95560W        W61969  22.642   9.844   1.805
95561W        W61970  40.759   3.385   3.349
95562W        W61971  43.451  29.864   4.260
95563W        W61972  37.413   3.817  14.761
95564W        W61973  28.477   1.904   1.487
95565W        W61974  38.893   0.557  10.740
95566W        W61975  11.199  38.721  12.057
95567W        W61976  10.769  35.625  12.694
95568W        W61977  24.032  14.125  13.193
95569W        W61978  19.783  44.990   2.624
95570W        W61979  44.711  14.747  13.702
95571W        W61980  31.122   2.938  14.943
95572W        W61981  44.061  41.925  14.092
95573W        W61982  14.206  33.166  13.338
95574W        W61983   7.204  10.884  14.873
95575W        W61984  27.122  36.580   2.643
95576W        W61985   1.899  31.705  13.062
95577W        W61986  42.430  16.106  11.428
95578W        W61987  34.139  30.390   2.193
95579W        W61988  25.670  22.560   3.569
95580W        W61989  43.809  37.526   0.928
95581W        W61990  34.402  11.763   3.199
95582W        W61991  12.501  38.814   3.964
95583W        W61992  29.029  15.027   0.820
95584W        W61993  26.081  37.015  12.924
95585W        W61994   9.096  35.983  13.327
95586W        W61995  28.919  38.877   1.343
95587W        W61996  28.023  26.415  12.424
95588W        W61997  32.454   1.480   0.471
95589W        W61998   5.314  36.393   3.229
95590W        W61999   5.673   6.045  13.161
95591W        W62000  43.357  22.024   2.741
95592W        W62001   3.359   3.004  13.604
95593W        W62002  31.584  43.001   2.442
95594W        W62003   9.025  38.652  11.420
95595W        W62004  38.351  28.624   1.360
95596W        W62005   0.958  34.909   0.396
95597W        W62006  41.898  12.231  11.358
95598W        W62007   0.780  40.091   4.535
95599W        W62008  10.142   7.735   1.039
95600W        W62009  36.135  33.014  12.988
95601W        W62010  26.048  12.343  14.395
95602W        W62011  36.298  16.312   3.394
95603W        W62012  12.730  33.878   1.313
95604W        W62013   6.712   7.916  11.527
95605W        W62014  12.656  40.702   2.276
95606W        W62015  13.201  39.584   0.365
95607W        W62016  39.463  43.365   2.942
95608W        W62017   1.000   3.070   1.995
95609W        W62018  16.203  14.280   1.305
95610W        W62019  10.341   0.510   2.256
95611W        W62020  19.589  43.280  10.517
95612W        W62021   2.504   3.399   1.888
95613W        W62022  34.890   0.269  10.539
95614W        W62023  36.141  20.813   4.262
95615W        W62024  30.158   7.741  11.641
95616W        W62025  41.452  35.840  12.532
95617W        W62026   1.208   2.371  13.188
95618W        W62027  42.415   9.859  12.125
95619W        W62028  17.093  14.711   3.706
95620W        W62029  25.163  32.484   0.189
95621W        W62030  40.211  10.295   4.758
95622W        W62031   3.152  24.278  10.135
95623W        W62032  34.134   8.608   4.697
95624W        W62033  37.302  33.068  14.357
95625W        W62034  38.273  14.924  12.829
95626W        W62035   3.929  26.530  13.398
95627W        W62036  30.585   2.545  12.925
95628W        W62037  35.644   0.349  14.862
95629W        W62038  10.623  33.920  12.492
95630W        W62039  39.071  10.111  14.313
95631W        W62040  11.566  14.613  10.891
95632W        W62041  37.954   0.391   3.520
95633W        W62042  26.606  25.182   5.096
95634W        W62043   4.867  29.913  12.967
95635W        W62044   5.344  10.370   0.508
95636W        W62045  12.265   1.968  13.942
95637W        W62046   6.164   3.028  11.588
95638W        W62047  20.652  42.976   3.127
95639W        W62048  17.400  26.745   4.976
95640W        W62049  42.382   5.252  13.228
95641W        W62050  18.765  39.368   1.524
95642W        W62051  20.696  18.807  13.997
95643W        W62052  17.480  10.077  11.194
95644W        W62053   5.107  32.388  11.061
95645W        W62054  17.182  25.157   0.146
95646W        W62055   6.219  25.006  14.781
95647W        W62056   9.045  15.349  12.090
95648W        W62057   2.260  15.264   1.349
95649W        W62058   1.973   0.710  13.322
95650W        W62059  19.315  38.427   0.313
95651W        W62060  34.629  32.030   4.603
95652W        W62061   6.505   7.698  11.954
95653W        W62062   7.306   8.210  13.406
95654W        W62063  40.315  32.081  14.469
95655W        W62064  32.167  32.853   4.816
95656W        W62065  29.292  10.178  11.601
95657W        W62066  27.774  16.911  12.267
95658W        W62067  40.793  11.938   0.831
95659W        W62068  40.959  26.856  12.803
95660W        W62069  20.323  15.206   1.815
95661W        W62070  28.087  35.063   5.064
95662W        W62071  41.162  31.152   1.425
95663W        W62072   9.711   6.177  12.610
95664W        W62073   1.215  32.725  11.461
95665W        W62074  10.834   6.872  11.279
95666W        W62075  40.805  36.925   3.865
95667W        W62076  19.344   7.157  14.506
95668W        W62077  36.944   9.683   1.825
95669W        W62078   4.900  14.175  13.843
95670W        W62079  27.225   7.299   2.229
95671W        W62080   0.088  20.149  13.610
95672W        W62081   8.133   1.350   3.141
95673W        W62082  44.902  18.766   3.713
95674W        W62083   9.104  37.297   0.959
95675W        W62084  43.933  40.072  12.116
95676W        W62085   6.759  35.594  14.927
95677W        W62086   1.319  17.667   3.373
95678W        W62087   2.213  35.876  14.851
95679W        W62088  11.708  34.813   0.473
95680W        W62089   7.454  29.090  11.432
95681W        W62090  31.411  20.051   4.770
95682W        W62091  32.173  23.119  13.093
95683W        W62092   3.421  14.319   4.948
95684W        W62093  34.923   1.559  11.722
95685W        W62094  34.958  33.954   0.292
95686W        W62095  35.989   2.604  11.907
95687W        W62096   9.763   3.545   1.915
95688W        W62097  24.756  24.971  12.098
95689W        W62098   6.752  28.590  12.350
95690W        W62099  25.138  19.785   0.021
95691W        W62100  44.047  26.960  10.841
95692W        W62101   8.841  25.541   0.680
95693W        W62102  29.455  10.541  14.887
95694W        W62103  34.439  42.026   4.512
95695W        W62104   8.767  25.937  11.019
95696W        W62105  14.150  18.163  14.434
95697W        W62106   7.102   7.756  13.617
95698W        W62107  12.993   4.120   4.117
95699W        W62108   1.818  27.943   0.853
95700W        W62109  26.131   3.940   2.799
95701W        W62110  23.034  34.918  14.815
95702W        W62111   9.684  30.845   4.712
95703W        W62112  10.910  33.479  14.104
95704W        W62113  13.687  19.719  13.111
95705W        W62114   1.319  12.301   3.753
95706W        W62115  33.656  25.628  14.339
95707W        W62116  34.098  14.032   1.472
95708W        W62117  26.719  23.071  10.283
95709W        W62118  27.159  38.546  10.252
95710W        W62119  25.489  32.082   3.525
95711W        W62120  37.596  20.691   3.159
95712W        W62121  43.986  16.178   1.664
95713W        W62122  12.353  13.870  11.488
95714W        W62123  13.017  43.303  13.258
95715W        W62124  39.535  25.170   3.230
95716W        W62125  28.409  23.127   1.462
95717W        W62126  30.698  29.937  12.050
95718W        W62127  23.448  24.732  13.501
95719W        W62128  11.634  33.274   1.756
95720W        W62129  13.914  38.167  12.039
95721W        W62130  35.573  43.966  11.191
95722W        W62131   1.376  15.381   1.242
95723W        W62132  32.536   7.043  11.162
95724W        W62133  40.804  16.986  14.417
95725W        W62134  28.914  21.043   2.046
95726W        W62135  14.649  16.953   4.228
95727W        W62136  32.303  10.791  14.331
95728W        W62137  26.167  27.716   0.924
95729W        W62138  16.737  28.623  10.990
95730W        W62139   7.422  27.190  12.433
95731W        W62140   0.912  26.540   1.846
95732W        W62141  22.936  13.142   2.269
95733W        W62142  37.115  29.373  10.472
95734W        W62143  27.096  12.129   0.785
95735W        W62144   1.938  28.923  12.467
95736W        W62145   7.702  16.233  13.816
95737W        W62146  29.522  11.150  12.586
95738W        W62147  36.875  36.016   2.689
95739W        W62148   7.907  40.540  13.536
95740W        W62149   5.941  31.149  13.446
95741W        W62150   3.026  28.874  11.957
95742W        W62151  16.437  39.473  14.775
95743W        W62152  37.940  13.057  14.243
95744W        W62153   1.007  39.897   0.775
95745W        W62154  18.765  17.895   0.505
95746W        W62155  23.499   1.429  12.489
95747W        W62156  31.422  12.694  14.790
95748W        W62157   7.956  18.525  12.964
95749W        W62158  37.453  27.070  13.427
95750W        W62159  22.645   7.386  12.141
95751W        W62160  21.266  14.856   0.348
95752W        W62161  13.129  31.467  14.542
95753W        W62162  22.031  15.869  14.921
95754W        W62163   7.913  21.194   1.354
95755W        W62164  20.369  19.296   2.793
95756W        W62165  36.247  15.143  11.430
95757W        W62166  23.069  14.888  13.858
95758W        W62167  42.926  12.085  13.611
95759W        W62168  13.362  33.513  10.273
95760W        W62169  10.642  44.876  14.006
95761W        W62170  30.372  37.530   0.783
95762W        W62171   7.754   8.136   4.261
95763W        W62172  38.966  42.018   4.734
95764W        W62173  38.038  32.957   2.236
95765W        W62174  44.058   7.870  13.718
95766W        W62175  38.847  32.544   1.299
95767W        W62176  26.647  38.279   0.347
95768W        W62177  16.363  23.305  13.378
95769W        W62178  27.921  44.462  14.979
95770W        W62179  19.673  37.751   3.977
95771W        W62180  38.016  32.404   1.538
95772W        W62181   9.082  29.192  10.672
95773W        W62182   4.366  23.459   3.092
95774W        W62183  29.935   4.793   4.824
95775W        W62184   5.706  22.700   4.120
95776W        W62185  44.821  23.081   3.890
95777W        W62186  27.658   5.340  14.278
95778W        W62187   4.488  36.524   2.792
95779W        W62188  41.717  21.513   4.285
95780W        W62189  42.369  37.368  10.492
95781W        W62190  22.001  34.426   4.549
95782W        W62191  17.609  14.543   3.829
95783W        W62192  33.469  16.707  13.121
95784W        W62193  31.337  11.421   1.717
95785W        W62194  38.610  37.113   2.762
95786W        W62195  21.655   3.105  12.979
95787W        W62196   5.482   0.845  14.844
95788W        W62197  30.077   5.608  12.543
95789W        W62198   8.670  15.149  14.584
95790W        W62199  41.310  30.124   1.623
95791W        W62200  28.733   7.963   0.012
95792W        W62201  25.539  18.117   4.274
95793W        W62202   4.127  41.944   0.940
95794W        W62203  37.778   2.435   4.979
95795W        W62204  38.364   5.326   1.050
95796W        W62205  29.435  25.954  14.316
95797W        W62206  19.266  24.712  14.468
95798W        W62207  24.132  12.300   3.343
95799W        W62208  24.081  31.290  12.054
95800W        W62209   1.975  36.356  14.974
95801W        W62210  36.521  32.532  11.844
95802W        W62211  10.319  17.789  13.060
95803W        W62212   6.805  12.735  12.195
95804W        W62213  21.963  16.157  12.039
95805W        W62214  29.621  26.442  14.323
95806W        W62215  13.361  23.773  13.981
95807W        W62216  27.199  18.767  12.466
95808W        W62217  44.094  27.462   4.131
95809W        W62218  21.742  20.717  10.506
95810W        W62219  36.230   6.747   4.903
95811W        W62220  42.003   4.147  11.092
95812W        W62221   1.452  37.090   3.164
95813W        W62222  43.034  43.632   2.610
95814W        W62223   5.663  37.785  13.008
95815W        W62224  41.828   3.240   2.476
95816W        W62225  26.274  25.083   1.859
95817W        W62226  11.445  23.170   0.065
95818W        W62227  34.591   4.817   4.535
95819W        W62228  22.022  32.510  13.401
95820W        W62229  39.140  15.849  12.045
95821W        W62230  31.687   0.612   3.395
95822W        W62231  44.851  21.006   4.069
95823W        W62232  27.416  33.150   3.740
95824W        W62233  11.527  39.680  13.821
95825W        W62234   1.046  12.858  13.378
95826W        W62235  37.122   2.698  13.478
95827W        W62236  10.687  43.310   0.349
95828W        W62237  23.249  44.410  13.770
95829W        W62238   3.874  44.524   1.881
95830W        W62239  14.564  11.343   3.244
95831W        W62240  14.995  29.721   4.850
95832W        W62241  27.632  44.146   3.675
95833W        W62242  14.493  34.146  13.836
95834W        W62243  12.886  36.125  14.074
95835W        W62244  34.846   0.863  13.504
95836W        W62245  33.114  15.466   2.239
95837W        W62246  29.201   6.952  12.273
95838W        W62247  14.391  35.918  14.288
95839W        W62248  27.730   0.777  14.786
95840W        W62249   3.430  43.745   2.388
95841W        W62250  14.882  35.498  11.663
95842W        W62251  26.867  19.145   1.639
95843W        W62252  27.173  21.732   5.026
95844W        W62253   1.412  43.762   0.339
95845W        W62254  16.283  24.404  11.962
95846W        W62255  22.557  16.779   1.855
95847W        W62256  17.284  24.186  13.796
95848W        W62257  39.440  18.116   2.136
95849W        W62258  10.370  41.476   0.435
95850W        W62259  36.255  31.040  14.471
95851W        W62260  27.593  39.765   3.129
95852W        W62261  24.181  15.344   1.657
95853W        W62262  16.728   7.114  12.545
95854W        W62263  25.034  39.756  10.987
95855W        W62264  19.933  34.189  11.677
95856W        W62265  29.268   6.660  10.769
95857W        W62266  43.442   6.259   2.307
95858W        W62267  16.627  33.825  11.544
95859W        W62268   5.836  31.446   1.247
95860W        W62269  35.930   6.250  13.360
95861W        W62270  43.258  20.139   1.018
95862W        W62271  42.370   4.766  13.005
95863W        W62272  12.698  37.954  11.357
95864W        W62273  34.440  23.698   2.693
95865W        W62274  24.967  21.023  11.290
95866W        W62275  21.621  18.594   4.324
95867W        W62276   4.259  18.598  11.877
95868W        W62277   4.939   0.725   0.365
95869W        W62278  22.263  41.542   2.998
95870W        W62279  40.415  44.537   4.857
95871W        W62280  38.432  15.122  14.274
95872W        W62281  44.700  44.513  14.575
95873W        W62282  26.644   7.288  11.147
95874W        W62283  32.222  16.577   1.234
95875W        W62284  12.429  19.068   4.979
95876W        W62285   8.169  30.846  13.440
95877W        W62286  10.471  31.828   9.780
95878W        W62287  23.579  27.348   3.026
95879W        W62288  19.160   6.859  12.461
95880W        W62289  43.563  15.321   2.548
95881W        W62290  28.068  44.703   1.379
95882W        W62291  43.153   9.521   2.751
95883W        W62292  37.090  38.314  14.793
95884W        W62293  42.467  24.475  10.700
95885W        W62294  27.170   9.931   0.418
95886W        W62295  34.641  40.676  12.128
95887W        W62296   9.854   0.275   1.481
95888W        W62297  37.574  15.171  12.018
95889W        W62298  10.869  35.584   0.765
95890W        W62299  41.064  13.161   2.771
95891W        W62300  17.585  40.243  12.680
95892W        W62301   8.343  15.829   0.613
95893W        W62302  12.173  16.616   1.772
95894W        W62303  10.672  30.862  11.187
95895W        W62304   4.364   5.347   2.503
95896W        W62305   9.622  28.126  10.494
95897W        W62306  29.608   1.131   1.803
95898W        W62307  29.658  29.451  11.106
95899W        W62308  14.432  20.273  11.568
95900W        W62309  12.310  12.620   0.812
95901W        W62310  41.046   9.814  13.495
95902W        W62311  19.110  27.130   0.511
95903W        W62312  44.848   1.072   4.237
95904W        W62313  41.760  32.354   1.252
95905W        W62314  24.917  29.669   4.213
95906W        W62315  44.493   4.212  12.022
95907W        W62316  40.324  19.248   0.944
95908W        W62317  34.206  32.524   3.655
95909W        W62318  17.136  18.412  13.488
95910W        W62319   7.084   3.805  11.103
95911W        W62320  15.238  11.669   2.363
95912W        W62321  18.247   1.583  13.994
95913W        W62322  10.771  25.189   2.149
95914W        W62323  42.721   7.645  13.554
95915W        W62324  25.615  38.489   4.444
95916W        W62325  26.245  31.529  13.015
95917W        W62326  18.627  40.548   2.258
95918W        W62327  34.878   4.453  13.996
95919W        W62328   4.731  36.364   4.831
95920W        W62329  39.378  11.130   2.150
95921W        W62330   6.250  34.380   1.309
95922W        W62331  18.697   1.516   3.415
95923W        W62332  34.833  20.724   4.278
95924W        W62333  30.583  43.954   4.139
95925W        W62334  15.238  41.378   2.977
95926W        W62335  13.613  11.060  12.438
95927W        W62336  33.683   8.890  10.734
95928W        W62337  32.639   7.235   2.359
95929W        W62338  17.468  34.988   4.174
95930W        W62339  30.379  31.541  13.625
95931W        W62340   9.012  33.064   1.282
95932W        W62341   7.424  38.095   2.410
95933W        W62342  33.409   1.720   1.220
95934W        W62343   3.641   4.717   3.196
95935W        W62344  30.362  17.682   2.366
95936W        W62345  42.878   6.896  13.193
95937W        W62346  29.064  43.612   4.850
95938W        W62347  22.926  21.288   3.668
95939W        W62348  38.719  30.117  11.422
95940W        W62349  21.632   2.835  13.528
95941W        W62350  43.987   1.460   4.001
95942W        W62351  37.528   9.691   1.249
95943W        W62352   2.222  41.477   4.528
95944W        W62353  38.329   6.145  12.466
95945W        W62354  43.567   5.493   3.258
95946W        W62355  42.968   9.165   3.599
95947W        W62356   4.122   7.643   0.390
95948W        W62357  40.920  38.955  11.847
95949W        W62358   4.803   3.490  13.549
95950W        W62359  36.779  14.059  12.906
95951W        W62360  19.424  37.002   1.196
95952W        W62361  26.114  31.296  12.537
95953W        W62362  20.674   5.711  11.884
95954W        W62363   0.406   9.095  14.053
95955W        W62364  42.787   5.882   4.189
95956W        W62365  34.486  38.035   4.821
95957W        W62366  44.300  20.825  11.885
95958W        W62367  34.108  23.741   4.676
95959W        W62368  15.097  18.764  13.457
95960W        W62369  41.847   0.451  14.352
95961W        W62370   2.388  43.995   0.678
95962W        W62371  24.368  11.421   3.588
95963W        W62372  37.550   2.405  13.447
95964W        W62373  28.105   7.160  14.474
95965W        W62374  17.250  35.628  11.055
95966W        W62375  32.109  24.493  14.419
95967W        W62376  10.832  42.924   0.737
95968W        W62377  20.760  38.420   0.658
95969W        W62378  39.290  36.727  11.112
95970W        W62379  26.694  25.797   2.611
95971W        W62380   1.166  34.139   1.463
95972W        W62381  29.097   5.311  11.484
95973W        W62382  40.088  23.697   0.919
95974W        W62383   6.126  35.950   3.691
95975W        W62384  11.819  40.890  12.630
95976W        W62385   1.682  35.047  13.074
95977W        W62386  24.915  39.492   3.920
95978W        W62387  38.653  30.339  10.453
95979W        W62388  42.599  38.471   2.398
95980W        W62389  21.989  38.514   1.896
95981W        W62390  20.269  33.377  13.901
95982W        W62391  11.592   0.407   0.238
95983W        W62392  13.267  26.703   5.087
95984W        W62393  13.551  27.495   1.756
95985W        W62394  13.836  23.372   4.572
95986W        W62395  15.959  19.560  12.623
95987W        W62396  32.403  15.693  14.664
95988W        W62397  35.545  24.610   0.323
95989W        W62398  44.484  29.022   2.195
95990W        W62399   5.713  16.188  13.738
95991W        W62400  21.453  21.552  13.463
95992W        W62401  33.538  31.700  11.486
95993W        W62402  29.591  29.591  12.117
95994W        W62403  17.231  33.956   1.703
95995W        W62404  36.337  12.285  10.839
95996W        W62405  42.172  21.640   2.411
95997W        W62406  17.657  44.241  12.114
95998W        W62407  17.549  31.649   0.433
95999W        W62408  35.538  25.109  14.440
96000W        W62409   0.350  15.348   1.762
96001W        W62410  27.803  11.770  13.931
96002W        W62411  29.435   3.749  13.315
96003W        W62412  44.775  30.446   0.068
96004W        W62413  37.540  28.688  11.643
96005W        W62414  11.208   3.528   1.727
96006W        W62415  19.682  34.516  10.736
96007W        W62416   7.213   0.707  14.372
96008W        W62417  30.939  30.037  13.419
96009W        W62418  44.992  11.381   4.526
96010W        W62419  38.397  29.436   4.189
96011W        W62420   2.215  17.632  10.478
96012W        W62421   8.324   8.386  13.584
96013W        W62422  25.320   9.877  11.553
96014W        W62423   3.621  21.282  14.881
96015W        W62424  36.768  40.342   2.244
96016W        W62425   5.617  44.875  14.474
96017W        W62426  29.886  12.095   1.847
96018W        W62427  42.982  41.485  13.955
96019W        W62428  22.053  42.459   4.530
96020W        W62429  30.662   5.755   0.108
96021W        W62430  27.370  28.834   5.069
96022W        W62431  41.265  13.043   0.467
96023W        W62432   0.347  43.503   4.499
96024W        W62433  15.417  27.064   0.323
96025W        W62434   1.095  39.511  11.568
96026W        W62435  24.636  41.715  13.032
96027W        W62436  28.492  10.743   4.565
96028W        W62437   1.240   2.844   4.442
96029W        W62438  31.517  43.794   1.852
96030W        W62439   5.768  40.778  13.071
96031W        W62440   7.721   4.490   1.913
96032W        W62441  28.927  24.430   0.479
96033W        W62442   0.225  33.577  12.465
96034W        W62443  34.193   8.631  11.723
96035W        W62444  30.547   8.397   3.188
96036W        W62445  34.412  14.009   4.103
96037W        W62446  41.547   2.550  11.579
96038W        W62447  38.524  14.584  11.912
96039W        W62448  10.333  39.604  11.535
96040W        W62449  41.700   6.346   1.754
96041W        W62450  20.774   3.708  12.696
96042W        W62451  11.560   3.001  10.616
96043W        W62452  25.245  21.778  11.237
96044W        W62453  13.781  20.138  12.819
96045W        W62454  44.053   8.223   4.619
96046W        W62455  21.634  36.549  13.572
96047W        W62456  21.263  16.341   4.121
96048W        W62457  30.884   7.845  14.546
96049W        W62458  21.488  15.882   4.071
96050W        W62459  39.844  24.083  12.967
96051W        W62460  33.884  40.628  14.817
96052W        W62461  43.776  30.899   0.270
96053W        W62462  12.308   0.484   0.857
96054W        W62463  41.955  23.049   4.321
96055W        W62464  39.795  24.081   0.743
96056W        W62465  10.162  14.376   4.638
96057W        W62466  40.965   0.741   2.302
96058W        W62467   9.265  29.520   4.574
96059W        W62468  30.882  43.015  10.538
96060W        W62469  42.486   5.209   3.764
96061W        W62470  10.628  11.302  14.036
96062W        W62471   4.422  14.718  12.435
96063W        W62472  24.774  15.173  12.899
96064W        W62473  23.756  15.281  10.631
96065W        W62474   6.260  26.669   0.275
96066W        W62475  36.978  10.832  11.755
96067W        W62476  21.449  25.963   2.362
96068W        W62477  13.018   4.857  10.639
96069W        W62478  10.464  33.699  12.955
96070W        W62479  44.675  28.892   2.671
96071W        W62480  27.149   6.242  14.198
96072W        W62481  14.239  25.282  14.815
96073W        W62482   3.470  30.626   0.504
96074W        W62483  25.453  21.068  13.874
96075W        W62484  10.233  27.380  13.935
96076W        W62485  21.475  25.899   3.619
96077W        W62486  23.700  31.954  13.908
96078W        W62487  19.966  21.558  13.381
96079W        W62488  27.988  31.359  11.940
96080W        W62489  13.294   9.749  13.380
96081W        W62490   2.155  13.712  12.481
96082W        W62491   5.660  11.392  10.721
96083W        W62492  36.891  37.080  11.220
96084W        W62493   8.813  38.706  12.442
96085W        W62494  16.763   1.824  12.656
96086W        W62495  12.653  37.974  12.799
96087W        W62496  22.038  36.569   2.595
96088W        W62497  35.703  42.766   1.338
96089W        W62498  16.182   6.365  14.417
96090W        W62499  26.871   8.569   4.614
96091W        W62500   8.358  27.604  11.085
96092W        W62501  38.073   0.716  11.284
96093W        W62502  17.193  10.338  12.822
96094W        W62503  30.116   9.738   3.141
96095W        W62504  37.140  23.978   0.754
96096W        W62505  33.851  22.593   2.213
96097W        W62506   0.235  37.104  11.491
96098W        W62507  22.743  13.080   4.532
96099W        W62508   2.200  23.476  13.037
96100W        W62509  28.550  20.023  14.040
96101W        W62510  26.904  25.749  12.194
96102W        W62511  21.740  19.052   2.309
96103W        W62512  15.277  20.056   5.426
96104W        W62513  37.768  19.545  12.041
96105W        W62514  43.478  30.084  13.891
96106W        W62515  14.091  27.496   1.773
96107W        W62516  18.278  38.911  14.902
96108W        W62517   0.023  18.142  13.958
96109W        W62518  22.790  17.717  13.940
96110W        W62519  25.120  29.227  14.024
96111W        W62520  23.705  26.055   0.772
96112W        W62521  40.362  34.951  12.249
96113W        W62522  30.133  42.054  13.827
96114W        W62523  26.174   1.936  14.735
96115W        W62524  22.494  18.766  12.694
96116W        W62525  27.433   7.788   4.963
96117W        W62526  10.824   3.518   0.549
96118W        W62527  31.830  35.524  10.739
96119W        W62528  13.626  36.575   3.259
96120W        W62529  15.170   9.714   4.631
96121W        W62530  12.881  39.795   2.293
96122W        W62531  22.780  10.205   2.171
96123W        W62532  25.681  44.847   2.207
96124W        W62533  31.435  29.389   2.369
96125W        W62534  15.559  14.437  14.473
96126W        W62535  30.452  36.604  14.265
96127W        W62536  34.344  22.224   0.190
96128W        W62537  10.177  36.612  10.985
96129W        W62538  21.553  23.994   3.766
96130W        W62539  36.808  15.264  12.590
96131W        W62540  27.801  15.198   3.301
96132W        W62541  22.479   5.822  11.485
96133W        W62542   8.919  42.852  11.215
96134W        W62543   2.171  16.059  13.888
96135W        W62544  18.369  13.783   0.391
96136W        W62545  38.089  22.647   1.158
96137W        W62546  12.048  12.120  12.764
96138W        W62547  40.407   4.250   3.747
96139W        W62548  17.545  36.617   4.254
96140W        W62549  27.533  22.030  11.699
96141W        W62550  40.078  19.041  11.941
96142W        W62551  44.309  13.773  14.185
96143W        W62552   7.439  43.523  12.819
96144W        W62553  33.332  25.867   0.717
96145W        W62554  32.365  42.780  10.718
96146W        W62555  28.054  25.610   1.870
96147W        W62556   7.491  22.826   1.774
96148W        W62557  17.653  18.630  14.878
96149W        W62558  19.783  40.001   3.090
96150W        W62559  34.886  32.113  10.561
96151W        W62560  14.722   9.616   4.367
96152W        W62561  37.424  31.830  13.092
96153W        W62562  38.280  29.108   2.881
96154W        W62563  24.715   8.922  10.642
96155W        W62564  10.326  26.975  14.284
96156W        W62565   7.689  23.797   3.032
96157W        W62566   6.208  33.458   3.565
96158W        W62567   7.444  35.020  12.912
96159W        W62568  31.017  33.096   4.636
96160W        W62569  23.429  39.557  13.411
96161W        W62570  44.642  10.404   0.652
96162W        W62571  40.290  15.615   4.591
96163W        W62572   0.444   1.470  12.594
96164W        W62573  18.929  37.257  12.568
96165W        W62574  34.285  20.196   3.700
96166W        W62575  31.533  40.051  14.284
96167W        W62576  43.603  12.411   1.746
96168W        W62577  43.468  28.042   1.921
96169W        W62578  32.435  32.222   0.234
96170W        W62579  40.376  21.485   0.406
96171W        W62580   4.176  42.710   3.163
96172W        W62581  14.059  15.632  14.529
96173W        W62582  24.754  12.048   1.930
96174W        W62583  37.280  39.951  13.402
96175W        W62584  23.705  18.322   2.327
96176W        W62585  38.218  16.075   4.966
96177W        W62586  33.071  38.587  10.958
96178W        W62587  24.225  27.045   4.693
96179W        W62588  23.827  37.913  13.982
96180W        W62589  40.593  18.258   2.716
96181W        W62590  42.179  39.909   2.208
96182W        W62591  37.018  39.772   0.169
96183W        W62592  33.297   8.854  14.038
96184W        W62593   2.170  31.888  14.436
96185W        W62594  21.543  39.414  10.903
96186W        W62595  20.371  16.641   0.729
96187W        W62596  23.923  20.826   4.924
96188W        W62597  28.887  44.587   0.550
96189W        W62598  42.820  19.294  13.793
96190W        W62599  38.402  34.457   1.340
96191W        W62600  38.973  40.131  13.657
96192W        W62601  25.478  16.707  11.433
96193W        W62602  37.117   0.757  15.000
96194W        W62603  37.696  21.699   1.790
96195W        W62604   8.612  27.259   2.745
96196W        W62605   6.179  31.098   2.821
96197W        W62606  15.701   9.211  10.428
96198W        W62607  14.721  16.075   0.057
96199W        W62608  18.554  14.401   2.835
96200W        W62609  20.400   3.349   4.004
96201W        W62610   7.395  25.613  11.753
96202W        W62611  22.448  26.162   3.700
96203W        W62612   9.787   8.785  11.600
96204W        W62613  14.589  10.118  12.912
96205W        W62614  43.670  19.694  10.922
96206W        W62615  38.951  34.041   4.710
96207W        W62616  28.540  18.849   3.354
96208W        W62617   0.992  19.178  13.309
96209W        W62618  11.682  28.779   9.945
96210W        W62619  15.635   7.431   0.138
96211W        W62620   7.224  19.795   2.922
96212W        W62621  35.378  21.294   2.362
96213W        W62622  38.029  28.223  14.207
96214W        W62623  16.591  23.492  12.172
96215W        W62624  23.265  20.776   2.832
96216W        W62625   2.733  18.958   2.977
96217W        W62626  27.421  26.907  14.891
96218W        W62627  33.174  19.349   3.161
96219W        W62628  29.458  40.556   3.569
96220W        W62629   8.964  10.453  12.005
96221W        W62630  37.376  42.420   4.236
96222W        W62631  30.604  21.820   2.124
96223W        W62632  14.316  40.372  12.138
96224W        W62633  28.438   5.188  12.538
96225W        W62634  21.737   7.312  14.415
96226W        W62635  16.618  13.768  13.495
96227W        W62636   2.939  19.105  11.542
96228W        W62637  18.674  33.943  11.537
96229W        W62638  11.623  21.704   3.927
96230W        W62639  27.197  16.283   2.326
96231W        W62640  19.389  32.629  14.550
96232W        W62641   0.302  37.859   4.768
96233W        W62642   5.570  38.788  12.231
96234W        W62643  20.763  15.453  12.161
96235W        W62644   2.583  43.425  10.864
96236W        W62645   4.847   9.020  14.127
96237W        W62646   6.206  35.158   2.874
96238W        W62647  36.458  34.583  14.971
96239W        W62648  32.299  14.054  12.583
96240W        W62649   0.166  28.948   0.805
96241W        W62650   6.132  28.089   3.271
96242W        W62651   4.475  13.575   1.726
96243W        W62652  26.987  21.637  11.029
96244W        W62653  10.363  28.506   2.802
96245W        W62654   3.789  37.822   1.257
96246W        W62655  28.518   2.748  10.574
96247W        W62656  10.289   4.718   3.647
96248W        W62657  44.477  31.149  14.783
96249W        W62658  19.102   3.159   3.839
96250W        W62659  25.451  32.603  12.814
96251W        W62660  20.004  28.518   3.460
96252W        W62661   3.383  34.503   0.921
96253W        W62662  21.060   8.002  14.544
96254W        W62663   3.610   4.254   3.451
96255W        W62664  32.899  18.688   1.998
96256W        W62665  19.210  24.167   1.081
96257W        W62666  44.657   0.866   2.964
96258W        W62667  10.875  27.725  12.380
96259W        W62668  18.714   3.318   3.141
96260W        W62669  10.170  32.065   3.658
96261W        W62670  26.946  33.455  12.540
96262W        W62671  25.289  43.839   4.279
96263W        W62672  35.169  32.008  12.041
96264W        W62673  11.629  44.792   1.921
96265W        W62674  25.844   2.478  12.998
96266W        W62675  39.494  28.723  12.588
96267W        W62676  37.498  27.925   0.661
96268W        W62677  44.237  18.614  14.378
96269W        W62678  12.824  19.764   3.666
96270W        W62679  30.514  38.638  14.453
96271W        W62680  41.985  21.174  13.411
96272W        W62681  43.733   4.292  13.540
96273W        W62682  19.965   1.684  10.312
96274W        W62683  28.869  24.586   9.469
96275W        W62684   5.212  39.168  14.390
96276W        W62685  13.095   3.482  12.465
96277W        W62686  21.443   2.340  13.546
96278W        W62687   8.763  44.002  13.097
96279W        W62688  30.543  42.040  12.528
96280W        W62689  11.275   0.198   2.635
96281W        W62690  14.924  34.201  14.979
96282W        W62691  38.471  42.331  12.933
96283W        W62692   2.651  17.665   3.540
96284W        W62693   2.305  36.678  14.347
96285W        W62694  18.138   5.903  10.399
96286W        W62695  44.852  33.131   0.895
96287W        W62696  39.194  44.633   4.955
96288W        W62697  17.111   3.782  12.418
96289W        W62698  28.470   8.082   3.937
96290W        W62699  18.081  34.363   1.402
96291W        W62700  29.984  23.533   4.416
96292W        W62701  44.027  33.437  13.082
96293W        W62702  42.713  39.069  10.587
96294W        W62703  26.225  35.561  11.380
96295W        W62704  17.319   1.094  11.796
96296W        W62705  18.588   3.031   1.645
96297W        W62706   7.326  34.565   2.281
96298W        W62707   3.275  16.086   0.382
96299W        W62708  35.454  41.478  12.084
96300W        W62709  20.561  41.220   3.017
96301W        W62710  14.552  10.767  11.559
96302W        W62711  36.868  20.045  12.126
96303W        W62712  15.328  20.925  11.562
96304W        W62713  38.731  19.625   1.726
96305W        W62714  16.669  33.693   1.338
96306W        W62715   4.582  25.048  10.693
96307W        W62716  13.216  18.073  11.930
96308W        W62717  16.933  23.088  14.215
96309W        W62718  39.370   6.087   1.741
96310W        W62719  10.156  29.008  10.876
96311W        W62720  34.291  26.902  10.897
96312W        W62721  38.848  28.906  11.967
96313W        W62722  16.163  11.224  11.999
96314W        W62723  29.048  42.334   1.829
96315W        W62724  41.525  16.290  11.457
96316W        W62725  26.112  19.205  14.275
96317W        W62726   3.890  22.968   0.730
96318W        W62727  16.754  27.698   3.682
96319W        W62728  20.959  22.256  13.469
96320W        W62729  24.520   2.215  12.882
96321W        W62730  15.136  12.347   1.277
96322W        W62731  20.933  33.374  11.514
96323W        W62732  43.426  15.550   4.389
96324W        W62733  25.572  26.275  10.118
96325W        W62734  17.310  35.285   1.637
96326W        W62735   8.607   1.634   3.129
96327W        W62736  27.633   7.385   1.395
96328W        W62737  39.725  28.812  13.055
96329W        W62738  26.549   9.149  12.766
96330W        W62739  39.868  32.423  13.492
96331W        W62740  17.730  33.868  10.861
96332W        W62741  36.675  33.459   3.656
96333W        W62742  31.617  42.067  14.918
96334W        W62743  17.427  19.243  14.411
96335W        W62744  20.868   1.875  12.142
96336W        W62745  30.906  29.278  13.549
96337W        W62746  43.237  35.113   3.773
96338W        W62747  21.642  34.322  14.765
96339W        W62748   8.331  37.556   2.869
96340W        W62749  14.900  43.353  11.536
96341W        W62750  29.597  44.226   3.735
96342W        W62751  38.592   1.311   1.317
96343W        W62752   8.439   0.279  13.814
96344W        W62753  13.208  39.267  14.948
96345W        W62754  13.646  22.189   2.253
96346W        W62755  32.046  32.272   3.399
96347W        W62756  16.194  11.317  10.935
96348W        W62757  36.512   4.635   3.883
96349W        W62758  14.855  18.594   4.892
96350W        W62759  20.522  14.258  10.686
96351W        W62760  17.748  34.337   3.619
96352W        W62761  20.389  29.499  12.931
96353W        W62762  35.994  30.735  13.953
96354W        W62763  26.691   4.244  13.513
96355W        W62764  23.365   9.080   4.145
96356W        W62765  14.784   0.075   1.413
96357W        W62766  42.506  32.991  13.455
96358W        W62767  35.618   4.220   9.791
96359W        W62768   7.935  20.716   0.960
96360W        W62769  19.310  24.990  13.483
96361W        W62770  37.130  30.593  11.531
96362W        W62771   5.706  36.392  13.246
96363W        W62772  21.552  40.826  12.368
96364W        W62773  37.815  32.811   4.174
96365W        W62774  33.855  34.497   1.990
96366W        W62775  15.916  10.638   1.373
96367W        W62776   1.143   8.963  13.771
96368W        W62777  35.640   8.347  10.741
96369W        W62778  40.907  15.116   0.537
96370W        W62779  13.051  31.140  10.958
96371W        W62780  31.117  15.527   9.926
96372W        W62781   1.130  42.899  11.100
96373W        W62782  41.825   9.724  14.095
96374W        W62783  22.043  23.724  10.715
96375W        W62784   6.098  10.788  14.139
96376W        W62785   2.491  19.829  13.956
96377W        W62786  29.422  31.333   2.692
96378W        W62787  34.505  32.886   4.789
96379W        W62788  19.011   4.321  14.193
96380W        W62789  12.062  35.175   3.969
96381W        W62790  20.474  34.639   3.574
96382W        W62791   6.346  43.968   0.061
96383W        W62792  29.510  22.962  12.058
96384W        W62793   7.157  21.809  10.071
96385W        W62794  27.682   5.926   3.138
96386W        W62795   1.794  12.403   3.520
96387W        W62796  41.952  33.188  14.390
96388W        W62797   7.761  15.780   4.030
96389W        W62798  39.362  26.055  10.743
96390W        W62799  10.661   4.461   1.867
96391W        W62800   7.576  18.998   4.278
96392W        W62801   9.273  30.087   5.412
96393W        W62802  35.176  41.029   1.695
96394W        W62803  32.064   9.465   4.757
96395W        W62804  28.434  38.332  10.761
96396W        W62805  34.491  23.765   1.374
96397W        W62806  14.106  13.404  11.875
96398W        W62807  21.221  38.076  10.257
96399W        W62808   3.224  41.910   3.726
96400W        W62809  11.954   0.075   1.577
96401W        W62810  28.494  24.104   4.120
96402W        W62811  10.160  26.306   3.843
96403W        W62812  44.406  19.799  11.117
96404W        W62813   6.069  26.621   2.390
96405W        W62814   9.206   5.673   2.376
96406W        W62815  43.376  34.838  11.728
96407W        W62816  12.374  13.637  11.934
96408W        W62817  32.159  21.182   4.238
96409W        W62818  11.787  38.061   2.746
96410W        W62819  10.088  14.152  12.640
96411W        W62820  23.060  25.604  10.618
96412W        W62821  21.377  21.545   5.408
96413W        W62822   0.574   9.189   0.111
96414W        W62823  39.802  12.788  12.563
96415W        W62824  10.903  24.469   0.845
96416W        W62825   1.437  25.148  13.461
96417W        W62826  35.029   1.931  12.638
96418W        W62827  41.256   8.177  14.611
96419W        W62828  44.809   1.953   4.778
96420W        W62829  24.636  31.157   4.960
96421W        W62830   1.200  19.667   4.128
96422W        W62831  18.313   3.662   3.039
96423W        W62832  29.664  13.768  13.499
96424W        W62833  40.404  32.313  12.821
96425W        W62834  12.878   2.799  10.979
96426W        W62835  44.788  23.138  13.131
96427W        W62836   0.845  13.836  13.434
96428W        W62837   0.974  42.288   0.372
96429W        W62838   6.296   6.841  11.559
96430W        W62839   8.391  29.650   1.711
96431W        W62840  32.769  19.026  13.648
96432W        W62841  12.738  27.108   2.363
96433W        W62842  15.948  38.828   1.415
96434W        W62843  42.539  14.380  11.652
96435W        W62844   2.057  25.204  11.188
96436W        W62845  34.488  35.481  12.150
96437W        W62846  29.519  28.488   3.333
96438W        W62847  10.726  12.200  12.545
96439W        W62848  13.286  11.628   0.362
96440W        W62849   2.596  16.489   3.388
96441W        W62850  43.014  21.750   0.240
96442W        W62851  40.000  28.423   1.678
96443W        W62852  29.113   6.756   0.543
96444W        W62853  17.377  35.816   4.911
96445W        W62854  13.374   6.850   1.257
96446W        W62855  40.094  20.222  14.037
96447W        W62856  33.076  37.578  13.930
96448W        W62857  40.822  10.273  14.981
96449W        W62858  29.945  29.513  14.878
96450W        W62859  40.512  13.109  12.596
96451W        W62860  39.484  18.583   3.168
96452W        W62861  31.323  36.485   2.864
96453W        W62862   4.723  35.160  14.972
96454W        W62863   8.697   3.887  13.031
96455W        W62864  15.249  35.530   0.050
96456W        W62865  37.837  23.711   3.541
96457W        W62866   1.714   9.769   4.123
96458W        W62867  29.585   6.640  12.076
96459W        W62868  43.418  14.128   5.057
96460W        W62869  18.550  14.280   4.109
96461W        W62870  20.131  32.398  13.008
96462W        W62871  15.701   2.386   3.409
96463W        W62872  25.276   7.102   3.273
96464W        W62873  23.187  24.958  14.785
96465W        W62874  37.917  18.316  14.437
96466W        W62875  28.050  33.013  14.520
96467W        W62876  17.307  18.722  10.907
96468W        W62877  43.932  29.266   1.273
96469W        W62878   4.482  18.807  14.868
96470W        W62879  41.459  12.664   1.290
96471W        W62880  28.502   7.681   3.247
96472W        W62881  26.419  34.671   0.850
96473W        W62882  17.704  17.590   2.636
96474W        W62883  31.659  43.898  14.807
96475W        W62884  11.967  18.785  14.003
96476W        W62885   8.900  11.070  14.312
96477W        W62886  22.635  22.079  10.533
96478W        W62887  24.699  13.110  13.334
96479W        W62888  28.901   7.132  14.771
96480W        W62889  12.474   2.411  12.214
96481W        W62890   8.125  42.479  12.488
96482W        W62891   5.160  44.771   4.517
96483W        W62892  34.370  20.465  13.830
96484W        W62893  30.380   6.209  10.943
96485W        W62894  22.366  35.522  13.748
96486W        W62895  38.127  36.193  14.452
96487W        W62896  21.025  35.411  13.429
96488W        W62897  15.157  39.032  12.628
96489W        W62898  13.580  36.950  12.851
96490W        W62899  38.626  31.998  14.050
96491W        W62900  28.893  21.066   4.898
96492W        W62901   3.857  41.258  13.794
96493W        W62902   3.461  24.491   0.944
96494W        W62903  13.211  13.073   4.163
96495W        W62904  18.800  22.406  13.808
96496W        W62905  31.458  12.589   2.196
96497W        W62906  36.027  33.578   4.133
96498W        W62907   4.896  38.288   1.653
96499W        W62908  10.120  11.157   0.467
96500W        W62909  39.499  10.365   2.675
96501W        W62910   8.266  32.888  14.756
96502W        W62911  31.591  30.425  12.162
96503W        W62912  43.313  17.070   2.306
96504W        W62913  37.830  31.046  13.497
96505W        W62914  39.526  13.534  10.782
96506W        W62915  36.665  42.752   0.128
96507W        W62916  38.291   9.230  14.918
96508W        W62917  39.195   4.198  11.047
96509W        W62918   1.693  29.989   1.637
96510W        W62919  11.558   9.919   3.103
96511W        W62920  34.943  32.140  13.806
96512W        W62921  27.770  25.353  13.419
96513W        W62922  38.988   3.468   2.706
96514W        W62923  37.051  27.014   2.621
96515W        W62924  44.242   5.740   0.159
96516W        W62925  18.718  41.370  12.061
96517W        W62926   6.891  20.081  11.296
96518W        W62927  29.142  26.701   0.682
96519W        W62928   1.855  21.095   2.202
96520W        W62929  25.985   3.739   2.317
96521W        W62930  28.244  23.957   4.548
96522W        W62931  22.203   0.196  14.912
96523W        W62932  12.719   6.323   4.833
96524W        W62933  25.118  23.522   1.266
96525W        W62934  33.404  41.565  12.534
96526W        W62935  13.132   2.864  12.468
96527W        W62936   7.730  39.336  10.393
96528W        W62937  38.468   2.730   4.702
96529W        W62938  14.035  25.434  14.065
96530W        W62939  13.790  34.485  13.826
96531W        W62940  35.224   8.311  12.301
96532W        W62941  19.091  42.058   0.669
96533W        W62942   5.656  13.227  14.690
96534W        W62943  31.603  41.917   3.654
96535W        W62944  44.966  34.795  14.212
96536W        W62945  23.261   3.262   2.205
96537W        W62946  12.763   9.232   3.086
96538W        W62947  16.143   7.835  11.502
96539W        W62948  40.664   8.618  12.618
96540W        W62949   7.288  20.083   0.436
96541W        W62950  29.926  18.715  11.669
96542W        W62951  28.707  40.917   0.862
96543W        W62952  19.530   4.734   4.218
96544W        W62953  11.137  35.634  10.795
96545W        W62954  14.871  20.314  10.928
96546W        W62955  40.688   7.990  11.616
96547W        W62956  42.898  25.143  14.828
96548W        W62957  13.643  44.389   3.614
96549W        W62958   0.045  22.701  12.423
96550W        W62959  38.536  33.819   3.124
96551W        W62960   8.065  39.723   0.494
96552W        W62961   8.092  31.982   1.362
96553W        W62962   1.698   9.737   0.108
96554W        W62963   9.763   8.345   3.242
96555W        W62964  30.933  42.219   1.494
96556W        W62965  17.586  32.511  12.405
96557W        W62966   8.592  32.149   3.629
96558W        W62967  27.588   7.810  14.604
96559W        W62968   2.292  36.342   4.659
96560W        W62969  22.483   3.436   2.966
96561W        W62970  34.440  26.734   2.873
96562W        W62971  24.637  15.013   1.635
96563W        W62972  17.729  39.845   0.456
96564W        W62973  12.513  34.809   1.476
96565W        W62974  34.664  31.382  13.878
96566W        W62975  36.624  33.957  10.586
96567W        W62976  29.005  11.916   1.335
96568W        W62977  34.660  38.539   4.368
96569W        W62978  26.147  28.946   3.332
96570W        W62979  33.621  34.279   2.418
96571W        W62980  31.501  38.082  14.488
96572W        W62981   3.675  17.569   2.241
96573W        W62982  12.038  26.264   1.419
96574W        W62983  18.605  41.985  11.386
96575W        W62984  27.238   7.084   4.456
96576W        W62985  12.833  20.468   0.967
96577W        W62986  24.416  34.030   4.552
96578W        W62987  41.014  24.557  14.554
96579W        W62988   0.761  38.989   4.519
96580W        W62989   4.446  44.862  14.047
96581W        W62990   0.517  34.598   1.787
96582W        W62991  31.075  27.106   3.672
96583W        W62992  28.917   4.527  11.722
96584W        W62993  41.084  14.845   3.567
96585W        W62994  24.702  43.085  11.088
96586W        W62995  29.957  24.908  10.883
96587W        W62996  26.855  40.515   3.283
96588W        W62997  23.022  33.465  12.504
96589W        W62998  22.587  14.081   0.785
96590W        W62999   4.293  32.427   0.318
96591W        W63000  29.504  30.567   1.953
96592W        W63001   3.948  29.581  13.453
96593W        W63002   2.818  43.284   3.619
96594W        W63003  25.079   0.499  14.658
96595W        W63004  26.555  10.752   0.624
96596W        W63005  32.908  28.923   1.793
96597W        W63006  35.816  34.848  11.105
96598W        W63007  43.305  21.876   3.682
96599W        W63008  41.023  18.572  11.129
96600W        W63009   1.245  27.844  12.592
96601W        W63010  28.151  16.852  13.880
96602W        W63011  22.614   1.612   5.056
96603W        W63012  15.605  33.153  11.023
96604W        W63013  25.953  28.630  13.869
96605W        W63014  23.070   4.108   4.873
96606W        W63015  12.887  17.014   4.232
96607W        W63016  40.035  12.576   1.759
96608W        W63017  18.538  20.053  14.392
96609W        W63018  18.603  42.469  10.725
96610W        W63019  14.482  31.649  11.139
96611W        W63020  31.454   4.376  14.342
96612W        W63021  41.600  10.639  14.741
96613W        W63022  39.910   0.841   4.576
96614W        W63023   7.255  32.851  14.003
96615W        W63024   0.341  11.578  10.730
96616W        W63025  21.204  22.935  10.541
96617W        W63026  40.442  32.965  12.055
96618W        W63027  36.936  43.032  12.952
96619W        W63028  12.245  33.825  12.011
96620W        W63029  27.185  15.303   0.236
96621W        W63030  15.842  27.523   9.887
96622W        W63031  25.143  44.894   0.360
96623W        W63032   3.761  24.909  12.002
96624W        W63033  36.527  37.555  11.962
96625W        W63034  26.585  22.699   2.829
96626W        W63035  22.700   1.464  10.431
96627W        W63036  40.330  32.114  13.471
96628W        W63037  26.977  24.242   0.209
96629W        W63038   0.731  35.365  11.552
96630W        W63039  30.076   9.864   1.441
96631W        W63040  12.749  22.237   2.758
96632W        W63041   0.578   0.691  12.947
96633W        W63042  29.909  15.459  10.803
96634W        W63043   4.098  10.259  14.528
96635W        W63044  28.748  35.690   2.218
96636W        W63045   8.816  10.183  10.144
96637W        W63046  25.478   8.691  13.068
96638W        W63047   4.146  32.476   2.672
96639W        W63048  28.270   6.742  10.642
96640W        W63049  32.985  11.267   1.493
96641W        W63050   2.290  25.426   3.844
96642W        W63051   1.279   1.354  12.788
96643W        W63052  26.215  42.741  14.961
96644W        W63053  14.307  11.360  13.473
96645W        W63054  24.742  28.892   3.435
96646W        W63055  30.535  27.839  14.037
96647W        W63056  21.801   6.064   1.774
96648W        W63057   4.827  28.087  11.111
96649W        W63058   4.896  15.243   1.755
96650W        W63059  23.984  25.477   4.132
96651W        W63060  38.320  33.678  11.984
96652W        W63061  44.673  40.448  12.308
96653W        W63062   9.849  12.305  13.471
96654W        W63063   9.136  29.566   3.618
96655W        W63064  11.653  10.934   2.883
96656W        W63065  41.552  24.068   3.908
96657W        W63066  30.347  34.543  11.167
96658W        W63067  32.623  19.265   0.826
96659W        W63068  41.085   3.518  10.754
96660W        W63069  21.538  43.817   0.319
96661W        W63070  35.091  15.040  10.521
96662W        W63071  11.259  41.252  11.826
96663W        W63072  34.133  17.675  12.038
96664W        W63073  20.769  22.727  14.526
96665W        W63074  27.488  25.992  11.201
96666W        W63075  14.568   7.607  14.469
96667W        W63076  33.600   2.790  12.598
96668W        W63077   7.431  37.446  10.602
96669W        W63078  26.492  25.816   3.107
96670W        W63079   9.858  44.714   0.020
96671W        W63080  28.157  21.663  14.815
96672W        W63081   3.489  23.437   3.046
96673W        W63082  28.211  27.088  13.201
96674W        W63083  10.571  41.387   1.865
96675W        W63084  25.224  24.593  14.044
96676W        W63085  27.168  23.340  10.288
96677W        W63086  31.494  18.312   4.768
96678W        W63087  31.109  40.357   1.151
96679W        W63088   2.920   9.138   3.351
96680W        W63089  11.867  21.943   1.209
96681W        W63090  37.469  12.101  12.887
96682W        W63091  16.204  21.222   2.589
96683W        W63092  16.862  23.617  11.248
96684W        W63093  41.874  32.629   0.451
96685W        W63094  43.033  12.200   2.895
96686W        W63095  23.493  41.312  13.421
96687W        W63096  25.318  18.876  10.138
96688W        W63097  32.423  22.907  13.493
96689W        W63098  30.512  35.053  11.703
96690W        W63099   6.677   0.020   2.385
96691W        W63100   3.735  44.341   4.894
96692W        W63101   6.597  38.813   3.634
96693W        W63102  43.537   2.866  13.791
96694W        W63103   0.567  15.247   4.545
96695W        W63104   3.384   1.211  12.128
96696W        W63105  41.441  34.191  14.834
96697W        W63106   4.689  37.882   5.157
96698W        W63107  28.025  18.747   1.644
96699W        W63108   4.667  20.649   2.030
96700W        W63109  41.358   1.723  11.170
96701W        W63110   6.900  13.540  12.542
96702W        W63111  28.267  40.526   2.373
96703W        W63112  22.283   8.301  13.162
96704W        W63113  26.163  23.301   2.340
96705W        W63114  43.059  12.476   3.863
96706W        W63115  34.648  43.954  13.271
96707W        W63116   6.958  39.292  11.078
96708W        W63117   9.695  19.822  12.445
96709W        W63118  20.815  10.981   5.010
96710W        W63119  21.503   6.376   4.289
96711W        W63120   1.445  37.049   4.144
96712W        W63121  30.151   4.974  13.040
96713W        W63122  30.659   8.174   0.980
96714W        W63123  42.295  24.691   0.977
96715W        W63124  11.814  41.370   2.254
96716W        W63125  20.214  35.390   1.790
96717W        W63126   5.488   1.334   3.148
96718W        W63127   8.569  30.659  12.889
96719W        W63128  40.271  18.053   3.151
96720W        W63129   3.895  29.197  12.471
96721W        W63130  16.567  13.789   2.259
96722W        W63131  24.535  13.247  14.823
96723W        W63132  22.326  27.946  14.259
96724W        W63133  30.254  19.612   3.314
96725W        W63134  31.623  16.292  10.938
96726W        W63135   7.193   6.774  14.031
96727W        W63136  21.234  10.343  11.506
96728W        W63137  20.596  32.127  12.046
96729W        W63138  37.177  32.070   0.664
96730W        W63139  14.071   5.925  14.523
96731W        W63140  20.267  36.417   3.650
96732W        W63141   4.773  40.276   1.758
96733W        W63142  25.136  23.747  10.475
96734W        W63143  16.027  30.511  13.851
96735W        W63144  37.526  24.575   3.907
96736W        W63145  19.163  43.023   4.958
96737W        W63146  10.035  33.824   2.749
96738W        W63147  35.312   6.951   1.880
96739W        W63148   1.737  26.446   0.185
96740W        W63149  29.560  14.314   3.696
96741W        W63150  27.469  37.101   0.306
96742W        W63151  21.163  11.826   5.152
96743W        W63152  35.651  18.527  12.033
96744W        W63153  19.609  16.246   1.254
96745W        W63154  29.706  34.903   4.773
96746W        W63155  14.626  33.663   2.816
96747W        W63156  35.919  17.677   0.889
96748W        W63157  24.442  12.686   3.208
96749W        W63158  17.245  16.466  14.046
96750W        W63159  13.138  20.703  12.031
96751W        W63160   2.779  18.641   0.407
96752W        W63161  12.370  18.979   1.514
96753W        W63162  11.258  16.042  12.520
96754W        W63163  22.110  13.685   1.977
96755W        W63164  24.676   7.291  10.405
96756W        W63165  44.599  41.031  11.137
96757W        W63166  26.108  19.721   2.965
96758W        W63167  28.186  36.864   1.235
96759W        W63168  22.912  44.849  13.700
96760W        W63169  20.503  42.280   2.336
96761W        W63170  10.912   8.254  11.944
96762W        W63171  28.663   1.420   3.237
96763W        W63172  31.812  18.224   1.723
96764W        W63173  38.293  19.198   1.035
96765W        W63174   9.197  43.774  13.300
96766W        W63175  29.197  19.092   3.293
96767W        W63176   1.424  25.208   3.396
96768W        W63177  25.738  27.913  11.921
96769W        W63178  19.469  33.214  14.185
96770W        W63179  34.130  37.444   4.737
96771W        W63180  27.343  28.540   3.315
96772W        W63181   1.376  27.684  10.736
96773W        W63182  34.376  33.366   1.936
96774W        W63183  32.074  23.252   4.195
96775W        W63184  25.947  19.232   0.286
96776W        W63185   7.315  22.766   3.799
96777W        W63186   8.032  16.118   3.118
96778W        W63187  16.845  32.961   1.818
96779W        W63188   4.386  10.786   4.399
96780W        W63189  38.085  34.533  13.264
96781W        W63190  35.480  13.604  14.371
96782W        W63191  21.099   3.971   2.579
96783W        W63192  40.403   6.731   3.728
96784W        W63193  31.608  30.718  11.751
96785W        W63194  12.796  12.413   0.716
96786W        W63195  11.858   2.652  14.994
96787W        W63196  19.800   3.868  12.628
96788W        W63197  40.502  43.890  13.164
96789W        W63198   9.700  10.141  14.485
96790W        W63199  40.905  26.623   4.636
96791W        W63200  40.467  17.600  14.776
96792W        W63201  34.293   1.285   0.211
96793W        W63202  30.254  44.228   0.064
96794W        W63203  22.481  15.306  12.412
96795W        W63204   9.223  30.043  14.403
96796W        W63205  17.248  33.945  12.597
96797W        W63206  38.560  20.540  14.781
96798W        W63207  43.801  18.148   4.697
96799W        W63208  27.886  36.377   0.553
96800W        W63209  41.683  15.550  11.285
96801W        W63210   1.304  25.696   0.416
96802W        W63211  44.220   0.232  13.456
96803W        W63212   8.554  35.434   4.141
96804W        W63213  25.828  39.953   3.224
96805W        W63214   7.060   1.818  10.762
96806W        W63215  21.610  12.319  14.040
96807W        W63216  28.481  33.060  14.228
96808W        W63217  39.473  19.926   3.854
96809W        W63218  34.285  28.314  12.610
96810W        W63219  11.924  38.106   0.892
96811W        W63220  27.365  41.870  11.049
96812W        W63221  37.321   8.321  14.307
96813W        W63222  16.530   7.741  13.081
96814W        W63223  27.229  44.389   4.194
96815W        W63224  29.773  40.506  11.138
96816W        W63225   6.189  29.078   3.099
96817W        W63226  21.032  12.389  13.292
96818W        W63227  18.706  42.135  12.953
96819W        W63228  15.220  37.743   1.288
96820W        W63229  17.792  41.411  10.862
96821W        W63230  20.627  22.230  14.536
96822W        W63231  37.422  12.278  10.624
96823W        W63232  23.774  23.954   3.692
96824W        W63233   2.521  38.836  13.917
96825W        W63234  11.503  35.296  13.586
96826W        W63235  42.836  44.272   4.566
96827W        W63236   4.434  38.878   4.186
96828W        W63237  28.194  26.181  12.891
96829W        W63238  39.342  32.812  11.938
96830W        W63239  42.978  40.674   2.703
96831W        W63240  26.714  16.658   1.331
96832W        W63241  41.350  20.662   0.342
96833W        W63242  22.557  38.070  13.107
96834W        W63243  11.794  15.636  14.988
96835W        W63244  19.012  15.855  13.460
96836W        W63245   5.887  39.959   2.252
96837W        W63246  37.774  11.233   2.348
96838W        W63247  13.654  12.659  12.329
96839W        W63248  11.876   7.344   0.827
96840W        W63249  36.438  25.448  14.484
96841W        W63250  27.457  35.377  13.018
96842W        W63251  31.611   7.407   3.158
96843W        W63252   3.513   2.851  13.133
96844W        W63253  19.715  38.549  11.791
96845W        W63254  23.110  12.681   4.426
96846W        W63255   1.408  16.153   1.962
96847W        W63256  43.366  40.908  14.428
96848W        W63257  33.069   9.186  11.632
96849W        W63258  35.992  37.894   1.910
96850W        W63259  42.556  27.208  13.468
96851W        W63260  36.972  30.455   1.122
96852W        W63261  44.684   6.525   3.443
96853W        W63262   5.752  30.488  11.121
96854W        W63263  10.717  21.371  13.453
96855W        W63264  21.557  22.386  14.987
96856W        W63265  23.552  21.020  11.477
96857W        W63266   2.888  26.552  11.234
96858W        W63267  44.755  33.959   1.371
96859W        W63268   9.288  37.877   1.479
96860W        W63269  16.562  30.378   4.380
96861W        W63270  42.899  17.797  11.160
96862W        W63271  44.721  21.080  13.480
96863W        W63272  17.739  32.735   0.290
96864W        W63273  30.982  24.451   1.844
96865W        W63274  30.528  31.265   4.685
96866W        W63275  39.636   4.090  13.565
96867W        W63276   0.659   8.565   3.197
96868W        W63277   7.801  18.766   4.682
96869W        W63278  24.495  19.619  13.024
96870W        W63279  24.782  42.067  11.178
96871W        W63280  33.987  33.166  14.029
96872W        W63281  18.474  39.428  14.482
96873W        W63282   3.874  38.567  13.495
96874W        W63283  23.052   5.942   0.683
96875W        W63284   8.820  42.268   2.405
96876W        W63285  21.128  28.726  13.178
96877W        W63286   3.171  27.099  13.562
96878W        W63287  34.139  39.404  11.952
96879W        W63288  19.682   2.767   3.807
96880W        W63289  22.228  13.159   0.907
96881W        W63290  24.064  13.651  12.889
96882W        W63291  39.078  42.246   2.830
96883W        W63292  26.774   0.045   1.430
96884W        W63293  35.922  22.845   2.574
96885W        W63294  44.046  40.636   0.428
96886W        W63295  32.638  39.154   1.791
96887W        W63296  14.375  26.961  10.183
96888W        W63297  42.808  12.129   1.929
96889W        W63298   4.308  25.669  12.191
96890W        W63299  21.500  28.664  11.917
96891W        W63300  24.195  34.995   2.401
96892W        W63301  10.905  27.944   3.310
96893W        W63302   7.184   9.360  10.621
96894W        W63303  33.803   8.831   0.739
96895W        W63304  41.146  40.961  10.474
96896W        W63305   8.693  24.503   2.814
96897W        W63306  25.542  31.622  13.802
96898W        W63307   7.812   7.026   3.222
96899W        W63308  40.354  14.615   0.729
96900W        W63309   5.781   2.495  14.253
96901W        W63310  35.338  38.167  11.735
96902W        W63311  13.279   1.260   3.647
96903W        W63312   9.633  34.635   3.394
96904W        W63313  24.659  32.887   2.871
96905W        W63314  12.628  30.064  14.020
96906W        W63315  18.189   7.852   2.629
96907W        W63316   6.068   4.430   1.395
96908W        W63317   3.007  42.066  14.921
96909W        W63318   5.736  24.634   0.942
96910W        W63319   6.477   3.492   1.988
96911W        W63320  11.570  13.181  12.211
96912W        W63321  10.787  41.467  12.833
96913W        W63322  12.175  21.051   1.350
96914W        W63323  13.786  30.572   0.717
96915W        W63324  30.623  14.635   2.341
96916W        W63325  44.314  15.228  10.673
96917W        W63326   6.879   5.211   3.117
96918W        W63327  41.999  26.166  13.983
96919W        W63328   1.962   2.858  14.722
96920W        W63329  18.220  23.626   3.637
96921W        W63330   0.784  43.016  14.984
96922W        W63331  26.356  26.137   4.025
96923W        W63332  33.375  41.981  13.521
96924W        W63333   5.428   9.872   1.178
96925W        W63334  31.659  31.914   1.378
96926W        W63335  13.194   9.029   0.505
96927W        W63336  28.680  29.585   2.755
96928W        W63337  30.554  36.578   4.454
96929W        W63338  29.989  39.217  14.777
96930W        W63339   0.700  41.799   2.406
96931W        W63340  13.217  20.287   4.804
96932W        W63341  17.286  24.130   3.688
96933W        W63342  40.549  41.489  13.450
96934W        W63343  32.473   1.508   2.059
96935W        W63344  30.440  12.837  13.871
96936W        W63345   9.955   3.952  14.812
96937W        W63346  33.087   2.929  11.745
96938W        W63347  32.653   9.836   0.572
96939W        W63348  12.962  25.653   1.912
96940W        W63349  25.420  43.312  13.594
96941W        W63350  32.412  44.531  10.995
96942W        W63351  35.393  33.971   3.688
96943W        W63352  44.953  11.410   3.564
96944W        W63353  18.763  12.245   1.376
96945W        W63354  26.892  26.731   3.504
96946W        W63355  19.155   9.248  12.345
96947W        W63356  41.963  30.682  12.960
96948W        W63357  20.602   7.952  12.499
96949W        W63358  39.080  33.108   1.569
96950W        W63359   7.838  22.810   1.342
96951W        W63360  19.260  17.668   3.657
96952W        W63361  16.413  34.891  11.507
96953W        W63362  19.237  35.479  14.786
96954W        W63363  21.048  40.883  14.269
96955W        W63364  42.774  13.666   2.451
96956W        W63365  25.660  22.257  14.422
96957W        W63366  35.840  14.844  11.253
96958W        W63367  33.837  43.002   3.180
96959W        W63368   7.183  20.998  11.982
96960W        W63369  40.538  19.958  14.075
96961W        W63370  10.092   5.427   3.261
96962W        W63371  11.241  29.417  12.077
96963W        W63372  41.483   3.559  14.337
96964W        W63373  25.753  28.307   2.322
96965W        W63374  17.244  42.455  13.968
96966W        W63375  15.531  39.770   1.759
96967W        W63376  30.604  18.378   3.790
96968W        W63377  31.102  20.622  14.800
96969W        W63378  44.717  28.081   3.726
96970W        W63379   9.457  15.049  12.002
96971W        W63380  31.808  43.477  13.424
96972W        W63381  40.923   4.891   4.549
96973W        W63382  23.167  30.936   4.820
96974W        W63383   7.380  10.592   4.717
96975W        W63384  36.451  36.579   3.609
96976W        W63385  14.825   0.248   3.662
96977W        W63386   8.751   5.374  12.799
96978W        W63387  10.698  20.234  13.424
96979W        W63388  31.932  19.774  13.264
96980W        W63389  30.450  34.526   2.691
96981W        W63390   8.709  16.544  12.360
96982W        W63391  11.272  16.495  12.238
96983W        W63392  29.152  27.234   2.796
96984W        W63393  37.548  26.754   2.375
96985W        W63394  32.058  31.961  10.681
96986W        W63395  38.844  14.710   5.199
96987W        W63396   6.088  18.562  14.329
96988W        W63397   0.003  28.599  14.508
96989W        W63398  19.216  41.066   1.632
96990W        W63399  26.515  33.635   0.692
96991W        W63400  15.146  17.233  11.853
96992W        W63401  23.008   8.154  11.191
96993W        W63402  24.090  44.788  10.483
96994W        W63403  43.190   3.406  12.448
96995W        W63404  15.030  43.940   4.140
96996W        W63405   2.835  11.650   1.221
96997W        W63406  19.232   8.892  11.556
96998W        W63407   9.462  41.260  14.898
96999W        W63408  22.878  31.583  13.033
97000W        W63409  12.297   2.406  14.871
97001W        W63410  36.109  29.148  11.297
97002W        W63411  21.539  35.835  14.894
97003W        W63412  22.733  17.207   4.054
97004W        W63413  37.977   0.687   0.493
97005W        W63414  25.675   2.135   1.257
97006W        W63415  15.824  29.675   3.746
97007W        W63416  16.387  17.592   3.230
97008W        W63417  30.134   4.159  14.039
97009W        W63418  15.662   1.789   0.545
97010W        W63419  12.722  27.029   3.845
97011W        W63420  10.370  32.459   1.027
97012W        W63421  20.135   2.976   3.665
97013W        W63422  32.976  25.863   2.379
97014W        W63423  29.224  37.072  14.972
97015W        W63424  13.482   4.627  10.805
97016W        W63425  20.614  29.873   0.384
97017W        W63426  36.628  37.853  12.420
97018W        W63427  39.603  26.614  13.037
97019W        W63428   4.797  25.786   3.199
97020W        W63429  37.787  25.227  11.155
97021W        W63430  43.127  16.287   2.090
97022W        W63431  44.813  41.733  12.526
97023W        W63432   7.882  28.910  12.895
97024W        W63433  29.009  29.577   1.498
97025W        W63434  10.817   0.322  12.267
97026W        W63435  40.054  30.440   1.726
97027W        W63436  34.528  19.499  11.150
97028W        W63437  10.713  33.789   3.189
97029W        W63438  42.450  29.117   4.122
97030W        W63439   2.825  15.824   0.367
97031W        W63440  30.151  17.137   2.924
97032W        W63441  36.795  33.026  14.355
97033W        W63442  33.443  11.386  14.271
97034W        W63443  16.775  21.633   3.040
97035W        W63444  23.408  43.424  12.146
97036W        W63445  30.618  43.023   3.298
97037W        W63446   2.185  31.963   2.714
97038W        W63447  34.323  22.233  14.672
97039W        W63448  12.321  32.117  10.543
97040W        W63449  38.934   4.776  10.002
97041W        W63450  38.242  24.766   0.721
97042W        W63451  10.245  37.503   0.226
97043W        W63452  19.049   2.977  13.554
97044W        W63453  39.084  16.616   1.283
97045W        W63454  27.666   3.701  12.888
97046W        W63455  17.508  25.137  13.799
97047W        W63456  19.783  39.393  13.042
97048W        W63457  38.628  23.729  10.751
97049W        W63458  30.323   1.171   1.279
97050W        W63459  28.754  13.595   2.935
97051W        W63460  12.597  14.450   3.137
97052W        W63461  40.899  30.878  13.821
97053W        W63462  40.421  28.643  11.285
97054W        W63463   2.970   5.362   3.063
97055W        W63464  35.408  16.515   4.562
97056W        W63465  29.669  19.765  12.431
97057W        W63466  12.858  29.867  14.474
97058W        W63467  26.490  38.423  14.473
97059W        W63468   1.181  39.786   4.146
97060W        W63469  26.833   9.457   2.705
97061W        W63470   1.762  33.580   3.131
97062W        W63471  18.726  33.492   0.877
97063W        W63472  11.074   6.477   2.574
97064W        W63473   1.341  25.533   1.843
97065W        W63474  23.725  17.791  10.327
97066W        W63475  24.728   4.189  11.448
97067W        W63476  16.086  14.357  11.662
97068W        W63477  16.548   0.919  11.959
97069W        W63478   9.319  30.539  12.668
97070W        W63479   9.186  26.204  13.486
97071W        W63480  38.599  11.994   0.817
97072W        W63481   8.458  28.229   1.773
97073W        W63482   7.222  19.452   1.374
97074W        W63483  16.221  25.628  14.866
97075W        W63484   4.997   9.795   1.495
97076W        W63485  26.251  43.504  12.149
97077W        W63486  33.043  38.102  10.822
97078W        W63487  43.815   9.317   2.244
97079W        W63488  11.231  42.417   4.375
97080W        W63489  39.144  25.190  13.422
97081W        W63490  20.180  44.409   9.920
97082W        W63491   0.838   9.163   2.759
97083W        W63492  32.574   4.927  14.403
97084W        W63493  22.968  22.960   4.936
97085W        W63494   6.250  11.684   3.822
97086W        W63495  26.511  34.495   2.768
97087W        W63496  34.271  28.993   2.295
97088W        W63497  13.150  26.076   2.751
97089W        W63498  19.630  10.087  11.576
97090W        W63499  41.507  28.187  13.846
97091W        W63500  19.015  14.386   3.377
97092W        W63501   2.647  31.198  14.073
97093W        W63502  20.075   9.858  14.224
97094W        W63503   2.862  18.123   0.392
97095W        W63504  39.360  17.149   2.609
97096W        W63505   3.818  12.389  13.907
97097W        W63506  41.285   6.815  11.201
97098W        W63507  25.101   4.196   1.963
97099W        W63508  30.570  31.899   0.815
97100W        W63509  40.911  29.682   2.926
97101W        W63510  21.540  14.170  14.872
97102W        W63511  39.631  41.534  11.557
97103W        W63512  15.307   0.952  11.804
97104W        W63513  22.784  12.318   4.571
97105W        W63514   2.019  14.096   3.346
97106W        W63515  13.282  33.994  12.793
97107W        W63516  43.065   2.678  13.928
97108W        W63517  39.528  15.501   5.119
97109W        W63518  10.555  23.193   1.211
97110W        W63519  31.774  25.514   4.859
97111W        W63520   7.928  31.322  13.330
97112W        W63521  41.628  29.165  10.972
97113W        W63522   0.402  42.903   3.822
97114W        W63523  14.321  43.009   2.193
97115W        W63524  29.038   3.442  14.066
97116W        W63525  22.233  13.415  14.037
97117W        W63526  15.777  36.990   2.459
97118W        W63527  26.598  13.072   2.607
97119W        W63528  25.231   9.640  14.571
97120W        W63529  30.691  40.130   1.959
97121W        W63530  22.021  10.812   1.442
97122W        W63531  44.075  30.010   1.772
97123W        W63532  21.986  31.167  13.897
97124W        W63533  22.557  23.993   2.255
97125W        W63534  39.542  40.669  13.934
97126W        W63535  22.669  33.087   3.868
97127W        W63536  43.425  12.963   2.790
97128W        W63537  29.488  28.109   4.090
97129W        W63538  34.170   4.002  10.654
97130W        W63539  14.220  41.278  13.783
97131W        W63540  27.794  29.761  14.486
97132W        W63541  10.224  15.123  14.880
97133W        W63542  38.398  22.680   4.868
97134W        W63543  41.807  39.800  13.314
97135W        W63544  11.114  28.398   0.587
97136W        W63545  24.737  31.009   2.372
97137W        W63546   1.530  12.763   2.698
97138W        W63547  12.391  24.746  11.386
97139W        W63548  20.637   1.915   0.907
97140W        W63549  20.293  31.592  14.522
97141W        W63550   2.954  27.019   0.670
97142W        W63551   5.246  32.062   3.306
97143W        W63552  27.782  24.268   1.822
97144W        W63553  35.922  37.720  12.685
97145W        W63554  29.620   8.380   3.269
97146W        W63555  38.812  17.511  13.417
97147W        W63556  41.885   7.146   0.002
97148W        W63557  41.246  34.842   3.913
97149W        W63558  31.027  20.046  12.507
97150W        W63559   2.850  34.511  14.162
97151W        W63560  36.064  35.270  14.522
97152W        W63561  17.219  31.783   3.779
97153W        W63562  42.165  41.642   3.195
97154W        W63563  38.004  18.718  12.137
97155W        W63564  26.874  13.903  14.469
97156W        W63565  31.874  10.495  14.462
97157W        W63566   7.455   7.396   0.260
97158W        W63567   3.421  44.812  14.158
97159W        W63568  19.980  27.078   1.797
97160W        W63569  17.554  17.327   2.215
97161W        W63570   0.798  41.807  13.534
97162W        W63571  36.035  38.393  11.198
97163W        W63572  21.725  14.653   1.077
97164W        W63573  44.759  35.248  11.665
97165W        W63574  13.912  33.368   3.348
97166W        W63575  44.850   7.180  13.195
97167W        W63576  25.444  23.700  14.471
97168W        W63577   8.357  41.210  11.220
97169W        W63578  18.292  32.991  11.508
97170W        W63579  11.870   2.278  11.631
97171W        W63580  14.827   1.525   5.816
97172W        W63581  35.570  36.755   1.366
97173W        W63582   2.414  30.042   2.377
97174W        W63583  30.804  19.853  11.548
97175W        W63584   7.247  34.049  12.855
97176W        W63585  12.078  41.444   2.685
97177W        W63586  19.840  20.584  10.651
97178W        W63587  37.708  29.520   3.533
97179W        W63588  40.430  41.745  12.452
97180W        W63589   4.301  43.809  13.122
97181W        W63590  38.495  16.572   2.453
97182W        W63591  14.646  16.831   1.439
97183W        W63592  17.570  28.755   0.018
97184W        W63593  17.542  33.818   0.902
97185W        W63594  29.672  36.618   4.035
97186W        W63595  17.737  32.092  10.742
97187W        W63596  37.728  41.322   1.268
97188W        W63597  41.822  29.671   0.468
97189W        W63598  40.012  36.479   0.248
97190W        W63599  12.082  12.808   1.801
97191W        W63600  27.941  30.851  10.692
97192W        W63601   6.383  14.719   0.408
97193W        W63602  24.130  43.317  11.880
97194W        W63603  21.691  44.673   2.727
97195W        W63604  37.086  40.296   1.810
97196W        W63605  25.174  16.732  13.798
97197W        W63606  44.090  14.302   1.757
97198W        W63607  18.026  13.115  11.130
97199W        W63608  18.537  30.576  10.255
97200W        W63609   4.331  11.414   0.348
97201W        W63610  44.282  24.237  12.465
97202W        W63611   9.956  30.769   3.845
97203W        W63612  30.089  19.265  13.531
97204W        W63613  22.135  12.387  11.547
97205W        W63614   7.201  21.111  14.927
97206W        W63615  34.081  33.341   0.312
97207W        W63616   5.557  27.640   0.900
97208W        W63617  35.032  36.472   3.234
97209W        W63618  10.831  17.105  14.305
97210W        W63619  33.657  39.816  14.911
97211W        W63620   1.599   1.920   0.519
97212W        W63621  22.469  40.118  13.252
97213W        W63622  42.303  29.563   3.320
97214W        W63623  30.884  41.281   3.695
97215W        W63624  42.536   2.745   0.359
97216W        W63625  39.447  22.526   4.795
97217W        W63626  30.998  21.832   3.706
97218W        W63627  34.592   7.968   2.089
97219W        W63628   8.380  37.946   4.567
97220W        W63629  42.370  29.605  14.761
97221W        W63630  30.466  20.101   1.794
97222W        W63631   1.896  16.792   4.543
97223W        W63632  20.294  17.597  11.979
97224W        W63633  18.539  22.060  14.639
97225W        W63634  21.682  43.426  14.116
97226W        W63635  19.660   0.900   0.886
97227W        W63636  27.643   6.330  10.092
97228W        W63637  17.551   2.857  12.394
97229W        W63638  30.078   6.165   0.779
97230W        W63639  41.085   7.925   1.854
97231W        W63640  36.899  36.604   4.732
97232W        W63641   0.477  37.380  14.951
97233W        W63642   8.262  43.007  13.447
97234W        W63643  11.866   4.259   2.251
97235W        W63644  23.731  41.446  13.883
97236W        W63645   8.762   4.553  12.347
97237W        W63646  37.891  19.542   1.973
97238W        W63647  23.400  11.279   4.566
97239W        W63648  17.625  23.756   1.895
97240W        W63649  44.788  23.146   2.415
97241W        W63650  44.981  34.387   3.106
97242W        W63651   3.905  25.189   3.322
97243W        W63652  36.048  20.612  12.247
97244W        W63653  11.858   3.481  13.572
97245W        W63654   1.233  16.647   1.824
97246W        W63655  42.270   2.022   4.225
97247W        W63656  15.902  27.479  10.971
97248W        W63657  18.717  13.211  12.129
97249W        W63658   1.815  33.776  13.191
97250W        W63659  28.940  39.464   2.809
97251W        W63660  40.312  23.679  14.981
97252W        W63661  19.711   3.297   1.773
97253W        W63662  43.699  26.959  11.979
97254W        W63663  30.604   3.165   1.439
97255W        W63664  21.010  43.473  12.914
97256W        W63665  20.208   6.850  10.477
97257W        W63666   0.083  12.476   4.752
97258W        W63667  10.714   2.853   1.427
97259W        W63668   9.175  11.286  13.789
97260W        W63669  31.390   7.950   0.438
97261W        W63670  12.563   1.312   2.260
97262W        W63671  26.407  38.220   1.394
97263W        W63672  37.175   5.773  13.506
97264W        W63673  40.075   5.544   1.251
97265W        W63674   7.198   7.587   1.679
97266W        W63675  19.644  32.823   2.286
97267W        W63676  38.324   1.812   1.428
97268W        W63677  15.154  42.116  11.544
97269W        W63678  22.601  16.385  10.726
97270W        W63679   9.438  26.008   2.696
97271W        W63680  35.904  26.409  12.910
97272W        W63681  13.775  36.902   0.279
97273W        W63682  14.611   6.673   2.567
97274W        W63683   6.775  28.622  14.370
97275W        W63684  35.975  44.106   0.348
97276W        W63685  12.680   8.244   3.815
97277W        W63686  31.104  44.088   1.992
97278W        W63687  28.061  24.053   2.361
97279W        W63688  37.377   8.780   0.053
97280W        W63689  23.273   2.513   2.618
97281W        W63690  31.348  26.071  11.171
97282W        W63691   1.956  37.840   2.827
97283W        W63692  32.631  41.889  11.034
97284W        W63693  31.060  11.946  12.011
97285W        W63694   6.795  15.237  11.828
97286W        W63695  23.790  17.561  13.079
97287W        W63696  33.355  33.997   3.866
97288W        W63697   0.268  15.105   4.152
97289W        W63698  24.394  32.100   1.473
97290W        W63699  43.214  15.238  13.494
97291W        W63700  19.547  27.192  11.146
97292W        W63701  34.920  26.193  13.264
97293W        W63702   8.006  23.490  13.767
97294W        W63703  20.201  36.125   4.761
97295W        W63704  17.497   4.600  14.999
97296W        W63705  30.583  43.884  14.740
97297W        W63706   4.929   0.389   1.486
97298W        W63707  15.582   5.758  12.013
97299W        W63708  24.561  22.553  13.913
97300W        W63709   7.999  30.157  11.095
97301W        W63710  40.312  26.109   0.521
97302W        W63711  14.204  18.568   2.463
97303W        W63712  17.275  32.862   2.763
97304W        W63713  24.398  35.415   1.636
97305W        W63714   7.982  33.167   0.111
97306W        W63715  27.632  15.822   3.634
97307W        W63716  12.650  36.505  11.896
97308W        W63717  30.940   6.172  14.346
97309W        W63718   0.816  18.593   4.120
97310W        W63719  11.116   9.552  11.882
97311W        W63720  37.044  10.298   0.891
97312W        W63721  13.786   2.389   3.968
97313W        W63722  30.214   0.982  13.847
97314W        W63723  13.365  19.798  14.468
97315W        W63724  10.862  40.064  12.992
97316W        W63725  17.981  13.212  12.677
97317W        W63726  34.335  39.337   2.366
97318W        W63727  37.162  16.732   1.817
97319W        W63728   6.437   3.938  12.846
97320W        W63729  29.909  22.506   0.881
97321W        W63730  24.247  28.707  11.599
97322W        W63731  26.018  40.298  14.917
97323W        W63732  41.135   0.226  12.417
97324W        W63733  16.043   0.351  10.623
97325W        W63734   7.489  40.783  13.317
97326W        W63735  21.965  17.648   1.830
97327W        W63736  32.903  41.818   4.537
97328W        W63737  18.370  14.826  13.374
97329W        W63738  40.646  38.981  10.747
97330W        W63739  43.507  31.461   4.366
97331W        W63740  19.617  29.875   4.299
97332W        W63741  31.114  11.733   4.377
97333W        W63742  42.987   4.986   3.687
97334W        W63743  36.075  15.831  11.514
97335W        W63744  31.374  21.768   1.694
97336W        W63745  23.661  29.130  12.432
97337W        W63746   9.729  39.763  11.376
97338W        W63747  12.551  29.037  14.762
97339W        W63748   0.414  32.530  14.347
97340W        W63749  22.154  24.208  11.967
97341W        W63750  44.721  20.469  10.637
97342W        W63751  24.102  22.969   3.789
97343W        W63752  27.774  31.053   0.242
97344W        W63753  43.340  28.120  14.774
97345W        W63754  37.832  11.484   3.716
97346W        W63755   6.797  30.488   1.657
97347W        W63756  36.068  33.005   0.183
97348W        W63757   7.439   1.587   4.368
97349W        W63758   8.453  19.097   1.941
97350W        W63759  30.172  16.142   0.228
97351W        W63760  11.420  36.710  11.378
97352W        W63761  27.208  19.206   1.257
97353W        W63762  22.544  44.478  10.731
97354W        W63763  21.988  34.908   1.438
97355W        W63764   9.677  20.502   2.849
97356W        W63765  22.690  11.892  13.588
97357W        W63766  21.682   1.344  13.912
97358W        W63767  16.971  24.614   1.425
97359W        W63768   7.691  23.586   0.389
97360W        W63769   5.233  27.254   3.761
97361W        W63770  14.110   0.339   1.388
97362W        W63771  38.455  18.005  11.863
97363W        W63772   4.718  21.135   4.948
97364W        W63773  23.799  22.149   1.179
97365W        W63774  26.284  18.262   3.794
97366W        W63775  35.906  43.048   0.494
97367W        W63776  33.058  10.994   3.292
97368W        W63777  35.023   4.471   3.697
97369W        W63778  29.951   6.940  13.534
97370W        W63779  38.056   4.997  14.756
97371W        W63780  18.848  14.131  12.088
97372W        W63781   1.541   0.428   2.790
97373W        W63782  32.646  37.282  14.074
97374W        W63783  29.526  41.990   3.224
97375W        W63784   1.360  31.642  13.469
97376W        W63785  11.414  36.496   2.890
97377W        W63786  10.574  26.775  13.449
97378W        W63787  20.811  22.144   1.753
97379W        W63788   2.027  24.877   1.803
97380W        W63789  42.370  34.037   4.716
97381W        W63790  41.542  31.416   0.729
97382W        W63791  32.300   2.008   1.928
97383W        W63792   3.929   5.935   2.389
97384W        W63793  25.066  39.349  10.647
97385W        W63794   2.251  16.933  11.675
97386W        W63795  24.471   4.223   0.234
97387W        W63796  42.074  21.745   2.933
97388W        W63797  21.085  25.664   2.154
97389W        W63798  44.641  18.126  10.739
97390W        W63799   8.315  42.534  10.708
97391W        W63800  43.583  40.469  12.048
97392W        W63801   4.940  23.063  12.558
97393W        W63802  29.464  40.449  13.522
97394W        W63803  37.842  36.130  11.806
97395W        W63804   7.594  30.509  11.158
97396W        W63805   6.297  18.396   3.694
97397W        W63806  27.923  41.908  11.837
97398W        W63807  13.364  13.743   3.640
97399W        W63808  25.634  42.269   3.634
97400W        W63809  20.026   8.787   2.024
97401W        W63810  27.145  39.455   4.445
97402W        W63811  20.113   3.301   4.892
97403W        W63812  42.278   6.915  12.503
97404W        W63813   4.361   2.816  11.105
97405W        W63814  42.487  27.550   2.032
97406W        W63815  21.800   5.911  11.960
97407W        W63816  20.946  35.726   3.254
97408W        W63817  26.770  36.399  14.946
97409W        W63818   9.194  16.218   1.906
97410W        W63819   3.188  15.175  13.346
97411W        W63820  14.405  42.986  10.974
97412W        W63821  33.655  17.685  12.200
97413W        W63822  15.408  25.704   2.310
97414W        W63823  37.627   9.961   9.978
97415W        W63824  43.653  34.831  12.357
97416W        W63825  32.571  26.686  14.734
97417W        W63826  30.453   5.858   0.946
97418W        W63827  30.002   7.237   4.833
97419W        W63828   2.417  33.642  13.436
97420W        W63829  10.165  41.603   2.818
97421W        W63830   9.433  31.877   0.074
97422W        W63831  30.414  27.361  13.304
97423W        W63832  35.452  33.729  12.575
97424W        W63833   7.838  37.181  13.307
97425W        W63834   7.778  44.244   0.178
97426W        W63835  34.400   0.070  10.387
97427W        W63836  12.689  42.970   4.614
97428W        W63837  12.827   0.394   3.730
97429W        W63838  12.290   0.410   1.820
97430W        W63839  26.909  11.077  13.812
97431W        W63840  35.261   2.737   4.285
97432W        W63841   8.939  30.929  12.567
97433W        W63842   0.811  22.731   0.891
97434W        W63843   0.286  35.509  14.207
97435W        W63844  17.280  38.373   2.846
97436W        W63845  39.437  33.344   4.683
97437W        W63846   2.350   5.414   1.718
97438W        W63847   5.904  39.539  14.964
97439W        W63848  34.603  28.606   2.224
97440W        W63849  32.489  11.612  12.999
97441W        W63850   0.496  27.570   1.999
97442W        W63851  29.817   1.789  12.790
97443W        W63852  37.350  12.171   4.134
97444W        W63853   1.210  23.427  13.990
97445W        W63854  12.111  16.718  11.145
97446W        W63855  20.591  32.114   2.949
97447W        W63856  35.879  14.605  10.804
97448W        W63857  28.198   9.750  14.766
97449W        W63858  16.604  18.100  14.296
97450W        W63859  15.085  40.563   0.633
97451W        W63860   1.902  39.588  14.603
97452W        W63861  10.266   0.556  14.889
97453W        W63862  28.107  23.283  10.222
97454W        W63863   5.392   5.480  10.644
97455W        W63864  38.358  27.470  12.035
97456W        W63865  38.363  28.640  14.095
97457W        W63866  33.383  34.590  13.092
97458W        W63867  35.906  26.061  11.682
97459W        W63868  40.608  24.246  11.689
97460W        W63869  43.522  44.860  11.190
97461W        W63870  36.826  13.349   2.366
97462W        W63871  24.577  26.612  13.853
97463W        W63872  29.910  19.186  14.458
97464W        W63873  10.657   6.210   4.851
97465W        W63874  36.028  33.402  12.658
97466W        W63875  43.919  31.409   2.738
97467W        W63876  19.242  29.918  11.454
97468W        W63877   1.376  18.998  11.517
97469W        W63878  22.888  16.572  11.571
97470W        W63879  25.368  37.001   4.994
97471W        W63880  19.993  38.364  11.386
97472W        W63881  26.039  36.452   3.388
97473W        W63882  19.552  22.522   2.877
97474W        W63883  38.724  29.097   3.999
97475W        W63884  13.906  13.085  12.493
97476W        W63885  12.444  22.647   4.563
97477W        W63886  28.425  34.042   3.245
97478W        W63887  19.752  20.333  12.892
97479W        W63888   0.876  32.369   0.476
97480W        W63889   4.383  29.733  14.188
97481W        W63890  17.182  32.368  13.599
97482W        W63891  43.737   7.648  13.385
97483W        W63892   3.293  36.582  11.582
97484W        W63893   9.660  13.517   0.721
97485W        W63894  24.392   4.772  11.749
97486W        W63895  27.715  27.967   4.688
97487W        W63896   5.185  17.170  11.159
97488W        W63897  21.781  43.825  11.927
97489W        W63898  32.116  23.515  14.286
97490W        W63899  42.262  12.801   3.230
97491W        W63900  34.086  23.781  12.349
97492W        W63901  28.499  42.251   4.934
97493W        W63902  14.064   1.190  11.630
97494W        W63903  32.910  22.615  13.949
97495W        W63904  30.615  39.754  13.798
97496W        W63905  40.338   2.437  13.911
97497W        W63906   4.654   6.374  14.400
97498W        W63907   2.937  24.242  11.482
97499W        W63908  27.360  15.660  10.538
97500W        W63909  23.014  38.326  13.286
97501W        W63910  41.319  17.983   0.491
97502W        W63911  41.037  15.557   4.915
97503W        W63912  28.988  22.496  12.641
97504W        W63913  39.350  29.036  14.983
97505W        W63914   6.379   0.549   0.376
97506W        W63915   8.697  28.414   4.548
97507W        W63916  17.834   0.414  12.589
97508W        W63917  40.239  32.982   2.369
97509W        W63918  38.405  39.011  13.613
97510W        W63919  43.583   6.162   4.968
97511W        W63920  39.969  29.798   3.621
97512W        W63921  35.068  39.368   0.781
97513W        W63922  16.612  44.474   0.062
97514W        W63923  27.326  27.990   1.195
97515W        W63924  15.366  28.085  11.538
97516W        W63925  16.715  40.551  10.428
97517W        W63926  43.284  11.374  10.515
97518W        W63927  14.356  28.018  11.689
97519W        W63928  24.785  30.072  13.498
97520W        W63929  30.272   3.509   2.609
97521W        W63930  18.301  38.567  12.548
97522W        W63931  16.822  27.209  14.712
97523W        W63932  40.015  13.134   0.793
97524W        W63933  28.648  42.059   2.384
97525W        W63934  31.873   4.607  12.450
97526W        W63935  43.796   7.648   0.442
97527W        W63936  10.210  32.473  12.465
97528W        W63937  28.746  36.432   4.353
97529W        W63938  41.397   0.740  13.541
97530W        W63939  23.208  37.424   3.676
97531W        W63940  34.652  33.075   2.269
97532W        W63941  17.294  30.190   3.080
97533W        W63942  22.676  38.686   0.256
97534W        W63943  26.260  25.536   2.737
97535W        W63944   8.923  16.616  11.522
97536W        W63945  32.602  40.932   1.918
97537W        W63946  35.639  42.878   0.057
97538W        W63947  11.359  26.743   2.857
97539W        W63948  32.513  38.903   0.331
97540W        W63949  39.819  34.911  12.123
97541W        W63950  13.680  31.650  13.933
97542W        W63951   1.988  22.222  13.877
97543W        W63952  42.329   1.274   3.466
97544W        W63953  12.374  38.778  14.592
97545W        W63954  37.550  24.510   1.337
97546W        W63955  28.250  43.068   2.962
97547W        W63956   6.562  27.251   5.007
97548W        W63957  12.382  29.543   3.286
97549W        W63958  19.714   9.042  11.744
97550W        W63959  27.360  28.633   4.253
97551W        W63960  18.161  35.933  14.290
97552W        W63961  35.157  15.170   4.304
97553W        W63962  31.270   1.761   0.356
97554W        W63963  28.869  18.614   4.656
97555W        W63964  17.178   4.327   3.830
97556W        W63965  32.725  25.464   2.619
97557W        W63966  30.581  16.377  14.953
97558W        W63967  42.849  43.481   3.403
97559W        W63968  21.198  11.416   4.179
97560W        W63969  26.497  29.557  12.179
97561W        W63970   6.272  11.717  14.313
97562W        W63971   5.699  40.225  12.090
97563W        W63972  39.162   5.260   3.662
97564W        W63973  19.048  34.617   3.658
97565W        W63974  34.496  35.588  12.635
97566W        W63975   7.128  38.375   1.524
97567W        W63976  13.234  31.115   1.217
97568W        W63977  39.591  42.165  14.005
97569W        W63978  28.965   8.691   0.840
97570W        W63979  30.161  36.787   2.569
97571W        W63980  26.824  16.853  11.842
97572W        W63981  27.697  22.767   1.426
97573W        W63982  25.240  19.628   3.265
97574W        W63983  39.309  24.157   4.134
97575W        W63984  16.658  21.129   2.368
97576W        W63985   1.429  44.244   0.541
97577W        W63986  19.808  25.992   3.366
97578W        W63987  38.011  21.376   1.543
97579W        W63988  39.381  20.338   0.809
97580W        W63989  31.611  38.019  11.739
97581W        W63990  25.402  15.636   2.703
97582W        W63991  21.950  38.884   0.740
97583W        W63992   0.442   2.744  11.373
97584W        W63993   9.541  44.501  12.398
97585W        W63994   8.136  29.612  13.972
97586W        W63995   6.350  16.522   0.729
97587W        W63996  17.290  13.180   2.280
97588W        W63997  17.202  29.606  14.936
97589W        W63998  20.179  43.724   1.399
97590W        W63999  29.542   9.336   2.545
97591W        W64000  10.829   5.251  14.542
97592W        W64001  35.159   0.187  14.891
97593W        W64002  38.901   4.784   4.382
97594W        W64003   4.735  28.521   1.377
97595W        W64004   8.799  12.091  12.483
97596W        W64005  13.701  26.559  10.716
97597W        W64006  20.273  17.359  12.532
97598W        W64007  28.329  19.588  14.280
97599W        W64008  25.673  39.486   4.346
97600W        W64009   4.450   9.343   3.229
97601W        W64010  20.518  33.897   4.249
97602W        W64011  16.694   7.148   3.622
97603W        W64012  41.013   4.000   0.447
97604W        W64013  27.160  40.485  13.819
97605W        W64014  26.490  29.649   4.445
97606W        W64015   6.195  21.139   2.246
97607W        W64016  27.323   8.243   3.146
97608W        W64017  44.364  14.398  11.921
97609W        W64018  26.575   3.894   0.942
97610W        W64019  14.305  44.535   3.582
97611W        W64020  17.560  11.428   4.426
97612W        W64021  31.608  11.047   4.620
97613W        W64022  24.717  19.159  11.738
97614W        W64023  35.829  18.215   4.400
97615W        W64024  20.414  24.936  12.066
97616W        W64025  12.611  37.555   0.359
97617W        W64026  24.527   9.146   3.098
97618W        W64027  28.442   1.970   3.620
97619W        W64028  37.013  13.868   4.183
97620W        W64029  41.876  12.699   4.287
97621W        W64030  16.175   0.092  12.785
97622W        W64031   0.821  20.817  14.447
97623W        W64032  34.165  27.586   2.768
97624W        W64033  21.010  21.765  11.123
97625W        W64034  14.666  20.028   3.254
97626W        W64035  14.040  35.842  10.802
97627W        W64036  30.459   6.204  11.451
97628W        W64037  24.559   6.834   3.398
97629W        W64038   3.821  21.303  13.502
97630W        W64039  24.083  34.705  12.417
97631W        W64040  38.882   8.745  10.675
97632W        W64041  23.264  39.023  11.136
97633W        W64042  35.121  30.872   3.190
97634W        W64043   5.946   4.377  11.186
97635W        W64044  10.880   0.338  12.793
97636W        W64045  30.066  12.555  14.119
97637W        W64046  19.773  13.796   2.931
97638W        W64047  28.001  21.503   5.488
97639W        W64048  18.593  38.088   0.245
97640W        W64049  26.283  24.981   2.775
97641W        W64050   3.320  36.447   0.706
97642W        W64051  40.950   6.766  11.630
97643W        W64052   7.552  28.441   0.758
97644W        W64053  25.418  22.091   3.696
97645W        W64054  16.547  39.323   3.204
97646W        W64055   9.280  38.403  14.362
97647W        W64056  30.884   5.099  11.418
97648W        W64057   4.399  38.820  12.401
97649W        W64058  41.411  37.429   3.817
97650W        W64059  31.971   9.123   3.767
97651W        W64060   3.512  38.483   2.825
97652W        W64061  19.013  15.854   0.316
97653W        W64062  23.522  16.589  10.903
97654W        W64063  36.153  29.723   2.596
97655W        W64064  19.214  32.671  11.758
97656W        W64065  10.892  23.785  13.921
97657W        W64066  43.911  16.731  10.676
97658W        W64067   1.833  28.073  14.938
97659W        W64068  23.593  24.701   4.122
97660W        W64069  15.891  29.646  13.636
97661W        W64070  17.043  32.482  10.592
97662W        W64071  40.860  10.889  11.034
97663W        W64072   8.766  24.304  11.438
97664W        W64073  39.510  40.930   4.753
97665W        W64074  13.446  15.742  10.525
97666W        W64075  43.026  33.802  10.057
97667W        W64076  18.654  29.449  10.727
97668W        W64077  18.213  39.388  10.623
97669W        W64078  32.459   9.754   0.102
97670W        W64079  36.514   6.778   3.976
97671W        W64080   3.208  25.683  10.646
97672W        W64081   8.421   7.769   2.176
97673W        W64082  24.494  32.879  11.524
97674W        W64083  40.049  40.778   3.581
97675W        W64084   3.403  33.449   1.052
97676W        W64085  34.283  34.940   4.623
97677W        W64086   7.386   1.255   0.920
97678W        W64087  42.328  24.916   0.520
97679W        W64088  30.768  21.823  10.240
97680W        W64089  32.975  38.392   2.416
97681W        W64090  23.702   8.692  12.390
97682W        W64091   3.254  42.720  14.839
97683W        W64092  35.598  13.736   4.551
97684W        W64093  26.110  36.471  13.037
97685W        W64094  27.634  17.135  12.715
97686W        W64095  33.502  19.824  14.825
97687W        W64096  16.983  21.620  12.232
97688W        W64097  28.054  42.329   1.470
97689W        W64098  32.459  26.471   3.653
97690W        W64099  31.957  34.113  14.362
97691W        W64100  17.563   1.019   2.240
97692W        W64101  10.097  19.297  13.598
97693W        W64102  10.253  38.474  13.335
97694W        W64103  42.906  37.907   3.588
97695W        W64104  11.386  25.923  14.044
97696W        W64105  19.047  14.172   4.192
97697W        W64106  25.480  41.792   1.846
97698W        W64107   2.106  37.619  10.833
97699W        W64108  30.024  14.033  13.919
97700W        W64109   9.355  40.878   3.602
97701W        W64110  12.572  42.436   0.222
97702W        W64111  34.611  27.738   2.532
97703W        W64112  43.347  24.476   2.382
97704W        W64113   5.775  32.638  13.396
97705W        W64114  30.038  22.651  14.267
97706W        W64115  14.446  34.738  12.547
97707W        W64116  12.285  39.503   0.365
97708W        W64117   2.935  35.441  12.360
97709W        W64118  31.602  41.807  12.024
97710W        W64119  38.538   7.834  11.808
97711W        W64120   4.402  27.194   1.267
97712W        W64121  43.242   5.666  12.922
97713W        W64122  29.082  43.082   0.123
97714W        W64123   2.398   0.887   1.711
97715W        W64124  29.157  15.275  10.881
97716W        W64125  23.971  34.118   2.776
97717W        W64126  17.829  38.540   5.974
97718W        W64127  13.035  20.296   3.272
97719W        W64128  17.994  30.174   2.931
97720W        W64129  16.980  38.277  13.977
97721W        W64130  25.247  11.710  11.018
97722W        W64131   4.444  16.294  11.273
97723W        W64132  19.805  43.767  12.143
97724W        W64133  20.156   6.692  13.827
97725W        W64134  24.637  16.554  11.129
97726W        W64135   2.733  38.273  10.727
97727W        W64136  25.265  18.854  11.023
97728W        W64137  22.696  18.093   3.890
97729W        W64138   7.381  43.019  14.584
97730W        W64139   1.467  10.926   0.777
97731W        W64140  33.861  17.774  14.634
97732W        W64141  24.606  30.856   0.366
97733W        W64142  44.319  25.507   1.806
97734W        W64143  43.208  13.367   0.278
97735W        W64144   5.459  27.651  11.361
97736W        W64145  12.642  36.052  11.098
97737W        W64146  41.053  31.511   4.594
97738W        W64147  16.699  23.112   1.178
97739W        W64148  28.772   2.445   3.169
97740W        W64149  32.590  21.211   4.617
97741W        W64150   3.446  25.248  14.131
97742W        W64151  12.948  36.346  11.453
97743W        W64152  34.194  20.039  14.078
97744W        W64153  18.514  13.713  12.023
97745W        W64154  25.945  12.753   1.748
97746W        W64155  38.803  12.383   4.844
97747W        W64156  39.319  32.532   0.612
97748W        W64157  33.763  25.381  14.783
97749W        W64158  35.055  33.497   1.280
97750W        W64159  35.960  31.025  13.100
97751W        W64160   5.865  28.459  11.219
97752W        W64161  20.816  18.996  11.930
97753W        W64162  23.661   4.090   0.897
97754W        W64163  18.191  33.807  11.164
97755W        W64164  15.895   0.814   3.138
97756W        W64165  31.634  38.509  13.724
97757W        W64166  23.686   0.418   4.994
97758W        W64167  19.689   8.776  13.329
97759W        W64168  43.398  29.328   4.224
97760W        W64169   1.458   6.405   1.731
97761W        W64170  37.093  37.679   4.715
97762W        W64171  25.654   0.711  14.597
97763W        W64172  10.668  25.649   2.885
97764W        W64173  14.850  36.071  14.445
97765W        W64174  31.746   0.830   1.311
97766W        W64175  39.593  36.374  14.920
97767W        W64176   2.894  10.713   4.062
97768W        W64177  11.657   7.192   0.370
97769W        W64178  28.339  30.050  13.397
97770W        W64179  29.214  29.079   2.279
97771W        W64180  32.822  28.992  11.664
97772W        W64181  44.286  39.215   1.263
97773W        W64182  33.840  11.832  14.857
97774W        W64183  30.530  10.672  11.516
97775W        W64184   3.552  37.313   3.681
97776W        W64185  23.678  44.468  14.789
97777W        W64186  22.512   9.047   4.096
97778W        W64187   2.220  15.565   4.473
97779W        W64188  26.346  37.653  12.352
97780W        W64189  21.676  38.290   4.116
97781W        W64190  27.549   5.130   1.195
97782W        W64191   6.402   3.417  11.009
97783W        W64192  42.793  25.999   1.164
97784W        W64193  44.653  36.431  12.023
97785W        W64194   7.496  42.131   3.664
97786W        W64195  31.000   2.368  13.149
97787W        W64196  31.535  44.194   3.476
97788W        W64197   6.455  19.577   0.427
97789W        W64198   2.221  36.023  12.408
97790W        W64199   3.234  41.928   0.714
97791W        W64200  41.237  31.473   0.291
97792W        W64201   1.465   1.299  13.784
97793W        W64202   9.401   9.666   3.017
97794W        W64203  17.004  40.053   1.782
97795W        W64204  15.101  38.311  14.876
97796W        W64205   6.815  31.133  11.907
97797W        W64206  36.505  20.081  10.313
97798W        W64207   8.977  28.574   4.119
97799W        W64208  26.115  35.955  12.932
97800W        W64209  14.234  24.519   0.037
97801W        W64210   6.879  30.349   1.105
97802W        W64211  21.499  42.152   2.280
97803W        W64212   5.361  19.068   1.659
97804W        W64213  39.208  34.471  14.924
97805W        W64214  10.445  16.618  12.514
97806W        W64215  36.160  37.023   1.932
97807W        W64216   7.006  21.229  10.671
97808W        W64217  20.030   6.159  13.454
97809W        W64218  13.509  44.544   4.089
97810W        W64219  11.388  11.320  13.683
97811W        W64220   6.856  26.074   2.314
97812W        W64221  30.589  31.159   3.813
97813W        W64222  14.677   4.052   4.659
97814W        W64223  29.486  30.649   0.285
97815W        W64224   0.886  25.351  10.774
97816W        W64225  34.655  20.244   1.212
97817W        W64226  11.917   9.524  11.603
97818W        W64227  20.617   9.477  14.358
97819W        W64228  15.663  20.253   2.644
97820W        W64229  41.057   0.600   3.665
97821W        W64230  35.477  16.049  13.313
97822W        W64231  10.655  17.807   2.281
97823W        W64232  33.544  32.942  12.461
97824W        W64233   3.444  30.124   4.123
97825W        W64234  43.755  19.459  12.710
97826W        W64235  14.228  21.677  14.892
97827W        W64236   1.875  32.614  13.995
97828W        W64237   5.443  23.550   2.251
97829W        W64238  17.326   8.903  10.617
97830W        W64239  33.437   6.191   2.426
97831W        W64240   0.711  32.923   1.265
97832W        W64241  37.849  42.563  13.002
97833W        W64242   4.234  30.869   0.038
97834W        W64243   8.642  22.798   3.697
97835W        W64244  26.543  22.443   2.398
97836W        W64245  34.188  31.872  12.074
97837W        W64246  21.313  44.494   1.691
97838W        W64247  41.985  11.249   2.800
97839W        W64248  18.523  40.463   1.393
97840W        W64249  29.856   6.314   0.247
97841W        W64250  44.799  13.113   1.329
97842W        W64251   4.809  32.942  11.941
97843W        W64252   7.119  15.621  11.981
97844W        W64253  26.045   0.883   1.730
97845W        W64254  29.217  27.947  10.266
97846W        W64255  12.670   9.674   3.663
97847W        W64256   7.236  35.370   2.929
97848W        W64257  12.297   9.333   2.816
97849W        W64258   0.118  21.269  14.491
97850W        W64259   7.035  28.486  14.845
97851W        W64260   2.806   5.186  12.981
97852W        W64261  26.544  26.671  13.651
97853W        W64262   2.300  39.861  11.197
97854W        W64263   3.652   8.526   3.735
97855W        W64264  38.940  17.282  12.495
97856W        W64265  39.912  26.636   3.530
97857W        W64266  10.340   8.702   3.631
97858W        W64267  27.519  27.981   1.656
97859W        W64268  12.685  44.909   0.010
97860W        W64269  24.160  39.213  10.137
97861W        W64270  44.903   3.882   0.499
97862W        W64271  41.481  35.298   0.790
97863W        W64272  42.598  38.392   0.095
97864W        W64273  24.829  19.267   4.219
97865W        W64274  26.437  28.080  10.721
97866W        W64275  21.441  26.626  14.809
97867W        W64276  38.109   4.776   3.425
97868W        W64277  35.388  19.595  10.594
97869W        W64278   8.403  26.200  14.955
97870W        W64279  28.232  34.182  10.431
97871W        W64280  15.063  20.632   9.888
97872W        W64281   0.757  11.969  12.465
97873W        W64282  13.355  16.346  10.765
97874W        W64283   3.812  24.797   5.112
97875W        W64284  32.295  18.059  13.066
97876W        W64285   3.071  33.775   1.342
97877W        W64286  13.947  14.347   5.019
97878W        W64287  33.020   6.148  12.984
97879W        W64288   9.419  44.408  13.770
97880W        W64289  41.989  14.406   1.640
97881W        W64290  28.935  39.289  10.672
97882W        W64291  20.133  30.017  11.504
97883W        W64292  38.409  10.584  14.414
97884W        W64293  26.914  11.544  10.086
97885W        W64294  15.710  17.475   3.882
97886W        W64295  13.233  18.660  10.558
97887W        W64296  43.530  24.106  12.995
97888W        W64297  11.577  11.799   0.857
97889W        W64298   9.081  33.491   3.075
97890W        W64299  27.186  12.654  12.921
97891W        W64300   5.629  38.896  14.225
97892W        W64301   3.310  13.743  10.588
97893W        W64302  35.042  16.538   2.493
97894W        W64303   7.867  21.246  10.290
97895W        W64304  23.339   8.013   2.090
97896W        W64305   0.875  17.138  11.052
97897W        W64306  27.885  41.309   3.663
97898W        W64307  29.979  21.178   1.018
97899W        W64308  14.864  22.163  14.225
97900W        W64309   2.860   4.941   0.830
97901W        W64310  33.577  11.173   2.360
97902W        W64311  43.395  26.637  14.709
97903W        W64312  21.815   3.913  10.342
97904W        W64313  16.241  41.931  14.766
97905W        W64314   9.356  38.858   5.153
97906W        W64315  25.432   8.374   4.163
97907W        W64316  43.423  25.459   2.259
97908W        W64317  27.121  43.980   4.534
97909W        W64318   7.382  41.898  10.597
97910W        W64319  12.692  15.991   0.898
97911W        W64320  33.540  14.376  14.650
97912W        W64321  26.631  11.680   0.207
97913W        W64322  41.002   6.628   3.210
97914W        W64323   4.248  19.829  11.225
97915W        W64324  34.603  21.009   2.110
97916W        W64325  19.207  29.054  12.402
97917W        W64326  21.176   9.439  14.379
97918W        W64327  37.052  34.987   2.855
97919W        W64328  10.779  25.113   1.334
97920W        W64329   8.843   6.153   4.517
97921W        W64330   6.876  43.430   0.903
97922W        W64331  19.990   5.536  10.642
97923W        W64332  44.205  18.246   0.708
97924W        W64333  42.109  23.057  12.053
97925W        W64334   3.818   9.312   4.263
97926W        W64335  15.712  30.089  12.467
97927W        W64336  20.738  16.686   2.399
97928W        W64337  40.337  21.989   0.771
97929W        W64338  40.516  11.688   4.568
97930W        W64339   2.375  18.009  12.913
97931W        W64340  36.053  15.868   4.220
97932W        W64341   1.800  40.783  13.395
97933W        W64342   0.190   4.483  10.756
97934W        W64343  10.084  20.086  12.665
97935W        W64344  14.094  39.910   4.387
97936W        W64345  34.612  13.661   2.791
97937W        W64346  13.393  10.041   2.858
97938W        W64347  23.674  29.894  12.905
97939W        W64348  28.738   0.372  14.465
97940W        W64349  36.052  12.347   4.004
97941W        W64350  43.642   3.979  14.011
97942W        W64351  20.125  12.117   3.350
97943W        W64352   9.377  24.954  12.561
97944W        W64353  17.871   7.962   0.389
97945W        W64354  30.065   6.259   4.803
97946W        W64355  20.792  44.653   3.631
97947W        W64356  28.668  26.631  14.341
97948W        W64357  13.208  30.051   3.552
97949W        W64358  12.289  35.075   1.883
97950W        W64359  26.009  41.181   4.027
97951W        W64360  37.088  34.501  13.402
97952W        W64361  44.813   1.806  12.862
97953W        W64362  20.672  39.379   1.785
97954W        W64363   7.071  24.604   3.143
97955W        W64364  12.273  32.286   5.113
97956W        W64365  33.447   4.770   3.623
97957W        W64366  38.682  28.569   3.236
97958W        W64367  32.467   7.673  10.341
97959W        W64368   1.532  39.669   0.268
97960W        W64369   4.270   9.939   3.227
97961W        W64370  17.396  32.132   4.853
97962W        W64371  20.283  19.066   1.095
97963W        W64372  26.293  29.632   1.213
97964W        W64373  36.631  30.505   5.084
97965W        W64374  37.958  23.169   1.391
97966W        W64375   8.356  30.165   2.740
97967W        W64376  10.775  12.688  10.691
97968W        W64377  40.975  34.855  11.063
97969W        W64378  27.884  26.595  14.741
97970W        W64379  14.159   2.918  14.697
97971W        W64380   5.676  13.704  14.915
97972W        W64381  31.596  28.003  13.804
97973W        W64382  40.414  28.177   4.591
97974W        W64383  23.075  40.770   0.160
97975W        W64384   6.662   8.994   2.100
97976W        W64385  31.306  23.221  11.566
97977W        W64386  30.453   6.632   1.749
97978W        W64387  10.087  42.421   3.148
97979W        W64388   7.343   8.670  12.679
97980W        W64389   8.796  19.263  14.718
97981W        W64390  27.090   7.463   0.795
97982W        W64391  10.459  28.955   0.451
97983W        W64392  10.644  31.607  10.691
97984W        W64393   9.686  10.898  11.167
97985W        W64394  35.851   0.235  11.173
97986W        W64395  21.793  41.764   1.801
97987W        W64396  23.776  26.771  14.559
97988W        W64397  40.577  19.844  12.702
97989W        W64398  41.537  19.957  12.448
97990W        W64399   0.826  41.918   3.113
97991W        W64400   2.067   4.535  12.056
97992W        W64401  28.118  35.071  10.926
97993W        W64402   4.732   5.448   4.247
97994W        W64403  44.876  30.598   2.024
97995W        W64404  42.385  22.001  14.955
97996W        W64405  20.702  23.040  13.848
97997W        W64406  31.221  20.872  13.407
97998W        W64407   6.073  39.612  10.088
97999W        W64408   2.498  37.639   3.692
98000W        W64409  28.060  12.269  13.997
98001W        W64410  15.708  36.706  12.400
98002W        W64411  30.140  11.296   0.954
98003W        W64412  27.536  37.294   3.094
98004W        W64413  36.086  42.132  14.475
98005W        W64414  38.573  15.307   2.787
98006W        W64415  20.174  29.707   2.666
98007W        W64416  21.019  21.119   1.107
98008W        W64417  37.033  33.264  13.928
98009W        W64418  18.955  32.313   5.035
98010W        W64419   4.487  31.991  12.514
98011W        W64420  25.568  44.080   4.664
98012W        W64421   8.426  43.592  10.981
98013W        W64422  39.945   2.681  11.995
98014W        W64423   9.222  22.058  11.701
98015W        W64424  13.220   8.749  13.958
98016W        W64425  36.607   0.600  13.791
98017W        W64426  10.175  19.907   4.175
98018W        W64427   4.922   0.025  12.785
98019W        W64428  14.638  22.513  11.286
98020W        W64429  16.663   5.523   0.650
98021W        W64430   4.185  38.440  13.895
98022W        W64431  37.909   3.242  14.113
98023W        W64432  25.225  42.034   4.655
98024W        W64433  37.851  19.206   3.547
98025W        W64434  42.722   0.089   2.368
98026W        W64435  42.332  37.670   1.421
98027W        W64436  19.117   8.350   4.598
98028W        W64437   3.126   4.863   4.979
98029W        W64438  30.208  44.836  11.729
98030W        W64439  13.032  13.257  10.498
98031W        W64440  33.375  11.157  12.362
98032W        W64441  25.310  35.016   4.030
98033W        W64442  15.734  38.769   4.689
98034W        W64443  20.607   4.348  11.910
98035W        W64444  25.598  35.511   0.741
98036W        W64445  13.380   7.500   3.648
98037W        W64446  39.824  17.774   2.277
98038W        W64447  13.448  20.249   4.280
98039W        W64448  40.008  42.401  10.729
98040W        W64449  31.840  28.456  13.883
98041W        W64450   4.902  14.086  11.405
98042W        W64451  14.184  34.728   4.340
98043W        W64452  24.971  14.067   4.211
98044W        W64453  38.239  11.215  10.630
98045W        W64454  15.713  31.400   3.217
98046W        W64455  14.980  39.317   2.389
98047W        W64456  16.524  44.873  13.841
98048W        W64457  11.612   3.911  11.483
98049W        W64458   1.752  31.476   1.703
98050W        W64459  12.720   7.761  12.949
98051W        W64460  43.815  27.846   2.746
98052W        W64461  42.774  24.619  14.099
98053W        W64462   7.384   5.177   1.464
98054W        W64463   9.675  21.820   3.662
98055W        W64464  29.314  44.846  13.891
98056W        W64465  36.446  31.136  12.947
98057W        W64466  44.720  26.912  11.930
98058W        W64467  16.405   4.683   1.701
98059W        W64468  39.405  28.884  14.379
98060W        W64469  40.864  20.708   4.556
98061W        W64470  30.874  24.416  10.740
98062W        W64471   2.004  14.126   3.879
98063W        W64472   8.942  23.975   3.113
98064W        W64473  39.924  42.149   4.112
98065W        W64474  23.158   2.791  13.452
98066W        W64475  25.987  38.295   3.098
98067W        W64476  23.470  15.049   3.617
98068W        W64477  13.697  43.666   4.366
98069W        W64478  25.128  40.042  12.463
98070W        W64479  43.935   5.265   0.377
98071W        W64480  21.074  33.993  13.492
98072W        W64481   1.593  14.761  13.998
98073W        W64482   4.653  17.030  14.494
98074W        W64483  37.130   7.201   1.646
98075W        W64484  17.163   7.310   2.733
98076W        W64485   6.541  42.228   4.631
98077W        W64486   4.436   8.653  12.646
98078W        W64487  41.300   5.429  11.223
98079W        W64488  19.402   1.783   3.465
98080W        W64489  39.548  42.150  10.791
98081W        W64490  37.162  39.788   4.963
98082W        W64491   8.251  14.617   3.650
98083W        W64492  34.146  18.694  14.276
98084W        W64493  29.661  11.268   1.302
98085W        W64494  21.826   5.655   3.756
98086W        W64495  41.006  36.998   1.377
98087W        W64496  37.236  10.299   0.319
98088W        W64497  39.482  20.031   4.738
98089W        W64498  36.355   8.306   0.962
98090W        W64499  33.417  44.453   0.341
98091W        W64500  23.511   5.464  14.888
98092W        W64501  31.338  10.539  13.372
98093W        W64502  19.927  16.154   4.943
98094W        W64503  13.778  20.502   4.943
98095W        W64504  43.492   7.501  10.719
98096W        W64505  16.411  23.484   5.091
98097W        W64506  16.810  13.380  14.879
98098W        W64507  24.592  33.908  11.432
98099W        W64508  22.974  21.762   0.308
98100W        W64509   8.171  27.102   4.359
98101W        W64510  15.850  34.555   1.390
98102W        W64511  41.558   8.810  12.121
98103W        W64512  21.028   1.088  14.930
98104W        W64513   2.763  21.002   4.171
98105W        W64514   6.429  17.224  14.310
98106W        W64515   7.427  38.518  10.955
98107W        W64516  15.884  13.312  13.447
98108W        W64517  13.108  28.181   3.138
98109W        W64518   9.832   8.404  13.641
98110W        W64519  37.448  14.203  13.393
98111W        W64520  25.690  24.722   9.787
98112W        W64521  21.171   8.598  10.658
98113W        W64522  43.015  20.661  13.129
98114W        W64523  43.016  15.140   3.755
98115W        W64524  12.867  19.641  14.405
98116W        W64525  19.751  31.909   4.635
98117W        W64526  23.119  16.079   0.343
98118W        W64527  25.247  31.575  10.559
98119W        W64528  10.497  22.977   1.683
98120W        W64529  27.165  18.315  10.692
98121W        W64530  16.175   2.360   1.684
98122W        W64531  42.432  22.787   4.559
98123W        W64532  18.288  41.437  11.065
98124W        W64533  31.658  13.198  13.488
98125W        W64534  23.170  43.019   5.016
98126W        W64535  20.882   0.937  13.922
98127W        W64536   2.386   5.425  12.542
98128W        W64537  30.065  25.391  12.149
98129W        W64538  40.844  34.503  14.395
98130W        W64539  12.660  16.851  13.086
98131W        W64540  23.167  34.343  11.104
98132W        W64541  43.266  17.331  12.107
98133W        W64542   9.263  10.411   4.815
98134W        W64543   4.264  44.615   2.847
98135W        W64544  26.282  23.917  14.516
98136W        W64545   9.612  37.076   4.446
98137W        W64546  25.413  22.670  12.195
98138W        W64547  21.757   1.755   1.258
98139W        W64548  29.565   2.765   0.999
98140W        W64549  33.683  23.127   3.046
98141W        W64550   4.859  22.976  13.341
98142W        W64551  42.107  12.267   4.085
98143W        W64552  39.657   0.721  11.288
98144W        W64553  27.561  12.914   3.317
98145W        W64554  24.151   9.389   1.292
98146W        W64555  22.233  40.090   3.623
98147W        W64556  15.105  42.591   4.660
98148W        W64557  29.114  26.619   1.749
98149W        W64558  31.588   8.786   1.476
98150W        W64559  18.562  18.662  13.941
98151W        W64560   5.820  40.170   2.703
98152W        W64561  33.222  23.786   2.279
98153W        W64562  16.631  28.989   2.268
98154W        W64563  27.224  12.216   4.234
98155W        W64564  35.152   5.899   1.232
98156W        W64565   6.879  10.926   2.263
98157W        W64566  33.081  19.703   5.082
98158W        W64567  12.846  36.113   3.663
98159W        W64568  18.061   1.079  13.975
98160W        W64569   5.793  38.859  11.209
98161W        W64570   8.875  39.383  14.092
98162W        W64571  34.663  29.078   2.639
98163W        W64572  38.041  15.503   4.269
98164W        W64573  34.401  28.634   3.190
98165W        W64574  42.978  22.654  10.559
98166W        W64575  26.179  26.084  13.760
98167W        W64576  40.021  23.632   4.424
98168W        W64577  21.988   8.180   4.229
98169W        W64578  33.490   4.126  14.480
98170W        W64579  29.777  36.375  14.001
98171W        W64580  26.368   1.414  12.076
98172W        W64581   1.324  14.409   1.714
98173W        W64582  18.581  18.801   0.976
98174W        W64583  35.475  15.242  13.558
98175W        W64584  35.405  28.241  13.381
98176W        W64585  15.318  12.114   2.779
98177W        W64586   2.200  33.991  14.992
98178W        W64587  40.869  25.460  13.048
98179W        W64588  11.114  15.211   4.611
98180W        W64589   4.477   9.591   2.397
98181W        W64590  36.471  36.293   5.032
98182W        W64591  36.490  15.414  13.371
98183W        W64592   3.212   8.678  13.988
98184W        W64593  40.790  23.018   0.938
98185W        W64594  41.877  17.418   3.661
98186W        W64595   5.058  21.905   4.039
98187W        W64596  27.455  14.739   4.531
98188W        W64597  12.068   9.197   2.349
98189W        W64598  13.631   4.051   1.103
98190W        W64599  32.656   1.780   1.623
98191W        W64600  31.047  35.917   3.959
98192W        W64601   4.508  36.666  14.267
98193W        W64602  36.439  27.681   1.345
98194W        W64603  11.358  27.203   3.661
98195W        W64604  13.991   1.995  14.006
98196W        W64605  40.790  36.203   4.004
98197W        W64606   3.413  23.083   4.484
98198W        W64607   2.920  22.441  11.975
98199W        W64608  30.207   6.358   3.565
98200W        W64609  33.910   6.319   0.317
98201W        W64610  17.356  24.277  12.020
98202W        W64611   1.059  23.786  14.487
98203W        W64612  13.634  32.108  14.766
98204W        W64613  38.420  29.156   4.619
98205W        W64614  23.699  31.656   4.066
98206W        W64615  19.757   6.847   1.089
98207W        W64616  21.161  34.637  12.573
98208W        W64617  21.348   0.705   0.288
98209W        W64618   0.724  18.183  14.818
98210W        W64619  15.817  44.512  14.343
98211W        W64620  24.526  29.941  10.980
98212W        W64621  26.088  14.138  12.885
98213W        W64622  29.935  20.489   0.495
98214W        W64623  33.847  28.513  14.082
98215W        W64624  38.844  17.049   4.164
98216W        W64625  20.153  44.489  12.403
98217W        W64626  34.484  42.936  14.088
98218W        W64627  20.061  37.910   4.721
98219W        W64628   1.318   1.495   1.407
98220W        W64629  12.599  10.003  13.803
98221W        W64630  31.558  35.478  14.207
98222W        W64631  42.667  42.956   1.901
98223W        W64632   8.231  32.455  12.064
98224W        W64633  29.513  13.699   4.134
98225W        W64634  21.699  36.797   3.800
98226W        W64635  16.339  35.317   2.518
98227W        W64636   4.834  24.624  13.098
98228W        W64637   7.811  34.473  10.633
98229W        W64638  35.890   5.987   3.724
98230W        W64639  43.511   0.087   0.038
98231W        W64640  29.018  44.869  10.789
98232W        W64641   4.929   9.864   2.466
98233W        W64642  38.311  43.002   1.884
98234W        W64643  20.670  13.674  11.322
98235W        W64644  12.792  15.320  14.823
98236W        W64645  17.847   3.052  14.769
98237W        W64646  20.484  12.566   4.110
98238W        W64647  27.884  10.196   1.306
98239W        W64648   8.501  20.646  11.100
98240W        W64649  29.076  39.648  12.435
98241W        W64650  34.576  12.292   1.061
98242W        W64651  19.783  35.921  14.151
98243W        W64652  38.346  27.552   1.233
98244W        W64653  39.983  39.143   0.884
98245W        W64654  11.723  26.158  13.245
98246W        W64655   3.287  25.502   0.807
98247W        W64656  43.455  22.665  10.772
98248W        W64657  33.430  10.235  11.277
98249W        W64658  44.572   1.001   2.129
98250W        W64659  30.998   9.401   2.392
98251W        W64660  44.935  22.570  11.911
98252W        W64661  25.276   6.815   4.930
98253W        W64662  17.514  10.387   2.768
98254W        W64663  16.829  36.481  14.706
98255W        W64664  19.021  34.334  11.449
98256W        W64665  18.501   2.265  12.034
98257W        W64666  44.490  25.353  14.194
98258W        W64667  39.508  18.096  11.896
98259W        W64668  33.097  17.632  11.537
98260W        W64669  21.710  24.450  13.407
98261W        W64670   4.901  11.318   3.800
98262W        W64671  29.176  16.065  14.840
98263W        W64672  15.239   2.851   1.714
98264W        W64673  35.822  44.403  11.092
98265W        W64674  12.399   4.501  12.872
98266W        W64675  28.674  36.501  14.518
98267W        W64676  35.969  29.178   1.351
98268W        W64677  42.098  34.907   1.443
98269W        W64678  18.884   4.654  14.778
98270W        W64679   5.403  26.758   3.770
98271W        W64680  23.077  15.006   0.261
98272W        W64681  34.165  42.561  11.208
98273W        W64682   2.531  34.879   1.189
98274W        W64683  44.766  27.432  12.664
98275W        W64684  42.339  30.519   4.204
98276W        W64685   9.703  42.421  12.375
98277W        W64686  41.749  43.825  14.721
98278W        W64687  17.787  26.467   1.398
98279W        W64688  20.931  44.402   2.298
98280W        W64689  40.240   6.219   2.005
98281W        W64690  42.604  26.590  10.869
98282W        W64691   8.162  43.510   2.796
98283W        W64692  34.543  15.164  10.705
98284W        W64693  37.401  33.081  11.063
98285W        W64694  40.050  31.547   1.910
98286W        W64695  14.726   8.967  10.479
98287W        W64696  30.281  25.479  10.802
98288W        W64697  43.042  16.784   0.324
98289W        W64698  44.296  12.559  11.701
98290W        W64699   4.865  15.040   0.354
98291W        W64700  36.059  25.739  11.284
98292W        W64701  34.610  10.795   4.687
98293W        W64702  17.155  15.691   3.560
98294W        W64703  24.426  30.023  14.374
98295W        W64704  31.647  18.757   4.047
98296W        W64705   7.422  43.907   0.394
98297W        W64706   9.854  22.929   2.862
98298W        W64707   9.182  24.295  10.031
98299W        W64708  11.389   2.130  11.145
98300W        W64709  35.816  17.760   2.391
98301W        W64710   4.885  15.108  11.524
98302W        W64711   8.178  32.438  14.474
98303W        W64712   8.964  21.968  12.516
98304W        W64713  20.527  20.024  10.724
98305W        W64714  19.251  20.573   1.226
98306W        W64715  39.055  40.012   2.338
98307W        W64716  25.704  19.411   1.229
98308W        W64717   6.994  31.189   1.397
98309W        W64718   2.820   2.057  10.407
98310W        W64719   1.715  14.525   3.128
98311W        W64720  34.510  31.212  11.120
98312W        W64721  18.512  35.350   0.370
98313W        W64722  22.024  14.205   3.709
98314W        W64723  15.398   0.423  12.460
98315W        W64724   1.332  33.168   1.769
98316W        W64725  14.581  27.354  12.959
98317W        W64726  33.382  13.625   2.186
98318W        W64727  40.171  14.213  12.563
98319W        W64728  40.312  23.042  11.624
98320W        W64729   1.858   7.079  10.787
98321W        W64730  20.027  23.667   3.653
98322W        W64731  35.104   1.908   0.807
98323W        W64732  20.714   2.771   0.565
98324W        W64733  38.626  22.202  14.374
98325W        W64734  33.679  19.054   1.747
98326W        W64735  36.000  30.039  11.813
98327W        W64736  25.793  37.284  13.641
98328W        W64737  12.727   9.611   2.644
98329W        W64738  16.709  14.607   0.144
98330W        W64739   5.377   8.823  12.891
98331W        W64740  44.383  13.143   3.680
98332W        W64741   9.277   5.240  11.177
98333W        W64742  12.757  18.648   1.034
98334W        W64743  31.152  34.368  13.991
98335W        W64744  11.762  11.560   4.576
98336W        W64745   5.655  34.605   0.470
98337W        W64746  40.077  43.297  13.363
98338W        W64747  17.057  44.247  13.403
98339W        W64748   3.654  17.623  11.688
98340W        W64749  26.199  36.151   3.000
98341W        W64750  14.696  30.552  11.237
98342W        W64751  24.652  18.543   3.665
98343W        W64752  11.553  17.724  12.587
98344W        W64753  36.675  33.934   3.109
98345W        W64754   7.393  30.983   3.193
98346W        W64755  20.146  18.030   5.249
98347W        W64756  23.432  12.542   4.040
98348W        W64757   6.175  39.493  14.533
98349W        W64758  29.594  25.159  11.231
98350W        W64759  31.339  13.699   4.118
98351W        W64760  32.232   3.955   0.338
98352W        W64761  32.591   9.371  13.772
98353W        W64762  41.489  42.359   0.724
98354W        W64763  14.473   5.996  12.866
98355W        W64764  34.590   2.297   2.237
98356W        W64765  34.440  43.241  14.842
98357W        W64766  13.135  11.370  12.644
98358W        W64767  18.992   1.774  14.364
98359W        W64768   6.012  26.140   2.545
98360W        W64769  15.154  38.532  12.494
98361W        W64770  43.318  41.255  12.938
98362W        W64771  27.951  16.769   0.362
98363W        W64772  22.759  42.917  10.536
98364W        W64773  37.015  17.988   3.256
98365W        W64774  16.782  23.544  14.405
98366W        W64775  34.165   1.412   3.349
98367W        W64776  39.127   7.805  14.576
98368W        W64777  36.322  34.004  12.255
98369W        W64778  44.543  27.453  12.027
98370W        W64779   1.411   0.066  14.406
98371W        W64780  19.250  28.758   2.904
98372W        W64781  30.975  36.210  14.471
98373W        W64782  11.311  24.458  11.956
98374W        W64783  12.207  29.531  12.015
98375W        W64784  42.728   3.839   1.256
98376W        W64785  36.121  44.847  11.959
98377W        W64786  32.365   9.375  14.755
98378W        W64787   7.749  26.462   0.879
98379W        W64788  21.015   3.431   2.647
98380W        W64789   0.306   4.190   0.464
98381W        W64790  25.219  40.763   4.522
98382W        W64791  12.179  20.490   1.314
98383W        W64792  38.619  22.173  10.628
98384W        W64793   1.574  36.251  12.095
98385W        W64794  11.680  18.412  11.569
98386W        W64795  17.248  41.301   2.101
98387W        W64796  20.524  21.966   1.355
98388W        W64797  38.942  41.060  13.210
98389W        W64798  35.155  19.089  11.492
98390W        W64799  22.691  36.657   3.858
98391W        W64800  25.605  13.011   0.323
98392W        W64801  43.048  11.291   2.261
98393W        W64802  10.484  15.255   1.698
98394W        W64803  26.544  27.406  14.773
98395W        W64804  12.702  18.208  14.185
98396W        W64805  14.680  24.439   3.677
98397W        W64806  12.839  27.862   0.332
98398W        W64807   4.369   1.496   3.553
98399W        W64808  39.284  33.372  10.650
98400W        W64809  32.511  20.248   0.527
98401W        W64810  36.557  36.040  13.650
98402W        W64811   1.569   4.899  10.680
98403W        W64812  18.092  20.676   0.642
98404W        W64813  44.186   9.090   1.443
98405W        W64814  41.580  31.935  13.390
98406W        W64815  30.653  29.070   0.347
98407W        W64816  29.981   4.079   1.168
98408W        W64817   7.483  29.940  13.990
98409W        W64818  17.185  34.132   2.391
98410W        W64819  21.602  35.934   2.613
98411W        W64820   6.120  32.665  11.134
98412W        W64821  38.489   6.854   2.837
98413W        W64822  31.632  13.124  12.547
98414W        W64823  22.020  21.721  11.169
98415W        W64824  44.794   7.333  11.145
98416W        W64825  26.503  14.668   5.082
98417W        W64826   9.111   4.955   1.200
98418W        W64827   0.040  13.119   0.744
98419W        W64828  31.950  29.744   1.340
98420W        W64829  10.256  15.803  14.473
98421W        W64830  17.574   4.795  13.522
98422W        W64831  25.960  24.139  13.035
98423W        W64832  11.058  23.913   3.809
98424W        W64833  35.989   2.953   3.630
98425W        W64834  19.120  16.329   2.606
98426W        W64835  22.531  10.882   3.367
98427W        W64836   9.004  42.342  14.556
98428W        W64837  34.315  39.042  12.530
98429W        W64838  24.015  20.978  11.252
98430W        W64839  34.432  36.633  14.810
98431W        W64840  23.548  13.660   2.850
98432W        W64841  37.771  39.817  13.429
98433W        W64842   7.300   9.941  11.440
98434W        W64843  40.415  26.087  12.594
98435W        W64844  37.108  43.904  12.058
98436W        W64845  32.668  11.155  14.303
98437W        W64846  13.059  11.816  13.857
98438W        W64847  37.865   1.748  13.940
98439W        W64848  43.384  20.888   4.004
98440W        W64849  30.206  11.578  11.963
98441W        W64850   6.822  38.714  11.641
98442W        W64851  42.805  28.578  12.123
98443W        W64852  37.788   9.084   3.095
98444W        W64853  30.025  25.540  13.520
98445W        W64854  30.127  31.414  10.705
98446W        W64855  34.641  15.835   3.132
98447W        W64856   2.347  42.242  11.354
98448W        W64857  35.597   7.142  12.891
98449W        W64858  34.096  33.434   3.824
98450W        W64859  13.587  12.125  13.485
98451W        W64860  14.209  24.384   2.429
98452W        W64861  10.141  27.636   3.807
98453W        W64862   5.868  44.367   1.398
98454W        W64863   8.813  28.908  12.950
98455W        W64864  28.871  20.970  12.527
98456W        W64865  21.952  18.601  13.399
98457W        W64866  31.513  36.429  10.571
98458W        W64867  33.992  44.866  12.482
98459W        W64868  30.093  42.469  14.422
98460W        W64869  32.970  14.657   1.823
98461W        W64870  21.600  41.250   1.353
98462W        W64871  37.878  18.128  12.536
98463W        W64872  39.583  33.010   0.783
98464W        W64873  28.184  35.115   1.652
98465W        W64874   9.870   0.115  14.088
98466W        W64875  24.135  21.439  14.883
98467W        W64876  44.541  36.021  10.760
98468W        W64877  38.299  19.388   4.070
98469W        W64878  35.363  32.625   0.817
98470W        W64879  12.142  43.206   1.253
98471W        W64880  12.219  16.110   1.947
98472W        W64881  12.997   6.211   3.311
98473W        W64882  13.895  29.089  14.246
98474W        W64883  34.362  39.446  14.167
98475W        W64884  27.002   3.990  14.588
98476W        W64885  23.754  10.253   2.409
98477W        W64886   0.206   5.230   4.572
98478W        W64887  42.707   0.986  13.062
98479W        W64888  41.923  20.289   2.701
98480W        W64889  38.774  39.575  12.015
98481W        W64890  37.002  23.780  12.578
98482W        W64891   9.390  35.466   3.783
98483W        W64892  17.338  34.942  12.382
98484W        W64893  36.339  17.165  13.972
98485W        W64894   1.301  12.090  13.249
98486W        W64895  24.606  15.118   2.581
98487W        W64896  34.152  34.074  14.209
98488W        W64897   1.292  41.111  12.170
98489W        W64898  30.638  44.544   0.923
98490W        W64899  20.587  41.376  13.839
98491W        W64900  36.231  23.047  11.385
98492W        W64901  33.609   4.777  13.297
98493W        W64902  22.735  42.389   2.562
98494W        W64903  29.099  11.325   4.080
98495W        W64904  17.279  41.239   0.315
98496W        W64905  15.838  31.454  12.586
98497W        W64906  23.339  28.721   1.847
98498W        W64907   7.362  33.506  10.522
98499W        W64908  27.605  32.933  14.786
98500W        W64909  26.121  25.241   3.655
98501W        W64910  26.269   6.857  12.816
98502W        W64911   8.008   6.745  14.803
98503W        W64912  14.290  12.936   3.270
98504W        W64913  24.767  12.867  12.596
98505W        W64914  43.930  28.746  12.054
98506W        W64915   8.727  31.159   2.834
98507W        W64916   7.643  16.625  12.964
98508W        W64917  19.700  41.432  10.870
98509W        W64918  44.265  37.957   0.485
98510W        W64919  32.448  17.058  11.979
98511W        W64920  35.974  17.347  13.392
98512W        W64921  34.207  21.843   2.781
98513W        W64922  26.036  34.106   2.177
98514W        W64923  41.374  11.171  12.099
98515W        W64924  15.013  24.579   3.011
98516W        W64925   9.989  27.687  11.229
98517W        W64926  14.666  40.237   2.810
98518W        W64927  22.715  27.088   4.809
98519W        W64928  36.565  12.212   2.657
98520W        W64929  31.082  30.592   4.855
98521W        W64930  17.063   9.676   3.562
98522W        W64931   3.373  12.839   3.310
98523W        W64932  26.826  18.028   4.078
98524W        W64933   6.443  43.945  12.514
98525W        W64934  31.150  15.874   2.216
98526W        W64935  23.304  25.116   1.896
98527W        W64936  12.445  37.920  14.972
98528W        W64937   3.798  36.443   0.939
98529W        W64938  34.199   5.889  14.056
98530W        W64939  31.948  11.778  10.981
98531W        W64940  20.744  43.236  14.177
98532W        W64941  27.446  33.596   1.108
98533W        W64942   1.928  34.192  12.941
98534W        W64943  29.189  24.399   2.200
98535W        W64944  24.543   3.446   1.090
98536W        W64945  19.151   3.623  12.135
98537W        W64946  19.265  12.072   4.883
98538W        W64947  11.013   4.038   4.574
98539W        W64948  31.582  32.186  10.673
98540W        W64949  14.197  38.081   3.614
98541W        W64950   2.334  11.117   2.342
98542W        W64951   8.712   1.435  11.437
98543W        W64952  25.266  26.193  12.576
98544W        W64953  33.970  16.330  12.564
98545W        W64954  19.445  17.563  12.909
98546W        W64955  36.336  43.576  14.804
98547W        W64956  12.299   5.847  13.932
98548W        W64957  40.999  11.259  12.471
98549W        W64958  36.644  28.109  14.035
98550W        W64959  10.304   6.484   5.115
98551W        W64960  35.838  20.641   2.423
98552W        W64961   0.261   4.423  11.605
98553W        W64962  12.034  22.983   1.863
98554W        W64963  44.194  30.198  10.732
98555W        W64964  13.155  11.929   2.812
98556W        W64965  12.370  31.900   1.784
98557W        W64966  13.773  24.655   1.342
98558W        W64967   9.867  23.600  10.227
98559W        W64968  41.260  32.040  12.493
98560W        W64969  43.922   7.305   3.758
98561W        W64970   6.214  12.199   1.952
98562W        W64971   3.028  24.159  14.761
98563W        W64972   5.698  40.404  11.602
98564W        W64973  27.139  20.306  12.589
98565W        W64974   3.937  44.801  13.977
98566W        W64975  41.836  24.636   1.286
98567W        W64976  34.641  27.439  11.566
98568W        W64977   4.978  10.437  13.013
98569W        W64978  43.753  16.641  12.503
98570W        W64979  24.621   0.277  14.515
98571W        W64980   4.798  17.049   1.351
98572W        W64981  30.426  42.585   2.268
98573W        W64982  11.926   5.358   4.254
98574W        W64983   7.769  16.821   2.909
98575W        W64984  27.519  11.127  10.632
98576W        W64985  36.515  10.685   5.271
98577W        W64986  43.324  42.681   0.369
98578W        W64987  29.090  11.200  13.434
98579W        W64988  28.049  41.397   2.343
98580W        W64989  15.893  30.690   0.643
98581W        W64990  19.934   9.133   3.609
98582W        W64991  17.786  23.572  14.581
98583W        W64992  32.120  26.503  12.491
98584W        W64993  34.437  38.595   4.821
98585W        W64994  36.763  34.584   2.691
98586W        W64995   7.147  16.130   0.810
98587W        W64996  20.033  14.850   1.543
98588W        W64997  33.636  38.781   3.335
98589W        W64998   2.797   0.332  14.800
98590W        W64999   8.047  36.014   1.245
98591W        W65000  15.913   5.550  13.712
98592W        W65001  21.679   8.247  11.478
98593W        W65002  34.336  10.215  10.635
98594W        W65003  15.497  17.800   3.081
98595W        W65004  12.517  29.619   1.487
98596W        W65005  43.173  16.868   4.594
98597W        W65006  32.647  28.695  14.998
98598W        W65007  43.398  27.095   4.641
98599W        W65008  25.673  19.474   3.018
98600W        W65009  21.499  43.401  12.670
98601W        W65010  22.271  11.359  13.016
98602W        W65011   4.699   2.050  11.171
98603W        W65012  12.762  30.200  14.867
98604W        W65013  34.848  13.024   2.003
98605W        W65014  16.717  19.159  13.816
98606W        W65015  24.374  29.050   3.794
98607W        W65016  36.851   6.275   0.245
98608W        W65017  39.588   0.780  10.587
98609W        W65018   9.792  40.863   2.877
98610W        W65019   7.080   2.983   3.707
98611W        W65020  25.470  23.478  12.421
98612W        W65021   9.009   5.308   1.799
98613W        W65022   7.136  15.181   1.744
98614W        W65023  44.849  43.999   1.742
98615W        W65024  19.754  33.820   2.451
98616W        W65025  19.595   4.778  12.536
98617W        W65026  33.010  28.502   3.663
98618W        W65027  17.662  26.885  12.844
98619W        W65028  12.683  27.680   0.790
98620W        W65029  13.179  35.857   3.975
98621W        W65030  41.048  22.543  14.860
98622W        W65031   9.860  33.719   2.091
98623W        W65032   4.028  22.148   9.628
98624W        W65033  33.440  25.069   0.471
98625W        W65034  29.114  27.121   0.971
98626W        W65035  10.681   7.228   3.108
98627W        W65036   1.947   0.274  14.440
98628W        W65037  42.934  35.524   4.216
98629W        W65038  35.681   8.738   2.686
98630W        W65039  26.629  34.812  11.636
98631W        W65040  21.325  42.508  14.354
98632W        W65041   2.236  14.060   1.887
98633W        W65042  11.765  29.876  12.592
98634W        W65043  23.469  43.747  11.439
98635W        W65044  31.126   3.158  12.074
98636W        W65045  17.613  15.110  13.531
98637W        W65046  17.650  27.163  12.397
98638W        W65047  42.841  19.793  12.761
98639W        W65048   5.902  19.770  14.769
98640W        W65049   3.249  21.046   3.334
98641W        W65050  12.119  22.018   0.259
98642W        W65051  27.421   4.398   4.546
98643W        W65052  27.997  27.085   4.330
98644W        W65053  18.488   0.125   3.402
98645W        W65054  26.299   6.136  12.410
98646W        W65055   8.899  14.155  14.772
98647W        W65056   8.971   5.881  12.838
98648W        W65057  15.135  25.823   2.741
98649W        W65058  14.899  20.102   0.875
98650W        W65059  15.584  28.205   4.180
98651W        W65060  39.941   6.937   0.479
98652W        W65061  40.266  25.561   2.260
98653W        W65062   0.983   6.629  14.087
98654W        W65063  32.072  12.825  14.088
98655W        W65064   7.722  44.285   3.269
98656W        W65065  32.973  33.349   0.727
98657W        W65066  37.046   3.433   4.249
98658W        W65067   5.325  15.037  11.796
98659W        W65068  42.476   4.275  11.946
98660W        W65069   8.814  25.643  10.218
98661W        W65070  31.323   7.821   1.767
98662W        W65071   9.868  35.046  13.519
98663W        W65072   9.623  27.328   0.499
98664W        W65073  12.105  25.123  11.110
98665W        W65074  15.252  27.218  14.849
98666W        W65075  29.021  36.775   1.420
98667W        W65076  27.171   9.782   4.518
98668W        W65077  38.872   2.915  13.429
98669W        W65078  27.611  35.351   2.556
98670W        W65079  31.176  16.778  10.306
98671W        W65080  37.563  40.438   1.838
98672W        W65081  32.065  44.984  13.542
98673W        W65082  29.180  27.285  13.616
98674W        W65083  36.508  19.859  11.552
98675W        W65084  29.173  16.419  13.553
98676W        W65085  43.876  14.229  13.300
98677W        W65086  16.731  17.584  12.852
98678W        W65087  22.081  25.737  13.609
98679W        W65088  20.966   1.297   1.208
98680W        W65089  35.086  30.583   3.850
98681W        W65090  28.749  26.245  14.876
98682W        W65091  39.428  39.249  12.548
98683W        W65092  44.418  19.930   0.010
98684W        W65093  37.461  39.816  12.379
98685W        W65094   8.287  16.328   4.832
98686W        W65095  33.384  39.592   2.673
98687W        W65096   0.032  32.078  14.926
98688W        W65097  34.476  10.389  11.954
98689W        W65098  26.243  22.127  13.541
98690W        W65099  14.023   7.735  11.222
98691W        W65100  25.757  35.706  11.594
98692W        W65101   4.945  19.714  11.628
98693W        W65102  26.088  41.496   3.584
98694W        W65103   9.766  16.539  11.938
98695W        W65104  42.746  17.454  11.999
98696W        W65105  18.866  41.636   2.354
98697W        W65106   8.547   5.084   1.899
98698W        W65107  39.115   3.735   4.727
98699W        W65108  33.632   1.416  14.018
98700W        W65109   1.711  33.034  13.788
98701W        W65110  35.931  24.903   0.091
98702W        W65111  33.121   1.989   0.310
98703W        W65112  28.739  37.825  11.451
98704W        W65113  41.517   3.895   0.348
98705W        W65114  43.920  12.362  10.249
98706W        W65115  22.673  41.353   2.731
98707W        W65116  19.653  34.303   2.330
98708W        W65117   4.974  25.444  11.463
98709W        W65118   1.904  39.536   2.072
98710W        W65119  18.501  31.931   1.812
98711W        W65120  36.838  17.636   5.329
98712W        W65121  35.657   6.434   4.849
98713W        W65122  21.041   6.885   1.381
98714W        W65123  12.307  25.278   1.421
98715W        W65124  17.615  25.551   2.267
98716W        W65125  17.142  40.829   1.237
98717W        W65126  30.414  39.350   3.663
98718W        W65127  20.226  25.735  13.901
98719W        W65128  38.848  42.052  10.196
98720W        W65129   0.516   7.488   4.287
98721W        W65130  35.160   3.835  12.819
98722W        W65131  24.901  13.685   1.922
98723W        W65132  44.892   6.300  10.517
98724W        W65133  32.199  26.511  11.579
98725W        W65134  22.642  14.632   1.469
98726W        W65135  32.066  26.528  14.585
98727W        W65136  22.835  27.457  12.009
98728W        W65137   6.843  26.265  13.818
98729W        W65138  17.600  41.826  10.594
98730W        W65139  20.411  17.805  10.702
98731W        W65140  20.614  29.424  13.796
98732W        W65141   6.890  24.534   3.668
98733W        W65142  10.720  28.149  14.473
98734W        W65143  20.072  34.915   0.039
98735W        W65144  15.310  33.382  12.290
98736W        W65145  44.997  34.424   2.587
98737W        W65146  14.284  13.788  10.520
98738W        W65147  39.337  14.760   2.702
98739W        W65148   6.824  36.509  14.394
98740W        W65149  29.421  22.124  10.942
98741W        W65150   8.452  42.483  14.703
98742W        W65151  13.943  20.929  13.842
98743W        W65152   0.410  34.309   4.599
98744W        W65153   8.053  15.567  13.364
98745W        W65154   8.776  30.411  10.545
98746W        W65155   4.748  15.593  14.974
98747W        W65156  36.553  11.223  13.912
98748W        W65157  16.914  34.894   0.840
98749W        W65158  31.393   3.431  13.873
98750W        W65159  44.333   9.428   0.441
98751W        W65160   1.223  12.768   0.898
98752W        W65161  24.707  33.091  14.037
98753W        W65162  16.866  19.217   3.708
98754W        W65163  42.570  20.531   0.035
98755W        W65164   8.813   9.107   3.060
98756W        W65165  39.325  10.411  14.943
98757W        W65166  24.014  10.662  10.658
98758W        W65167  29.571   1.700   4.989
98759W        W65168   8.532   9.386   2.144
98760W        W65169   5.731  38.932   2.330
98761W        W65170  20.532  33.081  12.890
98762W        W65171  14.513   5.855   4.666
98763W        W65172  36.339   9.875  12.028
98764W        W65173   5.338  27.818   1.324
98765W        W65174  41.382   7.925   3.904
98766W        W65175  28.494  27.506  11.136
98767W        W65176  23.068  22.280   2.743
98768W        W65177  20.867  25.825   3.021
98769W        W65178  31.487   6.714   0.809
98770W        W65179  27.949   1.367   2.320
98771W        W65180  20.636  44.489   1.429
98772W        W65181  32.129  30.234   1.286
98773W        W65182   3.049   8.672   4.229
98774W        W65183  25.207   5.806   0.406
98775W        W65184   5.883  35.014   4.060
98776W        W65185  40.344   1.187   2.791
98777W        W65186   7.484  10.573   2.540
98778W        W65187  36.030   7.624  11.159
98779W        W65188  25.901  20.986   0.954
98780W        W65189  43.462   1.000   3.412
98781W        W65190  36.421  18.588  14.499
98782W        W65191  31.065  20.848   2.772
98783W        W65192  39.449  13.237  12.506
98784W        W65193  20.262  25.962   1.769
98785W        W65194  22.682  17.703  11.271
98786W        W65195  41.497  12.290   3.170
98787W        W65196  22.763   0.031  14.180
98788W        W65197   7.784  20.997   1.834
98789W        W65198   8.664   4.045   3.846
98790W        W65199   5.875  18.151   1.227
98791W        W65200  10.880  12.048  14.283
98792W        W65201  21.559  20.490   2.353
98793W        W65202  40.262  33.856   0.488
98794W        W65203  30.074  13.404  11.851
98795W        W65204  39.498  30.961  10.616
98796W        W65205  39.063  10.790  10.449
98797W        W65206  38.287   8.931   0.417
98798W        W65207  12.648  23.052   4.879
98799W        W65208  12.850  23.702  14.868
98800W        W65209  37.821  12.117  14.536
98801W        W65210  24.117  18.126  13.346
98802W        W65211  11.514  42.182  11.932
98803W        W65212  37.607  12.711  12.398
98804W        W65213  16.130  33.351   2.155
98805W        W65214  16.566  15.472   0.811
98806W        W65215  13.163  30.449  10.753
98807W        W65216  18.358   8.096   0.485
98808W        W65217  18.342   8.265  12.388
98809W        W65218   6.731  23.188   1.315
98810W        W65219  36.391  39.483   2.877
98811W        W65220  38.781  15.674   4.619
98812W        W65221  40.548  42.885  10.158
98813W        W65222  20.790   6.930   4.114
98814W        W65223  44.103  12.300   1.679
98815W        W65224  34.149  13.253  14.327
98816W        W65225  33.383  29.012  14.394
98817W        W65226  32.499  44.666  13.199
98818W        W65227   8.973  42.998  14.004
98819W        W65228  13.645  25.191   1.417
98820W        W65229  21.131  20.749   3.846
98821W        W65230   1.874   3.376   1.323
98822W        W65231  17.263   2.263   4.643
98823W        W65232  22.718  40.790   3.987
98824W        W65233  36.085  24.800  12.381
98825W        W65234   3.955  30.957   0.475
98826W        W65235  20.066  36.591  11.424
98827W        W65236  39.715  31.100  12.633
98828W        W65237   8.571  39.965   0.397
98829W        W65238   4.665  18.537  13.493
98830W        W65239  41.323  10.193  14.844
98831W        W65240  13.737  22.775  12.895
98832W        W65241  26.366   2.315  14.388
98833W        W65242  38.959  34.060  12.294
98834W        W65243   5.662  22.315  12.087
98835W        W65244  21.883  22.727   1.310
98836W        W65245  18.089   9.105  13.906
98837W        W65246  32.619  33.955  13.134
98838W        W65247  31.005   3.366  11.610
98839W        W65248  13.608  23.216  12.609
98840W        W65249  38.933   5.727   2.939
98841W        W65250  44.925  37.350   1.435
98842W        W65251  28.348   3.365  11.086
98843W        W65252  26.698  42.906   2.597
98844W        W65253  32.829  32.925  11.176
98845W        W65254  37.973  29.124  11.563
98846W        W65255   0.268  27.129  12.787
98847W        W65256   5.283  44.513  11.503
98848W        W65257  19.019   3.953   3.740
98849W        W65258  14.244  10.581   0.814
98850W        W65259  21.005   7.578  12.458
98851W        W65260  41.544  25.459   2.734
98852W        W65261  16.798  38.052  14.878
98853W        W65262   0.087  19.276  13.076
98854W        W65263  37.872  34.448   3.588
98855W        W65264  21.099  42.446  10.694
98856W        W65265   0.855  42.395  11.664
98857W        W65266   8.166  10.154  12.376
98858W        W65267   8.374   8.284   2.835
98859W        W65268   6.345  23.967   3.318
98860W        W65269  38.859  22.179   1.243
98861W        W65270  43.035  16.756   4.094
98862W        W65271   8.744  20.783  11.540
98863W        W65272  21.766  16.670   3.338
98864W        W65273   0.968   2.159   3.636
98865W        W65274   5.018  22.615  11.034
98866W        W65275   0.968   4.770   4.487
98867W        W65276  28.885  29.298  11.024
98868W        W65277  43.704  41.275   3.181
98869W        W65278  24.217  16.863  11.171
98870W        W65279  12.485  24.036  11.570
98871W        W65280  11.069  18.957   1.186
98872W        W65281  40.515  13.620   0.273
98873W        W65282  12.461  12.378  14.938
98874W        W65283  21.091  36.510  14.705
98875W        W65284   9.587   4.505   1.882
98876W        W65285  28.648   1.718  13.338
98877W        W65286  25.635  20.287  13.387
98878W        W65287  44.453  12.610   3.776
98879W        W65288   4.392   2.396  11.407
98880W        W65289  38.565  38.034  13.615
98881W        W65290  34.258   6.100  14.544
98882W        W65291  16.641   2.274   2.359
98883W        W65292  36.970  21.373  10.191
98884W        W65293   3.849  14.567  10.257
98885W        W65294   5.370  24.258   1.784
98886W        W65295  17.050  25.959   3.786
98887W        W65296  20.023   4.209  11.569
98888W        W65297  10.215  34.749  10.449
98889W        W65298  16.114  24.423   2.413
98890W        W65299  34.328   8.421   3.295
98891W        W65300   8.668  37.347  12.083
98892W        W65301  42.931  18.294   3.409
98893W        W65302   0.286  20.850  11.045
98894W        W65303  37.563   0.535  14.882
98895W        W65304   4.922  27.176   3.301
98896W        W65305  13.269  22.609   2.185
98897W        W65306  39.049  23.554  13.243
98898W        W65307  39.945  31.382   0.316
98899W        W65308  15.277  38.329  13.963
98900W        W65309  36.109   1.477   2.891
98901W        W65310   7.590  33.608   1.795
98902W        W65311  15.144  44.484   0.677
98903W        W65312  20.103  44.663   4.724
98904W        W65313  33.461  41.002   4.570
98905W        W65314  33.301  14.893   4.365
98906W        W65315   1.395   1.459  10.683
98907W        W65316  37.021  32.672  13.494
98908W        W65317  26.821  34.626   2.367
98909W        W65318  40.789  11.107   1.589
98910W        W65319  17.831  30.087   4.730
98911W        W65320  26.497  16.535   4.542
98912W        W65321  28.715  41.457  14.919
98913W        W65322  21.700  19.620  14.361
98914W        W65323   1.187  29.419  12.929
98915W        W65324  22.994  29.945  14.508
98916W        W65325  33.890  43.505  13.472
98917W        W65326  19.412  35.822  11.597
98918W        W65327  36.328  17.982   2.967
98919W        W65328  22.507   9.405   2.070
98920W        W65329  29.060  38.282   0.444
98921W        W65330  44.712   4.734   2.166
98922W        W65331  20.463  32.709  13.310
98923W        W65332  40.984  13.433  13.450
98924W        W65333  28.878   8.329  11.143
98925W        W65334   9.434  29.140   3.624
98926W        W65335   6.320  34.951  12.742
98927W        W65336  35.602   4.619   0.881
98928W        W65337   9.081  41.535  14.681
98929W        W65338  21.207  28.171   1.214
98930W        W65339  30.979  13.380   3.861
98931W        W65340  39.117  12.241  12.877
98932W        W65341   7.293  42.235  14.102
98933W        W65342  40.329  23.134  12.485
98934W        W65343  15.162  23.195  10.247
98935W        W65344  18.983   2.721  14.353
98936W        W65345  20.072  42.356   2.060
98937W        W65346  23.689  13.828   3.308
98938W        W65347  43.716  25.620   3.605
98939W        W65348  19.702  42.423  14.799
98940W        W65349   4.743  35.511   1.239
98941W        W65350   2.260   5.380   1.224
98942W        W65351  29.441  39.271  14.048
98943W        W65352  39.748  24.731   3.899
98944W        W65353  18.127  24.064   1.905
98945W        W65354   6.956   4.763  11.068
98946W        W65355  29.452  36.053   1.753
98947W        W65356   5.920   4.916  13.971
98948W        W65357  23.759  20.167   4.307
98949W        W65358  13.958   5.365   2.248
98950W        W65359  24.444   1.235  11.963
98951W        W65360  13.890  35.340  11.627
98952W        W65361  43.352  36.043  13.457
98953W        W65362  30.108  34.245  11.530
98954W        W65363  22.630  14.097  11.148
98955W        W65364  11.000   9.587  12.382
98956W        W65365  13.955  34.912  12.515
98957W        W65366  26.773  17.966   0.660
98958W        W65367  10.823  26.481  14.855
98959W        W65368  26.890  40.959  14.742
98960W        W65369   9.943  31.977   0.020
98961W        W65370  22.059  44.282  10.784
98962W        W65371   4.089  44.163  11.213
98963W        W65372  30.365  10.180   3.177
98964W        W65373  28.988  23.789  13.479
98965W        W65374  22.731  34.875  11.601
98966W        W65375  27.288  12.917   4.920
98967W        W65376  27.672   2.930   1.688
98968W        W65377   1.976   8.830   0.297
98969W        W65378  13.801  33.993  11.665
98970W        W65379  43.057  32.100   1.242
98971W        W65380  43.910  23.155  14.574
98972W        W65381  14.923  23.641  10.806
98973W        W65382   8.240  10.256   2.134
98974W        W65383  31.608  37.480  11.070
98975W        W65384  20.513  34.118  11.201
98976W        W65385  22.481  25.667   0.373
98977W        W65386  24.491  11.187  10.318
98978W        W65387  37.175   9.723  13.406
98979W        W65388  24.123  10.145   4.533
98980W        W65389  35.624  14.602  13.023
98981W        W65390   9.343   4.919   4.836
98982W        W65391  26.726  23.990  13.594
98983W        W65392  38.268  10.047  11.918
98984W        W65393  35.702  41.036   1.724
98985W        W65394   7.228  43.343   4.054
98986W        W65395   5.851  28.425  13.833
98987W        W65396  36.230  36.579  12.088
98988W        W65397  38.251  44.812   2.277
98989W        W65398   0.915   8.701   0.579
98990W        W65399   3.343  41.255  11.758
98991W        W65400   7.958   2.308  12.429
98992W        W65401  32.444  17.599   0.635
98993W        W65402  22.222   6.791   4.781
98994W        W65403  17.557   4.842   2.217
98995W        W65404  12.590  21.706  11.514
98996W        W65405  34.340  37.141  13.013
98997W        W65406  13.579  34.155  10.702
98998W        W65407  26.067  43.364   0.778
98999W        W65408  20.592  24.403   2.305
99000W        W65409  23.900   0.645  11.074
99001W        W65410  12.152  43.679  13.046
99002W        W65411  34.105  15.816  12.518
99003W        W65412  18.511  19.781   1.467
99004W        W65413  43.663  22.536  12.379
99005W        W65414  17.293  36.676   0.965
99006W        W65415   4.975  29.464   0.081
99007W        W65416  20.203  44.943   1.928
99008W        W65417  19.730   1.710   0.023
99009W        W65418  42.049   8.111   2.274
99010W        W65419  41.501  42.457  11.435
99011W        W65420  15.683  25.995   3.467
99012W        W65421  29.460  32.822   3.250
99013W        W65422  22.387  37.902  14.877
99014W        W65423  14.043  26.094   1.403
99015W        W65424   7.610   7.115  11.176
99016W        W65425  26.571  18.986  14.856
99017W        W65426  28.093   0.250  12.952
99018W        W65427  20.298  28.097   4.633
99019W        W65428  20.298   9.377  13.867
99020W        W65429   8.178  43.767   2.340
99021W        W65430  17.201  19.879   3.756
99022W        W65431   1.614  35.128  11.419
99023W        W65432  13.699  42.534  11.285
99024W        W65433  38.459  30.467   3.946
99025W        W65434  34.340  14.635  10.484
99026W        W65435  35.334   7.405   0.786
99027W        W65436  39.300  23.121   1.014
99028W        W65437  41.262   5.770   1.661
99029W        W65438  38.047  24.550   1.191
99030W        W65439  21.522   0.356  12.562
99031W        W65440  30.586  40.279  13.893
99032W        W65441  39.516  23.764   1.936
99033W        W65442  16.635   9.915   3.131
99034W        W65443  16.776  31.045  11.567
99035W        W65444   2.718  27.205  14.299
99036W        W65445  12.100  25.074  12.346
99037W        W65446  31.935  15.107   1.360
99038W        W65447  21.221  25.207   1.364
99039W        W65448  38.322   0.947   4.161
99040W        W65449  25.676  30.635   4.653
99041W        W65450   0.161   9.395  12.648
99042W        W65451  31.007   8.805  13.312
99043W        W65452   9.848   5.187  13.312
99044W        W65453  26.275  43.975   3.416
99045W        W65454  11.290  30.888   1.946
99046W        W65455  12.631   0.150  11.357
99047W        W65456  13.878   7.441   1.844
99048W        W65457  43.756  28.260  11.944
99049W        W65458  20.086  25.934  14.438
99050W        W65459   9.247  26.928   1.880
99051W        W65460  12.568  38.025  10.847
99052W        W65461  11.643   2.933   0.371
99053W        W65462   5.768  16.059   1.368
99054W        W65463  32.927  14.231  10.758
99055W        W65464  24.388  38.459   2.409
99056W        W65465  14.734  12.353   2.405
99057W        W65466  37.831  20.716   0.252
99058W        W65467  34.874  11.903   4.695
99059W        W65468  15.223   7.134   0.239
99060W        W65469   9.037  26.483  13.058
99061W        W65470  40.449  23.721   1.701
99062W        W65471  12.652   1.313   1.065
99063W        W65472  44.891  14.752   4.197
99064W        W65473  42.989  43.710   0.716
99065W        W65474  38.843  20.087   1.893
99066W        W65475  10.271  17.963  11.251
99067W        W65476  11.766  42.478   3.767
99068W        W65477  10.204  11.169  12.938
99069W        W65478  29.015  41.369   0.349
99070W        W65479   7.867   7.341   3.643
99071W        W65480  22.503   7.689   1.460
99072W        W65481   1.529   6.455  10.999
99073W        W65482  26.733  41.070   0.721
99074W        W65483  44.817  33.603   1.728
99075W        W65484  15.412  40.023   4.674
99076W        W65485   0.792  30.229   1.340
99077W        W65486  14.309  43.893  13.574
99078W        W65487   6.846  12.184   3.455
99079W        W65488   8.362  44.007   3.253
99080W        W65489  35.957  35.837   3.577
99081W        W65490   3.451   4.880   0.705
99082W        W65491  19.200  15.373  14.422
99083W        W65492  40.873  36.464   1.674
99084W        W65493   6.396  39.860   1.366
99085W        W65494  27.671  26.460   4.683
99086W        W65495  15.195  24.945   3.962
99087W        W65496  13.271  29.543  14.549
99088W        W65497  23.251  42.634  14.545
99089W        W65498  24.256  40.301  13.963
99090W        W65499  36.981  22.626  10.727
99091W        W65500  25.145  20.506  13.366
99092W        W65501  37.467  28.532   4.713
99093W        W65502  12.767  13.500   0.701
99094W        W65503  16.808   3.284  13.283
99095W        W65504  34.107  12.933  11.558
99096W        W65505  13.254  20.221  12.837
99097W        W65506  36.198  43.003  13.370
99098W        W65507  41.103  31.049   4.346
99099W        W65508   5.426  12.475   1.808
99100W        W65509  26.979  12.073   1.648
99101W        W65510   7.654   1.228   3.322
99102W        W65511  29.468  38.925   5.297
99103W        W65512  34.142  11.170   1.431
99104W        W65513  33.808  23.659  14.094
99105W        W65514  43.942  35.487   3.240
99106W        W65515   3.945  37.378  11.514
99107W        W65516  24.770   1.291   4.552
99108W        W65517  11.214  13.824  12.124
99109W        W65518  21.125  16.245   0.981
99110W        W65519   6.375  39.438   3.622
99111W        W65520  43.885  18.751   4.081
99112W        W65521  41.668   9.289  14.337
99113W        W65522   3.674  37.148  11.931
99114W        W65523  30.650  24.461   1.447
99115W        W65524   0.125  44.492   2.998
99116W        W65525  18.676  27.143   4.252
99117W        W65526  17.044  26.928  10.631
99118W        W65527  37.134  16.963   0.232
99119W        W65528  15.215  26.631  10.708
99120W        W65529  22.811  14.937  12.614
99121W        W65530   3.002  11.381   2.840
99122W        W65531  31.189  34.806  13.705
99123W        W65532  12.189   1.700  13.510
99124W        W65533   5.628  36.021   1.478
99125W        W65534  23.660  44.886  14.503
99126W        W65535  25.638  37.635   0.713
99127W        W65536  36.435  42.366   2.049
99128W        W65537  32.495   0.293  11.536
99129W        W65538  33.740   0.433   1.537
99130W        W65539   4.263  24.570   5.067
99131W        W65540  19.511   8.559  11.889
99132W        W65541  10.649  16.175  11.217
99133W        W65542  29.843  35.747  12.963
99134W        W65543  12.585  41.320  13.038
99135W        W65544  14.506  22.172  12.462
99136W        W65545  38.835   8.689  11.575
99137W        W65546  42.810  36.390  11.449
99138W        W65547  24.976   0.262  10.668
99139W        W65548  30.534  29.549   1.445
99140W        W65549   4.921  11.800   3.618
99141W        W65550  38.882  30.785  11.105
99142W        W65551  28.292  15.336  14.968
99143W        W65552  31.676  35.035  10.751
99144W        W65553  25.083  16.954  12.160
99145W        W65554   3.724  10.037   2.681
99146W        W65555  21.706  21.328  14.076
99147W        W65556  15.252  25.126  12.467
99148W        W65557  27.170  23.568  12.062
99149W        W65558   2.596   4.921   1.918
99150W        W65559  17.663  23.992   2.879
99151W        W65560  16.285  44.953  14.504
99152W        W65561  23.148   5.284   2.805
99153W        W65562  16.333   7.779   4.381
99154W        W65563  16.951  28.380  11.841
99155W        W65564  35.742   3.013  12.087
99156W        W65565  28.286  29.896  14.387
99157W        W65566   4.216  18.559  11.358
99158W        W65567  22.454  42.484  11.824
99159W        W65568  41.853  21.614  13.194
99160W        W65569  20.285  44.293   0.531
99161W        W65570  38.962  19.109  14.122
99162W        W65571   5.760  18.580  10.940
99163W        W65572   1.514   0.703  11.965
99164W        W65573  44.451  44.526  10.460
99165W        W65574  44.906  28.382  12.970
99166W        W65575  11.033  33.079  12.090
99167W        W65576  32.592   3.515   1.800
99168W        W65577  34.359  19.556  12.329
99169W        W65578  25.068  16.326  14.314
99170W        W65579  23.198  22.111  14.958
99171W        W65580  27.965  35.592   4.366
99172W        W65581  40.339  37.892   4.218
99173W        W65582   4.799  34.947   3.163
99174W        W65583  22.271  28.892   0.819
99175W        W65584  13.599  11.220  11.042
99176W        W65585  41.775  32.495  11.982
99177W        W65586   3.656  30.395  11.057
99178W        W65587  17.641  22.528  14.413
99179W        W65588  37.513  30.073  12.096
99180W        W65589   6.394  12.787   9.764
99181W        W65590   2.387  28.944   2.344
99182W        W65591  26.163  24.995  12.067
99183W        W65592   2.606  29.179  11.792
99184W        W65593  24.005  42.410   3.385
99185W        W65594   2.235  10.007  13.042
99186W        W65595  25.170  29.467   5.112
99187W        W65596  43.387  21.089   4.471
99188W        W65597  24.856  24.044  12.020
99189W        W65598   8.325  11.371  12.066
99190W        W65599  34.840  41.220  12.458
99191W        W65600   4.870   4.091  11.991
99192W        W65601  41.526   7.865  12.019
99193W        W65602  14.424   3.936   5.526
99194W        W65603  38.093  20.523   1.656
99195W        W65604   3.910  15.266   0.445
99196W        W65605  44.004   1.483  13.833
99197W        W65606  38.311  34.927   2.256
99198W        W65607  31.214   6.481  10.701
99199W        W65608  33.450   2.723  14.281
99200W        W65609  21.759  18.974  11.093
99201W        W65610  27.130  17.915   2.878
99202W        W65611  38.893  15.253  14.070
99203W        W65612  33.104   1.694   3.747
99204W        W65613  43.761  20.224   1.042
99205W        W65614  37.535  25.577   3.895
99206W        W65615  25.023  40.739   3.311
99207W        W65616  36.669  38.260  13.820
99208W        W65617   9.697  33.829  14.000
99209W        W65618   8.257  16.582   3.195
99210W        W65619  36.899  13.005  14.329
99211W        W65620  44.247   1.018  13.883
99212W        W65621  33.159  32.535  12.472
99213W        W65622  43.306  13.789   1.848
99214W        W65623  11.685   6.824  11.437
99215W        W65624  39.975   0.504   4.136
99216W        W65625  22.992   4.279  10.931
99217W        W65626  38.503  32.253   3.258
99218W        W65627  20.209  13.320   0.842
99219W        W65628  44.046  26.551   3.229
99220W        W65629  28.453  15.332   2.307
99221W        W65630  24.198  34.244  11.236
99222W        W65631  38.842   5.952   0.360
99223W        W65632  41.333  10.610  12.985
99224W        W65633   3.283  10.756   1.407
99225W        W65634  15.792   5.409   3.263
99226W        W65635   2.255  17.301   3.684
99227W        W65636  33.631  38.806   4.560
99228W        W65637   2.118  31.613   0.317
99229W        W65638   4.217  23.027   1.536
99230W        W65639  15.195   7.835   4.622
99231W        W65640   6.150  38.595   2.383
99232W        W65641  34.967  16.583  10.575
99233W        W65642   7.136  30.819   3.616
99234W        W65643  43.528   1.482  11.445
99235W        W65644  25.552  44.248   1.618
99236W        W65645  33.431  30.409   1.160
99237W        W65646   9.323  14.724   4.822
99238W        W65647   4.786  15.409   2.809
99239W        W65648  26.264  35.529   1.660
99240W        W65649  43.517  32.936  13.526
99241W        W65650   2.350  30.614   1.644
99242W        W65651   4.664   3.804   4.487
99243W        W65652  34.899   6.931  14.784
99244W        W65653  39.335  30.415   4.011
99245W        W65654   5.672  44.621   2.818
99246W        W65655  22.052   9.170  10.676
99247W        W65656  34.446  15.270  12.234
99248W        W65657  24.986  19.319  14.164
99249W        W65658  39.607  25.977   1.352
99250W        W65659  38.326  25.308   3.384
99251W        W65660   5.337  25.489  13.822
99252W        W65661  33.974  41.482   3.376
99253W        W65662  13.244  24.776   3.314
99254W        W65663  43.566  24.293  14.437
99255W        W65664  27.086  14.149  13.146
99256W        W65665  34.916  34.083   1.268
99257W        W65666   4.398  29.398  14.885
99258W        W65667  41.191  14.268  12.506
99259W        W65668  14.043  15.339   2.815
99260W        W65669  37.648   0.841  10.523
99261W        W65670  16.330  32.628  12.218
99262W        W65671  37.112  38.977   3.423
99263W        W65672  26.105  30.676  13.541
99264W        W65673  19.585  18.808  10.435
99265W        W65674  27.512  39.241  11.020
99266W        W65675  43.985  43.693  11.387
99267W        W65676  27.686  22.696  10.541
99268W        W65677  30.551  12.346   1.370
99269W        W65678  22.292  12.088  11.937
99270W        W65679   1.040  38.538   1.306
99271W        W65680   8.683  35.633  14.344
99272W        W65681  10.604  20.200   1.235
99273W        W65682  44.321  14.148   1.244
99274W        W65683   8.764  38.177  14.953
99275W        W65684   3.448  28.139   0.479
99276W        W65685   2.311  28.417  10.563
99277W        W65686  43.050   1.276   4.773
99278W        W65687  21.478   1.630   4.447
99279W        W65688  38.058   2.366   4.148
99280W        W65689  34.553  35.563   3.859
99281W        W65690  38.442   2.801   1.763
99282W        W65691  19.256  17.250   4.525
99283W        W65692   6.366  31.133  13.132
99284W        W65693   2.970  20.986   2.764
99285W        W65694  28.939   3.033   4.020
99286W        W65695   5.755  40.237   4.797
99287W        W65696  23.283   8.094   3.752
99288W        W65697  10.893  29.042   4.117
99289W        W65698  22.569  18.613   4.568
99290W        W65699  32.840  12.322   3.786
99291W        W65700  32.096  38.822  14.522
99292W        W65701  42.554  19.315  11.959
99293W        W65702   7.792  30.715   0.424
99294W        W65703  25.745   1.261  11.561
99295W        W65704  14.299   7.221   1.388
99296W        W65705  42.889  27.210   1.891
99297W        W65706  19.111  18.062  11.611
99298W        W65707   8.690   7.835  11.530
99299W        W65708  39.019  15.349  12.083
99300W        W65709  12.849  29.156   0.865
99301W        W65710  18.624  43.138  11.988
99302W        W65711  32.512  42.475  12.392
99303W        W65712  15.738  12.854   4.356
99304W        W65713  27.948  20.978   2.205
99305W        W65714  27.985   7.895   2.700
99306W        W65715  25.241  20.906  12.167
99307W        W65716  17.319  15.522  14.218
99308W        W65717  40.834   8.191  13.094
99309W        W65718  36.303  37.330   0.255
99310W        W65719   4.801  22.485   2.734
99311W        W65720  31.194  19.794   3.576
99312W        W65721  20.959   9.793   4.842
99313W        W65722  41.733   7.845  12.545
99314W        W65723  27.263  17.417   2.795
99315W        W65724   3.919  28.177  14.731
99316W        W65725  10.163  41.162   3.658
99317W        W65726  26.255   1.086  10.900
99318W        W65727  31.522   6.638   1.978
99319W        W65728  16.327  30.440   2.175
99320W        W65729   6.696  23.943  14.792
99321W        W65730  13.330   7.924  12.843
99322W        W65731  43.179   1.911  14.036
99323W        W65732   3.853  36.349   4.563
99324W        W65733  21.114   1.776  11.676
99325W        W65734  23.667  31.186  12.335
99326W        W65735  39.167  18.871   0.964
99327W        W65736  28.475  16.728   0.439
99328W        W65737  23.927  25.783   2.398
99329W        W65738  22.163  23.470   2.864
99330W        W65739  15.162  17.998   2.253
99331W        W65740  38.042  10.050   1.825
99332W        W65741  40.432  29.640   1.767
99333W        W65742  40.816  30.180   2.818
99334W        W65743  38.359   6.641   1.847
99335W        W65744  22.402  23.417  13.107
99336W        W65745  32.994  16.888   4.174
99337W        W65746  18.216  37.059   3.587
99338W        W65747   6.901  40.332  14.880
99339W        W65748  31.629  31.403   1.389
99340W        W65749  10.650  16.835  13.853
99341W        W65750  44.747  37.990   2.265
99342W        W65751  32.466  39.203   2.281
99343W        W65752  27.142  18.298   4.384
99344W        W65753  38.968   1.306  11.237
99345W        W65754  20.559  27.150   4.631
99346W        W65755  21.026  41.020  10.560
99347W        W65756  28.671  32.701   4.621
99348W        W65757   7.732  20.647  14.281
99349W        W65758   5.961  11.884  13.933
99350W        W65759  36.525  23.675  10.591
99351W        W65760   5.536  42.464   4.655
99352W        W65761   1.635   1.194  12.060
99353W        W65762  35.417  21.801  11.105
99354W        W65763  44.330  15.242  13.018
99355W        W65764   8.201  36.772   3.303
99356W        W65765  34.410  33.875   1.926
99357W        W65766   4.473   3.027   1.757
99358W        W65767  11.767  15.549   2.382
99359W        W65768  11.443  17.648   2.777
99360W        W65769  35.176   3.030  12.078
99361W        W65770  21.240  40.799   1.852
99362W        W65771  15.783  33.804   0.222
99363W        W65772  25.453  18.721  13.286
99364W        W65773  26.465  14.144   2.598
99365W        W65774  16.026  41.286   2.478
99366W        W65775  26.921  33.363   3.711
99367W        W65776   0.165  11.362  13.154
99368W        W65777  29.943  12.865   1.930
99369W        W65778  44.922  28.158   1.426
99370W        W65779  29.646  12.833  14.283
99371W        W65780   4.210  20.782   1.826
99372W        W65781  27.585  12.651   2.045
99373W        W65782   7.664   0.977  13.214
99374W        W65783  24.969  18.356   1.051
99375W        W65784  11.050  28.365  11.568
99376W        W65785  25.227  14.266   5.026
99377W        W65786  19.983   5.901   4.196
99378W        W65787  35.375  16.221  10.853
99379W        W65788  34.592  33.399   4.658
99380W        W65789   6.932  20.093  12.243
99381W        W65790  27.431   4.328  12.443
99382W        W65791  18.939   8.960  14.920
99383W        W65792  28.327  33.505   4.552
99384W        W65793  24.212  16.846   2.104
99385W        W65794  37.041   7.850   5.045
99386W        W65795   7.818  11.186   0.949
99387W        W65796  24.931  35.637   2.206
99388W        W65797  18.210  43.253  11.151
99389W        W65798  40.875   2.769   2.334
99390W        W65799  17.044  29.634  12.151
99391W        W65800  10.154   9.338  11.509
99392W        W65801  42.506  29.574  14.257
99393W        W65802  27.085  30.950   2.944
99394W        W65803  42.957  10.834   3.615
99395W        W65804  42.933  25.702   0.761
99396W        W65805  39.864   6.440   1.666
99397W        W65806  14.225  36.250   2.230
99398W        W65807  40.646  22.289  14.312
99399W        W65808  40.329   8.421  10.717
99400W        W65809  10.351  24.907  13.395
99401W        W65810  34.927  22.602   0.875
99402W        W65811  13.737  22.499   1.310
99403W        W65812  33.456  44.845  10.351
99404W        W65813  19.729  19.399   1.712
99405W        W65814  21.661  32.847  11.067
99406W        W65815   2.257  26.372   1.228
99407W        W65816  33.834  38.154   1.273
99408W        W65817  22.684   8.689  11.584
99409W        W65818   1.792  19.575   3.203
99410W        W65819  16.118  36.790  14.948
99411W        W65820  18.040  14.502   4.674
99412W        W65821  19.530  39.664   4.312
99413W        W65822   4.295  16.772  11.225
99414W        W65823  43.029   2.644   0.270
99415W        W65824   4.282  19.185  11.918
99416W        W65825  36.946  14.890   0.265
99417W        W65826   2.040  14.479  14.087
99418W        W65827  10.280  29.487  10.984
99419W        W65828   7.238  37.585  11.058
99420W        W65829   7.497  28.591  12.643
99421W        W65830  39.307  21.491   1.351
99422W        W65831  37.103  35.899  11.703
99423W        W65832  12.542   8.625   2.332
99424W        W65833  32.519  36.552  13.111
99425W        W65834  20.643  14.658  14.383
99426W        W65835  31.022  15.287   3.542
99427W        W65836  27.464  42.778   2.483
99428W        W65837  10.073  35.960  14.951
99429W        W65838  16.792  12.686  14.321
99430W        W65839  31.613   9.692   4.610
99431W        W65840  22.549  24.608   1.789
99432W        W65841  14.123  33.785  13.785
99433W        W65842   8.735  27.768   3.825
99434W        W65843  22.552  33.433   2.131
99435W        W65844  42.546  44.062  13.604
99436W        W65845  14.183  42.447  13.171
99437W        W65846  34.659  27.447  13.359
99438W        W65847   6.214   3.291   0.777
99439W        W65848  41.827   3.791  12.919
99440W        W65849   7.864  33.540   2.224
99441W        W65850  14.034  14.159   4.560
99442W        W65851  28.951  44.222   3.190
99443W        W65852  13.802  24.630  13.262
99444W        W65853  29.116  18.658  12.058
99445W        W65854  39.280  30.930   4.033
99446W        W65855  38.659   5.417   3.664
99447W        W65856  27.442   7.960   2.687
99448W        W65857  23.470  10.178   1.435
99449W        W65858  32.203  37.364  11.926
99450W        W65859  20.090  19.011  12.947
99451W        W65860  26.070   0.360  13.015
99452W        W65861  18.815  32.914   3.548
99453W        W65862  23.193  15.734  11.788
99454W        W65863  13.717  39.784   0.850
99455W        W65864  42.320   0.902  13.995
99456W        W65865  18.305   7.305  14.270
99457W        W65866   9.868  14.772   2.621
99458W        W65867  12.806   1.403   2.734
99459W        W65868  22.233  20.116   4.120
99460W        W65869  20.104  43.237  10.658
99461W        W65870  43.818  16.265   0.647
99462W        W65871   8.833  18.838   2.138
99463W        W65872  13.622  15.731  11.668
99464W        W65873  42.770   8.339   4.929
99465W        W65874  22.604   8.276  11.928
99466W        W65875  41.040  24.152  12.866
99467W        W65876  42.837  32.171   0.349
99468W        W65877   1.267   5.652   4.813
99469W        W65878   4.411  27.139  12.789
99470W        W65879   1.287   9.498   4.065
99471W        W65880   2.708  13.196  13.739
99472W        W65881  17.665  34.641  13.446
99473W        W65882  23.003  30.298   1.094
99474W        W65883  14.870  43.164  13.627
99475W        W65884  27.551  14.678  11.107
99476W        W65885  33.535   3.062   2.688
99477W        W65886   5.124  18.669  11.585
99478W        W65887  36.881   4.831  13.754
99479W        W65888  24.282  35.704   4.908
99480W        W65889  39.917  40.552  14.275
99481W        W65890  15.048  16.158  11.475
99482W        W65891   5.216   5.495  12.043
99483W        W65892  34.905  32.459   4.754
99484W        W65893  19.721  27.523   4.610
99485W        W65894  28.667  23.326   1.925
99486W        W65895  32.029  24.478   4.062
99487W        W65896  13.077  24.007   4.631
99488W        W65897  24.701  27.944   4.630
99489W        W65898  28.225  10.466  12.315
99490W        W65899  20.761   6.109   2.969
99491W        W65900  39.730   9.703   2.594
99492W        W65901   6.190  40.818   3.323
99493W        W65902  33.377  22.567  11.190
99494W        W65903  17.808  24.720   3.533
99495W        W65904  29.195  16.211   3.663
99496W        W65905  41.381   1.004  13.093
99497W        W65906  27.458  20.817  10.954
99498W        W65907  40.101  31.054  13.377
99499W        W65908  32.040  19.793  11.022
99500W        W65909  24.169   8.576  11.188
99501W        W65910  21.104  22.900   1.938
99502W        W65911  41.370  14.293   0.929
99503W        W65912  24.513  11.817   3.901
99504W        W65913  17.656  13.957  13.295
99505W        W65914  42.589  38.730   1.623
99506W        W65915  28.007  12.280   2.730
99507W        W65916  42.322  11.065  14.800
99508W        W65917  39.980  11.557   4.537
99509W        W65918   8.259   3.992  11.343
99510W        W65919  25.638  17.067   3.457
99511W        W65920  31.095  12.162   3.268
99512W        W65921  40.804   4.865  13.860
99513W        W65922  31.131  21.023  11.633
99514W        W65923  33.765  41.116  14.961
99515W        W65924  12.661   9.912  12.946
99516W        W65925  37.028  16.327   0.621
99517W        W65926  19.518  41.857  14.452
99518W        W65927  39.454  30.136   0.252
99519W        W65928  31.278  14.675  11.061
99520W        W65929  20.786  32.053   2.289
99521W        W65930   8.281  16.225  13.076
99522W        W65931   1.739  17.064   1.839
99523W        W65932   4.600  16.525  14.533
99524W        W65933  21.178   3.189   1.114
99525W        W65934  34.094   1.066  11.952
99526W        W65935  40.444  24.740  10.597
99527W        W65936   7.363  40.458   0.662
99528W        W65937  32.855  29.466  12.329
99529W        W65938  14.400  19.583   1.255
99530W        W65939  26.191  29.047   2.840
99531W        W65940  27.370  14.164   1.314
99532W        W65941  27.587  14.186   3.042
99533W        W65942  39.182  36.790   0.871
99534W        W65943  28.603   7.132   4.221
99535W        W65944  36.367  20.079   3.982
99536W        W65945  33.606  12.604  12.068
99537W        W65946  19.872  24.564   4.160
99538W        W65947  14.616  33.929  12.998
99539W        W65948  12.395  15.065   2.776
99540W        W65949  38.706  26.949  14.401
99541W        W65950  44.946   2.960  10.741
99542W        W65951  31.853  35.858   0.948
99543W        W65952  44.536  36.633  11.540
99544W        W65953  21.742  44.432   0.046
99545W        W65954  29.202   5.808  14.874
99546W        W65955   9.902  32.976   3.312
99547W        W65956  27.557  25.467   0.775
99548W        W65957  14.524  21.046  13.440
99549W        W65958  29.923  21.523  11.939
99550W        W65959   1.747  37.924   3.825
99551W        W65960  19.612   2.614   1.327
99552W        W65961  42.586   4.726  12.528
99553W        W65962  31.630   1.498  10.811
99554W        W65963  15.545  44.943  12.621
99555W        W65964  12.804   7.586   1.910
99556W        W65965  43.747   1.733  11.053
99557W        W65966   2.673  13.454   3.435
99558W        W65967  43.247  36.382  11.703
99559W        W65968   2.764  42.520  14.809
99560W        W65969  44.063  24.213  13.770
99561W        W65970  36.494   8.722   0.470
99562W        W65971   8.826  18.853  11.812
99563W        W65972  31.484  34.540   4.467
99564W        W65973   3.748  32.939  12.081
99565W        W65974  25.118  13.778  13.994
99566W        W65975  43.869  37.462  11.163
99567W        W65976  31.604   5.931   3.279
99568W        W65977  14.876  37.174   4.413
99569W        W65978  35.430   4.478  13.112
99570W        W65979  14.044  10.443   3.275
99571W        W65980   9.030  36.812   3.611
99572W        W65981  35.776  24.766   2.125
99573W        W65982  10.099  11.511   2.551
99574W        W65983  33.403  11.450  11.568
99575W        W65984  17.574   9.518  14.907
99576W        W65985   4.923  15.813  13.575
99577W        W65986  29.596   8.735  14.598
99578W        W65987  15.882  35.035  11.100
99579W        W65988  23.663  29.972   1.241
99580W        W65989  12.169  31.675   2.315
99581W        W65990  22.571  39.518  11.858
99582W        W65991   9.978  39.617  13.808
99583W        W65992   9.663  10.932  12.078
99584W        W65993   7.855  24.203  11.917
99585W        W65994   8.792  22.054   2.781
99586W        W65995  30.607  19.763  12.571
99587W        W65996  30.616  16.143   2.012
99588W        W65997  15.215  15.786   3.114
99589W        W65998  18.534   4.516  14.388
99590W        W65999  14.926   0.075   2.327
99591W        W66000   1.887  43.469  14.960
99592W        W66001  43.257  32.465  13.517
99593W        W66002   6.570   7.032  11.183
99594W        W66003  20.562   3.876  13.143
99595W        W66004   3.654   0.414  13.357
99596W        W66005  15.137  11.657  11.062
99597W        W66006   0.906   2.652   0.599
99598W        W66007  21.252  44.001   2.093
99599W        W66008  39.868  26.126  10.805
99600W        W66009  24.634  23.856  10.664
99601W        W66010  38.478   7.257  13.477
99602W        W66011  23.319  38.575   1.904
99603W        W66012  17.677  43.967  11.603
99604W        W66013  32.313   3.292  12.518
99605W        W66014  26.236  13.522   4.228
99606W        W66015  31.420   2.760  12.509
99607W        W66016  42.382   4.258   2.328
99608W        W66017  26.197  19.219   4.318
99609W        W66018   7.009  22.642  11.301
99610W        W66019  11.850  15.827   0.494
99611W        W66020  39.902   0.918  12.471
99612W        W66021  33.444   7.315  11.959
99613W        W66022   3.133  31.450   1.993
99614W        W66023  24.435   1.876   2.745
99615W        W66024  40.969  43.355   4.063
99616W        W66025  37.475  31.350  11.125
99617W        W66026  11.311   8.523  11.101
99618W        W66027  20.551   8.557  13.271
99619W        W66028  21.643  21.293   4.995
99620W        W66029  31.245   5.712  11.852
99621W        W66030  36.443  19.964   0.992
99622W        W66031  44.226  24.695  14.941
99623W        W66032  12.975   0.452   2.850
99624W        W66033  16.277  44.513   2.007
99625W        W66034  26.071   4.328  11.582
99626W        W66035   0.723   6.955   0.489
99627W        W66036  38.220  15.041  10.675
99628W        W66037  37.330  36.444  13.926
99629W        W66038  21.171  21.065   3.136
99630W        W66039  22.122   2.279  11.165
99631W        W66040  43.349   2.838  12.509
99632W        W66041   4.991  22.904  11.661
99633W        W66042   2.533  42.240   0.192
99634W        W66043  36.982   2.019   0.529
99635W        W66044  28.298  37.275  11.509
99636W        W66045  22.938  15.457  12.593
99637W        W66046  22.681  40.843   2.954
99638W        W66047   7.603  14.231   2.000
99639W        W66048  27.128  16.798  14.959
99640W        W66049   4.450  30.397   1.029
99641W        W66050   2.782  28.134  11.460
99642W        W66051  21.479  23.989   4.703
99643W        W66052  18.723  12.283   4.196
99644W        W66053  38.645  17.244  12.962
99645W        W66054  25.981  22.543   1.707
99646W        W66055  20.882  43.282   1.487
99647W        W66056  17.549   7.203  10.648
99648W        W66057  34.998   3.266   0.968
99649W        W66058   7.853  15.333  13.869
99650W        W66059  14.335  37.547  14.858
99651W        W66060  18.115  15.691   0.331
99652W        W66061  44.976   2.906   2.650
99653W        W66062  37.779  21.986  11.534
99654W        W66063   3.443  43.754  13.486
99655W        W66064   7.937   0.834   2.383
99656W        W66065  36.401  37.648   1.665
99657W        W66066  16.553  39.066  14.410
99658W        W66067  35.053  10.450   2.872
99659W        W66068  39.703   6.236  13.011
99660W        W66069   4.831  20.083   0.239
99661W        W66070  27.572  31.835   4.163
99662W        W66071   4.221  11.804   1.340
99663W        W66072  22.174  12.225   1.852
99664W        W66073  42.790  40.534   3.897
99665W        W66074   5.682  37.038  11.219
99666W        W66075  10.832  28.726   2.804
99667W        W66076  20.651  12.746  10.808
99668W        W66077   3.242   9.672  11.029
99669W        W66078   7.564  41.797  11.580
99670W        W66079  10.847   9.367   3.344
99671W        W66080  44.860  44.439   1.994
99672W        W66081  24.667  17.211  10.964
99673W        W66082  23.556  23.185   2.665
99674W        W66083  18.647   3.032  12.535
99675W        W66084  14.353  34.485   2.817
99676W        W66085  15.304  15.782  12.632
99677W        W66086  29.510   8.737  11.562
99678W        W66087  25.535  26.653  14.557
99679W        W66088   4.402  20.017   2.382
99680W        W66089  19.627   2.245  10.647
99681W        W66090  41.523   0.925   4.596
99682W        W66091  26.009   7.312  10.668
99683W        W66092  32.802   8.356  12.458
99684W        W66093  37.055  20.606   3.208
99685W        W66094  36.776  16.302  12.724
99686W        W66095  44.912  16.488  14.872
99687W        W66096  37.007  39.587  13.847
99688W        W66097   9.397  13.854  13.890
99689W        W66098  28.435  38.702  12.087
99690W        W66099  38.379   1.864  11.232
99691W        W66100  29.345  43.051  13.311
99692W        W66101  21.618  11.473  13.917
99693W        W66102  15.714  12.657  13.109
99694W        W66103  34.356  37.639   3.947
99695W        W66104  29.935  20.153   3.877
99696W        W66105   4.407  18.457   0.794
99697W        W66106  28.929  38.855  12.003
99698W        W66107  23.142  33.156   3.652
99699W        W66108   0.968  14.243  14.400
99700W        W66109  33.103  19.556   3.644
99701W        W66110   3.409   5.122  12.675
99702W        W66111   6.611  17.337   4.189
99703W        W66112  22.399  43.469   0.478
99704W        W66113  38.323   1.964  13.996
99705W        W66114   2.749   2.768  13.060
99706W        W66115  25.659  17.329  12.851
99707W        W66116  44.022  43.284   2.663
99708W        W66117  11.277  37.441   2.453
99709W        W66118   7.917  28.781  11.496
99710W        W66119   1.092  32.008  10.327
99711W        W66120  41.348  33.152   4.553
99712W        W66121  32.832   8.709  11.591
99713W        W66122  25.781  24.349   3.764
99714W        W66123  10.604  18.667   0.492
99715W        W66124   1.321  38.804   1.668
99716W        W66125  35.430  22.204   3.210
99717W        W66126  16.002  41.912   4.993
99718W        W66127  44.102  41.426   0.332
99719W        W66128  37.332  41.544  14.830
99720W        W66129   3.225  32.486  14.831
99721W        W66130   2.991  40.388  12.108
99722W        W66131  33.659  31.457  13.930
99723W        W66132  35.005  14.548   1.324
99724W        W66133  36.193  17.725   3.642
99725W        W66134  11.287   9.954  10.668
99726W        W66135  31.931  24.147  14.804
99727W        W66136   6.693  11.808  12.180
99728W        W66137  27.913  16.681   0.882
99729W        W66138  25.038  19.463   1.906
99730W        W66139  20.775   7.288  12.925
99731W        W66140  17.631  13.079   3.646
99732W        W66141  40.514   9.459   2.772
99733W        W66142  13.880  15.037  12.870
99734W        W66143  14.825  27.736  12.510
99735W        W66144  38.833  28.188  14.995
99736W        W66145  16.119  25.397  11.966
99737W        W66146  10.792  36.465  12.012
99738W        W66147   8.672  14.741   4.237
99739W        W66148   5.750  28.234  12.488
99740W        W66149  36.224   3.257  12.083
99741W        W66150  37.139   2.259   4.626
99742W        W66151  23.092  17.318  14.892
99743W        W66152  22.265  29.292  13.827
99744W        W66153  22.893  42.599   0.218
99745W        W66154  13.787  39.953   0.331
99746W        W66155  17.751  17.762   4.009
99747W        W66156   4.536  18.277  14.918
99748W        W66157  28.392  19.080   1.982
99749W        W66158   8.706   0.722   2.857
99750W        W66159  43.719  22.583  14.499
99751W        W66160  28.740  38.969   4.234
99752W        W66161   6.800   6.854   2.293
99753W        W66162  19.847  22.533  13.330
99754W        W66163  41.524   0.968   0.732
99755W        W66164  26.889   3.486   0.974
99756W        W66165  24.439  14.708   3.764
99757W        W66166   3.383   6.742   4.561
99758W        W66167  20.579   0.309   2.743
99759W        W66168  41.528  43.767   1.724
99760W        W66169  26.042  25.007   1.402
99761W        W66170  10.209  17.711   3.211
99762W        W66171   9.531  19.145  11.574
99763W        W66172  25.070   7.843   3.366
99764W        W66173  11.709  37.665   0.744
99765W        W66174  35.452  38.619  11.479
99766W        W66175   1.262  19.743  11.675
99767W        W66176   6.674  30.726   0.215
99768W        W66177  32.038   1.882   3.750
99769W        W66178  26.629  26.295   3.230
99770W        W66179  39.946  24.320  14.323
99771W        W66180  28.216   7.412  11.919
99772W        W66181   1.187   4.900   3.172
99773W        W66182  16.332  37.497  13.063
99774W        W66183  23.982  41.619  14.794
99775W        W66184  11.770  16.688   3.096
99776W        W66185  34.451   9.487   4.578
99777W        W66186  14.212  39.527   4.077
99778W        W66187  35.989  37.976  13.567
99779W        W66188  28.868  25.519  12.922
99780W        W66189  19.793  26.790  11.420
99781W        W66190   1.923   8.337  12.706
99782W        W66191   0.936  26.777  14.788
99783W        W66192  13.539  20.122   3.270
99784W        W66193  13.201   0.458  12.050
99785W        W66194   2.921   9.830  12.999
99786W        W66195  44.756  10.003  14.419
99787W        W66196  44.175  34.436  14.805
99788W        W66197  31.409  35.534  11.025
99789W        W66198  36.651  18.039   4.977
99790W        W66199   7.429  44.139   1.830
99791W        W66200  17.730  12.828  12.415
99792W        W66201  28.459   4.629   5.258
99793W        W66202  16.161   0.063  11.963
99794W        W66203  32.416  17.169  13.046
99795W        W66204  12.164  37.652  10.597
99796W        W66205  13.170  16.293   4.871
99797W        W66206   6.734  35.640  12.463
99798W        W66207  30.879  27.207   1.638
99799W        W66208  14.615  38.869   3.107
99800W        W66209  13.307   3.182   3.114
99801W        W66210   1.614  26.149   4.476
99802W        W66211  31.116  10.952  13.135
99803W        W66212  28.149  11.671   1.497
99804W        W66213  34.697  44.899   4.670
99805W        W66214  38.112  15.642   3.754
99806W        W66215  33.061  21.449  10.621
99807W        W66216  12.886  13.622  13.336
99808W        W66217   9.628  30.937  10.303
99809W        W66218   6.930   0.378  10.880
99810W        W66219  12.239   5.217  12.166
99811W        W66220   7.809  14.178  13.392
99812W        W66221  28.477  12.711  14.420
99813W        W66222  35.576   5.191  14.905
99814W        W66223   5.484  16.802   0.775
99815W        W66224  16.759  10.411  11.990
99816W        W66225  11.451  35.556   3.819
99817W        W66226  35.042   6.589   0.840
99818W        W66227  11.118  26.431   4.146
99819W        W66228  37.956  22.463  11.570
99820W        W66229  40.147  32.026  13.971
99821W        W66230  15.296  18.126  14.908
99822W        W66231   2.603  24.003  13.882
99823W        W66232  29.451   8.686   1.781
99824W        W66233  24.490  33.023  10.720
99825W        W66234  31.056  22.668   2.949
99826W        W66235  10.394   5.884   2.890
99827W        W66236  11.184   5.156   0.316
99828W        W66237  20.097  18.711   1.993
99829W        W66238  18.058  16.599   1.312
99830W        W66239  15.525  42.565  14.383
99831W        W66240   9.784  10.279   2.573
99832W        W66241  16.098  31.008   4.090
99833W        W66242   2.245  38.946  12.953
99834W        W66243  42.854  40.761  13.454
99835W        W66244  18.336  10.270   3.085
99836W        W66245   4.329  27.367  11.935
99837W        W66246  37.118  23.152   0.847
99838W        W66247  31.205   5.731   4.182
99839W        W66248  39.881  11.341  12.393
99840W        W66249   3.439  44.758  13.348
99841W        W66250  17.179  17.103  14.575
99842W        W66251   1.802  37.033   3.628
99843W        W66252  31.515   8.256   3.408
99844W        W66253  35.282  18.975   2.824
99845W        W66254  12.630   6.098   1.460
99846W        W66255   0.900  24.008   1.325
99847W        W66256  33.331  35.847   1.438
99848W        W66257  25.030  23.970   4.146
99849W        W66258  24.417   1.471  14.007
99850W        W66259  19.292  25.925  14.034
99851W        W66260  36.745   6.783   4.494
99852W        W66261  25.481  41.053  14.193
99853W        W66262  38.907  39.963   0.915
99854W        W66263  44.527  21.304  10.818
99855W        W66264  44.956  28.576   2.391
99856W        W66265   7.629   8.795   1.402
99857W        W66266   0.025  15.600   4.105
99858W        W66267   9.839  35.484   0.608
99859W        W66268  36.824  31.854  12.380
99860W        W66269   7.948  30.641  10.811
99861W        W66270  44.604  11.698  12.567
99862W        W66271  21.698  15.114   0.284
99863W        W66272  30.017  32.626   0.939
99864W        W66273  26.305  43.703   0.471
99865W        W66274   2.003  24.292  11.530
99866W        W66275  21.505  13.320   0.384
99867W        W66276  34.119   6.301   3.324
99868W        W66277  43.932  40.305   2.509
99869W        W66278  13.026   7.164   4.958
99870W        W66279  31.102  40.539   2.015
99871W        W66280  19.684  11.028  14.523
99872W        W66281   4.849  18.087  13.634
99873W        W66282  29.926  42.367  11.543
99874W        W66283   1.812   3.720   3.393
99875W        W66284  35.876  15.615   1.935
99876W        W66285   6.955   4.392   2.615
99877W        W66286  41.363  29.573  13.361
99878W        W66287  36.385   8.171  12.905
99879W        W66288  42.038  26.345  13.474
99880W        W66289  28.511  14.346   3.234
99881W        W66290   6.292  17.713  12.671
99882W        W66291  34.044  35.246   1.095
99883W        W66292  41.368  32.021   1.990
99884W        W66293  15.806  11.805   3.196
99885W        W66294  30.439  41.295  13.941
99886W        W66295  44.534   8.143   1.176
99887W        W66296  37.940  20.509   2.157
99888W        W66297  25.276  30.067  13.773
99889W        W66298  22.395  17.221  11.233
99890W        W66299  25.010  32.686   1.318
99891W        W66300  14.342   8.209   4.268
99892W        W66301  19.025  13.260  11.189
99893W        W66302   8.375  18.195  12.069
99894W        W66303   8.998  12.541  11.282
99895W        W66304  23.689   7.286  10.592
99896W        W66305  10.190  23.069  12.226
99897W        W66306  28.200   1.456  11.641
99898W        W66307  32.524  18.514   4.566
99899W        W66308  19.124   7.347   0.638
99900W        W66309  42.256  14.330   4.532
99901W        W66310   8.361   0.772  13.008
99902W        W66311  33.852  15.517  14.832
99903W        W66312  12.896  23.523  13.920
99904W        W66313  13.604  12.234  11.807
99905W        W66314  39.528   0.893  14.200
99906W        W66315   2.028  32.363  12.191
99907W        W66316  16.801  20.023  14.115
99908W        W66317  18.681  11.252   3.745
99909W        W66318  24.980  37.501  13.937
99910W        W66319  41.083  39.605  13.295
99911W        W66320  35.077  15.015   0.354
99912W        W66321  24.421  43.778  11.591
99913W        W66322   1.073  21.828   4.580
99914W        W66323  36.616  28.464  14.955
99915W        W66324   3.312  18.190  10.994
99916W        W66325  35.551   7.611  13.851
99917W        W66326  11.646  25.926  10.630
99918W        W66327  22.142  22.915  13.789
99919W        W66328   2.381  10.491  12.029
99920W        W66329  39.392  24.604  13.355
99921W        W66330  42.666  13.600  13.158
99922W        W66331  41.573  11.012   0.197
99923W        W66332  17.778  43.525  14.380
99924W        W66333  28.114  39.086   0.885
99925W        W66334  12.714  13.653  13.818
99926W        W66335   3.029  22.587  11.110
99927W        W66336  38.047  39.777   2.363
99928W        W66337   0.629   1.339   3.715
99929W        W66338  31.636  34.932  13.470
99930W        W66339  34.841  16.948   2.739
99931W        W66340  27.624   3.427   0.352
99932W        W66341  21.307  20.699   2.793
99933W        W66342   9.628  42.862  11.463
99934W        W66343  40.998  15.198   1.935
99935W        W66344  43.729  19.763   2.661
99936W        W66345   9.674   3.743  13.442
99937W        W66346  38.030  32.707  14.809
99938W        W66347  32.778  19.768   0.750
99939W        W66348  19.248   6.295   0.857
99940W        W66349  41.491   5.996  11.417
99941W        W66350  33.431  13.646   3.247
99942W        W66351  10.171  37.328   9.914
99943W        W66352  16.228  11.803  11.075
99944W        W66353  32.130   5.856  13.904
99945W        W66354  26.060  39.229   3.776
99946W        W66355   3.621  43.670  14.846
99947W        W66356  20.091  43.839  14.295
99948W        W66357  41.791  26.947  10.631
99949W        W66358  17.185   3.069  12.064
99950W        W66359  18.718  20.858  10.263
99951W        W66360  16.648  19.293  14.714
99952W        W66361  37.411  22.451  10.948
99953W        W66362  32.744  38.215  14.803
99954W        W66363  27.499  34.690   0.157
99955W        W66364  13.750   3.655   2.840
99956W        W66365  44.435   3.974   3.076
99957W        W66366   1.565  12.856  13.478
99958W        W66367  23.640  10.659   0.430
99959W        W66368  18.217   6.642   1.859
99960W        W66369  25.448   1.971  13.334
99961W        W66370  32.666  33.467   2.369
99962W        W66371  14.122  12.840   2.792
99963W        W66372   9.173  16.778   3.297
99964W        W66373   2.991  33.627   1.878
99965W        W66374  38.118  19.406  10.905
99966W        W66375  18.617  12.736   2.136
99967W        W66376  30.983  38.831   1.346
99968W        W66377   2.846  41.926   4.080
99969W        W66378  18.737  19.892  11.152
99970W        W66379  14.291  12.950   1.923
99971W        W66380  10.169  42.334   1.420
99972W        W66381  12.916   8.704  12.897
99973W        W66382   9.400  24.531   3.549
99974W        W66383  22.138  12.398  14.004
99975W        W66384  35.371  21.928  13.523
99976W        W66385  20.023  19.591   5.150
99977W        W66386  23.532  39.619  12.564
99978W        W66387   1.356  14.101   1.299
99979W        W66388  10.791   2.029  12.508
99980W        W66389  15.519  12.221  14.447
99981W        W66390   7.594  17.247  11.662
99982W        W66391  15.581  34.334   3.230
99983W        W66392  39.579   8.251   1.400
99984W        W66393   5.032  16.684  13.553
99985W        W66394   2.995  20.213   2.110
99986W        W66395   5.286  13.276   4.739
99987W        W66396   0.600  19.586  13.923
99988W        W66397  42.341  18.649   1.335
99989W        W66398  43.202   4.658   2.201
99990W        W66399   0.879  13.332   4.497
99991W        W66400  32.333  35.999  12.482
99992W        W66401  24.264   0.369  10.325
99993W        W66402  28.187  27.924  12.983
99994W        W66403  32.425  25.344  11.529
99995W        W66404   9.777  24.185  12.564
99996W        W66405  30.128  35.870   4.246
99997W        W66406  19.666  30.600  10.291
99998W        W66407  36.058  39.540   4.095
99999W        W66408  33.109  27.234   2.513
    0W        W66409   8.894  29.550   2.183
    1W        W66410   5.836  13.676  11.868
    2W        W66411  13.842  34.273  10.239
    3W        W66412   4.221  22.746   0.244
    4W        W66413  30.916  12.442  13.406
    5W        W66414   7.837  35.494   1.682
    6W        W66415  19.023  35.580   2.381
    7W        W66416   1.182  44.526   3.612
    8W        W66417  40.751   6.298   4.656
    9W        W66418   9.788   9.804   3.357
   10W        W66419  20.337  28.240  13.493
   11W        W66420   8.343  41.699   1.820
   12W        W66421  41.278   1.009  14.851
   13W        W66422  30.931   4.460   3.689
   14W        W66423  39.009  18.145   2.426
   15W        W66424  39.362  17.648  14.282
   16W        W66425  39.524  37.420   4.129
   17W        W66426  18.612   8.341   4.720
   18W        W66427  13.183  20.225  10.588
   19W        W66428  37.404   9.774  14.896
   20W        W66429   9.293   5.951   1.329
   21W        W66430  33.357  29.995   2.279
   22W        W66431  25.581   0.031   3.159
   23W        W66432  31.144  13.359  13.437
   24W        W66433  17.288  20.593  11.172
   25W        W66434  13.099  27.536  14.331
   26W        W66435  31.009  29.424  12.597
   27W        W66436  41.117  26.553  10.568
   28W        W66437   4.134  26.672  11.937
   29W        W66438  29.473  26.151  11.124
   30W        W66439   6.674  27.608  14.472
   31W        W66440  16.334  14.015   1.779
   32W        W66441  15.077  22.059   0.728
   33W        W66442  22.623   7.788  11.180
   34W        W66443  12.759  22.559   3.664
   35W        W66444   3.878  25.218  12.407
   36W        W66445  40.322  30.150   1.357
   37W        W66446  36.578   5.267  14.815
   38W        W66447  27.456  10.798  13.395
   39W        W66448  28.580  38.829   4.816
   40W        W66449  38.791  42.381  11.219
   41W        W66450  36.533  33.447  12.892
   42W        W66451  32.794  23.713  13.872
   43W        W66452   3.333  12.986  13.109
   44W        W66453   3.295  19.804  13.000
   45W        W66454  14.181  21.773  13.957
   46W        W66455  13.702  43.845  10.694
   47W        W66456  44.882  24.711  13.644
   48W        W66457  10.856   1.861   2.146
   49W        W66458  36.047  39.442   0.712
   50W        W66459  13.630   7.774   4.619
   51W        W66460  30.887  18.653  12.920
   52W        W66461  11.348  38.622   0.223
   53W        W66462  16.756  30.629   3.634
   54W        W66463  19.150  27.974   3.129
   55W        W66464  25.182  34.487   4.787
   56W        W66465  32.935  39.086   9.877
   57W        W66466  33.497   8.412   3.887
   58W        W66467   6.211   8.789  13.922
   59W        W66468  32.991  22.976  14.565
   60W        W66469  37.499  24.240   3.283
   61W        W66470   7.125   8.146   1.914
   62W        W66471   7.362  34.918   2.708
   63W        W66472  17.495  28.987  13.879
   64W        W66473  12.010  32.671  14.485
   65W        W66474  42.852  13.727  10.805
   66W        W66475  37.891  40.711   2.932
   67W        W66476  25.194  35.871   0.744
   68W        W66477  26.797  36.367   1.869
   69W        W66478  23.757   7.845   4.593
   70W        W66479  10.764  42.580  13.862
   71W        W66480  33.876  27.135   1.413
   72W        W66481  17.113  22.274   2.239
   73W        W66482  41.041  18.611  12.500
   74W        W66483  25.833  26.253  11.518
   75W        W66484  28.260  27.261   3.329
   76W        W66485  22.118  13.248  10.339
   77W        W66486  20.539  24.646  14.679
   78W        W66487   2.378  24.733  13.294
   79W        W66488  36.064   2.421   4.510
   80W        W66489   4.824  25.129  14.406
   81W        W66490  10.919  37.634   5.098
   82W        W66491  33.068  12.126  14.275
   83W        W66492  29.140  33.995  13.805
   84W        W66493  37.202  44.558   2.135
   85W        W66494  34.435  39.308   1.458
   86W        W66495  41.522  10.124   0.771
   87W        W66496   8.944  23.633   4.031
   88W        W66497  17.166   2.723  11.132
   89W        W66498  16.875  23.992   3.426
   90W        W66499  14.598  33.878  14.755
   91W        W66500  32.611  35.495  10.653
   92W        W66501  23.734   0.013   2.299
   93W        W66502  44.705  35.444   1.261
   94W        W66503  20.785   5.358  11.212
   95W        W66504  13.293  21.677   2.333
   96W        W66505  21.042   2.776  11.601
   97W        W66506  33.645   6.554   1.217
   98W        W66507  38.849  17.888   0.775
   99W        W66508   1.688  34.183   2.169
  100W        W66509  38.997   6.631   1.466
  101W        W66510   5.996  27.612  14.945
  102W        W66511  16.193  42.942  13.880
  103W        W66512  34.712  24.938  14.845
  104W        W66513  14.018  38.348  12.855
  105W        W66514  11.951  21.269   4.633
  106W        W66515  34.840   6.671  10.165
  107W        W66516  29.811  24.274   1.898
  108W        W66517  38.373  24.914  11.570
  109W        W66518  37.212  25.169   1.987
  110W        W66519  12.655  15.886   1.754
  111W        W66520  42.240  34.202  14.522
  112W        W66521  13.610  43.485  14.021
  113W        W66522  43.789  35.827  13.279
  114W        W66523   9.876  43.896   3.702
  115W        W66524  15.616  36.773   0.847
  116W        W66525  19.073  34.573   2.265
  117W        W66526   8.421  24.064   3.075
  118W        W66527   9.096  35.503  13.577
  119W        W66528  23.725  28.641  13.357
  120W        W66529  13.864  40.528   2.419
  121W        W66530  16.640  30.199   3.909
  122W        W66531  29.776  15.501  14.376
  123W        W66532  14.113  37.924  13.868
  124W        W66533  29.097  36.872   2.305
  125W        W66534  29.109  42.527   2.786
  126W        W66535   6.784  33.668   1.268
  127W        W66536  18.119  35.143   3.719
  128W        W66537  35.569  21.682  10.571
  129W        W66538  15.539   4.669  10.822
  130W        W66539   7.427  18.199  12.138
  131W        W66540  17.453  11.919   1.952
  132W        W66541  26.089  37.853   3.371
  133W        W66542  30.146  37.610  13.325
  134W        W66543   8.332  17.271   4.610
  135W        W66544   2.033  36.029  11.462
  136W        W66545   4.996  33.792   5.047
  137W        W66546  33.058  43.510  11.560
  138W        W66547  37.817  18.744  11.660
  139W        W66548  36.431  44.195   2.372
  140W        W66549   2.228   0.832  11.171
  141W        W66550  15.082  29.974  13.327
  142W        W66551  44.458  18.281   3.291
  143W        W66552  25.674  24.736  11.979
  144W        W66553  25.729  41.403  10.940
  145W        W66554  10.164  22.891  14.932
  146W        W66555  20.718  27.473  12.136
  147W        W66556  24.226  28.616   2.132
  148W        W66557  43.356   0.785  14.474
  149W        W66558  14.369   9.806  13.416
  150W        W66559  18.560  36.183  10.039
  151W        W66560  26.690  29.613   0.283
  152W        W66561  17.806  12.323   2.829
  153W        W66562  38.742  39.785   0.466
  154W        W66563  26.014  41.209   3.156
  155W        W66564   4.960  38.081   2.867
  156W        W66565  30.116   7.917  12.598
  157W        W66566  16.793  28.181   3.414
  158W        W66567  17.270  12.237   3.797
  159W        W66568  27.036   0.264  13.345
  160W        W66569  14.687  13.038  11.121
  161W        W66570  35.163   4.482   0.312
  162W        W66571  43.592  21.968   0.195
  163W        W66572  37.263   0.699  12.392
  164W        W66573  25.360  11.584  12.361
  165W        W66574  32.353   2.257  13.003
  166W        W66575  33.360   8.179  14.435
  167W        W66576  24.550  43.826   4.672
  168W        W66577  16.689  42.971  12.063
  169W        W66578  34.545  42.566   4.507
  170W        W66579  25.053   8.137  10.154
  171W        W66580  10.620  18.802  14.997
  172W        W66581  40.127  19.481   3.246
  173W        W66582  44.910  19.065  13.822
  174W        W66583  37.853  36.847  13.466
  175W        W66584   5.923  35.008   0.172
  176W        W66585  17.637  19.135  14.896
  177W        W66586  44.442  33.931  14.528
  178W        W66587  42.955   2.695  10.810
  179W        W66588  29.953  35.858  12.081
  180W        W66589   8.320  18.610  10.694
  181W        W66590   7.652  16.816  10.631
  182W        W66591  25.127  17.400  11.166
  183W        W66592  23.416  44.220  12.407
  184W        W66593   9.772  27.110   3.334
  185W        W66594  19.773  36.485  12.256
  186W        W66595  14.736  14.082  14.909
  187W        W66596  28.613   7.937   1.740
  188W        W66597  12.871  30.899   2.475
  189W        W66598   5.508  39.977  10.893
  190W        W66599   6.662  21.955   5.186
  191W        W66600  31.875  17.381  11.950
  192W        W66601  18.249  20.831   4.064
  193W        W66602   0.931  27.555   2.260
  194W        W66603  20.799  22.513   3.625
  195W        W66604  24.996  12.369   2.304
  196W        W66605  42.306   2.030  14.536
  197W        W66606  25.434  36.858  13.511
  198W        W66607  35.572  15.244  10.634
  199W        W66608  20.361  30.970   4.207
  200W        W66609  25.664  36.096   4.633
  201W        W66610  21.038  43.766   1.426
  202W        W66611  10.342   8.668   1.330
  203W        W66612  12.725  33.224  14.052
  204W        W66613   7.837  14.285   2.975
  205W        W66614   2.671   4.207   0.314
  206W        W66615   6.001   7.785   0.296
  207W        W66616   9.301  19.758   3.254
  208W        W66617  29.400  26.717  10.556
  209W        W66618  19.036  16.150  13.906
  210W        W66619  22.175  26.223  14.580
  211W        W66620  35.341  39.444   4.955
  212W        W66621  40.201   4.468  10.886
  213W        W66622  30.843  34.010  14.610
  214W        W66623  16.303  25.855  12.099
  215W        W66624  26.223  28.951  14.803
  216W        W66625  38.198  36.960  13.851
  217W        W66626  30.737   4.259   4.818
  218W        W66627  42.825   7.398  14.031
  219W        W66628   0.899  44.069  14.631
  220W        W66629  29.917  39.439  13.925
  221W        W66630  44.897  18.341  13.038
  222W        W66631  15.766  27.444  10.473
  223W        W66632  21.406  32.069   3.982
  224W        W66633  13.437  43.858   3.159
  225W        W66634  30.848  25.517  13.036
  226W        W66635  16.608  36.541  10.286
  227W        W66636   6.886  41.995  13.446
  228W        W66637  40.818  33.346  14.937
  229W        W66638  12.609  39.785   3.209
  230W        W66639  15.840  43.864  11.628
  231W        W66640  23.114  28.665  10.723
  232W        W66641  22.569  22.514  11.413
  233W        W66642  24.203  34.308   0.437
  234W        W66643  26.504  15.099  12.482
  235W        W66644  44.031   1.545   2.934
  236W        W66645  32.573  17.988   2.405
  237W        W66646  41.788  16.696   0.820
  238W        W66647  15.001  15.592   2.648
  239W        W66648  33.453  28.770   1.864
  240W        W66649  12.378   5.405  14.785
  241W        W66650  19.907  25.044  10.840
  242W        W66651  27.087  28.600   4.708
  243W        W66652  37.019  35.339   1.929
  244W        W66653  33.578  34.076   3.396
  245W        W66654   3.783   9.112   2.543
  246W        W66655  42.404  17.844  10.635
  247W        W66656   4.688   5.927  12.585
  248W        W66657  28.076   0.604   0.714
  249W        W66658  39.123  37.241  10.661
  250W        W66659  29.074   8.406   3.089
  251W        W66660  20.129  42.321  11.064
  252W        W66661  12.743  38.385   2.323
  253W        W66662  30.161  22.063   0.479
  254W        W66663  44.446  12.672  14.017
  255W        W66664  26.986  10.344   3.728
  256W        W66665   1.341  27.173  13.692
  257W        W66666  25.112   9.599   3.700
  258W        W66667  30.173  22.094  12.579
  259W        W66668  16.326  41.377  10.577
  260W        W66669  29.220  19.711   4.200
  261W        W66670   9.835   4.144  14.333
  262W        W66671  21.483   6.064   2.451
  263W        W66672  34.480  27.962   3.398
  264W        W66673  15.555  13.180  11.265
  265W        W66674  39.121  39.484   2.874
  266W        W66675  41.344  37.831   2.414
  267W        W66676   9.091  15.858   4.151
  268W        W66677  32.564  40.449   4.535
  269W        W66678   7.570  33.903   4.486
  270W        W66679  30.411  20.739  11.548
  271W        W66680  23.645  37.102   3.627
  272W        W66681   2.800   3.647   4.265
  273W        W66682  25.788  34.580   2.231
  274W        W66683  19.135  11.183   4.663
  275W        W66684   1.727   6.200   2.649
  276W        W66685  23.667  18.832   2.283
  277W        W66686  25.263  20.822   1.602
  278W        W66687  29.811  11.803  10.361
  279W        W66688  32.443   6.847  10.714
  280W        W66689  32.533   0.897  14.775
  281W        W66690  22.152  30.254   5.022
  282W        W66691  24.749   3.822  12.424
  283W        W66692  13.125  11.059   2.569
  284W        W66693  18.195  38.103   1.749
  285W        W66694  31.620  11.301  10.526
  286W        W66695  21.461  11.688  14.824
  287W        W66696  24.149  12.604   1.507
  288W        W66697   6.013  27.705  11.309
  289W        W66698  25.490  24.506   0.935
  290W        W66699   8.161   9.444  13.658
  291W        W66700  32.954  10.767   0.569
  292W        W66701  15.122   1.820   1.777
  293W        W66702   1.846  32.698   5.458
  294W        W66703  21.112  21.958  12.939
  295W        W66704   0.943  40.481   1.806
  296W        W66705  25.523   3.885   2.146
  297W        W66706  16.139   6.002  12.036
  298W        W66707  16.135   2.788   2.896
  299W        W66708   5.346  18.167  11.508
  300W        W66709  19.856  43.895  11.644
  301W        W66710  43.227  10.023   2.676
  302W        W66711  30.551   8.066   9.638
  303W        W66712  27.151   6.154   0.295
  304W        W66713  43.469  42.012  11.390
  305W        W66714   5.404  16.083  13.009
  306W        W66715   3.554  18.849  10.758
  307W        W66716  29.553  23.102   2.389
  308W        W66717  40.361  22.379  13.063
  309W        W66718  24.206  17.585  10.297
  310W        W66719  43.312  27.534  11.542
  311W        W66720   5.994   1.235   4.216
  312W        W66721  17.765  24.460   0.527
  313W        W66722   5.938  33.667   2.330
  314W        W66723  41.700  39.774   0.340
  315W        W66724  15.847  11.337   9.741
  316W        W66725  13.863  27.065   1.634
  317W        W66726  42.896   9.283  12.678
  318W        W66727   7.543  39.796  10.745
  319W        W66728   3.366  12.580  12.699
  320W        W66729   4.985  33.060  10.595
  321W        W66730  25.525  28.419  11.075
  322W        W66731  11.787  33.015   3.603
  323W        W66732  13.845   5.801   4.001
  324W        W66733  17.582  38.333  10.989
  325W        W66734  17.676  19.464  12.418
  326W        W66735  38.907  35.884  10.930
  327W        W66736  37.494  26.677  10.517
  328W        W66737   5.379  27.062   1.774
  329W        W66738  31.401  15.991   3.495
  330W        W66739  36.528  17.044   0.893
  331W        W66740  15.565  18.791   2.280
  332W        W66741  27.962  37.345   4.178
  333W        W66742   6.014  35.895  11.972
  334W        W66743  17.729  20.940   2.834
  335W        W66744  23.878  31.384  12.881
  336W        W66745  24.785  39.283   3.425
  337W        W66746  23.986  34.430  14.014
  338W        W66747  41.326  30.374   2.765
  339W        W66748  42.122  44.185  13.884
  340W        W66749   4.819  32.561   4.214
  341W        W66750  35.449  32.213   3.304
  342W        W66751   1.802  42.979  13.418
  343W        W66752  29.947  41.250  11.695
  344W        W66753  18.424  17.837  14.493
  345W        W66754  31.453  14.170   1.398
  346W        W66755  14.551  19.156   0.479
  347W        W66756  25.119  22.719  11.347
  348W        W66757  42.967  35.956   3.125
  349W        W66758   1.653  39.493  11.610
  350W        W66759  32.924  29.044  12.632
  351W        W66760  33.118  17.022   0.286
  352W        W66761  24.034  12.109   1.327
  353W        W66762  29.608  42.521  12.368
  354W        W66763  11.110   6.797   4.449
  355W        W66764  22.111   0.768  14.314
  356W        W66765  29.504   7.670  13.360
  357W        W66766  41.763   4.789   1.063
  358W        W66767   5.913  33.166   0.671
  359W        W66768  38.197  37.174   3.085
  360W        W66769  31.755  33.102  12.782
  361W        W66770   4.850   3.462  10.609
  362W        W66771  37.575  18.775   5.003
  363W        W66772   1.722  39.813  13.640
  364W        W66773  32.983   8.843  12.443
  365W        W66774  20.755  35.452  14.409
  366W        W66775  22.437  25.413   1.920
  367W        W66776  19.200   1.271  10.624
  368W        W66777   2.830  22.674   0.755
  369W        W66778  36.792  20.844   3.693
  370W        W66779  30.921   8.167  12.646
  371W        W66780  27.592  34.171  11.610
  372W        W66781  26.959  37.426   4.260
  373W        W66782  28.870  29.549   0.508
  374W        W66783  36.429   0.996   2.900
  375W        W66784  13.740  16.178  10.465
  376W        W66785  26.758  30.729   3.793
  377W        W66786  22.774   5.792   3.530
  378W        W66787  26.276  22.869   0.287
  379W        W66788  39.456  39.097   2.807
  380W        W66789   0.803   3.821  13.344
  381W        W66790   0.158  41.334  12.388
  382W        W66791  12.726  44.029  14.507
  383W        W66792  15.281  25.716  11.577
  384W        W66793  33.146  13.188   4.915
  385W        W66794   0.568  36.043  10.297
  386W        W66795  22.224   7.310   4.009
  387W        W66796  42.745  12.123  12.227
  388W        W66797  32.018  11.831  11.975
  389W        W66798  19.022   4.412   4.015
  390W        W66799  23.905   0.529  11.636
  391W        W66800  29.351  37.508   5.087
  392W        W66801  41.090  30.813  14.756
  393W        W66802  14.073   9.298   0.420
  394W        W66803  38.950  15.651  13.745
  395W        W66804  42.764   4.285  12.378
  396W        W66805  39.190  33.888   0.440
  397W        W66806  28.904  33.357   1.421
  398W        W66807  17.115  12.847  10.170
  399W        W66808   9.896  30.262   3.707
  400W        W66809  16.145  34.030   4.257
  401W        W66810  27.248   4.203  13.555
  402W        W66811   5.815   7.887   4.517
  403W        W66812  28.466  43.836   2.142
  404W        W66813  16.070  39.729   0.825
  405W        W66814  22.461  14.769  13.022
  406W        W66815  30.031  27.073   4.550
  407W        W66816  13.323   8.425  12.660
  408W        W66817  29.397  34.310   0.378
  409W        W66818   4.192  21.667  13.513
  410W        W66819  26.002  41.703   4.915
  411W        W66820  40.347   3.033  14.853
  412W        W66821  35.508  25.279   4.229
  413W        W66822  15.685  43.954  13.070
  414W        W66823  18.293  41.882   4.133
  415W        W66824  32.404  44.026   3.617
  416W        W66825   4.178  43.556  14.017
  417W        W66826  40.422  13.321   3.160
  418W        W66827   6.443  11.859   3.386
  419W        W66828  44.227   0.290  14.843
  420W        W66829   6.939  35.052  13.105
  421W        W66830  22.090   0.607   2.807
  422W        W66831  18.776  19.138  13.790
  423W        W66832   1.820  27.199  13.844
  424W        W66833   2.311  10.563   0.329
  425W        W66834  13.166  28.228  13.255
  426W        W66835  12.662  22.031   0.566
  427W        W66836  14.698  28.132  12.164
  428W        W66837  39.483  32.887   0.249
  429W        W66838  33.399  20.571  13.418
  430W        W66839  34.259  18.362   3.624
  431W        W66840  26.428  28.615  10.742
  432W        W66841  14.122  37.796  11.680
  433W        W66842  35.367  19.615   4.192
  434W        W66843   3.817   6.148   2.853
  435W        W66844   8.315  36.963   4.236
  436W        W66845  43.032  12.535  12.184
  437W        W66846  12.351  43.311  11.289
  438W        W66847   9.914  25.864  14.831
  439W        W66848   4.621  25.958  14.384
  440W        W66849  21.245   2.843   0.724
  441W        W66850  15.044  24.195  11.533
  442W        W66851  10.933  37.172   3.143
  443W        W66852  44.419  18.189   2.322
  444W        W66853  41.128  44.996   0.007
  445W        W66854  30.467  12.883  13.000
  446W        W66855  26.132   8.872   3.103
  447W        W66856  37.026   7.486   1.161
  448W        W66857   8.609  28.062   2.236
  449W        W66858  43.067  14.726   0.252
  450W        W66859  16.274  15.169   2.715
  451W        W66860  11.003  23.219   0.363
  452W        W66861  26.561  18.419  11.063
  453W        W66862  32.878   1.855  12.666
  454W        W66863   0.670   1.383  11.198
  455W        W66864  25.815  43.872   4.253
  456W        W66865  10.264  35.200   5.329
  457W        W66866  44.050  35.931   3.975
  458W        W66867  14.567  42.442   0.273
  459W        W66868  28.774  37.429   9.997
  460W        W66869   9.660   1.424  14.336
  461W        W66870  24.021  12.604  12.069
  462W        W66871  11.243  17.840  12.181
  463W        W66872  37.442   6.436   3.660
  464W        W66873  34.874  15.273   0.825
  465W        W66874   0.523  11.599  11.208
  466W        W66875  16.618   6.936  14.815
  467W        W66876   4.789  25.107  10.233
  468W        W66877  43.902  21.252  14.789
  469W        W66878  24.652  38.882   1.228
  470W        W66879  18.238  39.099   4.630
  471W        W66880  11.881   9.794   4.201
  472W        W66881  35.937  16.285  13.477
  473W        W66882   0.418  30.503  10.826
  474W        W66883  26.986  28.591  10.759
  475W        W66884  17.825  13.357  14.851
  476W        W66885  10.812   9.176  14.539
  477W        W66886  25.093   5.106   4.496
  478W        W66887  15.689  17.933   3.553
  479W        W66888  20.606  14.626   0.840
  480W        W66889   3.906   6.725  10.477
  481W        W66890  18.533  42.443  11.617
  482W        W66891  12.730  15.926   9.725
  483W        W66892  10.911  28.509   4.795
  484W        W66893   8.881  43.820   0.052
  485W        W66894  41.098  34.336  13.951
  486W        W66895   8.422  26.618  10.914
  487W        W66896   4.373   8.077  14.460
  488W        W66897  40.521  42.865   1.385
  489W        W66898  26.841  20.633  10.111
  490W        W66899   6.209  14.046   4.174
  491W        W66900  12.220  18.217  13.321
  492W        W66901  29.079  30.561   4.564
  493W        W66902  43.273  11.698  13.393
  494W        W66903  36.279  40.310   2.051
  495W        W66904  18.022  25.432   1.494
  496W        W66905  31.102  27.570   1.348
  497W        W66906  38.476  24.653  12.060
  498W        W66907  21.451  33.667  13.312
  499W        W66908  27.616  32.011  13.975
  500W        W66909  29.887  36.044   0.315
  501W        W66910   2.467   5.627  11.840
  502W        W66911  20.650  35.569  11.237
  503W        W66912   4.741  39.229   1.676
  504W        W66913  12.854  41.399  10.393
  505W        W66914   4.178  17.469  11.704
  506W        W66915  13.855  16.175   1.264
  507W        W66916   7.468  42.851   4.951
  508W        W66917  29.651   6.879   1.312
  509W        W66918  26.089  28.651   1.834
  510W        W66919  20.492  31.615  12.009
  511W        W66920  34.870  33.565   3.230
  512W        W66921  33.449  40.244  13.264
  513W        W66922  20.772   9.240  14.785
  514W        W66923  43.853  24.924   4.423
  515W        W66924  28.704  43.404  11.947
  516W        W66925  39.985   3.349  14.588
  517W        W66926  10.242   4.305  13.353
  518W        W66927  44.528  21.566   4.427
  519W        W66928  18.083  35.363   1.271
  520W        W66929   1.396  21.441   0.954
  521W        W66930  28.115   4.748   2.375
  522W        W66931  21.554   9.391  10.768
  523W        W66932  19.783  17.169  11.617
  524W        W66933  15.927  31.872   0.162
  525W        W66934  10.678  31.400   4.748
  526W        W66935   9.635  21.146   4.548
  527W        W66936  20.995  23.434  14.089
  528W        W66937  25.585  25.258  14.752
  529W        W66938  40.224  38.512  12.441
  530W        W66939  25.178   4.669   2.194
  531W        W66940   5.392  25.000   1.093
  532W        W66941  19.947   8.104   0.829
  533W        W66942  32.500  16.861  13.777
  534W        W66943  38.780  14.085   3.212
  535W        W66944  44.748  35.331  13.441
  536W        W66945  40.808  18.403   1.417
  537W        W66946  25.198  33.141   4.091
  538W        W66947  42.938   8.410  14.267
  539W        W66948  29.700   6.084   5.159
  540W        W66949  10.670  22.777  10.482
  541W        W66950  20.111  37.352  10.748
  542W        W66951  43.023  17.636   2.106
  543W        W66952  17.306  14.318  14.855
  544W        W66953   0.521  33.658  10.838
  545W        W66954  10.465  29.476   3.381
  546W        W66955  30.031  31.418   4.554
  547W        W66956  27.738  16.454  13.935
  548W        W66957  27.211  10.171   3.294
  549W        W66958  19.097  17.656  13.286
  550W        W66959   7.269  17.988  11.482
  551W        W66960   1.512  38.391   1.097
  552W        W66961  26.365  25.615  13.083
  553W        W66962  41.314   2.715   0.805
  554W        W66963  18.361  43.802  12.527
  555W        W66964  14.202  31.580   0.438
  556W        W66965  24.698  38.638  11.768
  557W        W66966  33.484   3.938   4.171
  558W        W66967  42.418  15.679   2.413
  559W        W66968  40.619   1.971   0.870
  560W        W66969  22.725  36.675  11.226
  561W        W66970  11.911  31.176   3.289
  562W        W66971  14.342  29.856  10.736
  563W        W66972  17.741  11.636  14.348
  564W        W66973   1.016  25.761   2.180
  565W        W66974   4.862   2.538  12.939
  566W        W66975  29.565  44.092  10.288
  567W        W66976  22.746  20.084  13.939
  568W        W66977  29.234  25.334   0.185
  569W        W66978  24.323  16.056   2.281
  570W        W66979  43.962  19.028   4.551
  571W        W66980  39.566  42.817  12.049
  572W        W66981  24.162  29.386   0.790
  573W        W66982  21.996  10.404   3.249
  574W        W66983  44.172  42.311  11.216
  575W        W66984  40.971  30.441   1.866
  576W        W66985  26.923  13.932   1.752
  577W        W66986  25.978   1.239   4.961
  578W        W66987  39.378  13.814  13.461
  579W        W66988  42.379  10.403   0.204
  580W        W66989  12.202  36.920   0.766
  581W        W66990  23.320  36.493  11.727
  582W        W66991  38.098  17.834  14.294
  583W        W66992  42.356  44.380  11.948
  584W        W66993  19.352  34.616  11.148
  585W        W66994  30.635  40.294   4.537
  586W        W66995   5.776   3.904   3.272
  587W        W66996  43.797   0.366   0.779
  588W        W66997  17.762  38.368   1.185
  589W        W66998  15.557  10.299  12.598
  590W        W66999  17.209   3.284   3.202
  591W        W67000  17.288   3.557  11.926
  592W        W67001   3.908  19.031  14.050
  593W        W67002  21.727  16.260  12.515
  594W        W67003  29.015  44.332   1.033
  595W        W67004  14.682   5.576   2.904
  596W        W67005  16.651   7.164  11.433
  597W        W67006   9.687  23.769   0.834
  598W        W67007  18.443  19.095  14.208
  599W        W67008  10.127   4.415  12.027
  600W        W67009  17.517  42.719   4.148
  601W        W67010   7.866  12.088  13.300
  602W        W67011  28.615  18.335  13.412
  603W        W67012  11.237  18.020  14.472
  604W        W67013   0.889  23.466   0.334
  605W        W67014  24.740  37.469  13.447
  606W        W67015  25.131   6.477  11.124
  607W        W67016  18.506  17.723   2.358
  608W        W67017  21.600  36.408   2.827
  609W        W67018  41.271   6.941  14.985
  610W        W67019  43.208  24.714  13.832
  611W        W67020  27.971  30.063  11.661
  612W        W67021   3.123  10.890   3.071
  613W        W67022  10.065  11.940   0.868
  614W        W67023  14.755  40.526   0.225
  615W        W67024  19.497  17.613  11.623
  616W        W67025  23.428   6.713   2.268
  617W        W67026   1.550  41.775   1.248
  618W        W67027  26.710  34.582   3.755
  619W        W67028  39.806   9.426   5.177
  620W        W67029  17.094  28.699  12.752
  621W        W67030  11.918  34.104  10.331
  622W        W67031  39.936  16.289   2.771
  623W        W67032   7.387  31.464  14.333
  624W        W67033  19.790  15.215  14.375
  625W        W67034  41.574   2.792   3.115
  626W        W67035  15.267   1.434  11.968
  627W        W67036  43.073   4.304  12.886
  628W        W67037  20.246   2.771  12.046
  629W        W67038   6.456  22.252   4.064
  630W        W67039   5.190   4.874  14.434
  631W        W67040   0.483  21.626  12.899
  632W        W67041  22.150  32.834  11.243
  633W        W67042  22.310  35.210  11.641
  634W        W67043   9.668   4.393  14.884
  635W        W67044   0.483  43.765   2.600
  636W        W67045   3.264  39.004   0.490
  637W        W67046   1.311  18.301   2.715
  638W        W67047  36.664  27.492  13.551
  639W        W67048  15.536   5.472  13.375
  640W        W67049  24.228  43.855  13.047
  641W        W67050   7.384   1.397  12.007
  642W        W67051  35.510  32.208  11.664
  643W        W67052  19.827   0.808  13.947
  644W        W67053  15.782  34.071   3.895
  645W        W67054   9.646  43.432   2.769
  646W        W67055  21.658   8.701   1.174
  647W        W67056  31.075  43.769   4.121
  648W        W67057  35.039  32.743  13.045
  649W        W67058  32.521  20.229   2.784
  650W        W67059  35.375  31.120  10.761
  651W        W67060  33.963  36.598   0.539
  652W        W67061  29.002  15.328   0.293
  653W        W67062  38.039  20.249  12.545
  654W        W67063  28.978  18.168  12.624
  655W        W67064  13.235  43.462   0.950
  656W        W67065  38.690  36.794  13.774
  657W        W67066  37.792  14.874  14.293
  658W        W67067  22.053  20.318   1.090
  659W        W67068  24.069  13.118   0.078
  660W        W67069  27.489   5.400   3.155
  661W        W67070   9.837  11.176   2.846
  662W        W67071  41.868  27.013  14.681
  663W        W67072   0.094   0.232  12.079
  664W        W67073  17.587  24.954   0.441
  665W        W67074   6.208  40.517  13.239
  666W        W67075   2.372  20.576   3.423
  667W        W67076  36.336   7.374  12.389
  668W        W67077  41.375  14.087   4.642
  669W        W67078  28.932   5.168  11.002
  670W        W67079   5.235  20.430   3.622
  671W        W67080  39.855   3.889  11.432
  672W        W67081  10.680  22.746  11.814
  673W        W67082  35.437  25.631   0.463
  674W        W67083  17.287  16.805   1.975
  675W        W67084  22.932  39.763  11.577
  676W        W67085   2.836   8.630   3.347
  677W        W67086  19.530   6.640  14.456
  678W        W67087  39.378  41.354  12.069
  679W        W67088   7.705   8.275  14.887
  680W        W67089  42.753   1.702   4.607
  681W        W67090  41.517   8.398  13.296
  682W        W67091  40.360   9.803   1.793
  683W        W67092   3.240   0.368  11.855
  684W        W67093  19.993   2.970  11.632
  685W        W67094  10.072  17.501   4.234
  686W        W67095  28.005  32.413   0.306
  687W        W67096  37.856   5.641   3.635
  688W        W67097  20.942   7.745   0.855
  689W        W67098  16.044  19.976  11.468
  690W        W67099  26.822  44.057   4.116
  691W        W67100   4.368  28.000  14.471
  692W        W67101   7.167  13.756   4.363
  693W        W67102  33.153  25.583  14.288
  694W        W67103   9.348  35.968   3.082
  695W        W67104  38.921  23.925  13.736
  696W        W67105  18.659  24.899  12.568
  697W        W67106   3.831   7.973  11.128
  698W        W67107   3.354   8.811   3.369
  699W        W67108   6.318  35.255  10.970
  700W        W67109  40.830  18.804   0.281
  701W        W67110  14.966  13.324   2.742
  702W        W67111  11.636  26.195  11.955
  703W        W67112   2.301  34.700  12.037
  704W        W67113  23.356  16.028   1.555
  705W        W67114  21.821  14.178   1.281
  706W        W67115  36.111  16.599  11.137
  707W        W67116  39.249  14.109   2.438
  708W        W67117  16.528  23.629   1.990
  709W        W67118   4.855  11.094  14.508
  710W        W67119   6.420  31.157   4.108
  711W        W67120   0.834   2.430   2.632
  712W        W67121   3.423  16.583  12.401
  713W        W67122  20.910  44.170   1.719
  714W        W67123  34.002   1.007   2.303
  715W        W67124  42.575   4.827  10.633
  716W        W67125   1.082  39.835  10.707
  717W        W67126   8.583  11.813   0.271
  718W        W67127  21.360  41.839   0.017
  719W        W67128  38.372  25.968   0.463
  720W        W67129  24.957  29.415  14.904
  721W        W67130  32.815  12.594  14.319
  722W        W67131  24.796  31.077   0.793
  723W        W67132  20.082   0.023  13.577
  724W        W67133  16.027  35.324   1.440
  725W        W67134  25.536   7.638   4.594
  726W        W67135   9.433  28.275  10.964
  727W        W67136  10.977  29.960   4.204
  728W        W67137  32.553  16.332  10.940
  729W        W67138  32.381  29.632  12.488
  730W        W67139   5.408   9.846   4.583
  731W        W67140   5.752  34.905   2.865
  732W        W67141  44.233  28.648   2.773
  733W        W67142  28.971  26.217   3.290
  734W        W67143  28.791  42.310  14.701
  735W        W67144  43.575  10.586  12.614
  736W        W67145  42.045  43.924  13.444
  737W        W67146  26.935  34.082  11.196
  738W        W67147  12.983  11.204   1.090
  739W        W67148  38.469  19.178  13.369
  740W        W67149  13.279   5.307  13.629
  741W        W67150  29.671  33.371   4.561
  742W        W67151  40.505   6.889   3.249
  743W        W67152  31.822  20.588  12.874
  744W        W67153  27.703  35.471  10.521
  745W        W67154   6.455  15.312   3.749
  746W        W67155  15.281   4.287   1.425
  747W        W67156  11.094  30.250   3.614
  748W        W67157   5.762   5.584  11.533
  749W        W67158  43.338  25.393   0.825
  750W        W67159  13.789  44.803  14.482
  751W        W67160  21.990  24.471  14.870
  752W        W67161  14.766  13.662   1.647
  753W        W67162  24.619  39.976  13.694
  754W        W67163   6.032   1.512  12.970
  755W        W67164  37.346  30.386   3.295
  756W        W67165  10.286  25.209  14.881
  757W        W67166   7.842   8.900  11.953
  758W        W67167  26.298   3.091  12.783
  759W        W67168  39.761   8.707  13.929
  760W        W67169  15.366  10.000  14.867
  761W        W67170  29.419  40.343  14.029
  762W        W67171  19.351  34.311   0.504
  763W        W67172   0.448  19.295  11.586
  764W        W67173  12.783   3.352  11.725
  765W        W67174  33.537   8.884   2.453
  766W        W67175  36.343   4.866   2.900
  767W        W67176  44.096  20.574   3.694
  768W        W67177  37.946  28.700   3.602
  769W        W67178  13.022  21.143  13.031
  770W        W67179  36.852  14.936   5.271
  771W        W67180  44.094  43.486  13.976
  772W        W67181  11.611  37.333   0.364
  773W        W67182  34.982   6.756   2.312
  774W        W67183  11.128   0.221   1.771
  775W        W67184  17.320   1.480   1.857
  776W        W67185   9.582  13.014   0.909
  777W        W67186  18.641  18.668   2.692
  778W        W67187   0.987   0.396   2.808
  779W        W67188  23.013  14.243  10.446
  780W        W67189  15.098  19.230   5.071
  781W        W67190  26.437   7.269  13.090
  782W        W67191   1.089  14.078   2.659
  783W        W67192  41.013  16.998  13.938
  784W        W67193   7.141  40.527   4.601
  785W        W67194  31.765   0.946   0.757
  786W        W67195  25.109  13.233   0.196
  787W        W67196  16.508  18.689   1.926
  788W        W67197   8.542  32.239   4.481
  789W        W67198  17.227  35.143  13.298
  790W        W67199  30.522  33.521  12.960
  791W        W67200  29.670   7.446  12.872
  792W        W67201  22.618  32.342   0.849
  793W        W67202  41.326   5.371  10.721
  794W        W67203   5.365  36.093   4.810
  795W        W67204  11.124  41.958   2.720
  796W        W67205   1.491  11.301   2.716
  797W        W67206  13.987  35.567   4.418
  798W        W67207  32.728   3.894   4.400
  799W        W67208  31.671  17.360   2.289
  800W        W67209   2.015  25.935  13.355
  801W        W67210  29.204  32.486   2.412
  802W        W67211  33.514  20.564  11.552
  803W        W67212  15.797   6.889  13.458
  804W        W67213  38.938  26.859   4.626
  805W        W67214   3.838  41.443  13.042
  806W        W67215   7.839  22.049  13.042
  807W        W67216  21.035  18.123   3.698
  808W        W67217  33.348  39.969  10.365
  809W        W67218  40.564  10.173  12.466
  810W        W67219  27.919  26.917  14.095
  811W        W67220  34.920  15.581   2.766
  812W        W67221  20.359  20.012   3.717
  813W        W67222  27.093   2.750   0.257
  814W        W67223  23.181  36.406  11.233
  815W        W67224   6.015  30.052  11.187
  816W        W67225  23.255  43.551   1.738
  817W        W67226  14.322  42.017   1.940
  818W        W67227  37.086  32.582  14.404
  819W        W67228   2.513   9.934  13.922
  820W        W67229  21.028  36.610  11.484
  821W        W67230  16.310  15.601   4.739
  822W        W67231  25.575  16.812  13.411
  823W        W67232  44.448  29.500  11.853
  824W        W67233  42.993  15.687   0.041
  825W        W67234  38.304  32.950   4.263
  826W        W67235  28.674  37.888  10.937
  827W        W67236  30.907   1.464   3.627
  828W        W67237   9.692  42.451   2.806
  829W        W67238  18.284  43.936  14.861
  830W        W67239  16.009   1.374  10.661
  831W        W67240  27.047   1.754   4.312
  832W        W67241  25.301   8.894   0.898
  833W        W67242  15.719   7.617  11.718
  834W        W67243  38.574  13.361   3.668
  835W        W67244  21.297  37.081   2.826
  836W        W67245  30.776  17.189   3.135
  837W        W67246  24.195  10.052  10.321
  838W        W67247   7.443  24.544  14.756
  839W        W67248  19.301  27.911   4.562
  840W        W67249  21.054  36.012  14.895
  841W        W67250  19.488   5.697   2.279
  842W        W67251  20.601  37.133   1.985
  843W        W67252  44.850  17.794  14.299
  844W        W67253  20.048  21.017  11.409
  845W        W67254  11.323  36.984   1.657
  846W        W67255  30.859  17.021  11.982
  847W        W67256  44.737  36.191   4.575
  848W        W67257  34.137  28.010   0.747
  849W        W67258   5.169  35.485   2.087
  850W        W67259   8.777  12.245   4.710
  851W        W67260  21.793  35.987   4.594
  852W        W67261  23.439   8.787   3.738
  853W        W67262   3.945  27.251  12.611
  854W        W67263  26.050  14.860  12.382
  855W        W67264  43.849  15.301  11.811
  856W        W67265  32.106  27.169  14.006
  857W        W67266  33.010  17.212   4.585
  858W        W67267   2.945   8.170   3.116
  859W        W67268   3.156  37.854  10.669
  860W        W67269  11.918   3.909   2.620
  861W        W67270  30.053   5.285  13.529
  862W        W67271  30.963  23.914  13.831
  863W        W67272   2.962  27.597  13.433
  864W        W67273  30.518  44.257  14.264
  865W        W67274  26.696  14.756  13.489
  866W        W67275  13.669  31.609  12.154
  867W        W67276   8.782  34.170  11.634
  868W        W67277  41.312  27.719  10.909
  869W        W67278  24.512   9.665   3.135
  870W        W67279  30.591  25.505  11.310
  871W        W67280  21.790  15.829   3.270
  872W        W67281  13.218  23.693  11.003
  873W        W67282  31.727  31.030  12.820
  874W        W67283   3.846  17.391   0.492
  875W        W67284  17.534   4.066   4.123
  876W        W67285  32.507  28.357   1.255
  877W        W67286   7.590  10.143   0.281
  878W        W67287  24.606   3.522  14.154
  879W        W67288  39.364  18.621   1.409
  880W        W67289   9.934  42.532   1.835
  881W        W67290   5.194  42.336  12.582
  882W        W67291  11.870  40.806   5.308
  883W        W67292  25.048  25.204  11.184
  884W        W67293  29.857  21.217   5.053
  885W        W67294  32.868   9.657   2.327
  886W        W67295  37.476  14.146   1.378
  887W        W67296  12.237  21.598   1.024
  888W        W67297  38.052  38.851   3.582
  889W        W67298  11.923  42.741  12.132
  890W        W67299  42.651   0.968   5.098
  891W        W67300  40.909  31.458   3.601
  892W        W67301  17.686  24.033  12.544
  893W        W67302  29.219  38.671  13.366
  894W        W67303  40.971   5.474  14.286
  895W        W67304  14.920   6.694  13.484
  896W        W67305  37.897  41.217  10.779
  897W        W67306  13.203  28.555   2.485
  898W        W67307   3.807   1.855   1.026
  899W        W67308  10.196  20.671   1.928
  900W        W67309  35.431  11.307   2.544
  901W        W67310  31.392   2.950   3.554
  902W        W67311  40.512  20.693  14.946
  903W        W67312   5.368  38.376  11.108
  904W        W67313  28.157  37.353   3.577
  905W        W67314  26.743   9.257  13.727
  906W        W67315  33.058   0.277  10.256
  907W        W67316  16.391  31.062  13.808
  908W        W67317  25.981  32.854   3.346
  909W        W67318  17.661  11.205   3.394
  910W        W67319  27.069  36.481  13.623
  911W        W67320  39.945  19.301   1.287
  912W        W67321  25.088  29.577  10.699
  913W        W67322  26.392  34.105  12.085
  914W        W67323  43.137  19.581   3.182
  915W        W67324  14.232  28.537  14.299
  916W        W67325   8.238  15.704  11.882
  917W        W67326  24.094  22.846  13.861
  918W        W67327   7.860   0.422   4.776
  919W        W67328  18.024  10.498   2.717
  920W        W67329  13.730  13.768  10.674
  921W        W67330   1.608   4.243  13.420
  922W        W67331  40.508   3.691  13.395
  923W        W67332  42.437  17.214  13.883
  924W        W67333  28.594  21.907   4.767
  925W        W67334   6.454  32.386   5.300
  926W        W67335  31.794  34.408   2.362
  927W        W67336  11.349  37.371   5.290
  928W        W67337   3.837  18.008  13.002
  929W        W67338  32.974  19.544   0.316
  930W        W67339   3.767   3.382   3.780
  931W        W67340   6.675   2.357   2.950
  932W        W67341  17.651  17.999   1.328
  933W        W67342  42.940  32.910  13.968
  934W        W67343  12.630   6.600   3.228
  935W        W67344  42.902  11.106   0.461
  936W        W67345  39.034  27.257   3.749
  937W        W67346  23.166  24.017  13.056
  938W        W67347   6.691  30.424   4.180
  939W        W67348   4.242  32.137   3.273
  940W        W67349   2.985  23.118  13.961
  941W        W67350   9.444  14.593   2.888
  942W        W67351  14.810  17.917   0.260
  943W        W67352  22.710  21.005  14.745
  944W        W67353  24.552   0.554   4.074
  945W        W67354  16.481  12.010  13.348
  946W        W67355  24.118  41.535   1.033
  947W        W67356  10.767  44.667  12.600
  948W        W67357   5.462  36.517   2.725
  949W        W67358  23.234   2.519   3.976
  950W        W67359  11.878   5.358   2.659
  951W        W67360  20.556  13.156   2.782
  952W        W67361  29.666  11.880  13.492
  953W        W67362  18.096  10.143   4.522
  954W        W67363   0.225  22.487  10.564
  955W        W67364  30.766   1.610  10.632
  956W        W67365  36.745  28.243   3.631
  957W        W67366  39.553  20.952  11.556
  958W        W67367  28.528  37.838  14.815
  959W        W67368  19.119  35.941  13.427
  960W        W67369  16.991  28.456   0.796
  961W        W67370  26.187  34.940   0.485
  962W        W67371  38.220   6.122   1.831
  963W        W67372  36.271  37.945  11.746
  964W        W67373  38.917  40.304   4.188
  965W        W67374  23.506  41.008   1.518
  966W        W67375   0.253  22.980  11.781
  967W        W67376  34.836  24.993   0.759
  968W        W67377  24.789   2.769   0.305
  969W        W67378   0.409  14.180  13.588
  970W        W67379  39.106  26.498  12.997
  971W        W67380   9.701  29.346  14.276
  972W        W67381  20.535  37.210   2.509
  973W        W67382   5.645  34.535   2.039
  974W        W67383  28.599   5.700  12.457
  975W        W67384  35.980   7.615  14.487
  976W        W67385  22.445  11.156  14.301
  977W        W67386  14.787  36.011   2.317
  978W        W67387  37.096   2.253   2.940
  979W        W67388  15.454  29.585  11.207
  980W        W67389  44.254  18.544  14.952
  981W        W67390  26.055  40.653   4.062
  982W        W67391  34.516  36.383   3.343
  983W        W67392  34.551  28.969   1.382
  984W        W67393  34.738  39.371  13.828
  985W        W67394  12.747  36.061   3.171
  986W        W67395  44.364  15.004   0.320
  987W        W67396   1.060   3.140   0.383
  988W        W67397  41.257  27.467  11.333
  989W        W67398  38.319  42.270   1.319
  990W        W67399  31.104  21.668   3.200
  991W        W67400   7.631  42.520  14.386
  992W        W67401  44.138  35.320   2.619
  993W        W67402  36.561   3.000   0.563
  994W        W67403  14.671  17.450   4.299
  995W        W67404  42.502   4.764  14.963
  996W        W67405  31.924  16.995   1.356
  997W        W67406  18.814  31.993   1.390
  998W        W67407  17.661  16.974   1.265
  999W        W67408   1.510  24.179   0.232
 1000W        W67409  11.739   0.247   1.126
 1001W        W67410  30.732  20.707   0.812
 1002W        W67411   0.445   2.293  11.604
 1003W        W67412  28.719  43.071   3.207
 1004W        W67413  10.592   9.939   3.186
 1005W        W67414  43.780   2.828   3.662
 1006W        W67415   2.546  11.760   4.329
 1007W        W67416  12.449  31.722  13.447
 1008W        W67417  15.733   1.280   3.290
 1009W        W67418   2.750  33.377   1.376
 1010W        W67419  44.840  20.290   4.781
 1011W        W67420  27.628  38.875   2.701
 1012W        W67421  29.297  38.580  10.711
 1013W        W67422  33.051  43.517   3.130
 1014W        W67423   6.232   2.462   0.549
 1015W        W67424  14.049   1.181   3.094
 1016W        W67425  29.011   7.829  14.090
 1017W        W67426  21.204  10.076   0.902
 1018W        W67427  15.276  24.160   0.843
 1019W        W67428  41.508  25.556   0.986
 1020W        W67429  26.479   3.985  14.726
 1021W        W67430  28.101  18.797  10.577
 1022W        W67431  15.898  29.892  12.885
 1023W        W67432  31.158  44.336  12.518
 1024W        W67433  32.538  11.842  12.536
 1025W        W67434  41.866  25.688   3.144
 1026W        W67435  21.108  31.606   4.556
 1027W        W67436  44.806  34.290  14.290
 1028W        W67437   4.874  30.492  14.254
 1029W        W67438   0.842  34.911  10.798
 1030W        W67439   7.963  38.260   1.819
 1031W        W67440  37.545  12.046  11.433
 1032W        W67441   5.623   1.285   2.205
 1033W        W67442   0.787  37.954   4.589
 1034W        W67443  32.229  43.338   1.172
 1035W        W67444  35.673  41.542   5.087
 1036W        W67445  22.859  26.617   0.828
 1037W        W67446  41.324  28.721  10.952
 1038W        W67447  39.976   8.930  11.558
 1039W        W67448  14.668   8.606  12.154
 1040W        W67449   2.792  31.432  11.165
 1041W        W67450   9.593  15.068   2.979
 1042W        W67451  29.098  20.721  11.900
 1043W        W67452  34.865  19.241   0.455
 1044W        W67453  10.755  30.106  13.614
 1045W        W67454   7.093  29.920  12.347
 1046W        W67455   6.413  32.453  10.763
 1047W        W67456  21.791  40.497  14.263
 1048W        W67457  18.262  23.964  13.224
 1049W        W67458  31.337  29.015  13.413
 1050W        W67459  27.050  21.937  14.419
 1051W        W67460   0.926  26.484  13.323
 1052W        W67461  23.131   7.572  10.580
 1053W        W67462  37.226   7.780  13.343
 1054W        W67463  33.072  41.288  12.135
 1055W        W67464  29.086  25.413   2.374
 1056W        W67465  23.608  25.386  11.454
 1057W        W67466   0.443  26.725   3.232
 1058W        W67467  22.020  31.896   3.315
 1059W        W67468  14.383  29.966   3.191
 1060W        W67469   9.314  24.021   4.752
 1061W        W67470  11.798  36.478   4.694
 1062W        W67471   0.727  34.458  10.536
 1063W        W67472  27.123  41.045   1.392
 1064W        W67473  44.942  20.421  14.054
 1065W        W67474  38.015   7.199   1.326
 1066W        W67475  37.888  21.562  10.660
 1067W        W67476  35.484  12.075  14.479
 1068W        W67477  17.733  30.723   3.953
 1069W        W67478   7.308  44.937  12.084
 1070W        W67479  13.074   5.846  12.294
 1071W        W67480   5.154  37.343  13.815
 1072W        W67481  17.915  12.895   0.217
 1073W        W67482  19.175  38.986   3.698
 1074W        W67483   8.893  32.116   3.191
 1075W        W67484  43.415  37.984   2.866
 1076W        W67485   7.813  22.619  10.702
 1077W        W67486  23.273  44.241   0.700
 1078W        W67487  33.301  31.117  11.142
 1079W        W67488  19.119  10.709  11.896
 1080W        W67489  30.516  29.674   1.931
 1081W        W67490  32.131  28.446  13.449
 1082W        W67491   0.375  25.229   2.387
 1083W        W67492  25.091  42.530   0.571
 1084W        W67493  31.889  25.387  12.875
 1085W        W67494  28.205  15.131   1.893
 1086W        W67495  38.435  40.836   2.115
 1087W        W67496  28.392   0.214  11.536
 1088W        W67497  33.150  28.998   1.311
 1089W        W67498  17.201  33.952  14.796
 1090W        W67499  16.213   6.849   3.650
 1091W        W67500   3.806   2.716  13.533
 1092W        W67501  35.092  22.913   4.089
 1093W        W67502   5.203  10.939  14.903
 1094W        W67503  18.745  42.780   4.696
 1095W        W67504  40.106  42.554   1.465
 1096W        W67505   0.355  13.653  13.433
 1097W        W67506  20.198   8.287  11.514
 1098W        W67507  26.727  36.943   3.277
 1099W        W67508  30.296   4.945   3.748
 1100W        W67509  33.339  20.276   0.736
 1101W        W67510  34.495  42.447   3.136
 1102W        W67511  34.868   2.006  13.531
 1103W        W67512   1.426  14.842  14.876
 1104W        W67513  31.598  31.837  13.518
 1105W        W67514  13.818  12.821   1.696
 1106W        W67515  38.466  28.888   0.934
 1107W        W67516  28.844  41.575  12.028
 1108W        W67517  43.286  13.951  11.164
 1109W        W67518  24.107  23.136  14.301
 1110W        W67519   1.770  31.018   0.515
 1111W        W67520  19.827  29.979  14.366
 1112W        W67521  10.283   5.658  14.793
 1113W        W67522   7.857   5.659  14.288
 1114W        W67523  19.123  23.987   4.009
 1115W        W67524   9.088  12.679  13.457
 1116W        W67525  15.140  42.298   2.478
 1117W        W67526   4.853  22.146  10.902
 1118W        W67527   1.914  35.975   4.606
 1119W        W67528  21.693  36.386  13.066
 1120W        W67529  40.773  34.583  10.676
 1121W        W67530  37.487  21.408   4.635
 1122W        W67531   1.759   0.496  14.905
 1123W        W67532  13.725  40.599   1.171
 1124W        W67533   2.840  32.850   4.228
 1125W        W67534   3.263  20.328  13.100
 1126W        W67535  28.600  19.637   1.796
 1127W        W67536  16.362  42.455  13.598
 1128W        W67537  43.040  29.816  13.914
 1129W        W67538  30.539   4.369  14.325
 1130W        W67539   6.651   9.216   4.766
 1131W        W67540  14.538   1.423  13.264
 1132W        W67541   3.909  15.451  13.544
 1133W        W67542  15.686  33.155  14.422
 1134W        W67543  36.328  18.135   1.983
 1135W        W67544   6.399  34.945   2.423
 1136W        W67545  17.683   9.880   1.937
 1137W        W67546  31.742  39.288   0.736
 1138W        W67547  10.555  26.522   1.236
 1139W        W67548  43.323  28.983  14.538
 1140W        W67549  25.797  15.418  11.996
 1141W        W67550  31.913  42.873  14.025
 1142W        W67551  13.154   0.372  13.885
 1143W        W67552   5.483   4.303  13.821
 1144W        W67553  30.897  21.329   2.721
 1145W        W67554  29.287  33.994   4.463
 1146W        W67555   6.712  25.520   2.712
 1147W        W67556   2.459   9.118   2.173
 1148W        W67557   1.554  40.360   2.820
 1149W        W67558   5.486  38.859   0.378
 1150W        W67559  14.238  12.603   2.330
 1151W        W67560  24.308   4.361   2.381
 1152W        W67561   4.104   6.615   1.265
 1153W        W67562  18.301   1.956   1.311
 1154W        W67563  39.551  11.299  11.188
 1155W        W67564   9.346  23.223  10.647
 1156W        W67565  25.304  32.914  11.145
 1157W        W67566  16.610  13.904   3.317
 1158W        W67567  24.275  34.814   0.331
 1159W        W67568  27.176  23.995  13.327
 1160W        W67569  20.947  20.734  13.709
 1161W        W67570  34.835  10.191   4.097
 1162W        W67571  11.776  26.407   2.726
 1163W        W67572  19.179  42.097  13.803
 1164W        W67573  15.661  17.607  10.481
 1165W        W67574  21.552  26.173   4.052
 1166W        W67575  39.938   6.571  14.203
 1167W        W67576  15.354  25.202  11.555
 1168W        W67577  44.354  28.199  13.085
 1169W        W67578  12.441   3.260   3.195
 1170W        W67579  24.096  34.467   3.671
 1171W        W67580   8.204  23.930   1.513
 1172W        W67581   4.334  24.247  11.602
 1173W        W67582   1.325   5.326  12.568
 1174W        W67583  15.830   3.194   2.989
 1175W        W67584   1.255   8.167  11.944
 1176W        W67585  10.396  39.836  13.043
 1177W        W67586  24.388  11.383  10.799
 1178W        W67587   3.833  39.755  13.817
 1179W        W67588  28.116  22.260   2.337
 1180W        W67589  25.032  41.304   3.278
 1181W        W67590  38.342  44.638   3.559
 1182W        W67591  30.983  28.389  12.507
 1183W        W67592  43.823  36.295  12.507
 1184W        W67593  39.407   8.859  12.555
 1185W        W67594  38.802  34.575  10.427
 1186W        W67595  24.802  18.737  12.057
 1187W        W67596   3.247  31.731   4.893
 1188W        W67597  42.718   1.802   2.179
 1189W        W67598  40.588   7.793   1.789
 1190W        W67599   0.294  29.964  11.535
 1191W        W67600  18.454  25.355   4.380
 1192W        W67601  42.885  21.758   2.668
 1193W        W67602   8.372  40.281   1.698
 1194W        W67603   8.893  18.024  13.094
 1195W        W67604  15.787   7.077   4.821
 1196W        W67605  18.472  37.350  12.757
 1197W        W67606  19.775  14.269   2.149
 1198W        W67607  21.225  35.647   0.245
 1199W        W67608  13.708  29.124   0.280
 1200W        W67609  26.329  14.929   3.265
 1201W        W67610  41.603  18.307   2.524
 1202W        W67611  24.118   5.443   3.643
 1203W        W67612   8.358  43.167   1.007
 1204W        W67613  31.842  18.036   3.366
 1205W        W67614  21.285  29.516  11.420
 1206W        W67615   0.487  39.134  13.905
 1207W        W67616   1.824   4.430  10.714
 1208W        W67617   0.187  21.189   2.807
 1209W        W67618  40.622  24.916  14.598
 1210W        W67619  20.115  34.921  11.229
 1211W        W67620  40.875   7.874   3.738
 1212W        W67621  25.571  25.624  12.409
 1213W        W67622  14.052   1.720  14.549
 1214W        W67623   4.242  29.003   2.680
 1215W        W67624  27.230  16.290  11.342
 1216W        W67625  21.613  29.243  10.440
 1217W        W67626  23.940   3.157  11.241
 1218W        W67627  24.332  38.036  14.022
 1219W        W67628   0.786   3.517  14.385
 1220W        W67629  40.355   2.320  10.850
 1221W        W67630  12.137  25.956  10.475
 1222W        W67631  41.725   7.204  12.079
 1223W        W67632  39.430  39.858  11.436
 1224W        W67633  27.681  41.860   4.026
 1225W        W67634  24.754  31.523  10.689
 1226W        W67635  26.959   3.832   1.353
 1227W        W67636   4.784  10.357   4.925
 1228W        W67637  23.733  17.705   1.683
 1229W        W67638  44.720  30.169  14.386
 1230W        W67639  44.000   5.236  14.497
 1231W        W67640   2.374  32.887   0.675
 1232W        W67641  27.910  44.396   1.761
 1233W        W67642  23.247  20.632  10.460
 1234W        W67643  23.451  36.116  12.075
 1235W        W67644  29.947   1.375  14.044
 1236W        W67645   9.924  20.238  10.753
 1237W        W67646  12.270   3.999  14.749
 1238W        W67647  13.500   4.606   3.553
 1239W        W67648  24.996  18.667  13.514
 1240W        W67649  44.063  13.678   1.331
 1241W        W67650  42.448  31.512   4.593
 1242W        W67651  23.274   5.930  14.785
 1243W        W67652  15.145  36.933  11.573
 1244W        W67653  25.584  33.233   3.744
 1245W        W67654  44.688  31.893  14.410
 1246W        W67655   0.874  44.216  14.106
 1247W        W67656   5.135  35.651   2.557
 1248W        W67657  44.783  44.518  13.331
 1249W        W67658  13.339  38.946  12.976
 1250W        W67659  20.504  37.896  13.129
 1251W        W67660  40.352   7.393  11.780
 1252W        W67661  34.423   7.389   3.101
 1253W        W67662   0.929  25.982   3.656
 1254W        W67663  33.950  35.871   2.202
 1255W        W67664   2.019  20.253  11.515
 1256W        W67665  35.204  18.655  12.196
 1257W        W67666  38.582  19.930  12.554
 1258W        W67667   5.147  14.548   3.253
 1259W        W67668  21.429  25.467   1.798
 1260W        W67669  16.540   1.342   0.743
 1261W        W67670  12.321  41.061  12.508
 1262W        W67671  34.111  36.316   2.423
 1263W        W67672  31.055   4.525   3.188
 1264W        W67673   2.889  10.397  12.001
 1265W        W67674   2.811   3.732  11.171
 1266W        W67675  40.845  27.518   4.644
 1267W        W67676  14.091   0.978   2.615
 1268W        W67677   3.922  11.287   0.781
 1269W        W67678   9.265  33.538   1.250
 1270W        W67679  12.260  11.863   3.889
 1271W        W67680  30.702  40.951   1.643
 1272W        W67681   8.665   0.753  13.884
 1273W        W67682  41.556  23.617  14.864
 1274W        W67683  32.252   5.779  11.080
 1275W        W67684  37.862   6.855  10.722
 1276W        W67685  38.189  30.722   3.235
 1277W        W67686   4.297  22.259   0.412
 1278W        W67687  45.000  20.768   2.306
 1279W        W67688  35.380  17.670   2.772
 1280W        W67689  43.499  26.786   1.177
 1281W        W67690  38.471  44.762   1.282
 1282W        W67691   4.229  24.537  14.873
 1283W        W67692  38.595  38.488  14.941
 1284W        W67693   3.076  20.395  12.635
 1285W        W67694  22.642  41.538  13.024
 1286W        W67695  32.464  41.066  11.701
 1287W        W67696  25.247   0.527  11.019
 1288W        W67697   9.753  41.797  12.406
 1289W        W67698   9.442  28.149  12.391
 1290W        W67699  17.186   8.731   4.681
 1291W        W67700  26.459   3.640  11.364
 1292W        W67701  19.146  25.214   1.733
 1293W        W67702  19.252  16.521  12.426
 1294W        W67703   3.503  41.986  11.952
 1295W        W67704  41.189  30.601  11.622
 1296W        W67705   0.581  37.470  12.956
 1297W        W67706  41.655   5.389   4.812
 1298W        W67707  10.372  26.043   2.352
 1299W        W67708  39.375  19.992   3.329
 1300W        W67709   4.126  38.417   2.239
 1301W        W67710  37.292  20.016   2.813
 1302W        W67711  37.972  31.913  10.621
 1303W        W67712   1.407  27.221  13.198
 1304W        W67713  39.934  15.646   1.844
 1305W        W67714  12.479  44.647   4.962
 1306W        W67715  19.268  22.449   1.784
 1307W        W67716  18.909   1.081   4.735
 1308W        W67717  25.237  44.136  11.980
 1309W        W67718  14.399  19.695   5.275
 1310W        W67719   1.932  32.700   3.845
 1311W        W67720  38.546   5.907   1.450
 1312W        W67721  11.385  21.742   3.284
 1313W        W67722  36.497   4.014  12.565
 1314W        W67723  41.254  22.497  13.376
 1315W        W67724  30.157   4.358   4.157
 1316W        W67725  30.551  40.932   0.691
 1317W        W67726  11.322  19.696  10.421
 1318W        W67727  28.535  20.881   4.551
 1319W        W67728   6.700  20.490   3.771
 1320W        W67729  15.355   6.790   4.465
 1321W        W67730  25.084  41.387   0.638
 1322W        W67731  41.350  29.335  11.847
 1323W        W67732  18.062  20.941  12.957
 1324W        W67733  30.983  10.802  11.692
 1325W        W67734  43.284   9.114   4.016
 1326W        W67735  32.630  41.144   4.978
 1327W        W67736  21.550  34.151  14.303
 1328W        W67737  11.232  23.336  11.496
 1329W        W67738  30.495  29.153   3.170
 1330W        W67739  35.818  37.069  13.066
 1331W        W67740  12.671  22.624  14.890
 1332W        W67741  31.976  11.689  10.483
 1333W        W67742  23.336  30.749   4.362
 1334W        W67743  30.067  18.553  10.366
 1335W        W67744   8.076  28.064  11.898
 1336W        W67745   8.884   9.270  14.990
 1337W        W67746  17.504  21.990   0.281
 1338W        W67747   0.991  37.363   4.868
 1339W        W67748  17.867  12.328   4.656
 1340W        W67749  39.972  16.488  11.301
 1341W        W67750  30.081  17.668   0.731
 1342W        W67751  30.860  18.247  14.899
 1343W        W67752  24.731  39.293   2.051
 1344W        W67753  32.191  44.803  14.928
 1345W        W67754  20.313   7.620  13.949
 1346W        W67755  32.997  12.199   1.139
 1347W        W67756   8.170   5.279  11.158
 1348W        W67757   5.360  13.213   0.622
 1349W        W67758  16.229   7.862   1.543
 1350W        W67759   1.592  38.300   0.608
 1351W        W67760  25.008  11.843  12.678
 1352W        W67761  16.077  23.645  10.216
 1353W        W67762  10.592  41.466  10.936
 1354W        W67763  44.901  26.202   4.736
 1355W        W67764  31.989  11.784   2.289
 1356W        W67765  26.637  28.625   1.134
 1357W        W67766  14.871  41.973  14.273
 1358W        W67767  18.193  20.487   5.399
 1359W        W67768   4.308  30.620   3.198
 1360W        W67769  13.659  10.354  13.014
 1361W        W67770   7.064  12.654  13.192
 1362W        W67771  37.606  42.970  12.048
 1363W        W67772  42.892  23.080  13.534
 1364W        W67773  29.384  25.627  11.118
 1365W        W67774  18.632  28.056   1.740
 1366W        W67775   9.646  17.683   3.197
 1367W        W67776  37.319  10.538  12.952
 1368W        W67777  35.298  14.748  10.900
 1369W        W67778  26.571   4.818   0.994
 1370W        W67779  11.482   7.337  14.861
 1371W        W67780  28.501  31.654   0.445
 1372W        W67781  36.819  13.714  11.908
 1373W        W67782   4.557   1.439   3.078
 1374W        W67783  40.608  24.131  13.886
 1375W        W67784  34.629  43.089   3.607
 1376W        W67785  13.323  35.469  14.778
 1377W        W67786  19.291   7.653   3.122
 1378W        W67787  37.358  43.344   1.684
 1379W        W67788   7.347  32.623  11.628
 1380W        W67789  29.522  32.892  12.650
 1381W        W67790  36.650  42.000   1.739
 1382W        W67791  16.611  32.459  14.960
 1383W        W67792  34.958  23.694   3.747
 1384W        W67793   8.231   3.230   1.676
 1385W        W67794  32.002  19.607   0.229
 1386W        W67795  34.076  32.907   3.267
 1387W        W67796  26.382  44.853   1.696
 1388W        W67797  10.744  40.249   2.637
 1389W        W67798  26.180  13.280  13.346
 1390W        W67799  43.026  20.035  14.364
 1391W        W67800   9.090  40.052   0.308
 1392W        W67801  40.330  21.728   3.834
 1393W        W67802  42.228  17.557  13.185
 1394W        W67803  40.081   0.141   2.183
 1395W        W67804  42.945  13.181   4.038
 1396W        W67805   4.444  41.598   1.178
 1397W        W67806  20.667  21.052   5.106
 1398W        W67807  44.980  28.427  10.677
 1399W        W67808  44.519  14.978  11.950
 1400W        W67809  29.594   7.862   3.316
 1401W        W67810   5.958  43.319  11.191
 1402W        W67811  11.708   0.136  12.530
 1403W        W67812  43.929  35.505  14.483
 1404W        W67813  22.642  18.926  10.836
 1405W        W67814  28.048  31.026   3.905
 1406W        W67815  30.511  40.991  12.490
 1407W        W67816   1.842   3.850   4.408
 1408W        W67817  43.689   1.271   2.177
 1409W        W67818  43.751   5.411   2.757
 1410W        W67819  14.839   5.086   2.862
 1411W        W67820   6.066  28.683   1.798
 1412W        W67821  14.108   6.767  12.844
 1413W        W67822  42.924  43.784  13.800
 1414W        W67823  30.402  11.864   4.627
 1415W        W67824  13.419   3.558  12.035
 1416W        W67825  39.342  24.508  14.874
 1417W        W67826  37.353  26.662  11.535
 1418W        W67827   7.828   9.211  13.331
 1419W        W67828   1.714  19.862   4.200
 1420W        W67829  33.641  36.178   0.482
 1421W        W67830  42.277  27.276  13.046
 1422W        W67831  24.217  21.095   4.090
 1423W        W67832  28.766  12.299   9.623
 1424W        W67833  18.304   2.527   1.353
 1425W        W67834  42.440  35.796   1.889
 1426W        W67835  25.295  37.397   3.593
 1427W        W67836   0.242  12.722  14.054
 1428W        W67837  39.164   4.453  12.639
 1429W        W67838  13.052  15.629  12.910
 1430W        W67839  22.044   5.220  13.377
 1431W        W67840  26.084  26.957   0.421
 1432W        W67841  12.115  31.219   0.448
 1433W        W67842  37.791   8.049   4.128
 1434W        W67843  43.009  19.214  11.002
 1435W        W67844  29.297   1.921  12.565
 1436W        W67845  39.745  16.356  13.036
 1437W        W67846  18.677   8.177  10.674
 1438W        W67847   9.989  29.960  12.122
 1439W        W67848  15.779   3.414  10.564
 1440W        W67849  21.248  18.787   2.917
 1441W        W67850   8.919  19.617   3.696
 1442W        W67851  21.671  33.585   1.391
 1443W        W67852   0.492  19.519  12.882
 1444W        W67853  37.928  17.936   2.106
 1445W        W67854  41.748   0.742   4.142
 1446W        W67855  20.341   6.253  14.998
 1447W        W67856  13.067  24.132  14.221
 1448W        W67857  21.313  29.598   0.288
 1449W        W67858  40.408  25.757  14.820
 1450W        W67859   6.987  14.182   2.641
 1451W        W67860   7.129  12.045   2.593
 1452W        W67861  14.841  18.199  14.699
 1453W        W67862  34.766  32.008  14.260
 1454W        W67863  22.647  22.865  11.061
 1455W        W67864  30.703  25.087  11.868
 1456W        W67865   0.024  31.642  12.030
 1457W        W67866  14.070   1.942  12.943
 1458W        W67867   0.066  44.231  13.707
 1459W        W67868  39.425   5.003   3.187
 1460W        W67869  24.215   7.947  14.797
 1461W        W67870  44.828  18.491   4.132
 1462W        W67871  17.559   8.591  10.970
 1463W        W67872   7.168  11.518  11.116
 1464W        W67873  34.993   0.829   9.791
 1465W        W67874   4.890  16.584  11.300
 1466W        W67875  13.434   7.928   0.112
 1467W        W67876  36.650  28.412  13.581
 1468W        W67877   3.415  20.889  13.934
 1469W        W67878  37.291   5.922   2.253
 1470W        W67879  40.606  22.645  12.470
 1471W        W67880  21.938  13.610  10.682
 1472W        W67881  17.731   8.121  12.980
 1473W        W67882   6.265  10.224   0.759
 1474W        W67883  13.361  30.000  11.945
 1475W        W67884  19.037  21.291  11.498
 1476W        W67885  39.079  17.048  11.009
 1477W        W67886  34.346  27.025  14.473
 1478W        W67887   7.807   1.752   4.675
 1479W        W67888  27.323  37.329  12.427
 1480W        W67889  31.303   2.175   3.231
 1481W        W67890   4.881  21.539   0.447
 1482W        W67891  44.030  19.926   1.356
 1483W        W67892  36.627  40.872   4.785
 1484W        W67893  33.552   5.871   4.592
 1485W        W67894  14.673   9.594  11.030
 1486W        W67895  10.940   5.326   4.302
 1487W        W67896  39.358  21.220  10.093
 1488W        W67897  17.830  29.102  12.111
 1489W        W67898   3.630  12.548  14.374
 1490W        W67899   3.372  13.044   5.092
 1491W        W67900  15.838  26.130   2.457
 1492W        W67901  24.157   1.190  14.377
 1493W        W67902  20.050  30.622  13.811
 1494W        W67903  36.539  13.437  10.627
 1495W        W67904  37.364   9.563   3.461
 1496W        W67905  14.777  20.600   0.712
 1497W        W67906  11.617  35.904  10.749
 1498W        W67907   1.198  25.033  11.537
 1499W        W67908   0.965   0.189  11.260
 1500W        W67909  42.926  38.323   3.217
 1501W        W67910  27.426  28.734  12.797
 1502W        W67911  19.080   3.601   2.925
 1503W        W67912   7.045   0.936  11.761
 1504W        W67913   8.769  31.895  11.627
 1505W        W67914   1.234  41.735   2.271
 1506W        W67915  29.473   5.937   0.954
 1507W        W67916  24.897  44.841  12.315
 1508W        W67917  24.300  41.322  12.970
 1509W        W67918  23.747  14.164   2.174
 1510W        W67919  34.416  21.694  11.224
 1511W        W67920  37.486   1.674  10.718
 1512W        W67921  38.405  10.823  12.328
 1513W        W67922   7.327  16.130  11.123
 1514W        W67923  23.028  37.303   0.523
 1515W        W67924  14.390  10.259   3.650
 1516W        W67925  19.271  22.301   4.266
 1517W        W67926  33.933  23.573   3.213
 1518W        W67927   3.299  36.611  13.408
 1519W        W67928  15.941  18.852  10.301
 1520W        W67929  15.124  36.818  12.166
 1521W        W67930  37.793   5.912   2.389
 1522W        W67931  25.888  26.024   9.771
 1523W        W67932  12.072   8.707   4.454
 1524W        W67933  36.359  14.697  10.571
 1525W        W67934  12.836  42.804   4.112
 1526W        W67935  10.742  23.813   2.738
 1527W        W67936  44.512  14.986   3.518
 1528W        W67937  23.593  19.325   2.184
 1529W        W67938  26.606  39.875  13.292
 1530W        W67939   5.169  28.988  12.804
 1531W        W67940  19.560  18.315   0.913
 1532W        W67941  38.347   5.488   3.232
 1533W        W67942  38.527  21.007   9.702
 1534W        W67943  21.683  43.011   2.352
 1535W        W67944   7.934  42.113   2.299
 1536W        W67945  20.165  26.496  10.649
 1537W        W67946  27.939  42.335   1.971
 1538W        W67947  24.755  26.162   0.787
 1539W        W67948   1.915   0.209  13.118
 1540W        W67949  14.210  33.657  11.857
 1541W        W67950   8.556  25.585  12.554
 1542W        W67951   3.502  30.147   3.099
 1543W        W67952  35.322   2.319  10.482
 1544W        W67953  25.902  17.327   2.930
 1545W        W67954  27.649   3.001   4.081
 1546W        W67955  14.016  20.527   1.223
 1547W        W67956  10.712  18.041   3.237
 1548W        W67957  11.628  31.618   3.311
 1549W        W67958  44.908  30.577   0.959
 1550W        W67959  11.344  12.614   1.464
 1551W        W67960  25.546   6.350   4.157
 1552W        W67961  22.924  16.181   0.792
 1553W        W67962  32.455  20.651  11.043
 1554W        W67963   1.210  42.138  13.484
 1555W        W67964  25.116  40.496  13.369
 1556W        W67965  10.413  26.780   3.730
 1557W        W67966  28.622  39.163   0.490
 1558W        W67967  21.182  23.620  11.628
 1559W        W67968   7.306  31.293  12.083
 1560W        W67969  36.002  25.614   0.902
 1561W        W67970  16.084  20.033  10.719
 1562W        W67971  17.704  10.263  10.777
 1563W        W67972  42.636   3.995  11.155
 1564W        W67973  21.237  29.635  13.222
 1565W        W67974  35.704  16.815   2.753
 1566W        W67975   2.594  37.360  10.426
 1567W        W67976   2.430  22.322  12.125
 1568W        W67977   8.246  15.644   2.918
 1569W        W67978   4.525  40.323  11.000
 1570W        W67979  38.019  39.959   3.274
 1571W        W67980  27.619  40.621   1.530
 1572W        W67981   5.567  13.546   0.952
 1573W        W67982   5.751  44.480   0.796
 1574W        W67983   4.858  15.162  10.977
 1575W        W67984   9.669  21.183  11.438
 1576W        W67985  27.602  20.725   2.682
 1577W        W67986   4.577  20.528   2.659
 1578W        W67987   4.595  13.643   0.430
 1579W        W67988  14.841  19.151   1.880
 1580W        W67989  12.085  13.421  11.566
 1581W        W67990  28.636  37.416  14.353
 1582W        W67991  36.926   8.952  13.005
 1583W        W67992  22.079   8.071   3.288
 1584W        W67993  23.772  44.536   2.017
 1585W        W67994   5.366  16.620   4.084
 1586W        W67995  22.564   4.930  10.972
 1587W        W67996  42.456  40.243   0.088
 1588W        W67997  24.036  18.405  11.944
 1589W        W67998  26.630  19.070  12.960
 1590W        W67999  32.468   5.002  13.512
 1591W        W68000   4.166  39.354   0.430
 1592W        W68001  17.245   4.170   2.636
 1593W        W68002   0.482  29.153  12.586
 1594W        W68003  41.886   0.927  13.379
 1595W        W68004  33.818  40.366   0.258
 1596W        W68005  22.546  27.008  12.092
 1597W        W68006   5.909  23.176   4.053
 1598W        W68007  24.592   8.539   2.288
 1599W        W68008   0.381  29.910   1.166
 1600W        W68009  41.348   2.740   4.121
 1601W        W68010  17.874  21.258  14.803
 1602W        W68011  11.333   8.326  12.447
 1603W        W68012  37.353  28.643  13.835
 1604W        W68013  38.136  35.812   2.455
 1605W        W68014  23.298  16.834  14.927
 1606W        W68015   2.813  17.768   1.401
 1607W        W68016  26.910  38.866   1.412
 1608W        W68017  39.049  30.617   1.454
 1609W        W68018  37.020  11.344   1.387
 1610W        W68019  39.281  10.351  11.996
 1611W        W68020  11.532  40.155  11.625
 1612W        W68021  14.190  32.875   4.708
 1613W        W68022   1.696  31.633   4.572
 1614W        W68023  28.532  33.863  12.214
 1615W        W68024   8.403  11.332   2.665
 1616W        W68025  34.989  37.334   2.162
 1617W        W68026  37.485  10.630   2.476
 1618W        W68027   1.454  27.656  13.482
 1619W        W68028   0.798  26.439   4.194
 1620W        W68029  23.416  16.976  12.502
 1621W        W68030   7.730  31.195  11.794
 1622W        W68031  36.975  27.219   3.620
 1623W        W68032   6.742  23.715   9.900
 1624W        W68033  15.105  38.175  12.093
 1625W        W68034   0.239   5.369  10.753
 1626W        W68035  33.899  38.116   0.311
 1627W        W68036   6.678  19.153  11.515
 1628W        W68037  18.277  14.051   4.556
 1629W        W68038  41.917  25.080   1.633
 1630W        W68039   7.394  37.122  11.973
 1631W        W68040  24.039  19.537  13.255
 1632W        W68041  41.761  38.449  12.966
 1633W        W68042  40.592   1.466   4.866
 1634W        W68043  20.602  35.365   3.397
 1635W        W68044   4.021  13.195   2.664
 1636W        W68045  25.723  39.084   2.595
 1637W        W68046   9.844  28.901   4.938
 1638W        W68047  30.449  18.903   1.863
 1639W        W68048   9.245  27.475   2.720
 1640W        W68049  44.452  17.600  10.697
 1641W        W68050  24.638  24.331  10.450
 1642W        W68051  34.479  35.556   4.725
 1643W        W68052  34.939  39.515   2.758
 1644W        W68053   8.093   0.295  11.154
 1645W        W68054  28.909  34.920   3.624
 1646W        W68055  16.132  21.653   1.282
 1647W        W68056  17.101  36.837   2.350
 1648W        W68057  27.107  36.407  12.209
 1649W        W68058  25.064   6.957   2.802
 1650W        W68059  20.496  23.296   2.747
 1651W        W68060  39.815  10.661  13.727
 1652W        W68061  39.303  11.177  13.955
 1653W        W68062   4.850  32.455   3.312
 1654W        W68063  34.347  25.999  11.347
 1655W        W68064  20.867  14.296   4.599
 1656W        W68065  33.936  15.115   4.613
 1657W        W68066  35.464  16.786   2.300
 1658W        W68067  29.328  15.218  14.359
 1659W        W68068   0.347  36.614  11.629
 1660W        W68069  23.575  30.201   0.752
 1661W        W68070  25.710  11.982   3.125
 1662W        W68071  36.024  10.448  14.899
 1663W        W68072   9.879   1.317  12.899
 1664W        W68073  16.410   9.583   3.987
 1665W        W68074  23.887  14.251   1.171
 1666W        W68075   6.720  11.170   4.495
 1667W        W68076  20.828  15.511   3.032
 1668W        W68077  35.938  39.299  11.778
 1669W        W68078  20.524  28.519   4.210
 1670W        W68079  28.731  30.999  10.505
 1671W        W68080   3.194  36.659  14.255
 1672W        W68081  20.204  17.417   3.509
 1673W        W68082   0.929  39.319   4.174
 1674W        W68083  29.143  24.162  13.820
 1675W        W68084  43.459   6.771  14.469
 1676W        W68085  24.177  31.456   3.352
 1677W        W68086  14.669  30.955  14.296
 1678W        W68087  35.615  24.196  13.493
 1679W        W68088  12.315  31.079   4.520
 1680W        W68089  39.808  13.732   1.890
 1681W        W68090  32.081  15.657   2.188
 1682W        W68091   7.177  34.564   4.950
 1683W        W68092  10.711  30.463   3.230
 1684W        W68093   2.966  38.869  12.414
 1685W        W68094   9.219  32.828  13.158
 1686W        W68095   3.325  12.548   2.883
 1687W        W68096  34.144  24.718  12.468
 1688W        W68097  44.355  38.231  10.486
 1689W        W68098  28.154  25.471   3.697
 1690W        W68099  16.042  21.103  14.618
 1691W        W68100  17.226  15.958  13.917
 1692W        W68101  30.938  23.112   0.292
 1693W        W68102   7.340  30.094   0.973
 1694W        W68103  24.397  19.351  10.344
 1695W        W68104  30.003  21.583   0.682
 1696W        W68105  11.669   6.800  14.969
 1697W        W68106  40.904  15.240  12.042
 1698W        W68107  24.430  21.044  12.636
 1699W        W68108   4.189  32.355  13.868
 1700W        W68109   8.815  32.457  13.668
 1701W        W68110  10.546  16.500  14.824
 1702W        W68111  43.840  27.924  10.563
 1703W        W68112  15.315  21.644   2.271
 1704W        W68113  19.106   4.904   2.270
 1705W        W68114  19.575   9.800   4.645
 1706W        W68115  35.598  24.611  14.320
 1707W        W68116  36.050  41.810  14.900
 1708W        W68117  10.892  17.606   0.921
 1709W        W68118  35.909   4.885  14.171
 1710W        W68119   9.126   2.399   1.600
 1711W        W68120   5.697  22.711   0.252
 1712W        W68121  11.249  38.272   1.210
 1713W        W68122  37.299   4.484   1.355
 1714W        W68123   8.485  25.036  12.567
 1715W        W68124  35.348   6.024   4.690
 1716W        W68125  29.434  18.784   4.043
 1717W        W68126   9.320  34.832   0.876
 1718W        W68127   4.760  13.640  14.435
 1719W        W68128  31.386   0.463  11.674
 1720W        W68129   7.233  33.179   1.971
 1721W        W68130  12.089  12.891  11.545
 1722W        W68131  23.192  18.607   0.722
 1723W        W68132  29.113   9.790  13.097
 1724W        W68133  11.788  29.843   2.204
 1725W        W68134  31.532  19.574  12.158
 1726W        W68135  26.906   7.770   4.957
 1727W        W68136  19.023  33.577  11.491
 1728W        W68137  21.631  13.891   3.131
 1729W        W68138  13.716  40.135   3.545
 1730W        W68139   5.330   0.828   2.220
 1731W        W68140  36.545  31.352  13.422
 1732W        W68141  20.210  27.525   0.713
 1733W        W68142  35.469  34.044  11.678
 1734W        W68143  20.339  17.425  10.337
 1735W        W68144  44.263  22.951  14.899
 1736W        W68145  39.570  23.123   2.388
 1737W        W68146   2.005  14.622   4.642
 1738W        W68147   4.013  12.629  13.495
 1739W        W68148   3.031  40.440  11.167
 1740W        W68149  26.237  34.562  11.853
 1741W        W68150  34.363   2.223  14.363
 1742W        W68151   1.436  16.954   2.644
 1743W        W68152  36.099  40.442   2.556
 1744W        W68153  16.599  34.672  11.029
 1745W        W68154  35.102  36.011   1.895
 1746W        W68155  42.153  33.669  14.418
 1747W        W68156  32.603  33.915  12.625
 1748W        W68157  13.647  30.640  12.465
 1749W        W68158   3.994  12.237  11.539
 1750W        W68159  42.187   6.665  10.700
 1751W        W68160  35.171  41.963   1.746
 1752W        W68161  16.935  27.733  11.054
 1753W        W68162  12.274   2.215   2.876
 1754W        W68163  22.572  11.879  12.553
 1755W        W68164   9.689  36.242   2.616
 1756W        W68165   8.215   7.931   1.222
 1757W        W68166  20.841  24.976   0.444
 1758W        W68167  21.265   2.241  12.277
 1759W        W68168  12.919  42.531   1.412
 1760W        W68169   8.633  27.904  13.074
 1761W        W68170  44.306  28.001   1.051
 1762W        W68171  28.704  24.500  11.983
 1763W        W68172  38.290  31.754   3.259
 1764W        W68173   9.892   2.594   3.643
 1765W        W68174  21.640  31.574  13.256
 1766W        W68175  13.666  15.068   0.967
 1767W        W68176   0.977  31.160   2.803
 1768W        W68177  33.974  24.497   2.050
 1769W        W68178  23.936   8.873  10.247
 1770W        W68179   1.364   2.344   4.424
 1771W        W68180   9.307   3.531  12.486
 1772W        W68181  27.358   3.406   0.805
 1773W        W68182  22.106  23.657   1.013
 1774W        W68183  29.590  22.143   0.671
 1775W        W68184   9.771   1.045   1.863
 1776W        W68185  44.934  42.967   1.771
 1777W        W68186   1.078  41.999   1.409
 1778W        W68187  28.466  22.047  14.983
 1779W        W68188  21.478  13.365   2.357
 1780W        W68189  41.282  33.653   3.178
 1781W        W68190  16.535  26.556  14.074
 1782W        W68191   1.055  15.048  11.204
 1783W        W68192   7.907   4.802  12.664
 1784W        W68193  29.160  43.791  14.377
 1785W        W68194  33.033  37.868   3.303
 1786W        W68195  23.956  36.288   4.299
 1787W        W68196  28.077  19.108   4.454
 1788W        W68197   4.333  36.087   4.620
 1789W        W68198  42.699  31.986  11.003
 1790W        W68199  24.272   7.825   4.564
 1791W        W68200  38.389   9.846   0.709
 1792W        W68201   4.028  18.860  10.369
 1793W        W68202   8.838  34.146   0.566
 1794W        W68203  34.589  27.750   0.671
 1795W        W68204  43.333  43.340   0.883
 1796W        W68205  14.619   5.726   0.754
 1797W        W68206  34.982  20.331  14.832
 1798W        W68207  18.219   8.247  12.871
 1799W        W68208  20.027  16.517  14.481
 1800W        W68209  14.593  13.633  14.681
 1801W        W68210  18.214  38.566   1.465
 1802W        W68211   6.763  15.307   3.302
 1803W        W68212  16.817  36.820  12.884
 1804W        W68213  41.528  36.900  12.566
 1805W        W68214   8.848   3.535   3.803
 1806W        W68215  12.088  11.438   1.708
 1807W        W68216  17.088  44.925   0.790
 1808W        W68217  19.120   4.522  11.942
 1809W        W68218  14.459   6.409  14.066
 1810W        W68219  20.339  21.234  14.011
 1811W        W68220   5.754  15.863  12.064
 1812W        W68221  43.002  26.500  13.457
 1813W        W68222  29.968  35.479  13.934
 1814W        W68223  19.839  28.926   0.704
 1815W        W68224  33.562  31.838  12.939
 1816W        W68225   3.787   6.299  12.911
 1817W        W68226  39.319  41.303   4.114
 1818W        W68227  31.386   6.409  11.645
 1819W        W68228  22.502  37.509   1.329
 1820W        W68229  27.940  19.801   0.247
 1821W        W68230  28.550  36.577   1.451
 1822W        W68231  24.740  44.863  14.262
 1823W        W68232  20.724   5.672   3.703
 1824W        W68233  26.173   2.903   0.069
 1825W        W68234  34.352  40.794  14.932
 1826W        W68235  30.648  21.002  11.130
 1827W        W68236  35.045  39.681   4.601
 1828W        W68237  25.643  38.855  11.084
 1829W        W68238  23.264  17.054  11.669
 1830W        W68239   2.141  44.232   1.093
 1831W        W68240  18.717  10.878   4.611
 1832W        W68241  21.558  36.337  14.873
 1833W        W68242  13.041  25.207  14.713
 1834W        W68243  32.067   8.205   1.844
 1835W        W68244  34.206  13.206   1.370
 1836W        W68245  28.900  43.303   0.855
 1837W        W68246  24.961   5.549   0.057
 1838W        W68247  11.957  31.098   4.134
 1839W        W68248  33.951  24.006  12.962
 1840W        W68249   6.504  12.270  12.073
 1841W        W68250  44.262  40.083   4.783
 1842W        W68251  30.116   5.816  13.602
 1843W        W68252  29.550  42.964  10.331
 1844W        W68253   8.160   4.742  13.093
 1845W        W68254  40.962  38.719  12.311
 1846W        W68255  39.967   0.599  13.799
 1847W        W68256  10.328  24.235  10.972
 1848W        W68257  24.004  19.705  12.780
 1849W        W68258  44.050   8.926   0.914
 1850W        W68259  25.618  36.919   3.647
 1851W        W68260  14.939  20.762   2.615
 1852W        W68261   1.730  24.047   4.473
 1853W        W68262  11.461  44.969   1.458
 1854W        W68263  21.076  44.502   3.114
 1855W        W68264   5.444  15.749  13.515
 1856W        W68265  21.736  42.953  12.112
 1857W        W68266  11.177  30.887  11.141
 1858W        W68267  35.977   6.202  12.840
 1859W        W68268   5.269  25.532   3.237
 1860W        W68269  31.387  16.529   3.529
 1861W        W68270  44.364  33.338   4.584
 1862W        W68271  31.399  17.772   3.261
 1863W        W68272  16.077  17.037  13.642
 1864W        W68273  44.285  29.036  14.107
 1865W        W68274  39.614  27.996   3.323
 1866W        W68275  14.881  34.709  14.920
 1867W        W68276  39.815   0.258  11.097
 1868W        W68277  24.930  21.687   0.349
 1869W        W68278   5.305  19.322  12.123
 1870W        W68279  33.941  30.416   1.287
 1871W        W68280   8.881   7.719   1.033
 1872W        W68281  15.609  39.650  11.258
 1873W        W68282  18.941   4.306   3.100
 1874W        W68283  42.863  34.168   4.788
 1875W        W68284  40.123  10.369  11.683
 1876W        W68285  37.804   2.250   3.684
 1877W        W68286  20.796  43.032   1.040
 1878W        W68287  11.613  41.556  14.542
 1879W        W68288  22.904   7.482   2.718
 1880W        W68289  36.456  38.049  11.279
 1881W        W68290  40.884  16.162  10.329
 1882W        W68291  19.153  18.626   3.899
 1883W        W68292  24.655  15.171   3.641
 1884W        W68293  15.575  22.969  12.472
 1885W        W68294  30.478  20.158   2.726
 1886W        W68295  28.144   9.945  12.132
 1887W        W68296  34.836  35.136  11.969
 1888W        W68297  37.170  22.096   2.806
 1889W        W68298  21.610  21.194   1.545
 1890W        W68299  26.557  42.417  14.468
 1891W        W68300  17.275   2.300  13.427
 1892W        W68301  23.570  40.349   3.653
 1893W        W68302  25.426   7.799  11.976
 1894W        W68303  14.147  36.366  14.044
 1895W        W68304  12.691  21.040  14.434
 1896W        W68305  40.067   4.346  11.465
 1897W        W68306  40.973  13.642   1.418
 1898W        W68307   6.195  26.899   4.078
 1899W        W68308  13.345  36.476  10.476
 1900W        W68309  25.478  44.734   1.735
 1901W        W68310  34.775   1.403   4.181
 1902W        W68311  18.672  44.703   0.494
 1903W        W68312   0.137  22.041   4.090
 1904W        W68313  36.397  10.817  11.086
 1905W        W68314  40.972  25.956   1.770
 1906W        W68315  14.189  12.650  12.335
 1907W        W68316  20.514  25.127   1.952
 1908W        W68317  42.878  17.400   3.430
 1909W        W68318  37.504  13.808  11.547
 1910W        W68319   7.785  33.443   4.479
 1911W        W68320  32.539  33.136   4.120
 1912W        W68321   3.033  41.463   4.958
 1913W        W68322  12.136   6.664   4.140
 1914W        W68323  34.950  17.283   3.655
 1915W        W68324  41.267  44.089  10.690
 1916W        W68325   0.765  43.749  14.253
 1917W        W68326   9.090   5.827   1.804
 1918W        W68327  13.823  40.846  11.717
 1919W        W68328  21.144  34.818   2.892
 1920W        W68329  33.540   7.621   3.219
 1921W        W68330  13.571   8.270   4.368
 1922W        W68331  29.848  21.702  14.319
 1923W        W68332   1.782  43.809  14.350
 1924W        W68333  17.352  27.078  11.042
 1925W        W68334  39.110  43.951   0.022
 1926W        W68335  18.353  14.277  14.987
 1927W        W68336  43.412  18.514   2.708
 1928W        W68337  16.320  44.920   0.012
 1929W        W68338  42.747  28.586   1.073
 1930W        W68339   5.334   1.160  11.935
 1931W        W68340  33.456  40.980  13.109
 1932W        W68341  16.024  19.146   2.209
 1933W        W68342   1.662  26.462  12.495
 1934W        W68343  19.000  20.469   0.239
 1935W        W68344  23.071  23.304  13.888
 1936W        W68345  17.775  37.636   1.777
 1937W        W68346  39.690  22.185  14.424
 1938W        W68347   3.454   5.772   1.107
 1939W        W68348  42.551  39.031  11.434
 1940W        W68349  26.607   0.354   0.542
 1941W        W68350   7.299  33.887   0.435
 1942W        W68351   4.403   7.194  11.244
 1943W        W68352  41.384   5.186  14.939
 1944W        W68353   1.847  19.283  12.205
 1945W        W68354  20.258  26.627   2.864
 1946W        W68355   5.142  12.339   4.286
 1947W        W68356  10.541  33.419   3.980
 1948W        W68357  43.769  19.559   4.465
 1949W        W68358  13.146  10.369  12.549
 1950W        W68359  24.721  36.588  13.651
 1951W        W68360  29.694  29.282   2.422
 1952W        W68361  43.301  28.384  12.215
 1953W        W68362  39.407  13.507  14.360
 1954W        W68363  28.556  15.905  11.065
 1955W        W68364  18.604   2.757  12.962
 1956W        W68365  25.021  13.286  14.183
 1957W        W68366  21.307  28.195  11.139
 1958W        W68367  19.995  16.212  11.304
 1959W        W68368   3.742  21.662  11.452
 1960W        W68369  38.260  21.461   9.492
 1961W        W68370  27.410   4.243  14.845
 1962W        W68371  15.094   2.711  12.502
 1963W        W68372  22.509  44.908  12.366
 1964W        W68373   7.342  26.974  13.377
 1965W        W68374  25.480  37.312   1.085
 1966W        W68375  11.823  41.373  13.671
 1967W        W68376  44.478  22.669  13.989
 1968W        W68377  31.128  42.561   2.686
 1969W        W68378  12.138  36.790   3.077
 1970W        W68379  32.207   3.505  13.426
 1971W        W68380  34.406  17.213   2.592
 1972W        W68381  19.015  44.926   1.917
 1973W        W68382  32.771  31.682   3.566
 1974W        W68383  16.571  28.017   4.884
 1975W        W68384  43.602   0.859  12.587
 1976W        W68385  41.920  42.644   4.071
 1977W        W68386  32.672  14.780  12.974
 1978W        W68387  19.486  14.804  14.317
 1979W        W68388   5.389  40.505  14.895
 1980W        W68389  11.446  25.435  14.319
 1981W        W68390  10.315  42.808   0.968
 1982W        W68391  38.504  24.623  12.602
 1983W        W68392  11.687  16.988  11.020
 1984W        W68393  39.145  37.827   3.928
 1985W        W68394  36.289  35.052  13.402
 1986W        W68395  33.510  18.772   2.825
 1987W        W68396  12.160  35.902  13.060
 1988W        W68397  10.823  25.096  10.837
 1989W        W68398  35.015  25.046   1.339
 1990W        W68399  21.053  36.471   1.614
 1991W        W68400  11.613  27.655  13.399
 1992W        W68401  43.108  22.552   2.199
 1993W        W68402   9.620  41.990  13.386
 1994W        W68403  26.742  38.104  13.084
 1995W        W68404   7.327   6.168  10.657
 1996W        W68405  43.476  14.078  14.334
 1997W        W68406   8.790  39.925  14.897
 1998W        W68407  19.075  44.473  11.950
 1999W        W68408  31.928   9.639   3.700
 2000W        W68409   3.065  17.126   0.839
 2001W        W68410   8.206  16.748   3.699
 2002W        W68411   1.873  24.535   4.610
 2003W        W68412  27.428  17.291  14.350
 2004W        W68413   8.101  20.277  14.883
 2005W        W68414  28.390  36.873   1.842
 2006W        W68415  43.858   8.448   3.233
 2007W        W68416  40.297  17.620   1.113
 2008W        W68417  35.255  12.114  12.451
 2009W        W68418  40.862  10.344  13.369
 2010W        W68419   9.625  21.126  12.582
 2011W        W68420  18.341  23.137   1.002
 2012W        W68421  17.528  11.168  10.723
 2013W        W68422  19.767  38.351   4.594
 2014W        W68423  40.060  28.917   3.154
 2015W        W68424  26.649  29.813   2.887
 2016W        W68425  25.570  18.966  11.421
 2017W        W68426  27.890  42.419   2.499
 2018W        W68427   1.308  13.142   4.217
 2019W        W68428  14.267   6.440  12.405
 2020W        W68429  40.537  28.666  14.616
 2021W        W68430   8.888   7.927  13.854
 2022W        W68431  11.571  29.492   3.752
 2023W        W68432  16.062   4.592  14.899
 2024W        W68433  22.233  40.936  14.807
 2025W        W68434  10.286  39.398  12.800
 2026W        W68435   7.673  42.355  11.514
 2027W        W68436   7.428  40.313  12.422
 2028W        W68437  44.843  14.116  10.715
 2029W        W68438  23.457  22.531  14.829
 2030W        W68439  22.564  14.979   4.879
 2031W        W68440   1.985  13.669  12.004
 2032W        W68441   2.332  19.732   1.979
 2033W        W68442  20.988  33.956  12.056
 2034W        W68443  40.835  23.590   1.358
 2035W        W68444  22.900  37.952  11.574
 2036W        W68445   6.178  11.708   4.508
 2037W        W68446  16.487  42.166   0.745
 2038W        W68447  24.084  28.911  12.626
 2039W        W68448  40.524   1.807  12.523
 2040W        W68449   0.875  18.420   2.260
 2041W        W68450  38.047  27.289   4.046
 2042W        W68451  40.277   4.250  14.424
 2043W        W68452  42.560  15.019   1.380
 2044W        W68453  25.204   9.647   1.809
 2045W        W68454  38.631  20.173   3.765
 2046W        W68455  32.966  18.262   1.679
 2047W        W68456  38.444  13.194   2.654
 2048W        W68457  21.733  30.097   2.824
 2049W        W68458  36.391  23.408  11.028
 2050W        W68459  39.343  30.300  14.783
 2051W        W68460  35.448   0.764   1.936
 2052W        W68461  41.992  24.922  14.330
 2053W        W68462  33.534  26.079   2.366
 2054W        W68463   4.741  21.595  12.997
 2055W        W68464   3.922  18.789   2.654
 2056W        W68465   4.644  34.629  12.100
 2057W        W68466  11.438  40.736  14.393
 2058W        W68467  28.100   3.148  14.100
 2059W        W68468  21.277   7.798  12.060
 2060W        W68469  20.025  16.722   1.435
 2061W        W68470  37.278  14.163  12.888
 2062W        W68471   0.620  44.233   0.853
 2063W        W68472  22.532   4.961  10.449
 2064W        W68473  43.350  29.084  13.489
 2065W        W68474   8.114  31.617   0.803
 2066W        W68475  29.960  14.542  13.928
 2067W        W68476  16.349   0.366   2.349
 2068W        W68477  36.893  29.255  14.444
 2069W        W68478   7.712   8.535   2.286
 2070W        W68479  43.828  15.141  13.341
 2071W        W68480  21.173   1.429  14.570
 2072W        W68481   8.270  43.887  13.851
 2073W        W68482  30.569  44.566  12.927
 2074W        W68483  13.905  29.917  13.968
 2075W        W68484   8.383  41.138  13.016
 2076W        W68485  33.202   9.950   2.582
 2077W        W68486   1.815  44.969   2.811
 2078W        W68487   7.401  22.538   1.335
 2079W        W68488  24.197  44.776   4.115
 2080W        W68489   6.962   8.956  14.975
 2081W        W68490   9.220  10.685  11.309
 2082W        W68491  15.671   5.846   3.998
 2083W        W68492   7.666  43.792  10.716
 2084W        W68493   5.847  32.335  12.564
 2085W        W68494   0.255   7.840  11.305
 2086W        W68495  33.102   8.237  10.371
 2087W        W68496  22.677  31.410   2.380
 2088W        W68497  41.018  36.283  13.944
 2089W        W68498  12.547   2.030  11.517
 2090W        W68499  19.922  14.767  14.622
 2091W        W68500  44.202  44.476   4.499
 2092W        W68501  37.191  10.418   1.412
 2093W        W68502   9.269  22.332  11.254
 2094W        W68503  11.595   0.591   2.768
 2095W        W68504  28.147   4.490   1.318
 2096W        W68505   0.075  26.679   4.871
 2097W        W68506   1.328   6.332   3.248
 2098W        W68507  38.465  29.858  11.758
 2099W        W68508  27.563  35.880  12.971
 2100W        W68509  15.580  35.861  10.648
 2101W        W68510  31.381  13.353  12.096
 2102W        W68511  27.447  18.214   0.301
 2103W        W68512   0.339  44.384   4.024
 2104W        W68513   2.871   0.989   1.939
 2105W        W68514  11.391  43.790   2.086
 2106W        W68515  11.438  15.358   2.040
 2107W        W68516   0.998   6.869   4.466
 2108W        W68517  38.767  39.423   3.321
 2109W        W68518   0.461   8.298  12.827
 2110W        W68519  33.631   0.677   2.192
 2111W        W68520  30.441   8.215  12.902
 2112W        W68521  14.334  33.040  10.610
 2113W        W68522  12.568  28.965  10.802
 2114W        W68523  13.710  20.119  14.030
 2115W        W68524   1.409  10.728  14.240
 2116W        W68525  24.870   1.621   1.006
 2117W        W68526  17.087  39.508   0.936
 2118W        W68527  42.220  22.541  13.458
 2119W        W68528   5.824  11.633   4.134
 2120W        W68529  43.709  24.809  13.784
 2121W        W68530  13.325  20.607   5.197
 2122W        W68531  39.922  29.338   3.878
 2123W        W68532  44.601   2.953   0.224
 2124W        W68533  14.896  11.834  10.249
 2125W        W68534   4.840  32.625   1.218
 2126W        W68535  43.307   6.466  14.069
 2127W        W68536  38.536  41.984  14.408
 2128W        W68537  43.545  29.030   0.875
 2129W        W68538  20.795  10.298   0.662
 2130W        W68539  10.632   5.220   3.081
 2131W        W68540  14.288  33.799  11.375
 2132W        W68541  38.952  41.569   3.481
 2133W        W68542  11.049  37.084   4.402
 2134W        W68543  29.240  31.056  10.643
 2135W        W68544  33.155   4.185   4.496
 2136W        W68545  26.567  26.398  10.924
 2137W        W68546   1.903  31.512  14.764
 2138W        W68547   0.045  39.497   2.129
 2139W        W68548  21.754  11.439  12.961
 2140W        W68549  43.246  26.202  14.383
 2141W        W68550  31.124  44.867  12.591
 2142W        W68551  30.474  38.971   1.286
 2143W        W68552   4.770  13.149   1.281
 2144W        W68553  34.831  29.000  12.159
 2145W        W68554  22.493  19.271   2.777
 2146W        W68555  13.064   4.395  10.125
 2147W        W68556  22.017  42.423  11.011
 2148W        W68557   7.177  39.931  13.870
 2149W        W68558   7.838   4.384  11.850
 2150W        W68559  21.109   2.890   3.811
 2151W        W68560  16.230  22.684  12.612
 2152W        W68561  11.300  42.798   3.566
 2153W        W68562  40.254  30.014  10.674
 2154W        W68563   2.559  33.151  12.611
 2155W        W68564   1.810  21.508   1.258
 2156W        W68565  43.613   0.341  14.286
 2157W        W68566   0.168  35.098   3.755
 2158W        W68567  11.844  24.616   1.169
 2159W        W68568  18.122  44.220  11.617
 2160W        W68569  41.596  19.581   3.302
 2161W        W68570   3.653  15.754  14.525
 2162W        W68571  15.269  18.004   1.265
 2163W        W68572  38.436  20.759  12.067
 2164W        W68573  31.383  20.229   3.804
 2165W        W68574  25.180  22.042  14.342
 2166W        W68575  30.388  37.645  14.443
 2167W        W68576   2.910   1.279   4.747
 2168W        W68577  28.076  18.267  10.741
 2169W        W68578   7.648   4.392  10.710
 2170W        W68579  18.110  20.767   2.048
 2171W        W68580   8.189   4.158   3.647
 2172W        W68581  29.874   8.936   1.929
 2173W        W68582   8.668   6.269   4.050
 2174W        W68583  13.543   3.050  14.078
 2175W        W68584  11.704  33.580   1.199
 2176W        W68585  29.011  32.085   4.104
 2177W        W68586  22.457  44.447  12.100
 2178W        W68587  35.552  16.764   4.984
 2179W        W68588  26.645   3.059   4.381
 2180W        W68589   2.720   0.068   1.966
 2181W        W68590  16.709  30.446  12.581
 2182W        W68591  32.514  39.051   1.300
 2183W        W68592  24.597  20.514  13.993
 2184W        W68593  12.369  16.710  11.600
 2185W        W68594  19.356   8.895   0.833
 2186W        W68595  31.897  23.536  12.926
 2187W        W68596   0.293  14.513   3.962
 2188W        W68597  29.717   9.816  10.956
 2189W        W68598  28.525  33.083  14.736
 2190W        W68599  32.392  39.403   3.611
 2191W        W68600   4.319  22.309  14.902
 2192W        W68601  18.616  21.003  12.444
 2193W        W68602  30.641  26.012   0.844
 2194W        W68603  32.132  25.453  11.110
 2195W        W68604  26.534  22.663   3.340
 2196W        W68605   4.144  31.496  14.253
 2197W        W68606   0.229  38.778  11.592
 2198W        W68607   4.507  33.654  14.284
 2199W        W68608  43.332   1.432  10.752
 2200W        W68609  34.026   6.661   4.775
 2201W        W68610  44.359  11.559   3.782
 2202W        W68611  37.443   6.879   1.979
 2203W        W68612   7.241  19.251  12.858
 2204W        W68613  35.037  16.835  12.451
 2205W        W68614  43.483  21.264  14.457
 2206W        W68615  21.509  12.738  13.758
 2207W        W68616   2.904  31.565   0.807
 2208W        W68617  42.654  11.803  10.078
 2209W        W68618  19.684   4.712   0.182
 2210W        W68619  20.490  42.784  14.124
 2211W        W68620  30.408  24.260  13.393
 2212W        W68621  40.830  19.295  13.416
 2213W        W68622  20.807  16.183   2.284
 2214W        W68623  15.765   3.763  13.571
 2215W        W68624  34.335   1.534   1.188
 2216W        W68625  35.052  10.988  12.993
 2217W        W68626  25.052  17.305   2.965
 2218W        W68627   5.469   5.756   0.885
 2219W        W68628  40.516   0.147   2.926
 2220W        W68629  26.577  42.271  10.584
 2221W        W68630  21.624  35.332  14.819
 2222W        W68631   8.406  19.650  11.129
 2223W        W68632   8.422  34.426   2.277
 2224W        W68633  17.814  29.690   2.842
 2225W        W68634  40.055  36.506  14.198
 2226W        W68635  35.817  18.724  13.491
 2227W        W68636   2.544  41.019   0.953
 2228W        W68637  22.869  24.709  10.105
 2229W        W68638  40.823  30.112   3.403
 2230W        W68639  34.904   3.975  13.694
 2231W        W68640  28.570  26.737  13.369
 2232W        W68641  20.961  40.378   3.316
 2233W        W68642  15.511  21.998  12.320
 2234W        W68643  32.968  23.652   0.426
 2235W        W68644  31.762  30.058   0.968
 2236W        W68645  27.405   0.340  12.486
 2237W        W68646  36.843   8.698   4.107
 2238W        W68647  42.726   9.248   3.066
 2239W        W68648  40.087  38.397   4.751
 2240W        W68649  17.790  28.174   0.534
 2241W        W68650   9.887  42.834   0.236
 2242W        W68651  36.115  15.253   1.645
 2243W        W68652  16.701   7.216  10.918
 2244W        W68653   8.092   9.297   3.458
 2245W        W68654  41.979  17.254  11.528
 2246W        W68655  40.257  39.764  11.208
 2247W        W68656  18.177  42.308   3.846
 2248W        W68657  18.996  26.729  10.297
 2249W        W68658  14.208  12.768  13.227
 2250W        W68659  33.944   6.961  13.455
 2251W        W68660   5.330  35.012   3.136
 2252W        W68661  11.774   8.803   3.135
 2253W        W68662   6.957  20.551  11.097
 2254W        W68663  10.121  24.725  14.875
 2255W        W68664  17.324  14.730  11.110
 2256W        W68665  39.544  17.693   1.837
 2257W        W68666  42.994   6.890   4.062
 2258W        W68667   6.796  18.474   0.722
 2259W        W68668  27.668  17.556  13.279
 2260W        W68669   6.431  17.670  10.256
 2261W        W68670  41.764  27.905   1.787
 2262W        W68671  32.086  28.093   3.258
 2263W        W68672  13.955  30.223   4.025
 2264W        W68673  38.351  20.213  14.375
 2265W        W68674  36.903  39.407   2.717
 2266W        W68675   8.356  21.180  12.802
 2267W        W68676  17.965   6.467   0.897
 2268W        W68677  18.640  32.475   2.755
 2269W        W68678  37.434  37.678  11.659
 2270W        W68679   2.881  16.698   3.928
 2271W        W68680   9.383  18.623  10.682
 2272W        W68681  30.086  37.374   4.880
 2273W        W68682  25.616   3.687   1.320
 2274W        W68683  20.133  21.746   2.093
 2275W        W68684  15.703  26.972   0.757
 2276W        W68685  13.895  37.190  11.913
 2277W        W68686  24.753   7.717   2.540
 2278W        W68687  11.695  14.816  12.377
 2279W        W68688  21.455   1.304   2.948
 2280W        W68689  25.032  42.361   3.347
 2281W        W68690  40.240  34.861  11.778
 2282W        W68691  31.956  29.126   4.267
 2283W        W68692  26.237  11.445  10.838
 2284W        W68693  25.265  34.567  11.737
 2285W        W68694  13.204   9.271  14.048
 2286W        W68695   7.900  13.852   2.652
 2287W        W68696  38.565  39.870  13.413
 2288W        W68697  15.646   1.714   3.913
 2289W        W68698  43.912  30.881  13.905
 2290W        W68699  34.212  35.536  14.487
 2291W        W68700   5.299  10.460  13.835
 2292W        W68701  42.892  41.566  13.076
 2293W        W68702  22.701  26.301   2.832
 2294W        W68703  24.954  15.264   1.977
 2295W        W68704  28.484  28.981   2.684
 2296W        W68705   2.464  34.723  11.119
 2297W        W68706  25.334  25.563  13.864
 2298W        W68707   9.229  25.362   1.929
 2299W        W68708  28.748  34.494  13.019
 2300W        W68709  17.310  38.009  12.725
 2301W        W68710   0.835  25.744  12.134
 2302W        W68711  17.259  32.996  11.579
 2303W        W68712  20.892   4.744  12.062
 2304W        W68713  24.415  26.286   4.146
 2305W        W68714  24.689  20.963   2.668
 2306W        W68715  22.069   3.817  14.320
 2307W        W68716  38.006  21.722  14.294
 2308W        W68717  40.530   7.078   2.769
 2309W        W68718  35.215  22.447   0.473
 2310W        W68719  42.332  26.768  11.301
 2311W        W68720   5.450  40.233   2.125
 2312W        W68721  12.802   9.249   0.844
 2313W        W68722  43.705  40.603   1.718
 2314W        W68723  41.283  28.335   4.788
 2315W        W68724  35.631   9.686   1.217
 2316W        W68725  38.368   2.024   2.321
 2317W        W68726   1.715  42.159   4.511
 2318W        W68727  43.902  18.451   1.282
 2319W        W68728  32.568  23.183   2.199
 2320W        W68729   0.910  16.358  11.957
 2321W        W68730  40.880  13.804   3.597
 2322W        W68731  33.073  22.617   0.414
 2323W        W68732  25.649   3.817   0.827
 2324W        W68733  42.665  32.360   2.665
 2325W        W68734  20.583  17.510  14.244
 2326W        W68735  44.923   0.416   2.761
 2327W        W68736  15.209   4.370  11.568
 2328W        W68737  17.891  19.262   3.644
 2329W        W68738   0.322  20.021  14.059
 2330W        W68739  39.332  44.297   0.878
 2331W        W68740  13.119   5.723   2.291
 2332W        W68741   5.299  27.915  14.058
 2333W        W68742  41.481  30.545   1.379
 2334W        W68743  36.597   5.785  11.173
 2335W        W68744   7.145  18.126   0.910
 2336W        W68745   8.231   2.869  10.272
 2337W        W68746  19.089  29.018   4.133
 2338W        W68747  44.323  40.070  11.230
 2339W        W68748   6.951  19.481  12.480
 2340W        W68749   2.249  21.295  10.397
 2341W        W68750   8.798  21.996  13.394
 2342W        W68751  13.218  22.479   3.401
 2343W        W68752  15.616   2.356  14.754
 2344W        W68753  18.255  28.644   2.344
 2345W        W68754  29.797  26.920  13.995
 2346W        W68755  11.172  40.983   3.744
 2347W        W68756  34.482   6.942   2.249
 2348W        W68757  35.593  17.968  14.531
 2349W        W68758   1.935  15.346   0.220
 2350W        W68759  32.091  14.553  11.076
 2351W        W68760  42.247  38.199  12.826
 2352W        W68761  44.226  30.032  14.409
 2353W        W68762  36.634   3.146  13.048
 2354W        W68763   6.167  18.896   3.681
 2355W        W68764  17.826  15.065   0.329
 2356W        W68765  23.785  17.049  10.866
 2357W        W68766  32.667   9.252  12.452
 2358W        W68767  32.942  12.151   0.231
 2359W        W68768  36.634  15.133  13.787
 2360W        W68769  34.350  13.379  14.985
 2361W        W68770  24.183  15.302  13.910
 2362W        W68771  41.954  44.084  12.963
 2363W        W68772  25.964  25.642   3.151
 2364W        W68773  16.829  19.311   2.655
 2365W        W68774  40.950  13.361  11.839
 2366W        W68775  22.086   8.759   0.834
 2367W        W68776  29.471  17.687  11.197
 2368W        W68777  27.556  20.168  12.331
 2369W        W68778  39.389  39.022   1.669
 2370W        W68779   0.810   8.770  14.543
 2371W        W68780  19.559  27.768  11.682
 2372W        W68781  19.544  21.626  14.341
 2373W        W68782  22.532  14.125   1.704
 2374W        W68783  24.519  25.826   2.870
 2375W        W68784  17.716  20.014   0.284
 2376W        W68785  29.552   0.645  11.578
 2377W        W68786  18.143  18.825   0.188
 2378W        W68787  41.719  26.636   0.017
 2379W        W68788  11.841  11.764  11.691
 2380W        W68789  30.562  34.082   0.421
 2381W        W68790  40.379  12.032   0.481
 2382W        W68791  11.192  10.786  13.761
 2383W        W68792  28.356  25.436  12.106
 2384W        W68793  23.913  19.583  11.565
 2385W        W68794   9.139   2.985   0.949
 2386W        W68795  40.379  29.063  14.908
 2387W        W68796  30.984   8.017   4.250
 2388W        W68797  27.597   0.941   2.773
 2389W        W68798  25.639   0.337  13.355
 2390W        W68799   8.981  26.204   2.237
 2391W        W68800  13.358  23.632  11.944
 2392W        W68801  12.035   2.825  11.506
 2393W        W68802  27.522  21.224   2.335
 2394W        W68803  38.573   7.237   4.726
 2395W        W68804  29.945  25.887  12.063
 2396W        W68805  37.480   3.248   1.701
 2397W        W68806  33.940  32.085  13.797
 2398W        W68807  29.345  32.822   0.382
 2399W        W68808  40.021  41.931  14.743
 2400W        W68809  44.370  10.809   1.813
 2401W        W68810  24.076   1.175  10.890
 2402W        W68811   6.867   5.286  10.822
 2403W        W68812  13.358   1.302  14.074
 2404W        W68813  19.544   8.169  14.069
 2405W        W68814  23.386   0.818   4.239
 2406W        W68815  30.058   5.091  12.512
 2407W        W68816  24.612  18.214  12.812
 2408W        W68817   9.148  30.232   3.282
 2409W        W68818  35.505  19.684   2.444
 2410W        W68819  25.685  33.577   0.729
 2411W        W68820  13.123  28.588   4.449
 2412W        W68821  17.676   8.304  10.552
 2413W        W68822  39.428  27.704   2.828
 2414W        W68823  30.132  31.083  13.623
 2415W        W68824  27.049   3.319   1.438
 2416W        W68825  17.867  12.591  14.356
 2417W        W68826  32.777  12.764   4.563
 2418W        W68827  15.121  14.893   3.598
 2419W        W68828  23.928  42.669   3.835
 2420W        W68829  18.644  41.018  11.680
 2421W        W68830  33.510  25.798  11.853
 2422W        W68831  11.142  21.615   3.725
 2423W        W68832  16.623  40.473   2.237
 2424W        W68833  18.812   0.219   3.781
 2425W        W68834  44.288   1.200  12.103
 2426W        W68835  38.565  36.823   3.363
 2427W        W68836  11.242   4.182  11.173
 2428W        W68837  25.128  22.787  10.276
 2429W        W68838  13.299  30.024   4.106
 2430W        W68839  42.064  30.058   0.687
 2431W        W68840  11.252  30.459   3.179
 2432W        W68841  14.829  11.374  13.453
 2433W        W68842  24.210  34.082  13.079
 2434W        W68843  22.030   5.134  14.782
 2435W        W68844  19.276  17.857   2.772
 2436W        W68845   3.349   3.850  12.096
 2437W        W68846  27.136   6.691   3.626
 2438W        W68847  26.013  42.402   4.399
 2439W        W68848  36.365  27.031  14.787
 2440W        W68849  30.677   9.288   0.569
 2441W        W68850  41.798  41.022   2.622
 2442W        W68851  33.644   1.675   2.382
 2443W        W68852   8.090  22.154  13.791
 2444W        W68853  34.248   6.155   1.113
 2445W        W68854  32.026  23.677   0.282
 2446W        W68855  42.760  33.006   2.099
 2447W        W68856  40.396  28.157   2.813
 2448W        W68857  16.607  26.075  13.478
 2449W        W68858  18.926  14.660   0.004
 2450W        W68859  28.952  40.377  14.247
 2451W        W68860  14.783   1.024   5.667
 2452W        W68861   6.359  26.984   2.138
 2453W        W68862  23.025   2.245   0.805
 2454W        W68863  12.166  20.292   3.138
 2455W        W68864  25.449   7.192  14.945
 2456W        W68865  20.269  34.671  12.605
 2457W        W68866   4.335  14.385   4.098
 2458W        W68867  24.256  14.649   0.882
 2459W        W68868   2.559  14.165   3.394
 2460W        W68869  28.892  25.698   3.264
 2461W        W68870  34.666   5.613   2.587
 2462W        W68871  35.641  20.996   2.704
 2463W        W68872  12.218  34.584  11.175
 2464W        W68873  42.914  16.042  10.381
 2465W        W68874  31.245  23.123   1.374
 2466W        W68875  18.816  11.328   0.720
 2467W        W68876  37.508  34.567   3.953
 2468W        W68877  29.433  28.038   3.071
 2469W        W68878   5.960   9.932   4.486
 2470W        W68879  37.549  27.624  12.546
 2471W        W68880  38.404  23.999   0.559
 2472W        W68881  17.635  30.239  12.002
 2473W        W68882  17.832  36.699  14.489
 2474W        W68883  42.335  42.348   0.728
 2475W        W68884   2.852  14.885  11.113
 2476W        W68885  33.654  43.948   1.204
 2477W        W68886   5.404  40.559  12.779
 2478W        W68887  38.267  43.802   3.199
 2479W        W68888   7.651  23.082   2.239
 2480W        W68889  38.964  15.101  13.551
 2481W        W68890  14.040  22.466   0.168
 2482W        W68891  42.889  30.086  11.121
 2483W        W68892  15.332  40.284  12.909
 2484W        W68893  25.930  26.594  12.552
 2485W        W68894  28.834  11.583  12.142
 2486W        W68895  24.004  28.399  14.753
 2487W        W68896   6.102  22.416   2.224
 2488W        W68897   0.968  41.257  11.200
 2489W        W68898  16.010  43.734  13.891
 2490W        W68899   8.623   0.983  13.415
 2491W        W68900  38.493  20.021   0.416
 2492W        W68901  42.891  13.940  14.726
 2493W        W68902  34.541   5.306   1.022
 2494W        W68903  35.272  26.960  13.885
 2495W        W68904   0.950  37.872   3.148
 2496W        W68905   1.765  13.331  13.543
 2497W        W68906  13.598  40.321  13.358
 2498W        W68907   6.414  25.909   0.539
 2499W        W68908   3.481  15.814  11.965
 2500W        W68909  10.067  38.106   1.963
 2501W        W68910   7.166  27.947  12.020
 2502W        W68911  43.252  35.273   2.052
 2503W        W68912  40.920  15.886   3.516
 2504W        W68913   2.046  15.305  11.108
 2505W        W68914  17.063  15.017  11.593
 2506W        W68915  22.991  10.270   1.205
 2507W        W68916  32.312  11.601   4.874
 2508W        W68917  25.242   0.430   3.287
 2509W        W68918  20.767  29.103  13.032
 2510W        W68919  22.232  16.980  14.383
 2511W        W68920  31.656  15.539   1.366
 2512W        W68921  19.021  15.165   4.714
 2513W        W68922   5.387  32.553  14.469
 2514W        W68923  19.729  36.911  12.541
 2515W        W68924   6.686  34.557   5.167
 2516W        W68925   5.550  21.145   5.124
 2517W        W68926  20.235  30.348  11.128
 2518W        W68927   6.772  19.953   1.168
 2519W        W68928  38.880  43.523   2.425
 2520W        W68929  31.985  10.684   2.563
 2521W        W68930  41.800  37.577  11.863
 2522W        W68931  36.661  41.563   2.632
 2523W        W68932   1.063  27.941  11.086
 2524W        W68933  20.202  13.671  11.878
 2525W        W68934  16.655  42.193   4.222
 2526W        W68935  26.126   0.172  14.417
 2527W        W68936  31.431  30.343   0.067
 2528W        W68937  15.915  22.562   3.067
 2529W        W68938   7.465  34.402   0.847
 2530W        W68939  44.484   8.625   0.902
 2531W        W68940   8.922  10.109  13.983
 2532W        W68941  43.170   5.022   0.729
 2533W        W68942  43.195  43.100   5.084
 2534W        W68943   9.130   1.090   0.693
 2535W        W68944  18.497   8.113   3.702
 2536W        W68945  35.882  24.653  10.492
 2537W        W68946  38.665  39.353  13.358
 2538W        W68947  26.087  22.834   0.877
 2539W        W68948  21.749  33.412  11.925
 2540W        W68949  11.227  17.079   1.563
 2541W        W68950  20.703  26.968   1.251
 2542W        W68951  21.093  36.332   5.198
 2543W        W68952  33.088  16.681  14.407
 2544W        W68953  14.532  30.287   5.153
 2545W        W68954  44.241   9.641  13.372
 2546W        W68955  35.096  32.853   2.034
 2547W        W68956  41.135  39.970   2.293
 2548W        W68957  39.460  19.572  13.557
 2549W        W68958  20.796  15.018  11.229
 2550W        W68959  34.348   0.544  14.857
 2551W        W68960   1.709  27.156  11.978
 2552W        W68961  19.290   4.050   2.791
 2553W        W68962   3.002  43.298  11.163
 2554W        W68963   5.712  15.032   1.245
 2555W        W68964  29.969   9.459  11.719
 2556W        W68965  35.616  44.738  13.220
 2557W        W68966  43.766  15.270  14.323
 2558W        W68967   9.319  40.615   0.804
 2559W        W68968  28.176  19.198   3.388
 2560W        W68969  39.560  11.594  14.156
 2561W        W68970  25.362  28.878  11.179
 2562W        W68971  37.552   8.287   3.754
 2563W        W68972  11.618  43.784  14.293
 2564W        W68973  21.561  37.441   3.087
 2565W        W68974  26.036  39.824   4.541
 2566W        W68975  29.157  44.023   4.500
 2567W        W68976  39.009   6.560   4.258
 2568W        W68977  33.658  20.643   0.891
 2569W        W68978   6.021   1.263  13.525
 2570W        W68979   5.909  43.550   0.948
 2571W        W68980  31.920   7.853  11.086
 2572W        W68981  20.820   1.882   1.383
 2573W        W68982  18.342   8.812  10.767
 2574W        W68983  43.591  28.057   4.727
 2575W        W68984  24.129  11.590   5.043
 2576W        W68985  15.651  12.864  13.552
 2577W        W68986   5.640  21.269  11.091
 2578W        W68987   6.810  23.142  12.119
 2579W        W68988   8.391   8.298  10.799
 2580W        W68989  11.042   0.923  14.851
 2581W        W68990   7.455  12.188   2.204
 2582W        W68991  15.359  18.649  13.912
 2583W        W68992   9.328   6.246   0.303
 2584W        W68993  22.140  33.001   0.439
 2585W        W68994  19.416  38.154   0.862
 2586W        W68995  44.020  30.367  12.983
 2587W        W68996  44.338   4.444   2.822
 2588W        W68997  16.818  32.537   2.711
 2589W        W68998  39.397   0.829   1.327
 2590W        W68999  21.290   7.360  12.897
 2591W        W69000  26.539  42.767  10.735
 2592W        W69001  10.925  29.600   2.279
 2593W        W69002   9.043   6.880   2.203
 2594W        W69003  16.619   7.400   4.664
 2595W        W69004  21.851   7.197   1.865
 2596W        W69005  41.256  41.486   0.384
 2597W        W69006  35.559   8.356   3.745
 2598W        W69007  30.993  21.078   4.020
 2599W        W69008  33.575  35.455   4.969
 2600W        W69009  42.503   4.692   3.693
 2601W        W69010  18.605  40.893  12.210
 2602W        W69011   7.086  42.719  11.695
 2603W        W69012  26.144  20.092  13.452
 2604W        W69013  37.444  30.056  10.784
 2605W        W69014  12.346   9.878   2.912
 2606W        W69015  43.522  24.214   3.847
 2607W        W69016  37.988  36.444   4.104
 2608W        W69017  10.255  24.461  12.375
 2609W        W69018   2.788  42.943  10.409
 2610W        W69019  41.382  24.994   2.933
 2611W        W69020  25.148  15.193   2.868
 2612W        W69021   4.944  43.225   4.558
 2613W        W69022  37.301  16.737   4.620
 2614W        W69023  38.861  35.815   0.798
 2615W        W69024  15.760  14.845   2.263
 2616W        W69025  20.677  25.765  12.383
 2617W        W69026  24.573  43.535  14.768
 2618W        W69027  24.440  10.211  13.014
 2619W        W69028  29.347  35.875  12.883
 2620W        W69029  33.649  32.473  11.063
 2621W        W69030   4.027  12.285   2.208
 2622W        W69031  29.678  30.803  11.438
 2623W        W69032  13.294  19.730  12.770
 2624W        W69033  28.889  11.189  13.919
 2625W        W69034  19.572  19.672   2.175
 2626W        W69035  32.944  24.142   2.634
 2627W        W69036  41.908  10.656   3.142
 2628W        W69037  39.503  21.235   2.367
 2629W        W69038  33.285  25.987   1.909
 2630W        W69039   4.448  17.060   3.703
 2631W        W69040  44.007  30.214   2.251
 2632W        W69041   2.231   2.712  12.946
 2633W        W69042  15.806   1.448  11.974
 2634W        W69043   5.912  44.012  13.314
 2635W        W69044   8.655  11.859  11.390
 2636W        W69045  12.078  21.022   2.614
 2637W        W69046  43.175  24.008   2.294
 2638W        W69047  19.531  31.963  11.199
 2639W        W69048  16.719  33.133   1.339
 2640W        W69049  26.003  13.627   3.775
 2641W        W69050  27.555   1.496   0.763
 2642W        W69051   9.668  38.864   0.514
 2643W        W69052  32.431  26.950  13.446
 2644W        W69053   9.812  37.773   2.806
 2645W        W69054  14.938   7.185  12.854
 2646W        W69055  41.461  26.582  14.581
 2647W        W69056   1.158  43.345  11.394
 2648W        W69057  28.218  38.561  13.836
 2649W        W69058  11.429  30.608  10.712
 2650W        W69059  40.419  12.262   1.622
 2651W        W69060  29.863  35.491  10.478
 2652W        W69061  24.964   2.200   1.003
 2653W        W69062  37.961   1.669   3.769
 2654W        W69063  14.786  36.452   4.100
 2655W        W69064  38.538   1.735   2.720
 2656W        W69065  10.449   9.733  13.328
 2657W        W69066  36.017  25.551  13.914
 2658W        W69067  12.380   1.447  13.920
 2659W        W69068  42.441  20.959   2.562
 2660W        W69069  39.221  27.468  14.452
 2661W        W69070   6.148  36.026   2.742
 2662W        W69071  31.911  12.377   4.674
 2663W        W69072   3.505  37.842  14.837
 2664W        W69073   8.902  30.047   3.687
 2665W        W69074   7.621  21.253   0.920
 2666W        W69075  17.600  25.100   4.589
 2667W        W69076  41.924  31.014  13.388
 2668W        W69077  42.417  30.054  11.314
 2669W        W69078  31.461  12.938   3.092
 2670W        W69079   7.331   5.903  12.342
 2671W        W69080  20.270   8.736  11.167
 2672W        W69081  28.638   1.173  11.641
 2673W        W69082  44.771  11.487  11.107
 2674W        W69083  34.440  38.371   1.047
 2675W        W69084  27.960  41.343   1.836
 2676W        W69085  21.575  23.146   1.929
 2677W        W69086   3.242  12.253  10.757
 2678W        W69087  33.409  43.787   3.633
 2679W        W69088  25.769  21.257   3.177
 2680W        W69089  12.595  20.808   4.481
 2681W        W69090  43.241   7.043  12.844
 2682W        W69091  21.097  11.620   0.824
 2683W        W69092  23.201  42.395   3.870
 2684W        W69093  24.913  32.039   1.411
 2685W        W69094  12.739  32.190  13.903
 2686W        W69095  39.709  20.591   1.118
 2687W        W69096  30.157   5.830  11.243
 2688W        W69097  16.741  36.842  12.385
 2689W        W69098  10.333   1.768  13.285
 2690W        W69099  31.262  38.020   3.826
 2691W        W69100  29.674  11.741   3.456
 2692W        W69101  24.531  24.834  12.551
 2693W        W69102  25.153  13.589  11.947
 2694W        W69103  15.552  39.950  10.625
 2695W        W69104  43.470   0.143   3.148
 2696W        W69105   1.117  36.151  11.824
 2697W        W69106   1.020  11.494  11.165
 2698W        W69107  14.647  42.515   3.242
 2699W        W69108  25.136  18.068   0.087
 2700W        W69109  26.783  33.632   4.651
 2701W        W69110  41.622  41.889   2.514
 2702W        W69111  12.302   1.943   0.970
 2703W        W69112  15.991   9.107   1.907
 2704W        W69113  17.129  14.643  14.337
 2705W        W69114  11.674  10.881  13.582
 2706W        W69115  31.536   5.447   0.367
 2707W        W69116   7.555  28.569   3.690
 2708W        W69117  11.903  44.588   2.338
 2709W        W69118   9.081  16.360   4.249
 2710W        W69119  25.242   7.349   4.892
 2711W        W69120  29.178  38.009   3.580
 2712W        W69121  10.407  19.628   2.275
 2713W        W69122  20.057  14.206   0.457
 2714W        W69123  32.544  33.046   3.540
 2715W        W69124   5.335  14.723   2.798
 2716W        W69125   4.300  27.984   3.027
 2717W        W69126  30.101   9.644  11.250
 2718W        W69127  18.782   7.922   1.912
 2719W        W69128   2.344  10.614  10.709
 2720W        W69129  41.831   6.285  10.745
 2721W        W69130   7.896   0.865  12.334
 2722W        W69131  33.231  14.369   9.979
 2723W        W69132  34.680  25.027   4.481
 2724W        W69133   9.786  21.822   0.752
 2725W        W69134  24.269  15.387  12.984
 2726W        W69135  29.426  14.277  10.726
 2727W        W69136  16.811  16.018  11.168
 2728W        W69137  13.599  41.403   2.807
 2729W        W69138  35.753  22.696  10.921
 2730W        W69139  32.851  25.735  13.071
 2731W        W69140  34.038  39.035  13.409
 2732W        W69141   8.915  28.069   4.218
 2733W        W69142   1.010  37.291  12.184
 2734W        W69143  11.019  14.278  11.974
 2735W        W69144  25.927  44.205  14.486
 2736W        W69145  12.416  14.217   0.893
 2737W        W69146  23.424   0.889   1.718
 2738W        W69147  38.440  37.811  13.156
 2739W        W69148  17.719  30.097   2.160
 2740W        W69149  10.441   3.243   2.165
 2741W        W69150  24.041  10.596   3.622
 2742W        W69151  34.058  17.859  12.511
 2743W        W69152   3.297  18.855  12.842
 2744W        W69153   1.967  39.593  12.872
 2745W        W69154  42.865  11.569  14.533
 2746W        W69155  21.572  22.573  11.264
 2747W        W69156   9.437  30.993  12.442
 2748W        W69157  32.912  31.309   0.973
 2749W        W69158   7.336   9.442  14.507
 2750W        W69159  40.412  22.422  13.616
 2751W        W69160  10.789  32.354   3.266
 2752W        W69161   0.273  40.488  13.990
 2753W        W69162  32.900  40.861  10.769
 2754W        W69163  14.197  32.293  12.364
 2755W        W69164  11.113  43.996  14.954
 2756W        W69165  33.048  33.098   4.346
 2757W        W69166   0.015  12.354  13.367
 2758W        W69167  24.702  43.823   0.203
 2759W        W69168   6.475  30.374   0.741
 2760W        W69169  12.232   5.182   1.096
 2761W        W69170  36.118  44.994  14.294
 2762W        W69171  17.762  20.505   1.273
 2763W        W69172  10.822   2.781   0.900
 2764W        W69173  27.989  33.103  12.442
 2765W        W69174  22.469  36.663   0.278
 2766W        W69175  25.638  25.849  12.902
 2767W        W69176  24.983   9.300   2.592
 2768W        W69177  17.562  19.995  11.535
 2769W        W69178  21.382  22.809   1.223
 2770W        W69179  12.306  33.859   2.248
 2771W        W69180  21.465  15.350  12.581
 2772W        W69181   3.021  30.476  11.609
 2773W        W69182   6.819  22.533  11.764
 2774W        W69183  19.541  20.096  12.483
 2775W        W69184  16.454  38.680   4.033
 2776W        W69185  43.065   5.978   4.643
 2777W        W69186  16.253  35.752  11.745
 2778W        W69187  35.983  13.245  11.992
 2779W        W69188  10.440  29.932  11.148
 2780W        W69189  23.021  28.882  13.539
 2781W        W69190  22.746   4.142   3.317
 2782W        W69191  20.119  36.419  11.903
 2783W        W69192   3.915  28.571  14.320
 2784W        W69193  24.727  12.666   4.516
 2785W        W69194  25.290   3.935   4.108
 2786W        W69195  10.317   2.710   3.268
 2787W        W69196  40.012   6.935   1.489
 2788W        W69197  31.423  33.041  13.966
 2789W        W69198  42.398  10.806   1.151
 2790W        W69199  11.987  38.022   9.515
 2791W        W69200  35.582  14.171   0.015
 2792W        W69201  27.311  38.242  14.882
 2793W        W69202  38.763  18.210   0.379
 2794W        W69203   1.943  20.147  10.609
 2795W        W69204  42.984  38.956   2.003
 2796W        W69205  33.581  13.576  13.011
 2797W        W69206  32.706  16.704   1.130
 2798W        W69207  14.604  27.173   3.809
 2799W        W69208  34.622  30.559  12.056
 2800W        W69209   4.448  10.815   1.981
 2801W        W69210   1.391   8.642  10.679
 2802W        W69211   5.557  21.731  11.338
 2803W        W69212  39.359  22.630   3.506
 2804W        W69213   9.418   2.501   0.006
 2805W        W69214  21.276  12.839   3.810
 2806W        W69215  12.679  15.052   2.331
 2807W        W69216  37.863  20.739  11.001
 2808W        W69217  33.910   0.974   3.258
 2809W        W69218  21.208   8.111   4.641
 2810W        W69219   1.099  38.893  13.538
 2811W        W69220  31.373  29.897   2.399
 2812W        W69221  40.801  15.332  13.525
 2813W        W69222  19.568   7.220   3.111
 2814W        W69223  27.595  28.050   2.149
 2815W        W69224  26.977  43.878   2.314
 2816W        W69225  34.924  11.433  12.781
 2817W        W69226   7.122  36.177  10.821
 2818W        W69227  41.945  29.932  14.792
 2819W        W69228  39.209  21.118  13.739
 2820W        W69229  19.286  17.586   1.853
 2821W        W69230  12.170  20.203  11.555
 2822W        W69231  24.586  19.196  14.500
 2823W        W69232   9.259   0.747  14.423
 2824W        W69233  42.786  44.506  14.572
 2825W        W69234  11.960  27.463   4.350
 2826W        W69235  11.302  20.688   1.481
 2827W        W69236  14.005   4.745   3.750
 2828W        W69237  43.995  42.025   0.499
 2829W        W69238   6.335  29.146   1.642
 2830W        W69239  18.577   7.216   2.339
 2831W        W69240  12.969  28.504   1.976
 2832W        W69241  13.321  32.905  13.929
 2833W        W69242  18.677   0.452  13.132
 2834W        W69243  25.937   0.797   4.202
 2835W        W69244  43.352  37.076  14.797
 2836W        W69245  14.496  33.603  13.428
 2837W        W69246  23.124   8.954  11.642
 2838W        W69247  29.626  44.347  13.901
 2839W        W69248  39.029  26.427  14.962
 2840W        W69249  18.345  10.569   0.911
 2841W        W69250  11.687  17.975  11.265
 2842W        W69251  44.265  40.348  11.652
 2843W        W69252  25.258  26.240   0.683
 2844W        W69253   5.852  28.024   4.125
 2845W        W69254  18.790  39.032  12.813
 2846W        W69255  28.913   9.372  14.738
 2847W        W69256  43.962  24.556  14.191
 2848W        W69257  32.022   1.715  11.055
 2849W        W69258   8.758  31.801  10.687
 2850W        W69259   3.309  36.458   4.587
 2851W        W69260  20.957  18.462  11.938
 2852W        W69261  34.789  37.889  12.674
 2853W        W69262  43.831  22.989   0.486
 2854W        W69263  27.968  32.881  11.594
 2855W        W69264  29.294  21.209   2.405
 2856W        W69265  41.447   1.047   2.211
 2857W        W69266  17.588  37.274   4.649
 2858W        W69267  20.351  20.796   0.039
 2859W        W69268   0.410   7.469   0.012
 2860W        W69269   8.195  11.865  12.168
 2861W        W69270  23.676   0.423   3.957
 2862W        W69271  34.854  42.758  11.558
 2863W        W69272   5.858  14.337  13.846
 2864W        W69273  25.025  28.485  14.952
 2865W        W69274  17.839   1.428  13.395
 2866W        W69275   8.548  17.650  14.408
 2867W        W69276   3.286  37.573  13.110
 2868W        W69277  41.844  16.483   3.711
 2869W        W69278  43.262  19.154   3.795
 2870W        W69279  10.133  44.241  14.304
 2871W        W69280  24.129  20.955  14.391
 2872W        W69281  18.147  38.255   0.447
 2873W        W69282  33.181  14.901  13.037
 2874W        W69283  14.548   2.634   0.951
 2875W        W69284  30.096  33.007  13.658
 2876W        W69285  25.577  41.571  14.247
 2877W        W69286  15.213   2.015   0.439
 2878W        W69287  20.181  15.180  11.107
 2879W        W69288  27.359  40.930  12.925
 2880W        W69289  21.744  41.574   2.277
 2881W        W69290  20.011   5.029  10.751
 2882W        W69291  39.478  23.036   4.352
 2883W        W69292  16.560  33.234  10.844
 2884W        W69293  36.528  37.938  13.387
 2885W        W69294  26.053  41.782  11.454
 2886W        W69295  17.536  11.843   2.780
 2887W        W69296  42.330  43.903  12.649
 2888W        W69297  14.476  44.549   2.714
 2889W        W69298   1.002  11.765   0.305
 2890W        W69299  23.837   5.591  11.904
 2891W        W69300  27.393  13.814  14.455
 2892W        W69301   9.143  31.499  11.660
 2893W        W69302  22.550  24.971   1.342
 2894W        W69303  26.680   0.830  14.782
 2895W        W69304  30.667  30.658  10.723
 2896W        W69305   5.867  25.365  12.866
 2897W        W69306   6.078  38.102   2.307
 2898W        W69307  26.227   7.201   0.414
 2899W        W69308  32.032  11.948  14.285
 2900W        W69309  34.431  36.414  12.233
 2901W        W69310  35.738  32.555  13.923
 2902W        W69311  37.099  16.676  10.977
 2903W        W69312   8.893  13.615   3.640
 2904W        W69313  44.097   4.163  13.042
 2905W        W69314  16.357  21.536  13.949
 2906W        W69315  44.250   5.666  14.630
 2907W        W69316  38.324  44.940   4.572
 2908W        W69317  23.059  17.101   0.367
 2909W        W69318  42.236   0.799  12.975
 2910W        W69319  25.361  20.076   3.061
 2911W        W69320  28.832  41.835   1.951
 2912W        W69321  40.956  26.397  11.918
 2913W        W69322  30.998  25.035   1.746
 2914W        W69323  26.162  36.057  11.567
 2915W        W69324  17.278  13.617   1.858
 2916W        W69325  24.658   0.538   1.437
 2917W        W69326  28.835  15.589   4.075
 2918W        W69327   3.852  15.526  14.973
 2919W        W69328   0.681   6.524  12.632
 2920W        W69329   2.102   9.984   2.275
 2921W        W69330  42.745  44.954  10.770
 2922W        W69331  35.226  20.061  13.899
 2923W        W69332  19.601   3.430  11.856
 2924W        W69333  19.470  21.520  13.475
 2925W        W69334  31.133  14.363   1.850
 2926W        W69335   0.669  16.082   3.852
 2927W        W69336  25.072  25.196   1.763
 2928W        W69337   2.555  40.728  14.031
 2929W        W69338  38.155   9.682   4.442
 2930W        W69339  21.632  33.459   4.276
 2931W        W69340  14.603   8.784   2.003
 2932W        W69341  29.207  42.181  12.937
 2933W        W69342  42.680  29.047   5.086
 2934W        W69343  36.846  25.635   1.299
 2935W        W69344  19.608  15.166  13.884
 2936W        W69345  12.789   2.139  14.825
 2937W        W69346  28.565  33.428   4.101
 2938W        W69347   1.370  20.452   4.595
 2939W        W69348  43.959   5.814   4.913
 2940W        W69349   5.856   3.255   1.922
 2941W        W69350  22.113  12.088  12.427
 2942W        W69351   5.279  32.435   3.658
 2943W        W69352  30.396  26.459   1.042
 2944W        W69353  20.881   1.081   5.177
 2945W        W69354  36.852  43.464  12.051
 2946W        W69355  14.820  14.878  14.345
 2947W        W69356  28.679  26.855   0.900
 2948W        W69357   1.231  28.107  13.296
 2949W        W69358  16.935  24.245   2.514
 2950W        W69359  34.887  15.333  12.512
 2951W        W69360  14.284  44.570  10.761
 2952W        W69361  32.425  17.075   1.367
 2953W        W69362  35.576  10.733  14.849
 2954W        W69363  34.481   6.572  14.576
 2955W        W69364  19.151   3.307   1.532
 2956W        W69365   5.439  27.961  10.607
 2957W        W69366  20.919  32.563  11.987
 2958W        W69367   5.702  19.193   0.729
 2959W        W69368   5.671  17.170  13.797
 2960W        W69369  19.701  43.693   2.237
 2961W        W69370  33.547  37.233  12.962
 2962W        W69371   4.210  21.743   0.399
 2963W        W69372  40.621  11.670   3.290
 2964W        W69373   0.911   0.896   3.922
 2965W        W69374   4.060  30.683  12.426
 2966W        W69375   8.941  27.026   0.021
 2967W        W69376  10.536  11.685  14.419
 2968W        W69377  27.027  25.198  13.063
 2969W        W69378  11.861   6.028  12.660
 2970W        W69379  10.443   9.400   4.177
 2971W        W69380  39.689  23.780   3.416
 2972W        W69381  26.486   1.154   0.165
 2973W        W69382  15.386  12.335   3.730
 2974W        W69383  23.056   4.726   4.112
 2975W        W69384  37.436  41.704   3.623
 2976W        W69385   2.477   8.692   0.519
 2977W        W69386  44.193   0.103  12.472
 2978W        W69387  23.479  18.266  11.973
 2979W        W69388  16.087  23.605  12.136
 2980W        W69389  44.392  23.916  13.425
 2981W        W69390  31.434  41.927   3.168
 2982W        W69391  20.429  10.291  12.170
 2983W        W69392  20.993  15.302   0.862
 2984W        W69393  28.607  18.586  11.929
 2985W        W69394  18.702   9.550   0.831
 2986W        W69395  25.780  30.398   2.861
 2987W        W69396  19.243  32.358   0.038
 2988W        W69397  12.794  30.943  13.037
 2989W        W69398  38.056  36.412  10.915
 2990W        W69399   4.797  27.598   4.571
 2991W        W69400   5.282   9.379   1.317
 2992W        W69401  18.725  13.571  11.494
 2993W        W69402  39.152  21.291   3.657
 2994W        W69403  23.202   0.511   4.596
 2995W        W69404  16.791  19.794  13.266
 2996W        W69405  20.035  22.059  13.484
 2997W        W69406  24.737  20.561  14.937
 2998W        W69407  16.636  28.740   0.525
 2999W        W69408  35.841  14.740  14.838
 3000W        W69409   6.215  13.586   2.282
 3001W        W69410  35.625  27.587  12.491
 3002W        W69411  28.103  30.175   3.886
 3003W        W69412  23.118  14.252   3.832
 3004W        W69413  10.581  26.046  10.785
 3005W        W69414  12.807  18.566   3.441
 3006W        W69415  26.577  22.224   3.052
 3007W        W69416   6.267  18.607   2.399
 3008W        W69417  44.949   7.679   3.261
 3009W        W69418  27.135  34.377   0.431
 3010W        W69419  42.999  44.712  11.164
 3011W        W69420  16.704   0.632  11.137
 3012W        W69421   0.800  26.049   4.647
 3013W        W69422  39.585  28.614   2.700
 3014W        W69423  28.775  32.950  12.098
 3015W        W69424  32.090  29.672   4.567
 3016W        W69425  15.185  11.349  14.827
 3017W        W69426  11.270   9.467  10.863
 3018W        W69427  22.337  23.271  11.042
 3019W        W69428  39.446   7.264   3.690
 3020W        W69429   1.369   8.834  11.636
 3021W        W69430  33.849  29.471   0.611
 3022W        W69431  34.845  15.299  13.449
 3023W        W69432  28.597  25.061  14.007
 3024W        W69433  21.130  34.429  12.074
 3025W        W69434  39.247  29.487  11.120
 3026W        W69435  39.068   1.276   2.222
 3027W        W69436  43.008  15.992  13.746
 3028W        W69437  25.151  34.286   1.867
 3029W        W69438  12.240  24.214   3.714
 3030W        W69439  16.815  19.102  10.720
 3031W        W69440  27.264  21.665   2.272
 3032W        W69441  42.631  35.017   4.657
 3033W        W69442  44.415  32.283  10.928
 3034W        W69443   1.776   4.481  11.613
 3035W        W69444  16.935  26.286  13.036
 3036W        W69445  14.243  10.885  10.722
 3037W        W69446  43.148  21.302   1.351
 3038W        W69447  44.928  26.614  11.581
 3039W        W69448  31.303  28.428  13.917
 3040W        W69449  18.919  10.684  12.460
 3041W        W69450  36.406  42.186   3.263
 3042W        W69451  35.356  37.707  11.475
 3043W        W69452   2.820  12.944   1.637
 3044W        W69453   9.639  42.626   3.312
 3045W        W69454  34.664  18.096   1.001
 3046W        W69455  11.769  28.399  12.939
 3047W        W69456  43.431   5.424   0.466
 3048W        W69457  33.770  22.769   3.826
 3049W        W69458  18.772  17.815  14.993
 3050W        W69459  36.879  27.717   3.724
 3051W        W69460  38.519  42.555  12.451
 3052W        W69461   3.950  38.149   3.626
 3053W        W69462  37.325  36.524   0.452
 3054W        W69463  30.791  15.812   0.814
 3055W        W69464  10.598  27.706  10.601
 3056W        W69465  38.142  23.642   1.579
 3057W        W69466  40.293  37.321  10.962
 3058W        W69467  23.263  43.936  14.843
 3059W        W69468  25.783   8.565   3.380
 3060W        W69469  12.688  37.732   0.859
 3061W        W69470  33.853  25.622   3.443
 3062W        W69471   5.266  40.460   4.647
 3063W        W69472  23.153  29.239  12.566
 3064W        W69473  27.906  34.720   1.782
 3065W        W69474   7.247  17.055  11.350
 3066W        W69475  21.712   3.403   2.438
 3067W        W69476  34.470  28.393  12.078
 3068W        W69477  11.142  14.137  14.546
 3069W        W69478  43.972  26.904  14.833
 3070W        W69479  14.580   9.709  13.901
 3071W        W69480  40.626  42.476  12.897
 3072W        W69481  25.427   5.270   4.860
 3073W        W69482   5.806  35.875  13.373
 3074W        W69483   3.659  43.854   4.712
 3075W        W69484   6.164  20.549  12.908
 3076W        W69485  21.201  28.574  11.502
 3077W        W69486  17.044   7.422   0.808
 3078W        W69487   3.266  18.517  14.408
 3079W        W69488  12.069  32.993   1.727
 3080W        W69489  18.938  11.818  11.945
 3081W        W69490   9.154  37.514   1.904
 3082W        W69491  26.471  10.390  14.304
 3083W        W69492   3.526  25.465   4.139
 3084W        W69493  30.648  35.027   0.251
 3085W        W69494  23.827   6.256  14.226
 3086W        W69495  23.259  43.275   0.794
 3087W        W69496  20.513  26.978   4.069
 3088W        W69497  40.859  42.872   4.317
 3089W        W69498  28.125  12.615   4.596
 3090W        W69499  22.090   0.747   4.198
 3091W        W69500  40.739  10.794  14.092
 3092W        W69501  29.529   1.029   3.246
 3093W        W69502  28.410   3.377   2.146
 3094W        W69503  23.574  24.754  14.514
 3095W        W69504  22.003   9.375   2.969
 3096W        W69505  16.950  21.217   2.784
 3097W        W69506  21.665  38.446  11.493
 3098W        W69507  29.025   7.379  13.356
 3099W        W69508   9.456   5.702   0.901
 3100W        W69509  27.391  29.170   0.764
 3101W        W69510  18.104   4.478   2.803
 3102W        W69511  13.287   4.568   4.973
 3103W        W69512  27.829  29.449   2.352
 3104W        W69513  27.383  34.285  12.530
 3105W        W69514  42.900  20.026   3.356
 3106W        W69515  34.262   2.418   4.504
 3107W        W69516  13.726  38.042   2.249
 3108W        W69517  25.212  30.891  13.130
 3109W        W69518  44.303  42.943   1.041
 3110W        W69519  41.754  10.518  12.357
 3111W        W69520   4.294  27.724   4.475
 3112W        W69521  13.777  23.326  14.935
 3113W        W69522  32.654   8.238   2.382
 3114W        W69523   5.962  34.287  12.641
 3115W        W69524   6.262  28.425  12.572
 3116W        W69525   6.164  27.647  12.025
 3117W        W69526  10.784  24.659   3.987
 3118W        W69527   5.743  13.347   2.176
 3119W        W69528   4.851  10.107   0.656
 3120W        W69529  35.089  16.054  10.468
 3121W        W69530  26.111  27.500   1.771
 3122W        W69531  39.824  20.839  10.743
 3123W        W69532  35.536  29.361   3.688
 3124W        W69533   0.089   1.838   4.351
 3125W        W69534   9.567   8.721  14.746
 3126W        W69535  16.976  28.223  11.278
 3127W        W69536  27.918   6.360   3.352
 3128W        W69537  31.162  18.500   0.346
 3129W        W69538  23.346  35.437   1.413
 3130W        W69539   5.497  33.287  13.484
 3131W        W69540   2.888  38.810   1.780
 3132W        W69541   2.944  27.667  14.357
 3133W        W69542  32.169  37.186   4.604
 3134W        W69543  33.949  31.182   1.750
 3135W        W69544  31.870  27.407  12.959
 3136W        W69545  39.348  18.843  11.529
 3137W        W69546  31.890  37.245   0.294
 3138W        W69547  33.600  34.774  14.023
 3139W        W69548   0.841  12.747  11.903
 3140W        W69549  37.398   1.486   4.116
 3141W        W69550  42.920  29.555  12.558
 3142W        W69551   5.443  19.589  12.560
 3143W        W69552  40.401  39.442   0.949
 3144W        W69553  13.518   1.827  12.411
 3145W        W69554  23.781  20.989  13.113
 3146W        W69555   7.203   1.419   3.495
 3147W        W69556  26.782  29.368   4.095
 3148W        W69557  12.348  16.826   2.199
 3149W        W69558  12.153  33.022   3.221
 3150W        W69559  22.806  27.087  14.020
 3151W        W69560   6.141   9.593   3.548
 3152W        W69561  17.112  38.301   2.302
 3153W        W69562  29.511  30.820   2.757
 3154W        W69563   7.009  41.979   0.583
 3155W        W69564   6.699  25.143   2.373
 3156W        W69565   9.947  39.440  10.602
 3157W        W69566  14.552  40.397   3.768
 3158W        W69567   1.001  24.174  14.852
 3159W        W69568  25.118  18.802   3.623
 3160W        W69569   1.015  38.986   0.432
 3161W        W69570  16.475  14.083  14.382
 3162W        W69571   6.739  29.438  14.884
 3163W        W69572  33.491  30.516  10.667
 3164W        W69573  17.318  17.761  14.096
 3165W        W69574   2.345  41.728  11.231
 3166W        W69575  27.017  29.194   0.048
 3167W        W69576  30.533   8.641  14.849
 3168W        W69577  34.612  17.543  12.115
 3169W        W69578  15.745   8.604  11.406
 3170W        W69579  10.023  18.517  11.241
 3171W        W69580  23.069  20.221   3.758
 3172W        W69581  25.445  17.412   9.968
 3173W        W69582  25.667  10.689   4.100
 3174W        W69583  32.467  25.717   2.247
 3175W        W69584  28.131   2.973  11.383
 3176W        W69585  20.470  21.568  13.377
 3177W        W69586  25.953  44.993   0.782
 3178W        W69587   8.393   9.739   3.314
 3179W        W69588  12.160  30.905  13.814
 3180W        W69589  18.778  17.795  14.108
 3181W        W69590  31.230  22.438   4.355
 3182W        W69591  38.976   4.600   4.847
 3183W        W69592  10.785  38.591  14.494
 3184W        W69593   4.698  32.819  10.215
 3185W        W69594  24.867  30.359  11.158
 3186W        W69595  21.485  24.219   1.386
 3187W        W69596   5.090  21.204   3.270
 3188W        W69597  44.932  26.761  13.237
 3189W        W69598  24.121  28.432  12.894
 3190W        W69599  18.977  34.372  13.555
 3191W        W69600  21.511  20.397   4.511
 3192W        W69601  28.414  40.477  11.561
 3193W        W69602  27.731  10.646  12.473
 3194W        W69603   7.185  29.567   4.147
 3195W        W69604  34.473   4.341   0.784
 3196W        W69605   5.237  30.479  11.060
 3197W        W69606   5.208  25.620  13.330
 3198W        W69607  17.240  20.405   3.854
 3199W        W69608  22.154   8.591   4.943
 3200W        W69609   2.329   1.051  14.289
 3201W        W69610  20.284  34.547   4.899
 3202W        W69611  14.159  34.837  14.924
 3203W        W69612   4.238  15.566  12.573
 3204W        W69613  26.749  40.513  14.484
 3205W        W69614  26.677  12.400   0.982
 3206W        W69615   6.754  23.264  14.036
 3207W        W69616  25.761  39.468   3.439
 3208W        W69617  36.357  36.989  14.453
 3209W        W69618  38.405   3.237   4.516
 3210W        W69619  37.506  16.568  10.684
 3211W        W69620  29.233   6.537   3.108
 3212W        W69621  33.464  29.188   2.693
 3213W        W69622  17.804  41.217   1.308
 3214W        W69623  22.063  29.677   2.865
 3215W        W69624  42.972   5.420   3.413
 3216W        W69625  44.773  21.789   3.253
 3217W        W69626   8.452  16.806  14.835
 3218W        W69627  11.911  39.280   0.670
 3219W        W69628  36.119  19.064   1.701
 3220W        W69629  30.359  41.968   0.200
 3221W        W69630  20.929  43.952  10.000
 3222W        W69631  34.414  39.949   0.534
 3223W        W69632  18.624  31.588   3.313
 3224W        W69633  23.040  14.398   2.617
 3225W        W69634   1.005  22.314  13.351
 3226W        W69635   5.999  24.946   3.156
 3227W        W69636  14.251  34.257  11.652
 3228W        W69637   7.039   6.723   1.814
 3229W        W69638  24.867  23.522  11.913
 3230W        W69639   0.343  42.141   3.152
 3231W        W69640  19.283  35.967   1.393
 3232W        W69641  34.599  18.818  11.633
 3233W        W69642  33.055  10.873  13.812
 3234W        W69643   2.047  20.680   0.265
 3235W        W69644  28.960   1.036   3.062
 3236W        W69645  17.136  14.334   4.080
 3237W        W69646   0.177  14.358   2.897
 3238W        W69647   4.357   7.841   0.821
 3239W        W69648   7.762  20.081  11.149
 3240W        W69649  31.434  22.740  11.430
 3241W        W69650   4.628  32.678  14.008
 3242W        W69651  38.996  24.944   2.079
 3243W        W69652  41.376  12.825  11.615
 3244W        W69653  32.408  18.720  10.765
 3245W        W69654  12.267  17.277   0.064
 3246W        W69655  42.096   7.988  12.918
 3247W        W69656   6.590  32.389  14.909
 3248W        W69657   8.612  29.299  14.853
 3249W        W69658  37.906  18.351   0.583
 3250W        W69659  20.968  41.311   3.305
 3251W        W69660  33.001  20.546  14.562
 3252W        W69661  14.695   3.143   0.860
 3253W        W69662  15.265   9.689   0.258
 3254W        W69663   0.102  40.379   4.626
 3255W        W69664   7.845  21.428  11.326
 3256W        W69665  37.811   3.143   3.583
 3257W        W69666   6.185  38.966  11.562
 3258W        W69667  20.010   5.411   2.759
 3259W        W69668  33.634  23.700  13.576
 3260W        W69669  41.062  20.574  12.414
 3261W        W69670  17.718  12.094   0.271
 3262W        W69671  11.135   8.765   4.248
 3263W        W69672  44.533  26.919  13.576
 3264W        W69673   6.498  43.272  12.940
 3265W        W69674  10.348  29.733  14.965
 3266W        W69675   6.845   8.136   0.184
 3267W        W69676   6.604  10.358   3.305
 3268W        W69677  15.408  12.701  13.968
 3269W        W69678  22.037  12.142   2.344
 3270W        W69679  24.997  25.566  10.608
 3271W        W69680  31.633  19.788   1.422
 3272W        W69681   2.570  29.914   4.173
 3273W        W69682  36.905  30.345  11.905
 3274W        W69683   8.772  33.090  12.420
 3275W        W69684  39.834  40.061  14.065
 3276W        W69685   4.882  29.895   3.400
 3277W        W69686  15.821  14.987   3.411
 3278W        W69687   2.846  19.000  11.045
 3279W        W69688  12.292  44.417  13.313
 3280W        W69689  40.479   0.352   2.447
 3281W        W69690   9.528  15.670   5.097
 3282W        W69691  29.065  14.217  13.900
 3283W        W69692  16.169  25.915   0.410
 3284W        W69693  17.230  36.437   3.752
 3285W        W69694  32.024  17.163  13.853
 3286W        W69695   0.951   3.886   1.260
 3287W        W69696  40.375   4.016  10.668
 3288W        W69697  39.153  19.100   0.483
 3289W        W69698  43.099  22.037   2.289
 3290W        W69699  17.032   2.887   5.027
 3291W        W69700  21.827  14.705   4.639
 3292W        W69701  35.334  32.725   3.296
 3293W        W69702  20.072  18.321   4.254
 3294W        W69703   9.843  41.908  14.370
 3295W        W69704   1.281  12.426  11.904
 3296W        W69705  14.351  41.518  11.219
 3297W        W69706  26.689  20.270  12.333
 3298W        W69707  12.595  14.211   4.610
 3299W        W69708  38.473  28.272  12.574
 3300W        W69709   5.384  17.677   1.240
 3301W        W69710  19.619  40.026   2.239
 3302W        W69711  43.954   2.675  10.670
 3303W        W69712  23.247   3.345   1.687
 3304W        W69713   1.352  26.903   4.456
 3305W        W69714  36.437  26.967  13.424
 3306W        W69715  32.105  30.730  12.981
 3307W        W69716  19.295  38.357  11.563
 3308W        W69717  24.560  42.979   5.001
 3309W        W69718  14.691  39.568   0.224
 3310W        W69719  33.498  32.622   0.886
 3311W        W69720  26.166  11.303  13.317
 3312W        W69721  34.769  11.376  12.289
 3313W        W69722  41.048  13.609  14.913
 3314W        W69723  15.373  28.463   0.189
 3315W        W69724  36.387  39.437  13.389
 3316W        W69725  15.397  31.948   4.787
 3317W        W69726   6.753  38.719  13.040
 3318W        W69727  44.293  22.986  13.040
 3319W        W69728  17.074  32.733   2.291
 3320W        W69729  17.054  39.053   0.307
 3321W        W69730  44.458   4.157  11.114
 3322W        W69731  29.057  34.887  14.059
 3323W        W69732  11.648  17.244  12.352
 3324W        W69733  34.327   2.982  13.011
 3325W        W69734  21.342  24.378  11.123
 3326W        W69735  20.704   4.071   1.429
 3327W        W69736  22.810  21.809   2.785
 3328W        W69737  28.374   9.364  12.998
 3329W        W69738  30.906  37.611  11.589
 3330W        W69739  23.548  17.552  12.564
 3331W        W69740   4.335   8.912  14.142
 3332W        W69741  10.301   0.758   0.383
 3333W        W69742  29.172  40.473  12.774
 3334W        W69743  29.683   3.677  12.769
 3335W        W69744   8.487  40.059   2.414
 3336W        W69745  14.190  25.519  13.572
 3337W        W69746   9.552  38.511  13.055
 3338W        W69747  38.515  19.117   3.680
 3339W        W69748  29.114  29.983   0.739
 3340W        W69749  35.477  28.669  12.013
 3341W        W69750  27.196  10.591  13.806
 3342W        W69751  17.859  22.758  11.223
 3343W        W69752  26.225  19.950  12.109
 3344W        W69753  14.790  34.538  14.009
 3345W        W69754   6.657   6.650   2.754
 3346W        W69755  36.066  39.062  13.571
 3347W        W69756  37.493   5.287  12.856
 3348W        W69757  22.109  39.819  14.164
 3349W        W69758  20.079  11.748  14.946
 3350W        W69759  29.685  38.798  14.001
 3351W        W69760   0.511  34.667   0.476
 3352W        W69761  12.354  34.065  13.757
 3353W        W69762  26.237  21.490   3.247
 3354W        W69763   4.751  31.033  11.677
 3355W        W69764  30.021  44.016   3.517
 3356W        W69765  26.532  11.304   3.905
 3357W        W69766   8.761  16.074  11.512
 3358W        W69767  28.581  42.361   3.836
 3359W        W69768   6.187  32.513   4.007
 3360W        W69769  11.309  25.757  11.456
 3361W        W69770  39.111  33.988  12.883
 3362W        W69771  12.963  30.907   4.038
 3363W        W69772  15.182  16.259  14.268
 3364W        W69773  23.480  35.895   1.676
 3365W        W69774  22.259  41.066   4.201
 3366W        W69775   6.293  21.346   4.565
 3367W        W69776   5.324  15.203   0.524
 3368W        W69777  44.168  39.044   0.753
 3369W        W69778  19.201  33.508   0.685
 3370W        W69779   6.494  34.341   0.005
 3371W        W69780  42.311  29.647  13.420
 3372W        W69781  40.392  18.840  12.953
 3373W        W69782   8.401  12.725  11.858
 3374W        W69783  28.498  22.012  13.839
 3375W        W69784   1.421   2.000  12.397
 3376W        W69785  10.219   7.907   4.639
 3377W        W69786   7.132  21.622  12.917
 3378W        W69787  44.632  42.396  10.336
 3379W        W69788   3.255  34.937  14.955
 3380W        W69789   8.046   9.182  12.339
 3381W        W69790  23.467  42.863  11.439
 3382W        W69791  27.055  34.707   3.257
 3383W        W69792   0.858  20.545  12.001
 3384W        W69793   9.773   9.348   3.121
 3385W        W69794  44.966  18.431   3.283
 3386W        W69795  18.933  44.808  11.065
 3387W        W69796  23.812   4.773  12.887
 3388W        W69797  35.584  41.931  10.720
 3389W        W69798  14.006  22.790  10.619
 3390W        W69799  29.166  33.175   2.944
 3391W        W69800  13.775   5.266  12.171
 3392W        W69801  41.036  37.380   3.101
 3393W        W69802   9.938  31.589  12.016
 3394W        W69803  36.968  16.655   2.907
 3395W        W69804  28.404   6.700   4.032
 3396W        W69805   4.330  25.609  13.969
 3397W        W69806  41.547   1.277  12.093
 3398W        W69807  34.092  17.090  13.895
 3399W        W69808  44.308  17.202  12.058
 3400W        W69809  17.485  20.069   4.138
 3401W        W69810  24.935  20.154  11.144
 3402W        W69811   2.485  15.206   2.877
 3403W        W69812  19.011  39.280  13.276
 3404W        W69813  16.772  30.545  12.014
 3405W        W69814  20.016  18.252   0.074
 3406W        W69815  33.368   6.022   1.914
 3407W        W69816  26.515  12.959  13.100
 3408W        W69817   0.568  28.989  13.521
 3409W        W69818  43.299  16.190  10.980
 3410W        W69819  35.961  25.346   0.372
 3411W        W69820   5.548  34.710  14.780
 3412W        W69821  12.951   8.103  13.539
 3413W        W69822  42.431  37.563   0.921
 3414W        W69823  15.357  44.259  11.194
 3415W        W69824   7.961   4.857   2.266
 3416W        W69825  23.214  12.167   4.297
 3417W        W69826  44.083  30.259  12.141
 3418W        W69827   5.195  29.996   0.938
 3419W        W69828  41.057  21.611   0.962
 3420W        W69829  10.840  12.430   2.783
 3421W        W69830  34.144  27.537  12.447
 3422W        W69831  16.707  25.766   3.274
 3423W        W69832  37.422  25.083   2.786
 3424W        W69833  15.428  26.160  11.378
 3425W        W69834   9.623  41.740   4.283
 3426W        W69835  41.317  14.355  14.279
 3427W        W69836   2.432   2.034   4.680
 3428W        W69837   8.887  39.341   4.683
 3429W        W69838  40.962  28.986   0.995
 3430W        W69839  19.426  38.178   2.280
 3431W        W69840   9.425   1.735  11.551
 3432W        W69841  21.538  43.927  12.365
 3433W        W69842  33.514  10.874  14.825
 3434W        W69843  30.504  26.702  12.862
 3435W        W69844  16.877  16.031  12.031
 3436W        W69845  22.378  12.660   4.682
 3437W        W69846  44.667  27.213  13.159
 3438W        W69847  17.189  17.602   0.905
 3439W        W69848  44.416  38.537  11.222
 3440W        W69849  18.359  20.615  14.217
 3441W        W69850  35.474   3.684  10.767
 3442W        W69851  23.230   2.267  14.349
 3443W        W69852  14.079  26.554   4.279
 3444W        W69853  38.573  30.800  10.675
 3445W        W69854   3.467  28.547   1.745
 3446W        W69855  28.311  43.720  14.685
 3447W        W69856  34.957  22.046   0.732
 3448W        W69857  13.380  26.695  14.753
 3449W        W69858  18.501  16.324  10.711
 3450W        W69859  28.259  12.774   3.772
 3451W        W69860   8.413  41.249  13.506
 3452W        W69861  42.980  14.171  11.850
 3453W        W69862  33.466  10.244  11.781
 3454W        W69863  19.423  11.666   1.181
 3455W        W69864   0.012   4.710  13.158
 3456W        W69865  18.696  25.892  14.445
 3457W        W69866  15.601  39.437  14.456
 3458W        W69867   5.790   3.738  11.740
 3459W        W69868  15.863   2.316   3.885
 3460W        W69869  38.081  27.028   2.572
 3461W        W69870  23.164  29.515   2.766
 3462W        W69871   6.436  44.407   0.941
 3463W        W69872  27.447  22.084  11.185
 3464W        W69873  33.497  38.493   0.893
 3465W        W69874   8.246  17.330   2.292
 3466W        W69875   2.289  19.562   3.373
 3467W        W69876  13.727  13.715   0.793
 3468W        W69877  29.828  19.678  10.741
 3469W        W69878  10.354  21.253   1.474
 3470W        W69879  37.600  12.768  13.478
 3471W        W69880  37.914  35.659   1.028
 3472W        W69881  26.547   6.201  11.153
 3473W        W69882  28.025  24.294   4.194
 3474W        W69883  29.444  29.094  11.408
 3475W        W69884  33.944  44.716  11.984
 3476W        W69885  40.784  21.816   0.528
 3477W        W69886  19.046  17.356   2.724
 3478W        W69887  17.704  22.571   4.294
 3479W        W69888  37.395  30.953   0.813
 3480W        W69889  19.050  40.286  11.572
 3481W        W69890  14.676  14.181   0.851
 3482W        W69891  15.990  11.171  10.484
 3483W        W69892  23.531  19.016  12.425
 3484W        W69893  31.980  12.360  13.021
 3485W        W69894  41.449  28.555  13.442
 3486W        W69895  26.944  30.084  14.461
 3487W        W69896  15.146  17.733  10.588
 3488W        W69897   7.640  29.457  14.030
 3489W        W69898   7.793  37.883  12.750
 3490W        W69899   0.808  36.625  13.403
 3491W        W69900  15.765  38.104  13.691
 3492W        W69901  40.412  40.460   4.180
 3493W        W69902   1.958  36.559   3.553
 3494W        W69903  11.244  12.104   3.550
 3495W        W69904  21.919  38.357   1.405
 3496W        W69905  34.698   4.728  10.650
 3497W        W69906  42.705  39.868   2.144
 3498W        W69907  31.552  36.522   0.271
 3499W        W69908   7.168   1.879  11.264
 3500W        W69909  20.864  12.546  12.249
 3501W        W69910  28.672  13.342   4.340
 3502W        W69911   7.701  39.932  14.945
 3503W        W69912  19.078  14.192  13.084
 3504W        W69913   2.719  31.432  14.511
 3505W        W69914   9.556  24.074  11.569
 3506W        W69915  15.223   0.520   9.563
 3507W        W69916  35.439   0.241  13.275
 3508W        W69917  44.183  16.180  11.369
 3509W        W69918   0.899  15.185   1.283
 3510W        W69919  13.091  11.657  12.055
 3511W        W69920  18.102  40.978   3.246
 3512W        W69921  36.439   2.393   4.164
 3513W        W69922  39.553  11.408   2.540
 3514W        W69923   4.930   4.522   2.353
 3515W        W69924  15.870  39.609   2.638
 3516W        W69925   3.743  20.653   2.315
 3517W        W69926  31.061   0.097  13.481
 3518W        W69927  12.850  17.172   2.368
 3519W        W69928   8.684   6.910   0.323
 3520W        W69929   0.634   6.752  11.147
 3521W        W69930  23.011  44.771   3.375
 3522W        W69931  28.654  10.044   3.156
 3523W        W69932   9.697  12.296   0.868
 3524W        W69933   7.193   3.520   2.248
 3525W        W69934  39.344  16.900   3.439
 3526W        W69935   0.932  43.548   2.771
 3527W        W69936   1.550  35.134   2.251
 3528W        W69937  31.482  29.693  11.659
 3529W        W69938  11.625   3.466  14.037
 3530W        W69939  12.821   7.234  13.806
 3531W        W69940  15.688  13.896   1.913
 3532W        W69941  30.330  27.549  14.385
 3533W        W69942  12.548  35.525  10.925
 3534W        W69943  33.805   2.822  14.733
 3535W        W69944  40.969  34.322  12.926
 3536W        W69945   8.677  21.109   1.971
 3537W        W69946  25.713  27.255   2.840
 3538W        W69947  21.706  31.463   3.294
 3539W        W69948  26.760   7.923   3.573
 3540W        W69949  42.971  40.412   4.855
 3541W        W69950  20.964  41.736  11.206
 3542W        W69951  13.911   1.826   0.546
 3543W        W69952  27.997  44.799   4.529
 3544W        W69953  15.105  32.702  14.040
 3545W        W69954   4.883   7.484   4.038
 3546W        W69955  42.721  17.602  13.295
 3547W        W69956  37.932  28.620  13.022
 3548W        W69957  16.760  32.119   4.532
 3549W        W69958  21.067  37.905   1.781
 3550W        W69959  25.171  17.351  14.014
 3551W        W69960  20.027  17.050  11.176
 3552W        W69961  26.912  37.074  14.284
 3553W        W69962  35.106  20.408  14.315
 3554W        W69963  34.252  44.095   3.736
 3555W        W69964  33.296  42.472  11.477
 3556W        W69965  13.056  35.018  12.976
 3557W        W69966   8.813  34.071   1.929
 3558W        W69967  18.510  44.862   1.013
 3559W        W69968   9.738   5.307  11.439
 3560W        W69969  28.980   5.003  11.899
 3561W        W69970  18.898  16.141   4.645
 3562W        W69971  44.474   3.917   1.874
 3563W        W69972   0.025  27.070  12.318
 3564W        W69973  33.927   5.319   2.881
 3565W        W69974  18.904   2.640   0.687
 3566W        W69975  39.689  28.986   4.178
 3567W        W69976  22.240   7.713   4.369
 3568W        W69977   1.360  13.302  10.783
 3569W        W69978  36.507   8.224  11.841
 3570W        W69979   0.445  29.728  13.882
 3571W        W69980  13.912  40.348  11.828
 3572W        W69981   9.894   6.682   2.491
 3573W        W69982   9.678  28.660  11.462
 3574W        W69983  34.028  36.470  10.974
 3575W        W69984  16.344  41.950  11.441
 3576W        W69985  34.500   2.227  11.908
 3577W        W69986  13.861  14.558  14.698
 3578W        W69987  25.448  18.049  14.080
 3579W        W69988  21.506  20.015  12.449
 3580W        W69989  31.532   1.761  12.651
 3581W        W69990  30.360  28.649   0.795
 3582W        W69991   5.236  29.721  14.707
 3583W        W69992   4.106   7.423  13.058
 3584W        W69993  39.800  43.845  11.247
 3585W        W69994  22.597  21.172   0.216
 3586W        W69995  32.041   4.760   4.950
 3587W        W69996  15.347   0.334   0.865
 3588W        W69997  22.198  38.621  10.652
 3589W        W69998  23.286  35.039   0.242
 3590W        W69999   0.104  14.655   0.345
 3591W        W70000  42.919   1.463  14.703
 3592W        W70001  44.397  34.392   2.675
 3593W        W70002   1.561  20.276  13.130
 3594W        W70003   3.288  35.620  14.422
 3595W        W70004  25.001   8.885  13.916
 3596W        W70005   7.941  42.564   4.908
 3597W        W70006  17.426  18.026   2.695
 3598W        W70007  26.052  37.344   3.233
 3599W        W70008  15.383  43.820   3.350
 3600W        W70009  42.285  13.367  13.500
 3601W        W70010  25.419  12.120   2.135
 3602W        W70011  37.115  44.953  11.988
 3603W        W70012   2.908   2.449  11.702
 3604W        W70013  14.153  39.525   1.841
 3605W        W70014  41.664  14.913  11.693
 3606W        W70015  19.863  33.899   1.320
 3607W        W70016  10.985  19.014  13.355
 3608W        W70017  26.811  43.832  14.460
 3609W        W70018  42.975   9.574   0.206
 3610W        W70019  43.978  35.968  13.731
 3611W        W70020  23.696  26.471  12.618
 3612W        W70021  37.116  29.687   0.963
 3613W        W70022  15.125  12.299   0.440
 3614W        W70023  21.225   8.211  13.088
 3615W        W70024   0.073  24.726   4.402
 3616W        W70025  10.843  40.367   0.816
 3617W        W70026  19.262  13.091   2.638
 3618W        W70027  22.840  25.010   0.191
 3619W        W70028  36.526  19.760  12.392
 3620W        W70029  22.457  39.442   1.354
 3621W        W70030  42.326  35.235   0.872
 3622W        W70031   6.372  39.303  14.982
 3623W        W70032  34.219  21.250  11.010
 3624W        W70033  11.655   9.831   0.979
 3625W        W70034  40.873  16.390   3.807
 3626W        W70035  24.504  31.396   2.077
 3627W        W70036   7.506  18.533   4.036
 3628W        W70037  25.140  29.982  14.766
 3629W        W70038  25.574   4.788  10.522
 3630W        W70039   3.791   9.830  11.282
 3631W        W70040  31.398  38.367  14.917
 3632W        W70041   2.460  43.111   4.466
 3633W        W70042  40.307  18.723   2.774
 3634W        W70043  33.347  38.994  10.630
 3635W        W70044   0.790  23.833   4.146
 3636W        W70045  24.505  10.401  13.529
 3637W        W70046   7.464  15.781   0.495
 3638W        W70047  17.963  17.611   1.496
 3639W        W70048  16.064  22.937  13.584
 3640W        W70049  29.902  17.342   3.312
 3641W        W70050  33.476  13.893   1.729
 3642W        W70051  32.299   0.396   2.832
 3643W        W70052  14.282  31.061   0.491
 3644W        W70053  34.490  37.436  11.613
 3645W        W70054  40.857   8.380   1.740
 3646W        W70055   7.348   5.983  12.865
 3647W        W70056  20.016  32.870   4.334
 3648W        W70057  16.146  15.230   0.619
 3649W        W70058  15.142  23.839  11.891
 3650W        W70059  24.181   4.928   3.618
 3651W        W70060   1.838   3.225   3.193
 3652W        W70061  39.459  38.762  13.854
 3653W        W70062  33.823  35.099  13.688
 3654W        W70063  35.333   9.346  11.916
 3655W        W70064  17.645   7.774   3.788
 3656W        W70065  16.526  13.185  14.306
 3657W        W70066  34.010  20.723   3.981
 3658W        W70067  10.396  20.276  13.014
 3659W        W70068  10.297   2.000  12.398
 3660W        W70069  38.656  25.256   4.150
 3661W        W70070  14.913   3.974   4.207
 3662W        W70071  29.015  14.975  12.987
 3663W        W70072  19.688  31.452  11.329
 3664W        W70073  33.673  33.612  13.098
 3665W        W70074  33.893   2.443  14.352
 3666W        W70075  36.483  27.427  11.498
 3667W        W70076  13.320  20.298   0.779
 3668W        W70077   5.632   6.686  14.432
 3669W        W70078  29.862  25.436   0.774
 3670W        W70079  13.838  27.701  13.943
 3671W        W70080  38.650  41.508  12.592
 3672W        W70081  37.383   4.403   3.091
 3673W        W70082  15.131  23.482   0.827
 3674W        W70083  18.888  19.675   2.890
 3675W        W70084  16.997  44.945  12.674
 3676W        W70085  23.939  43.683   3.722
 3677W        W70086  24.448  27.490   4.575
 3678W        W70087   3.382  25.991  12.394
 3679W        W70088   4.487  10.720  13.942
 3680W        W70089  13.082   9.286  13.546
 3681W        W70090  14.488  35.884   1.890
 3682W        W70091  41.863   3.280  14.545
 3683W        W70092  34.692   3.905   5.007
 3684W        W70093  30.173  30.475  12.084
 3685W        W70094  40.309  19.952   0.443
 3686W        W70095  33.603  16.067   2.802
 3687W        W70096  24.993  40.329   1.273
 3688W        W70097  23.506   9.709   3.733
 3689W        W70098  38.057   8.881   4.409
 3690W        W70099  29.035  12.415  13.838
 3691W        W70100  36.832   3.084   3.176
 3692W        W70101  13.275  24.278   3.204
 3693W        W70102  31.166   6.574  14.024
 3694W        W70103  26.958  40.036   0.011
 3695W        W70104  27.497   0.764  10.731
 3696W        W70105  20.066  23.580  11.135
 3697W        W70106  30.051   6.444  11.886
 3698W        W70107  40.034  33.413   3.374
 3699W        W70108   1.212  16.374   0.799
 3700W        W70109  24.747  30.464  14.432
 3701W        W70110  19.027   1.199  11.225
 3702W        W70111   2.890  18.461  11.133
 3703W        W70112  20.580  12.198  13.135
 3704W        W70113  36.124  40.712   1.757
 3705W        W70114   5.201  41.205   3.143
 3706W        W70115  37.975  22.176  11.112
 3707W        W70116   1.751  16.512   1.811
 3708W        W70117  43.505  43.388   2.725
 3709W        W70118   4.386  38.914  14.023
 3710W        W70119  17.168  36.590   2.796
 3711W        W70120  35.355  22.553  12.962
 3712W        W70121  30.852  10.769   1.749
 3713W        W70122  24.683  16.803   1.898
 3714W        W70123  15.791   9.609   1.890
 3715W        W70124  28.661  29.539   4.464
 3716W        W70125  27.123  13.181   3.231
 3717W        W70126  28.469  44.985  14.128
 3718W        W70127  40.455  18.226   1.794
 3719W        W70128  18.666  43.395  12.426
 3720W        W70129  16.047  20.756  11.944
 3721W        W70130  37.505  42.190   3.745
 3722W        W70131  42.476  29.962  13.010
 3723W        W70132  33.073  20.296   4.719
 3724W        W70133  24.788  12.896   2.836
 3725W        W70134  30.210  12.943   2.784
 3726W        W70135  44.102  17.497   3.715
 3727W        W70136  23.719  12.732  14.480
 3728W        W70137  35.166   2.794   4.784
 3729W        W70138  39.826  30.978   1.688
 3730W        W70139  16.551   7.582  11.724
 3731W        W70140  41.526  20.747  14.209
 3732W        W70141  34.051  23.147   0.158
 3733W        W70142   2.519  17.690  12.485
 3734W        W70143  28.376  39.939  12.885
 3735W        W70144  25.107  42.288  12.099
 3736W        W70145  24.411  33.351   0.340
 3737W        W70146   7.317  36.094   2.283
 3738W        W70147  31.743  39.921   3.744
 3739W        W70148  17.584  37.633  12.424
 3740W        W70149   3.934  44.387   3.228
 3741W        W70150  21.526  14.917  12.880
 3742W        W70151  27.256   1.894   3.281
 3743W        W70152  30.950  10.846  10.629
 3744W        W70153   7.597  14.422  13.829
 3745W        W70154  41.993  39.569  13.739
 3746W        W70155  31.956   6.209  11.114
 3747W        W70156  23.429  40.594   2.200
 3748W        W70157  19.310  34.013  13.348
 3749W        W70158   7.122   1.192  14.302
 3750W        W70159   7.763  15.819  11.522
 3751W        W70160   9.821  14.767  14.845
 3752W        W70161  34.490   6.711   0.831
 3753W        W70162  21.111  41.879   4.372
 3754W        W70163  25.677  30.185   2.399
 3755W        W70164  42.704   3.395  11.550
 3756W        W70165   9.118  24.860   4.408
 3757W        W70166   3.249  17.871  10.574
 3758W        W70167  10.697  29.087  13.397
 3759W        W70168   5.171   1.173  11.067
 3760W        W70169  42.492  23.656  12.474
 3761W        W70170   3.311  11.614  13.213
 3762W        W70171  20.710  27.472   4.259
 3763W        W70172  34.137   0.677  14.047
 3764W        W70173   9.830  15.492  11.960
 3765W        W70174  28.707   9.736   2.724
 3766W        W70175  29.559  42.912  11.152
 3767W        W70176  24.186  24.457  12.463
 3768W        W70177  38.003  11.000   0.128
 3769W        W70178  41.382  30.474   0.474
 3770W        W70179  43.943  44.594   2.325
 3771W        W70180  28.096   4.676   3.232
 3772W        W70181  22.994  37.161  14.342
 3773W        W70182  38.666  37.613  10.694
 3774W        W70183  32.526  25.471  14.006
 3775W        W70184  28.701   5.416  14.399
 3776W        W70185  35.233   1.931  11.499
 3777W        W70186  37.464  42.018   5.244
 3778W        W70187   3.206   1.358   2.060
 3779W        W70188   5.845  43.109   3.695
 3780W        W70189  35.342  35.098   3.599
 3781W        W70190  14.742  13.264  11.994
 3782W        W70191  21.249  18.260   2.715
 3783W        W70192  31.953  39.844  10.705
 3784W        W70193  13.551  29.706  12.667
 3785W        W70194  28.520  31.421  10.980
 3786W        W70195  44.903   1.740   1.733
 3787W        W70196  43.574  26.085  11.806
 3788W        W70197  25.599  22.786  10.475
 3789W        W70198  35.339  26.960   3.934
 3790W        W70199  35.846   2.939   1.419
 3791W        W70200  19.682  26.422   3.688
 3792W        W70201  16.231  26.730  13.087
 3793W        W70202  31.777   1.724   4.189
 3794W        W70203  16.272  16.846  11.084
 3795W        W70204   7.969   4.259  14.600
 3796W        W70205   4.783  30.407  14.751
 3797W        W70206   6.711   3.062  14.480
 3798W        W70207  42.627  25.447   1.968
 3799W        W70208  24.266  13.815  11.920
 3800W        W70209  34.413   6.881  10.386
 3801W        W70210  32.247  25.960  11.081
 3802W        W70211  17.182  11.257  13.317
 3803W        W70212   3.766  39.034  12.061
 3804W        W70213  33.293  32.978   0.130
 3805W        W70214   4.041  40.299   0.262
 3806W        W70215  28.332  30.029   1.829
 3807W        W70216   5.803  15.090   0.721
 3808W        W70217  12.642   4.399   3.404
 3809W        W70218   0.881   3.091   0.884
 3810W        W70219   5.678  35.888  13.905
 3811W        W70220   9.710  44.449   2.850
 3812W        W70221   8.368   0.447   2.543
 3813W        W70222  22.743  40.808   3.462
 3814W        W70223  31.662  44.316  12.340
 3815W        W70224  31.814  15.980   4.249
 3816W        W70225  25.583  27.587  13.132
 3817W        W70226  31.558   5.904   2.088
 3818W        W70227  17.087  36.383   0.135
 3819W        W70228  29.628  29.122  12.368
 3820W        W70229  44.022  26.020  12.052
 3821W        W70230  39.427  13.689  12.291
 3822W        W70231  28.181   1.846   0.488
 3823W        W70232  33.330  19.178   0.342
 3824W        W70233  16.803  36.136   4.107
 3825W        W70234  36.766  39.993   0.600
 3826W        W70235  37.450  40.754  10.949
 3827W        W70236  41.099  29.658  12.917
 3828W        W70237  22.320  17.951  13.046
 3829W        W70238  31.430  22.326  14.931
 3830W        W70239   3.741  13.121   4.643
 3831W        W70240  23.579   8.887   4.558
 3832W        W70241  11.018  31.956  10.562
 3833W        W70242  13.343  27.906   0.438
 3834W        W70243  15.259  13.409  14.700
 3835W        W70244   0.059  27.137  10.929
 3836W        W70245  32.062  33.525   2.821
 3837W        W70246   3.303  26.044  14.816
 3838W        W70247  16.233  38.157   1.887
 3839W        W70248  34.486   2.572   1.154
 3840W        W70249  15.567   9.744  11.984
 3841W        W70250  33.498  17.466   1.898
 3842W        W70251  11.105  22.142   0.390
 3843W        W70252  24.704   4.011  14.249
 3844W        W70253   6.251  24.158   1.886
 3845W        W70254  32.321  34.449   1.273
 3846W        W70255  37.180  24.056   5.123
 3847W        W70256  33.003  18.228  14.294
 3848W        W70257  28.920   4.375  12.591
 3849W        W70258  44.929   5.170   3.602
 3850W        W70259  26.339  33.964  14.452
 3851W        W70260  39.883   5.207   0.253
 3852W        W70261  30.419  22.287   0.876
 3853W        W70262  22.139  33.133   0.929
 3854W        W70263  40.839  33.161  12.305
 3855W        W70264   3.829   3.734  13.533
 3856W        W70265  12.600  24.151   2.083
 3857W        W70266  36.476   1.378   3.240
 3858W        W70267  39.701   4.600   1.937
 3859W        W70268  16.256  28.979   0.258
 3860W        W70269   7.127  39.108   4.615
 3861W        W70270  14.823  23.622  14.311
 3862W        W70271  18.663  16.184   0.489
 3863W        W70272  26.053  17.615  11.263
 3864W        W70273  35.341  43.281   3.645
 3865W        W70274  18.574  37.476  12.219
 3866W        W70275  21.754  14.323  10.620
 3867W        W70276  17.390  38.137   1.463
 3868W        W70277  11.733  23.668   0.849
 3869W        W70278  37.786  15.095   1.230
 3870W        W70279  25.729  11.311  11.709
 3871W        W70280  38.597  42.901   4.281
 3872W        W70281   9.518  35.086   2.219
 3873W        W70282  19.292  17.838  12.041
 3874W        W70283  44.629   3.033   3.034
 3875W        W70284   9.069  16.776  12.985
 3876W        W70285  21.407  44.926   3.058
 3877W        W70286  19.757  17.352  12.542
 3878W        W70287  23.467  13.687  13.512
 3879W        W70288  30.153  32.428  12.860
 3880W        W70289   2.442   3.271   4.372
 3881W        W70290  13.636   7.674  10.888
 3882W        W70291   7.183  34.012   1.444
 3883W        W70292  14.738  40.396  12.652
 3884W        W70293  15.307  20.544   2.242
 3885W        W70294   4.829   9.099  13.620
 3886W        W70295  16.938  24.774   2.415
 3887W        W70296  18.408  23.211   3.919
 3888W        W70297  41.442  37.545   2.832
 3889W        W70298  24.375  12.491   0.488
 3890W        W70299  16.314  33.691  14.357
 3891W        W70300  34.726  10.463  10.242
 3892W        W70301  13.817  22.816   1.728
 3893W        W70302  19.175  16.847   2.597
 3894W        W70303  13.486  37.426  12.393
 3895W        W70304  40.388   8.617   2.450
 3896W        W70305   0.808  13.163   0.255
 3897W        W70306  12.610  30.476   2.726
 3898W        W70307  14.907  37.436  13.761
 3899W        W70308  11.855  44.786   4.353
 3900W        W70309  39.051   5.249  10.200
 3901W        W70310  28.099   9.733   1.227
 3902W        W70311  43.922   0.730   1.559
 3903W        W70312  40.157  16.435   5.344
 3904W        W70313  44.754   4.362   1.747
 3905W        W70314  18.063   5.385  11.803
 3906W        W70315  42.845   0.312   2.835
 3907W        W70316  26.867  41.389  14.414
 3908W        W70317  41.950   7.258   0.494
 3909W        W70318  30.892  26.967  11.900
 3910W        W70319  26.798  10.419   3.151
 3911W        W70320  23.510  15.041  11.996
 3912W        W70321  25.404  28.085   1.981
 3913W        W70322  10.603  26.932  14.747
 3914W        W70323   1.344   7.790   3.351
 3915W        W70324  26.079   3.880   4.620
 3916W        W70325  23.331  30.796   2.631
 3917W        W70326   4.246  42.443   0.402
 3918W        W70327  42.862  24.650  13.070
 3919W        W70328  11.305  16.771   2.200
 3920W        W70329  24.711  17.247  11.473
 3921W        W70330  27.106   7.584   4.505
 3922W        W70331  20.626   2.947   4.242
 3923W        W70332  24.556  39.501  14.439
 3924W        W70333  31.147  11.427  13.593
 3925W        W70334  22.350   9.722   2.832
 3926W        W70335  14.032  35.085   2.712
 3927W        W70336  24.229  17.163  10.662
 3928W        W70337   3.174  23.380  11.578
 3929W        W70338   2.661   1.291   2.743
 3930W        W70339  39.570  30.417   3.189
 3931W        W70340  21.415  27.509   3.691
 3932W        W70341  17.684  23.276  12.085
 3933W        W70342  13.247  19.111  12.115
 3934W        W70343  13.121  23.554  12.989
 3935W        W70344  11.174  25.064   0.670
 3936W        W70345   9.357  43.872   4.462
 3937W        W70346  17.698  17.259  14.487
 3938W        W70347   8.682  21.500  12.516
 3939W        W70348  40.930  16.024   2.910
 3940W        W70349  15.030   0.857  14.868
 3941W        W70350  35.310  37.360  13.890
 3942W        W70351  37.606  31.520  12.529
 3943W        W70352  43.312  16.140   0.905
 3944W        W70353  35.877   7.646   0.496
 3945W        W70354  33.096  10.453   2.696
 3946W        W70355   2.497  35.304  13.030
 3947W        W70356   2.127   5.939  13.571
 3948W        W70357   4.849  23.752   1.095
 3949W        W70358  34.438   3.739  14.459
 3950W        W70359  17.553  38.059   2.487
 3951W        W70360  23.246  12.722  12.543
 3952W        W70361  24.553  27.990   1.370
 3953W        W70362  30.501  43.451   1.782
 3954W        W70363  42.433  12.358  14.390
 3955W        W70364   2.791  16.270   1.843
 3956W        W70365  31.326   1.614   3.945
 3957W        W70366  29.668  27.442   0.881
 3958W        W70367  27.325  23.876   0.958
 3959W        W70368   2.413  32.180   1.239
 3960W        W70369  22.148  29.368  11.834
 3961W        W70370   7.583   2.892   4.623
 3962W        W70371  25.104  20.528   9.641
 3963W        W70372   1.741  15.046  12.420
 3964W        W70373  21.227  38.731   3.278
 3965W        W70374  31.114  11.261  12.734
 3966W        W70375   4.480   3.366   0.368
 3967W        W70376  14.865   9.117  10.942
 3968W        W70377  17.159  42.941  12.323
 3969W        W70378  26.467   1.844  14.225
 3970W        W70379  35.232  27.395   3.207
 3971W        W70380  31.892  13.348  12.012
 3972W        W70381   2.369   6.316  10.988
 3973W        W70382   6.180  37.975   4.671
 3974W        W70383  44.835  11.147   2.782
 3975W        W70384   0.718  24.060   9.567
 3976W        W70385  15.672  36.019   4.609
 3977W        W70386   2.033  11.828  14.345
 3978W        W70387  25.117  10.850   2.379
 3979W        W70388  38.636  12.883   3.480
 3980W        W70389  10.344  39.803   3.259
 3981W        W70390  40.011  36.925  11.162
 3982W        W70391  39.784  21.102   1.024
 3983W        W70392  35.790  17.032  11.167
 3984W        W70393   3.773   4.618  11.417
 3985W        W70394  37.567  12.800  11.869
 3986W        W70395   6.675   7.690   2.845
 3987W        W70396   5.821  30.194  12.558
 3988W        W70397   5.392  23.160   4.067
 3989W        W70398   6.140  39.476   4.280
 3990W        W70399   6.287  15.071   1.803
 3991W        W70400  17.637  32.266   3.018
 3992W        W70401  18.729  10.369  14.904
 3993W        W70402  40.022   6.248  12.604
 3994W        W70403  22.216  21.433   4.277
 3995W        W70404  14.083  19.552  13.990
 3996W        W70405  10.104  27.924  10.481
 3997W        W70406  16.078  13.568   1.698
 3998W        W70407  38.086  28.394  13.687
 3999W        W70408  24.463  13.299   2.284
 4000W        W70409  21.538  32.155   9.864
 4001W        W70410  22.611  40.617  10.772
 4002W        W70411  26.555  13.944  14.020
 4003W        W70412  15.124   4.467   0.981
 4004W        W70413  42.723  44.383  13.252
 4005W        W70414  38.430  13.685   2.901
 4006W        W70415   8.935  16.066  12.392
 4007W        W70416   5.104  28.471   0.950
 4008W        W70417  19.849  15.708   1.402
 4009W        W70418  38.958  41.944   1.462
 4010W        W70419  28.556  29.993   3.545
 4011W        W70420  37.916  33.419   2.406
 4012W        W70421  14.868  19.743   9.804
 4013W        W70422  16.072  27.954  11.059
 4014W        W70423  28.439   4.261   2.269
 4015W        W70424  35.584  11.669   3.600
 4016W        W70425  14.194  44.008  10.853
 4017W        W70426   9.224   0.302  13.566
 4018W        W70427  22.565  10.156   0.872
 4019W        W70428  39.562  22.629  12.604
 4020W        W70429   9.761  33.648   1.186
 4021W        W70430  20.491   5.155   1.900
 4022W        W70431  31.627  15.063   4.268
 4023W        W70432  18.569  25.244  12.983
 4024W        W70433  13.010  18.254   5.199
 4025W        W70434  26.514  13.212   1.366
 4026W        W70435  34.478   7.875  14.872
 4027W        W70436   0.889  18.202  14.302
 4028W        W70437  10.641  30.471   1.818
 4029W        W70438   2.995   5.874  13.823
 4030W        W70439  17.600  16.196  12.496
 4031W        W70440  13.240  30.976  12.419
 4032W        W70441   0.541  19.232   4.837
 4033W        W70442  29.660  26.957   2.292
 4034W        W70443  34.654   9.513   4.099
 4035W        W70444  11.137  17.573   1.378
 4036W        W70445  17.066  24.667   2.899
 4037W        W70446  30.036  26.018   4.526
 4038W        W70447  23.912   7.286   2.819
 4039W        W70448   6.399  29.672   4.949
 4040W        W70449  15.186  10.343   2.388
 4041W        W70450   9.217   1.978  10.505
 4042W        W70451  42.925   9.195  13.638
 4043W        W70452  33.624   1.397   3.193
 4044W        W70453  25.675  21.633   2.333
 4045W        W70454  32.456  10.237  11.809
 4046W        W70455   3.479  27.175  13.958
 4047W        W70456  31.794   6.032   1.271
 4048W        W70457  16.297  20.388   0.800
 4049W        W70458  13.793   8.152  13.992
 4050W        W70459  22.121  13.866   0.953
 4051W        W70460  11.766   1.284   0.182
 4052W        W70461  21.759  13.960  12.972
 4053W        W70462  16.312  38.539  11.552
 4054W        W70463  39.525  13.343   3.358
 4055W        W70464  11.337   4.327   1.420
 4056W        W70465   2.361   8.756   4.762
 4057W        W70466  19.021  35.628   3.901
 4058W        W70467   2.953   3.967   4.625
 4059W        W70468  37.974  26.631  10.811
 4060W        W70469   7.257  38.287  14.504
 4061W        W70470   4.264  24.456   3.132
 4062W        W70471   9.877  17.075   4.650
 4063W        W70472  28.880  28.758   3.276
 4064W        W70473  42.914  30.945  11.725
 4065W        W70474  13.119  39.788   3.302
 4066W        W70475  42.668  19.398   0.534
 4067W        W70476  35.948   5.783  11.482
 4068W        W70477  29.470  21.364  14.386
 4069W        W70478  14.539   7.695  11.180
 4070W        W70479  14.554  43.458   3.079
 4071W        W70480  18.923  32.004   2.685
 4072W        W70481   0.672  31.572   2.670
 4073W        W70482  31.654  14.060  11.642
 4074W        W70483  18.878  24.952   4.205
 4075W        W70484   1.073  17.629  10.288
 4076W        W70485   2.393   1.197  10.827
 4077W        W70486  36.438  20.720   1.608
 4078W        W70487  19.694   5.372  11.926
 4079W        W70488  11.150  13.020  11.503
 4080W        W70489  29.656  17.888   0.073
 4081W        W70490   8.706   1.819   3.611
 4082W        W70491  22.095  28.890  13.469
 4083W        W70492  43.821  15.854   0.004
 4084W        W70493  31.258   3.211   2.323
 4085W        W70494  27.375  36.228  11.194
 4086W        W70495   7.965   8.085   2.192
 4087W        W70496  40.575  11.910   0.020
 4088W        W70497  27.142   5.838   2.289
 4089W        W70498   6.441  18.050  14.982
 4090W        W70499  29.159   7.259   4.868
 4091W        W70500  42.940  25.378   5.008
 4092W        W70501  34.901  43.896   0.833
 4093W        W70502  42.791  23.502  12.052
 4094W        W70503  18.697  41.079   2.301
 4095W        W70504   6.304  22.685  10.736
 4096W        W70505   4.205  43.687  11.024
 4097W        W70506   5.935  28.952  13.919
 4098W        W70507   6.360  18.038  10.621
 4099W        W70508  23.693   3.429  13.055
 4100W        W70509   8.451  28.341  13.508
 4101W        W70510  25.493  28.152  10.644
 4102W        W70511  21.037  30.579  12.305
 4103W        W70512  29.786  23.737   3.210
 4104W        W70513  13.669  38.525  13.354
 4105W        W70514   4.655  39.887  10.776
 4106W        W70515  28.327  28.999  12.832
 4107W        W70516  39.987  26.640  11.648
 4108W        W70517  43.693  30.639   2.232
 4109W        W70518   4.186  15.725   4.149
 4110W        W70519   8.163  10.302   1.177
 4111W        W70520   8.701   5.859  11.987
 4112W        W70521  43.550  10.502   2.438
 4113W        W70522  41.910   0.814   2.282
 4114W        W70523  38.377  16.400  10.958
 4115W        W70524   4.334  41.497  13.807
 4116W        W70525   7.346  40.803  10.502
 4117W        W70526   0.219  28.688   0.344
 4118W        W70527  39.447   8.721  14.356
 4119W        W70528  29.090  35.011  10.671
 4120W        W70529  19.346  24.728   1.703
 4121W        W70530  43.384  12.864   4.024
 4122W        W70531  31.076   5.442  14.993
 4123W        W70532   9.321  27.911   3.514
 4124W        W70533  38.575   6.881  11.669
 4125W        W70534  39.063  12.571   1.786
 4126W        W70535  39.967  25.206   0.124
 4127W        W70536  30.862   0.411   3.890
 4128W        W70537  40.920  22.407  13.848
 4129W        W70538  33.934  38.567   4.912
 4130W        W70539   9.269  26.059   3.802
 4131W        W70540   2.720  25.144   3.626
 4132W        W70541  14.645  16.115  14.082
 4133W        W70542  36.952  24.874   3.996
 4134W        W70543   8.227  39.839   1.427
 4135W        W70544  32.385  42.434   1.252
 4136W        W70545   1.111  30.576  10.228
 4137W        W70546  18.123  25.558   3.413
 4138W        W70547  35.323  34.876   0.437
 4139W        W70548  40.978   2.458   0.491
 4140W        W70549  11.212  34.639   3.538
 4141W        W70550  26.774  10.903   2.743
 4142W        W70551   7.420  38.025   1.232
 4143W        W70552  16.821   7.261   1.858
 4144W        W70553  18.934   4.850  14.286
 4145W        W70554  12.597  19.619  13.968
 4146W        W70555   3.373  27.464   1.875
 4147W        W70556   0.289  22.590   1.736
 4148W        W70557  22.653  28.502  11.729
 4149W        W70558  36.335   7.691   0.251
 4150W        W70559  39.971   5.975  11.166
 4151W        W70560  34.633   3.767  10.583
 4152W        W70561   0.402  27.508  14.436
 4153W        W70562  33.919  37.866   1.721
 4154W        W70563  19.970  14.793  14.072
 4155W        W70564  36.266   8.783  13.846
 4156W        W70565   0.243  35.020  13.291
 4157W        W70566  18.159  24.500   0.874
 4158W        W70567  40.355  23.475   3.061
 4159W        W70568  42.245   1.328  10.846
 4160W        W70569  39.049  33.281   3.925
 4161W        W70570  43.129  22.761  11.659
 4162W        W70571  40.319  25.457  13.923
 4163W        W70572  19.087  31.920   3.408
 4164W        W70573  27.713  12.671   3.767
 4165W        W70574  27.173  12.217   2.130
 4166W        W70575  29.527  16.983   3.257
 4167W        W70576  36.057   6.251  11.249
 4168W        W70577  20.094   5.616   0.040
 4169W        W70578   6.934  31.638  10.748
 4170W        W70579   3.943  43.487   4.469
 4171W        W70580  23.021  24.151  14.031
 4172W        W70581  36.569  28.386   2.838
 4173W        W70582  25.403  13.729   2.611
 4174W        W70583  24.383  12.419  13.304
 4175W        W70584  11.901  13.366   0.550
 4176W        W70585   8.225  13.268   4.141
 4177W        W70586  23.579  14.672   1.124
 4178W        W70587  13.524  34.973  11.643
 4179W        W70588  41.476  42.572   3.844
 4180W        W70589   2.032  39.065   4.362
 4181W        W70590   5.366  18.160   0.487
 4182W        W70591  40.488  34.447  12.996
 4183W        W70592  33.174  27.480   4.409
 4184W        W70593  19.564  21.009  13.646
 4185W        W70594  17.568  19.712  12.846
 4186W        W70595   3.268   9.200  12.392
 4187W        W70596   8.397   0.407   4.705
 4188W        W70597  25.946  24.362   2.589
 4189W        W70598  41.962  11.164   3.306
 4190W        W70599  32.937  23.452  14.314
 4191W        W70600  35.000  12.339   0.249
 4192W        W70601  24.670  36.115   0.148
 4193W        W70602  25.526  25.468  10.563
 4194W        W70603  27.976  33.000  11.073
 4195W        W70604  30.849  34.806  11.078
 4196W        W70605  14.246  10.083   0.929
 4197W        W70606  14.229  22.606  11.603
 4198W        W70607   7.817  28.712   4.112
 4199W        W70608  17.757  15.040   1.941
 4200W        W70609  24.631  10.168   0.033
 4201W        W70610  12.422   1.968   0.461
 4202W        W70611   8.328  37.033   4.860
 4203W        W70612  15.724  36.914   1.743
 4204W        W70613  25.518  10.623   2.156
 4205W        W70614   6.422   1.072   0.425
 4206W        W70615  17.634  41.719   1.265
 4207W        W70616  21.812  29.531   0.118
 4208W        W70617  39.035   3.320   0.846
 4209W        W70618  24.741  34.285   2.303
 4210W        W70619   0.807  16.304  14.357
 4211W        W70620  33.579  15.679   3.703
 4212W        W70621  17.864  37.154   9.922
 4213W        W70622  38.060  30.139  13.642
 4214W        W70623  33.437  15.115  12.415
 4215W        W70624  10.705  15.593   4.589
 4216W        W70625  14.804  15.084  14.820
 4217W        W70626  21.975  43.458   2.302
 4218W        W70627  20.056  34.704  10.414
 4219W        W70628  20.765   0.029  11.918
 4220W        W70629  16.089  44.369  11.606
 4221W        W70630  16.498  40.255  13.849
 4222W        W70631  11.228  36.419   3.363
 4223W        W70632  21.475  40.417   1.483
 4224W        W70633  14.118  33.090  10.146
 4225W        W70634  40.044  37.850   2.267
 4226W        W70635  10.151  31.774  14.565
 4227W        W70636   3.797  40.904  13.390
 4228W        W70637  16.312  32.817  11.230
 4229W        W70638  42.777  16.111  11.837
 4230W        W70639  40.288  37.015   1.816
 4231W        W70640  30.155  27.516   0.339
 4232W        W70641  16.522  39.846   3.160
 4233W        W70642   4.321   4.495   3.170
 4234W        W70643  37.720  25.953   1.185
 4235W        W70644  43.479  16.228  12.593
 4236W        W70645   9.078  38.442  12.821
 4237W        W70646   6.361  15.981  14.845
 4238W        W70647  10.182  33.425  13.344
 4239W        W70648  39.737   7.775   4.396
 4240W        W70649  17.950  19.249  14.262
 4241W        W70650  37.488   4.296   1.801
 4242W        W70651  41.512   4.013  11.633
 4243W        W70652  31.253  38.769   1.815
 4244W        W70653  44.741   1.248  11.273
 4245W        W70654   1.886  29.209   4.164
 4246W        W70655  23.394  18.839  12.893
 4247W        W70656  10.582  29.574   4.884
 4248W        W70657   9.814  26.876  14.586
 4249W        W70658  39.418  31.679   4.459
 4250W        W70659  36.347  16.536  10.645
 4251W        W70660  34.117  20.055  11.589
 4252W        W70661  40.639  39.482   2.826
 4253W        W70662  17.073  11.763  12.057
 4254W        W70663  37.682  21.123  12.584
 4255W        W70664  42.823  44.900   1.896
 4256W        W70665  27.949  35.530  12.968
 4257W        W70666   5.654  26.430   0.358
 4258W        W70667   5.953  24.913  12.473
 4259W        W70668   1.793  15.190  10.671
 4260W        W70669   8.933  16.114   3.712
 4261W        W70670   6.001   8.386   2.627
 4262W        W70671  26.956  13.041   4.097
 4263W        W70672  23.777  22.709  14.452
 4264W        W70673  29.954  37.199   1.229
 4265W        W70674  29.467   8.370   0.000
 4266W        W70675  13.607  23.137   4.145
 4267W        W70676   6.305  13.779   2.817
 4268W        W70677  23.069  30.440   1.601
 4269W        W70678  20.269  44.992  10.640
 4270W        W70679  26.438  42.136  14.890
 4271W        W70680   0.751  41.104   1.290
 4272W        W70681  26.968  25.990   3.001
 4273W        W70682  22.694   4.647   3.254
 4274W        W70683  30.570  10.326   4.168
 4275W        W70684   4.962  38.812   1.330
 4276W        W70685  11.244   7.526   0.364
 4277W        W70686   1.329   1.522   4.183
 4278W        W70687  21.254   8.188   3.878
 4279W        W70688  34.880   9.529  11.169
 4280W        W70689  36.457  10.168  14.989
 4281W        W70690   3.419   7.391  13.375
 4282W        W70691  41.911   4.342  14.703
 4283W        W70692  18.226  18.007  14.047
 4284W        W70693  32.622  21.793  14.332
 4285W        W70694   5.839  25.275   1.100
 4286W        W70695   8.917  21.356   3.351
 4287W        W70696  35.835  35.559  14.915
 4288W        W70697  21.990  44.903   0.289
 4289W        W70698  14.577  42.028   1.466
 4290W        W70699   3.649  35.507   2.367
 4291W        W70700  34.827  44.551  13.831
 4292W        W70701  10.543  10.255   2.768
 4293W        W70702  30.983   5.126  14.078
 4294W        W70703  40.543   8.103  11.122
 4295W        W70704  25.597  25.234   3.800
 4296W        W70705  11.768  15.461  11.017
 4297W        W70706  20.258   4.434  13.025
 4298W        W70707  36.349  28.943  13.386
 4299W        W70708   5.372  39.913   4.618
 4300W        W70709  41.330  29.481   2.109
 4301W        W70710   5.392   1.839   1.157
 4302W        W70711  43.302  35.112  12.604
 4303W        W70712  19.063   5.380   2.465
 4304W        W70713  30.768  37.059  13.025
 4305W        W70714  23.973  43.171  13.295
 4306W        W70715  41.210  33.645   4.387
 4307W        W70716  42.166  10.692  12.631
 4308W        W70717  15.686  11.604   1.432
 4309W        W70718  24.998  39.584   1.710
 4310W        W70719  33.687  30.141   2.672
 4311W        W70720   7.070  34.856  13.855
 4312W        W70721  15.156  17.961  11.260
 4313W        W70722  15.369  17.195   4.727
 4314W        W70723  27.994  12.116  11.232
 4315W        W70724  17.548   9.883  14.455
 4316W        W70725  43.928  19.910  11.318
 4317W        W70726  25.136   7.367   2.493
 4318W        W70727   0.760  38.903   0.892
 4319W        W70728  32.927  14.168   2.841
 4320W        W70729  19.751  25.798  11.696
 4321W        W70730  13.377  21.951   3.326
 4322W        W70731  38.010  20.759  11.629
 4323W        W70732  15.747  26.911   3.171
 4324W        W70733  20.012   1.936  10.783
 4325W        W70734  16.143  44.897  11.069
 4326W        W70735  41.721  41.796  12.460
 4327W        W70736  21.575  26.949   2.196
 4328W        W70737  17.361  21.697   3.846
 4329W        W70738  35.123  38.758   3.220
 4330W        W70739   8.805  44.356   4.464
 4331W        W70740  19.845  36.253  13.272
 4332W        W70741   0.688  26.866  10.145
 4333W        W70742   4.482  33.335  11.732
 4334W        W70743  40.919  37.529  13.086
 4335W        W70744  19.060  12.187  13.540
 4336W        W70745   2.808  39.290  10.725
 4337W        W70746   0.880   9.876   0.002
 4338W        W70747   7.936  27.180  14.813
 4339W        W70748   8.518  32.612  14.119
 4340W        W70749  25.010   4.966  12.487
 4341W        W70750  24.246   3.305  11.633
 4342W        W70751   7.383  40.023   2.336
 4343W        W70752  18.573  41.016   4.097
 4344W        W70753  32.448  35.599   4.262
 4345W        W70754   1.878  17.769   4.076
 4346W        W70755  26.777  24.035   3.558
 4347W        W70756  25.850  11.991   4.836
 4348W        W70757  28.650  12.247  10.127
 4349W        W70758  22.927  20.578  14.040
 4350W        W70759  16.640  16.819   0.782
 4351W        W70760  33.800  37.463  14.757
 4352W        W70761  24.466   2.014  13.363
 4353W        W70762   4.738  34.571  10.634
 4354W        W70763  34.981   1.730  13.961
 4355W        W70764   6.694   9.327  11.560
 4356W        W70765  44.703  39.884   0.312
 4357W        W70766  43.872  28.420   4.477
 4358W        W70767  35.508  43.342  14.830
 4359W        W70768  41.458  44.524   2.158
 4360W        W70769  39.576  12.408   0.803
 4361W        W70770   9.923  38.091  12.122
 4362W        W70771  28.304  25.160   1.744
 4363W        W70772  14.916  14.252   4.693
 4364W        W70773   0.974  41.315   4.049
 4365W        W70774  16.164  22.234   2.116
 4366W        W70775  13.297  26.618   1.376
 4367W        W70776  25.026  22.663  12.560
 4368W        W70777   6.066  25.502  14.847
 4369W        W70778  35.254   6.327  14.423
 4370W        W70779  20.034  28.654  13.433
 4371W        W70780   7.146   8.854  13.685
 4372W        W70781   1.153  35.979  14.956
 4373W        W70782  33.111  31.480   4.872
 4374W        W70783  33.569   6.403  10.782
 4375W        W70784   3.404   3.076   4.665
 4376W        W70785   8.866   7.790   2.446
 4377W        W70786  37.055  35.620   0.854
 4378W        W70787  31.020  15.660  14.881
 4379W        W70788   2.566   0.199  10.636
 4380W        W70789  25.717  32.459   3.117
 4381W        W70790  18.844  13.809   1.287
 4382W        W70791   2.867  36.416   0.485
 4383W        W70792   4.612  14.347  12.118
 4384W        W70793  26.513  35.042   4.603
 4385W        W70794  40.379  22.716  10.492
 4386W        W70795  39.523  32.690   3.564
 4387W        W70796  42.270  23.753   2.265
 4388W        W70797   1.757  34.027   0.283
 4389W        W70798   7.813   2.459   0.755
 4390W        W70799  42.179   9.048  11.692
 4391W        W70800  31.474  25.222  11.149
 4392W        W70801  19.595   9.319  12.622
 4393W        W70802  13.367  12.732  11.908
 4394W        W70803  44.488  25.625  12.825
 4395W        W70804  41.581  22.137  13.259
 4396W        W70805   8.610  39.515   3.703
 4397W        W70806  20.198  26.875   2.252
 4398W        W70807  34.568  43.298  10.754
 4399W        W70808  37.531   4.371   0.929
 4400W        W70809  36.745  27.077   2.155
 4401W        W70810  37.904   2.788  14.382
 4402W        W70811  23.262  17.182   4.025
 4403W        W70812  31.059   6.865   0.441
 4404W        W70813  17.533  27.960  12.890
 4405W        W70814  35.457  16.087   3.430
 4406W        W70815  30.676  32.594   3.373
 4407W        W70816  13.388  42.015  12.012
 4408W        W70817   0.916   4.888   9.968
 4409W        W70818  41.090  32.905   3.665
 4410W        W70819   2.941   4.433  12.468
 4411W        W70820  11.640  25.714  13.585
 4412W        W70821   5.627  26.047  11.218
 4413W        W70822   7.762   7.070  14.479
 4414W        W70823  19.317  12.456  13.131
 4415W        W70824  20.787   1.178  13.359
 4416W        W70825  15.269  19.467   2.697
 4417W        W70826  44.396  30.961   3.341
 4418W        W70827  38.711  12.148  13.579
 4419W        W70828  30.496  12.844   1.352
 4420W        W70829  32.615  19.089   4.649
 4421W        W70830  33.687  42.262  10.558
 4422W        W70831  10.395  35.293   2.757
 4423W        W70832  35.922  20.554  12.737
 4424W        W70833   4.440  23.973   1.337
 4425W        W70834   3.861  15.807   3.711
 4426W        W70835  10.225   5.161  13.845
 4427W        W70836  29.434  39.083  10.696
 4428W        W70837   5.765   9.566   0.920
 4429W        W70838  32.862  43.388  13.355
 4430W        W70839  39.797  37.144   2.742
 4431W        W70840  32.341  19.558  11.663
 4432W        W70841  38.916  44.031   2.430
 4433W        W70842  15.757  29.096  10.706
 4434W        W70843  21.955  21.732   2.196
 4435W        W70844  40.415  41.372   0.309
 4436W        W70845  20.248  36.014   2.367
 4437W        W70846   7.711  39.950  11.227
 4438W        W70847   7.509  20.044   3.353
 4439W        W70848  37.148  42.708   1.255
 4440W        W70849  26.030  39.215  11.117
 4441W        W70850  41.297  22.810  10.631
 4442W        W70851   9.243  20.296   4.156
 4443W        W70852  29.657  37.474  11.201
 4444W        W70853   1.365  21.876   1.462
 4445W        W70854  25.559   1.769   4.199
 4446W        W70855   1.558  35.051   4.109
 4447W        W70856   4.500   7.181   1.898
 4448W        W70857  11.487  38.052  11.650
 4449W        W70858  24.766  41.765   3.558
 4450W        W70859  42.714  37.467  12.603
 4451W        W70860  28.419  14.164   0.119
 4452W        W70861  34.886  36.919   4.843
 4453W        W70862   7.098   4.368   1.317
 4454W        W70863  27.698  23.529  10.961
 4455W        W70864  33.149  33.567   1.192
 4456W        W70865   3.461  18.304  12.006
 4457W        W70866  33.456   7.857   0.906
 4458W        W70867  35.960   4.995   1.161
 4459W        W70868   3.866   3.653  12.961
 4460W        W70869  27.932  31.823   2.340
 4461W        W70870  13.445   4.025  13.853
 4462W        W70871  17.157  23.456   0.189
 4463W        W70872  11.620  39.818  11.246
 4464W        W70873   3.905   8.648   1.273
 4465W        W70874  30.549   6.769   1.246
 4466W        W70875  17.456   4.469   3.429
 4467W        W70876  17.897  14.777  12.461
 4468W        W70877   4.661  27.365   2.198
 4469W        W70878  15.671  11.117  12.081
 4470W        W70879  43.936  34.099   0.707
 4471W        W70880  19.200  10.578  10.686
 4472W        W70881  10.212   7.790   0.514
 4473W        W70882  16.296  31.908  13.377
 4474W        W70883   4.075   1.766   2.260
 4475W        W70884  43.851   4.147  14.503
 4476W        W70885   6.784  21.537   4.589
 4477W        W70886   3.213  19.747   0.019
 4478W        W70887  41.779  26.190  14.471
 4479W        W70888   7.230  38.087  11.199
 4480W        W70889  23.242  20.344  14.886
 4481W        W70890  33.772  32.986   2.842
 4482W        W70891  19.061  41.029  12.539
 4483W        W70892  25.992  11.376  12.659
 4484W        W70893  41.965  36.487   3.164
 4485W        W70894  41.206  17.716   0.930
 4486W        W70895  21.972  13.050   3.161
 4487W        W70896  38.648  39.409  11.170
 4488W        W70897  43.437   5.910   0.035
 4489W        W70898   5.854  28.076  10.885
 4490W        W70899   4.103  41.942   4.591
 4491W        W70900  19.809  22.867   3.683
 4492W        W70901  10.798  33.189  12.529
 4493W        W70902  37.391   3.953  14.254
 4494W        W70903  24.303  38.839  12.181
 4495W        W70904  17.885   6.468   3.336
 4496W        W70905  11.381  44.212   5.445
 4497W        W70906  17.347   1.435  13.534
 4498W        W70907  44.597  25.284   5.084
 4499W        W70908  18.083  29.667  13.691
 4500W        W70909  39.688  32.548   0.998
 4501W        W70910  15.524  33.387  14.942
 4502W        W70911  17.859  44.901   2.295
 4503W        W70912  38.082  39.707   4.068
 4504W        W70913  38.573   1.501  10.943
 4505W        W70914  38.098   6.276   4.594
 4506W        W70915  33.926  43.453  12.116
 4507W        W70916  16.645   9.427  12.922
 4508W        W70917  16.747  11.125  13.560
 4509W        W70918  30.091  10.139   2.734
 4510W        W70919  39.363  34.723   1.443
 4511W        W70920   8.815   7.855  13.354
 4512W        W70921  17.287  22.631  10.758
 4513W        W70922   6.758  10.176   4.625
 4514W        W70923  23.438  40.999  13.851
 4515W        W70924  22.864  32.961  12.496
 4516W        W70925  33.453  39.346  14.291
 4517W        W70926  41.995   6.262  14.506
 4518W        W70927  29.393  38.059  14.380
 4519W        W70928  31.300  33.550   3.297
 4520W        W70929  35.390  39.878   4.259
 4521W        W70930  28.655  30.336  13.727
 4522W        W70931   1.429  15.904   1.140
 4523W        W70932  26.965  29.528  13.275
 4524W        W70933  27.987  21.322   3.712
 4525W        W70934  40.509  15.260   1.752
 4526W        W70935  24.631  28.711   2.951
 4527W        W70936  44.711  26.476   1.897
 4528W        W70937  10.223  28.230  13.040
 4529W        W70938  29.984  32.952  12.895
 4530W        W70939  40.863  27.453   3.235
 4531W        W70940  32.004   4.896   1.791
 4532W        W70941  26.853  16.575  11.127
 4533W        W70942  12.650  44.717  11.652
 4534W        W70943  22.155  37.538  13.616
 4535W        W70944   2.092   0.384   2.660
 4536W        W70945  37.657  37.777   2.305
 4537W        W70946  40.901  44.802   0.967
 4538W        W70947  33.838  10.157   2.220
 4539W        W70948  22.280  44.175   2.750
 4540W        W70949  43.429  19.296   1.766
 4541W        W70950   8.035  32.405  10.561
 4542W        W70951  12.159   8.671   1.258
 4543W        W70952   1.492   5.910   1.815
 4544W        W70953  41.785  13.028  12.411
 4545W        W70954  29.504  42.089   1.042
 4546W        W70955  30.540   8.945  14.396
 4547W        W70956   1.156  28.416   0.418
 4548W        W70957  10.149  41.452  14.282
 4549W        W70958  36.311  39.107   3.864
 4550W        W70959  16.381  28.691   1.850
 4551W        W70960  27.817  42.876  12.665
 4552W        W70961  39.066  20.796   3.548
 4553W        W70962  28.734  41.753   2.797
 4554W        W70963   6.059  30.638   0.958
 4555W        W70964  39.464  41.050  11.572
 4556W        W70965  32.002  33.516  11.590
 4557W        W70966  17.599   7.407   4.711
 4558W        W70967  35.620  31.717  10.789
 4559W        W70968  36.179  31.603   0.336
 4560W        W70969   9.087   9.027   0.940
 4561W        W70970  21.862  30.530  13.828
 4562W        W70971  20.706  22.630   0.062
 4563W        W70972   9.084   0.796  10.466
 4564W        W70973  15.728   4.927  12.364
 4565W        W70974  18.518  33.970   0.917
 4566W        W70975  16.324  30.058  13.962
 4567W        W70976   1.064  14.584  10.607
 4568W        W70977  37.381  37.287  13.443
 4569W        W70978  42.526  18.278  12.064
 4570W        W70979  40.803   7.630  11.969
 4571W        W70980   8.869  28.682  13.432
 4572W        W70981  21.537  14.262   3.937
 4573W        W70982  13.636  33.513   2.406
 4574W        W70983   1.398  27.423   4.335
 4575W        W70984  42.864  29.223   0.437
 4576W        W70985  13.152  28.129  12.344
 4577W        W70986   5.282  38.553   1.986
 4578W        W70987   6.727  40.002  11.576
 4579W        W70988  27.059  14.735   4.977
 4580W        W70989  17.690  40.451   3.849
 4581W        W70990  31.102  21.697   2.147
 4582W        W70991  31.194  44.834   3.210
 4583W        W70992  28.479  33.375  11.068
 4584W        W70993  21.400  33.521   0.217
 4585W        W70994   6.351  18.218  12.543
 4586W        W70995  16.320  42.549   2.636
 4587W        W70996  35.564  37.899  13.242
 4588W        W70997  30.753  11.001   3.743
 4589W        W70998  17.587   5.293  12.422
 4590W        W70999   4.405  38.512  14.344
 4591W        W71000  40.070  12.753  11.182
 4592W        W71001  29.170  31.336  12.976
 4593W        W71002  41.352  16.841  14.961
 4594W        W71003  12.692   4.496   4.324
 4595W        W71004   4.287  13.294  12.858
 4596W        W71005  15.502  15.605   2.646
 4597W        W71006  15.274   5.003  10.506
 4598W        W71007  19.133  43.437   4.638
 4599W        W71008  24.675   9.357   1.353
 4600W        W71009  35.917   7.901  13.580
 4601W        W71010  13.829  25.288   2.912
 4602W        W71011   6.620  36.450   4.415
 4603W        W71012  37.988  38.713   0.315
 4604W        W71013  32.698  33.874   0.033
 4605W        W71014  33.943  11.570  14.430
 4606W        W71015   5.387  36.029  11.401
 4607W        W71016  10.677   5.895   4.169
 4608W        W71017  26.741   2.658   2.536
 4609W        W71018   5.802   3.517  10.602
 4610W        W71019  11.340   8.381   0.019
 4611W        W71020  20.197  35.314   0.918
 4612W        W71021   7.959  10.651   2.351
 4613W        W71022  12.654  35.580  13.697
 4614W        W71023   3.284   9.171  14.911
 4615W        W71024  33.983  38.113  11.573
 4616W        W71025   3.791   2.272   4.595
 4617W        W71026  19.077  19.054  13.320
 4618W        W71027  25.358  38.875  12.419
 4619W        W71028  44.986   7.311   0.837
 4620W        W71029  11.259   6.035  12.041
 4621W        W71030  38.887  19.795   0.903
 4622W        W71031   9.721  15.853  10.097
 4623W        W71032   0.818  28.192  14.821
 4624W        W71033  14.633  11.211  10.596
 4625W        W71034   2.854   5.376   1.763
 4626W        W71035  34.181  21.066  11.925
 4627W        W71036  29.694  24.484  13.543
 4628W        W71037  44.429  19.862   3.404
 4629W        W71038  19.078  22.787   4.624
 4630W        W71039  27.481  22.102   1.254
 4631W        W71040  39.938   8.155  12.050
 4632W        W71041   2.720  20.993  13.413
 4633W        W71042  42.216  27.148   2.264
 4634W        W71043   8.219  39.057  14.203
 4635W        W71044   9.251  35.128  12.352
 4636W        W71045   4.148  14.051  12.117
 4637W        W71046  29.607  39.023   1.771
 4638W        W71047  27.474  20.672  14.504
 4639W        W71048   3.487  41.442   1.450
 4640W        W71049  23.568  44.059   3.558
 4641W        W71050  24.147   5.715   2.238
 4642W        W71051   1.158  13.661   1.459
 4643W        W71052  18.542  25.647   4.815
 4644W        W71053  25.042  32.144   4.191
 4645W        W71054  30.774   5.815   1.416
 4646W        W71055  35.338  27.086   0.950
 4647W        W71056   4.440  16.279   1.513
 4648W        W71057  26.938  20.254   3.181
 4649W        W71058  26.116  43.082   3.737
 4650W        W71059  27.014   0.857  10.552
 4651W        W71060  22.297   4.388   3.426
 4652W        W71061   2.532   9.883  12.642
 4653W        W71062  43.961  42.124   1.996
 4654W        W71063  27.217  25.164   0.289
 4655W        W71064  29.939  39.480   1.783
 4656W        W71065  34.905  29.036  14.668
 4657W        W71066  31.065  10.079  11.135
 4658W        W71067  36.830  29.211   3.665
 4659W        W71068  44.363  36.933  14.864
 4660W        W71069   9.468  24.508   0.424
 4661W        W71070  16.785  40.462  14.498
 4662W        W71071  29.052   1.005   2.577
 4663W        W71072   6.170  34.028   0.924
 4664W        W71073  15.236  42.537   0.917
 4665W        W71074  40.997  16.341   1.449
 4666W        W71075   7.732  36.549  11.602
 4667W        W71076  16.669  41.766   3.152
 4668W        W71077  12.636  23.705  10.669
 4669W        W71078  32.156   8.902  12.096
 4670W        W71079   4.753  37.892   1.337
 4671W        W71080  29.890  13.536  12.906
 4672W        W71081  17.085  31.960   2.371
 4673W        W71082  21.645  42.937  14.398
 4674W        W71083  31.121  35.413   4.113
 4675W        W71084   9.719  43.103  11.956
 4676W        W71085  37.269  35.621  11.184
 4677W        W71086   6.419   0.252  14.283
 4678W        W71087  40.557  43.828   3.575
 4679W        W71088  32.488  40.411   3.122
 4680W        W71089   7.609  32.455  13.282
 4681W        W71090   3.290  32.576   2.528
 4682W        W71091   1.933  42.694   2.868
 4683W        W71092  26.062  14.203   3.845
 4684W        W71093  30.024  41.504  14.337
 4685W        W71094   0.002  33.918   4.239
 4686W        W71095  20.753  43.632  12.040
 4687W        W71096  32.011   2.907  14.381
 4688W        W71097  28.736  32.161   1.166
 4689W        W71098   5.242  34.003  11.765
 4690W        W71099  28.741  29.299   2.342
 4691W        W71100  15.388  38.601  14.426
 4692W        W71101  29.420  18.748  11.144
 4693W        W71102  20.319  36.779   0.305
 4694W        W71103   9.449  35.004  10.999
 4695W        W71104  30.134  19.727  13.288
 4696W        W71105   9.656  24.583  13.146
 4697W        W71106  25.579  39.482  11.816
 4698W        W71107   9.050  13.724  11.725
 4699W        W71108  25.972  37.493  13.141
 4700W        W71109  14.739  43.383  11.054
 4701W        W71110  17.598  27.736   1.822
 4702W        W71111   1.194   0.866  12.921
 4703W        W71112  15.739  29.808  10.038
 4704W        W71113  14.391  43.397  11.479
 4705W        W71114  33.152  31.457  13.797
 4706W        W71115  27.079  33.424   4.201
 4707W        W71116   4.707   8.458  10.094
 4708W        W71117  15.169  12.601   2.659
 4709W        W71118  23.258  44.860  14.065
 4710W        W71119  22.081   5.480   2.858
 4711W        W71120   2.423  43.369   1.222
 4712W        W71121  21.238  25.649  14.951
 4713W        W71122   9.647   7.771  11.754
 4714W        W71123  40.512  42.315   1.230
 4715W        W71124  19.196   8.742  12.552
 4716W        W71125  35.037  36.863  13.877
 4717W        W71126   3.988  26.098   4.263
 4718W        W71127  28.002  22.228   1.278
 4719W        W71128  44.520  13.802   2.182
 4720W        W71129   9.610   5.778   0.350
 4721W        W71130   2.417  36.925   2.918
 4722W        W71131  10.671  12.625   0.308
 4723W        W71132  27.110  16.119  14.285
 4724W        W71133  34.969  10.147   2.074
 4725W        W71134  24.667  34.884  11.595
 4726W        W71135  31.393  30.703   0.449
 4727W        W71136  27.966  29.411  14.890
 4728W        W71137  32.035   0.520   0.355
 4729W        W71138  11.124  38.317  11.282
 4730W        W71139  36.581  40.498   2.714
 4731W        W71140  17.808  19.136   1.818
 4732W        W71141  40.900  23.879   2.618
 4733W        W71142  33.881  43.966   4.546
 4734W        W71143   1.312  12.647  12.568
 4735W        W71144  12.077   1.845   3.167
 4736W        W71145  37.674  43.340  11.648
 4737W        W71146  35.033  37.331   1.644
 4738W        W71147  19.527  18.227  13.776
 4739W        W71148  32.308  41.126   3.649
 4740W        W71149   4.367   7.261  14.829
 4741W        W71150  11.318  24.563  10.668
 4742W        W71151   4.674  28.394   2.338
 4743W        W71152  31.136  24.665  13.344
 4744W        W71153  15.611  17.242  12.108
 4745W        W71154  35.576  29.893   1.784
 4746W        W71155  19.314  11.713   2.478
 4747W        W71156  24.672  37.313   1.358
 4748W        W71157  24.019  23.842  14.080
 4749W        W71158  40.045  15.874   3.760
 4750W        W71159  39.103  21.194   2.761
 4751W        W71160  44.978  33.578  10.812
 4752W        W71161  40.477  12.140   3.154
 4753W        W71162  15.753  41.701  14.005
 4754W        W71163  39.944   5.440   4.001
 4755W        W71164  35.994  27.646   2.464
 4756W        W71165   0.826  39.001   1.827
 4757W        W71166  11.082  30.163  10.639
 4758W        W71167  22.141  26.004   0.065
 4759W        W71168  29.884   9.235  10.740
 4760W        W71169  20.717  12.728  14.399
 4761W        W71170  44.403  28.924  11.964
 4762W        W71171  33.554  44.993  12.720
 4763W        W71172  25.515  16.867  11.909
 4764W        W71173  42.948   8.604   0.383
 4765W        W71174  27.185  39.149   4.877
 4766W        W71175   8.740  12.664  10.846
 4767W        W71176   7.669  32.326  10.192
 4768W        W71177  26.500   1.395  11.211
 4769W        W71178  35.165  21.286  12.690
 4770W        W71179  43.705  23.955  11.604
 4771W        W71180  25.708  19.888   2.665
 4772W        W71181  25.966  15.294   3.373
 4773W        W71182  23.578   6.110   3.604
 4774W        W71183  21.527  19.922   0.383
 4775W        W71184  33.474   5.771  10.101
 4776W        W71185  40.865  16.813  11.204
 4777W        W71186  11.236   3.482  10.608
 4778W        W71187  18.690  22.701  13.370
 4779W        W71188  30.481   0.305  13.415
 4780W        W71189  27.449  25.023   4.328
 4781W        W71190  17.596  28.048  13.726
 4782W        W71191  20.029  32.178  13.894
 4783W        W71192   1.295   0.278   4.701
 4784W        W71193  22.224   0.408   2.242
 4785W        W71194  13.011  15.807   3.095
 4786W        W71195  12.400  37.506  10.159
 4787W        W71196   8.825  15.648  14.556
 4788W        W71197  29.492  23.298   3.756
 4789W        W71198   6.166  41.126  11.590
 4790W        W71199  18.341  20.490   3.579
 4791W        W71200  40.547  29.393   3.156
 4792W        W71201   1.410   8.620   2.869
 4793W        W71202  28.683  26.540   0.488
 4794W        W71203   3.019  19.597   0.481
 4795W        W71204  42.494  19.291  12.986
 4796W        W71205   9.216   2.179   4.127
 4797W        W71206   0.234   1.023  11.186
 4798W        W71207  43.903  11.901   3.767
 4799W        W71208  36.420  20.835   0.216
 4800W        W71209  19.050   6.280   3.857
 4801W        W71210   7.519  33.185   4.839
 4802W        W71211  36.423   0.836   4.431
 4803W        W71212  19.495  41.037   2.479
 4804W        W71213  24.759  37.049  14.080
 4805W        W71214  23.581   3.983   4.353
 4806W        W71215   7.320   5.713  11.054
 4807W        W71216   9.659  20.156   3.276
 4808W        W71217   5.667   4.389   4.160
 4809W        W71218  31.990  34.528  13.479
 4810W        W71219  26.572  14.354   4.001
 4811W        W71220   6.674  21.916   0.891
 4812W        W71221  27.751  14.226  14.382
 4813W        W71222  30.622  12.403  12.935
 4814W        W71223  24.285  20.740   2.901
 4815W        W71224  40.316  25.864  13.555
 4816W        W71225  13.756   7.261   4.770
 4817W        W71226  14.079  43.110   3.591
 4818W        W71227  33.759   4.419  11.227
 4819W        W71228  20.097  12.307  13.329
 4820W        W71229  44.440   2.828   4.438
 4821W        W71230  34.864  30.658  13.375
 4822W        W71231  20.805  28.115   2.290
 4823W        W71232  43.510  32.223  10.785
 4824W        W71233  23.454   3.383   0.451
 4825W        W71234  12.676  28.644   2.386
 4826W        W71235  34.041  34.047  12.337
 4827W        W71236   3.001  20.376  11.354
 4828W        W71237   2.914  12.652   4.216
 4829W        W71238  17.797   0.279  14.909
 4830W        W71239  32.903  44.982  11.543
 4831W        W71240  11.702  40.111  14.028
 4832W        W71241  29.661  19.723   4.466
 4833W        W71242  39.603  16.258  10.689
 4834W        W71243  37.073  32.656   0.275
 4835W        W71244  30.416  34.434  13.626
 4836W        W71245  31.852  15.826  11.061
 4837W        W71246  35.947  10.504  12.821
 4838W        W71247   9.341  32.185   2.349
 4839W        W71248  27.483  15.788  11.903
 4840W        W71249   8.596   9.280  11.522
 4841W        W71250  24.564  22.772   3.733
 4842W        W71251  11.382  24.631   0.385
 4843W        W71252  40.362  12.327   4.565
 4844W        W71253  22.724   5.959  12.573
 4845W        W71254  17.141  41.504  14.900
 4846W        W71255  22.051   9.189   1.973
 4847W        W71256  28.112  42.112  12.922
 4848W        W71257   1.332   2.879   1.649
 4849W        W71258  31.936  11.168   0.479
 4850W        W71259  29.378  42.563   2.239
 4851W        W71260   6.207  11.661  13.466
 4852W        W71261  39.279  36.405  12.461
 4853W        W71262  23.933  26.159   0.306
 4854W        W71263  11.723  11.930  13.121
 4855W        W71264  27.358  33.756  12.513
 4856W        W71265  16.384  12.889   2.742
 4857W        W71266  15.472  30.559  12.471
 4858W        W71267  30.117  35.382   0.994
 4859W        W71268  25.429  33.881   2.664
 4860W        W71269  19.506  13.104   0.036
 4861W        W71270  30.472  42.695   1.375
 4862W        W71271  21.378  24.345  13.806
 4863W        W71272  19.194  26.263   0.290
 4864W        W71273  44.091  44.214  10.662
 4865W        W71274   2.284   3.791   2.160
 4866W        W71275  18.766  32.162  14.965
 4867W        W71276  13.987  31.628   3.571
 4868W        W71277  14.926  32.172   1.189
 4869W        W71278  20.229   9.256  14.835
 4870W        W71279   2.037  29.825  11.561
 4871W        W71280  36.136  34.894   0.905
 4872W        W71281  13.654  39.784  10.630
 4873W        W71282  22.105  12.885  12.605
 4874W        W71283  24.685  26.956  12.094
 4875W        W71284  36.875  29.676   1.980
 4876W        W71285   2.760  39.824  10.815
 4877W        W71286  14.660  12.806   2.757
 4878W        W71287   4.750  20.059   2.783
 4879W        W71288  36.456  28.724  10.670
 4880W        W71289  21.888   8.099  11.044
 4881W        W71290   4.756  42.490   0.462
 4882W        W71291  31.388  39.167   4.138
 4883W        W71292  16.311  43.897   3.879
 4884W        W71293   6.677  22.530   2.211
 4885W        W71294  18.187   5.404   0.830
 4886W        W71295  22.919  26.916   1.717
 4887W        W71296   4.129  31.396   1.724
 4888W        W71297  22.982  28.508  12.169
 4889W        W71298   9.717  11.274  13.923
 4890W        W71299   3.906  16.561  14.044
 4891W        W71300  42.792  44.615  12.799
 4892W        W71301   9.348  23.105   0.410
 4893W        W71302   6.928  13.349   1.141
 4894W        W71303  14.588  17.512   0.018
 4895W        W71304   3.846  10.418  12.106
 4896W        W71305  14.811   7.155   2.703
 4897W        W71306  42.771  24.703   1.702
 4898W        W71307   5.004  20.735   2.420
 4899W        W71308  30.542   9.634   3.656
 4900W        W71309  37.037  13.686  13.588
 4901W        W71310  44.013  17.046   2.785
 4902W        W71311  35.026  40.667   4.653
 4903W        W71312  30.638  35.562   0.197
 4904W        W71313  27.735   6.648   1.971
 4905W        W71314  27.033  33.932   0.725
 4906W        W71315   2.391  42.508   4.540
 4907W        W71316  24.731  16.633   4.909
 4908W        W71317   4.965  36.001  13.049
 4909W        W71318  15.870  35.523  13.084
 4910W        W71319  39.078  32.638  14.275
 4911W        W71320  12.158   5.606  12.529
 4912W        W71321  24.479  17.031   0.141
 4913W        W71322   8.364   5.779  14.481
 4914W        W71323  28.220  14.621  12.530
 4915W        W71324  21.589  38.664  14.559
 4916W        W71325  24.644  31.355  11.597
 4917W        W71326  22.052  24.243  10.663
 4918W        W71327  34.383  34.439   1.251
 4919W        W71328  44.545  13.775   0.699
 4920W        W71329  31.171  28.100  12.886
 4921W        W71330  38.539   3.616  14.743
 4922W        W71331  36.718  20.779   1.179
 4923W        W71332  21.605  12.310   4.625
 4924W        W71333  41.932   6.757   4.033
 4925W        W71334  30.963  14.243   3.336
 4926W        W71335  22.569  26.638  10.794
 4927W        W71336  15.723  19.464  14.843
 4928W        W71337  25.764  40.378   2.908
 4929W        W71338  10.887  41.140  10.679
 4930W        W71339  35.561  28.033  10.755
 4931W        W71340  26.459   9.594  14.745
 4932W        W71341  32.508  40.625  11.396
 4933W        W71342  42.496  43.985  14.510
 4934W        W71343  20.364  38.842  10.212
 4935W        W71344  34.551  41.855  13.062
 4936W        W71345  20.368  13.840  10.925
 4937W        W71346   4.323   2.993  10.607
 4938W        W71347  30.317  44.505  12.112
 4939W        W71348  18.566  41.945  10.885
 4940W        W71349  29.395  18.456  12.462
 4941W        W71350   5.250  30.191  14.485
 4942W        W71351  26.646  25.688  10.946
 4943W        W71352  39.919   9.801  11.007
 4944W        W71353  15.289  43.512  13.642
 4945W        W71354  23.962   5.965  10.762
 4946W        W71355  21.069  11.316  10.781
 4947W        W71356   5.281  13.577   2.420
 4948W        W71357  36.416   9.813  13.981
 4949W        W71358  35.986  42.764  12.471
 4950W        W71359  44.207  13.337  14.470
 4951W        W71360   7.003  29.024   2.401
 4952W        W71361   3.175  32.204  14.398
 4953W        W71362  11.188  25.792  12.542
 4954W        W71363  24.774  17.928  14.752
 4955W        W71364  43.468  16.488   4.817
 4956W        W71365  40.271  38.845   1.624
 4957W        W71366   4.444  36.900  12.999
 4958W        W71367  39.658   5.270   3.601
 4959W        W71368   0.443  29.686  12.462
 4960W        W71369  26.817  29.536   2.237
 4961W        W71370  13.606   5.983   4.434
 4962W        W71371  22.109   2.146   1.364
 4963W        W71372  18.978   3.645   0.002
 4964W        W71373  31.525   1.432   0.030
 4965W        W71374   6.169  24.474  12.938
 4966W        W71375  29.890  19.136   4.619
 4967W        W71376  30.736  38.653   1.765
 4968W        W71377  31.644  23.710  14.815
 4969W        W71378  18.776  12.076   1.875
 4970W        W71379  34.620  19.550   1.817
 4971W        W71380   6.105  32.533   4.504
 4972W        W71381  42.240  21.352  11.685
 4973W        W71382   4.914  15.216   3.304
 4974W        W71383   2.970  17.734  14.590
 4975W        W71384  13.795  15.586   3.231
 4976W        W71385  20.979   8.740  14.923
 4977W        W71386  22.132  34.423  13.062
 4978W        W71387  24.202  37.691  12.347
 4979W        W71388   9.253  23.460  12.412
 4980W        W71389   4.453  12.896  10.669
 4981W        W71390  42.982  25.032  11.182
 4982W        W71391  42.825  10.239  14.416
 4983W        W71392  38.657   9.621  13.523
 4984W        W71393   8.385   3.319   2.681
 4985W        W71394  39.513  35.035   1.016
 4986W        W71395   6.538   0.612  10.324
 4987W        W71396   2.980  29.905  12.246
 4988W        W71397  10.580  36.536   2.644
 4989W        W71398  33.984  36.559  12.496
 4990W        W71399   3.820  28.693   0.827
 4991W        W71400   0.745  39.463   2.908
 4992W        W71401  23.959  30.681   1.441
 4993W        W71402   8.703  35.906  14.811
 4994W        W71403  40.147  17.347   2.288
 4995W        W71404  16.443   1.789   2.068
 4996W        W71405  22.098  11.800   1.528
 4997W        W71406  22.254  27.235   2.249
 4998W        W71407  13.890  11.169   1.232
 4999W        W71408  26.467  10.316   0.905
 5000W        W71409  15.488  23.069   3.682
 5001W        W71410  39.778   3.408  10.905
 5002W        W71411  19.784  30.304   1.813
 5003W        W71412  10.412  13.749  12.955
 5004W        W71413  16.772   5.716  14.727
 5005W        W71414   6.796   9.906   2.360
 5006W        W71415  14.100  34.072   1.643
 5007W        W71416   1.247  41.232   2.377
 5008W        W71417  38.987   3.005   2.928
 5009W        W71418  19.183  39.482   1.089
 5010W        W71419  13.578  37.585  13.244
 5011W        W71420  29.147  37.763   2.732
 5012W        W71421  29.609   5.185  11.535
 5013W        W71422  15.600  43.789  11.166
 5014W        W71423  25.563  15.284  13.571
 5015W        W71424  26.952  27.740  13.892
 5016W        W71425  44.209  44.628   5.076
 5017W        W71426   8.209  28.088  10.886
 5018W        W71427   5.261  22.078   3.608
 5019W        W71428  26.111  40.126   4.100
 5020W        W71429  16.386  22.512  13.555
 5021W        W71430   4.321  40.081  14.354
 5022W        W71431  36.902   4.408   3.274
 5023W        W71432  31.345   7.641   4.169
 5024W        W71433  27.634  16.625  11.637
 5025W        W71434  23.677  27.669  14.143
 5026W        W71435  19.798   5.926  13.037
 5027W        W71436  23.098  17.289  13.884
 5028W        W71437  20.593   3.244  12.647
 5029W        W71438   8.171  11.098   4.795
 5030W        W71439  27.396  37.801  14.634
 5031W        W71440   7.420  20.762   0.244
 5032W        W71441  15.798  39.591   0.352
 5033W        W71442  20.071  28.445  14.346
 5034W        W71443  14.839  30.845   2.256
 5035W        W71444  40.438  40.190  13.767
 5036W        W71445  38.584   4.941   2.422
 5037W        W71446  37.288  37.839   0.492
 5038W        W71447  13.080  17.841   4.517
 5039W        W71448  16.637  33.971   0.003
 5040W        W71449  25.377  17.785   0.718
 5041W        W71450  32.107  37.394  11.113
 5042W        W71451   4.432  23.962   3.137
 5043W        W71452  17.630  32.558  10.968
 5044W        W71453  28.264  39.859   0.194
 5045W        W71454  33.960  44.478  13.960
 5046W        W71455  17.727   4.271   1.467
 5047W        W71456  21.226  37.853   0.458
 5048W        W71457  34.028  38.637   1.228
 5049W        W71458  11.977   3.209   9.783
 5050W        W71459  16.206  30.922   2.413
 5051W        W71460  33.101   6.142   0.418
 5052W        W71461   7.782  37.469   0.486
 5053W        W71462   4.632  44.817   4.570
 5054W        W71463  16.141  26.699  14.944
 5055W        W71464  13.261  43.010  13.593
 5056W        W71465  36.556   3.373  11.682
 5057W        W71466  26.094   0.241   1.256
 5058W        W71467  20.525   3.997  11.537
 5059W        W71468   7.833  13.279   0.796
 5060W        W71469  42.665  10.821  12.448
 5061W        W71470   9.751  25.639  10.053
 5062W        W71471   1.355   2.709   0.251
 5063W        W71472  30.125  34.112  12.394
 5064W        W71473   6.365  17.215   0.327
 5065W        W71474  21.339  41.850  13.634
 5066W        W71475   6.913   9.376   1.285
 5067W        W71476  35.539  36.312   1.121
 5068W        W71477   4.301  27.970  11.085
 5069W        W71478  25.112  21.392  12.116
 5070W        W71479   4.455  44.083   4.997
 5071W        W71480  21.357  17.332   0.468
 5072W        W71481  37.798  10.601  11.107
 5073W        W71482  16.699  27.566   2.089
 5074W        W71483  23.238  39.538   4.081
 5075W        W71484  23.592   0.554   2.509
 5076W        W71485   1.946   5.732  12.819
 5077W        W71486  36.439   9.214   3.852
 5078W        W71487  30.016   4.990  13.969
 5079W        W71488  38.511  43.881  12.884
 5080W        W71489   6.932   2.428  12.575
 5081W        W71490  31.178   9.228  13.954
 5082W        W71491   3.259  29.270  14.020
 5083W        W71492  12.612  24.458   4.021
 5084W        W71493  18.242  33.447   1.082
 5085W        W71494  13.634   3.776   3.820
 5086W        W71495  17.189   8.803  11.556
 5087W        W71496  23.729  32.620   0.000
 5088W        W71497   3.071  15.084  13.968
 5089W        W71498  24.738  14.570  11.614
 5090W        W71499  42.079   8.720  12.119
 5091W        W71500  14.670  32.861  14.927
 5092W        W71501  32.170  20.678   4.004
 5093W        W71502  19.073  10.939  12.911
 5094W        W71503  15.368   3.948  14.563
 5095W        W71504   0.101  17.056  12.255
 5096W        W71505  23.704  29.542   3.644
 5097W        W71506  20.051   2.969   4.160
 5098W        W71507   8.789  11.745   4.597
 5099W        W71508  26.093  23.702  11.556
 5100W        W71509  33.420  15.099   0.495
 5101W        W71510  33.594  37.885   3.216
 5102W        W71511  35.196  14.676   1.809
 5103W        W71512  24.413  40.230   1.797
 5104W        W71513  43.551   5.926   1.860
 5105W        W71514  13.101  25.098  13.287
 5106W        W71515  38.358  32.565  11.142
 5107W        W71516  19.406  10.727  12.377
 5108W        W71517  43.506  22.651  11.289
 5109W        W71518  32.494  24.962  14.013
 5110W        W71519  26.061  28.208   0.932
 5111W        W71520   4.930   0.235   4.567
 5112W        W71521   1.957  28.574   3.254
 5113W        W71522  26.207  22.977  11.250
 5114W        W71523  37.574   7.295   2.379
 5115W        W71524  31.890  39.729   1.706
 5116W        W71525   5.689   5.753  11.048
 5117W        W71526   7.361  27.979  14.920
 5118W        W71527  25.669  29.612  11.310
 5119W        W71528   3.858  15.833   1.832
 5120W        W71529   0.919   0.209  12.421
 5121W        W71530  12.281  16.304  11.960
 5122W        W71531  25.494   4.446  14.426
 5123W        W71532  14.330  34.962   3.648
 5124W        W71533  18.730   6.135  12.565
 5125W        W71534  28.087  27.435  12.832
 5126W        W71535   5.709  43.864  12.861
 5127W        W71536  15.507  33.172   1.454
 5128W        W71537  20.307  29.941  12.617
 5129W        W71538  31.968  27.112  10.710
 5130W        W71539  22.558  31.055   3.204
 5131W        W71540   7.846  35.046  12.584
 5132W        W71541  17.377  22.832  14.112
 5133W        W71542  41.259  18.072   2.200
 5134W        W71543  19.622  16.159  10.891
 5135W        W71544  40.000  19.542  11.064
 5136W        W71545  12.351  25.688  12.840
 5137W        W71546  34.563   8.858  10.771
 5138W        W71547  13.899   6.796  10.663
 5139W        W71548   7.704   9.952  13.971
 5140W        W71549  42.385  24.026   1.647
 5141W        W71550  13.788  31.208  11.744
 5142W        W71551  12.364  34.060   0.737
 5143W        W71552  30.949   2.258   9.820
 5144W        W71553  39.168  31.687  13.465
 5145W        W71554  37.061  25.724   4.147
 5146W        W71555   3.859   9.006  13.301
 5147W        W71556   9.389   5.416   3.625
 5148W        W71557  34.229   2.328   3.999
 5149W        W71558  22.770  33.587  11.162
 5150W        W71559  35.799  40.453   2.141
 5151W        W71560  13.744  31.293   3.255
 5152W        W71561  14.110  31.553  14.853
 5153W        W71562  15.519  27.549   2.338
 5154W        W71563  39.934   9.739   3.864
 5155W        W71564  21.157  38.597  13.731
 5156W        W71565  31.650  22.490   4.064
 5157W        W71566  41.384  28.142  14.759
 5158W        W71567  29.162  11.427   1.407
 5159W        W71568   9.290   8.816   1.379
 5160W        W71569   9.692  39.012  10.445
 5161W        W71570  16.809  40.315   3.751
 5162W        W71571  16.164   0.896  13.480
 5163W        W71572  30.080  21.697   4.868
 5164W        W71573  43.442  33.929  14.845
 5165W        W71574  12.122   6.160  13.456
 5166W        W71575   4.885   1.585  11.191
 5167W        W71576  44.711  20.737  11.617
 5168W        W71577  11.626   9.932   3.762
 5169W        W71578  26.914   8.184  13.082
 5170W        W71579  40.408  42.063   4.624
 5171W        W71580  13.500  30.395   3.302
 5172W        W71581   7.523  25.541   0.054
 5173W        W71582  27.678  21.264   4.247
 5174W        W71583   9.387  24.316   1.807
 5175W        W71584  15.100  39.824   4.168
 5176W        W71585   0.863  42.782  14.500
 5177W        W71586  35.605  39.829   1.758
 5178W        W71587  35.329  24.774   0.766
 5179W        W71588   5.312   9.151  13.848
 5180W        W71589  37.100  38.440   1.217
 5181W        W71590  39.521  20.754   2.124
 5182W        W71591  20.601  11.807  12.797
 5183W        W71592  29.485   1.056   4.454
 5184W        W71593  43.065  10.791   4.492
 5185W        W71594  24.319   3.752   0.453
 5186W        W71595  37.429   0.971   4.112
 5187W        W71596  37.876  31.009   2.339
 5188W        W71597  19.884  44.594  13.326
 5189W        W71598   2.795  36.464  13.409
 5190W        W71599  39.983  38.845  14.993
 5191W        W71600   8.175   4.402   4.100
 5192W        W71601  13.823  41.953   4.727
 5193W        W71602  22.177  33.427   1.359
 5194W        W71603  41.350  37.840  11.846
 5195W        W71604  38.405   3.897  12.910
 5196W        W71605  20.074  33.478  11.280
 5197W        W71606  14.233   6.954  12.373
 5198W        W71607  18.738  33.393   2.794
 5199W        W71608  37.808  25.013   4.601
 5200W        W71609  43.818  36.134   4.406
 5201W        W71610  36.502  35.018  14.702
 5202W        W71611   4.266  33.488  13.850
 5203W        W71612  42.402  35.172  13.969
 5204W        W71613   7.729  39.228   3.712
 5205W        W71614   9.434   1.807   0.395
 5206W        W71615  38.805   1.389   0.840
 5207W        W71616  44.925  11.724  14.436
 5208W        W71617   0.255  15.705   2.660
 5209W        W71618  20.081  13.065   2.950
 5210W        W71619  13.402  27.980  12.768
 5211W        W71620  21.152  40.961  13.278
 5212W        W71621  44.654  26.030  12.524
 5213W        W71622  32.997   2.738  13.368
 5214W        W71623  16.808  42.887  11.571
 5215W        W71624   2.446  29.105  12.634
 5216W        W71625  41.918  43.436   0.954
 5217W        W71626   7.140  44.919   3.660
 5218W        W71627  29.225  34.853  14.951
 5219W        W71628   3.207  32.898   1.166
 5220W        W71629  36.404  17.019  14.984
 5221W        W71630  13.142  28.261  13.785
 5222W        W71631   6.710   3.236  10.636
 5223W        W71632  24.250   4.769  10.729
 5224W        W71633  26.621   1.046  13.510
 5225W        W71634  20.415  19.666   1.225
 5226W        W71635  22.074   4.823   3.110
 5227W        W71636  15.955  41.051   5.422
 5228W        W71637  18.773  22.790  11.691
 5229W        W71638   7.145  41.308  12.547
 5230W        W71639   6.715  22.252  14.423
 5231W        W71640  27.291  25.428   4.027
 5232W        W71641   8.983  23.691  14.144
 5233W        W71642  17.574  22.673   4.777
 5234W        W71643  33.664  27.881   0.900
 5235W        W71644  18.183  13.781   3.314
 5236W        W71645  24.650  36.937  13.196
 5237W        W71646  12.747   2.598   1.729
 5238W        W71647   3.280  13.190   2.390
 5239W        W71648   0.417  35.202   4.200
 5240W        W71649  33.646  26.139   0.410
 5241W        W71650  17.543  19.164   2.248
 5242W        W71651  41.660  14.774   3.997
 5243W        W71652  45.000  10.418  14.250
 5244W        W71653   5.234  25.689  12.346
 5245W        W71654  24.208  42.359   0.176
 5246W        W71655   2.203   2.492  14.994
 5247W        W71656   2.484  37.267  14.098
 5248W        W71657  12.126  12.850   2.719
 5249W        W71658  20.051  29.968   4.850
 5250W        W71659   1.829  28.857  14.252
 5251W        W71660  32.917  14.169   3.737
 5252W        W71661  17.819  31.874  11.653
 5253W        W71662   6.769  13.159  12.978
 5254W        W71663  10.465   8.637  12.858
 5255W        W71664  21.764  26.101  11.072
 5256W        W71665   3.658  25.105   3.776
 5257W        W71666  34.786  10.608   0.424
 5258W        W71667  23.942  22.944   0.452
 5259W        W71668  21.402  32.396  12.063
 5260W        W71669   7.983  22.638   4.520
 5261W        W71670  43.842  26.005   2.803
 5262W        W71671   8.138  22.601   2.345
 5263W        W71672  13.868   2.543  11.550
 5264W        W71673   6.899   1.281   1.842
 5265W        W71674  13.587  43.903   1.288
 5266W        W71675   1.028  22.779  11.399
 5267W        W71676   9.309  15.683  14.353
 5268W        W71677  38.753  42.474   4.589
 5269W        W71678   6.787  29.696  11.481
 5270W        W71679  19.364   6.172  12.129
 5271W        W71680  17.121  18.024  13.133
 5272W        W71681  30.139  39.935  14.644
 5273W        W71682   6.429  20.706  11.108
 5274W        W71683   4.255  11.830   3.398
 5275W        W71684  15.641  16.837  13.400
 5276W        W71685  12.106   8.167   3.716
 5277W        W71686  15.643  23.439   3.196
 5278W        W71687  19.746  34.010   0.350
 5279W        W71688  43.487  34.445  11.067
 5280W        W71689   9.220  29.547  14.193
 5281W        W71690  11.235  24.968  12.010
 5282W        W71691   7.764   8.809  14.214
 5283W        W71692  23.586   4.175   1.836
 5284W        W71693  40.647  11.757  10.650
 5285W        W71694  41.803  43.382   0.461
 5286W        W71695  31.756  36.395   3.277
 5287W        W71696  39.319  20.510  14.339
 5288W        W71697  13.791  30.932   2.291
 5289W        W71698  36.274  20.950   2.427
 5290W        W71699  42.969  30.324   3.568
 5291W        W71700  27.724  10.137  12.348
 5292W        W71701  33.134   9.946   0.751
 5293W        W71702  20.069  34.398   3.319
 5294W        W71703  29.110  34.134   0.799
 5295W        W71704  43.339   6.440  11.532
 5296W        W71705   4.906  10.410   2.612
 5297W        W71706   7.369  39.937  13.391
 5298W        W71707  28.464  16.630   4.123
 5299W        W71708   3.927   5.035   0.846
 5300W        W71709  28.459  42.058  12.507
 5301W        W71710  17.077  16.857  13.586
 5302W        W71711  36.478  12.304  13.842
 5303W        W71712   6.118   6.540  11.150
 5304W        W71713   2.819  32.926  12.167
 5305W        W71714  11.100  23.546  14.965
 5306W        W71715  36.537  31.631  12.014
 5307W        W71716  42.545  25.466  14.526
 5308W        W71717  19.025  31.355   0.272
 5309W        W71718  26.253  42.933  11.135
 5310W        W71719  28.432  21.051   3.644
 5311W        W71720  27.926  12.416   0.465
 5312W        W71721  33.555  19.677   3.356
 5313W        W71722  17.634  21.032   0.245
 5314W        W71723  26.002  37.554  14.483
 5315W        W71724   9.227  41.745   9.843
 5316W        W71725  37.005  21.599   4.526
 5317W        W71726  34.369  36.872  11.150
 5318W        W71727   4.103  37.197   3.531
 5319W        W71728  17.207  14.139   2.616
 5320W        W71729   6.932  14.126  14.937
 5321W        W71730   8.160  20.742  14.542
 5322W        W71731  24.147  15.372   0.283
 5323W        W71732  14.616  39.533   2.104
 5324W        W71733  29.879  32.049   0.368
 5325W        W71734  13.319  10.738  10.378
 5326W        W71735   8.342  38.065   2.823
 5327W        W71736  30.600  28.184   2.302
 5328W        W71737  34.977  31.890   3.187
 5329W        W71738   1.967  44.984   3.702
 5330W        W71739  13.133  43.110  10.604
 5331W        W71740  32.141  28.608  12.106
 5332W        W71741  18.997   3.790   1.387
 5333W        W71742  27.618  44.429   1.350
 5334W        W71743  20.476  32.432   2.521
 5335W        W71744  22.677   4.662  13.686
 5336W        W71745  43.080  44.911   4.064
 5337W        W71746   2.945  31.364  12.181
 5338W        W71747  16.105  29.205   1.005
 5339W        W71748  24.408   0.938   4.405
 5340W        W71749  38.972  22.165  12.904
 5341W        W71750  25.179  33.073  14.440
 5342W        W71751   1.835  42.068   1.601
 5343W        W71752  44.303  26.695  10.081
 5344W        W71753  16.187  13.605   3.497
 5345W        W71754  20.068  32.611  13.620
 5346W        W71755   3.213  29.023   1.997
 5347W        W71756   4.878  44.160  14.490
 5348W        W71757  44.727  41.288   3.210
 5349W        W71758  12.039  11.636  13.954
 5350W        W71759  19.610  11.877   1.644
 5351W        W71760  12.648  25.948  10.703
 5352W        W71761   5.878  25.792   2.115
 5353W        W71762  13.780  14.035  13.004
 5354W        W71763  24.249  35.064  10.972
 5355W        W71764  40.010   1.942  13.412
 5356W        W71765  32.814   1.274   2.816
 5357W        W71766  23.244  21.503   4.066
 5358W        W71767  19.519   6.084  13.508
 5359W        W71768   0.447   8.351  11.449
 5360W        W71769  21.125   5.207  13.471
 5361W        W71770  32.620  17.205  10.649
 5362W        W71771   0.671  10.389   3.213
 5363W        W71772  12.293   1.009   0.805
 5364W        W71773  36.965  13.062   3.221
 5365W        W71774  33.625  40.389  10.523
 5366W        W71775  35.299  39.521   0.300
 5367W        W71776  40.981   1.578  12.524
 5368W        W71777  24.811  36.303   1.689
 5369W        W71778   6.848  41.298  13.899
 5370W        W71779  25.455  34.613  11.219
 5371W        W71780  34.102   6.869   1.161
 5372W        W71781   5.792   1.036  12.121
 5373W        W71782  37.083  37.399   0.724
 5374W        W71783  27.085  27.759  11.186
 5375W        W71784  15.932  28.198  14.324
 5376W        W71785  35.887  23.978  12.163
 5377W        W71786  22.248  40.612   3.782
 5378W        W71787  15.695  17.026  14.368
 5379W        W71788   3.408  16.657   9.705
 5380W        W71789  43.792  24.704  11.146
 5381W        W71790  42.321  15.832   1.022
 5382W        W71791  35.984  20.098  10.178
 5383W        W71792  31.994  40.657  13.956
 5384W        W71793  26.095  16.341  13.820
 5385W        W71794  32.158  42.089  11.854
 5386W        W71795  32.284  44.211  13.359
 5387W        W71796  30.646   5.996  10.200
 5388W        W71797  15.550  22.578   0.666
 5389W        W71798  13.363  17.492  12.547
 5390W        W71799  32.439   8.735   4.465
 5391W        W71800   8.931  16.315   2.695
 5392W        W71801   2.780   3.717   3.307
 5393W        W71802   7.981  18.560   4.241
 5394W        W71803  29.394  14.264   2.806
 5395W        W71804  28.126  26.866   1.376
 5396W        W71805  23.984  11.811   3.657
 5397W        W71806  29.811   2.892  13.300
 5398W        W71807  12.683   5.782  12.623
 5399W        W71808  36.519  25.980   2.617
 5400W        W71809   3.662  42.027  10.781
 5401W        W71810  35.441  16.757  14.011
 5402W        W71811   0.257  19.875  11.455
 5403W        W71812  30.038  16.848   1.955
 5404W        W71813  33.421   5.682   3.671
 5405W        W71814   2.413  35.086  14.379
 5406W        W71815  34.932  23.219   1.772
 5407W        W71816  12.661  10.288   3.251
 5408W        W71817  22.609  20.772  11.065
 5409W        W71818   6.688  41.059  11.607
 5410W        W71819  21.695  43.001   0.519
 5411W        W71820  39.115  14.781  13.957
 5412W        W71821  43.701  13.211  14.401
 5413W        W71822  14.652  36.430  13.829
 5414W        W71823  36.031  16.089   2.147
 5415W        W71824  11.318  26.757  11.369
 5416W        W71825  34.845   2.037  14.357
 5417W        W71826  43.996  41.139  10.800
 5418W        W71827   2.431  37.289   1.434
 5419W        W71828  17.250  41.011   0.771
 5420W        W71829  38.599  35.350  13.468
 5421W        W71830  36.017  12.028  13.895
 5422W        W71831  14.771  35.363   0.966
 5423W        W71832   2.274  37.686   3.239
 5424W        W71833  18.728  19.236   1.797
 5425W        W71834   5.805   8.743   5.015
 5426W        W71835  12.074  42.878  12.621
 5427W        W71836   5.271  15.258   2.783
 5428W        W71837  17.681  28.074  12.400
 5429W        W71838  28.552  10.236   4.472
 5430W        W71839   3.862  14.815  12.581
 5431W        W71840  27.894  27.326   2.723
 5432W        W71841   5.537  19.674   0.611
 5433W        W71842  41.925  12.181  12.807
 5434W        W71843  30.172  12.719   0.990
 5435W        W71844   0.786  28.950   3.579
 5436W        W71845  24.194  18.139   4.578
 5437W        W71846  23.736   5.386   2.339
 5438W        W71847   1.270  17.611  13.923
 5439W        W71848   5.880   6.801   0.275
 5440W        W71849  19.498  33.010   4.087
 5441W        W71850  43.112   1.169  11.118
 5442W        W71851  13.684  10.724  13.395
 5443W        W71852  29.717   3.410   2.740
 5444W        W71853   8.413   1.426  14.780
 5445W        W71854  11.958   4.826  10.431
 5446W        W71855   0.409  38.584  14.739
 5447W        W71856  31.428  42.078  12.593
 5448W        W71857  42.623  22.720  10.922
 5449W        W71858  10.552   5.333   1.737
 5450W        W71859  41.048  19.608  13.101
 5451W        W71860  15.755  15.709  10.605
 5452W        W71861  14.675  17.236  11.667
 5453W        W71862  23.281  23.923   3.913
 5454W        W71863  28.543  20.267   2.607
 5455W        W71864  20.701  44.086   4.661
 5456W        W71865   6.809  26.539  13.383
 5457W        W71866  17.234   9.675   1.725
 5458W        W71867   6.979  19.485   3.867
 5459W        W71868  31.570  33.486  12.486
 5460W        W71869  27.945  19.280   0.216
 5461W        W71870  44.716  10.070   3.003
 5462W        W71871  36.520  17.024   4.948
 5463W        W71872  33.035  22.056  13.283
 5464W        W71873  35.896  34.491  14.050
 5465W        W71874   8.412  41.822   3.560
 5466W        W71875  28.105   6.539   1.241
 5467W        W71876  20.093  43.525  13.867
 5468W        W71877  44.263  30.579   0.154
 5469W        W71878   8.918  12.053   3.340
 5470W        W71879  36.606  27.660  12.626
 5471W        W71880  34.834  35.297   0.910
 5472W        W71881   3.343  13.065   0.231
 5473W        W71882  38.411  40.886   1.072
 5474W        W71883  14.576  10.343  13.393
 5475W        W71884   5.457   2.724   0.052
 5476W        W71885  30.151   7.662   4.553
 5477W        W71886   8.703   7.337   5.030
 5478W        W71887  30.311  17.656   4.655
 5479W        W71888   8.161  16.782   2.291
 5480W        W71889   8.139   7.885   1.736
 5481W        W71890  12.410  35.676   1.340
 5482W        W71891   0.418  12.072  13.346
 5483W        W71892  22.039  34.333  13.582
 5484W        W71893  28.726  15.075   1.895
 5485W        W71894   7.462  34.802  10.859
 5486W        W71895  29.513  44.739  12.078
 5487W        W71896   3.138   6.982  14.359
 5488W        W71897  38.325  24.443  14.944
 5489W        W71898   7.330  20.894  12.471
 5490W        W71899  26.031  10.689  14.446
 5491W        W71900  17.272  44.767   4.110
 5492W        W71901  19.152   0.439   2.363
 5493W        W71902  13.809   4.385  11.120
 5494W        W71903  39.854   8.132  10.671
 5495W        W71904  17.509  41.561  11.273
 5496W        W71905   2.468  21.237   2.799
 5497W        W71906  13.091  20.223   2.360
 5498W        W71907   6.645  22.249  12.164
 5499W        W71908   6.886  36.444  13.819
 5500W        W71909  43.992   4.004  11.405
 5501W        W71910   0.427  33.770   4.488
 5502W        W71911  37.530  32.513   1.869
 5503W        W71912  26.914  37.987   1.921
 5504W        W71913   2.287   8.945  13.867
 5505W        W71914   5.550  17.623  13.532
 5506W        W71915  41.375  16.736  11.110
 5507W        W71916  22.162   9.766  13.785
 5508W        W71917  26.707  35.932  14.347
 5509W        W71918  27.271   1.645  11.644
 5510W        W71919  13.355   9.838  10.707
 5511W        W71920  10.102  43.361   4.637
 5512W        W71921  14.448  15.631   5.017
 5513W        W71922  19.577  15.235   0.708
 5514W        W71923  31.862  10.918  14.103
 5515W        W71924  22.274  30.986  11.135
 5516W        W71925  22.159  44.879   2.212
 5517W        W71926  27.069  25.283  14.035
 5518W        W71927  28.932  29.953   0.219
 5519W        W71928  20.195  44.163   4.537
 5520W        W71929  19.315   8.762   4.803
 5521W        W71930  24.773  27.038   0.692
 5522W        W71931  26.913  32.597  11.523
 5523W        W71932   3.755  43.347   3.473
 5524W        W71933   5.806   7.000   2.682
 5525W        W71934  23.057  32.774   4.007
 5526W        W71935  31.725  10.692   3.769
 5527W        W71936  27.697  26.034  13.988
 5528W        W71937  31.319  28.065   5.011
 5529W        W71938  38.810  26.970  13.624
 5530W        W71939  38.568  23.050   2.757
 5531W        W71940  27.418  24.432  13.340
 5532W        W71941   4.412  28.827   0.463
 5533W        W71942  28.609  24.375   1.054
 5534W        W71943  29.650  38.478   4.236
 5535W        W71944  40.915   5.164   1.152
 5536W        W71945  13.107  42.742  13.996
 5537W        W71946  40.900  28.637  10.672
 5538W        W71947  19.852  44.216   2.308
 5539W        W71948   8.149  34.996  13.860
 5540W        W71949  16.034  11.170  14.867
 5541W        W71950  33.793  10.698  11.160
 5542W        W71951  24.746   9.074   2.209
 5543W        W71952   5.432  40.123  13.041
 5544W        W71953  29.204   3.867  14.333
 5545W        W71954  42.475  36.393   1.939
 5546W        W71955  41.913  40.416   3.861
 5547W        W71956  33.933   8.664   2.692
 5548W        W71957  32.421  25.696   4.029
 5549W        W71958  10.423  37.038   3.203
 5550W        W71959  10.864  30.388   1.332
 5551W        W71960  36.987  14.623  12.915
 5552W        W71961  40.470  13.382   0.795
 5553W        W71962  24.157  10.108  11.337
 5554W        W71963  17.230   5.661  11.005
 5555W        W71964   2.034  15.318   2.650
 5556W        W71965  10.909  17.809   3.669
 5557W        W71966   8.799  31.717  14.257
 5558W        W71967  41.301   1.009   1.299
 5559W        W71968  18.221  19.316  11.555
 5560W        W71969   5.561   9.446  12.068
 5561W        W71970  20.396  42.155  11.895
 5562W        W71971   4.791  39.932  11.990
 5563W        W71972   3.212  19.886   0.870
 5564W        W71973  33.454  11.861  14.501
 5565W        W71974  28.897  37.940   2.269
 5566W        W71975   3.054  43.346  10.654
 5567W        W71976  10.145  41.531   4.033
 5568W        W71977  24.069  19.833   4.002
 5569W        W71978   2.151  23.173   0.824
 5570W        W71979   7.208  44.888   0.672
 5571W        W71980  31.136  38.435   2.600
 5572W        W71981  38.216  16.021  11.258
 5573W        W71982  26.306  31.446   0.475
 5574W        W71983  32.977  26.074  11.071
 5575W        W71984  16.077  42.963   4.342
 5576W        W71985   7.885   6.940   1.411
 5577W        W71986  31.136  24.245   0.381
 5578W        W71987  28.950  42.333  10.745
 5579W        W71988  24.011  20.976  11.773
 5580W        W71989  23.003  36.389  13.495
 5581W        W71990  14.588  11.842   4.573
 5582W        W71991  19.261   1.492   4.709
 5583W        W71992  24.112  22.084   3.228
 5584W        W71993   8.130  29.869   0.329
 5585W        W71994  30.187  15.569   2.422
 5586W        W71995  20.070  38.527   2.874
 5587W        W71996   5.968  17.825  14.880
 5588W        W71997  31.839  32.006   4.469
 5589W        W71998  33.637  26.225   4.348
 5590W        W71999   7.011   8.129   4.792
 5591W        W72000  28.696   1.148   1.912
 5592W        W72001  22.963  37.467   1.529
 5593W        W72002  33.371  19.802  13.970
 5594W        W72003  41.654  41.843   0.251
 5595W        W72004   3.029  36.890   0.650
 5596W        W72005  39.322  13.090   0.184
 5597W        W72006  26.150  41.424  11.791
 5598W        W72007  18.335  12.380   1.850
 5599W        W72008   1.804   1.685  12.110
 5600W        W72009  17.821   2.861   2.475
 5601W        W72010  27.959   7.465  14.883
 5602W        W72011   8.290   2.270   2.710
 5603W        W72012   8.485  29.942   3.191
 5604W        W72013  40.974  27.910  12.135
 5605W        W72014  31.661  38.758   2.147
 5606W        W72015  30.882  12.610  11.201
 5607W        W72016  20.200   8.299  12.418
 5608W        W72017  42.438  18.176  14.363
 5609W        W72018  38.137  25.245   2.345
 5610W        W72019  24.820   7.035   4.745
 5611W        W72020  11.715  13.816  14.747
 5612W        W72021   4.467  39.319   3.247
 5613W        W72022  19.865   6.020  10.808
 5614W        W72023   0.091  30.731   2.518
 5615W        W72024  15.338  29.185   1.307
 5616W        W72025  44.393  44.522  10.973
 5617W        W72026  38.438  43.365   0.327
 5618W        W72027   9.828  40.752  11.569
 5619W        W72028  19.174   6.901  13.866
 5620W        W72029  25.241  40.848   1.857
 5621W        W72030  37.349  38.544   2.196
 5622W        W72031  19.086  44.524   3.264
 5623W        W72032  42.016  18.240   1.723
 5624W        W72033  21.176  20.273   3.598
 5625W        W72034  12.759  34.615   2.714
 5626W        W72035  41.456  28.005  12.348
 5627W        W72036  30.623  38.391  13.571
 5628W        W72037   3.850   3.340  14.519
 5629W        W72038  35.181  37.994  12.309
 5630W        W72039   0.640   1.483  12.076
 5631W        W72040  11.631  18.932  14.389
 5632W        W72041  34.864   8.943  11.186
 5633W        W72042  14.844  31.852  14.373
 5634W        W72043  34.977  14.720   2.267
 5635W        W72044  19.147  32.493   2.544
 5636W        W72045  28.893  40.444   0.767
 5637W        W72046  30.671  33.736   0.013
 5638W        W72047  33.078   7.733   3.868
 5639W        W72048  28.966   3.003   1.716
 5640W        W72049  17.322   9.299   1.316
 5641W        W72050  20.723  16.576   3.272
 5642W        W72051  41.260  29.062  12.289
 5643W        W72052  32.226  23.268  10.699
 5644W        W72053   8.830  32.073   4.083
 5645W        W72054  29.699   4.162   3.271
 5646W        W72055   0.372  21.116   1.043
 5647W        W72056   8.795  21.572  14.833
 5648W        W72057  11.756  12.425  11.077
 5649W        W72058   7.569  34.347  11.578
 5650W        W72059  27.255   4.636  11.114
 5651W        W72060  15.874  34.450  14.005
 5652W        W72061  42.162  41.511  14.483
 5653W        W72062  19.402  10.405   3.785
 5654W        W72063  29.747  36.139   1.269
 5655W        W72064  19.032  43.154   3.830
 5656W        W72065  41.310  36.353  14.385
 5657W        W72066  39.642  33.500   0.956
 5658W        W72067  34.304  43.941  11.577
 5659W        W72068  40.867  33.095  10.596
 5660W        W72069  19.113  36.093  11.955
 5661W        W72070  39.031  26.540  10.690
 5662W        W72071  30.037  32.373  12.116
 5663W        W72072  40.654  37.464   1.802
 5664W        W72073  41.431  10.053  11.485
 5665W        W72074  36.949  10.875  12.261
 5666W        W72075  39.287  17.081   0.449
 5667W        W72076  26.470  11.628   0.737
 5668W        W72077  39.955  24.032  13.871
 5669W        W72078   5.294  26.564   1.918
 5670W        W72079  19.277  33.297  12.386
 5671W        W72080  29.655  20.676  13.687
 5672W        W72081   3.835  15.081   2.966
 5673W        W72082  26.946  17.284   1.746
 5674W        W72083   3.464  16.832  12.849
 5675W        W72084  25.312  43.633  11.934
 5676W        W72085  26.758  26.044   0.869
 5677W        W72086  22.940   0.845  14.858
 5678W        W72087  41.450  22.574  13.841
 5679W        W72088  38.213  29.356  11.171
 5680W        W72089  21.190  29.109   0.527
 5681W        W72090  19.497  16.283   3.396
 5682W        W72091  33.004  44.855   4.673
 5683W        W72092  24.565  37.119   2.800
 5684W        W72093   0.428  14.541  13.183
 5685W        W72094  33.317   9.791  11.562
 5686W        W72095   3.353  24.964   4.155
 5687W        W72096  29.803  30.009  11.849
 5688W        W72097  36.248  33.554   0.474
 5689W        W72098  36.272  35.645   4.012
 5690W        W72099  40.255  39.686   4.772
 5691W        W72100  33.600  25.282   2.950
 5692W        W72101  31.584  20.040   3.348
 5693W        W72102   9.542  18.520  13.999
 5694W        W72103  44.309  15.945   4.530
 5695W        W72104   6.612  44.021   3.622
 5696W        W72105   7.046   9.491  12.008
 5697W        W72106  31.726  29.378  13.350
 5698W        W72107  25.374  38.005  10.847
 5699W        W72108  40.139  35.954   2.491
 5700W        W72109  31.017  20.332   2.719
 5701W        W72110  29.599   4.891  12.350
 5702W        W72111   1.107  21.610   0.530
 5703W        W72112  11.188  12.682   0.427
 5704W        W72113  41.478   7.604   1.956
 5705W        W72114  13.870  19.702  11.021
 5706W        W72115  22.951  26.076   0.174
 5707W        W72116  37.972  27.103  11.962
 5708W        W72117   7.508  29.820  14.514
 5709W        W72118  16.776  23.897   4.625
 5710W        W72119  37.608   3.406   3.190
 5711W        W72120  29.501  10.681   0.802
 5712W        W72121  33.159  41.998  14.945
 5713W        W72122  44.194  35.563   0.334
 5714W        W72123  25.475  11.553   0.402
 5715W        W72124   2.722  29.629   3.541
 5716W        W72125  14.195  24.991   0.225
 5717W        W72126  36.110  33.993  10.537
 5718W        W72127  16.104  37.948   2.853
 5719W        W72128  16.814  35.071   0.366
 5720W        W72129  21.813  17.661  12.950
 5721W        W72130   8.736  29.385   1.314
 5722W        W72131  32.704   7.285  10.589
 5723W        W72132  13.973   6.249  12.809
 5724W        W72133  43.825  42.355  13.512
 5725W        W72134  23.316  36.747   2.848
 5726W        W72135  39.599  11.637  14.659
 5727W        W72136  11.265  33.361   0.985
 5728W        W72137  40.413  34.035   4.533
 5729W        W72138  16.278  31.921  14.758
 5730W        W72139  13.267  40.995   2.875
 5731W        W72140  38.927  11.868   0.328
 5732W        W72141  30.536  34.533  13.137
 5733W        W72142  39.273  41.575   1.729
 5734W        W72143  40.004   9.854   4.959
 5735W        W72144  43.244   3.852  12.169
 5736W        W72145  42.568  15.634  12.042
 5737W        W72146  21.470  21.435   0.186
 5738W        W72147   8.726  23.047  14.835
 5739W        W72148   6.134   3.085   4.196
 5740W        W72149  32.079   2.876   2.393
 5741W        W72150  14.911  37.505   0.259
 5742W        W72151   4.352  25.462   3.182
 5743W        W72152  18.701   6.486   0.293
 5744W        W72153  32.943  23.027   0.887
 5745W        W72154  14.829   7.609  12.122
 5746W        W72155  25.743   1.297   2.867
 5747W        W72156  28.992  26.418   2.228
 5748W        W72157  28.296  23.320   2.454
 5749W        W72158  41.110  40.162  11.833
 5750W        W72159  29.656  29.804   4.667
 5751W        W72160  24.044  27.168  10.693
 5752W        W72161  24.601  35.080  14.492
 5753W        W72162   5.753  26.921   1.392
 5754W        W72163  43.500  31.364  13.506
 5755W        W72164  22.729  36.902  14.851
 5756W        W72165  12.616  19.696  14.859
 5757W        W72166  43.074  33.510   4.289
 5758W        W72167  42.224  21.224  12.937
 5759W        W72168  18.729  14.336   4.572
 5760W        W72169  15.033   3.352   2.841
 5761W        W72170  18.572  33.013   3.106
 5762W        W72171  12.639  13.206  13.060
 5763W        W72172  25.365  24.536  10.631
 5764W        W72173   3.490  39.973  11.483
 5765W        W72174  44.667   8.901   1.294
 5766W        W72175  10.210  19.614   2.797
 5767W        W72176   8.136  31.971   0.414
 5768W        W72177  40.837   0.794   3.230
 5769W        W72178   3.731  37.759  13.802
 5770W        W72179  33.466  36.094   2.846
 5771W        W72180  35.530   8.316   0.490
 5772W        W72181  40.744   0.269  14.814
 5773W        W72182  27.610  33.366  11.220
 5774W        W72183  23.114   0.234   0.945
 5775W        W72184  44.171  18.255  10.905
 5776W        W72185  39.364  22.241  11.516
 5777W        W72186  27.682  33.663  11.628
 5778W        W72187  16.025  43.585  12.887
 5779W        W72188  20.011  23.616  10.245
 5780W        W72189  40.813  11.284  13.359
 5781W        W72190  35.996  23.623  10.688
 5782W        W72191   8.467  41.231   0.266
 5783W        W72192  33.633  13.307  14.377
 5784W        W72193  37.598   4.036   1.332
 5785W        W72194  13.819   2.913  11.176
 5786W        W72195  19.994  22.243  10.734
 5787W        W72196  35.861   5.795  12.476
 5788W        W72197  37.067  31.133   4.581
 5789W        W72198   3.735   9.921  12.135
 5790W        W72199  43.994  15.632  12.995
 5791W        W72200   2.560  44.166  12.048
 5792W        W72201   0.716   1.854   5.376
 5793W        W72202  32.240  26.048   2.756
 5794W        W72203  12.353  44.451  10.703
 5795W        W72204  32.884   2.360  14.811
 5796W        W72205   4.707  21.539  13.501
 5797W        W72206  40.553   9.605  13.481
 5798W        W72207  23.186   9.820   0.950
 5799W        W72208  34.159  42.842   1.461
 5800W        W72209  38.497  43.336  11.973
 5801W        W72210   4.306  24.892  12.434
 5802W        W72211   5.826  38.104   3.674
 5803W        W72212  34.406  39.563   2.844
 5804W        W72213  23.561  23.640   4.990
 5805W        W72214  15.588   9.265   2.867
 5806W        W72215  30.585  30.855   0.823
 5807W        W72216   8.384  17.831  14.881
 5808W        W72217  21.499   6.834  14.368
 5809W        W72218  30.011  12.218   4.739
 5810W        W72219  35.426  33.993   4.598
 5811W        W72220  14.245   3.219   1.814
 5812W        W72221  11.701   9.434   3.876
 5813W        W72222  42.863  36.262   0.766
 5814W        W72223  25.110  27.148  13.942
 5815W        W72224  27.696  44.920   4.134
 5816W        W72225  40.914  13.431  10.422
 5817W        W72226  43.290  27.963   0.534
 5818W        W72227  32.183   6.908   1.454
 5819W        W72228   3.901  42.202  12.330
 5820W        W72229  26.986  27.176  14.966
 5821W        W72230  43.273   6.838   1.193
 5822W        W72231  28.015  42.271  10.844
 5823W        W72232   1.322  28.778   3.506
 5824W        W72233  21.354  19.958   0.894
 5825W        W72234  32.535   0.416   2.343
 5826W        W72235  25.568  44.506  13.766
 5827W        W72236   3.430  35.216   0.380
 5828W        W72237  18.973  30.330   1.329
 5829W        W72238  39.123  41.372  10.666
 5830W        W72239  44.978  21.275   5.070
 5831W        W72240  37.752  19.310  12.776
 5832W        W72241  22.776  37.129  12.440
 5833W        W72242  24.022   7.382   4.546
 5834W        W72243  20.082  31.605   2.800
 5835W        W72244  23.580  25.610  13.160
 5836W        W72245  37.338  13.181   4.553
 5837W        W72246  13.122  24.701  11.900
 5838W        W72247  17.887   5.625  12.658
 5839W        W72248   4.243  21.791  13.004
 5840W        W72249  23.848  24.745   1.289
 5841W        W72250   4.503  27.167   4.526
 5842W        W72251  14.361   5.162  13.532
 5843W        W72252  37.078  33.527  11.105
 5844W        W72253   4.656  35.398   2.420
 5845W        W72254  20.173  44.478   2.805
 5846W        W72255  44.028  11.693  12.886
 5847W        W72256  13.939  18.251   2.819
 5848W        W72257   2.725  31.909  11.989
 5849W        W72258   7.798  13.101   4.410
 5850W        W72259  28.029   1.190  14.918
 5851W        W72260  32.526   3.417  12.970
 5852W        W72261  12.688  29.494  10.843
 5853W        W72262  27.050   4.446   2.635
 5854W        W72263  12.833  36.514  12.383
 5855W        W72264   9.827  41.305   2.584
 5856W        W72265  22.915  25.278  11.055
 5857W        W72266  41.964  34.641  12.208
 5858W        W72267  14.123   9.540   4.205
 5859W        W72268  43.410  29.600   4.693
 5860W        W72269  29.841  29.414   0.674
 5861W        W72270  24.754  20.893   3.200
 5862W        W72271   3.935  39.054   2.300
 5863W        W72272  18.167  41.504   1.523
 5864W        W72273  40.439  25.455   4.704
 5865W        W72274  18.161  16.557   2.344
 5866W        W72275  15.202   3.485  14.364
 5867W        W72276   8.472  27.416  13.188
 5868W        W72277  39.782  24.716   0.057
 5869W        W72278   1.443  44.911  13.390
 5870W        W72279  17.895  18.002   0.340
 5871W        W72280   8.830   6.144   0.122
 5872W        W72281   3.856  43.771   1.317
 5873W        W72282  36.584   7.133  11.968
 5874W        W72283  30.913  14.209  12.133
 5875W        W72284  32.139   4.748  13.217
 5876W        W72285   9.342  18.232   0.415
 5877W        W72286  17.031  12.170   4.281
 5878W        W72287  13.585  14.226   1.914
 5879W        W72288  37.375  12.731  14.085
 5880W        W72289   8.609  19.609   2.848
 5881W        W72290  21.084  16.372  12.084
 5882W        W72291  25.060  18.511   4.055
 5883W        W72292  32.237   8.282  13.046
 5884W        W72293  33.222  34.857   1.552
 5885W        W72294   7.422   5.839  14.946
 5886W        W72295  29.764   5.921   2.792
 5887W        W72296  13.025   4.488  10.999
 5888W        W72297  40.951   1.103   3.700
 5889W        W72298  31.508  27.152  13.499
 5890W        W72299  24.269  42.255   3.818
 5891W        W72300  32.136  30.439  13.405
 5892W        W72301  33.096  20.843   3.424
 5893W        W72302  22.736  39.433   4.121
 5894W        W72303   4.768  29.849   2.920
 5895W        W72304  31.821  14.175  12.468
 5896W        W72305   6.651  25.006   0.045
 5897W        W72306  32.865  43.235  10.984
 5898W        W72307  36.196  36.218  14.291
 5899W        W72308  18.548  10.288   5.286
 5900W        W72309  22.562  12.523  10.515
 5901W        W72310   9.129  36.944   4.567
 5902W        W72311  36.336  34.492   3.046
 5903W        W72312  30.940  17.667   1.870
 5904W        W72313  16.135  22.580  13.986
 5905W        W72314  20.779  42.411   0.354
 5906W        W72315  41.543  20.126   3.231
 5907W        W72316  10.742   3.283   1.766
 5908W        W72317  20.118  21.008   0.886
 5909W        W72318   9.167  34.658  12.509
 5910W        W72319  32.541  38.515  13.071
 5911W        W72320  17.742   1.801   1.731
 5912W        W72321  34.079  22.418  11.881
 5913W        W72322  13.223   6.902  13.911
 5914W        W72323  23.510  36.929   1.865
 5915W        W72324  32.616  18.464   3.275
 5916W        W72325  26.517  43.298   4.429
 5917W        W72326  40.224   7.080  10.137
 5918W        W72327  21.458  40.427  14.641
 5919W        W72328   8.547  30.867  13.889
 5920W        W72329  42.233  29.878   0.206
 5921W        W72330  43.279  36.534  13.560
 5922W        W72331  19.074  30.439   0.279
 5923W        W72332  22.216  33.149   1.810
 5924W        W72333   0.424   2.665   2.839
 5925W        W72334  24.178  42.876   0.874
 5926W        W72335   1.384   2.362   0.930
 5927W        W72336  19.240  25.472  14.950
 5928W        W72337   5.715  20.484   4.421
 5929W        W72338   6.682  30.261  10.719
 5930W        W72339  37.046   7.483   4.105
 5931W        W72340  25.558  20.991  12.557
 5932W        W72341  14.796  22.594  12.427
 5933W        W72342  31.869   4.448   2.743
 5934W        W72343  27.039  40.514  10.532
 5935W        W72344   3.354  34.675  13.339
 5936W        W72345  31.371  30.658  12.786
 5937W        W72346  37.435   8.085   2.972
 5938W        W72347  36.183  19.566   3.939
 5939W        W72348  24.257   3.135   1.903
 5940W        W72349  40.034   3.286   1.062
 5941W        W72350  28.599   6.724   0.399
 5942W        W72351  32.153   6.682   2.854
 5943W        W72352   7.000  23.128   3.108
 5944W        W72353  42.414  32.811   2.796
 5945W        W72354  26.917  44.852   3.435
 5946W        W72355  21.684   9.898  12.057
 5947W        W72356  18.823  22.743   1.811
 5948W        W72357  32.009  44.866  11.004
 5949W        W72358  30.689   6.627  14.198
 5950W        W72359  30.510  26.069   1.366
 5951W        W72360  34.121  31.598  14.929
 5952W        W72361  34.530   1.308   1.952
 5953W        W72362  20.313  38.690  14.126
 5954W        W72363  32.944  16.275  12.361
 5955W        W72364  27.063  14.115   3.303
 5956W        W72365  19.760  23.439  11.570
 5957W        W72366  27.754  10.775  11.620
 5958W        W72367  38.760  31.543  14.885
 5959W        W72368  24.668  25.498   4.561
 5960W        W72369  31.576  40.565   1.194
 5961W        W72370  38.093  39.046  14.422
 5962W        W72371  38.890  32.219   0.390
 5963W        W72372  34.849   1.141  13.068
 5964W        W72373  22.626  22.111  13.995
 5965W        W72374   3.901  14.544   0.937
 5966W        W72375  17.213  12.673   2.483
 5967W        W72376  22.586  39.074  10.062
 5968W        W72377  12.643  20.591   3.128
 5969W        W72378  18.302  11.402   0.550
 5970W        W72379  28.954  10.105   3.590
 5971W        W72380  40.916   7.140   1.412
 5972W        W72381  10.572  32.757  12.683
 5973W        W72382  26.002   3.322   3.285
 5974W        W72383  20.193   7.343   2.842
 5975W        W72384  23.057  15.837  14.901
 5976W        W72385   0.458  40.935  13.836
 5977W        W72386  40.973   4.384  11.263
 5978W        W72387  20.186  32.784   0.923
 5979W        W72388  17.983  24.075   5.010
 5980W        W72389  37.126  17.307  14.253
 5981W        W72390  22.948  37.515   3.224
 5982W        W72391   0.650  42.221   4.004
 5983W        W72392   0.984  23.599   3.192
 5984W        W72393   3.015  42.549  12.588
 5985W        W72394  13.124  42.784  12.492
 5986W        W72395   2.636   1.004   0.571
 5987W        W72396   6.687  12.216  12.946
 5988W        W72397   3.457  16.231  14.523
 5989W        W72398  10.895  30.108   0.902
 5990W        W72399  33.791  33.055  13.135
 5991W        W72400  20.397   0.928  13.082
 5992W        W72401  28.287  20.080  14.912
 5993W        W72402   0.478  38.375   4.734
 5994W        W72403   0.349   7.972   4.341
 5995W        W72404  12.373  34.956   3.617
 5996W        W72405  30.091  33.549  11.188
 5997W        W72406  19.125   7.429  11.743
 5998W        W72407   3.464  35.720   0.505
 5999W        W72408  18.012   6.888  14.379
 6000W        W72409  13.492  28.590   2.042
 6001W        W72410  18.683  38.583   4.995
 6002W        W72411  17.647   3.163   0.295
 6003W        W72412  40.760  20.380   0.313
 6004W        W72413  16.777  32.850   3.106
 6005W        W72414  13.182  41.314   4.576
 6006W        W72415  33.549   7.227  10.148
 6007W        W72416  41.336  24.475  11.295
 6008W        W72417   1.179  31.704   4.652
 6009W        W72418   6.374  35.133  10.387
 6010W        W72419   2.188   2.862   3.318
 6011W        W72420  11.232  14.706  12.653
 6012W        W72421  40.057  21.535   0.826
 6013W        W72422  44.322  25.973   2.519
 6014W        W72423   1.583   3.963   2.710
 6015W        W72424  15.785  21.266   1.370
 6016W        W72425   4.569   5.037  10.596
 6017W        W72426  37.067  24.711   1.239
 6018W        W72427  40.724  27.417  14.917
 6019W        W72428  19.456   1.831   2.265
 6020W        W72429  12.329  24.593  14.970
 6021W        W72430  43.024  20.967   3.631
 6022W        W72431  44.563  14.329   5.114
 6023W        W72432  22.146  25.919   1.610
 6024W        W72433  36.616  32.836   2.337
 6025W        W72434  28.964  43.434  11.526
 6026W        W72435  35.388  13.843  11.126
 6027W        W72436   9.310  23.990  13.859
 6028W        W72437  17.787  24.992  12.551
 6029W        W72438  20.267  34.243  13.517
 6030W        W72439   4.472  17.816  10.832
 6031W        W72440  43.810  16.885  11.206
 6032W        W72441  41.789  26.410   1.764
 6033W        W72442  30.129  21.719   2.250
 6034W        W72443   7.130  28.640   2.791
 6035W        W72444  34.380  29.178   1.833
 6036W        W72445  33.640  44.395   4.733
 6037W        W72446  30.022   4.843   1.746
 6038W        W72447  40.944   9.278   2.578
 6039W        W72448  11.693  15.502   3.622
 6040W        W72449  34.621  25.625  11.162
 6041W        W72450  27.015   8.146  12.159
 6042W        W72451  30.692  44.758   3.754
 6043W        W72452  31.634  18.786   3.285
 6044W        W72453   8.138  41.059  12.583
 6045W        W72454  42.356  21.781  14.483
 6046W        W72455  12.049   8.581   2.175
 6047W        W72456  44.863   6.112   4.146
 6048W        W72457   3.494  36.970   4.207
 6049W        W72458  20.981  18.985   0.746
 6050W        W72459   5.978  44.963  11.550
 6051W        W72460  30.871  42.914  14.398
 6052W        W72461  27.525  13.860   0.885
 6053W        W72462  14.191   0.839   1.628
 6054W        W72463  43.717  23.739   2.785
 6055W        W72464   4.595  25.034  12.890
 6056W        W72465  26.382  10.765  11.521
 6057W        W72466  19.407  42.251   0.269
 6058W        W72467   7.130  22.212  10.412
 6059W        W72468  44.662  29.121   1.706
 6060W        W72469  35.435  41.503   0.398
 6061W        W72470  16.231  25.772  11.574
 6062W        W72471   1.325  41.580  13.404
 6063W        W72472  32.409   2.944   0.749
 6064W        W72473  14.537   7.209  11.903
 6065W        W72474   1.411  15.239  13.939
 6066W        W72475  10.307  38.296   0.959
 6067W        W72476  33.051   4.429  14.425
 6068W        W72477  28.805  42.935  12.572
 6069W        W72478  13.653  26.718   9.757
 6070W        W72479  37.834   7.200  12.917
 6071W        W72480   6.957  20.960  10.239
 6072W        W72481  29.256   9.872  11.187
 6073W        W72482  41.393  17.271   0.689
 6074W        W72483  28.467  23.975  10.751
 6075W        W72484  36.129  17.542   3.164
 6076W        W72485  44.786  15.646   3.624
 6077W        W72486  27.704  10.636  14.717
 6078W        W72487  27.069   9.352  12.523
 6079W        W72488  22.089   6.354   3.053
 6080W        W72489   8.315  14.146   2.801
 6081W        W72490  30.667  15.250  13.079
 6082W        W72491  20.742  40.857   1.496
 6083W        W72492  22.247   4.349   2.905
 6084W        W72493  15.749  30.080  13.898
 6085W        W72494  37.362  30.219   2.741
 6086W        W72495  26.121   7.704   1.914
 6087W        W72496  35.852   7.563   3.743
 6088W        W72497  34.789  27.523   0.253
 6089W        W72498  31.075  27.971  14.012
 6090W        W72499  41.330  31.247  10.915
 6091W        W72500  17.773  16.346  12.952
 6092W        W72501  16.632  16.781  10.704
 6093W        W72502  24.426   7.744   1.249
 6094W        W72503   1.160   6.852  12.122
 6095W        W72504  17.731  11.681   0.633
 6096W        W72505  29.082  37.142  11.229
 6097W        W72506  20.722   8.223  11.558
 6098W        W72507  11.442  29.825  11.862
 6099W        W72508  43.935  37.278  11.633
 6100W        W72509  40.735  26.419   1.866
 6101W        W72510  22.634  13.673   2.642
 6102W        W72511  26.590  44.996  13.675
 6103W        W72512  18.040  15.734   1.795
 6104W        W72513  43.319  27.956  10.601
 6105W        W72514  16.678   1.291  11.100
 6106W        W72515  28.101  10.629   3.255
 6107W        W72516  40.502  15.109   3.755
 6108W        W72517  25.023  27.776   2.203
 6109W        W72518   8.484   2.271  12.422
 6110W        W72519  23.028  21.027   4.084
 6111W        W72520  43.543  25.093   1.904
 6112W        W72521  25.338  20.116   9.852
 6113W        W72522  39.301  16.501   9.613
 6114W        W72523  26.843   2.833   1.619
 6115W        W72524  22.141  36.452  13.783
 6116W        W72525  10.796  23.980  14.924
 6117W        W72526   4.827   1.487  14.115
 6118W        W72527  22.611  14.854   0.561
 6119W        W72528  31.409  25.191  14.471
 6120W        W72529  39.069  20.071  14.567
 6121W        W72530  42.787  43.609  12.873
 6122W        W72531  12.329  15.164   4.679
 6123W        W72532  10.188  42.866   2.132
 6124W        W72533  18.400  36.096  13.852
 6125W        W72534   1.812  28.585  10.582
 6126W        W72535   2.202  21.071  13.405
 6127W        W72536  25.148  44.828   4.082
 6128W        W72537  25.493  30.585   4.177
 6129W        W72538  39.013   9.116   2.565
 6130W        W72539   5.665  18.696   1.852
 6131W        W72540   6.986  18.144  11.878
 6132W        W72541  16.298   3.929   3.504
 6133W        W72542  15.313   7.288  11.099
 6134W        W72543   4.884  31.696  13.815
 6135W        W72544   4.285  21.873  13.995
 6136W        W72545   3.813  18.432  11.660
 6137W        W72546  16.875  40.414  13.484
 6138W        W72547  40.564  40.983   0.965
 6139W        W72548  11.078  17.170  11.604
 6140W        W72549   4.011  21.274   0.238
 6141W        W72550  28.293  32.537  10.140
 6142W        W72551   7.850   3.457   0.013
 6143W        W72552  20.723  26.484  12.367
 6144W        W72553  34.253  41.180  11.059
 6145W        W72554  44.652   1.607   3.489
 6146W        W72555  24.524  44.743   0.876
 6147W        W72556  26.139  28.711   0.942
 6148W        W72557  30.682   7.275   0.391
 6149W        W72558  39.613  23.038  13.837
 6150W        W72559  14.446   4.163   0.538
 6151W        W72560   2.042  19.187  12.673
 6152W        W72561  39.047   2.407  13.399
 6153W        W72562  11.767   8.367  13.858
 6154W        W72563  19.469  37.925   0.360
 6155W        W72564  40.761   3.792   0.872
 6156W        W72565   4.454  25.415   1.315
 6157W        W72566  13.842  33.861   4.570
 6158W        W72567  41.820  43.445  13.468
 6159W        W72568   3.309  33.108   0.676
 6160W        W72569  40.063  41.230  11.524
 6161W        W72570  27.481  10.299   4.591
 6162W        W72571  43.176  21.744  11.384
 6163W        W72572  39.898  21.057   3.268
 6164W        W72573  28.615   7.697  12.105
 6165W        W72574  27.190  10.924   0.448
 6166W        W72575  20.590  26.255   4.780
 6167W        W72576  40.299  36.317  12.375
 6168W        W72577  23.712   3.298  11.680
 6169W        W72578  41.368  14.597  14.755
 6170W        W72579  13.826  35.276  10.836
 6171W        W72580  34.467  32.294   0.452
 6172W        W72581  12.653  32.389  12.669
 6173W        W72582  10.920  23.247  14.531
 6174W        W72583   5.318  35.564  13.212
 6175W        W72584  18.356  10.691   4.968
 6176W        W72585  28.205   1.034  14.051
 6177W        W72586  38.497  26.322   3.193
 6178W        W72587  15.395  22.904   5.439
 6179W        W72588   2.769  25.069  13.372
 6180W        W72589  31.882   2.785   0.719
 6181W        W72590   1.636   0.988  14.730
 6182W        W72591  19.017  25.995   2.843
 6183W        W72592  16.750   5.757   2.126
 6184W        W72593  21.667  18.627   3.347
 6185W        W72594   2.990  25.719  12.572
 6186W        W72595  18.277   7.259   3.969
 6187W        W72596  37.408  44.316   3.635
 6188W        W72597  24.809   8.429  14.101
 6189W        W72598  31.145  43.004   4.174
 6190W        W72599  10.746   2.541  12.488
 6191W        W72600  42.493   0.826   3.679
 6192W        W72601  39.824  14.032   4.175
 6193W        W72602  29.744  31.058  10.471
 6194W        W72603  38.888  18.679   0.545
 6195W        W72604  20.776  21.319  10.981
 6196W        W72605  16.115  26.468   0.426
 6197W        W72606  43.349  28.038  11.410
 6198W        W72607  13.009   8.956   4.535
 6199W        W72608   3.874  24.656   3.558
 6200W        W72609  24.814  12.398   0.184
 6201W        W72610  11.637  20.441   0.764
 6202W        W72611  32.968  32.626   4.198
 6203W        W72612  14.812   6.842   1.247
 6204W        W72613   6.670  31.651   4.172
 6205W        W72614   5.807  19.338  12.187
 6206W        W72615  39.793  18.733  14.620
 6207W        W72616  31.118   7.422  13.731
 6208W        W72617  15.377  45.000  11.349
 6209W        W72618  43.961   3.973   1.904
 6210W        W72619  20.097   2.204  11.206
 6211W        W72620   6.885  32.896   0.663
 6212W        W72621  36.063  31.462  12.806
 6213W        W72622  43.196  34.904  14.435
 6214W        W72623  18.048  42.826   4.098
 6215W        W72624  38.512  29.067   3.353
 6216W        W72625  28.280  20.869   9.975
 6217W        W72626  22.074  37.926   3.206
 6218W        W72627  44.712   5.389  10.614
 6219W        W72628  24.037  34.361  13.503
 6220W        W72629  39.988  12.351  14.792
 6221W        W72630  22.589  23.470   2.316
 6222W        W72631  44.283  32.735   0.341
 6223W        W72632  12.682  11.794   4.197
 6224W        W72633  30.195  29.983   2.437
 6225W        W72634  34.642  26.104   0.515
 6226W        W72635  14.571  16.439   4.177
 6227W        W72636  33.402  13.035  14.001
 6228W        W72637  33.628  14.432   2.578
 6229W        W72638   1.350   8.139  10.664
 6230W        W72639   0.333  10.372   3.616
 6231W        W72640  29.145  43.527   0.491
 6232W        W72641  14.074   3.862  13.998
 6233W        W72642  32.504   3.396   0.981
 6234W        W72643  17.300  39.570   3.584
 6235W        W72644  27.656   7.778  12.589
 6236W        W72645  38.899   2.788   4.286
 6237W        W72646  32.136  43.461  11.461
 6238W        W72647  36.782   8.506  14.433
 6239W        W72648  22.114  27.834  13.387
 6240W        W72649  12.881  17.037  10.622
 6241W        W72650   4.722  32.158  14.919
 6242W        W72651  37.588  35.814  12.647
 6243W        W72652  24.948  35.940  13.386
 6244W        W72653  30.289  18.732  10.801
 6245W        W72654  42.187   2.169   0.020
 6246W        W72655  23.068  14.777  12.141
 6247W        W72656  24.622  44.389  13.382
 6248W        W72657  32.981  44.545   0.820
 6249W        W72658  35.554  36.559  14.709
 6250W        W72659   2.769  37.959   1.335
 6251W        W72660  15.217  11.834   1.377
 6252W        W72661  35.809  30.926   0.855
 6253W        W72662  24.144  13.145   1.891
 6254W        W72663  37.343  43.995  12.495
 6255W        W72664  36.437  21.064  13.448
 6256W        W72665  40.944  18.543  13.839
 6257W        W72666   3.781  11.630  12.989
 6258W        W72667  15.015   6.195  14.952
 6259W        W72668   5.144   9.601  13.421
 6260W        W72669  23.271  11.423   1.747
 6261W        W72670  21.178  13.192   4.752
 6262W        W72671  38.915  31.621  10.678
 6263W        W72672  18.520  39.983  14.272
 6264W        W72673  10.828  24.002  13.031
 6265W        W72674  39.558   2.229  12.489
 6266W        W72675  40.053  28.808  14.410
 6267W        W72676   9.885  17.858  12.798
 6268W        W72677  40.410  31.345  13.036
 6269W        W72678   4.361  20.171   4.280
 6270W        W72679  12.701  15.473   2.847
 6271W        W72680  34.133  34.652  13.490
 6272W        W72681  30.557  40.856   3.705
 6273W        W72682  27.052  31.635  11.619
 6274W        W72683  15.326   4.087  10.776
 6275W        W72684  28.485   8.447   1.623
 6276W        W72685  25.816  43.562   0.374
 6277W        W72686  25.426  40.495   1.489
 6278W        W72687  39.949  41.883  14.238
 6279W        W72688  40.906   7.392  12.448
 6280W        W72689  10.284   6.814  14.951
 6281W        W72690   9.292  29.040  14.090
 6282W        W72691  31.033   9.559   4.303
 6283W        W72692  22.723  34.737   5.139
 6284W        W72693  13.327   4.695  12.874
 6285W        W72694  27.979  21.848  13.364
 6286W        W72695  28.825  36.462   1.035
 6287W        W72696   4.892  28.555  14.927
 6288W        W72697  16.863   7.739   0.432
 6289W        W72698  12.404   4.136   4.503
 6290W        W72699  29.608  12.343   2.338
 6291W        W72700  30.955  21.987  13.850
 6292W        W72701  14.337  37.278  14.407
 6293W        W72702  13.824  40.498  11.344
 6294W        W72703  42.386  29.528   1.898
 6295W        W72704   6.482  25.173   1.905
 6296W        W72705   4.398  23.941  12.480
 6297W        W72706  11.825  10.311   3.486
 6298W        W72707  31.114  22.355  12.090
 6299W        W72708  17.315  29.721  10.464
 6300W        W72709  17.751  37.354  10.405
 6301W        W72710  21.985  13.235   4.103
 6302W        W72711  23.881   3.275   1.587
 6303W        W72712  27.034  29.981   0.470
 6304W        W72713  37.497  38.928   1.830
 6305W        W72714  43.036  36.029  13.881
 6306W        W72715  39.067  31.650   2.802
 6307W        W72716  31.144  17.735  12.480
 6308W        W72717  37.370   3.791   4.050
 6309W        W72718   8.713  39.897   1.757
 6310W        W72719  40.541   6.180   4.194
 6311W        W72720  42.857  24.903  12.079
 6312W        W72721   3.800  13.682  10.717
 6313W        W72722  42.548  27.086  14.810
 6314W        W72723  20.282  13.703   0.454
 6315W        W72724  39.371  28.249  13.544
 6316W        W72725  15.730  26.181  14.354
 6317W        W72726  38.499  28.599   2.737
 6318W        W72727  25.270  40.401   2.756
 6319W        W72728  10.675  25.618   3.858
 6320W        W72729  21.130  13.788   3.904
 6321W        W72730  40.239  18.591  12.108
 6322W        W72731  23.080  14.907   3.935
 6323W        W72732  25.980  19.728   0.028
 6324W        W72733  38.545  34.737   0.413
 6325W        W72734  30.486  10.283  10.177
 6326W        W72735   2.980  19.599  10.266
 6327W        W72736  37.274  27.939  14.221
 6328W        W72737   3.744  13.143  11.158
 6329W        W72738   8.092  40.341   2.217
 6330W        W72739  25.443  25.990   1.648
 6331W        W72740   3.382   6.339  12.356
 6332W        W72741  24.325   5.669  11.016
 6333W        W72742  40.875  29.209  11.626
 6334W        W72743  16.068  28.986  13.916
 6335W        W72744  17.062  31.692  10.784
 6336W        W72745  35.632   4.297  14.472
 6337W        W72746  10.148  30.569   1.869
 6338W        W72747  38.532  22.562  12.411
 6339W        W72748   1.522  10.976  11.190
 6340W        W72749  37.543  34.999   2.115
 6341W        W72750   6.971  32.648   1.132
 6342W        W72751  21.739   2.687   3.138
 6343W        W72752  35.439  12.589  14.443
 6344W        W72753   1.263   9.724   2.785
 6345W        W72754  35.832  37.701  14.427
 6346W        W72755   5.673  38.938  13.498
 6347W        W72756   9.133   9.665  13.830
 6348W        W72757  10.958  43.311   4.108
 6349W        W72758  10.009  37.057  12.095
 6350W        W72759  31.065  27.659   0.466
 6351W        W72760  20.732   2.320  12.352
 6352W        W72761   8.498  29.450  11.489
 6353W        W72762  35.895   6.339   0.261
 6354W        W72763  17.119  22.965   0.335
 6355W        W72764   6.941  33.450   3.200
 6356W        W72765  23.168  38.073   1.904
 6357W        W72766  37.378  29.398  14.246
 6358W        W72767  38.366  11.207  12.666
 6359W        W72768   2.137  33.595  14.293
 6360W        W72769  26.248  42.412  10.987
 6361W        W72770  40.149  11.811  10.736
 6362W        W72771  31.983  22.240   3.245
 6363W        W72772   7.268  30.948  13.978
 6364W        W72773  44.953   7.604  13.505
 6365W        W72774   2.183  17.251   0.945
 6366W        W72775   3.078   7.347   4.155
 6367W        W72776  12.659  20.800  14.905
 6368W        W72777  14.089   2.861   3.704
 6369W        W72778  29.816  10.449  13.404
 6370W        W72779  32.935  37.387   2.162
 6371W        W72780   6.052   8.819  12.446
 6372W        W72781  42.833  19.261   2.897
 6373W        W72782   7.874  28.222  13.511
 6374W        W72783  39.029  29.586  13.276
 6375W        W72784  33.562   8.927   3.930
 6376W        W72785  22.461   4.996   0.030
 6377W        W72786  35.336  22.217  14.512
 6378W        W72787   5.418  14.091  13.902
 6379W        W72788   9.809  20.750  10.835
 6380W        W72789   9.223  26.116  10.860
 6381W        W72790  24.560  24.476  11.708
 6382W        W72791  20.777  12.011  13.587
 6383W        W72792  28.531  40.820  13.869
 6384W        W72793   6.656   4.460  14.780
 6385W        W72794  25.911  43.847  11.228
 6386W        W72795  41.079   1.850  11.625
 6387W        W72796  40.333  13.728  12.489
 6388W        W72797  15.326  32.714  11.048
 6389W        W72798   4.552  13.099   2.771
 6390W        W72799   8.563  36.861   1.485
 6391W        W72800   4.843  30.176   1.283
 6392W        W72801  42.958  13.051   1.752
 6393W        W72802  10.453  30.925  10.734
 6394W        W72803  36.541  25.559   0.846
 6395W        W72804   4.250  16.802   3.287
 6396W        W72805  40.493  26.472  11.640
 6397W        W72806   2.780   4.641  11.092
 6398W        W72807   9.842   9.760  14.836
 6399W        W72808  34.595   9.338   1.760
 6400W        W72809  44.680  14.652  14.257
 6401W        W72810  24.879   9.273   5.371
 6402W        W72811   7.704  36.150  13.433
 6403W        W72812  10.043  35.056   2.300
 6404W        W72813  41.059  21.110  12.468
 6405W        W72814  36.104  42.255   0.172
 6406W        W72815  40.114  29.078  10.833
 6407W        W72816  27.684  27.793  13.659
 6408W        W72817  21.645  32.619   3.279
 6409W        W72818   9.351  18.320  14.448
 6410W        W72819  35.926  40.079  14.355
 6411W        W72820   5.124  25.769  11.846
 6412W        W72821   2.477  29.684   4.788
 6413W        W72822  19.335  20.784   3.293
 6414W        W72823  21.453   0.845   1.723
 6415W        W72824  28.362  31.516   2.301
 6416W        W72825  37.907  31.435   1.406
 6417W        W72826   5.346   9.586  11.253
 6418W        W72827  22.166  17.622  10.560
 6419W        W72828  31.463  24.689  14.653
 6420W        W72829  39.758  36.677  11.993
 6421W        W72830   7.819  29.331   0.939
 6422W        W72831  12.077   8.736  10.629
 6423W        W72832  28.992  37.253   0.488
 6424W        W72833  15.145  12.602  14.411
 6425W        W72834  36.524  17.995  14.302
 6426W        W72835  21.306   7.319  11.123
 6427W        W72836   8.487  23.215   1.722
 6428W        W72837  36.265  38.031  14.455
 6429W        W72838  10.633  27.466   1.184
 6430W        W72839  26.747   6.438  14.489
 6431W        W72840   8.442  25.434   4.884
 6432W        W72841  37.552  43.618  11.191
 6433W        W72842  10.114   7.018  14.435
 6434W        W72843  40.888  37.275  11.846
 6435W        W72844   4.763  27.113  13.538
 6436W        W72845  30.606  20.841   2.147
 6437W        W72846   0.890  41.714   4.940
 6438W        W72847  35.609   3.911  10.292
 6439W        W72848  37.888  35.555  13.904
 6440W        W72849   2.129  40.098  12.932
 6441W        W72850  39.641  21.682  11.929
 6442W        W72851  17.191  30.090  10.113
 6443W        W72852  41.404  44.413   4.029
 6444W        W72853  16.083   9.928   0.937
 6445W        W72854  31.510  17.594  13.276
 6446W        W72855  23.606  22.580  12.173
 6447W        W72856  31.197   0.366  11.202
 6448W        W72857   1.683  25.224  11.543
 6449W        W72858  11.046  17.318  12.927
 6450W        W72859  39.950   4.139   4.186
 6451W        W72860  20.979  31.965  11.180
 6452W        W72861  37.997  11.109  13.794
 6453W        W72862  39.772  25.658  14.950
 6454W        W72863  43.810  32.514  10.449
 6455W        W72864  31.613  18.528  13.485
 6456W        W72865  38.703  17.714   2.575
 6457W        W72866  24.379   9.177   5.047
 6458W        W72867   0.132   3.006  11.677
 6459W        W72868   0.537   7.421  12.715
 6460W        W72869  22.294   3.894   3.204
 6461W        W72870  24.223  23.094   1.279
 6462W        W72871   5.421   7.879  11.181
 6463W        W72872  39.606  40.517   3.805
 6464W        W72873  30.016   2.345  14.487
 6465W        W72874  42.888  41.495  10.836
 6466W        W72875  12.206  40.965  14.788
 6467W        W72876  34.671  20.283  13.454
 6468W        W72877  29.341  44.484   1.907
 6469W        W72878  42.767  19.597  10.754
 6470W        W72879  18.586  27.260  14.671
 6471W        W72880  15.374  28.445  14.315
 6472W        W72881  14.090   5.916  13.200
 6473W        W72882  35.834  14.221  13.298
 6474W        W72883  21.703  29.669  13.402
 6475W        W72884  16.267  12.700  14.447
 6476W        W72885  40.110  19.705  12.889
 6477W        W72886   1.151  24.699   0.825
 6478W        W72887  42.452  42.446  10.657
 6479W        W72888  40.496  22.818   0.528
 6480W        W72889   2.428   9.181  14.327
 6481W        W72890   4.654  34.291   0.946
 6482W        W72891  18.012   6.298  13.163
 6483W        W72892   0.927  30.445   3.629
 6484W        W72893  20.616  26.660  10.386
 6485W        W72894  14.388   8.291   4.802
 6486W        W72895  42.833  30.519   4.026
 6487W        W72896  16.461  43.432   0.943
 6488W        W72897   0.870   1.275   0.461
 6489W        W72898   6.531  34.301  10.662
 6490W        W72899  37.962  36.628   1.177
 6491W        W72900  10.190  35.530   0.215
 6492W        W72901  38.033  40.346   0.013
 6493W        W72902  44.984  36.703  11.270
 6494W        W72903   5.735  29.986   1.140
 6495W        W72904   1.879   6.742  14.929
 6496W        W72905   6.912  40.081   3.266
 6497W        W72906  27.588   7.634  14.120
 6498W        W72907  31.105  20.295   4.429
 6499W        W72908  31.957  35.657   1.995
 6500W        W72909   3.915  20.224   4.783
 6501W        W72910  39.260  36.743  14.838
 6502W        W72911  18.770  14.854   3.290
 6503W        W72912  16.168   6.922   2.642
 6504W        W72913  22.207  10.519  13.425
 6505W        W72914  18.804  22.579  10.375
 6506W        W72915  17.663  42.704   2.585
 6507W        W72916  20.206  29.980   1.797
 6508W        W72917  27.090  27.701   4.841
 6509W        W72918  31.377  10.245  11.989
 6510W        W72919   7.913   8.922  11.039
 6511W        W72920  34.557   3.305   3.314
 6512W        W72921  39.382  16.586  14.567
 6513W        W72922  17.086  26.448  14.376
 6514W        W72923   7.111   3.911  14.347
 6515W        W72924  32.156   9.806  10.588
 6516W        W72925  34.895  42.870   2.270
 6517W        W72926  31.631  22.214   3.622
 6518W        W72927  15.890  44.190   3.918
 6519W        W72928  15.015  43.421   1.402
 6520W        W72929   0.517  43.977   4.324
 6521W        W72930   2.364  36.404  13.855
 6522W        W72931  18.221  18.595  11.397
 6523W        W72932  15.190   4.999  11.028
 6524W        W72933   6.238  29.655   2.231
 6525W        W72934  34.635  24.992  14.340
 6526W        W72935  28.211  40.995   4.053
 6527W        W72936  13.109  44.036   2.794
 6528W        W72937   1.074  14.817  13.834
 6529W        W72938   4.377  33.428  14.735
 6530W        W72939  22.458  42.926   1.878
 6531W        W72940  30.920  28.086  10.623
 6532W        W72941  34.433  17.706   2.848
 6533W        W72942   2.706  25.457   1.383
 6534W        W72943  22.503  34.349  13.843
 6535W        W72944   0.411  42.511  14.509
 6536W        W72945   9.661  42.855   2.163
 6537W        W72946   5.756   3.986  14.367
 6538W        W72947  41.340  14.763   3.096
 6539W        W72948  19.487  28.698  12.635
 6540W        W72949  32.132  21.598  14.356
 6541W        W72950   3.498   1.942  14.692
 6542W        W72951  34.013   6.538  14.856
 6543W        W72952  20.262  29.430   0.315
 6544W        W72953  36.245  30.641  12.916
 6545W        W72954  10.229  36.900  14.419
 6546W        W72955  26.546  29.455   1.726
 6547W        W72956  30.005  13.402   2.748
 6548W        W72957  43.569  21.943   1.264
 6549W        W72958  22.932  40.918  12.439
 6550W        W72959  42.247  14.037   1.397
 6551W        W72960   8.215  27.029   0.454
 6552W        W72961  26.014  10.626  11.183
 6553W        W72962   4.738  42.852   2.089
 6554W        W72963  37.639  29.102   3.862
 6555W        W72964  44.342  33.753  13.982
 6556W        W72965  27.716  31.015  13.091
 6557W        W72966  31.142   0.053   3.672
 6558W        W72967  22.212  36.124  12.453
 6559W        W72968  43.139  39.992   1.898
 6560W        W72969   4.732   7.755  13.304
 6561W        W72970  34.074   7.638  11.765
 6562W        W72971  26.162  12.661   3.647
 6563W        W72972  29.621   2.337  11.049
 6564W        W72973  26.500  26.146   1.341
 6565W        W72974  31.631   4.984  10.817
 6566W        W72975  26.662   6.108   0.970
 6567W        W72976  34.707   5.596  11.056
 6568W        W72977  37.596  32.538  14.408
 6569W        W72978  42.025  20.740  12.820
 6570W        W72979   9.823  22.606   4.194
 6571W        W72980  35.134  33.460  11.146
 6572W        W72981   6.451  15.648   2.400
 6573W        W72982  19.958  31.083   2.805
 6574W        W72983  29.419  14.638  14.006
 6575W        W72984  15.629  43.735  14.883
 6576W        W72985  26.770  34.585  11.192
 6577W        W72986  27.053   8.390   2.688
 6578W        W72987  31.887   2.719  12.790
 6579W        W72988  26.074  38.403  11.546
 6580W        W72989  34.812  36.709   3.686
 6581W        W72990  44.239   2.879  11.214
 6582W        W72991  23.081  30.252  12.607
 6583W        W72992  36.594  13.122   1.966
 6584W        W72993  26.904   6.745  10.380
 6585W        W72994  28.995   8.641  11.540
 6586W        W72995  25.546   7.777   9.838
 6587W        W72996  37.848  27.217  11.473
 6588W        W72997  17.184  16.813  10.261
 6589W        W72998  27.372  29.958   4.698
 6590W        W72999  31.171  20.511  12.139
 6591W        W73000  21.121   7.679  14.155
 6592W        W73001  16.668  44.200   3.639
 6593W        W73002  30.917   0.444   3.384
 6594W        W73003  24.121   0.586   3.734
 6595W        W73004  23.118  27.695  12.786
 6596W        W73005   1.475  22.142  13.511
 6597W        W73006  43.872  15.688   4.602
 6598W        W73007  25.962  35.408   4.175
 6599W        W73008  16.544  18.737  14.064
 6600W        W73009  31.436  13.157  11.628
 6601W        W73010  30.055  40.343   3.737
 6602W        W73011  31.078  23.065  10.541
 6603W        W73012  23.094  33.212   1.480
 6604W        W73013  15.067  42.519   0.401
 6605W        W73014  19.883  35.927   5.110
 6606W        W73015  20.216   3.740   3.121
 6607W        W73016  12.638  38.569  13.507
 6608W        W73017   1.786  22.239  12.328
 6609W        W73018  34.457  10.024  12.350
 6610W        W73019  27.889  25.227  11.150
 6611W        W73020  43.231  41.370   1.209
 6612W        W73021   0.774   4.074  12.473
 6613W        W73022  21.159  37.430   0.168
 6614W        W73023  41.556  13.931   2.474
 6615W        W73024  23.607  21.384  10.063
 6616W        W73025  25.103  41.214   4.176
 6617W        W73026  35.268  19.777   0.950
 6618W        W73027  25.599  27.064  13.822
 6619W        W73028  23.459  14.717  12.897
 6620W        W73029   3.767   3.342   4.924
 6621W        W73030  22.971  15.343  10.229
 6622W        W73031  31.848   5.266  10.314
 6623W        W73032  31.092   9.707   0.202
 6624W        W73033   5.800  18.504   3.706
 6625W        W73034  31.134  41.828   1.232
 6626W        W73035  20.249   5.261   2.336
 6627W        W73036  19.029  31.444   3.625
 6628W        W73037  32.050  41.099  12.950
 6629W        W73038   2.530   7.411  11.967
 6630W        W73039   7.335  23.213   2.652
 6631W        W73040   4.472  31.008   2.395
 6632W        W73041  41.493  36.270   2.970
 6633W        W73042  17.137  18.359   1.382
 6634W        W73043   4.820  34.030   4.059
 6635W        W73044  22.977  20.715   0.985
 6636W        W73045  32.645  30.539  13.484
 6637W        W73046   9.968  40.139  12.958
 6638W        W73047  17.625  39.393   0.732
 6639W        W73048  22.745  15.697   0.810
 6640W        W73049   6.783   7.197  10.742
 6641W        W73050  29.812  11.269   3.568
 6642W        W73051  36.413  10.943   3.835
 6643W        W73052  43.257   3.314  14.532
 6644W        W73053  30.029  43.622   3.872
 6645W        W73054  13.016  36.835  10.697
 6646W        W73055  41.287  21.766  11.569
 6647W        W73056  18.727  32.009  13.033
 6648W        W73057  44.696  41.822  14.768
 6649W        W73058  22.074  30.902  12.896
 6650W        W73059   7.332   3.052   1.645
 6651W        W73060  18.141  42.417   2.443
 6652W        W73061   9.920  36.569  11.418
 6653W        W73062  40.206  34.406   1.536
 6654W        W73063  17.292  35.268   0.846
 6655W        W73064  15.036   6.907   1.746
 6656W        W73065   2.876   7.571   2.412
 6657W        W73066  29.883  33.573   2.756
 6658W        W73067  13.114   7.842  14.323
 6659W        W73068  36.402  20.789  12.572
 6660W        W73069  13.551  12.248  12.610
 6661W        W73070  12.166  18.873  10.698
 6662W        W73071  22.791   1.192   2.187
 6663W        W73072  25.709   7.199   0.398
 6664W        W73073  12.156   4.500   4.111
 6665W        W73074  24.189   7.799  13.978
 6666W        W73075  33.016  42.804   2.849
 6667W        W73076  12.089  17.771  13.590
 6668W        W73077   4.296  23.060   1.041
 6669W        W73078  37.894  42.675   4.936
 6670W        W73079  18.237  43.529   1.325
 6671W        W73080  39.204  33.694   3.667
 6672W        W73081  37.432  34.408   4.835
 6673W        W73082   7.430  31.430  14.868
 6674W        W73083   6.893  32.042  12.005
 6675W        W73084  12.014   2.779   5.426
 6676W        W73085  34.878  26.981  13.519
 6677W        W73086  16.353  24.574   0.201
 6678W        W73087  24.276  37.631   1.419
 6679W        W73088   5.308  16.402  12.608
 6680W        W73089  26.406  44.897   2.751
 6681W        W73090   2.705  36.085   3.432
 6682W        W73091   9.612   1.261  11.495
 6683W        W73092   7.527  13.137   4.875
 6684W        W73093  41.465   9.964   1.460
 6685W        W73094  33.925  36.114  11.743
 6686W        W73095  24.580  31.405  13.478
 6687W        W73096   1.186  31.179  11.886
 6688W        W73097   4.748  17.179   0.856
 6689W        W73098  30.005  44.921  12.180
 6690W        W73099   4.866   6.344   4.990
 6691W        W73100  17.748   2.864   0.852
 6692W        W73101   9.340  16.159  10.868
 6693W        W73102  22.217  27.957   3.629
 6694W        W73103  31.747   3.992   0.529
 6695W        W73104  32.681  41.888   1.452
 6696W        W73105  39.321  37.594  10.986
 6697W        W73106  38.471  30.957  13.389
 6698W        W73107  27.606  21.017   4.716
 6699W        W73108  42.837  37.531   1.404
 6700W        W73109  21.189  43.250   4.416
 6701W        W73110  10.150   5.956  13.460
 6702W        W73111  35.734  30.782   1.416
 6703W        W73112   6.311  44.813  13.279
 6704W        W73113   3.116  22.434   1.800
 6705W        W73114   2.309   3.808  12.046
 6706W        W73115  31.575  14.650  12.463
 6707W        W73116  38.813  29.857  10.982
 6708W        W73117   4.894  40.073  13.723
 6709W        W73118  25.552  34.961  11.916
 6710W        W73119  30.934  41.355   1.255
 6711W        W73120  34.809   5.166   2.347
 6712W        W73121  16.048  19.800   2.708
 6713W        W73122  13.187  30.433  12.439
 6714W        W73123   1.297  26.092   1.031
 6715W        W73124  33.939  23.302  13.695
 6716W        W73125  38.232  31.141   1.646
 6717W        W73126  31.980   6.955  10.939
 6718W        W73127  18.156  23.321  14.349
 6719W        W73128  42.420   6.937  14.292
 6720W        W73129  37.975  19.595  11.564
 6721W        W73130   0.994  29.247   0.309
 6722W        W73131  11.684  12.938  13.062
 6723W        W73132  18.272   7.129   1.494
 6724W        W73133  42.807   4.563  10.132
 6725W        W73134  11.716  42.962  13.573
 6726W        W73135  33.526  43.762  13.950
 6727W        W73136  16.623  36.392  11.199
 6728W        W73137  24.540   1.940   1.251
 6729W        W73138  37.543  28.135   9.788
 6730W        W73139  22.960   8.826  12.948
 6731W        W73140  21.710   5.233  12.985
 6732W        W73141  40.252   8.351  12.400
 6733W        W73142  36.056   2.498   2.828
 6734W        W73143  15.770  26.506  12.504
 6735W        W73144  14.792   4.057   2.767
 6736W        W73145   1.535   1.832  13.482
 6737W        W73146  43.739  31.179  14.392
 6738W        W73147   9.218  32.044  11.404
 6739W        W73148  18.295  29.138  12.407
 6740W        W73149  42.123   5.951   3.808
 6741W        W73150   0.881  40.266  13.364
 6742W        W73151  24.937   3.414   3.429
 6743W        W73152   4.609  10.208  10.816
 6744W        W73153  37.840  35.794   4.621
 6745W        W73154  20.197   1.413  11.463
 6746W        W73155   6.141  43.668   1.392
 6747W        W73156   8.869  30.411   4.556
 6748W        W73157   9.799  18.573  13.004
 6749W        W73158  36.132  14.568  13.072
 6750W        W73159  38.905  22.658  14.426
 6751W        W73160  42.440   0.391  11.891
 6752W        W73161   3.438  12.697   2.362
 6753W        W73162  14.716  26.990   2.397
 6754W        W73163   2.079   3.426  13.938
 6755W        W73164  22.510  22.610   2.207
 6756W        W73165  10.846  10.081  12.510
 6757W        W73166   1.257  40.272  13.889
 6758W        W73167  44.476  32.178  13.973
 6759W        W73168  16.315   9.376  11.619
 6760W        W73169   2.165  20.843  11.196
 6761W        W73170  44.487  33.170   0.549
 6762W        W73171  34.664  44.991  13.631
 6763W        W73172  17.708   5.344   2.131
 6764W        W73173   5.483  39.993  11.393
 6765W        W73174  41.538   0.341  11.243
 6766W        W73175   9.773  17.743   0.029
 6767W        W73176  36.353  35.277  12.590
 6768W        W73177  43.505   3.714  10.177
 6769W        W73178  13.033  34.659  13.347
 6770W        W73179  41.900  42.292   3.663
 6771W        W73180  27.542  29.885   1.665
 6772W        W73181  23.579  13.207  14.283
 6773W        W73182  21.984  30.071  11.213
 6774W        W73183  23.347   8.209  13.844
 6775W        W73184  23.422   8.602  11.400
 6776W        W73185  28.768  31.701  14.016
 6777W        W73186  24.301  43.988   0.485
 6778W        W73187  17.044  35.415  13.877
 6779W        W73188  23.722   2.816  14.859
 6780W        W73189  37.488  39.989   3.213
 6781W        W73190  38.267   3.646  14.280
 6782W        W73191  40.311  16.661   0.871
 6783W        W73192  17.982  39.591   1.790
 6784W        W73193   5.427   2.460   4.200
 6785W        W73194  16.304  11.124   2.911
 6786W        W73195  14.082  19.337   3.213
 6787W        W73196  35.096  30.667  14.301
 6788W        W73197  28.504   6.249  14.473
 6789W        W73198  27.892  31.319   2.176
 6790W        W73199   4.273  28.602   4.380
 6791W        W73200  16.602  25.509   1.226
 6792W        W73201  34.146  29.956   2.907
 6793W        W73202  37.392  21.614   2.698
 6794W        W73203  32.357  13.281  11.732
 6795W        W73204  27.711  41.460  10.949
 6796W        W73205  25.581  24.019   2.438
 6797W        W73206   2.482   9.602  11.516
 6798W        W73207  26.216   9.650  13.816
 6799W        W73208  14.192  41.711   5.027
 6800W        W73209  15.389   9.224  12.185
 6801W        W73210  34.270   4.150   3.701
 6802W        W73211  40.059   7.208  10.643
 6803W        W73212  34.812  28.950  11.185
 6804W        W73213  41.526  38.412   1.318
 6805W        W73214  28.362  44.104  10.442
 6806W        W73215  21.989  31.164   0.900
 6807W        W73216   7.771  12.911   0.411
 6808W        W73217   1.431  15.332  13.004
 6809W        W73218  18.544  24.720  13.756
 6810W        W73219  27.929   3.345   4.653
 6811W        W73220  32.634  17.151   3.438
 6812W        W73221   7.317  29.639  13.335
 6813W        W73222   0.997  22.958   1.340
 6814W        W73223  38.132   4.320  11.540
 6815W        W73224  12.569  14.136   1.889
 6816W        W73225  30.166  32.392   2.212
 6817W        W73226  33.364  39.559   2.138
 6818W        W73227   5.659  10.332  10.755
 6819W        W73228   9.904  14.610   3.160
 6820W        W73229  36.431   6.396   4.412
 6821W        W73230   7.321   3.354  13.762
 6822W        W73231  44.441  26.191   1.545
 6823W        W73232  31.392   4.007  12.929
 6824W        W73233  40.815  19.130   0.780
 6825W        W73234  25.705  31.256   0.728
 6826W        W73235  20.048  39.681  11.961
 6827W        W73236  30.400  12.396  14.471
 6828W        W73237   5.793   8.305   3.617
 6829W        W73238   7.693  11.837  12.034
 6830W        W73239   0.436   8.269  10.500
 6831W        W73240   8.293  34.848  13.372
 6832W        W73241  41.893  16.147  10.607
 6833W        W73242  15.144  32.754  11.557
 6834W        W73243   2.326  29.202   3.332
 6835W        W73244  10.908  30.686   2.238
 6836W        W73245   5.469  28.265  13.481
 6837W        W73246  35.117  19.130  14.992
 6838W        W73247  17.559  37.550   2.252
 6839W        W73248   6.659  38.997  10.755
 6840W        W73249  40.987  36.527   0.629
 6841W        W73250  19.316  14.897   0.340
 6842W        W73251  33.833  13.737   2.429
 6843W        W73252  26.135  33.060  12.054
 6844W        W73253  38.354   7.243   4.245
 6845W        W73254  43.923  10.157  13.041
 6846W        W73255   8.532  14.140   3.573
 6847W        W73256  20.801  20.299  13.911
 6848W        W73257  20.276  22.922   0.736
 6849W        W73258  24.855  15.268  10.740
 6850W        W73259  19.150  23.243   3.409
 6851W        W73260   7.291   1.467  14.963
 6852W        W73261  28.007  42.440  13.373
 6853W        W73262  44.150  37.541  14.598
 6854W        W73263  20.763  24.534   0.706
 6855W        W73264  30.885  27.683  11.540
 6856W        W73265  14.640  15.288  12.344
 6857W        W73266  17.732  27.113   4.710
 6858W        W73267  25.470  30.521   1.859
 6859W        W73268  36.478  28.836   3.844
 6860W        W73269  36.992   3.807  13.861
 6861W        W73270  23.613   5.532   2.850
 6862W        W73271  16.334  40.537   1.654
 6863W        W73272  22.770  15.535   4.188
 6864W        W73273   7.778  18.496  14.928
 6865W        W73274   9.469  44.846   4.196
 6866W        W73275  12.381  44.349  13.821
 6867W        W73276  13.952  26.490   3.493
 6868W        W73277  37.604  44.385  12.693
 6869W        W73278  16.878  30.586  13.604
 6870W        W73279  31.322  12.938  11.189
 6871W        W73280  23.026  13.481   0.583
 6872W        W73281  35.535  44.272  14.432
 6873W        W73282  26.530  23.996   3.104
 6874W        W73283  31.597  35.439   3.874
 6875W        W73284   9.624  37.084  10.595
 6876W        W73285  12.784  39.891  12.062
 6877W        W73286   4.713  26.472   1.803
 6878W        W73287   3.428  43.713  10.556
 6879W        W73288  14.517   0.935  13.479
 6880W        W73289  35.803  34.636   4.279
 6881W        W73290  32.630  12.357   1.477
 6882W        W73291  27.481  12.717  14.819
 6883W        W73292   3.733  17.216  12.617
 6884W        W73293  22.079  21.597   3.805
 6885W        W73294  40.623   7.114  11.428
 6886W        W73295  33.728   9.330   2.283
 6887W        W73296  19.087  10.393  12.868
 6888W        W73297  16.361  14.890  12.351
 6889W        W73298  25.490  43.643  14.975
 6890W        W73299  26.694  14.852  14.880
 6891W        W73300   9.803  41.003  13.567
 6892W        W73301   9.079  16.846   1.179
 6893W        W73302  21.099  27.002  14.870
 6894W        W73303  32.389  28.679   1.808
 6895W        W73304  20.141   3.719  14.375
 6896W        W73305  13.720  39.217  14.460
 6897W        W73306   0.754  33.120   5.005
 6898W        W73307  23.997   1.759   4.529
 6899W        W73308   9.762   0.933  14.464
 6900W        W73309  25.484   5.691  14.981
 6901W        W73310  16.125   8.928  13.107
 6902W        W73311  23.111  38.267  12.438
 6903W        W73312  43.858  36.657   4.381
 6904W        W73313  24.022   3.005  12.943
 6905W        W73314   2.923  31.320   4.282
 6906W        W73315  42.457  13.334   2.679
 6907W        W73316  14.734   2.236  10.964
 6908W        W73317  20.307  23.095  11.215
 6909W        W73318  40.718   9.687   0.852
 6910W        W73319  20.681   1.977  11.527
 6911W        W73320  34.366  33.653   2.399
 6912W        W73321  25.708  39.927   2.087
 6913W        W73322  25.664  14.830  10.701
 6914W        W73323  23.542  26.780   3.316
 6915W        W73324   5.511  37.472  11.472
 6916W        W73325  43.446  29.100  14.032
 6917W        W73326  21.592  26.847   0.266
 6918W        W73327  33.894  30.040   0.892
 6919W        W73328  24.807   0.332   0.505
 6920W        W73329  37.258  20.522  13.941
 6921W        W73330  25.606  27.499  12.638
 6922W        W73331  29.405   3.077   4.855
 6923W        W73332   6.055  38.464  10.528
 6924W        W73333   3.335  21.163   1.405
 6925W        W73334   8.322  32.411   1.503
 6926W        W73335  16.164  39.261   0.164
 6927W        W73336   0.890  14.865   4.732
 6928W        W73337  14.346  33.059   2.139
 6929W        W73338  24.643  43.013  13.089
 6930W        W73339   7.171  39.081  11.554
 6931W        W73340  39.201  11.558   3.343
 6932W        W73341  23.499  27.620  14.678
 6933W        W73342  26.096  14.576  14.843
 6934W        W73343  12.404  27.484  12.050
 6935W        W73344  24.498  24.492   0.770
 6936W        W73345  24.556  41.522   3.155
 6937W        W73346  28.605   2.913  11.940
 6938W        W73347  37.325  13.660  11.084
 6939W        W73348  26.106  40.751   2.220
 6940W        W73349  34.891   1.888   2.418
 6941W        W73350  36.674  15.465   0.833
 6942W        W73351  18.268  22.618  10.472
 6943W        W73352   5.302   8.522   4.740
 6944W        W73353  20.813  32.444   0.008
 6945W        W73354   9.832  11.849   0.053
 6946W        W73355  26.154  38.718  11.136
 6947W        W73356  31.094  32.400   0.908
 6948W        W73357   4.671   2.777  12.485
 6949W        W73358  32.403  15.808   1.769
 6950W        W73359   4.507   3.302  10.966
 6951W        W73360  18.600   3.781   2.195
 6952W        W73361  24.438  26.640  14.980
 6953W        W73362  18.719  42.443   3.186
 6954W        W73363  30.414  30.368   0.819
 6955W        W73364   2.898  13.326   0.312
 6956W        W73365  31.197   0.723   0.355
 6957W        W73366  29.473  11.260  13.068
 6958W        W73367  41.332  35.089   4.895
 6959W        W73368   2.380  43.557   3.679
 6960W        W73369   0.430  30.850  11.719
 6961W        W73370  15.786  36.290   4.125
 6962W        W73371  28.202  17.011   3.741
 6963W        W73372  24.161  35.811   4.249
 6964W        W73373  13.595   6.599  12.737
 6965W        W73374  37.992  43.256  14.464
 6966W        W73375   8.203   4.012  11.929
 6967W        W73376  10.188  44.841  13.787
 6968W        W73377  31.630  12.660  11.617
 6969W        W73378  28.552  35.371  13.403
 6970W        W73379  27.092  44.139  12.019
 6971W        W73380  43.703  12.060   1.376
 6972W        W73381  20.323  43.032   4.985
 6973W        W73382  36.419  40.889  13.372
 6974W        W73383  20.815  30.373  13.957
 6975W        W73384   4.307  34.841   3.279
 6976W        W73385  33.964  38.615  11.073
 6977W        W73386  36.448  44.476   3.276
 6978W        W73387  10.425   6.496  10.664
 6979W        W73388  12.268   3.529   5.065
 6980W        W73389  15.089  25.616  12.514
 6981W        W73390  37.873   6.345  14.826
 6982W        W73391  10.655  23.270  12.077
 6983W        W73392   5.702  24.469  13.140
 6984W        W73393  35.904  17.099   0.270
 6985W        W73394  31.630  12.921   0.248
 6986W        W73395  25.699  31.919  14.513
 6987W        W73396   9.936   9.410  11.041
 6988W        W73397  42.639  10.672   2.679
 6989W        W73398  38.043  44.920   1.016
 6990W        W73399  25.149   5.130   1.954
 6991W        W73400   7.405  32.436   0.062
 6992W        W73401  34.978  37.450   2.672
 6993W        W73402  30.722  41.202  12.061
 6994W        W73403  12.826  29.415  13.097
 6995W        W73404  41.700  42.788  14.223
 6996W        W73405  31.458  39.236  12.609
 6997W        W73406   9.141  39.118  12.541
 6998W        W73407  26.274  28.087  12.483
 6999W        W73408  27.119   2.231   4.067
 7000W        W73409  23.751  18.504  13.653
 7001W        W73410  43.860  27.365  12.895
 7002W        W73411  41.055   8.597  12.119
 7003W        W73412  32.331  24.471  14.888
 7004W        W73413  12.451   2.716   4.503
 7005W        W73414   7.674   9.194  10.648
 7006W        W73415  24.660  39.826  10.609
 7007W        W73416  13.359  30.850   3.685
 7008W        W73417  13.745  41.400   0.516
 7009W        W73418  34.443  43.885  13.728
 7010W        W73419  26.307  32.928  14.785
 7011W        W73420  34.439  14.364  14.287
 7012W        W73421  10.619  24.702   2.266
 7013W        W73422  35.780  16.974   5.390
 7014W        W73423  41.021  43.013   0.682
 7015W        W73424   6.595  28.161  14.205
 7016W        W73425   8.645   9.889  10.547
 7017W        W73426  20.667   9.439   3.199
 7018W        W73427  16.758   0.026   3.280
 7019W        W73428   2.742  15.136   4.842
 7020W        W73429   4.714   2.020  12.972
 7021W        W73430  26.890   1.271   4.476
 7022W        W73431  24.544  29.650  14.705
 7023W        W73432  37.813  33.068   0.689
 7024W        W73433   5.659  40.936   0.847
 7025W        W73434  20.569   2.010  13.955
 7026W        W73435  31.031  24.083   2.814
 7027W        W73436  21.982  36.639  10.697
 7028W        W73437  17.504   4.863  11.678
 7029W        W73438   1.913  29.675   2.408
 7030W        W73439   1.839  41.984  13.995
 7031W        W73440  29.117   4.400  13.055
 7032W        W73441  22.436   0.848   2.026
 7033W        W73442  24.925  19.650  11.490
 7034W        W73443  43.384   9.608   2.275
 7035W        W73444  28.596   8.305   2.627
 7036W        W73445  15.776  27.771  13.711
 7037W        W73446  44.018  41.392  13.873
 7038W        W73447   1.479  18.336   1.632
 7039W        W73448  30.518  42.080   2.289
 7040W        W73449   8.411  23.444   5.176
 7041W        W73450  43.518  14.604   2.239
 7042W        W73451   5.997  36.402  11.853
 7043W        W73452  34.877   8.993   1.476
 7044W        W73453  33.387  43.891   1.710
 7045W        W73454  41.074  37.457   0.783
 7046W        W73455  25.055  21.265   0.797
 7047W        W73456  13.367  37.682   2.267
 7048W        W73457  17.342  10.918   0.932
 7049W        W73458  38.753  28.567   4.120
 7050W        W73459  43.477  42.460  10.660
 7051W        W73460  31.713  21.934   0.388
 7052W        W73461   8.117  43.778   3.639
 7053W        W73462  40.918  10.729  11.671
 7054W        W73463  42.946   5.277  13.147
 7055W        W73464  30.002   4.872  10.325
 7056W        W73465  26.212   5.675   1.336
 7057W        W73466  29.114   2.553   2.711
 7058W        W73467  30.070  17.202   4.601
 7059W        W73468  29.005   6.923  13.636
 7060W        W73469  17.724  16.287  14.003
 7061W        W73470  28.709  25.010  12.156
 7062W        W73471  30.209   9.066   2.886
 7063W        W73472  27.707  41.880   2.028
 7064W        W73473  23.708  42.205   3.823
 7065W        W73474  34.386  28.661  11.183
 7066W        W73475  17.838  31.082   3.112
 7067W        W73476  39.416   4.955   9.941
 7068W        W73477  29.146  13.391   2.191
 7069W        W73478  35.025  29.457   4.134
 7070W        W73479  23.662  17.604   4.854
 7071W        W73480  22.717  31.616   0.456
 7072W        W73481   0.047  22.101  11.185
 7073W        W73482  21.859  36.522  14.482
 7074W        W73483  39.949  41.843   4.553
 7075W        W73484  21.789  35.425   2.800
 7076W        W73485  20.646  23.101  11.587
 7077W        W73486  30.433  35.057   2.720
 7078W        W73487  17.020  37.303  12.956
 7079W        W73488  14.203   7.632  13.387
 7080W        W73489  15.299  18.168   3.802
 7081W        W73490  32.371  24.574   4.733
 7082W        W73491  23.014  17.278   1.325
 7083W        W73492  34.041  16.992  14.758
 7084W        W73493  23.686  15.822  14.563
 7085W        W73494  27.142  12.403   1.230
 7086W        W73495  32.903  21.853   3.383
 7087W        W73496   0.450  24.531  11.559
 7088W        W73497  16.046   3.446  11.068
 7089W        W73498   6.845  35.825   3.147
 7090W        W73499  35.842   8.141  14.515
 7091W        W73500  14.760  30.845  10.820
 7092W        W73501   4.947  11.219   0.981
 7093W        W73502  43.961  29.977   0.770
 7094W        W73503  37.916  36.049  14.900
 7095W        W73504  32.988  19.595   1.184
 7096W        W73505  32.462  23.602  11.062
 7097W        W73506  32.095   5.297   3.021
 7098W        W73507   3.795  17.175  14.288
 7099W        W73508  44.828  14.266  12.448
 7100W        W73509  10.845  19.124   4.212
 7101W        W73510  10.109   9.411  14.218
 7102W        W73511  28.861  42.879  13.469
 7103W        W73512  43.859   9.166   0.496
 7104W        W73513  42.598   3.307   1.207
 7105W        W73514   5.230  29.729  11.764
 7106W        W73515  11.532  28.053   4.994
 7107W        W73516  24.963  44.129   2.954
 7108W        W73517  18.205  13.858   1.769
 7109W        W73518  23.017   1.147  13.117
 7110W        W73519  31.054  19.031   2.178
 7111W        W73520  31.688  31.064  13.869
 7112W        W73521   0.018   8.545  10.686
 7113W        W73522  32.391  25.669   0.579
 7114W        W73523  10.601  10.123  14.501
 7115W        W73524  18.361  21.395   1.644
 7116W        W73525  11.646  18.675   1.935
 7117W        W73526   3.394  21.358  14.143
 7118W        W73527  25.221  14.386  11.627
 7119W        W73528  20.293  10.694  12.475
 7120W        W73529  13.956   7.665   5.052
 7121W        W73530   7.959   2.806  11.562
 7122W        W73531  25.611  32.529  13.817
 7123W        W73532  19.114  29.312   4.574
 7124W        W73533  24.179  40.948  11.097
 7125W        W73534  21.651  38.806  10.208
 7126W        W73535  21.003   3.138   0.356
 7127W        W73536  25.222   2.232   4.895
 7128W        W73537  33.388   3.319   0.877
 7129W        W73538  40.833  23.818   0.430
 7130W        W73539  19.554   3.489   4.585
 7131W        W73540  24.376  25.509   3.285
 7132W        W73541   1.057  24.439   0.332
 7133W        W73542  27.461  29.657  11.237
 7134W        W73543  22.047  40.586   4.279
 7135W        W73544  29.355  31.658   0.422
 7136W        W73545  23.462   5.641  14.383
 7137W        W73546   3.023   7.502  14.494
 7138W        W73547  38.256   0.468  14.463
 7139W        W73548  36.973  25.670   4.693
 7140W        W73549  32.157  38.897   1.954
 7141W        W73550  41.748  19.145   1.831
 7142W        W73551  39.411   8.142  13.130
 7143W        W73552  42.863  26.275   1.616
 7144W        W73553  28.509  17.273   0.325
 7145W        W73554  44.290  44.813  14.413
 7146W        W73555  34.216  15.613  10.661
 7147W        W73556  38.856   5.948   2.442
 7148W        W73557  43.474   1.785  14.438
 7149W        W73558  14.412  26.598   4.660
 7150W        W73559  40.947  11.463  11.990
 7151W        W73560  24.546  27.708   4.114
 7152W        W73561  44.724  16.804  11.027
 7153W        W73562  13.568  19.528   3.181
 7154W        W73563   7.892   9.644   2.380
 7155W        W73564  26.029  14.217   2.866
 7156W        W73565  18.818   3.688  12.545
 7157W        W73566   7.184  20.788   3.555
 7158W        W73567   0.267  20.210   0.495
 7159W        W73568  29.593  38.091   2.815
 7160W        W73569  26.763  12.555  13.736
 7161W        W73570  40.141   5.381   4.516
 7162W        W73571  23.192  33.353  13.389
 7163W        W73572  36.801  12.825   2.366
 7164W        W73573  29.385  12.129   3.320
 7165W        W73574  14.842   0.761   3.707
 7166W        W73575  39.711  33.201  11.625
 7167W        W73576  42.238  21.639  13.566
 7168W        W73577  44.042  28.683   4.072
 7169W        W73578  13.576   1.676   3.223
 7170W        W73579   0.848  31.158  13.948
 7171W        W73580  43.600   4.209  11.115
 7172W        W73581  37.965  24.212   3.568
 7173W        W73582  26.399  15.619   4.089
 7174W        W73583  33.561  43.431  11.688
 7175W        W73584   2.491  32.108   4.632
 7176W        W73585  30.110  12.439   2.160
 7177W        W73586   8.521  12.748  11.335
 7178W        W73587  19.642  29.021   2.671
 7179W        W73588  41.098  31.965   4.310
 7180W        W73589  44.671   1.502   5.003
 7181W        W73590  38.476  15.697   0.481
 7182W        W73591  26.646  21.487   4.214
 7183W        W73592  14.296  39.880   2.823
 7184W        W73593  27.972   3.490   2.761
 7185W        W73594  39.568  23.529  13.162
 7186W        W73595  22.212  38.811  12.870
 7187W        W73596  30.053  10.638  12.022
 7188W        W73597  38.407  33.950  10.723
 7189W        W73598  16.263   7.930   2.856
 7190W        W73599  40.359  29.526   4.735
 7191W        W73600  25.498  18.251  13.062
 7192W        W73601  24.682  11.760  14.179
 7193W        W73602  24.489  17.694  11.656
 7194W        W73603  39.939  12.414   2.396
 7195W        W73604  36.023   6.912   3.159
 7196W        W73605  36.169  21.905  10.701
 7197W        W73606  12.896   3.407   3.341
 7198W        W73607  18.672  20.780   4.551
 7199W        W73608  30.430  16.791   3.814
 7200W        W73609  16.143  43.016   2.828
 7201W        W73610   2.322  38.466  13.144
 7202W        W73611  31.070  40.460  13.987
 7203W        W73612   8.726  19.352   1.244
 7204W        W73613  26.705   2.862   3.504
 7205W        W73614  26.919  18.713   2.332
 7206W        W73615  33.425  24.784  14.024
 7207W        W73616  14.857  22.686  14.215
 7208W        W73617  15.755  25.598  14.301
 7209W        W73618   4.402   3.236  12.330
 7210W        W73619  27.936  21.031  14.789
 7211W        W73620  34.956  42.893   0.872
 7212W        W73621   9.618  27.643  12.439
 7213W        W73622  24.170  42.642  14.716
 7214W        W73623  38.373  44.803   2.798
 7215W        W73624  12.883  27.613   2.143
 7216W        W73625  25.749  36.038   3.444
 7217W        W73626  30.811   4.014  12.035
 7218W        W73627  35.184  18.610  11.706
 7219W        W73628  43.875  40.139   0.348
 7220W        W73629  44.934   3.033   4.536
 7221W        W73630  38.694   1.134  14.237
 7222W        W73631  13.596  21.797   1.885
 7223W        W73632   9.814  39.142  13.922
 7224W        W73633   1.220  20.717   4.165
 7225W        W73634   9.161  16.615   4.701
 7226W        W73635  15.117  20.162  12.433
 7227W        W73636  37.272  39.287   1.201
 7228W        W73637  34.241  32.872   0.466
 7229W        W73638  24.295  16.205  10.966
 7230W        W73639  43.177  20.207  12.912
 7231W        W73640  30.956  18.860   2.717
 7232W        W73641  30.714   6.394  10.554
 7233W        W73642  34.288  36.981   0.744
 7234W        W73643   5.704  15.863   1.879
 7235W        W73644   7.083  10.669   0.809
 7236W        W73645  18.246  21.645  14.821
 7237W        W73646  42.418  24.564  11.536
 7238W        W73647  36.286  16.753   4.586
 7239W        W73648  19.780  16.496  14.033
 7240W        W73649  31.990  26.134  11.876
 7241W        W73650   9.785  10.291  13.572
 7242W        W73651  15.038  11.930   3.705
 7243W        W73652  19.139  36.805  12.427
 7244W        W73653  30.109  16.588  14.946
 7245W        W73654  44.509  37.154  12.449
 7246W        W73655  11.125  16.776   0.228
 7247W        W73656  26.006   6.551   4.228
 7248W        W73657  10.283   5.026  11.442
 7249W        W73658  13.732  43.397  11.642
 7250W        W73659  28.986  44.670  12.100
 7251W        W73660  39.311  43.282   4.814
 7252W        W73661   5.309  22.494   1.776
 7253W        W73662  17.023  36.128  13.348
 7254W        W73663   2.887  28.620  14.355
 7255W        W73664  28.639  37.931  10.423
 7256W        W73665   9.601  25.157   1.623
 7257W        W73666  31.038  19.866  14.290
 7258W        W73667  24.098  43.223   2.025
 7259W        W73668  18.522  35.496   4.795
 7260W        W73669  23.293   1.460   1.290
 7261W        W73670  16.636  10.733   3.132
 7262W        W73671  39.188  12.592   4.012
 7263W        W73672  22.163  22.749  11.882
 7264W        W73673  42.828  17.262   4.764
 7265W        W73674  38.658   3.711  12.477
 7266W        W73675  16.041  13.196  12.946
 7267W        W73676  19.148  43.113  14.093
 7268W        W73677  43.391  35.000  13.452
 7269W        W73678  16.757   6.957  13.051
 7270W        W73679  38.935  17.374   0.681
 7271W        W73680  37.422  34.146   1.439
 7272W        W73681  40.117  37.631  10.552
 7273W        W73682  29.471  34.361  14.042
 7274W        W73683   2.121  26.134   4.619
 7275W        W73684  23.054  26.141  13.728
 7276W        W73685  25.654  24.233  11.986
 7277W        W73686  29.312  11.185   2.683
 7278W        W73687  13.273  21.558  13.984
 7279W        W73688  26.441  14.455  13.864
 7280W        W73689  26.102  36.009   3.874
 7281W        W73690  35.496  24.792  14.838
 7282W        W73691  27.995  20.044   3.453
 7283W        W73692  15.577  14.831  11.200
 7284W        W73693  17.988  25.188  12.112
 7285W        W73694  26.457  23.286  12.964
 7286W        W73695   0.469  33.045  13.382
 7287W        W73696  43.309   4.417   2.749
 7288W        W73697   8.602  20.337   3.211
 7289W        W73698  42.442  35.088  11.575
 7290W        W73699  21.473  41.316   3.333
 7291W        W73700  13.177   1.480  10.634
 7292W        W73701  25.409  39.957   1.664
 7293W        W73702  14.770  28.943  13.786
 7294W        W73703  28.936   0.084   2.750
 7295W        W73704  44.668  42.378   3.955
 7296W        W73705  26.960   1.324   2.090
 7297W        W73706  44.670   3.468   0.254
 7298W        W73707   5.438  21.277  13.402
 7299W        W73708  31.691  39.754  12.803
 7300W        W73709   1.439  18.164   3.220
 7301W        W73710  14.427   6.958  14.385
 7302W        W73711  15.299   4.862  13.139
 7303W        W73712  41.558  32.498   1.775
 7304W        W73713  43.830  13.091   4.325
 7305W        W73714  19.491  41.416   4.485
 7306W        W73715  40.290  24.039   4.843
 7307W        W73716  24.294  13.753  12.435
 7308W        W73717  19.866  36.517   4.608
 7309W        W73718  23.275  43.779   4.157
 7310W        W73719  30.555   2.928  13.784
 7311W        W73720  20.152  44.530  13.758
 7312W        W73721   3.508  27.496  13.503
 7313W        W73722  37.504  40.283  10.719
 7314W        W73723  35.904   3.982   3.121
 7315W        W73724  42.163  41.588   1.263
 7316W        W73725   9.650  40.447   3.619
 7317W        W73726  31.691  43.914   4.245
 7318W        W73727  39.515  41.674  13.865
 7319W        W73728  20.696  37.557   2.844
 7320W        W73729  18.419   7.713  12.849
 7321W        W73730  28.149  36.033   4.117
 7322W        W73731   1.578  36.394  13.038
 7323W        W73732   9.355  36.021  12.867
 7324W        W73733  33.627  34.550  13.544
 7325W        W73734  29.485  26.735   1.390
 7326W        W73735  42.959  37.392   3.464
 7327W        W73736  31.643  28.339  11.106
 7328W        W73737  14.460  42.191  12.460
 7329W        W73738  20.277  41.116  12.908
 7330W        W73739  14.455   2.694  14.287
 7331W        W73740  31.269  14.453  12.858
 7332W        W73741  22.912   5.382   3.247
 7333W        W73742  44.176  15.520  13.468
 7334W        W73743  15.686  18.536   2.727
 7335W        W73744  12.276  31.583  12.233
 7336W        W73745  33.021  27.051  14.844
 7337W        W73746  43.140  40.632   2.212
 7338W        W73747  23.538   5.608   3.733
 7339W        W73748  40.062  13.683   0.892
 7340W        W73749  27.566  23.147  14.762
 7341W        W73750  24.203  35.309   0.223
 7342W        W73751   9.172  44.533   3.682
 7343W        W73752   9.065   9.198   2.234
 7344W        W73753  14.565  34.987   2.767
 7345W        W73754  20.050  39.769  10.695
 7346W        W73755  27.858  28.634   3.267
 7347W        W73756  32.086  25.324   4.076
 7348W        W73757  12.760  11.845   2.220
 7349W        W73758  43.272  16.107  11.764
 7350W        W73759  28.438   7.136   3.260
 7351W        W73760   9.861  27.119   0.079
 7352W        W73761   1.656  17.255   0.045
 7353W        W73762  16.184  41.957  12.878
 7354W        W73763  41.822  44.695   1.026
 7355W        W73764   5.409   4.700  14.884
 7356W        W73765  36.675  35.814   4.360
 7357W        W73766  13.356   8.187   2.308
 7358W        W73767  21.567   3.683  14.067
 7359W        W73768  40.364   2.882  12.558
 7360W        W73769  36.577   8.352   2.894
 7361W        W73770  24.959  13.399  13.690
 7362W        W73771  35.389  41.949   0.115
 7363W        W73772  22.178  39.485   2.702
 7364W        W73773  37.815  14.264   4.238
 7365W        W73774   6.824  29.161  13.809
 7366W        W73775  15.314   7.737  13.855
 7367W        W73776  34.560   9.905  10.990
 7368W        W73777  41.887  25.527  13.086
 7369W        W73778  36.587  39.056  14.335
 7370W        W73779   6.279  12.265  11.616
 7371W        W73780  25.943  24.334   0.769
 7372W        W73781   2.892  33.592   0.892
 7373W        W73782  34.443  22.695  13.876
 7374W        W73783  33.589  23.543   1.418
 7375W        W73784  19.345   8.924   4.299
 7376W        W73785  43.045  16.535  10.577
 7377W        W73786  15.599  30.916  12.089
 7378W        W73787  41.427   4.213  14.940
 7379W        W73788  27.929  11.365   5.026
 7380W        W73789  34.130   7.252  12.802
 7381W        W73790  34.147  33.439  14.805
 7382W        W73791   4.919  15.872  12.065
 7383W        W73792   8.527  26.539  13.103
 7384W        W73793   3.300  39.587  13.143
 7385W        W73794  31.587  10.570  12.317
 7386W        W73795  29.880  36.972   1.713
 7387W        W73796  13.435  16.650  11.691
 7388W        W73797  29.732  35.584  13.458
 7389W        W73798  18.825  15.025  13.346
 7390W        W73799  35.452  14.249  12.101
 7391W        W73800   6.718  24.214  13.980
 7392W        W73801  16.999  30.946  11.093
 7393W        W73802  19.367  20.712  12.500
 7394W        W73803  15.796  18.960  14.778
 7395W        W73804  35.688  21.524  13.573
 7396W        W73805  42.420  10.366  13.427
 7397W        W73806  31.279  18.662   4.441
 7398W        W73807  26.967  27.554  12.078
 7399W        W73808  30.150  21.513   2.748
 7400W        W73809  30.033   0.282  12.580
 7401W        W73810  28.653  20.747  14.565
 7402W        W73811  30.642   8.279  13.899
 7403W        W73812  26.520   5.367   3.616
 7404W        W73813  14.774  24.977   2.799
 7405W        W73814  41.339  41.121   2.858
 7406W        W73815  41.525   7.222  14.301
 7407W        W73816  20.100  33.410  13.030
 7408W        W73817   2.155   7.419   2.892
 7409W        W73818  38.859  24.471   4.117
 7410W        W73819   2.433  11.856  14.931
 7411W        W73820  35.561  39.245   0.660
 7412W        W73821  18.496  33.152  11.983
 7413W        W73822  30.598  31.375   2.827
 7414W        W73823  26.696  30.386   4.182
 7415W        W73824  41.388  10.408  13.459
 7416W        W73825  25.459  10.450  13.370
 7417W        W73826  33.104  34.629  10.776
 7418W        W73827  11.594   5.476   1.722
 7419W        W73828  14.083  14.297   2.768
 7420W        W73829   3.332   4.925   0.203
 7421W        W73830  21.547   4.814   3.141
 7422W        W73831  22.186   9.765  12.024
 7423W        W73832  25.502  16.564   3.419
 7424W        W73833  13.094   5.307   1.997
 7425W        W73834  15.622  24.115  14.272
 7426W        W73835   8.781   6.012  13.313
 7427W        W73836  40.210  44.981  11.580
 7428W        W73837  27.917  16.688  10.810
 7429W        W73838   2.681  33.042   3.206
 7430W        W73839  21.992  30.004   1.423
 7431W        W73840  28.605   4.884  13.771
 7432W        W73841  35.030  34.191  10.167
 7433W        W73842  19.291  36.413   3.801
 7434W        W73843  44.130  41.838  11.045
 7435W        W73844   5.314  25.518   1.120
 7436W        W73845  22.849  41.779   4.236
 7437W        W73846  17.237  29.218  13.451
 7438W        W73847  11.244  14.650  14.395
 7439W        W73848   5.345  31.921   2.153
 7440W        W73849  36.928  44.686   9.992
 7441W        W73850  43.839  28.367   2.654
 7442W        W73851   7.890   1.859  12.665
 7443W        W73852  37.416   4.780  12.027
 7444W        W73853  41.515  11.606   0.267
 7445W        W73854  43.995  35.446  12.957
 7446W        W73855  27.502  16.774  13.574
 7447W        W73856  30.998  24.661   4.177
 7448W        W73857   3.754  30.908   4.824
 7449W        W73858  12.835   2.324  11.850
 7450W        W73859  32.415   9.796   4.130
 7451W        W73860  17.488  13.274   4.571
 7452W        W73861   0.940  32.312  11.699
 7453W        W73862  35.868  13.273  12.784
 7454W        W73863  17.986  17.203   1.889
 7455W        W73864  32.037   1.262   4.170
 7456W        W73865  37.760  16.034   3.584
 7457W        W73866  19.660   6.780  13.977
 7458W        W73867  41.860  33.869   2.390
 7459W        W73868   9.721  36.866  12.479
 7460W        W73869  13.317   0.286  14.888
 7461W        W73870  18.714  42.495  14.417
 7462W        W73871  21.161  40.593   2.884
 7463W        W73872  43.592  40.796  12.883
 7464W        W73873   8.961  36.638   1.712
 7465W        W73874   0.711  20.026  12.054
 7466W        W73875   0.494  35.528  10.704
 7467W        W73876  11.421  40.294  12.121
 7468W        W73877  37.616  37.082  13.892
 7469W        W73878  42.241  18.097   1.265
 7470W        W73879   4.711  18.730  11.235
 7471W        W73880  43.962  37.056  14.540
 7472W        W73881  20.674  39.147   3.792
 7473W        W73882  31.049  25.177  12.348
 7474W        W73883  16.572  34.140   3.301
 7475W        W73884  13.743  25.922   1.002
 7476W        W73885  29.670   2.695  10.230
 7477W        W73886  11.078  12.677  13.882
 7478W        W73887  36.021  28.133  13.059
 7479W        W73888  14.931  31.271  12.397
 7480W        W73889  37.493  34.206   4.344
 7481W        W73890   5.107  13.695   0.430
 7482W        W73891  29.615   3.940  12.345
 7483W        W73892   8.897  44.508  11.085
 7484W        W73893  25.083   4.465  11.132
 7485W        W73894  12.745   3.723  14.915
 7486W        W73895  25.733  16.366  11.967
 7487W        W73896  38.961   3.973  14.771
 7488W        W73897  25.347  42.692  10.916
 7489W        W73898  22.378  42.876  10.137
 7490W        W73899  40.300  18.295   2.285
 7491W        W73900  43.029  13.834   2.858
 7492W        W73901  12.360  40.523   1.053
 7493W        W73902  28.179   3.093  14.623
 7494W        W73903  34.472  42.096  13.995
 7495W        W73904  21.294  27.000   3.872
 7496W        W73905  26.191  31.109   0.874
 7497W        W73906  20.662  44.729   0.024
 7498W        W73907  13.138  33.906   0.217
 7499W        W73908  19.336  35.602  12.875
 7500W        W73909  43.969  22.330   1.937
 7501W        W73910   3.185   0.482  13.592
 7502W        W73911  26.582  23.815  14.057
 7503W        W73912  29.814  26.985   4.098
 7504W        W73913  16.157  42.041  13.857
 7505W        W73914  12.287  36.109  10.276
 7506W        W73915  17.299  33.431  14.787
 7507W        W73916  19.755  17.006   4.565
 7508W        W73917   7.191   6.984   0.489
 7509W        W73918  25.704  26.249  14.844
 7510W        W73919   6.178  17.082   4.345
 7511W        W73920  38.064  26.596   2.307
 7512W        W73921  27.636  44.937   1.207
 7513W        W73922  21.938  26.227   2.414
 7514W        W73923  16.678  14.607  12.834
 7515W        W73924  15.360  25.573   3.153
 7516W        W73925  26.001   6.154   1.927
 7517W        W73926  11.543   4.000   4.632
 7518W        W73927  21.140  36.938  11.870
 7519W        W73928  20.598  37.510   1.082
 7520W        W73929  26.972  26.922   2.644
 7521W        W73930   6.824  13.141   0.257
 7522W        W73931   0.064  41.297  14.593
 7523W        W73932  16.239   4.778   4.617
 7524W        W73933  38.559   0.011   0.838
 7525W        W73934  33.491  12.702   3.303
 7526W        W73935  23.601  12.843  12.941
 7527W        W73936   6.315   3.569   4.083
 7528W        W73937   6.468  38.657   9.932
 7529W        W73938  23.089  30.537   3.612
 7530W        W73939  39.425  36.039   3.846
 7531W        W73940   8.221  26.095  12.054
 7532W        W73941  32.187  37.475  14.216
 7533W        W73942  16.386  34.429  14.910
 7534W        W73943  16.837  20.613   2.404
 7535W        W73944  12.899  34.051   0.702
 7536W        W73945  43.327  19.016  14.863
 7537W        W73946  11.744   7.256  11.087
 7538W        W73947   6.837  26.359   1.140
 7539W        W73948  32.446  14.812  10.610
 7540W        W73949  39.318  31.540  10.994
 7541W        W73950   0.498  29.842  11.984
 7542W        W73951  17.038   2.145  12.065
 7543W        W73952  29.198   7.147   0.208
 7544W        W73953  20.527  27.958   4.209
 7545W        W73954  44.262  18.434  13.559
 7546W        W73955   9.554  33.342  13.973
 7547W        W73956  25.116  33.850  10.706
 7548W        W73957  18.057  29.645   3.524
 7549W        W73958  15.703   0.769  13.645
 7550W        W73959  32.850  38.966  10.646
 7551W        W73960   8.144  37.311   0.834
 7552W        W73961  35.386  16.683  11.599
 7553W        W73962  23.959  40.461   3.990
 7554W        W73963  24.103  13.511   3.382
 7555W        W73964  19.976   0.372  11.454
 7556W        W73965   5.696   1.888   3.147
 7557W        W73966  36.886  13.373  11.059
 7558W        W73967  41.736  41.337   0.392
 7559W        W73968  31.353  19.596   3.135
 7560W        W73969  44.982  41.823  13.871
 7561W        W73970  44.733  24.285   2.930
 7562W        W73971  18.560  22.748   4.382
 7563W        W73972   3.816  26.269  11.555
 7564W        W73973   8.462  13.642  12.561
 7565W        W73974  13.632  24.257  11.511
 7566W        W73975  12.486  31.247  11.540
 7567W        W73976  41.613  15.117   1.349
 7568W        W73977   8.807  42.323  12.491
 7569W        W73978  13.841  44.293   0.363
 7570W        W73979  36.322   6.741   2.763
 7571W        W73980  36.797  19.800   4.130
 7572W        W73981  33.981  34.533  10.935
 7573W        W73982   1.443  39.055   2.632
 7574W        W73983   0.283  38.277  14.342
 7575W        W73984  42.844  11.767  10.561
 7576W        W73985  22.278   7.069  10.819
 7577W        W73986  14.326   8.182  13.409
 7578W        W73987  16.273  14.696   2.388
 7579W        W73988  18.104  30.518   1.830
 7580W        W73989  32.180  22.749   1.381
 7581W        W73990  33.819  31.517   3.651
 7582W        W73991   6.188   5.805   4.117
 7583W        W73992  42.095  44.787   4.287
 7584W        W73993  26.849  14.251  12.703
 7585W        W73994  22.725   0.915  12.607
 7586W        W73995  13.711  14.200   3.700
 7587W        W73996  21.118  26.264   3.709
 7588W        W73997  41.489  24.777  14.601
 7589W        W73998  30.408  33.132  12.527
 7590W        W73999  14.382  36.144   9.888
 7591W        W74000  44.919  41.590  10.623
 7592W        W74001   2.594  21.536   0.592
 7593W        W74002  44.747  37.259  12.015
 7594W        W74003  24.649  12.181  12.923
 7595W        W74004  34.448   1.200  13.413
 7596W        W74005   3.307  27.727   2.331
 7597W        W74006  20.118   9.842  13.718
 7598W        W74007  36.302  29.890   3.906
 7599W        W74008  36.461   2.766   0.109
 7600W        W74009  15.576  25.149   1.419
 7601W        W74010   6.009  35.535  11.593
 7602W        W74011   7.131  40.438   2.554
 7603W        W74012  37.780  32.650  13.902
 7604W        W74013  35.774   4.264   2.234
 7605W        W74014  43.213  10.295   3.215
 7606W        W74015   0.625   7.610  11.022
 7607W        W74016  28.673  29.676  10.611
 7608W        W74017  16.850  38.901   3.313
 7609W        W74018  32.850  28.120  10.692
 7610W        W74019  32.928  24.436   0.776
 7611W        W74020  22.638  27.732   0.382
 7612W        W74021  25.974  14.400  10.583
 7613W        W74022   5.796  18.865  14.944
 7614W        W74023   0.407   0.449   4.893
 7615W        W74024   2.545   4.404  14.816
 7616W        W74025  26.009  29.779  13.192
 7617W        W74026  33.543   0.841   1.230
 7618W        W74027  21.032  13.282   3.852
 7619W        W74028  39.961  26.623   2.650
 7620W        W74029  37.136  18.966   4.127
 7621W        W74030  17.308  11.250  10.058
 7622W        W74031  28.978  28.498   4.217
 7623W        W74032  20.854  30.475   0.814
 7624W        W74033  42.896  41.558  14.944
 7625W        W74034  43.474   5.968  13.944
 7626W        W74035  25.287  43.598   3.538
 7627W        W74036  12.159  14.131   3.218
 7628W        W74037  16.215  44.170   1.610
 7629W        W74038  20.086  28.078   1.740
 7630W        W74039  40.783  26.575  12.391
 7631W        W74040  22.970  15.723  13.591
 7632W        W74041  12.254   9.868  12.594
 7633W        W74042   6.527  31.597   0.986
 7634W        W74043  12.709  38.445   4.600
 7635W        W74044  29.968   0.207  13.454
 7636W        W74045  16.133  27.762   0.881
 7637W        W74046  34.875  13.319  13.703
 7638W        W74047  27.863   0.313  11.529
 7639W        W74048   2.957  39.104  11.538
 7640W        W74049  25.235  35.824  11.542
 7641W        W74050  24.028   9.202  11.651
 7642W        W74051  35.126  35.343  11.594
 7643W        W74052  28.930  18.601  11.036
 7644W        W74053  29.038  41.653   4.055
 7645W        W74054  30.889  27.622   3.678
 7646W        W74055  39.921  26.950   0.027
 7647W        W74056  14.901   0.568   1.267
 7648W        W74057  38.061   2.518   2.703
 7649W        W74058  14.703  30.166   4.673
 7650W        W74059  40.912  16.689  10.304
 7651W        W74060  25.937  17.454  13.603
 7652W        W74061   0.460  36.587   3.283
 7653W        W74062  31.346  25.199  13.551
 7654W        W74063  19.573  36.465  14.154
 7655W        W74064   2.824  10.323   4.414
 7656W        W74065  18.770   0.073   2.367
 7657W        W74066  17.417  11.337  11.576
 7658W        W74067  13.284  14.137   2.332
 7659W        W74068   8.688   2.978   0.688
 7660W        W74069   7.797  40.132   1.447
 7661W        W74070  26.491  14.655  12.134
 7662W        W74071  14.525   9.850  11.491
 7663W        W74072  11.699   6.327  11.213
 7664W        W74073  22.195  42.925   2.350
 7665W        W74074  41.034  11.999   3.241
 7666W        W74075  38.512   0.464   2.334
 7667W        W74076  27.536  33.251   0.201
 7668W        W74077  10.690  44.403   4.605
 7669W        W74078  26.921  31.360   0.433
 7670W        W74079   6.641  28.666  10.558
 7671W        W74080  23.067  11.748  14.421
 7672W        W74081  13.761  25.727   4.777
 7673W        W74082  10.705  27.029   1.598
 7674W        W74083  35.599   6.392   3.897
 7675W        W74084  43.489   7.106   4.033
 7676W        W74085  25.715   1.584   1.953
 7677W        W74086   1.898   1.359  10.779
 7678W        W74087   8.500  35.540  11.556
 7679W        W74088  31.108  10.262   2.575
 7680W        W74089  26.535  29.392  14.811
 7681W        W74090  40.461  11.941  11.117
 7682W        W74091  20.536  21.078   1.393
 7683W        W74092  22.050   0.361  13.446
 7684W        W74093  12.929  33.913   4.982
 7685W        W74094  37.707   8.688  14.090
 7686W        W74095  14.745  43.411   4.513
 7687W        W74096  30.217  16.645   2.779
 7688W        W74097   7.403  39.537  11.170
 7689W        W74098  11.168   1.123   3.548
 7690W        W74099  42.300  15.796   4.537
 7691W        W74100  40.362  13.091   0.379
 7692W        W74101  29.137  41.956   1.495
 7693W        W74102  22.769  34.875   0.276
 7694W        W74103  34.812  13.706  11.998
 7695W        W74104  28.240   3.908   0.095
 7696W        W74105  10.871  11.684   3.236
 7697W        W74106  26.485  27.000   1.217
 7698W        W74107  34.015  15.681  11.197
 7699W        W74108  35.589  12.603   4.170
 7700W        W74109  16.988  12.247  11.168
 7701W        W74110   0.708  12.717  14.998
 7702W        W74111  30.412   1.653   1.475
 7703W        W74112  25.754  36.685  14.969
 7704W        W74113  14.291  38.970  13.897
 7705W        W74114  41.967   3.922   0.582
 7706W        W74115  28.964   1.341   3.853
 7707W        W74116   0.271  30.389  14.927
 7708W        W74117   0.900  31.651  13.748
 7709W        W74118  28.378   7.866   1.296
 7710W        W74119  22.298  27.225   3.122
 7711W        W74120  40.831  26.110  10.588
 7712W        W74121  12.123   0.742   3.539
 7713W        W74122  11.527  12.939   3.679
 7714W        W74123   4.091  24.294   3.963
 7715W        W74124  39.788  27.102   4.263
 7716W        W74125  11.188  31.494  12.654
 7717W        W74126  37.947  38.138  11.207
 7718W        W74127  34.101  11.131   2.424
 7719W        W74128  37.326  35.560  13.938
 7720W        W74129   7.850  22.908   3.165
 7721W        W74130  11.818  39.523   4.580
 7722W        W74131  14.890  43.058  12.372
 7723W        W74132   9.161   1.955  14.903
 7724W        W74133   7.366  35.685   1.931
 7725W        W74134  24.151  15.921   4.120
 7726W        W74135   7.648  19.037   0.003
 7727W        W74136   1.180   1.861   0.834
 7728W        W74137   7.946  19.259  12.471
 7729W        W74138  37.847  20.032   0.831
 7730W        W74139  28.799  40.522  12.378
 7731W        W74140  38.528   7.454  11.081
 7732W        W74141  12.010  14.009  11.985
 7733W        W74142  26.944  19.336  11.561
 7734W        W74143  13.773  38.953  13.805
 7735W        W74144  37.421  35.401  14.437
 7736W        W74145  15.320   2.207  13.935
 7737W        W74146   6.232  19.039   4.171
 7738W        W74147  39.755   7.830   0.322
 7739W        W74148   7.268  13.829   3.380
 7740W        W74149   0.247   7.002   0.166
 7741W        W74150  11.368  28.688  13.389
 7742W        W74151  36.969  31.901  13.900
 7743W        W74152  43.029  30.957   2.724
 7744W        W74153  30.591  19.313   2.163
 7745W        W74154   9.636  41.326   3.577
 7746W        W74155  32.422   0.732  12.480
 7747W        W74156  16.335  33.758  11.061
 7748W        W74157  15.346  31.079  12.649
 7749W        W74158  11.354   6.955  10.841
 7750W        W74159  10.599  25.942   1.733
 7751W        W74160   3.278  44.891   3.040
 7752W        W74161  39.102   9.499   4.594
 7753W        W74162  43.017  17.131   1.873
 7754W        W74163   7.365  43.019  13.035
 7755W        W74164  32.819  31.225  11.115
 7756W        W74165   3.239  19.529  14.554
 7757W        W74166  24.731   6.306   0.727
 7758W        W74167  21.469  44.439   2.293
 7759W        W74168  27.930  41.464  12.093
 7760W        W74169   5.799  33.908  14.355
 7761W        W74170  34.442   7.788   0.782
 7762W        W74171  16.590  17.475   1.903
 7763W        W74172  32.665   3.230   0.177
 7764W        W74173  42.974  33.319  11.148
 7765W        W74174  25.954   5.287   4.822
 7766W        W74175  23.632  35.336   0.943
 7767W        W74176  30.978   1.971   3.736
 7768W        W74177  23.011   6.376   4.657
 7769W        W74178  12.872  20.783   2.698
 7770W        W74179  42.588  28.197   4.632
 7771W        W74180  32.438  22.696  12.845
 7772W        W74181  32.926  42.941   4.632
 7773W        W74182   1.284  44.558  12.983
 7774W        W74183  39.306  34.224   1.478
 7775W        W74184  20.717  25.873  13.139
 7776W        W74185  24.254  32.010   2.449
 7777W        W74186   2.788  15.103  14.846
 7778W        W74187  37.406  42.598  13.845
 7779W        W74188  37.885  32.336  13.458
 7780W        W74189  22.021  31.591   4.507
 7781W        W74190   2.830  41.303  11.646
 7782W        W74191   2.654  27.431  13.825
 7783W        W74192   2.754  22.863   3.109
 7784W        W74193  27.629   3.301  11.990
 7785W        W74194   4.380  44.478   1.716
 7786W        W74195  12.877  24.106  10.863
 7787W        W74196  16.006  16.761  12.839
 7788W        W74197   1.345  12.098   4.234
 7789W        W74198   6.826  11.748   1.741
 7790W        W74199  31.006  35.964   0.874
 7791W        W74200  18.075  17.086   2.712
 7792W        W74201  11.189   6.409   3.058
 7793W        W74202  39.281  37.969   0.468
 7794W        W74203  12.397  14.503  14.733
 7795W        W74204  22.925   8.987   2.724
 7796W        W74205   8.793   4.805  14.790
 7797W        W74206  10.279  13.658  14.509
 7798W        W74207  36.279  20.591  10.971
 7799W        W74208   9.695   1.276   1.215
 7800W        W74209  20.841  28.749  12.599
 7801W        W74210  41.983  23.630   2.807
 7802W        W74211   6.823  42.803   2.236
 7803W        W74212  16.172   6.472  11.068
 7804W        W74213   1.875  38.831   2.808
 7805W        W74214  25.070  11.186  13.951
 7806W        W74215   7.263   6.259   1.769
 7807W        W74216  30.075  42.169   1.569
 7808W        W74217   2.901  18.180   3.319
 7809W        W74218   3.391  13.439  14.311
 7810W        W74219  22.058   3.538   0.851
 7811W        W74220  10.160  24.692  12.868
 7812W        W74221   5.483  29.935   4.168
 7813W        W74222  36.053  38.573   0.291
 7814W        W74223  12.748   5.228   3.417
 7815W        W74224   6.809  36.383  11.170
 7816W        W74225  33.141   2.543  13.837
 7817W        W74226  21.014  20.780  13.208
 7818W        W74227   7.588  41.269  11.612
 7819W        W74228  40.098  39.821   1.314
 7820W        W74229   4.816   8.032   2.634
 7821W        W74230  30.462  13.306   3.630
 7822W        W74231  44.351  23.498  13.102
 7823W        W74232   0.832  36.116  11.102
 7824W        W74233  21.177  33.374  12.909
 7825W        W74234  39.386  22.023  14.020
 7826W        W74235  44.764   1.489   4.511
 7827W        W74236  40.451  41.160  12.436
 7828W        W74237  26.080   1.700   4.664
 7829W        W74238  16.893   8.684  12.460
 7830W        W74239   6.509  23.015   3.233
 7831W        W74240   3.513   3.737  14.407
 7832W        W74241  21.659  40.133   1.074
 7833W        W74242  41.034  16.483   0.243
 7834W        W74243  18.123   7.735   1.705
 7835W        W74244  44.412  26.684  13.129
 7836W        W74245   1.800  41.487  14.168
 7837W        W74246   0.598  41.976  11.790
 7838W        W74247   1.458  10.988   9.816
 7839W        W74248   3.229   4.514  10.393
 7840W        W74249  43.364  19.993  14.783
 7841W        W74250  21.190  25.224  11.183
 7842W        W74251  34.856  20.038   0.802
 7843W        W74252  17.867   8.981  12.409
 7844W        W74253  44.997   3.521   1.478
 7845W        W74254  10.719   1.527   0.277
 7846W        W74255   6.933  40.543  10.715
 7847W        W74256  36.403  41.915  13.251
 7848W        W74257   0.907  43.028   2.896
 7849W        W74258  11.616  43.844   1.120
 7850W        W74259  21.742   1.476   4.035
 7851W        W74260  30.536  17.649   1.039
 7852W        W74261  44.522  17.218   4.155
 7853W        W74262  35.973   1.353  14.925
 7854W        W74263   0.177   2.398  12.032
 7855W        W74264   0.539  19.054  13.127
 7856W        W74265  14.730  16.631   4.645
 7857W        W74266  42.328  16.782  14.159
 7858W        W74267  37.992  39.101   1.703
 7859W        W74268  20.754  27.096  11.705
 7860W        W74269  31.972  18.260  13.963
 7861W        W74270  15.355  10.953   3.600
 7862W        W74271   2.372   4.821   0.996
 7863W        W74272  28.098  22.428   2.844
 7864W        W74273   8.428  33.429   0.853
 7865W        W74274  31.884   4.971   4.502
 7866W        W74275  38.100  44.493  13.908
 7867W        W74276   7.848   9.378   2.844
 7868W        W74277   5.947   2.392  12.602
 7869W        W74278  39.968  28.711   0.800
 7870W        W74279  35.051  14.494  13.814
 7871W        W74280  24.354  37.881   4.914
 7872W        W74281   0.654  10.572   4.535
 7873W        W74282  33.823   6.854  12.941
 7874W        W74283   9.702  37.776  14.885
 7875W        W74284  39.690  21.322  10.858
 7876W        W74285  25.750  43.044  13.863
 7877W        W74286   9.652  21.319  13.460
 7878W        W74287   2.034  21.132  13.885
 7879W        W74288   6.198  37.368   2.002
 7880W        W74289   7.185  38.837   0.260
 7881W        W74290  34.554  10.961   1.151
 7882W        W74291  40.132  22.526   1.895
 7883W        W74292  35.462  43.407  12.376
 7884W        W74293  32.861  19.232  11.803
 7885W        W74294  41.455  36.033   1.107
 7886W        W74295   7.800  32.377   1.726
 7887W        W74296  10.688  39.299  14.938
 7888W        W74297  36.227  43.032  14.630
 7889W        W74298  29.927   3.229   0.043
 7890W        W74299   3.369  10.124   1.730
 7891W        W74300  12.672  15.862  13.736
 7892W        W74301  14.345   9.285  10.714
 7893W        W74302  21.592  44.938   1.253
 7894W        W74303  14.088  32.860   3.064
 7895W        W74304  35.807  18.136   3.888
 7896W        W74305  41.982  44.668  13.831
 7897W        W74306  18.657  32.033   3.690
 7898W        W74307  41.382  38.310  12.096
 7899W        W74308  26.979  12.567   5.114
 7900W        W74309  30.119  38.857  12.406
 7901W        W74310  28.163   8.187   3.522
 7902W        W74311  26.012   3.444   0.224
 7903W        W74312  36.496   5.553   4.052
 7904W        W74313   2.621  17.873  14.966
 7905W        W74314  20.497  41.963  11.202
 7906W        W74315  28.661  23.753   3.745
 7907W        W74316  36.645   1.878  11.266
 7908W        W74317   0.409  33.567  13.399
 7909W        W74318  21.145  41.840   3.382
 7910W        W74319  24.217   1.443   1.672
 7911W        W74320  11.777  43.304   9.991
 7912W        W74321  33.158   2.026  13.828
 7913W        W74322  42.190  25.866  13.367
 7914W        W74323  22.459   3.177  13.914
 7915W        W74324  40.027  12.194  11.119
 7916W        W74325  24.700  19.224  12.734
 7917W        W74326   4.746  10.499  11.236
 7918W        W74327  25.331  19.619  10.640
 7919W        W74328  41.155  16.744   4.112
 7920W        W74329  40.618  19.580   3.398
 7921W        W74330  23.653  23.624   4.096
 7922W        W74331   6.592  27.882  10.844
 7923W        W74332   9.271  44.732  12.000
 7924W        W74333  25.747  19.650  12.851
 7925W        W74334  29.527  24.902  13.298
 7926W        W74335  17.642   3.900  13.150
 7927W        W74336   0.260  18.315  13.486
 7928W        W74337   5.296  30.136   2.251
 7929W        W74338  15.875   0.775   0.393
 7930W        W74339   7.799  24.260  13.952
 7931W        W74340   4.527   0.024   1.454
 7932W        W74341   3.255  29.141   0.379
 7933W        W74342  39.370  31.031  11.119
 7934W        W74343  21.805  42.832  10.780
 7935W        W74344  36.423  11.308  11.228
 7936W        W74345  16.172  32.529   3.800
 7937W        W74346   0.153  23.932   2.860
 7938W        W74347  41.002  35.280  13.995
 7939W        W74348  36.818   9.457  13.090
 7940W        W74349  24.747  17.335  13.124
 7941W        W74350  14.877   3.007   4.857
 7942W        W74351  15.243  17.839  14.339
 7943W        W74352  14.531  18.785  12.274
 7944W        W74353  23.603  25.559   1.948
 7945W        W74354  21.941  20.158   0.193
 7946W        W74355  37.396  30.081  12.589
 7947W        W74356  17.668  33.862  13.820
 7948W        W74357  12.306   8.411   4.118
 7949W        W74358   8.048  11.274   9.916
 7950W        W74359  33.343  12.289   3.645
 7951W        W74360  29.315  23.546   2.438
 7952W        W74361  32.579  20.274  12.308
 7953W        W74362   9.260   9.406  12.038
 7954W        W74363  13.018  43.163   0.141
 7955W        W74364  24.636  36.981   4.820
 7956W        W74365  39.969  23.749  13.396
 7957W        W74366  17.761   8.677  13.858
 7958W        W74367  14.714  15.166   0.830
 7959W        W74368   2.907   2.894   1.921
 7960W        W74369  10.383  41.308  14.952
 7961W        W74370  36.619  22.718  11.467
 7962W        W74371  31.378  10.134   2.136
 7963W        W74372  32.084  36.793   3.275
 7964W        W74373  12.324  17.326   2.306
 7965W        W74374  42.757  40.269   0.978
 7966W        W74375  38.441  22.973   1.384
 7967W        W74376  23.733  23.113   4.118
 7968W        W74377   4.893  42.693   3.790
 7969W        W74378  34.368  30.108  13.816
 7970W        W74379   0.194  36.110   0.929
 7971W        W74380  40.848  42.860   4.859
 7972W        W74381  43.084   2.362  13.320
 7973W        W74382  39.349  19.963  13.232
 7974W        W74383  43.846   4.704  14.499
 7975W        W74384   2.784   7.698   2.921
 7976W        W74385   8.143  39.784   4.817
 7977W        W74386  22.342   4.243  14.802
 7978W        W74387  43.581  42.460   1.864
 7979W        W74388  15.634  12.246   0.364
 7980W        W74389  43.675  34.382  14.668
 7981W        W74390  26.460  13.624   0.391
 7982W        W74391   7.703  37.850   1.645
 7983W        W74392  44.388  19.579   3.855
 7984W        W74393   1.026  28.325   1.791
 7985W        W74394  39.453  26.434  13.488
 7986W        W74395   8.160   7.820  10.645
 7987W        W74396   5.323   9.026   4.836
 7988W        W74397  37.269  23.984  12.989
 7989W        W74398   1.675  43.905   1.768
 7990W        W74399  12.311  15.373  10.947
 7991W        W74400   2.403  38.937   3.608
 7992W        W74401   9.058   1.788   3.260
 7993W        W74402  36.830  41.530  14.937
 7994W        W74403   7.655  38.854  11.575
 7995W        W74404  40.811  18.522  12.966
 7996W        W74405  16.949  44.398   0.840
 7997W        W74406  40.763  42.456  14.273
 7998W        W74407  11.378   2.048   1.390
 7999W        W74408  26.180   7.074   4.130
 8000W        W74409  27.146   3.596  14.286
 8001W        W74410   5.172  14.040   2.159
 8002W        W74411  22.125  34.829  13.605
 8003W        W74412  25.774  27.917   4.619
 8004W        W74413  25.491   4.315  10.828
 8005W        W74414  24.010  18.306  14.097
 8006W        W74415   0.886  26.945   4.150
 8007W        W74416  43.250  19.060  13.954
 8008W        W74417  39.345  30.685   2.797
 8009W        W74418  25.100  35.841  10.745
 8010W        W74419  35.475  28.216  14.406
 8011W        W74420   2.019  29.156  12.926
 8012W        W74421  21.851  39.952   4.846
 8013W        W74422  35.935  17.769  10.120
 8014W        W74423  10.206  10.184  13.303
 8015W        W74424   6.301  35.059  11.716
 8016W        W74425  40.297  34.360   3.896
 8017W        W74426  29.642  25.145  12.396
 8018W        W74427  29.374  27.110   4.717
 8019W        W74428  27.392  43.907   4.094
 8020W        W74429  10.687  32.859   0.413
 8021W        W74430  24.212   5.035  14.948
 8022W        W74431  27.958   1.542  12.083
 8023W        W74432  27.445   9.245   4.093
 8024W        W74433  27.427  16.656   4.192
 8025W        W74434   1.298  22.572   0.777
 8026W        W74435   2.774   4.702   2.390
 8027W        W74436  23.891  39.108   2.251
 8028W        W74437  14.933   5.461  10.788
 8029W        W74438  10.241  34.804  11.484
 8030W        W74439  43.494  33.448   3.378
 8031W        W74440   5.951  44.927  14.877
 8032W        W74441  14.835  23.916   0.674
 8033W        W74442  26.207  30.438  11.565
 8034W        W74443  18.815  25.047  13.460
 8035W        W74444   0.058  42.861   5.116
 8036W        W74445  24.870   3.364  10.909
 8037W        W74446  10.283  40.617   0.764
 8038W        W74447  36.631  11.671  14.450
 8039W        W74448  33.030  36.008   4.970
 8040W        W74449  42.926  17.702   4.527
 8041W        W74450  44.340   0.960  11.116
 8042W        W74451  31.941  23.089  12.619
 8043W        W74452  31.152  40.704   1.510
 8044W        W74453  20.813   8.965   2.372
 8045W        W74454  16.296   0.920  14.139
 8046W        W74455  29.462  25.130   3.887
 8047W        W74456  41.849  20.544  10.888
 8048W        W74457  28.145  12.026   3.678
 8049W        W74458  23.756  33.453  10.630
 8050W        W74459   7.525  44.732  12.981
 8051W        W74460  44.443   2.820  10.748
 8052W        W74461  11.349   1.616   3.601
 8053W        W74462  33.498  31.146  14.297
 8054W        W74463  10.161   6.679  14.054
 8055W        W74464   4.298  32.838  12.000
 8056W        W74465  23.856  30.146   0.245
 8057W        W74466  21.450  31.399  11.904
 8058W        W74467   7.378  44.410  12.575
 8059W        W74468  28.144  44.443  13.275
 8060W        W74469   4.077  18.017  13.773
 8061W        W74470  18.817  26.168  14.027
 8062W        W74471  26.059  29.574   3.527
 8063W        W74472  29.933   0.248   4.399
 8064W        W74473  30.129   3.365   3.069
 8065W        W74474  15.357   7.904   4.076
 8066W        W74475  27.016  24.792   0.716
 8067W        W74476  21.672  32.236  12.496
 8068W        W74477  17.094  42.010  14.858
 8069W        W74478  38.232  26.030  14.509
 8070W        W74479  31.406   3.026  11.644
 8071W        W74480  29.030  24.173   2.972
 8072W        W74481  21.741   2.338  12.073
 8073W        W74482  14.040  40.859   2.805
 8074W        W74483  42.031  11.640  12.011
 8075W        W74484  24.266  34.815  14.220
 8076W        W74485   8.429  38.501  10.693
 8077W        W74486  14.736  13.807   4.248
 8078W        W74487  33.008  11.094   4.098
 8079W        W74488  17.734  16.720   1.717
 8080W        W74489  36.580  32.462   1.250
 8081W        W74490  13.149  37.284   5.507
 8082W        W74491  13.781  27.477   2.220
 8083W        W74492  15.960  24.700  13.361
 8084W        W74493  14.321  17.105   3.338
 8085W        W74494  16.772  31.908   0.845
 8086W        W74495   0.990   7.439   4.471
 8087W        W74496   2.043  41.759  13.248
 8088W        W74497  38.934  34.802   1.699
 8089W        W74498  24.970  14.301  11.194
 8090W        W74499  12.240  10.166  10.415
 8091W        W74500  38.246  18.504  14.036
 8092W        W74501  14.864   2.034   4.513
 8093W        W74502  43.923  23.452  11.981
 8094W        W74503  21.196   9.751  11.993
 8095W        W74504   2.594  23.758   1.784
 8096W        W74505  30.541  41.593  14.446
 8097W        W74506  26.622  36.665  13.820
 8098W        W74507   8.052  36.383   1.915
 8099W        W74508  18.198  43.310  13.168
 8100W        W74509  10.761  19.016  10.692
 8101W        W74510  34.549  43.398  13.874
 8102W        W74511  42.545  21.280  12.083
 8103W        W74512  30.279  24.356  12.890
 8104W        W74513  42.687  20.782  10.403
 8105W        W74514  21.072  12.667   1.740
 8106W        W74515  43.473  13.274   3.650
 8107W        W74516  25.635  40.983   2.206
 8108W        W74517  32.583  11.602  13.498
 8109W        W74518  17.375   2.972  14.900
 8110W        W74519  36.139  29.485  12.419
 8111W        W74520  27.164  28.322  12.479
 8112W        W74521  34.800  33.013  10.637
 8113W        W74522   6.754  27.478   2.129
 8114W        W74523  29.218  10.334  14.347
 8115W        W74524   3.498  32.022   0.369
 8116W        W74525  26.657   4.906  13.145
 8117W        W74526  20.204  31.870   1.476
 8118W        W74527  17.253   4.371   1.297
 8119W        W74528  32.948   1.974  11.421
 8120W        W74529  33.542  14.410   4.452
 8121W        W74530   3.487   9.339  13.469
 8122W        W74531  31.892  41.756  11.593
 8123W        W74532  19.864  43.007   2.741
 8124W        W74533   8.097  17.709   1.178
 8125W        W74534  37.437  44.568  10.049
 8126W        W74535  36.355   3.308   3.622
 8127W        W74536  34.445  26.391  14.957
 8128W        W74537   2.970  26.615  13.455
 8129W        W74538  25.541  14.230   2.579
 8130W        W74539  43.583  27.475  10.582
 8131W        W74540  25.646   3.951  10.484
 8132W        W74541  30.551  33.732   4.353
 8133W        W74542   4.452  22.025   1.360
 8134W        W74543  42.594  20.980  14.759
 8135W        W74544  16.790  16.542  12.009
 8136W        W74545   0.746   7.451  11.509
 8137W        W74546  29.921  22.495   2.764
 8138W        W74547  22.612  38.474   4.156
 8139W        W74548  40.565  21.514   0.901
 8140W        W74549  35.828  29.320   4.555
 8141W        W74550  39.746   4.755  10.818
 8142W        W74551  19.243   5.227  12.512
 8143W        W74552  41.442  32.857   2.728
 8144W        W74553   8.662  12.374   1.801
 8145W        W74554  27.165   7.959  13.964
 8146W        W74555   8.835   7.348   0.660
 8147W        W74556   3.306  40.416   4.060
 8148W        W74557  29.310  34.387  11.262
 8149W        W74558   5.740  38.921   0.832
 8150W        W74559  44.509   9.478   1.359
 8151W        W74560  36.502  39.805   1.402
 8152W        W74561  18.423  32.393   4.531
 8153W        W74562   9.441  26.460   0.471
 8154W        W74563  14.673   1.011   1.484
 8155W        W74564   9.771   6.828  12.762
 8156W        W74565  36.481   0.316  11.968
 8157W        W74566   2.733  42.819  12.966
 8158W        W74567  14.011  41.217  10.870
 8159W        W74568  31.452  28.573  11.606
 8160W        W74569  31.942  13.083  11.497
 8161W        W74570  33.830  24.669   3.553
 8162W        W74571  41.984  26.798  12.609
 8163W        W74572  21.287  15.305   2.755
 8164W        W74573   0.796  43.733  11.257
 8165W        W74574  32.293  14.418  12.959
 8166W        W74575  40.395  36.947  14.928
 8167W        W74576  35.642   8.851  13.572
 8168W        W74577  18.260  24.603   3.748
 8169W        W74578  19.329  13.351  11.606
 8170W        W74579   1.220  42.305   3.150
 8171W        W74580   4.753  34.787   0.867
 8172W        W74581  30.411   9.385  14.646
 8173W        W74582  33.749  15.535  11.616
 8174W        W74583  13.486  39.126  11.138
 8175W        W74584   9.783   6.823   3.016
 8176W        W74585   9.169  37.549  13.396
 8177W        W74586   8.238   1.259   0.712
 8178W        W74587  43.078  23.784  11.493
 8179W        W74588  11.177   2.252   4.084
 8180W        W74589  21.356  30.057  13.519
 8181W        W74590  40.560  10.485  10.909
 8182W        W74591  41.474  16.273  10.905
 8183W        W74592  31.141  42.026  11.950
 8184W        W74593  37.245   5.669  12.580
 8185W        W74594  10.138  31.136   3.527
 8186W        W74595  17.898  37.520   0.527
 8187W        W74596  44.821  22.165   3.665
 8188W        W74597  19.679  30.614  11.954
 8189W        W74598  14.121   1.527  12.005
 8190W        W74599  25.864  38.777  13.919
 8191W        W74600  24.695  24.457   3.616
 8192W        W74601  12.579  20.488   4.093
 8193W        W74602   5.754   1.868   0.095
 8194W        W74603  17.018   6.127  14.931
 8195W        W74604  23.257  10.640  11.124
 8196W        W74605  15.804  21.629  13.961
 8197W        W74606  25.181   8.281   5.055
 8198W        W74607  23.084   0.820  10.461
 8199W        W74608  33.371  33.101  11.649
 8200W        W74609  30.655  10.122  13.960
 8201W        W74610   2.492   4.250   2.290
 8202W        W74611  23.199  16.170  11.551
 8203W        W74612  37.323  29.570   3.182
 8204W        W74613  32.859  17.898  11.185
 8205W        W74614  12.006  25.507   1.873
 8206W        W74615  33.216   4.670   4.655
 8207W        W74616  11.683  30.439  11.155
 8208W        W74617  26.048  12.575   4.149
 8209W        W74618   7.767  43.299   1.377
 8210W        W74619   4.066  19.012   4.076
 8211W        W74620  10.139  36.363   2.851
 8212W        W74621  26.780  39.804   2.812
 8213W        W74622  24.629  16.170   4.124
 8214W        W74623  34.577   7.563  12.895
 8215W        W74624  33.922  43.507  14.769
 8216W        W74625  32.654  13.291   4.553
 8217W        W74626  14.127   8.544   0.283
 8218W        W74627  30.634  38.896  13.453
 8219W        W74628  27.166  20.764  12.859
 8220W        W74629  31.899  34.714   5.172
 8221W        W74630  38.670  36.661   0.973
 8222W        W74631   1.266  36.605  11.616
 8223W        W74632  13.342  26.495   3.681
 8224W        W74633   7.934  28.101   9.632
 8225W        W74634  39.114  44.004  11.851
 8226W        W74635   0.927  16.335   0.310
 8227W        W74636  43.575  27.155  13.886
 8228W        W74637  43.367   8.159   1.707
 8229W        W74638   7.145  19.202   0.925
 8230W        W74639   5.174  39.519   1.705
 8231W        W74640  28.477   1.458   3.702
 8232W        W74641  43.018  24.726  10.736
 8233W        W74642  41.842  39.982  14.004
 8234W        W74643  31.612  33.819  11.495
 8235W        W74644   4.915  44.012   3.246
 8236W        W74645  26.959  26.575  12.198
 8237W        W74646  16.583  22.639  11.229
 8238W        W74647   7.344  25.943   2.771
 8239W        W74648  12.173   3.887  10.735
 8240W        W74649  18.263  34.420   0.894
 8241W        W74650  23.118  22.718  12.990
 8242W        W74651  29.686  26.917  11.556
 8243W        W74652   6.979  42.082   3.733
 8244W        W74653  42.462  20.191  11.152
 8245W        W74654   5.181   7.436  11.169
 8246W        W74655  21.713   1.523  13.412
 8247W        W74656  34.084   2.184  13.926
 8248W        W74657  11.735  14.418   2.433
 8249W        W74658  26.634   0.908  12.369
 8250W        W74659  12.827  25.667   0.564
 8251W        W74660  19.440  21.553   0.273
 8252W        W74661  32.621  13.338   1.425
 8253W        W74662  13.333  23.237  14.642
 8254W        W74663  21.531  43.945  11.524
 8255W        W74664  35.385  19.854  11.034
 8256W        W74665   1.762   6.217  14.042
 8257W        W74666  17.688  39.931  11.212
 8258W        W74667  32.573   7.725  14.709
 8259W        W74668  44.455  26.040  13.859
 8260W        W74669   0.239  14.905   3.653
 8261W        W74670  33.880  20.655  10.568
 8262W        W74671  11.824   3.504   2.903
 8263W        W74672  10.055  27.246   0.791
 8264W        W74673  42.599   1.445   2.927
 8265W        W74674  22.523  23.075   1.968
 8266W        W74675  33.835  30.427  11.068
 8267W        W74676  40.475  27.270   2.622
 8268W        W74677   0.568   0.518  11.184
 8269W        W74678  23.271  19.604   9.924
 8270W        W74679  44.733  21.286   3.094
 8271W        W74680  22.425  39.018   0.992
 8272W        W74681   5.842  22.325  10.133
 8273W        W74682  28.788  34.910  13.539
 8274W        W74683  38.006   3.882  11.297
 8275W        W74684  22.789  23.958   4.056
 8276W        W74685  12.146  17.140   1.833
 8277W        W74686  19.271  28.525   4.230
 8278W        W74687  27.457   5.850  10.216
 8279W        W74688   9.914  36.398   0.234
 8280W        W74689  24.921  33.188   1.103
 8281W        W74690  33.209  38.046   0.890
 8282W        W74691  43.895  27.091   3.797
 8283W        W74692  27.122  23.786   0.467
 8284W        W74693   4.912  29.109  13.697
 8285W        W74694   4.094  16.364  11.656
 8286W        W74695  27.027  35.924  11.380
 8287W        W74696   3.903   4.936   4.623
 8288W        W74697  38.051  41.752   1.196
 8289W        W74698  12.301  26.454   2.765
 8290W        W74699  27.004   1.442  11.265
 8291W        W74700  18.748  43.798   3.447
 8292W        W74701   9.903  31.461  13.488
 8293W        W74702  25.675  11.268   0.944
 8294W        W74703   4.879  28.138  12.035
 8295W        W74704   9.158  23.541   0.142
 8296W        W74705  12.398  14.429  10.608
 8297W        W74706   9.117  26.691   2.339
 8298W        W74707  11.906  42.547   0.784
 8299W        W74708  31.899  27.442  12.431
 8300W        W74709  18.472   1.257  11.169
 8301W        W74710   2.806   8.941   2.780
 8302W        W74711  34.113   0.315  14.424
 8303W        W74712  29.191  20.178  12.976
 8304W        W74713  39.064  36.481   1.281
 8305W        W74714  42.107  37.516  13.317
 8306W        W74715  13.139  37.910  14.013
 8307W        W74716  37.797   2.538  10.771
 8308W        W74717  37.115  11.837  14.946
 8309W        W74718  29.941  27.929  10.740
 8310W        W74719  32.141  32.949   1.221
 8311W        W74720  15.756  42.020   1.341
 8312W        W74721  43.149   1.326  12.259
 8313W        W74722  15.254  26.509   4.977
 8314W        W74723  10.348  27.260   3.519
 8315W        W74724  26.382  22.969  13.804
 8316W        W74725   9.892  20.689  12.654
 8317W        W74726  24.352   8.932   1.368
 8318W        W74727  23.220  21.491  13.374
 8319W        W74728  43.392  44.851  14.382
 8320W        W74729  33.045  21.796  12.399
 8321W        W74730  42.753  40.061  10.172
 8322W        W74731  12.248   4.510  14.963
 8323W        W74732  13.270  15.190  12.052
 8324W        W74733  34.979   7.820   1.041
 8325W        W74734  33.868   1.825   3.284
 8326W        W74735  37.024  17.814  14.315
 8327W        W74736  32.626  38.790  10.201
 8328W        W74737   9.278  31.060   4.469
 8329W        W74738  13.372   4.070   4.911
 8330W        W74739  17.993  22.582  12.595
 8331W        W74740  31.557  42.771  11.199
 8332W        W74741  40.408  30.665  14.404
 8333W        W74742   9.827  17.521   0.971
 8334W        W74743  14.862  27.016   1.899
 8335W        W74744   4.385  12.227   2.568
 8336W        W74745  28.127   7.568   0.922
 8337W        W74746  28.477  39.557   3.573
 8338W        W74747  42.662  24.664  14.845
 8339W        W74748  27.648  32.914   3.331
 8340W        W74749  32.014  11.245   3.930
 8341W        W74750  24.319   3.024   4.807
 8342W        W74751  17.147  34.724   0.004
 8343W        W74752  19.691   6.342   1.217
 8344W        W74753  29.541  25.533   2.070
 8345W        W74754   4.712  23.383   4.532
 8346W        W74755   2.127  44.878   1.452
 8347W        W74756  24.974  18.993   0.489
 8348W        W74757  19.100   5.415  12.999
 8349W        W74758  15.581  18.671   0.935
 8350W        W74759  28.145   0.201   1.291
 8351W        W74760  28.493  30.291   1.411
 8352W        W74761  13.437  37.468  14.240
 8353W        W74762  13.477  25.627   1.992
 8354W        W74763  30.539  23.498  11.194
 8355W        W74764  26.984   4.367  10.654
 8356W        W74765   4.785  37.185  10.973
 8357W        W74766   7.584  38.201  13.086
 8358W        W74767  24.041  34.512  14.972
 8359W        W74768  15.725  19.403   3.913
 8360W        W74769  32.069   1.051  11.645
 8361W        W74770  14.092   4.487  11.879
 8362W        W74771  43.754   2.722   2.277
 8363W        W74772  36.907  19.169  14.385
 8364W        W74773   7.329  38.777   1.907
 8365W        W74774   4.264  19.962  13.445
 8366W        W74775  43.786  19.833  11.799
 8367W        W74776  26.716  24.520   1.053
 8368W        W74777  19.613  10.940  11.956
 8369W        W74778  37.407   6.473  13.898
 8370W        W74779  17.267  37.298  14.899
 8371W        W74780  40.990   1.288  14.037
 8372W        W74781  21.094  26.675   0.272
 8373W        W74782  31.424   3.731  12.445
 8374W        W74783  14.081  27.164  12.858
 8375W        W74784   8.643  22.906  12.063
 8376W        W74785  42.536  17.217   4.022
 8377W        W74786   7.430   5.313   3.789
 8378W        W74787  41.265  12.237  14.055
 8379W        W74788   1.239  28.830  14.057
 8380W        W74789  13.846   7.239  11.261
 8381W        W74790  28.432  20.146   1.763
 8382W        W74791  26.715  19.017   1.163
 8383W        W74792   5.577   2.955   3.606
 8384W        W74793  22.007   2.862   1.959
 8385W        W74794  41.400   1.526  14.893
 8386W        W74795  15.904  37.904  10.268
 8387W        W74796  24.655   3.220  12.930
 8388W        W74797  12.256  23.170   9.845
 8389W        W74798   9.350  21.650  12.313
 8390W        W74799  35.400   6.422   4.378
 8391W        W74800   1.279   0.753   0.805
 8392W        W74801  43.250  11.852   1.216
 8393W        W74802  34.524  27.217   2.744
 8394W        W74803   9.955   5.246  14.960
 8395W        W74804  30.923  35.811  13.640
 8396W        W74805   5.442  25.308   2.709
 8397W        W74806  15.825  26.985  10.244
 8398W        W74807  32.711  33.590  14.326
 8399W        W74808  10.225   0.542   4.017
 8400W        W74809  24.986  29.954   2.777
 8401W        W74810  18.035  29.902   0.453
 8402W        W74811  23.342  14.868   1.919
 8403W        W74812  33.808  18.502  12.959
 8404W        W74813  40.316  34.637  14.489
 8405W        W74814  18.299  23.557  14.882
 8406W        W74815   1.466   3.626   4.127
 8407W        W74816  35.030  29.715   0.259
 8408W        W74817   6.514  28.189   0.579
 8409W        W74818   5.342  14.650   1.391
 8410W        W74819  19.423  14.731  11.819
 8411W        W74820  23.794  17.825   2.224
 8412W        W74821   5.264  28.070   0.009
 8413W        W74822  25.619  14.351   0.740
 8414W        W74823  28.392  41.366   4.676
 8415W        W74824  41.308  17.263   3.626
 8416W        W74825  44.259  16.645  11.584
 8417W        W74826  25.668  12.643  12.437
 8418W        W74827  40.143  11.822   1.581
 8419W        W74828  43.075   7.706   5.509
 8420W        W74829   7.484  36.313   2.735
 8421W        W74830   3.892  20.143   2.439
 8422W        W74831   4.958   7.249   3.324
 8423W        W74832   6.767  42.616  10.455
 8424W        W74833  31.899  13.282   3.585
 8425W        W74834  13.626  14.543  11.962
 8426W        W74835  27.022  42.886   0.842
 8427W        W74836  37.679  27.551  13.393
 8428W        W74837  24.142  28.882  13.132
 8429W        W74838  18.303  16.140   4.579
 8430W        W74839  27.850   8.881   0.152
 8431W        W74840  34.996  18.509  14.312
 8432W        W74841  23.146  37.493  12.983
 8433W        W74842   7.494  31.889  14.043
 8434W        W74843  24.571  36.530  11.082
 8435W        W74844  34.133   5.838  12.990
 8436W        W74845  36.185   3.049   4.119
 8437W        W74846   7.508  12.477  11.945
 8438W        W74847  38.828   1.290  14.735
 8439W        W74848  19.594  18.347  14.778
 8440W        W74849  32.495   7.242  14.489
 8441W        W74850  14.610  18.768   4.453
 8442W        W74851   1.792  26.480  11.647
 8443W        W74852  34.858  29.848   2.350
 8444W        W74853   0.005  36.828   1.418
 8445W        W74854  27.618  16.652   3.244
 8446W        W74855  39.122  28.460  10.411
 8447W        W74856  37.099  24.638   2.642
 8448W        W74857  34.371   5.685   3.665
 8449W        W74858  27.964  44.947  13.396
 8450W        W74859  37.450  24.436  14.524
 8451W        W74860   0.366   8.889  12.555
 8452W        W74861  27.093  26.215  11.436
 8453W        W74862  41.006  25.018   4.199
 8454W        W74863   4.695  22.596   0.457
 8455W        W74864  30.513  28.214   4.703
 8456W        W74865   1.765  28.872  11.575
 8457W        W74866  12.672   6.474  11.694
 8458W        W74867  28.106   6.964  13.592
 8459W        W74868  34.891  21.796  11.107
 8460W        W74869  42.323  43.952   0.003
 8461W        W74870   1.661  40.371  12.508
 8462W        W74871  30.181  26.789  11.078
 8463W        W74872  17.186   9.421  10.388
 8464W        W74873  16.193  25.722  13.915
 8465W        W74874  13.717  12.852   4.789
 8466W        W74875  35.755  12.223  12.561
 8467W        W74876  41.895   4.084   1.819
 8468W        W74877  26.183   2.881   1.061
 8469W        W74878  34.037  37.930   2.260
 8470W        W74879  14.615  10.713   1.632
 8471W        W74880   7.177  39.251   0.554
 8472W        W74881  42.423  12.598  13.917
 8473W        W74882  36.913  21.285  14.343
 8474W        W74883  32.625  38.274  11.088
 8475W        W74884   0.214   8.565  13.921
 8476W        W74885  20.634  37.192  14.700
 8477W        W74886  44.497  34.169   3.126
 8478W        W74887  11.106  29.393  14.819
 8479W        W74888  11.872  17.570   3.909
 8480W        W74889   8.316   4.459  11.121
 8481W        W74890  30.310  29.157   0.744
 8482W        W74891  11.829   8.242  14.975
 8483W        W74892  10.918  29.190  14.363
 8484W        W74893  25.058  23.124   5.470
 8485W        W74894  30.494  42.065   3.163
 8486W        W74895  34.879  20.969   3.745
 8487W        W74896  24.829  29.028  11.145
 8488W        W74897  34.643  11.627  10.637
 8489W        W74898  31.693  43.994  13.407
 8490W        W74899  27.414  41.490   3.817
 8491W        W74900  26.172  10.753   1.426
 8492W        W74901  12.222  28.120  12.727
 8493W        W74902  31.552   8.521  12.903
 8494W        W74903  43.466  35.258   3.325
 8495W        W74904  21.333  33.035   1.006
 8496W        W74905  34.547  25.872  14.050
 8497W        W74906  37.936  11.711   3.248
 8498W        W74907   7.019  34.919  11.118
 8499W        W74908  34.318  10.215   1.269
 8500W        W74909   4.901  33.120  13.505
 8501W        W74910  20.740  44.017  13.000
 8502W        W74911  11.712   7.211   3.142
 8503W        W74912  16.361  34.821  13.608
 8504W        W74913  13.189   2.926   0.034
 8505W        W74914  14.844  23.113  13.942
 8506W        W74915  13.857  40.326  13.850
 8507W        W74916  41.944  18.330  14.254
 8508W        W74917  20.970  27.007   4.308
 8509W        W74918  21.150  11.756   2.166
 8510W        W74919  10.254  20.037  14.551
 8511W        W74920   7.821   5.726  12.282
 8512W        W74921  34.455  42.547  13.744
 8513W        W74922  39.111  23.805  11.962
 8514W        W74923  14.899  29.505   1.328
 8515W        W74924  25.681  19.962  11.551
 8516W        W74925  10.576  28.144   3.635
 8517W        W74926  38.344   2.880  14.093
 8518W        W74927   8.192  33.624   1.327
 8519W        W74928  40.280   9.175   4.295
 8520W        W74929  17.159  33.218   4.241
 8521W        W74930   1.787  29.407  12.432
 8522W        W74931  28.409  37.281  13.071
 8523W        W74932  12.392  41.615  11.096
 8524W        W74933  36.096  36.932  11.657
 8525W        W74934  28.393  11.640   2.414
 8526W        W74935  28.044  23.059  14.538
 8527W        W74936  33.989  28.538   2.222
 8528W        W74937  13.168  27.192  13.376
 8529W        W74938  26.126  19.028  12.207
 8530W        W74939  10.369  39.728  14.852
 8531W        W74940   6.721  34.469  11.110
 8532W        W74941   7.443  39.019  11.117
 8533W        W74942   7.319  41.903  12.023
 8534W        W74943  27.683  17.043   4.461
 8535W        W74944  38.384  17.125   0.309
 8536W        W74945  33.584  29.235   3.646
 8537W        W74946  11.841   2.898   1.295
 8538W        W74947  31.915  19.800   0.972
 8539W        W74948  29.564   2.166  11.534
 8540W        W74949  40.245   4.749  11.705
 8541W        W74950  42.905   8.778  12.537
 8542W        W74951  33.102  39.039  14.528
 8543W        W74952   5.919   3.665   2.810
 8544W        W74953  37.240   8.852   2.940
 8545W        W74954  43.992  27.044   2.812
 8546W        W74955  15.733   6.619  14.592
 8547W        W74956   4.330  35.621   2.004
 8548W        W74957  29.738  30.627   4.062
 8549W        W74958  22.230  26.502   2.727
 8550W        W74959  30.392  39.308   0.778
 8551W        W74960   2.911  27.381  14.809
 8552W        W74961   7.598  40.986  11.133
 8553W        W74962  22.552  12.902  10.876
 8554W        W74963  28.960  17.608   1.959
 8555W        W74964  26.493   4.650  11.515
 8556W        W74965  31.299  20.235   0.232
 8557W        W74966   9.595  31.195  12.006
 8558W        W74967  15.187  38.334  13.005
 8559W        W74968  27.574  31.936  11.599
 8560W        W74969  21.636  13.832   2.179
 8561W        W74970  30.454  12.761   2.375
 8562W        W74971  20.128   8.685   3.418
 8563W        W74972  35.525   9.178   2.891
 8564W        W74973   8.722  35.825  13.852
 8565W        W74974   8.085  23.737  12.854
 8566W        W74975  39.434  25.538  11.472
 8567W        W74976  40.478   1.276  13.863
 8568W        W74977  41.671   0.310  13.467
 8569W        W74978  32.133  33.195   3.796
 8570W        W74979  28.735  39.974   4.021
 8571W        W74980  26.138  36.491  14.072
 8572W        W74981   6.970  28.632  10.168
 8573W        W74982  38.909   6.379   0.660
 8574W        W74983  26.616   2.075   4.235
 8575W        W74984   2.241  30.924   0.771
 8576W        W74985  26.929   5.689   3.674
 8577W        W74986  37.128   9.693  12.531
 8578W        W74987  14.909  36.915   2.751
 8579W        W74988  19.825  42.912  13.072
 8580W        W74989  33.053  33.302  12.983
 8581W        W74990   7.452   9.373  12.886
 8582W        W74991   3.709  44.516   0.034
 8583W        W74992  11.446  34.469  12.061
 8584W        W74993   0.700   6.193  13.997
 8585W        W74994   5.193   3.050   1.460
 8586W        W74995  38.155  31.033   0.229
 8587W        W74996   0.993  34.403  14.252
 8588W        W74997  40.739  27.681   2.796
 8589W        W74998  12.248  22.085   4.365
 8590W        W74999  27.238  34.994   2.403
 8591W        W75000  27.990  10.554  13.407
 8592W        W75001  20.991  17.636   2.695
 8593W        W75002  33.113  35.418   2.639
 8594W        W75003  31.298   6.912  13.617
 8595W        W75004  27.851   2.871  13.207
 8596W        W75005   9.430  11.041   3.426
 8597W        W75006  33.213  32.329   2.901
 8598W        W75007   1.499  42.425   2.736
 8599W        W75008  35.010  13.513   1.984
 8600W        W75009  25.626  18.961   2.909
 8601W        W75010  28.733   7.291  13.882
 8602W        W75011  41.788  33.846  11.461
 8603W        W75012   7.891  32.101  12.998
 8604W        W75013  29.479  12.590  12.094
 8605W        W75014   3.738  44.459  13.652
 8606W        W75015   2.397  40.728  11.194
 8607W        W75016  30.106  11.016   3.232
 8608W        W75017  35.917  23.188  10.995
 8609W        W75018  18.308  41.667  12.181
 8610W        W75019  33.946  37.607   0.251
 8611W        W75020   0.514   5.184   0.451
 8612W        W75021  42.974   9.747  14.354
 8613W        W75022  34.518   8.103   1.577
 8614W        W75023  32.432   5.603   0.810
 8615W        W75024  33.556  35.885  12.014
 8616W        W75025  16.453   9.322   1.767
 8617W        W75026   2.786   2.947  11.687
 8618W        W75027   6.664  32.721   4.039
 8619W        W75028  28.720  30.694  13.341
 8620W        W75029  18.774  21.125   0.355
 8621W        W75030  25.149  32.926   4.561
 8622W        W75031  25.512   4.800   4.622
 8623W        W75032  16.431  23.558  11.555
 8624W        W75033   1.985  23.610   4.300
 8625W        W75034   2.455  16.251  14.403
 8626W        W75035  35.412   1.016  12.777
 8627W        W75036  27.689  38.549  11.557
 8628W        W75037  29.936  39.658   0.036
 8629W        W75038   4.695  29.922   0.825
 8630W        W75039  38.386  31.394  12.042
 8631W        W75040  22.669  41.988  12.575
 8632W        W75041  15.970  31.038  14.554
 8633W        W75042  34.397  42.995   0.298
 8634W        W75043  33.262   6.171   3.816
 8635W        W75044  21.990  10.161  13.025
 8636W        W75045  18.738  13.812   4.529
 8637W        W75046  32.584  31.352   0.569
 8638W        W75047  19.686   5.892   3.317
 8639W        W75048  43.906  30.631   3.206
 8640W        W75049   5.846  26.734  14.431
 8641W        W75050  19.705  32.917  10.660
 8642W        W75051  30.088  26.824   3.710
 8643W        W75052   6.932  18.768   1.133
 8644W        W75053  20.098  13.949   5.044
 8645W        W75054  23.980  36.024  12.140
 8646W        W75055   2.439  17.973   4.078
 8647W        W75056  41.322  12.214   1.516
 8648W        W75057   7.775  18.177   0.383
 8649W        W75058  22.776  23.084  12.985
 8650W        W75059  31.892  14.839  12.072
 8651W        W75060  40.588  30.465  13.970
 8652W        W75061   3.138  17.140   1.821
 8653W        W75062  15.717  30.978   1.613
 8654W        W75063  14.579   5.424  13.098
 8655W        W75064  28.535  29.507   1.889
 8656W        W75065  33.019  29.438   2.457
 8657W        W75066  16.357  27.941   2.255
 8658W        W75067  43.769  10.205   1.458
 8659W        W75068  17.539  44.972  12.584
 8660W        W75069  29.416  11.769   4.311
 8661W        W75070  35.637  21.726   2.304
 8662W        W75071   4.465  12.709   0.849
 8663W        W75072   4.187  26.967   9.988
 8664W        W75073  22.082  18.938   3.655
 8665W        W75074  27.106   5.201  12.422
 8666W        W75075   2.836  15.321   0.313
 8667W        W75076  16.183   3.267  14.501
 8668W        W75077  24.142  23.509  11.545
 8669W        W75078   6.650   7.950  13.452
 8670W        W75079  33.129   3.287  11.242
 8671W        W75080   8.912   2.837   4.152
 8672W        W75081  10.328   8.640  14.071
 8673W        W75082  17.132  12.178   2.719
 8674W        W75083   3.021  35.586   0.854
 8675W        W75084  24.499  40.739   0.326
 8676W        W75085   1.290  20.282   3.233
 8677W        W75086   6.396  42.813  12.368
 8678W        W75087  10.833  34.469   3.825
 8679W        W75088  33.729   6.398   2.018
 8680W        W75089  17.597  38.540   2.216
 8681W        W75090   3.461  23.214  13.746
 8682W        W75091   3.495  38.290   0.742
 8683W        W75092  31.970  16.669   2.302
 8684W        W75093  43.861  34.353   1.572
 8685W        W75094  37.021  29.969  12.236
 8686W        W75095  15.063  31.820   2.384
 8687W        W75096   8.341  12.261  11.202
 8688W        W75097  29.675  32.120  11.240
 8689W        W75098  43.814  23.485  10.427
 8690W        W75099  18.107  29.491  14.701
 8691W        W75100   3.247  28.214   1.370
 8692W        W75101  27.928  25.179  12.044
 8693W        W75102  12.940  15.573  10.388
 8694W        W75103  42.902  17.436  11.515
 8695W        W75104  16.140  20.616  13.921
 8696W        W75105   7.396   1.882  12.462
 8697W        W75106  27.462   6.681  14.049
 8698W        W75107  28.783  38.340   1.855
 8699W        W75108  23.058  25.666   4.595
 8700W        W75109  21.782  32.048  13.448
 8701W        W75110  32.927   4.294  11.463
 8702W        W75111   6.732  42.055   2.866
 8703W        W75112  13.992  20.515   0.390
 8704W        W75113  21.584  28.105  14.043
 8705W        W75114   9.211   7.424  12.536
 8706W        W75115  32.026  26.078   3.217
 8707W        W75116  23.755  40.595   2.609
 8708W        W75117  37.272  39.822   2.762
 8709W        W75118  19.604   6.309   2.983
 8710W        W75119  44.487   9.208   0.909
 8711W        W75120   6.343  30.929  11.682
 8712W        W75121  42.709  36.129   3.566
 8713W        W75122   3.055  13.877  11.000
 8714W        W75123  41.380   1.761   1.645
 8715W        W75124  29.496  35.817  10.655
 8716W        W75125  31.514  26.051   3.217
 8717W        W75126  26.498  29.638  13.061
 8718W        W75127  15.524  41.246  13.911
 8719W        W75128  12.117  24.233   2.320
 8720W        W75129  22.943  35.084   1.758
 8721W        W75130  27.643  30.207   1.263
 8722W        W75131  13.858  10.830  12.906
 8723W        W75132   6.741  19.342  12.938
 8724W        W75133  42.030  11.833   1.764
 8725W        W75134  30.680   4.946  13.105
 8726W        W75135   8.712  44.135  11.560
 8727W        W75136  30.409  36.030  12.304
 8728W        W75137  38.923  34.520   1.241
 8729W        W75138  44.491   7.424  12.914
 8730W        W75139  34.056  32.141   1.234
 8731W        W75140   5.564   4.498   1.420
 8732W        W75141  18.817  30.850  11.568
 8733W        W75142  18.294  32.031  11.705
 8734W        W75143  12.062  11.741  10.643
 8735W        W75144   2.236  44.253  14.415
 8736W        W75145  20.110   5.921   0.526
 8737W        W75146  42.403  11.091  12.836
 8738W        W75147  42.186   0.936  11.622
 8739W        W75148  17.021   3.889   1.332
 8740W        W75149  27.462  40.917  14.714
 8741W        W75150  41.475   5.429  14.392
 8742W        W75151  38.905  39.520   2.411
 8743W        W75152  17.751  19.817  11.078
 8744W        W75153   1.351  33.919   2.991
 8745W        W75154   4.369   5.546  14.182
 8746W        W75155  22.722   5.421  12.613
 8747W        W75156  41.787  34.203  12.395
 8748W        W75157  14.370   1.934   3.692
 8749W        W75158   5.670   5.820   3.252
 8750W        W75159  18.234  32.330   3.696
 8751W        W75160  35.496  11.519   0.391
 8752W        W75161  15.166  16.019   4.929
 8753W        W75162   0.370  29.253  13.082
 8754W        W75163  43.585  16.806   0.256
 8755W        W75164  12.920  31.097  14.855
 8756W        W75165  14.845   1.146  10.184
 8757W        W75166  25.264   2.180   4.355
 8758W        W75167  35.092  44.175  10.576
 8759W        W75168   7.629   5.768  10.633
 8760W        W75169  15.634  35.890   2.682
 8761W        W75170  26.521  39.922   4.367
 8762W        W75171  30.575   9.914   1.523
 8763W        W75172  38.489  41.781  11.990
 8764W        W75173  37.662  30.917  12.122
 8765W        W75174  39.079   2.962   3.822
 8766W        W75175  40.946  12.213  14.803
 8767W        W75176  39.057  27.212  12.312
 8768W        W75177  38.615   4.010   2.185
 8769W        W75178   0.033  34.219   1.742
 8770W        W75179   9.558  43.461   9.828
 8771W        W75180  43.960   3.265  10.250
 8772W        W75181  16.357  39.547  11.643
 8773W        W75182  43.007  41.336   1.697
 8774W        W75183  14.737  21.218   2.785
 8775W        W75184  43.914   2.857  11.605
 8776W        W75185  24.173  11.332  14.960
 8777W        W75186  22.139   8.336  11.701
 8778W        W75187  42.389  41.743  14.913
 8779W        W75188  15.054  29.228   1.750
 8780W        W75189   8.743   5.359  11.970
 8781W        W75190  29.965  39.644  13.415
 8782W        W75191  21.150  26.650  12.088
 8783W        W75192   5.002  34.429  12.444
 8784W        W75193  44.341  37.336  11.002
 8785W        W75194   4.776  26.594   0.728
 8786W        W75195   1.848  19.603  14.862
 8787W        W75196  21.571  38.609   0.476
 8788W        W75197   8.477   2.846  11.428
 8789W        W75198   4.439  11.340   2.781
 8790W        W75199  40.515  15.643  11.957
 8791W        W75200   4.261  36.262  13.362
 8792W        W75201   7.422  16.349  13.364
 8793W        W75202   0.549  29.190   3.167
 8794W        W75203  31.827  26.364   2.823
 8795W        W75204   9.095   9.319  11.514
 8796W        W75205   0.327   1.907  13.968
 8797W        W75206  15.567   5.365  14.911
 8798W        W75207  29.204  22.662   2.343
 8799W        W75208   3.312  43.287  11.996
 8800W        W75209  18.880  36.319   1.347
 8801W        W75210   4.190  30.602   1.430
 8802W        W75211   3.151  27.665  12.150
 8803W        W75212  13.312  21.023  11.631
 8804W        W75213   5.389  17.870  12.798
 8805W        W75214  20.622  34.129  12.853
 8806W        W75215  28.433  33.829  14.071
 8807W        W75216  30.247  38.471   1.912
 8808W        W75217   1.824  37.905   0.362
 8809W        W75218  32.643  24.511  10.866
 8810W        W75219  16.225  11.265   4.660
 8811W        W75220  44.310  14.646   3.859
 8812W        W75221   0.035   3.207  14.979
 8813W        W75222  40.770   7.615  11.295
 8814W        W75223   8.873  23.923  14.587
 8815W        W75224  21.167   4.166  13.453
 8816W        W75225  12.895  24.405  11.510
 8817W        W75226  42.489  23.936   0.283
 8818W        W75227  13.073  11.258  13.156
 8819W        W75228  22.899   7.743   1.156
 8820W        W75229  43.211  37.438  10.747
 8821W        W75230   7.830  27.151  13.519
 8822W        W75231  18.004  29.163  13.855
 8823W        W75232  43.209  31.495  13.116
 8824W        W75233  11.225  16.969   4.852
 8825W        W75234   7.022  10.430  14.455
 8826W        W75235  34.936  36.583  10.444
 8827W        W75236   8.433  43.275  12.309
 8828W        W75237  19.657  39.277   2.919
 8829W        W75238  17.232  42.787  11.847
 8830W        W75239  41.764  32.944   3.250
 8831W        W75240  44.004  14.035   9.915
 8832W        W75241   6.062  22.442  14.944
 8833W        W75242  27.222  32.427   0.423
 8834W        W75243  16.108  14.776  13.673
 8835W        W75244  39.314  43.992  11.258
 8836W        W75245  13.473   4.245   4.027
 8837W        W75246   5.456  22.573   3.678
 8838W        W75247  36.111  41.982   1.896
 8839W        W75248  21.830   8.930   3.128
 8840W        W75249   3.471  19.310  10.457
 8841W        W75250  29.384  19.674   0.684
 8842W        W75251   5.379   3.852  13.537
 8843W        W75252   3.785   3.972  10.838
 8844W        W75253  30.851  20.672  13.104
 8845W        W75254  11.910  13.273   1.937
 8846W        W75255  33.826   9.922  11.481
 8847W        W75256  13.533  33.456   4.655
 8848W        W75257  14.746  38.078  12.429
 8849W        W75258  18.182  12.097   1.402
 8850W        W75259  15.654  29.487  14.508
 8851W        W75260  22.683  17.924   0.323
 8852W        W75261  16.241  23.979  10.702
 8853W        W75262  41.797  15.974   3.743
 8854W        W75263  39.719   2.396  11.606
 8855W        W75264  25.541  23.209   1.329
 8856W        W75265  18.048  32.058  13.577
 8857W        W75266   3.228  11.760  12.268
 8858W        W75267  36.942   7.980  14.466
 8859W        W75268  24.314  40.450  11.112
 8860W        W75269  41.577  22.041   1.290
 8861W        W75270  19.668  29.827   0.912
 8862W        W75271  39.604  40.008   1.337
 8863W        W75272   0.739  17.769  13.068
 8864W        W75273   1.442   3.664   1.288
 8865W        W75274   1.743  14.091   0.034
 8866W        W75275  13.610  23.241   0.451
 8867W        W75276  24.169  29.149  14.007
 8868W        W75277  27.727   3.510   9.821
 8869W        W75278  26.101  27.677   5.002
 8870W        W75279  16.392  43.302  12.656
 8871W        W75280  22.551  26.059   4.191
 8872W        W75281   7.243  15.526   3.342
 8873W        W75282  32.612  29.267   2.758
 8874W        W75283  31.505  16.349  10.419
 8875W        W75284  17.697  14.000   1.824
 8876W        W75285   8.586  20.246   2.374
 8877W        W75286   2.592   8.303  11.698
 8878W        W75287  18.286  17.737   3.836
 8879W        W75288  12.034   2.750   1.813
 8880W        W75289  40.270  41.938   3.241
 8881W        W75290  23.184   0.379  11.792
 8882W        W75291  23.897  26.486   4.057
 8883W        W75292  38.505  14.657  14.963
 8884W        W75293  31.015  19.957   4.038
 8885W        W75294  10.335  37.905  13.313
 8886W        W75295  23.799   5.683   3.307
 8887W        W75296  23.642   1.863  13.291
 8888W        W75297  31.549  21.965   3.143
 8889W        W75298  25.666   1.872  13.797
 8890W        W75299  29.901   5.786   1.749
 8891W        W75300  18.288  24.470  10.974
 8892W        W75301   1.950  34.452  14.986
 8893W        W75302  38.579  24.353   1.925
 8894W        W75303   1.983  39.802   0.052
 8895W        W75304  11.171  40.841  14.866
 8896W        W75305  20.624  44.780  13.809
 8897W        W75306  31.636  13.668  14.771
 8898W        W75307  33.859  33.823   2.539
 8899W        W75308  21.397  21.098  13.247
 8900W        W75309  10.088  16.280   3.169
 8901W        W75310   0.861  25.616   4.954
 8902W        W75311   2.669  16.790  13.539
 8903W        W75312  26.994  44.395  13.891
 8904W        W75313   1.283   4.024  14.945
 8905W        W75314   1.376  36.612   0.433
 8906W        W75315  25.705   8.878  14.382
 8907W        W75316  21.627  39.499   4.832
 8908W        W75317   4.591  12.091   0.860
 8909W        W75318  24.666  15.197   3.090
 8910W        W75319  38.566  23.981   0.045
 8911W        W75320  15.126  41.321  12.926
 8912W        W75321  15.276   9.165   2.389
 8913W        W75322   6.947  29.242   0.789
 8914W        W75323   1.427  11.600   1.406
 8915W        W75324   4.672  34.027  13.400
 8916W        W75325   3.605  42.553   4.132
 8917W        W75326   6.777  38.752  14.116
 8918W        W75327   3.394   5.140   4.626
 8919W        W75328  21.427   7.574   1.803
 8920W        W75329  14.076  12.162   3.168
 8921W        W75330   1.849  39.166  14.307
 8922W        W75331  26.495  27.473  13.898
 8923W        W75332   3.706  26.799   3.245
 8924W        W75333  21.402  23.641  13.854
 8925W        W75334  17.146  32.453   3.115
 8926W        W75335  30.333  25.156   5.156
 8927W        W75336  37.553  10.433   0.706
 8928W        W75337  39.804  30.049   1.404
 8929W        W75338  39.071  42.832   1.313
 8930W        W75339  18.077  31.840   3.770
 8931W        W75340  24.600  21.885  12.554
 8932W        W75341  23.750  36.932  13.966
 8933W        W75342   0.235  25.683  11.142
 8934W        W75343  29.268  18.410   0.811
 8935W        W75344  20.034  26.080   2.878
 8936W        W75345  29.949  38.740  12.873
 8937W        W75346  16.334  41.384  13.337
 8938W        W75347   7.133  18.808  11.175
 8939W        W75348  13.359  20.201   1.700
 8940W        W75349   3.972  19.375   0.193
 8941W        W75350  15.579   8.742   4.394
 8942W        W75351  40.833   2.622   4.991
 8943W        W75352  14.633   9.785   1.385
 8944W        W75353  42.335   0.064   1.983
 8945W        W75354  21.880  42.549   3.653
 8946W        W75355  43.476  12.370  10.945
 8947W        W75356  33.796  43.512  11.200
 8948W        W75357  31.307  26.674  12.019
 8949W        W75358   0.213  16.881  11.693
 8950W        W75359  19.812  34.107  13.362
 8951W        W75360  23.675   9.849  13.585
 8952W        W75361  23.184   3.386  14.611
 8953W        W75362   4.281  28.886  11.729
 8954W        W75363  33.396  32.417  11.939
 8955W        W75364  16.879  41.361  12.538
 8956W        W75365   3.380  14.784   4.578
 8957W        W75366  22.633  35.380  10.746
 8958W        W75367  26.624  33.008  10.084
 8959W        W75368  13.211  23.592   1.365
 8960W        W75369  25.558   4.673  11.189
 8961W        W75370  25.471  15.571   3.214
 8962W        W75371  38.979   3.918   2.957
 8963W        W75372  34.979  12.211  11.815
 8964W        W75373   8.775   6.882   0.844
 8965W        W75374   8.689  37.226   4.557
 8966W        W75375  29.722  43.977  12.528
 8967W        W75376  43.356  11.177  13.508
 8968W        W75377  14.249   9.747   1.746
 8969W        W75378  10.968   3.487   4.113
 8970W        W75379  42.708  33.878   3.280
 8971W        W75380  23.297  37.986  11.250
 8972W        W75381  34.898  26.927   1.715
 8973W        W75382  18.764  10.895   1.010
 8974W        W75383  22.119  31.662  13.432
 8975W        W75384  36.075   8.068  12.054
 8976W        W75385  19.433   0.331   4.923
 8977W        W75386  32.652  11.169  10.736
 8978W        W75387   5.936  32.104   3.841
 8979W        W75388  13.286  20.950   9.878
 8980W        W75389  37.844  25.199   0.601
 8981W        W75390  26.489  22.471   1.871
 8982W        W75391  21.351   9.816   1.504
 8983W        W75392  32.592  17.136   3.953
 8984W        W75393   6.845  19.627  11.520
 8985W        W75394   2.723  39.569  11.566
 8986W        W75395  25.627   0.028  13.779
 8987W        W75396  39.874  34.617  11.528
 8988W        W75397  28.992  26.236  12.135
 8989W        W75398  32.884  15.735  13.612
 8990W        W75399  22.460   4.724   9.950
 8991W        W75400  36.181  24.822   3.866
 8992W        W75401  42.893  27.418  13.808
 8993W        W75402  28.422  18.286   4.636
 8994W        W75403  34.389   2.068   1.230
 8995W        W75404  13.328   3.417   3.622
 8996W        W75405  32.423  28.479  12.510
 8997W        W75406  19.353  42.470  11.247
 8998W        W75407  41.831  27.386   1.740
 8999W        W75408  10.430   2.069   2.385
 9000W        W75409  19.727  29.612  10.645
 9001W        W75410   9.045   0.027   3.699
 9002W        W75411  20.627  44.299  12.503
 9003W        W75412  19.476  35.566  13.425
 9004W        W75413  38.939  18.609   4.632
 9005W        W75414  13.784  17.369   1.164
 9006W        W75415  14.492  35.464   0.493
 9007W        W75416  23.803  12.302  12.444
 9008W        W75417  13.255  10.374  11.574
 9009W        W75418  44.362  10.644  13.905
 9010W        W75419   9.503  22.699   3.744
 9011W        W75420   0.689  38.112   1.335
 9012W        W75421  31.573  39.526   5.007
 9013W        W75422   8.804  38.881  10.205
 9014W        W75423  39.449  31.091  11.631
 9015W        W75424  35.652  13.842   0.696
 9016W        W75425   0.238   7.934   2.942
 9017W        W75426  33.460  29.021  10.205
 9018W        W75427  44.585  16.535   0.323
 9019W        W75428   6.599  15.110   2.664
 9020W        W75429  11.729  14.294   3.464
 9021W        W75430  38.672   8.594   3.127
 9022W        W75431  26.129  19.700  14.512
 9023W        W75432  16.971  13.817   0.717
 9024W        W75433  43.243  41.441  13.429
 9025W        W75434  14.564  27.912  13.918
 9026W        W75435  35.219  32.970  11.606
 9027W        W75436  22.737  34.118   1.489
 9028W        W75437  20.237  25.974   4.523
 9029W        W75438  17.144  29.571  13.064
 9030W        W75439  33.075   8.260  14.854
 9031W        W75440  29.643  41.377   4.633
 9032W        W75441   4.414  28.111  10.590
 9033W        W75442   8.905  25.486  13.867
 9034W        W75443   3.332   2.621   3.742
 9035W        W75444  20.865  40.821  11.023
 9036W        W75445  16.810  10.321   2.401
 9037W        W75446  11.210  34.372   4.524
 9038W        W75447   0.561  38.434   0.204
 9039W        W75448  30.820  13.256  13.018
 9040W        W75449  13.025   2.859  11.606
 9041W        W75450   2.229  26.227  11.615
 9042W        W75451   3.929   1.896  10.812
 9043W        W75452  23.192  14.120   2.201
 9044W        W75453  41.366   7.450   1.420
 9045W        W75454  10.281  31.750   0.945
 9046W        W75455  18.292  38.434  11.138
 9047W        W75456  41.988  25.697   4.712
 9048W        W75457  11.588  42.838  12.508
 9049W        W75458  20.511  15.729   2.227
 9050W        W75459  31.573  43.247   4.668
 9051W        W75460  21.187   0.499  14.041
 9052W        W75461  25.479  18.226   0.434
 9053W        W75462  26.927  30.237  11.621
 9054W        W75463  10.482  24.179   4.666
 9055W        W75464  38.035  31.944   2.288
 9056W        W75465  40.045  34.335  11.132
 9057W        W75466  22.168  22.744   0.474
 9058W        W75467  33.617   2.225  11.685
 9059W        W75468  22.540  11.096  11.956
 9060W        W75469  12.255  36.878   3.570
 9061W        W75470  30.312  23.528  10.745
 9062W        W75471  24.709  16.577  12.070
 9063W        W75472  19.579  38.259   4.123
 9064W        W75473  20.215  12.417  14.265
 9065W        W75474  23.730  28.614   3.246
 9066W        W75475  44.064  18.746   3.555
 9067W        W75476  23.658  34.017  12.412
 9068W        W75477  22.497  22.002   0.941
 9069W        W75478   3.411  16.724  11.045
 9070W        W75479  29.502   4.509   0.460
 9071W        W75480  39.504  27.576   1.186
 9072W        W75481  29.622  41.769   2.753
 9073W        W75482  39.842  14.288   0.295
 9074W        W75483  32.027   8.751  13.019
 9075W        W75484  25.191  16.663   3.832
 9076W        W75485  19.232   6.324   2.435
 9077W        W75486  22.138  29.400  13.338
 9078W        W75487  23.695  33.326   2.419
 9079W        W75488  11.878  18.654   4.442
 9080W        W75489  43.743  36.485   1.249
 9081W        W75490  29.543  32.556   2.812
 9082W        W75491   3.291  26.169  13.829
 9083W        W75492  42.329   4.197   3.723
 9084W        W75493   3.680  11.076   3.749
 9085W        W75494  44.382  22.730  11.126
 9086W        W75495  41.519  15.131  13.860
 9087W        W75496  35.559  39.960   2.249
 9088W        W75497  10.655  43.362   3.681
 9089W        W75498  40.176   5.390   2.764
 9090W        W75499   4.926  35.408  14.492
 9091W        W75500   3.988  31.425  12.883
 9092W        W75501  21.597  14.332   3.410
 9093W        W75502  42.355  12.414  11.512
 9094W        W75503  26.276  18.056  12.503
 9095W        W75504   7.329   1.987   0.699
 9096W        W75505  24.567  12.501   1.245
 9097W        W75506  26.940  23.555  12.506
 9098W        W75507  14.491   3.406  13.866
 9099W        W75508  35.486  16.255   5.021
 9100W        W75509  11.542  41.347   3.758
 9101W        W75510  16.353  40.331  10.764
 9102W        W75511  44.397  27.108  14.039
 9103W        W75512  31.666   1.207   5.051
 9104W        W75513   9.383  33.818   1.736
 9105W        W75514  31.630   5.112  14.967
 9106W        W75515  17.507  34.401  10.774
 9107W        W75516  38.563  21.819   5.399
 9108W        W75517  13.111  25.180  12.388
 9109W        W75518  11.562  26.091  11.103
 9110W        W75519   0.520  18.490   3.308
 9111W        W75520  42.981  29.882   3.893
 9112W        W75521  14.058  35.329   3.221
 9113W        W75522  32.169  27.501   1.444
 9114W        W75523   3.331  16.334  10.691
 9115W        W75524  17.927  30.438  14.295
 9116W        W75525  35.218  21.115   2.930
 9117W        W75526  41.117  31.534   1.900
 9118W        W75527  40.309  21.988   0.251
 9119W        W75528  14.193   6.158  11.955
 9120W        W75529   4.233  26.235  12.260
 9121W        W75530  33.634  42.939   4.190
 9122W        W75531  33.998  15.248  14.347
 9123W        W75532  11.931  10.429  14.381
 9124W        W75533   6.251  16.659  13.017
 9125W        W75534  27.655  29.608   0.742
 9126W        W75535  38.435   5.835  12.871
 9127W        W75536  35.158   9.156   2.324
 9128W        W75537  31.879  20.035  12.465
 9129W        W75538   0.772  23.745   1.783
 9130W        W75539   6.321  26.240   3.624
 9131W        W75540  12.719  18.194   4.747
 9132W        W75541  10.431  43.842   3.662
 9133W        W75542  19.759  19.536  14.551
 9134W        W75543  32.427   3.753   1.374
 9135W        W75544  36.221   5.412   1.901
 9136W        W75545  28.581  27.558  12.985
 9137W        W75546   9.194  11.810  14.000
 9138W        W75547  11.571  14.746   2.805
 9139W        W75548  28.006   5.453   4.793
 9140W        W75549   1.964  36.480  11.186
 9141W        W75550  19.519  17.178  14.792
 9142W        W75551  18.613  41.024  11.141
 9143W        W75552  24.628  36.297   2.194
 9144W        W75553  30.148  18.309   3.556
 9145W        W75554  35.185   7.531   5.101
 9146W        W75555   5.795   1.865  12.548
 9147W        W75556   5.010  44.791   1.361
 9148W        W75557   0.259  26.240   4.131
 9149W        W75558   6.357  21.111  11.566
 9150W        W75559  35.239  12.786   4.653
 9151W        W75560  43.339   4.473   0.299
 9152W        W75561   2.962  26.935  10.887
 9153W        W75562   1.231  42.710   0.013
 9154W        W75563   0.592   0.386  12.024
 9155W        W75564  17.480   7.646   1.042
 9156W        W75565  18.571   1.919   3.712
 9157W        W75566   8.648  39.030  11.647
 9158W        W75567  40.861  31.995   3.857
 9159W        W75568  15.770  13.908   4.215
 9160W        W75569   9.805   3.287  12.494
 9161W        W75570  13.235  29.142   4.648
 9162W        W75571  30.480  32.206   1.724
 9163W        W75572   6.873  31.512  14.988
 9164W        W75573  18.244  30.840   1.194
 9165W        W75574   6.821  40.291  12.922
 9166W        W75575  23.912   1.352   3.824
 9167W        W75576  26.696  40.637  11.326
 9168W        W75577  17.649  31.479  12.471
 9169W        W75578  37.557  11.329  12.550
 9170W        W75579  19.537  22.143  14.275
 9171W        W75580  22.089  28.116   1.851
 9172W        W75581  18.989   8.284  13.244
 9173W        W75582  12.925  43.362   4.332
 9174W        W75583  34.462  17.569  11.182
 9175W        W75584   2.371  13.099   2.232
 9176W        W75585  28.725  33.467   1.900
 9177W        W75586  43.229  39.276  10.996
 9178W        W75587   9.385  36.592  14.545
 9179W        W75588   3.359  40.889   0.499
 9180W        W75589   1.038  37.990  11.513
 9181W        W75590  17.793  37.852  12.873
 9182W        W75591  24.087  32.110  11.628
 9183W        W75592   9.298  37.480   0.028
 9184W        W75593  26.453  19.151   0.344
 9185W        W75594  22.717  30.891   2.259
 9186W        W75595  16.534  40.357  12.515
 9187W        W75596   0.487   8.764  10.674
 9188W        W75597  33.911  19.236   1.304
 9189W        W75598  32.082  33.895   3.202
 9190W        W75599  13.347  40.467  14.778
 9191W        W75600  40.519  27.759  11.924
 9192W        W75601  35.633  29.111  11.104
 9193W        W75602  34.877   9.613  13.572
 9194W        W75603  38.558  31.438   3.621
 9195W        W75604  32.921  17.121  14.826
 9196W        W75605  35.702  20.396   1.962
 9197W        W75606  27.095  32.337   3.621
 9198W        W75607  39.328   6.875   4.848
 9199W        W75608  13.048  34.356  14.474
 9200W        W75609  37.077  27.660  11.460
 9201W        W75610  15.655   4.906   3.196
 9202W        W75611  13.911  35.580   2.700
 9203W        W75612  29.530  38.546  14.426
 9204W        W75613   3.366  20.192  11.684
 9205W        W75614  41.727   3.821  13.931
 9206W        W75615  27.979  12.710   2.402
 9207W        W75616   7.293  21.075  14.402
 9208W        W75617  15.193  44.464   1.961
 9209W        W75618  44.091  13.292  12.101
 9210W        W75619   8.613  33.080   1.641
 9211W        W75620   3.752  27.898  13.078
 9212W        W75621   6.697  35.137   4.037
 9213W        W75622  18.630  34.652  11.477
 9214W        W75623  33.592   3.546  12.969
 9215W        W75624   1.695  11.384   0.991
 9216W        W75625  41.475  35.017   1.973
 9217W        W75626  35.140  39.251   3.204
 9218W        W75627  27.001  18.025  11.950
 9219W        W75628  41.480  36.565  11.768
 9220W        W75629  19.066  35.494   3.403
 9221W        W75630  36.049  12.134  12.121
 9222W        W75631  25.599   5.562  13.467
 9223W        W75632  38.995  42.527  12.176
 9224W        W75633   5.212  31.900  11.967
 9225W        W75634  32.623   5.702   4.166
 9226W        W75635  10.658  23.709   1.258
 9227W        W75636  29.244  41.403   0.811
 9228W        W75637  39.785  29.061  14.040
 9229W        W75638  11.761  42.717   2.788
 9230W        W75639  16.673   0.356   0.559
 9231W        W75640  29.303  19.857  13.375
 9232W        W75641  15.097  34.437   3.171
 9233W        W75642  23.753  28.047  11.172
 9234W        W75643   8.828   7.228  12.075
 9235W        W75644  13.349  11.876  14.880
 9236W        W75645   2.473  39.681   0.315
 9237W        W75646  35.931  17.728  11.860
 9238W        W75647  18.145  26.128  10.746
 9239W        W75648   0.897   6.934   1.289
 9240W        W75649  19.134  33.409   1.210
 9241W        W75650  16.662  17.164   1.201
 9242W        W75651  38.712   0.511  13.474
 9243W        W75652  13.646  26.994  13.586
 9244W        W75653  33.927   0.899   4.657
 9245W        W75654  16.773  24.960  12.584
 9246W        W75655  42.777  40.578  11.918
 9247W        W75656  40.497  44.466   2.144
 9248W        W75657  19.178  10.797   1.958
 9249W        W75658   1.200  17.987  14.755
 9250W        W75659  16.523  36.082  12.046
 9251W        W75660  19.109  33.454   1.727
 9252W        W75661   9.963  29.018  11.722
 9253W        W75662  18.332  33.490  14.946
 9254W        W75663   1.307   0.174   0.015
 9255W        W75664  27.492   1.044  12.967
 9256W        W75665   5.417   6.896   0.935
 9257W        W75666  10.206   1.337   3.911
 9258W        W75667  37.933  27.234   0.403
 9259W        W75668  29.695  15.298  14.894
 9260W        W75669  21.177   7.214   0.012
 9261W        W75670  18.369  41.037   2.805
 9262W        W75671  21.281  29.067  12.152
 9263W        W75672  23.702   5.907   0.082
 9264W        W75673  15.268  39.801   2.277
 9265W        W75674  24.614  20.105   5.569
 9266W        W75675  18.934  24.948  11.192
 9267W        W75676  12.153   9.577  10.398
 9268W        W75677  29.443  19.196   2.853
 9269W        W75678  12.739  35.569   4.981
 9270W        W75679   1.981  13.264  13.047
 9271W        W75680  28.163  29.406   2.772
 9272W        W75681  14.789   9.766   0.398
 9273W        W75682  33.227  22.846   3.029
 9274W        W75683  15.574   7.824  13.135
 9275W        W75684  35.061  11.144   1.252
 9276W        W75685  34.363   7.701   2.660
 9277W        W75686  10.360  17.238   4.572
 9278W        W75687  17.567  41.971  13.449
 9279W        W75688  39.627  40.466   1.066
 9280W        W75689  13.268  13.025   0.439
 9281W        W75690  22.210   8.942  14.438
 9282W        W75691  40.115  19.216   2.788
 9283W        W75692  24.247   5.667   4.233
 9284W        W75693  17.361  18.654   3.196
 9285W        W75694  44.771  44.064   3.276
 9286W        W75695  40.848  20.175   4.477
 9287W        W75696  22.764  16.175   3.509
 9288W        W75697  41.376  13.387   2.366
 9289W        W75698  15.451   5.413  10.792
 9290W        W75699  21.703  21.725  10.724
 9291W        W75700  35.847  16.387  11.568
 9292W        W75701  17.633  20.846   2.301
 9293W        W75702   8.005  34.922  10.798
 9294W        W75703   9.827  29.086   3.974
 9295W        W75704  42.297  31.068  11.239
 9296W        W75705   2.874  16.724   0.030
 9297W        W75706  38.302  33.463   1.146
 9298W        W75707  28.997  28.077   2.434
 9299W        W75708  17.062  18.234   2.316
 9300W        W75709  31.436  34.045  14.374
 9301W        W75710  27.563   0.086   4.604
 9302W        W75711  35.965  29.028   3.756
 9303W        W75712   1.017  18.099   4.209
 9304W        W75713  12.383  12.129   2.494
 9305W        W75714   1.437  10.233   1.925
 9306W        W75715  16.209  26.226   4.743
 9307W        W75716  12.202  37.466   0.760
 9308W        W75717  18.133  11.515   1.336
 9309W        W75718  36.025  10.041   3.708
 9310W        W75719  21.296  23.034  13.950
 9311W        W75720  29.135  16.122   0.784
 9312W        W75721  26.944  28.997   4.420
 9313W        W75722  23.744  20.488  14.978
 9314W        W75723  35.176  22.541  12.005
 9315W        W75724   3.210  13.379   3.248
 9316W        W75725  15.264   3.570  10.751
 9317W        W75726  33.022  34.447  14.882
 9318W        W75727   5.385  21.049   2.857
 9319W        W75728  42.720  21.289   0.166
 9320W        W75729  32.485  29.463   2.307
 9321W        W75730  34.156  14.870  14.020
 9322W        W75731   9.136  37.279   3.293
 9323W        W75732  44.254  19.460  12.562
 9324W        W75733  32.556  31.723   0.127
 9325W        W75734  24.274   3.830  12.117
 9326W        W75735   6.820  17.366   1.463
 9327W        W75736  30.010  18.013   3.969
 9328W        W75737  33.456  13.547  13.938
 9329W        W75738  41.283  20.819  12.857
 9330W        W75739  21.292   2.994  11.215
 9331W        W75740   3.020  13.855   3.380
 9332W        W75741  19.572  15.394  14.822
 9333W        W75742  35.849  32.352   0.695
 9334W        W75743  20.679  42.798   1.481
 9335W        W75744  31.061  32.508   4.688
 9336W        W75745  14.496  41.296  10.790
 9337W        W75746  18.096  26.758  14.583
 9338W        W75747   4.628  36.495  14.761
 9339W        W75748   3.292  33.468   4.602
 9340W        W75749   1.699  19.725  10.776
 9341W        W75750   6.877   1.603   2.640
 9342W        W75751   9.179  39.385  13.227
 9343W        W75752  35.535  27.412  14.830
 9344W        W75753   2.427  19.613   1.273
 9345W        W75754  38.232  36.904  11.056
 9346W        W75755  20.420  10.590   2.677
 9347W        W75756   8.897   7.676   3.293
 9348W        W75757  41.560  14.886  13.397
 9349W        W75758  31.100  11.885   4.887
 9350W        W75759  42.468   0.969   2.755
 9351W        W75760  13.154  29.015   1.266
 9352W        W75761  13.124  10.020  11.191
 9353W        W75762  42.419   3.886  12.575
 9354W        W75763  22.675  26.601   3.519
 9355W        W75764  36.334  29.529  13.235
 9356W        W75765  13.094  29.458  12.655
 9357W        W75766   5.464  21.722   1.086
 9358W        W75767  35.299  29.182  14.306
 9359W        W75768  40.785  21.184   1.785
 9360W        W75769  38.520  20.199  10.401
 9361W        W75770  43.310  40.908   1.450
 9362W        W75771  43.405  15.089   4.630
 9363W        W75772  28.226  43.918   2.585
 9364W        W75773  33.441  31.808   4.607
 9365W        W75774  25.444  24.171  12.969
 9366W        W75775   5.473  21.486  14.541
 9367W        W75776  32.259  33.978   0.845
 9368W        W75777  41.464  17.345  14.805
 9369W        W75778  15.999  38.903   0.477
 9370W        W75779  43.556  18.653  12.358
 9371W        W75780  13.099  14.254   4.487
 9372W        W75781  17.195  31.713  12.468
 9373W        W75782  18.735   6.650  13.948
 9374W        W75783  18.325  33.213   1.864
 9375W        W75784  19.557   2.679   4.293
 9376W        W75785  21.840  20.414   1.887
 9377W        W75786  34.459  36.376  11.230
 9378W        W75787  38.871  28.693  14.305
 9379W        W75788  39.631  42.274  12.978
 9380W        W75789  42.744   0.475   1.439
 9381W        W75790  22.253  22.937  11.423
 9382W        W75791  12.784  15.257  10.768
 9383W        W75792  10.106  27.163   4.418
 9384W        W75793  19.803  13.861  12.106
 9385W        W75794  28.976   2.895  10.764
 9386W        W75795  37.392  37.471   2.619
 9387W        W75796  27.975  26.086   4.497
 9388W        W75797  39.970  28.110   4.877
 9389W        W75798  26.829   1.937   0.800
 9390W        W75799  10.750  39.969  14.490
 9391W        W75800  18.753  35.823   1.188
 9392W        W75801   8.128  43.268  13.987
 9393W        W75802  16.720  29.969  12.406
 9394W        W75803  30.035  31.043   4.146
 9395W        W75804   4.108  23.200  13.859
 9396W        W75805  11.680  31.469   4.364
 9397W        W75806   9.596  13.905   1.733
 9398W        W75807  14.738  32.544  14.445
 9399W        W75808  40.857   2.041  14.456
 9400W        W75809  35.243  42.421  13.373
 9401W        W75810  14.787   7.720  11.633
 9402W        W75811  19.986  15.186   4.849
 9403W        W75812  19.379   0.491  13.766
 9404W        W75813  18.177  26.817  10.716
 9405W        W75814   5.227  43.490  10.730
 9406W        W75815  44.324  23.144  11.424
 9407W        W75816  14.362  41.552   1.651
 9408W        W75817  18.909  31.002  12.737
 9409W        W75818  14.044  10.332  13.386
 9410W        W75819  30.042  41.336  10.735
 9411W        W75820  24.554  22.848  13.513
 9412W        W75821  17.774  22.053  12.553
 9413W        W75822  14.578  36.929   4.019
 9414W        W75823  28.452   0.250  13.538
 9415W        W75824  31.024  32.798  11.944
 9416W        W75825  16.813  37.287   5.241
 9417W        W75826  34.111  10.303  11.092
 9418W        W75827  39.221  39.266   4.108
 9419W        W75828   0.046   9.407  14.355
 9420W        W75829   1.178  25.547  14.926
 9421W        W75830  38.943   1.479   3.637
 9422W        W75831  27.111  38.040   2.405
 9423W        W75832  14.873   8.915   0.915
 9424W        W75833   4.355  40.204   2.845
 9425W        W75834  10.142  14.489   5.187
 9426W        W75835  38.566  40.465   3.574
 9427W        W75836  15.770   7.947   3.725
 9428W        W75837  20.061   6.833  12.823
 9429W        W75838  27.587  24.132   3.979
 9430W        W75839  13.386  42.812   4.077
 9431W        W75840  39.776   9.845   0.738
 9432W        W75841  29.145   2.205  11.211
 9433W        W75842  24.991   6.390  13.079
 9434W        W75843  15.254  14.264  14.892
 9435W        W75844  43.372  42.798  12.195
 9436W        W75845  40.801  17.429   3.576
 9437W        W75846  26.460  23.636   0.891
 9438W        W75847  42.266  25.736  13.906
 9439W        W75848  34.519  32.971  11.463
 9440W        W75849  34.075  10.770  14.786
 9441W        W75850   7.431  39.950  12.053
 9442W        W75851  21.441   2.465  11.612
 9443W        W75852   9.686  42.332   2.285
 9444W        W75853  19.159  33.877  12.870
 9445W        W75854  41.894  32.623   2.843
 9446W        W75855  28.475  24.874   0.940
 9447W        W75856   4.288  27.008  12.316
 9448W        W75857  41.295   4.728  13.783
 9449W        W75858  27.047  21.472   3.716
 9450W        W75859   7.187  30.584   0.241
 9451W        W75860  22.311  30.583   4.620
 9452W        W75861  36.539   8.211   1.951
 9453W        W75862  21.987  22.104   4.738
 9454W        W75863  41.846  26.657  13.834
 9455W        W75864  16.568   1.760   3.723
 9456W        W75865   9.309   1.391   1.852
 9457W        W75866  13.014   8.676   4.977
 9458W        W75867   0.916  21.071   1.447
 9459W        W75868  41.945  35.082   2.927
 9460W        W75869   6.225   7.110  13.233
 9461W        W75870  23.183  19.533   0.391
 9462W        W75871   3.709  32.995   1.293
 9463W        W75872  32.899  13.485   2.304
 9464W        W75873  43.084  23.773   1.850
 9465W        W75874  11.774  24.918  10.760
 9466W        W75875  44.414  29.573   1.858
 9467W        W75876  32.612  42.347  14.408
 9468W        W75877  22.735   1.912  13.503
 9469W        W75878  26.170   0.876  14.791
 9470W        W75879   9.168  31.654   3.138
 9471W        W75880  22.011  31.023  14.424
 9472W        W75881   3.329   5.848   1.710
 9473W        W75882  33.656  29.396   4.187
 9474W        W75883  33.356   4.770  12.421
 9475W        W75884  32.595  34.531   4.169
 9476W        W75885   8.577  16.217   4.094
 9477W        W75886   1.450   8.686  13.480
 9478W        W75887  31.836  36.418  13.859
 9479W        W75888   5.719  13.928  11.017
 9480W        W75889  39.300  11.314  14.948
 9481W        W75890  17.735  33.024   4.637
 9482W        W75891  15.843  29.094   2.673
 9483W        W75892  11.871  44.639   3.057
 9484W        W75893   3.395  13.414  13.434
 9485W        W75894  32.919  39.443   2.359
 9486W        W75895  16.956  40.523  11.415
 9487W        W75896  21.603   1.728   2.682
 9488W        W75897  21.923  32.318  12.059
 9489W        W75898  14.155  16.048  14.258
 9490W        W75899   7.810  35.063  13.440
 9491W        W75900   1.013  15.147   4.282
 9492W        W75901  37.940   6.989   1.852
 9493W        W75902   4.784  18.181  10.612
 9494W        W75903  16.905  35.095  14.504
 9495W        W75904   3.381  38.768   4.031
 9496W        W75905  24.197  32.434   4.579
 9497W        W75906  28.887  38.425  10.968
 9498W        W75907  20.897  36.838   1.044
 9499W        W75908  22.590  31.173  13.341
 9500W        W75909   8.747  35.570  12.472
 9501W        W75910  34.595  43.046  11.223
 9502W        W75911  40.508  35.986   1.763
 9503W        W75912  44.469  24.133   4.730
 9504W        W75913  41.837  16.648  14.938
 9505W        W75914  31.330  18.614  10.505
 9506W        W75915  12.156  26.770  11.550
 9507W        W75916  28.433   8.906  13.837
 9508W        W75917   0.931  13.107  14.716
 9509W        W75918  29.918  30.444  13.944
 9510W        W75919  20.629  33.601  14.758
 9511W        W75920  12.563  21.199   1.032
 9512W        W75921  17.129  12.677   4.276
 9513W        W75922  42.534  37.886  13.344
 9514W        W75923   7.748  21.530   0.490
 9515W        W75924  34.829  36.454  13.001
 9516W        W75925  22.389  24.133   1.586
 9517W        W75926   4.409  36.146   0.785
 9518W        W75927   4.304  43.298  13.433
 9519W        W75928  24.719  12.080   2.643
 9520W        W75929   7.927  41.057  13.413
 9521W        W75930  15.661   2.948  13.952
 9522W        W75931  29.509  35.330   3.668
 9523W        W75932  13.416  28.476   1.099
 9524W        W75933  35.494   1.160  14.727
 9525W        W75934  33.980  33.179  12.150
 9526W        W75935  35.480  14.868   2.328
 9527W        W75936  26.524  21.073   4.552
 9528W        W75937  15.693  27.537  12.788
 9529W        W75938  19.706  16.562   2.290
 9530W        W75939  18.077  20.793   0.121
 9531W        W75940  27.209  31.001  11.250
 9532W        W75941  36.506   6.257  10.946
 9533W        W75942  38.513   3.330   1.806
 9534W        W75943   8.589  17.942  12.661
 9535W        W75944  36.302  31.428   2.768
 9536W        W75945  12.821  44.336   1.168
 9537W        W75946  35.587  19.209   1.538
 9538W        W75947  43.441   8.082   5.449
 9539W        W75948  35.927  33.978   3.672
 9540W        W75949  42.730  40.204  13.302
 9541W        W75950  21.992   5.912   0.322
 9542W        W75951   5.666   3.953  11.291
 9543W        W75952  31.298   4.334   4.040
 9544W        W75953  10.602   8.976   2.331
 9545W        W75954   8.626  33.830  13.871
 9546W        W75955   0.384  44.933   4.731
 9547W        W75956  39.458  33.324  11.168
 9548W        W75957   6.347  15.594   3.266
 9549W        W75958  29.523   3.957   1.413
 9550W        W75959  28.131  38.448   3.334
 9551W        W75960   8.198  38.461  13.386
 9552W        W75961  22.393  17.656   2.114
 9553W        W75962  42.021  43.873  14.290
 9554W        W75963  30.669   8.321   5.513
 9555W        W75964  10.196  35.587   3.339
 9556W        W75965  22.556  39.460   2.209
 9557W        W75966   3.340   3.730  12.955
 9558W        W75967  11.187  28.859  14.094
 9559W        W75968   0.245   3.040   4.984
 9560W        W75969  29.038   7.659   2.591
 9561W        W75970   4.703  17.495   1.862
 9562W        W75971  19.690  10.874   1.802
 9563W        W75972   4.959  40.418  11.996
 9564W        W75973  22.934  11.282   1.383
 9565W        W75974  26.684  12.427  10.158
 9566W        W75975   1.720  23.105   3.260
 9567W        W75976   2.927  39.345   0.266
 9568W        W75977   5.572  20.118  12.478
 9569W        W75978   3.187  26.357   4.147
 9570W        W75979  23.608   6.487   3.108
 9571W        W75980  20.170  12.266  14.764
 9572W        W75981  25.072   8.459   1.113
 9573W        W75982  40.228  13.201   1.248
 9574W        W75983  43.650  17.887  11.271
 9575W        W75984  11.202  18.534  14.381
 9576W        W75985  26.680  44.484  14.432
 9577W        W75986   9.794  14.760   4.605
 9578W        W75987  19.076   0.195  11.394
 9579W        W75988  32.661   4.353  12.638
 9580W        W75989  40.811  34.478   3.913
 9581W        W75990   5.702  38.118  14.929
 9582W        W75991  12.132  25.921  13.487
 9583W        W75992  29.458  33.614  12.068
 9584W        W75993   2.886   5.252   4.072
 9585W        W75994  34.399   7.059   4.452
 9586W        W75995   4.841   8.224  13.481
 9587W        W75996   9.319  11.416  11.955
 9588W        W75997   1.721  20.286   0.305
 9589W        W75998  15.571   8.429   0.338
 9590W        W75999   1.322   4.420   0.917
 9591W        W76000  32.682  19.161  11.316
 9592W        W76001  33.051  13.721  13.059
 9593W        W76002  11.753  23.737  13.354
 9594W        W76003  38.374   5.582  13.328
 9595W        W76004  13.089  31.815   3.649
 9596W        W76005   4.482  30.247   4.248
 9597W        W76006  33.405  15.508   0.843
 9598W        W76007  12.147   4.802  10.895
 9599W        W76008  36.640   2.331   2.717
 9600W        W76009  38.360   6.428  13.895
 9601W        W76010  20.329  28.035  13.014
 9602W        W76011  27.658   3.497   3.781
 9603W        W76012  33.653  29.135   1.374
 9604W        W76013  15.201  32.978   3.160
 9605W        W76014  18.163  23.204  12.306
 9606W        W76015  16.747  36.303   4.595
 9607W        W76016  22.476  25.450   9.970
 9608W        W76017  25.420  30.930  14.089
 9609W        W76018  23.708  34.474   0.362
 9610W        W76019  43.045  21.474   4.546
 9611W        W76020  17.114  12.727   1.383
 9612W        W76021  29.003  11.953   0.425
 9613W        W76022   2.911   1.424   0.677
 9614W        W76023  33.451  40.479   4.544
 9615W        W76024  25.758  26.110  12.470
 9616W        W76025  29.666  19.485  13.284
 9617W        W76026  34.555  13.398  11.058
 9618W        W76027  23.726  25.012   4.544
 9619W        W76028   0.322  29.571   4.189
 9620W        W76029  18.661  14.760  12.924
 9621W        W76030  38.767  33.519  14.835
 9622W        W76031  33.541  44.458  14.296
 9623W        W76032  41.307  26.606  12.413
 9624W        W76033  18.074  40.855  10.324
 9625W        W76034  28.950  24.660  13.970
 9626W        W76035  33.460   5.185  14.536
 9627W        W76036  36.573   6.906  12.464
 9628W        W76037  37.671  12.982   9.702
 9629W        W76038  11.390   0.943   0.911
 9630W        W76039  22.155  20.929   4.574
 9631W        W76040   9.238   5.260  12.633
 9632W        W76041   5.420  25.654   2.306
 9633W        W76042  33.482  16.323   1.347
 9634W        W76043  37.058  18.453  11.845
 9635W        W76044   0.826  31.482   0.611
 9636W        W76045  21.991  16.809   0.901
 9637W        W76046  19.500   2.720  14.471
 9638W        W76047  41.789  41.209   1.230
 9639W        W76048  43.684  11.075  10.667
 9640W        W76049  17.567  39.005  14.453
 9641W        W76050  40.239  40.560   1.843
 9642W        W76051  41.967  25.458   0.739
 9643W        W76052  35.243   2.794   0.820
 9644W        W76053  21.406   6.202   0.018
 9645W        W76054  41.431   0.998  13.992
 9646W        W76055  43.040  44.394  11.579
 9647W        W76056  25.664  28.982   3.977
 9648W        W76057   6.669  20.611   1.602
 9649W        W76058  17.321  44.477  12.477
 9650W        W76059   4.930  32.324   0.392
 9651W        W76060  39.806  37.916   0.391
 9652W        W76061  30.193  43.830   1.966
 9653W        W76062   2.732  29.753   3.035
 9654W        W76063  11.190  19.139  11.902
 9655W        W76064   7.603  23.282  14.066
 9656W        W76065   1.449  29.334   0.583
 9657W        W76066  16.657  32.218   2.362
 9658W        W76067   9.276   3.522   4.529
 9659W        W76068  22.931   0.392  14.528
 9660W        W76069  39.017  32.844   2.013
 9661W        W76070   9.581   2.249   2.362
 9662W        W76071  24.203  38.328  10.918
 9663W        W76072   8.210  26.599   3.277
 9664W        W76073  11.485  18.414   4.190
 9665W        W76074  25.054  43.958   4.721
 9666W        W76075  16.569  10.336   4.400
 9667W        W76076  28.794  12.711   2.711
 9668W        W76077  27.133  20.309  13.119
 9669W        W76078   9.399  12.734   3.808
 9670W        W76079  25.182   7.944   0.968
 9671W        W76080  42.611  26.974  13.924
 9672W        W76081  42.583  39.475  11.175
 9673W        W76082  16.503  36.180   1.402
 9674W        W76083  24.949   4.224   0.528
 9675W        W76084  20.549  39.578  10.650
 9676W        W76085  10.915  15.150  12.510
 9677W        W76086  31.508  39.456   1.936
 9678W        W76087  35.399  35.876  13.882
 9679W        W76088  23.265  23.762  13.816
 9680W        W76089   3.868  39.362   4.628
 9681W        W76090  25.686  12.297  13.029
 9682W        W76091   1.427  12.464   1.821
 9683W        W76092  12.816   9.548   1.698
 9684W        W76093  29.529   8.455   9.740
 9685W        W76094   8.287  16.121   1.495
 9686W        W76095  24.292  21.785  13.049
 9687W        W76096  44.986  10.429   4.006
 9688W        W76097  32.617  19.603  12.102
 9689W        W76098  41.069  43.527  10.579
 9690W        W76099  28.620  10.700  11.962
 9691W        W76100  37.877  28.174   3.763
 9692W        W76101  10.418  14.902   1.333
 9693W        W76102  42.118  40.927  11.566
 9694W        W76103   3.210  10.693  14.816
 9695W        W76104  33.984  27.091   1.938
 9696W        W76105   2.772  12.345  13.878
 9697W        W76106  40.523  29.786  12.032
 9698W        W76107   0.506  21.975   0.453
 9699W        W76108  19.306  31.186   2.205
 9700W        W76109  30.129   2.236  11.900
 9701W        W76110  14.371  31.986   4.597
 9702W        W76111   5.160  32.860   2.734
 9703W        W76112   8.953  24.041  13.135
 9704W        W76113  40.157   3.432   1.978
 9705W        W76114   2.071  36.400  12.082
 9706W        W76115  40.266  33.353   3.856
 9707W        W76116  40.738  23.697   2.129
 9708W        W76117  32.750  22.440  13.503
 9709W        W76118  23.575  22.539  13.948
 9710W        W76119  29.988   4.472  13.059
 9711W        W76120  41.388  39.755   4.144
 9712W        W76121  22.073  43.294   4.315
 9713W        W76122  36.362  38.600   3.848
 9714W        W76123   8.077  18.223   1.842
 9715W        W76124  26.205   6.556  11.001
 9716W        W76125  41.293  36.957   3.672
 9717W        W76126  32.467  21.913   2.826
 9718W        W76127  19.232   6.345  12.610
 9719W        W76128  18.462  32.013  12.596
 9720W        W76129   7.401  14.533   5.064
 9721W        W76130  44.615  40.774  12.951
 9722W        W76131  14.283  16.593  12.153
 9723W        W76132  14.608  26.209  12.552
 9724W        W76133  37.469  18.250   3.297
 9725W        W76134  18.724  17.766   2.840
 9726W        W76135  17.180  27.914   3.160
 9727W        W76136  34.303   6.650   0.334
 9728W        W76137  39.836  32.677  13.936
 9729W        W76138  30.059  17.505   3.786
 9730W        W76139   8.985  22.555  14.181
 9731W        W76140   1.357  34.317  11.219
 9732W        W76141   3.262   9.684   0.828
 9733W        W76142  20.324  26.667   9.881
 9734W        W76143  29.470  37.818  13.925
 9735W        W76144   5.867  23.331  13.364
 9736W        W76145  39.116  21.751  13.654
 9737W        W76146  12.874  42.690   2.759
 9738W        W76147  28.029  25.626   0.875
 9739W        W76148  38.510   0.762  10.464
 9740W        W76149  33.864  27.554   2.175
 9741W        W76150  10.679  23.567   3.747
 9742W        W76151  14.373  32.169  14.268
 9743W        W76152   8.236  29.279  12.294
 9744W        W76153  30.149   8.928  10.384
 9745W        W76154  44.032   9.471   0.903
 9746W        W76155  29.234  43.867  12.318
 9747W        W76156  10.425  22.646   1.280
 9748W        W76157  41.801  40.263  13.590
 9749W        W76158  40.143   6.302   5.200
 9750W        W76159  18.056   3.384   4.219
 9751W        W76160   1.410  42.952   2.751
 9752W        W76161   2.662   3.510   0.720
 9753W        W76162  15.421  22.557   3.214
 9754W        W76163  16.047  23.132   0.375
 9755W        W76164  19.083  38.848  10.640
 9756W        W76165   0.873   2.592   2.132
 9757W        W76166  35.185  19.300   5.610
 9758W        W76167  41.622  11.335  11.237
 9759W        W76168  30.584  13.028   0.841
 9760W        W76169  36.871  28.045   3.115
 9761W        W76170  21.984  12.669  13.597
 9762W        W76171   3.531   0.079  13.740
 9763W        W76172  25.105  37.845  13.339
 9764W        W76173  38.283  14.215   0.745
 9765W        W76174  40.489  16.813  14.036
 9766W        W76175  15.145  33.688  10.417
 9767W        W76176  41.742  26.952   4.372
 9768W        W76177  19.912  15.547   3.533
 9769W        W76178  44.612  16.084  14.940
 9770W        W76179  11.820  44.269  14.200
 9771W        W76180  19.709  32.532   4.954
 9772W        W76181  23.540  29.318   4.080
 9773W        W76182  41.568  25.243  14.354
 9774W        W76183  16.575  33.508  10.412
 9775W        W76184  20.770  31.878  11.635
 9776W        W76185  21.530   5.233   3.651
 9777W        W76186   5.706  12.685   2.765
 9778W        W76187  11.933   5.886   0.979
 9779W        W76188  13.774  34.091  13.478
 9780W        W76189  44.454  30.372   1.746
 9781W        W76190  35.633  36.043  10.710
 9782W        W76191  42.743  14.855   2.571
 9783W        W76192  24.773  37.489   3.606
 9784W        W76193  34.858  39.731  12.444
 9785W        W76194  10.959  29.790  12.311
 9786W        W76195  33.848  22.537  12.982
 9787W        W76196   9.831  15.723   4.635
 9788W        W76197  22.068  32.091   2.822
 9789W        W76198  39.353   4.997  10.559
 9790W        W76199   5.872  40.525   3.916
 9791W        W76200   3.475  38.357   3.655
 9792W        W76201   8.689  22.515  13.355
 9793W        W76202   0.146  26.034   2.621
 9794W        W76203  44.028   9.259   2.770
 9795W        W76204  23.061  22.540  12.072
 9796W        W76205  37.781  28.153   4.275
 9797W        W76206  40.347  21.309   4.141
 9798W        W76207   3.892   0.678  14.360
 9799W        W76208  35.457  15.386   1.258
 9800W        W76209  31.868  24.126   1.677
 9801W        W76210  12.958  31.094   3.460
 9802W        W76211  41.069   7.239  13.388
 9803W        W76212  10.436  32.081  14.851
 9804W        W76213  10.610  22.263   9.879
 9805W        W76214  27.950  27.156  13.645
 9806W        W76215  10.083   6.715   1.912
 9807W        W76216  23.567  12.609   2.683
 9808W        W76217   1.240  40.951   1.184
 9809W        W76218  21.034  40.344   4.662
 9810W        W76219   9.905  16.265  10.686
 9811W        W76220  23.999  16.684  11.645
 9812W        W76221  18.849  37.900   3.204
 9813W        W76222  36.888   1.778   0.066
 9814W        W76223   6.524  25.778   4.857
 9815W        W76224   6.162  28.684   2.770
 9816W        W76225  44.797  14.151   2.492
 9817W        W76226  35.815  17.130  12.365
 9818W        W76227  28.049   9.635   2.268
 9819W        W76228   5.373  36.902   4.741
 9820W        W76229  11.358  16.035   1.932
 9821W        W76230  20.308  26.691   1.034
 9822W        W76231  24.334  28.620   1.634
 9823W        W76232  42.501  24.226  13.851
 9824W        W76233  37.599  20.097   3.734
 9825W        W76234  27.127  32.987   0.985
 9826W        W76235   1.439  39.461   2.328
 9827W        W76236  13.712  15.107  13.843
 9828W        W76237   7.190  40.319  14.212
 9829W        W76238  25.761  21.023   5.013
 9830W        W76239  25.078  34.844  10.962
 9831W        W76240  35.503  15.893  12.812
 9832W        W76241  34.329  37.304  14.409
 9833W        W76242  24.394   1.002   3.255
 9834W        W76243   8.932  21.754  12.040
 9835W        W76244  14.098   1.562   3.994
 9836W        W76245  32.093  43.343  13.870
 9837W        W76246   3.292  29.946   3.625
 9838W        W76247  40.533  24.201  12.554
 9839W        W76248  43.723  15.071   2.109
 9840W        W76249  35.356  28.985  12.402
 9841W        W76250  36.600  17.693   3.276
 9842W        W76251  23.299  27.188  13.935
 9843W        W76252   5.689   4.897  14.446
 9844W        W76253  24.441   9.807   1.407
 9845W        W76254  35.075  27.425  11.203
 9846W        W76255  39.414  44.885   1.443
 9847W        W76256  29.564  14.839   3.800
 9848W        W76257  20.469  26.938   1.723
 9849W        W76258  15.887  27.550   1.370
 9850W        W76259  20.687   6.381  11.114
 9851W        W76260  10.289  28.624   4.164
 9852W        W76261  43.441  24.306   4.425
 9853W        W76262  42.364  25.199   0.983
 9854W        W76263   3.250   0.791   1.634
 9855W        W76264   6.860  41.239   4.659
 9856W        W76265  44.749  15.472  11.966
 9857W        W76266  30.530  15.337   0.775
 9858W        W76267   6.870  42.968   2.750
 9859W        W76268  30.376  15.900  11.946
 9860W        W76269   3.413   1.940   0.197
 9861W        W76270   6.249  43.759  12.964
 9862W        W76271  25.238  30.924   3.113
 9863W        W76272  31.484  41.462  11.612
 9864W        W76273  21.777  23.809  12.442
 9865W        W76274  29.986  18.166   2.008
 9866W        W76275  36.158  36.941  10.789
 9867W        W76276  10.616  36.889  14.027
 9868W        W76277  36.665  26.078   4.148
 9869W        W76278   8.877  38.106  11.487
 9870W        W76279   2.455  29.513  14.366
 9871W        W76280  23.547  43.473   1.269
 9872W        W76281   4.285  36.940   1.578
 9873W        W76282  40.565  27.643  14.481
 9874W        W76283   5.274  26.101   3.193
 9875W        W76284  34.163  40.156   1.452
 9876W        W76285  38.952  10.620   1.643
 9877W        W76286  36.536  21.923  11.096
 9878W        W76287  35.579   8.183   1.593
 9879W        W76288   0.766  27.941  12.373
 9880W        W76289  17.320  10.983  11.197
 9881W        W76290  11.143  14.118   0.423
 9882W        W76291  27.008  41.259   3.646
 9883W        W76292   9.488  27.916   1.810
 9884W        W76293  22.460  38.937   4.833
 9885W        W76294  26.965  13.067  13.907
 9886W        W76295   6.253  14.025  12.081
 9887W        W76296  37.401  10.137  10.438
 9888W        W76297  13.432  16.011  11.138
 9889W        W76298   1.970  32.090   4.543
 9890W        W76299  34.534  37.557   2.439
 9891W        W76300  24.095   8.125  10.721
 9892W        W76301  18.737  43.484  10.565
 9893W        W76302  36.485   4.542  12.493
 9894W        W76303  19.864  24.787   0.910
 9895W        W76304  28.304  34.281   9.899
 9896W        W76305  38.542  39.001   4.339
 9897W        W76306  31.124  29.669  12.134
 9898W        W76307  41.357  26.193   4.914
 9899W        W76308  43.588  29.439  12.196
 9900W        W76309  17.867  20.690   3.686
 9901W        W76310  35.849   8.305   3.208
 9902W        W76311  15.687  19.446   4.597
 9903W        W76312  37.892  22.584   4.067
 9904W        W76313  38.039  14.405  11.913
 9905W        W76314   5.734  23.794   2.584
 9906W        W76315  41.006   3.473  14.171
 9907W        W76316  23.734  37.286   2.190
 9908W        W76317  20.229   8.287   2.737
 9909W        W76318  11.156  11.902  13.857
 9910W        W76319  16.104  44.615  13.708
 9911W        W76320  41.253  10.042  10.987
 9912W        W76321  25.437  29.705   4.310
 9913W        W76322   0.406  10.105  14.904
 9914W        W76323  22.889  23.593  13.000
 9915W        W76324  34.613  34.844  13.301
 9916W        W76325  12.875   1.387  13.925
 9917W        W76326  21.553   3.816  11.346
 9918W        W76327   9.496  24.003  12.093
 9919W        W76328  27.230  24.298   3.542
 9920W        W76329  18.832  36.596   0.480
 9921W        W76330  16.244  36.975  13.043
 9922W        W76331  18.618   0.937  14.806
 9923W        W76332  25.020  40.190  10.677
 9924W        W76333   2.907  16.075   3.184
 9925W        W76334  11.297   7.743  10.510
 9926W        W76335   8.348  11.114  12.504
 9927W        W76336  13.695  41.004  12.588
 9928W        W76337  23.729  16.096   3.788
 9929W        W76338  23.717   6.391   2.607
 9930W        W76339  22.000  19.206  14.541
 9931W        W76340  10.538  27.121   4.741
 9932W        W76341  36.360  28.703   1.281
 9933W        W76342  11.453  23.085   0.573
 9934W        W76343  32.598  38.069  13.425
 9935W        W76344  22.097  30.228   0.554
 9936W        W76345  23.151   7.747  13.983
 9937W        W76346   9.270  19.572   1.706
 9938W        W76347  27.436   3.972   1.669
 9939W        W76348  15.206  22.289   4.543
 9940W        W76349   7.368  16.613   0.779
 9941W        W76350  33.509  31.685  14.395
 9942W        W76351  21.562  19.454  12.984
 9943W        W76352  32.619  41.005   4.479
 9944W        W76353  20.174  10.518  12.993
 9945W        W76354  15.142  29.738   1.763
 9946W        W76355   9.328  41.929  14.463
 9947W        W76356  11.947  13.932   4.215
 9948W        W76357  31.123  19.694   1.437
 9949W        W76358  34.464  44.702  14.506
 9950W        W76359   7.013  24.653  12.033
 9951W        W76360   2.847  35.381  14.325
 9952W        W76361   6.195  38.458   3.762
 9953W        W76362   1.847  13.267   4.944
 9954W        W76363  12.126  17.805   3.530
 9955W        W76364  38.111  30.794   2.734
 9956W        W76365  36.555  18.510   2.315
 9957W        W76366  25.484  28.103   3.282
 9958W        W76367   3.889   9.579  11.719
 9959W        W76368   8.041   1.291  14.435
 9960W        W76369   6.214   7.346  14.283
 9961W        W76370   6.711  14.122  11.576
 9962W        W76371   2.458  29.453   1.213
 9963W        W76372   2.218  28.064  14.516
 9964W        W76373  16.125  17.786   0.845
 9965W        W76374  12.427  13.269   1.945
 9966W        W76375   8.366   2.555  10.669
 9967W        W76376   5.643   2.318  14.747
 9968W        W76377   1.748  27.665  12.056
 9969W        W76378  15.836   0.194   0.723
 9970W        W76379   3.918  33.007  10.677
 9971W        W76380  24.940  14.268  10.678
 9972W        W76381  10.730  11.690  12.230
 9973W        W76382   7.875  41.777  10.781
 9974W        W76383   7.644  40.560  14.355
 9975W        W76384  30.992   9.373   0.982
 9976W        W76385   9.270  34.313   1.789
 9977W        W76386  26.575  25.511   0.936
 9978W        W76387  11.845  44.279  11.081
 9979W        W76388  38.668  32.970  11.596
 9980W        W76389  14.483  11.884   0.755
 9981W        W76390  31.371   3.807  13.462
 9982W        W76391  20.253  38.877  10.729
 9983W        W76392  16.255  26.582  10.456
 9984W        W76393  23.801  11.161   4.227
 9985W        W76394  24.722   9.880   1.847
 9986W        W76395  29.760  44.119  14.974
 9987W        W76396  18.462   6.943   0.239
 9988W        W76397  19.234  12.689  14.087
 9989W        W76398  35.548   4.183  10.716
 9990W        W76399  36.074  14.170  14.849
 9991W        W76400  42.297   5.463   0.783
 9992W        W76401   0.434  44.278  10.565
 9993W        W76402   8.376  28.464   1.281
 9994W        W76403  40.003   1.077  13.961
 9995W        W76404  26.614  30.986   0.610
 9996W        W76405   0.037  14.423  13.942
 9997W        W76406  42.933   1.526   0.881
 9998W        W76407   5.199  20.196  11.566
 9999W        W76408   5.178  30.716  14.935
10000W        W76409  14.324  16.506  12.677
10001W        W76410   8.265  39.811   0.016
10002W        W76411   8.230  25.176   3.768
10003W        W76412  39.485  24.644   3.335
10004W        W76413  18.020   6.998  10.721
10005W        W76414  43.447  27.764   1.485
10006W        W76415   6.818  43.904   1.414
10007W        W76416  12.406   4.659   4.718
10008W        W76417  32.889  17.174  13.272
10009W        W76418   4.997  25.279   5.373
10010W        W76419   9.320   8.923  11.725
10011W        W76420  14.046  34.638   4.979
10012W        W76421   2.002  41.326  11.141
10013W        W76422  37.035  39.499  11.229
10014W        W76423   8.919  37.178  14.816
10015W        W76424  13.573  28.374   4.644
10016W        W76425  27.243  25.979  12.506
10017W        W76426  27.101  32.323   3.097
10018W        W76427  12.633   3.757   4.154
10019W        W76428  15.794  32.664   5.004
10020W        W76429  21.124  43.437   1.029
10021W        W76430  15.794  43.941   0.322
10022W        W76431  16.924  13.562  10.879
10023W        W76432  32.880  34.361   4.582
10024W        W76433  29.810  21.986  14.739
10025W        W76434  14.295  26.063  14.375
10026W        W76435  41.709  28.957  12.563
10027W        W76436  26.027  19.693   4.453
10028W        W76437   8.825   0.496   3.809
10029W        W76438  10.377  33.449  12.491
10030W        W76439  16.037  42.823  13.407
10031W        W76440  39.503   0.250   0.443
10032W        W76441  10.618  21.715   3.739
10033W        W76442  18.858  40.293   2.644
10034W        W76443  32.344  20.415   1.368
10035W        W76444  25.121  16.022   3.419
10036W        W76445  39.108  41.395   0.809
10037W        W76446  33.671  20.075  13.328
10038W        W76447  18.988  39.951  10.615
10039W        W76448  42.687  41.745  14.487
10040W        W76449  15.056  35.338   3.395
10041W        W76450  21.436  18.806  10.716
10042W        W76451  40.388  13.205  11.694
10043W        W76452   9.635  32.317  11.650
10044W        W76453  32.549  22.142  14.971
10045W        W76454  40.966  19.655   2.660
10046W        W76455  43.662  37.497  12.783
10047W        W76456  37.389  35.193  13.065
10048W        W76457  21.704  16.125   2.674
10049W        W76458  39.949  28.468  11.907
10050W        W76459  27.854  19.116  14.219
10051W        W76460   2.424   1.742   2.868
10052W        W76461   0.486  10.164   4.790
10053W        W76462  33.739  34.275  13.973
10054W        W76463   2.880  15.093   2.165
10055W        W76464  33.695  34.222  14.921
10056W        W76465   5.746  11.696   3.594
10057W        W76466  18.596  28.160   4.979
10058W        W76467   6.399  31.396   1.437
10059W        W76468   5.768  16.356  11.127
10060W        W76469  28.889  29.056  14.145
10061W        W76470  41.859  42.839   9.978
10062W        W76471  31.531  13.637  13.748
10063W        W76472   8.609  21.782   3.300
10064W        W76473  10.108  41.348  11.010
10065W        W76474  29.628  31.068  12.865
10066W        W76475  39.998  17.773   0.458
10067W        W76476  43.428  31.569   1.921
10068W        W76477  13.157  12.035   4.144
10069W        W76478  40.763  30.841   2.265
10070W        W76479  37.641  41.857  11.487
10071W        W76480  34.650  19.558  12.770
10072W        W76481  32.199  37.857   0.846
10073W        W76482  39.439  13.725   1.168
10074W        W76483   8.175  25.972   0.372
10075W        W76484  42.814  21.049   0.979
10076W        W76485  44.440  11.118   2.213
10077W        W76486  21.648  12.782  14.254
10078W        W76487   6.817  32.211   4.464
10079W        W76488  35.903   7.109  12.365
10080W        W76489  31.743   8.736  14.952
10081W        W76490  16.209  33.975   2.779
10082W        W76491  33.056   3.478  12.978
10083W        W76492   2.319  26.485   3.744
10084W        W76493  42.463   1.356   1.524
10085W        W76494   7.477  30.458  13.867
10086W        W76495  11.806  35.921  13.927
10087W        W76496  36.512  34.928  12.964
10088W        W76497   9.929  43.052   3.167
10089W        W76498  44.923  44.290   4.291
10090W        W76499  21.180  14.831   2.900
10091W        W76500  31.439  18.316   3.291
10092W        W76501  16.362   4.289  10.621
10093W        W76502   8.710  26.079  12.902
10094W        W76503  25.527  20.195   4.554
10095W        W76504   3.206  32.100   3.198
10096W        W76505  32.544  16.647   1.631
10097W        W76506  26.319   2.773   1.581
10098W        W76507   1.361  31.532   4.182
10099W        W76508  21.399   1.721  11.257
10100W        W76509   8.531   8.441  14.464
10101W        W76510  44.355  30.480   3.473
10102W        W76511  27.900  32.471  13.822
10103W        W76512   6.687  18.750   3.685
10104W        W76513  44.944  10.378   1.100
10105W        W76514   0.501  22.473  12.611
10106W        W76515   9.106  27.741  13.233
10107W        W76516   8.727  30.009   2.375
10108W        W76517  11.020  32.446   0.371
10109W        W76518  30.506  26.134   2.321
10110W        W76519  33.126  37.426   4.597
10111W        W76520  34.762  29.907   0.919
10112W        W76521  44.623  15.659  10.734
10113W        W76522   5.865  22.132  12.564
10114W        W76523  34.220  39.922  13.985
10115W        W76524   2.115  12.978  10.821
10116W        W76525  37.039  11.745  12.042
10117W        W76526  11.792  34.821   1.864
10118W        W76527  33.422  25.773   4.230
10119W        W76528  20.073  31.881   0.465
10120W        W76529  30.002   9.405   1.158
10121W        W76530  38.413  38.934   2.837
10122W        W76531   0.366  18.720   4.733
10123W        W76532  29.123  42.758   3.264
10124W        W76533  32.179  19.574   3.278
10125W        W76534  13.276  29.479   2.893
10126W        W76535  31.785  31.438   2.074
10127W        W76536  43.012   0.211   0.154
10128W        W76537  29.327  23.494   3.310
10129W        W76538   8.844   8.822  11.539
10130W        W76539   2.230  35.939   5.012
10131W        W76540   6.004  42.988  14.954
10132W        W76541  16.729  36.969   4.190
10133W        W76542   4.161  15.331   2.088
10134W        W76543   7.323   4.458  13.985
10135W        W76544  33.032  17.162  12.413
10136W        W76545  43.550  22.301   2.356
10137W        W76546   1.350  24.858   4.777
10138W        W76547  33.512   0.503  12.561
10139W        W76548  29.546  11.971  12.584
10140W        W76549  13.046  24.907  12.811
10141W        W76550  40.866  30.507   0.533
10142W        W76551  24.522  16.752  11.602
10143W        W76552  42.880  24.201   1.639
10144W        W76553   2.266  24.895   3.726
10145W        W76554  39.855  31.380  12.257
10146W        W76555  26.373   3.385   4.676
10147W        W76556  13.231   7.288   0.645
10148W        W76557  15.980  21.089  13.609
10149W        W76558   0.288  15.265  12.491
10150W        W76559  11.274  24.086  13.724
10151W        W76560   3.823   8.499  13.426
10152W        W76561  35.030  36.973   2.899
10153W        W76562  33.485  14.826  11.206
10154W        W76563  16.391   9.722   1.346
10155W        W76564  15.646  18.454   4.212
10156W        W76565  40.496  21.814  11.001
10157W        W76566   7.963  35.310   2.643
10158W        W76567   1.289  36.988   3.661
10159W        W76568  32.348  33.298   5.010
10160W        W76569  36.137  13.839   2.658
10161W        W76570  28.046  36.498  13.236
10162W        W76571  37.212  33.956   1.884
10163W        W76572  18.187   2.413   0.392
10164W        W76573  26.956  15.806   3.191
10165W        W76574  17.250  38.324  14.751
10166W        W76575  13.090  40.549  12.019
10167W        W76576   4.467   3.882  12.979
10168W        W76577   4.560  18.936   4.221
10169W        W76578  28.669   4.801  13.268
10170W        W76579  10.405  35.469   4.587
10171W        W76580  41.373  41.272  12.575
10172W        W76581   6.047  44.276   4.173
10173W        W76582  25.791  18.899   5.072
10174W        W76583  22.587  43.329   0.007
10175W        W76584  17.720  30.840   0.992
10176W        W76585  32.801   4.490  14.884
10177W        W76586  43.220   5.805   2.235
10178W        W76587  12.034  14.263  13.580
10179W        W76588  27.112   8.916  13.874
10180W        W76589  32.055   1.890   2.854
10181W        W76590  28.701  25.832   0.692
10182W        W76591   8.128  13.094  11.212
10183W        W76592   4.456   8.752   4.536
10184W        W76593   2.118  35.039  12.793
10185W        W76594  26.014  22.258  12.665
10186W        W76595  17.254  34.349  13.538
10187W        W76596   3.714  42.925  14.728
10188W        W76597  33.831  34.395   1.239
10189W        W76598  43.407  10.791  12.120
10190W        W76599  21.324   4.369   3.300
10191W        W76600  15.375  23.121   4.960
10192W        W76601  17.397   6.288  13.026
10193W        W76602   4.303  36.619   4.616
10194W        W76603   5.695  20.629   0.811
10195W        W76604  17.193  31.200  12.454
10196W        W76605   7.885   2.299  11.041
10197W        W76606   8.103  44.880  10.875
10198W        W76607  24.956  26.400  12.932
10199W        W76608  24.544  10.667   4.692
10200W        W76609   7.342  31.569   1.300
10201W        W76610   3.892  33.213  14.774
10202W        W76611  26.211  31.024   1.796
10203W        W76612  22.127  19.795   1.246
10204W        W76613  42.128   3.059   0.397
10205W        W76614  28.857  12.413   0.143
10206W        W76615  13.289  20.178  14.829
10207W        W76616  23.139  13.396   2.686
10208W        W76617   3.055  30.864   0.316
10209W        W76618  23.713  39.782  14.474
10210W        W76619   4.501  35.540  14.141
10211W        W76620  44.993  26.061   1.733
10212W        W76621  16.688  14.811   4.638
10213W        W76622  32.103   8.656   2.767
10214W        W76623  27.869  17.628   5.060
10215W        W76624  16.420  35.053   0.715
10216W        W76625  13.009  36.968   4.636
10217W        W76626  25.495  17.662  11.498
10218W        W76627  30.990  42.089  12.876
10219W        W76628  34.140  28.491  11.633
10220W        W76629  35.827  22.304  14.386
10221W        W76630  32.633  25.210  14.810
10222W        W76631  14.566  18.592  10.237
10223W        W76632  36.410   1.881   2.134
10224W        W76633  29.000  22.699  14.580
10225W        W76634   2.294  22.666   4.565
10226W        W76635  10.046  24.090  10.158
10227W        W76636  15.161   1.355   3.083
10228W        W76637  25.465  41.764   2.738
10229W        W76638  28.217   1.063   0.514
10230W        W76639  32.763  39.660   3.360
10231W        W76640  35.830  32.137  11.012
10232W        W76641  26.174  40.336   0.809
10233W        W76642  30.962  37.822   4.206
10234W        W76643  22.995  17.792   2.732
10235W        W76644  42.342  21.730  13.056
10236W        W76645  27.032  44.745   0.487
10237W        W76646  31.855  12.775   1.905
10238W        W76647  38.334  15.878   4.466
10239W        W76648   2.243   2.240   2.876
10240W        W76649   3.867  43.478  10.683
10241W        W76650  18.530  12.247  14.489
10242W        W76651  23.614   4.162  14.370
10243W        W76652   4.718  35.778   0.604
10244W        W76653  26.522  36.720  12.837
10245W        W76654  31.922   6.315   3.126
10246W        W76655  42.428  12.869   4.312
10247W        W76656  36.781  25.004  14.945
10248W        W76657  31.096  25.051   1.171
10249W        W76658  35.076  30.289   2.199
10250W        W76659   8.339  29.609   4.001
10251W        W76660  42.393  15.778   1.897
10252W        W76661  16.110  40.052  12.508
10253W        W76662  11.206   1.491   2.340
10254W        W76663   0.456   3.970  12.964
10255W        W76664  18.829  17.158  12.580
10256W        W76665   1.028   8.455  12.594
10257W        W76666  13.656   5.340   1.398
10258W        W76667  37.337  28.912   0.436
10259W        W76668  39.626  44.554   3.680
10260W        W76669   5.210  43.783  13.337
10261W        W76670  26.479  26.481   3.677
10262W        W76671   2.951  16.186   1.341
10263W        W76672  36.526  20.568   2.123
10264W        W76673   4.424  19.433   4.043
10265W        W76674  10.679  13.830  11.263
10266W        W76675  33.984  37.516  12.970
10267W        W76676  25.553   2.110  11.857
10268W        W76677   9.937   2.499  11.133
10269W        W76678  42.698  34.952  14.315
10270W        W76679   1.767  13.238   3.935
10271W        W76680  25.498  37.470  14.391
10272W        W76681   9.566   0.062   3.738
10273W        W76682  12.677  43.216   2.797
10274W        W76683  12.750   3.155   5.312
10275W        W76684  19.622  44.785   4.577
10276W        W76685  28.475  28.448   0.925
10277W        W76686  43.433   9.340   0.264
10278W        W76687  22.620  24.044  12.873
10279W        W76688  13.031  32.172  11.016
10280W        W76689   0.831  16.170  12.443
10281W        W76690  32.948   8.671   3.188
10282W        W76691  31.025   5.578  13.850
10283W        W76692  35.323   4.446  11.096
10284W        W76693   9.186  44.760   4.617
10285W        W76694   7.227   6.209  13.398
10286W        W76695  35.049  34.883   2.651
10287W        W76696  19.321  30.433   3.684
10288W        W76697  34.916   1.387  13.547
10289W        W76698  29.962   1.174   2.217
10290W        W76699   5.167  26.441  13.882
10291W        W76700  38.812  41.528  14.913
10292W        W76701  12.721  29.991   3.688
10293W        W76702  29.087  27.783  10.763
10294W        W76703  26.781   0.611   3.314
10295W        W76704  12.084   8.157   2.774
10296W        W76705  24.906   8.762  10.185
10297W        W76706  24.133  17.999   1.445
10298W        W76707  11.762   2.998  12.306
10299W        W76708  40.874  20.030  11.158
10300W        W76709  19.370  34.434   1.869
10301W        W76710  19.044  28.665  14.452
10302W        W76711  23.869  28.966   2.909
10303W        W76712   8.781  38.601   3.185
10304W        W76713  37.463  39.868   0.413
10305W        W76714   8.815  42.441  10.939
10306W        W76715  15.829   9.304  11.902
10307W        W76716  31.554  26.081  13.851
10308W        W76717  39.501  36.845  10.632
10309W        W76718   0.686  21.141  10.998
10310W        W76719  16.544  19.741   2.915
10311W        W76720  15.838  22.152   0.802
10312W        W76721   1.759  43.464   0.973
10313W        W76722  16.225  41.727   5.453
10314W        W76723  22.707  35.363   0.019
10315W        W76724  32.617  11.728   3.365
10316W        W76725   6.794  28.003  11.313
10317W        W76726  35.298  41.201   2.486
10318W        W76727  38.631  31.198  14.363
10319W        W76728  41.207  28.614  13.897
10320W        W76729  28.990  27.215  11.926
10321W        W76730  33.868  36.930  11.183
10322W        W76731  19.989   7.282   4.400
10323W        W76732  21.717  11.637  13.437
10324W        W76733  28.706  15.649  14.972
10325W        W76734  37.936  42.487   3.573
10326W        W76735  25.309   0.320   0.649
10327W        W76736  20.932  26.416   5.142
10328W        W76737   8.592  31.087  14.788
10329W        W76738  38.348   0.417   3.193
10330W        W76739  41.400  38.119   2.834
10331W        W76740   8.295  26.143  11.127
10332W        W76741  29.271  12.797   3.715
10333W        W76742   3.753  19.370  12.543
10334W        W76743  22.588  29.471  10.701
10335W        W76744  34.104  25.584   3.910
10336W        W76745   1.483  24.720   0.416
10337W        W76746  15.823  15.738  14.908
10338W        W76747  19.579   9.914   3.411
10339W        W76748   6.635   5.792   1.831
10340W        W76749  16.003  24.504   1.430
10341W        W76750  10.594   6.924  14.158
10342W        W76751  28.763  21.060   0.519
10343W        W76752   0.939   8.160   1.884
10344W        W76753  27.245  42.554  14.908
10345W        W76754  22.612  36.265  13.169
10346W        W76755  33.670   1.381  12.478
10347W        W76756   4.174   3.780   0.313
10348W        W76757  11.313  39.931  13.363
10349W        W76758  29.631  42.808  13.671
10350W        W76759  35.806  25.978  14.554
10351W        W76760  24.232  40.801  12.039
10352W        W76761  19.353  35.415   1.744
10353W        W76762  22.576  31.819   0.899
10354W        W76763  32.575  24.791   0.624
10355W        W76764  32.712  32.920  12.142
10356W        W76765  31.948  15.484  13.991
10357W        W76766   9.609   7.532  10.218
10358W        W76767  33.690  34.471  11.722
10359W        W76768  39.110  12.716  14.547
10360W        W76769  15.784  33.532   4.671
10361W        W76770  13.430  24.529  12.887
10362W        W76771  19.154  30.367  14.753
10363W        W76772  14.263  41.971  10.380
10364W        W76773  18.249  40.116   4.875
10365W        W76774  21.513  11.230   4.551
10366W        W76775  13.866  44.728   4.416
10367W        W76776  18.218  14.678  11.154
10368W        W76777  33.248  33.521   4.565
10369W        W76778   2.865  15.330  10.801
10370W        W76779   7.326  31.354   2.297
10371W        W76780  25.134  41.003  14.598
10372W        W76781   4.817  42.542   5.061
10373W        W76782  42.134  20.612   3.771
10374W        W76783  41.484  42.699  10.535
10375W        W76784  28.540  31.712   0.975
10376W        W76785   0.592  10.186  11.699
10377W        W76786  23.107   9.027  14.994
10378W        W76787  43.777  34.351   2.328
10379W        W76788  19.763  14.412   1.653
10380W        W76789  14.180  26.802   0.726
10381W        W76790  44.747   5.979   1.159
10382W        W76791   6.645  17.574   3.706
10383W        W76792  15.610  39.180   5.025
10384W        W76793   9.618   3.924   2.835
10385W        W76794  40.618  26.455  14.314
10386W        W76795  24.709  14.368   0.856
10387W        W76796   9.817  44.185   0.013
10388W        W76797  12.476  44.807   2.351
10389W        W76798  37.868   8.185   0.283
10390W        W76799  35.585  38.394   0.082
10391W        W76800  17.812  23.715   0.080
10392W        W76801   3.382   8.137  14.793
10393W        W76802  27.843  34.469   1.207
10394W        W76803   7.679   6.252   2.767
10395W        W76804  12.139  27.087   0.994
10396W        W76805  29.620  29.877   0.747
10397W        W76806  40.201  11.646   0.772
10398W        W76807  39.646  37.523  14.526
10399W        W76808  30.919  28.166   0.473
10400W        W76809  23.490  17.677  11.615
10401W        W76810  34.999  40.025  11.578
10402W        W76811  21.479  19.118   3.262
10403W        W76812   9.243  30.132  13.462
10404W        W76813  17.381  26.651   2.823
10405W        W76814  16.280  13.870  13.909
10406W        W76815   2.669   6.167   1.362
10407W        W76816  40.526  41.022   1.832
10408W        W76817  18.539   9.902  12.141
10409W        W76818  40.702   3.002   2.756
10410W        W76819  21.651  40.553   3.927
10411W        W76820  33.519  19.158  10.513
10412W        W76821  27.162  14.319   4.647
10413W        W76822   0.343   8.236  14.833
10414W        W76823  36.055  29.656  13.814
10415W        W76824  39.620   2.221   1.518
10416W        W76825  21.274  38.284   0.795
10417W        W76826   3.464   4.906  12.208
10418W        W76827  27.902   5.720  13.969
10419W        W76828  30.596  42.946   1.904
10420W        W76829  26.120  10.823   0.378
10421W        W76830   1.228  34.538  13.307
10422W        W76831   6.233   1.742  14.409
10423W        W76832  44.692  24.002  11.688
10424W        W76833  36.387  17.610   5.599
10425W        W76834  29.077  39.109  12.433
10426W        W76835  26.189   9.192  13.524
10427W        W76836  39.142  30.279   3.424
10428W        W76837  30.686  43.989  11.394
10429W        W76838  25.213  35.338   4.814
10430W        W76839  42.053  25.479  14.360
10431W        W76840   5.434  20.843   2.133
10432W        W76841  40.311  33.498  13.533
10433W        W76842  26.194   2.351  10.954
10434W        W76843   6.700   6.780   0.501
10435W        W76844  18.710  29.927  11.529
10436W        W76845  10.256  38.841   4.661
10437W        W76846   3.558  33.659   1.493
10438W        W76847  21.728   4.334  10.670
10439W        W76848  13.607   9.106  14.823
10440W        W76849  30.038  16.247   1.184
10441W        W76850  25.394   9.949  10.736
10442W        W76851   8.446   8.250   2.331
10443W        W76852  44.053  42.542   1.663
10444W        W76853  27.771  15.486   0.126
10445W        W76854  25.610  43.525  11.528
10446W        W76855  12.909  21.333  11.681
10447W        W76856   9.338  25.234   4.061
10448W        W76857  36.422  26.569  12.260
10449W        W76858  29.434   4.866   0.843
10450W        W76859  19.512  18.383   4.249
10451W        W76860  22.177   8.192  14.869
10452W        W76861  12.205   2.708  13.514
10453W        W76862  24.423  15.093  11.014
10454W        W76863  12.675  34.060   3.948
10455W        W76864  35.809  22.096  12.163
10456W        W76865  37.902  15.981   2.697
10457W        W76866   3.893  27.191  11.732
10458W        W76867   9.143  34.191   4.909
10459W        W76868  37.063   2.932   0.379
10460W        W76869  30.477   9.476  12.500
10461W        W76870   0.394   8.604   1.805
10462W        W76871   7.694  36.002   1.657
10463W        W76872  20.979  17.668   4.605
10464W        W76873  18.788   4.270   2.234
10465W        W76874  36.931  37.570  13.371
10466W        W76875  13.368  39.328   3.093
10467W        W76876  42.700  24.709  12.570
10468W        W76877   2.183  31.893   0.761
10469W        W76878  44.449  21.271   2.168
10470W        W76879  14.062   1.374   2.236
10471W        W76880  19.057   0.525  11.896
10472W        W76881  22.100  38.313  12.978
10473W        W76882  29.530   2.437  14.673
10474W        W76883  39.882  29.876  14.277
10475W        W76884  23.542  41.584   2.254
10476W        W76885  20.378  18.771  13.300
10477W        W76886  44.479  22.685  11.650
10478W        W76887   7.484  20.701  14.736
10479W        W76888  12.678  32.366   2.294
10480W        W76889  34.621  19.034   0.931
10481W        W76890  12.182  33.581   0.539
10482W        W76891   3.424  40.830   2.271
10483W        W76892   7.102  37.531  11.903
10484W        W76893  21.940  40.476  14.827
10485W        W76894  14.751   0.642  10.198
10486W        W76895   0.827  22.343   4.600
10487W        W76896  30.078  37.049   3.237
10488W        W76897   2.150  43.798   3.281
10489W        W76898   4.742  36.364  11.568
10490W        W76899  40.542  39.983   3.143
10491W        W76900  41.280  23.293  10.804
10492W        W76901  39.364  42.274   2.400
10493W        W76902   9.607  17.817   1.474
10494W        W76903   3.735  34.154  14.848
10495W        W76904  26.742  22.005   2.611
10496W        W76905  11.876   8.011   4.945
10497W        W76906   0.714  16.799  13.538
10498W        W76907  23.432  32.144  12.564
10499W        W76908  35.929  35.867   2.297
10500W        W76909  27.955  42.344   0.210
10501W        W76910  15.733  28.262   4.976
10502W        W76911  13.245  41.968  12.986
10503W        W76912  21.038  44.042  12.295
10504W        W76913  22.631  11.228  14.802
10505W        W76914  34.420   3.370  11.672
10506W        W76915  15.853  23.269   0.838
10507W        W76916   8.430  43.460   3.330
10508W        W76917   5.339  22.312  10.728
10509W        W76918  32.941  36.275   2.249
10510W        W76919  36.509   5.139  13.930
10511W        W76920  38.370  41.184  11.138
10512W        W76921  31.218  38.887  11.241
10513W        W76922  33.861  10.340   0.378
10514W        W76923  32.951  38.469   0.985
10515W        W76924  40.801  32.462  13.559
10516W        W76925   0.177  38.393   1.556
10517W        W76926  30.604  19.522  12.081
10518W        W76927  43.855  41.097   1.775
10519W        W76928  11.335  21.996  10.865
10520W        W76929  24.734  32.490  10.566
10521W        W76930  36.712  23.088  14.398
10522W        W76931  42.444  23.062   0.158
10523W        W76932   2.861  16.861  14.065
10524W        W76933  26.455  36.700   4.268
10525W        W76934   3.378   6.248  13.774
10526W        W76935   1.007  35.999   2.256
10527W        W76936   3.068   3.137  14.033
10528W        W76937  25.036  33.377   2.106
10529W        W76938  38.459   4.724  11.452
10530W        W76939   4.264  19.407  12.624
10531W        W76940   0.497  39.873   1.734
10532W        W76941  12.792   6.327   1.911
10533W        W76942  36.698  36.867  10.798
10534W        W76943   8.962  35.646  10.725
10535W        W76944   6.046   3.170  13.147
10536W        W76945  18.236  21.134   2.905
10537W        W76946  25.510   0.557  12.881
10538W        W76947  31.499  35.058  14.510
10539W        W76948   7.057  23.435  12.989
10540W        W76949  40.795   6.914   0.272
10541W        W76950  19.755   9.529  13.947
10542W        W76951  40.437   0.954   1.295
10543W        W76952  35.924  16.067  13.026
10544W        W76953  21.351   2.990   3.334
10545W        W76954   4.273  33.866   0.013
10546W        W76955  25.965  15.484   4.355
10547W        W76956  16.275  38.893  14.821
10548W        W76957  31.894   7.243   2.724
10549W        W76958  36.352  40.094   0.991
10550W        W76959   8.708  38.957  10.720
10551W        W76960  17.198  27.211  13.946
10552W        W76961  16.629  11.286  11.215
10553W        W76962  20.818  28.393  13.414
10554W        W76963  15.137  28.904   2.150
10555W        W76964   4.171  24.463   0.795
10556W        W76965  27.579  36.180  12.068
10557W        W76966  16.837  14.724   3.234
10558W        W76967  35.118  20.675   3.369
10559W        W76968  10.853  43.000   3.310
10560W        W76969  12.880  30.298   0.392
10561W        W76970   5.873  40.092  13.821
10562W        W76971  27.994  34.347   5.044
10563W        W76972  44.015  16.726  12.942
10564W        W76973  32.035   8.318   4.201
10565W        W76974  27.203  26.293   0.764
10566W        W76975  13.523  44.617   1.859
10567W        W76976  27.759  22.630  14.906
10568W        W76977  11.149   4.373  12.985
10569W        W76978  35.479  36.996   0.021
10570W        W76979  11.574  13.614   0.238
10571W        W76980  28.530  38.592   3.641
10572W        W76981  40.755  18.071  13.740
10573W        W76982  32.005  14.186  13.606
10574W        W76983   1.722  44.328  14.570
10575W        W76984  40.184   6.216   3.011
10576W        W76985  16.656  37.203   9.652
10577W        W76986   9.328  22.225   2.727
10578W        W76987   5.250  34.095  11.256
10579W        W76988   1.372  28.879   0.326
10580W        W76989  24.469  26.581   0.878
10581W        W76990  23.751  12.742  13.958
10582W        W76991   7.726  24.265   1.342
10583W        W76992   9.295  14.030   1.297
10584W        W76993  31.150   2.503  13.620
10585W        W76994  18.769  29.120  13.161
10586W        W76995  35.429  17.211  10.234
10587W        W76996  33.908  34.061   1.676
10588W        W76997   9.366  31.512   0.477
10589W        W76998  23.907  32.128   2.818
10590W        W76999  43.642  10.475   5.365
10591W        W77000  30.457   5.399  11.357
10592W        W77001  38.028  21.360  13.033
10593W        W77002  40.504   2.238  13.436
10594W        W77003   0.719  37.615   2.707
10595W        W77004  34.622   4.843   0.791
10596W        W77005  36.440  40.050  14.473
10597W        W77006  14.257   0.429  10.253
10598W        W77007  42.542  25.500   2.838
10599W        W77008  43.369  30.135  14.855
10600W        W77009  20.054  38.024   2.793
10601W        W77010  34.431  18.979  11.164
10602W        W77011  40.231  36.267   4.553
10603W        W77012  37.790  10.711  12.930
10604W        W77013  27.561   2.764   2.637
10605W        W77014   7.248  27.982  13.464
10606W        W77015  34.588  19.854  11.502
10607W        W77016  37.876  13.583  13.774
10608W        W77017  24.624  41.502   0.914
10609W        W77018  30.972  30.419   1.862
10610W        W77019  11.828  36.351   1.366
10611W        W77020   9.486  19.791  14.291
10612W        W77021  34.763  12.846  12.956
10613W        W77022  35.336  17.516   4.383
10614W        W77023  21.607  37.370   1.159
10615W        W77024  27.581  22.129   0.309
10616W        W77025  32.613  30.688  11.656
10617W        W77026  39.477  23.033   4.886
10618W        W77027  43.518  39.055  10.162
10619W        W77028  40.057  25.905  12.027
10620W        W77029   2.446  25.024  12.383
10621W        W77030  39.873  19.121   1.953
10622W        W77031   0.901  22.085   3.721
10623W        W77032  14.861  11.175   2.799
10624W        W77033  23.771  23.574  12.741
10625W        W77034  32.886   0.345   4.744
10626W        W77035  23.789  32.064  11.174
10627W        W77036  30.486  18.328  12.753
10628W        W77037  23.362   1.796   2.666
10629W        W77038  16.939  31.580   3.226
10630W        W77039  37.418   5.680   2.696
10631W        W77040  30.881  17.646   2.416
10632W        W77041  22.072  21.044   3.578
10633W        W77042  21.347  43.418   0.570
10634W        W77043  40.053  18.736  11.326
10635W        W77044   3.896  27.694  11.620
10636W        W77045  26.522  31.596  13.592
10637W        W77046  16.677  22.876   4.538
10638W        W77047  27.555  34.609   4.135
10639W        W77048  21.029  34.647  11.157
10640W        W77049  23.536  28.936   1.381
10641W        W77050  36.637  16.780  12.963
10642W        W77051  27.067   6.750  12.174
10643W        W77052  22.298  34.638   0.939
10644W        W77053  12.671   9.329  12.972
10645W        W77054  37.223  26.945   1.294
10646W        W77055  28.522  44.700   3.718
10647W        W77056  44.053   1.379  11.255
10648W        W77057  12.842  11.662  14.832
10649W        W77058  29.662  29.218   1.120
10650W        W77059  30.120  17.575  14.394
10651W        W77060  21.072  39.566  10.554
10652W        W77061  10.695   0.744  12.015
10653W        W77062  32.088   6.873  10.353
10654W        W77063  23.616   5.917  13.924
10655W        W77064   3.360  27.157  11.741
10656W        W77065  39.921  39.308   4.648
10657W        W77066  10.940  16.684   4.490
10658W        W77067  39.502  20.681  13.880
10659W        W77068  33.055  20.126  14.874
10660W        W77069  17.306  13.319  13.088
10661W        W77070  26.118  24.098   4.603
10662W        W77071   1.343  28.407  11.939
10663W        W77072   1.934  31.444   3.101
10664W        W77073  25.987   6.026   4.277
10665W        W77074   9.717  41.597  11.227
10666W        W77075   6.948  12.695   3.289
10667W        W77076  19.909  10.184  11.110
10668W        W77077  28.072  17.899   4.217
10669W        W77078  15.187  38.953  11.555
10670W        W77079  41.955   5.854  11.619
10671W        W77080  22.610   4.394   4.846
10672W        W77081   8.054  35.112   1.984
10673W        W77082  10.659  26.261  13.512
10674W        W77083  12.669  35.067   0.825
10675W        W77084  43.730  33.493  14.927
10676W        W77085   9.385  29.826   4.990
10677W        W77086  41.918  29.443  14.980
10678W        W77087  24.692   6.123   3.648
10679W        W77088  42.472  33.463  12.376
10680W        W77089  28.901  23.985  11.891
10681W        W77090  44.802  34.124   3.533
10682W        W77091  22.155  37.097  11.793
10683W        W77092   9.937  17.342   0.332
10684W        W77093  14.546   0.492   1.612
10685W        W77094  41.307  29.645   0.685
10686W        W77095  32.618   4.286   1.317
10687W        W77096  19.018   5.377   2.966
10688W        W77097  29.562   3.645   4.131
10689W        W77098  19.810  21.191   4.997
10690W        W77099  31.441  34.229  10.499
10691W        W77100  24.608  44.453  10.537
10692W        W77101  39.186  12.116  10.721
10693W        W77102  27.199  38.048  12.855
10694W        W77103  42.964   3.991   0.810
10695W        W77104  40.923  42.868   1.818
10696W        W77105  33.908   6.266   4.342
10697W        W77106  18.584   9.140  13.014
10698W        W77107  32.574  19.611   3.621
10699W        W77108   7.861  16.062  11.032
10700W        W77109  30.936   7.169  12.730
10701W        W77110  35.664   4.440  10.281
10702W        W77111  11.266  16.738  10.832
10703W        W77112  11.077  13.190   0.835
10704W        W77113  23.893  24.300   1.980
10705W        W77114  37.170  33.652   3.708
10706W        W77115   2.196  10.761  13.577
10707W        W77116  36.784  40.870  12.594
10708W        W77117  24.169  25.206   3.697
10709W        W77118   9.586  25.037   4.548
10710W        W77119  20.856  37.435  11.173
10711W        W77120  39.664   9.084   1.238
10712W        W77121  25.613  32.853   2.791
10713W        W77122   7.734   2.949   0.947
10714W        W77123  15.333  33.984  13.447
10715W        W77124  24.215  41.931   4.732
10716W        W77125  24.220  21.247   4.956
10717W        W77126   2.064   3.302   2.170
10718W        W77127  24.430   8.245   3.199
10719W        W77128  18.094   4.249  14.240
10720W        W77129  25.572  34.820   2.670
10721W        W77130  13.513  13.287  10.688
10722W        W77131  27.990  19.044  11.013
10723W        W77132  42.957  26.003  13.776
10724W        W77133   3.023  23.398  10.448
10725W        W77134  44.994  29.893  14.867
10726W        W77135  38.464  28.965   2.370
10727W        W77136  15.671  18.030  14.566
10728W        W77137  39.327  40.932  14.876
10729W        W77138  10.654  43.383   4.514
10730W        W77139  27.634   2.783   0.331
10731W        W77140  26.169  29.543  11.600
10732W        W77141  21.995  12.076   3.273
10733W        W77142  39.332  43.544  12.564
10734W        W77143   3.709  20.076  13.074
10735W        W77144  14.498  33.467   5.041
10736W        W77145  13.655  25.577   2.487
10737W        W77146  11.001  32.419   3.741
10738W        W77147  18.044  22.163   2.338
10739W        W77148   8.816  22.274   1.460
10740W        W77149  23.221  43.528   2.713
10741W        W77150   0.231  43.480  11.112
10742W        W77151  16.695   9.913  12.023
10743W        W77152   4.243  16.577   4.140
10744W        W77153  17.595  18.530   2.719
10745W        W77154   5.962  32.555   1.308
10746W        W77155  17.626  19.660  14.925
10747W        W77156  12.155  44.672   5.358
10748W        W77157  28.492   5.339   0.804
10749W        W77158  25.217  17.903  11.062
10750W        W77159   6.081  34.896   1.989
10751W        W77160   1.976  34.718  11.296
10752W        W77161   2.744  40.762  10.816
10753W        W77162  43.108   2.343   1.162
10754W        W77163  30.871  31.694  14.565
10755W        W77164  32.650  40.486  10.515
10756W        W77165   6.872  42.413  14.841
10757W        W77166  38.800  41.450   2.258
10758W        W77167  19.184  14.215  14.952
10759W        W77168  14.722  31.874  10.737
10760W        W77169  26.391  38.978  13.808
10761W        W77170   6.294  40.850   3.851
10762W        W77171  19.656   5.147   0.442
10763W        W77172  12.698  22.211   4.628
10764W        W77173   2.406  18.801  12.713
10765W        W77174  35.066  39.813   2.140
10766W        W77175  26.024   1.281   1.364
10767W        W77176  11.564   6.311  14.309
10768W        W77177  34.599  35.334  13.513
10769W        W77178  30.385  11.218  12.253
10770W        W77179   0.425  41.508  13.307
10771W        W77180  19.147  37.963   2.715
10772W        W77181  10.608  19.339  13.498
10773W        W77182   8.908   5.817  14.332
10774W        W77183   1.293  14.037  12.672
10775W        W77184  44.264  35.658  13.433
10776W        W77185  30.249  33.625  14.729
10777W        W77186  14.793  44.121  12.590
10778W        W77187  36.470   2.460  11.657
10779W        W77188   2.237   4.341  13.998
10780W        W77189  10.672  37.047   2.735
10781W        W77190  23.670  29.488  14.189
10782W        W77191  25.454  30.983   3.787
10783W        W77192  14.754  37.298  11.721
10784W        W77193  13.799  26.240   0.579
10785W        W77194  25.632  22.222  12.068
10786W        W77195  18.804  19.224   0.171
10787W        W77196   5.817   5.138   0.319
10788W        W77197   3.275  21.068  10.188
10789W        W77198   1.926  35.566   3.766
10790W        W77199  28.004  39.732   4.853
10791W        W77200   8.126  43.062   3.200
10792W        W77201  18.250  28.021   4.638
10793W        W77202   5.370  10.985  14.413
10794W        W77203  15.872  44.789  14.766
10795W        W77204  26.108   3.941  13.060
10796W        W77205  15.461   4.652  13.600
10797W        W77206  43.999  26.017   3.848
10798W        W77207  38.660  34.914   3.210
10799W        W77208  42.442  22.978   3.709
10800W        W77209  39.309   8.736   2.392
10801W        W77210  24.130  44.901   2.730
10802W        W77211  44.478  29.913  12.147
10803W        W77212   4.284  21.912   4.617
10804W        W77213  37.483   8.808  13.270
10805W        W77214  12.198  16.140  14.529
10806W        W77215  30.845   2.863  13.366
10807W        W77216  38.220  24.677  14.074
10808W        W77217  41.776  35.735  11.499
10809W        W77218  23.712  20.771  13.575
10810W        W77219  30.635  44.073   0.700
10811W        W77220   5.414  23.097  14.506
10812W        W77221   6.630  33.016   2.658
10813W        W77222  27.533   0.482   2.483
10814W        W77223  25.944  10.848   3.626
10815W        W77224  20.240  27.576   4.711
10816W        W77225   9.357   3.771  11.996
10817W        W77226  28.957   4.471   4.982
10818W        W77227  32.724  30.811   0.690
10819W        W77228  29.102   1.842   1.586
10820W        W77229  41.136  11.378   2.642
10821W        W77230  28.532  20.115   0.392
10822W        W77231  30.506  30.449  11.171
10823W        W77232   6.880  29.158  14.341
10824W        W77233  41.955  25.222   0.279
10825W        W77234   6.927  39.260  12.928
10826W        W77235   4.297   7.004  14.360
10827W        W77236  10.675   5.304   4.733
10828W        W77237  38.590   5.678   4.119
10829W        W77238  33.885  12.283  12.803
10830W        W77239  19.031  10.222   2.836
10831W        W77240  43.182  39.936  13.094
10832W        W77241  35.806  19.736  14.535
10833W        W77242   2.000  43.681  11.470
10834W        W77243  27.462  38.277   3.225
10835W        W77244   1.495  19.470   4.517
10836W        W77245  33.572  17.350   2.401
10837W        W77246   8.200  13.140  10.685
10838W        W77247   2.464   5.708   2.369
10839W        W77248  10.306  43.409  13.717
10840W        W77249  26.560  14.112   3.511
10841W        W77250  19.321  14.795   3.383
10842W        W77251  23.065   0.619  12.347
10843W        W77252   1.915  30.897  12.152
10844W        W77253  34.154  34.583  14.040
10845W        W77254  22.106   8.700   1.764
10846W        W77255  42.912  41.931   3.829
10847W        W77256   3.280   3.747  14.884
10848W        W77257  20.239  23.407  13.516
10849W        W77258  41.500  21.787  12.881
10850W        W77259  23.898  11.552  13.647
10851W        W77260  40.287  21.555  11.406
10852W        W77261  16.567  20.636   3.315
10853W        W77262  37.469  29.678  13.834
10854W        W77263  14.249   5.393  11.752
10855W        W77264   9.174  13.693  14.337
10856W        W77265   6.246  17.108   2.081
10857W        W77266   4.186  16.965  11.849
10858W        W77267  17.395  34.856   3.267
10859W        W77268  32.450  40.763   4.074
10860W        W77269   7.671  13.754  11.613
10861W        W77270  21.460  38.810   0.925
10862W        W77271  24.090  37.582  12.840
10863W        W77272  22.003  30.606   0.235
10864W        W77273  21.582  30.743  10.710
10865W        W77274  28.920  22.225   0.932
10866W        W77275  26.538  32.096   3.684
10867W        W77276  24.086   5.244   4.503
10868W        W77277   3.245  36.954   4.721
10869W        W77278   4.939  10.016  11.174
10870W        W77279  30.725  18.675   4.197
10871W        W77280  10.346   1.013   2.398
10872W        W77281  31.549  14.909  10.695
10873W        W77282  13.889   3.957   4.225
10874W        W77283  32.120  39.878   3.403
10875W        W77284   5.391  24.752  12.382
10876W        W77285  18.540  24.253  13.544
10877W        W77286   6.178   4.036  13.449
10878W        W77287  43.794   3.569  11.622
10879W        W77288  18.023  29.418   0.645
10880W        W77289  22.548  43.935   3.658
10881W        W77290  31.615   0.230   3.725
10882W        W77291   1.334  22.414  12.629
10883W        W77292  19.274  16.833  13.366
10884W        W77293   0.798  44.853   0.304
10885W        W77294  12.118  23.047  12.541
10886W        W77295  23.698  32.358   4.532
10887W        W77296  17.613  16.275   3.004
10888W        W77297  25.943  36.864  13.383
10889W        W77298   5.664  23.759   0.107
10890W        W77299   9.699  26.638  13.814
10891W        W77300  20.298  44.230  13.346
10892W        W77301  32.471  12.856   1.828
10893W        W77302  25.547  40.932   4.151
10894W        W77303  36.813   2.068   3.391
10895W        W77304  37.589  20.134  13.829
10896W        W77305   2.178  27.097   0.937
10897W        W77306  31.956  38.895  11.976
10898W        W77307   4.700  15.103   2.405
10899W        W77308  15.068  24.143  10.566
10900W        W77309   0.509  20.196   1.918
10901W        W77310   7.925  36.480   1.003
10902W        W77311  44.853  38.857   4.134
10903W        W77312  10.635  27.095   3.122
10904W        W77313  10.128   2.480  14.575
10905W        W77314   2.348  33.898   3.290
10906W        W77315   3.115  41.988  10.600
10907W        W77316  12.379  11.643   2.915
10908W        W77317   6.667  31.050  14.792
10909W        W77318  36.875  15.285  10.186
10910W        W77319   5.728   2.107  13.898
10911W        W77320  37.473   0.467   9.949
10912W        W77321  39.764  16.378  13.595
10913W        W77322  38.169   9.767  13.397
10914W        W77323  25.541  14.516  10.302
10915W        W77324  14.653  11.510   0.033
10916W        W77325  38.259   9.253   4.730
10917W        W77326  32.332  26.686  13.874
10918W        W77327   6.996  28.099   1.878
10919W        W77328  42.565   9.774  13.020
10920W        W77329  23.148   3.773   4.484
10921W        W77330  13.848  16.255   0.364
10922W        W77331  36.527  15.159   4.319
10923W        W77332  29.442  22.305   2.675
10924W        W77333  37.093  43.456   3.413
10925W        W77334   9.860   0.508   0.481
10926W        W77335  31.554   8.265   5.087
10927W        W77336  27.408  29.697  13.089
10928W        W77337  11.640  26.699   2.299
10929W        W77338  10.181  26.343   3.335
10930W        W77339  14.494  23.925   3.692
10931W        W77340  30.098  19.603   4.710
10932W        W77341  34.126  20.376  12.461
10933W        W77342  42.946   4.756  14.445
10934W        W77343  24.109  22.018  12.609
10935W        W77344   3.577  41.935   4.573
10936W        W77345   6.600  43.621  10.750
10937W        W77346   3.691  16.998   4.044
10938W        W77347   3.409  39.039   2.627
10939W        W77348  44.753   4.355  11.540
10940W        W77349  12.567  17.806  10.695
10941W        W77350   6.226  28.124   3.777
10942W        W77351  42.376   8.745  14.853
10943W        W77352   2.024  33.280  12.431
10944W        W77353  23.792  38.511   3.702
10945W        W77354   6.038  41.613  11.654
10946W        W77355  11.978   5.728   4.897
10947W        W77356   7.211   0.720  13.312
10948W        W77357  34.611  17.778  10.494
10949W        W77358   8.722  40.954  11.480
10950W        W77359   3.853  30.618   3.544
10951W        W77360  17.218  16.591  14.556
10952W        W77361   8.943  31.432   4.699
10953W        W77362  35.604  23.499  12.014
10954W        W77363   6.724  39.513  10.670
10955W        W77364  35.440  27.644   0.791
10956W        W77365  43.530  42.247  13.098
10957W        W77366   2.987  15.793   1.694
10958W        W77367  23.977  12.415   2.450
10959W        W77368  41.248   3.887  12.116
10960W        W77369  32.577  40.119  14.830
10961W        W77370  36.679   7.671  14.814
10962W        W77371  30.205   4.185   3.277
10963W        W77372   1.354  44.685  14.771
10964W        W77373  14.707  32.057   4.210
10965W        W77374  23.593   5.017   2.874
10966W        W77375  23.735  21.467   4.972
10967W        W77376   6.862  12.541  10.771
10968W        W77377  37.666   3.682   3.632
10969W        W77378  37.825  12.768   4.019
10970W        W77379  40.074   6.395  13.325
10971W        W77380  12.914  35.318  12.602
10972W        W77381   0.197  40.888  14.317
10973W        W77382  15.891  20.182  11.942
10974W        W77383   9.414   9.321   1.228
10975W        W77384  18.150  34.794  11.456
10976W        W77385  32.672   4.358   4.624
10977W        W77386  32.920  15.000   2.191
10978W        W77387   5.743   9.138   0.562
10979W        W77388  29.398  28.390  14.950
10980W        W77389  41.820  34.363  11.356
10981W        W77390   2.307  10.840  12.390
10982W        W77391  11.108  41.485   1.887
10983W        W77392  22.856  33.754  13.404
10984W        W77393   1.500  19.714  12.147
10985W        W77394  18.700  18.765  13.046
10986W        W77395  12.141  29.454   1.847
10987W        W77396  15.041  32.442  13.575
10988W        W77397  17.621  40.593   2.196
10989W        W77398   9.336   0.807   2.181
10990W        W77399  24.057   5.747   0.441
10991W        W77400   8.299  38.569   3.724
10992W        W77401  36.366  24.715  14.907
10993W        W77402  22.458  41.403  13.565
10994W        W77403  31.923  26.953  12.640
10995W        W77404  30.678   9.680  12.940
10996W        W77405  17.012  41.475   3.672
10997W        W77406   6.848   2.139   0.852
10998W        W77407  27.127   6.119  14.724
10999W        W77408  20.005  22.674   3.173
11000W        W77409  16.871  18.345  12.442
11001W        W77410  26.215   2.333   1.923
11002W        W77411  13.305  29.975   3.040
11003W        W77412  28.493  33.101   0.252
11004W        W77413   4.656  12.771   0.359
11005W        W77414  12.167  43.528  10.280
11006W        W77415   6.469  32.893  14.855
11007W        W77416  38.453   6.791  13.073
11008W        W77417  27.455  44.977   0.716
11009W        W77418   9.124   1.808  13.882
11010W        W77419  42.476   6.449  14.481
11011W        W77420  18.514  27.334   2.638
11012W        W77421   7.776  13.133  13.442
11013W        W77422   3.795  39.547  13.311
11014W        W77423  17.966   1.846  14.383
11015W        W77424  31.903  21.802   4.563
11016W        W77425   3.699  22.075   2.717
11017W        W77426  22.555  33.313  10.742
11018W        W77427  24.223   9.141  11.190
11019W        W77428   7.594  26.648   1.338
11020W        W77429   9.265  36.422   2.853
11021W        W77430  23.354  43.017  14.882
11022W        W77431   6.806  11.907   3.017
11023W        W77432  24.765   2.856   4.107
11024W        W77433  33.480  10.296   9.907
11025W        W77434  23.504  24.233   0.922
11026W        W77435  27.942  41.056  11.141
11027W        W77436   2.399  44.513   0.745
11028W        W77437  33.700  30.752   0.857
11029W        W77438   1.918  17.719   1.327
11030W        W77439  37.438  22.553  14.502
11031W        W77440  17.458  24.647   2.205
11032W        W77441   8.413  24.278  13.397
11033W        W77442  38.315  28.626   0.479
11034W        W77443  39.508  40.238   2.410
11035W        W77444  18.243  10.130  13.044
11036W        W77445  27.269  12.607   2.897
11037W        W77446   7.400  19.133  14.555
11038W        W77447  40.250  16.843  12.470
11039W        W77448   1.262  11.920  11.017
11040W        W77449   6.387  35.629   2.975
11041W        W77450   9.842   8.272   4.868
11042W        W77451   7.112  28.952  11.815
11043W        W77452  25.728   2.815  14.806
11044W        W77453  38.110  31.496  12.482
11045W        W77454  14.645  25.194   0.373
11046W        W77455   3.689  13.815  12.476
11047W        W77456  25.745  42.260   1.783
11048W        W77457  41.162  25.236  10.294
11049W        W77458  40.072  34.040  10.700
11050W        W77459  21.507  34.132   3.216
11051W        W77460  15.300  44.230  12.827
11052W        W77461   0.980   6.354   4.568
11053W        W77462   5.236  18.363   4.601
11054W        W77463  42.827  32.897  12.959
11055W        W77464   7.408  44.684  10.122
11056W        W77465  27.914  11.153   3.677
11057W        W77466  26.545  39.233   1.429
11058W        W77467  44.329   8.272   1.975
11059W        W77468  22.595  27.567   4.425
11060W        W77469  20.684  35.999   2.634
11061W        W77470  20.160  39.564   0.205
11062W        W77471   7.760  36.978  10.636
11063W        W77472  13.855   3.986  13.542
11064W        W77473  14.623   3.307  12.425
11065W        W77474   4.818   7.797  14.269
11066W        W77475  40.953  26.657   3.653
11067W        W77476   6.092  26.282  14.329
11068W        W77477  33.928  20.694   1.344
11069W        W77478  36.592  36.549  14.287
11070W        W77479   9.176   7.998  11.575
11071W        W77480  28.412  13.834   3.254
11072W        W77481  22.198  36.995   3.811
11073W        W77482  26.103  39.399  11.635
11074W        W77483   3.846  13.661   3.924
11075W        W77484  23.037  17.559   0.862
11076W        W77485   4.915   9.386   2.248
11077W        W77486  32.071  36.036   2.350
11078W        W77487   1.468  39.759   1.723
11079W        W77488  38.773  33.381   1.886
11080W        W77489   0.283   3.691  13.381
11081W        W77490  16.747  13.061  10.784
11082W        W77491  31.556  26.610  12.489
11083W        W77492   0.471  31.154  11.154
11084W        W77493  38.111   3.922   1.284
11085W        W77494  20.305  36.653   4.821
11086W        W77495  13.145  35.937  13.291
11087W        W77496  33.425  20.661   0.380
11088W        W77497   8.366  17.198  11.936
11089W        W77498  15.909  40.540  11.109
11090W        W77499  11.142  21.551   2.883
11091W        W77500   1.346  39.522  12.036
11092W        W77501  23.287  32.530   1.908
11093W        W77502  39.888  40.734  11.672
11094W        W77503  14.744  20.335   4.544
11095W        W77504  38.129  18.124  13.430
11096W        W77505  28.509  40.323  14.002
11097W        W77506  27.102  29.512  10.421
11098W        W77507  19.173  22.984  10.507
11099W        W77508  30.614   9.741   0.003
11100W        W77509  23.477  19.516   3.226
11101W        W77510  40.024  36.577  11.547
11102W        W77511   1.157  22.303  11.617
11103W        W77512  42.108  15.039   4.092
11104W        W77513  12.314  44.953  10.597
11105W        W77514  33.423  26.273   3.354
11106W        W77515  40.937  19.224   4.052
11107W        W77516   0.176  26.584  12.107
11108W        W77517  43.183  24.580   1.383
11109W        W77518  30.693  35.833   2.507
11110W        W77519  15.458  25.144   2.271
11111W        W77520  31.368  33.027  11.055
11112W        W77521  39.960  35.163  11.490
11113W        W77522  43.905   9.481  14.531
11114W        W77523   8.167  12.564   1.775
11115W        W77524   1.380   5.508  13.087
11116W        W77525  14.440  38.018  12.018
11117W        W77526  28.214  16.703   3.232
11118W        W77527  19.049  41.740  13.314
11119W        W77528   5.895  34.171   2.353
11120W        W77529  16.676   9.011   2.247
11121W        W77530  10.542  33.960   2.716
11122W        W77531  14.030  13.829   4.936
11123W        W77532  19.064   0.276  10.880
11124W        W77533   2.889  17.830   2.487
11125W        W77534  44.262  25.466  11.323
11126W        W77535  20.962   5.403   0.121
11127W        W77536  14.760  16.061   3.248
11128W        W77537  14.668  38.465  12.094
11129W        W77538  39.353  19.287  11.253
11130W        W77539   8.702  16.230   1.787
11131W        W77540  13.144  10.764   0.288
11132W        W77541  41.301   8.803  11.662
11133W        W77542  38.016  10.074   4.081
11134W        W77543  27.954  10.649   3.739
11135W        W77544  43.753  38.513   3.886
11136W        W77545  20.601  29.464   3.373
11137W        W77546  29.174  34.614  12.729
11138W        W77547  22.233  17.677   3.255
11139W        W77548  24.122   7.014  14.776
11140W        W77549   3.551  16.760   3.477
11141W        W77550  28.650   6.592   4.470
11142W        W77551  30.632  30.891  14.933
11143W        W77552  39.042  41.706   2.903
11144W        W77553  38.041  27.400  12.521
11145W        W77554  12.674  38.797   4.996
11146W        W77555  13.290  37.903  14.493
11147W        W77556  29.263  38.448  12.569
11148W        W77557  38.770   5.936  13.288
11149W        W77558  39.591  24.705   1.952
11150W        W77559  16.367  24.119   3.302
11151W        W77560  40.074   4.261   2.225
11152W        W77561  20.675  33.742   3.740
11153W        W77562   5.415  15.231   3.689
11154W        W77563   6.861  43.020  14.477
11155W        W77564  12.915  35.994  12.626
11156W        W77565  12.851  39.547  10.729
11157W        W77566  29.416  13.193  13.258
11158W        W77567  12.326  44.352  14.357
11159W        W77568  41.145  38.537  11.618
11160W        W77569   6.475  15.563   0.796
11161W        W77570  36.339  31.397  11.533
11162W        W77571  29.569   7.664  11.965
11163W        W77572  36.337  18.976   2.755
11164W        W77573  15.550  24.307  10.667
11165W        W77574  10.907  36.535   5.183
11166W        W77575   9.362  36.012   4.607
11167W        W77576  32.827  21.039   0.869
11168W        W77577   6.059  42.403   4.738
11169W        W77578   4.874  22.556   4.570
11170W        W77579  27.155  43.866   3.221
11171W        W77580  31.539   2.059   3.753
11172W        W77581  16.457  26.638   3.752
11173W        W77582  35.040   3.009  14.450
11174W        W77583  14.237   4.004   5.032
11175W        W77584  24.458   4.276  12.292
11176W        W77585  36.794  29.505   3.222
11177W        W77586  13.100  32.024   4.129
11178W        W77587  26.954  43.563   4.225
11179W        W77588  37.497   0.328  11.887
11180W        W77589  26.006  17.717  12.760
11181W        W77590  37.613  38.985  11.473
11182W        W77591   5.785  37.415   0.791
11183W        W77592   3.691  24.658   1.711
11184W        W77593  33.557   6.700   2.447
11185W        W77594  35.063  25.440   0.977
11186W        W77595  29.917  31.682  11.132
11187W        W77596   0.256  11.847   3.431
11188W        W77597  13.853   2.491   3.459
11189W        W77598   9.817  40.871   3.386
11190W        W77599  38.426  39.538  10.723
11191W        W77600   6.435  29.136  12.086
11192W        W77601   0.346  40.377   2.460
11193W        W77602  24.372   3.798  14.947
11194W        W77603   9.112   4.223   3.173
11195W        W77604   2.366  36.338   3.745
11196W        W77605  18.251  18.121   4.714
11197W        W77606  16.629  29.078   0.928
11198W        W77607  30.482  38.303   0.378
11199W        W77608  35.178  44.635   0.042
11200W        W77609   2.093  37.448  10.280
11201W        W77610   8.376  16.473  13.526
11202W        W77611   8.310  35.501   0.247
11203W        W77612  26.153   9.191  12.133
11204W        W77613  15.780  42.768  10.120
11205W        W77614  42.116  44.912   0.045
11206W        W77615  41.784   2.446  14.804
11207W        W77616   8.421  15.091   4.554
11208W        W77617  33.465  29.943  12.767
11209W        W77618  40.080   9.218  10.363
11210W        W77619  40.086   4.480   0.794
11211W        W77620  28.836  44.181  12.150
11212W        W77621  12.865   7.795  14.780
11213W        W77622  40.299  17.588  13.081
11214W        W77623   6.683  14.690   0.848
11215W        W77624  15.650  34.126   1.143
11216W        W77625  28.596  29.257   1.284
11217W        W77626   8.070  16.170  14.458
11218W        W77627  23.655  43.534  13.114
11219W        W77628  28.114  25.032   9.938
11220W        W77629  23.599  18.554   1.821
11221W        W77630  36.089  20.129  12.459
11222W        W77631  33.524  43.375   1.836
11223W        W77632   7.673  25.480  12.697
11224W        W77633  43.322  21.761  14.318
11225W        W77634  24.217  17.625  13.381
11226W        W77635   0.449   5.265  11.215
11227W        W77636  42.546  15.294   2.738
11228W        W77637  37.867   7.758   2.405
11229W        W77638  24.162  42.857   4.567
11230W        W77639  39.116   3.869   0.261
11231W        W77640  31.679  23.563   4.048
11232W        W77641  42.548  22.797   1.852
11233W        W77642  44.990  33.018  11.058
11234W        W77643  35.032  23.516   3.227
11235W        W77644  22.893  14.205   1.325
11236W        W77645   8.275  10.833   2.732
11237W        W77646   3.778   0.872  14.831
11238W        W77647   6.888  29.398  11.042
11239W        W77648  11.769  12.386  14.417
11240W        W77649  40.777  23.178  14.319
11241W        W77650  40.284   8.454   0.785
11242W        W77651   9.323  36.520  13.033
11243W        W77652   4.849  32.186   3.745
11244W        W77653   9.371  11.422   4.121
11245W        W77654  13.683  28.200  13.121
11246W        W77655  25.004  21.788  13.869
11247W        W77656  42.317  14.467  14.355
11248W        W77657  11.722   8.265  13.334
11249W        W77658  12.156   3.883   1.261
11250W        W77659  13.489  39.021   3.935
11251W        W77660   7.416   3.273  11.105
11252W        W77661  21.134  39.249   2.471
11253W        W77662  36.902  36.204   2.179
11254W        W77663  20.123  30.456   2.214
11255W        W77664  18.777   6.857   2.695
11256W        W77665   5.215  33.800   1.877
11257W        W77666  14.496   0.944  14.957
11258W        W77667  37.646  39.303  14.558
11259W        W77668  33.139  34.954   4.917
11260W        W77669   7.951  14.661   1.236
11261W        W77670  11.380  36.096   2.154
11262W        W77671  37.419   5.254  10.577
11263W        W77672   1.741  36.014  11.052
11264W        W77673  36.263  13.202  11.557
11265W        W77674  18.648   0.417   1.497
11266W        W77675  15.629   0.439   9.886
11267W        W77676  39.327  34.062   2.406
11268W        W77677  25.666  15.845   0.908
11269W        W77678  22.089   4.521   3.890
11270W        W77679  10.526  41.441   3.179
11271W        W77680   8.920   2.649   3.330
11272W        W77681  37.601   3.367  14.530
11273W        W77682   3.175  21.904   1.817
11274W        W77683  17.551  37.467   3.222
11275W        W77684  15.727  13.930  11.590
11276W        W77685  38.260  43.900   0.310
11277W        W77686  26.840  10.382  12.605
11278W        W77687  10.572  14.742   0.419
11279W        W77688  24.143  19.972   4.589
11280W        W77689  40.286  31.841  13.036
11281W        W77690   7.129  18.110   4.566
11282W        W77691  15.161  37.451  11.431
11283W        W77692  33.600   1.982  12.145
11284W        W77693   4.009  19.895   3.309
11285W        W77694  26.472  17.739   1.970
11286W        W77695   7.244  40.035  11.582
11287W        W77696  33.497  17.892  14.956
11288W        W77697  38.655  25.140   0.746
11289W        W77698  40.406  29.670  13.606
11290W        W77699   3.168   2.295   0.769
11291W        W77700  30.561  15.862  14.979
11292W        W77701  36.082  11.813  10.791
11293W        W77702   1.812   4.855  11.137
11294W        W77703  11.736   6.834   1.469
11295W        W77704   4.319  40.831  13.170
11296W        W77705  13.414  41.790   1.955
11297W        W77706  24.517  35.443   4.220
11298W        W77707  17.184   8.286   4.387
11299W        W77708  32.025   3.466   1.761
11300W        W77709   3.463   6.297  11.478
11301W        W77710  31.473  10.030   0.043
11302W        W77711   3.809  29.908  11.078
11303W        W77712  44.179  19.824   4.274
11304W        W77713  40.313   2.685   2.887
11305W        W77714   6.396  21.204  14.406
11306W        W77715  18.921  32.470   4.440
11307W        W77716  38.078  38.453  14.871
11308W        W77717  37.253  23.531  11.728
11309W        W77718  44.436  33.348   5.090
11310W        W77719  11.355  32.799   3.811
11311W        W77720  26.680   1.638   0.377
11312W        W77721  17.791  21.708   1.836
11313W        W77722   8.282  23.072   2.201
11314W        W77723  43.038  26.758   1.431
11315W        W77724  15.292   6.166   2.156
11316W        W77725   3.496  24.916  11.558
11317W        W77726   2.342   0.949  11.654
11318W        W77727  34.604  31.472  14.812
11319W        W77728   2.492  33.886  10.810
11320W        W77729  16.557   2.772   3.303
11321W        W77730  39.467   4.237  11.479
11322W        W77731   5.398   4.496   3.709
11323W        W77732   3.105  21.956  12.211
11324W        W77733  41.666  37.110   1.910
11325W        W77734  43.686   2.700   4.153
11326W        W77735   9.149   2.702  12.078
11327W        W77736  28.277  40.713  10.257
11328W        W77737  26.387   7.969   3.219
11329W        W77738  32.398  41.508   0.714
11330W        W77739   1.825  35.090  13.943
11331W        W77740  41.336  39.389   1.088
11332W        W77741  25.938  20.182  14.732
11333W        W77742  33.860   1.335   1.349
11334W        W77743  41.234  32.774  13.790
11335W        W77744   6.145  10.879  12.127
11336W        W77745  44.382   0.510  13.889
11337W        W77746  29.199   9.907   3.171
11338W        W77747   1.220  33.064   2.622
11339W        W77748  13.130  16.096  14.473
11340W        W77749  37.085  41.833   2.663
11341W        W77750   9.094  40.539  11.024
11342W        W77751  28.658  16.773   3.647
11343W        W77752  27.210  23.077  13.340
11344W        W77753  35.361  11.557   3.124
11345W        W77754  23.964  39.950   2.791
11346W        W77755  26.406  40.760   3.026
11347W        W77756  40.273  26.948   3.320
11348W        W77757  31.093  18.273  12.569
11349W        W77758  35.585  18.878  13.037
11350W        W77759  22.317  44.817   0.687
11351W        W77760  19.792  20.549   2.543
11352W        W77761  26.996  13.405   0.366
11353W        W77762  36.075   6.268   2.777
11354W        W77763  11.023   1.985  11.705
11355W        W77764  19.520   0.424  14.532
11356W        W77765  27.950  27.960   1.357
11357W        W77766  24.645   8.408  11.356
11358W        W77767   9.624  21.985  13.098
11359W        W77768  27.490  38.015   4.283
11360W        W77769  28.567  41.513  10.714
11361W        W77770  43.393  15.091  11.902
11362W        W77771  29.895  21.731   0.187
11363W        W77772  26.480   6.385   1.913
11364W        W77773  22.971  10.319  12.811
11365W        W77774  36.256  44.609   4.958
11366W        W77775  15.181  40.729  13.835
11367W        W77776   1.408  28.703   4.658
11368W        W77777  25.370  23.617  10.940
11369W        W77778  41.585  10.403  11.139
11370W        W77779  33.615  42.823  11.247
11371W        W77780  20.500  24.224   4.660
11372W        W77781  12.209  40.635  11.092
11373W        W77782  11.185  41.882  13.819
11374W        W77783  16.686  18.039   3.191
11375W        W77784  41.186   5.115  11.610
11376W        W77785  25.478  39.027  10.625
11377W        W77786  42.308  22.834  14.276
11378W        W77787  36.999  17.524   2.358
11379W        W77788  20.138  27.155  14.835
11380W        W77789   7.799  43.670  14.008
11381W        W77790  25.685  27.111   4.424
11382W        W77791  21.397   0.919  13.864
11383W        W77792  25.540  38.980   1.780
11384W        W77793  34.451  19.110  12.064
11385W        W77794   3.657  36.501  14.924
11386W        W77795   1.526  32.017   1.397
11387W        W77796   1.442  39.044   3.157
11388W        W77797  11.377  14.397   0.798
11389W        W77798  21.965   9.723   2.178
11390W        W77799  18.181  30.063  11.396
11391W        W77800   2.885  43.295  13.143
11392W        W77801   2.521  41.453   1.258
11393W        W77802  27.247  41.417  10.765
11394W        W77803   0.523  16.261   1.438
11395W        W77804  40.812  43.532  11.452
11396W        W77805   7.809  28.477   0.327
11397W        W77806  32.512  38.889   3.619
11398W        W77807  28.105  44.298   4.573
11399W        W77808  23.256  29.758  12.598
11400W        W77809  40.558  18.503   3.162
11401W        W77810  14.165  36.639   9.923
11402W        W77811  29.525  37.982  12.629
11403W        W77812   2.028  25.047  14.706
11404W        W77813   9.739  33.135   0.271
11405W        W77814   7.152  30.778  12.090
11406W        W77815   6.465  36.475   2.924
11407W        W77816  28.441  32.623   0.463
11408W        W77817   9.352  38.597   3.686
11409W        W77818  44.510  42.298  12.918
11410W        W77819  41.401  28.552  12.499
11411W        W77820  36.388  13.271  11.072
11412W        W77821   9.355  44.274   0.656
11413W        W77822  36.461  33.051  12.583
11414W        W77823   2.032  13.837  11.104
11415W        W77824   0.294  23.662   4.002
11416W        W77825  37.526   4.576  11.570
11417W        W77826  18.110  33.837  13.506
11418W        W77827  19.348  13.142  13.842
11419W        W77828  33.918   4.726   0.017
11420W        W77829  37.490  19.142  11.528
11421W        W77830  26.781  25.606   4.093
11422W        W77831   4.699  29.490   4.167
11423W        W77832  41.718   3.628   2.154
11424W        W77833  32.542  33.153  10.589
11425W        W77834  17.095  11.563   3.716
11426W        W77835   4.311  22.041  11.123
11427W        W77836  12.181  41.333  11.918
11428W        W77837  20.078  33.827   0.821
11429W        W77838   9.412  22.679   0.720
11430W        W77839  43.971   0.051   3.835
11431W        W77840  21.274   8.278  14.944
11432W        W77841  32.565  33.533   3.731
11433W        W77842   0.504  14.769  14.992
11434W        W77843   0.210  28.877  12.253
11435W        W77844  14.071  38.229   1.338
11436W        W77845  15.612  35.750  13.545
11437W        W77846  40.946  28.096   4.022
11438W        W77847  13.565  24.940   4.546
11439W        W77848  37.523   3.673   2.750
11440W        W77849  41.662  25.297   3.777
11441W        W77850   0.042  36.133  12.944
11442W        W77851  13.329  10.762  13.012
11443W        W77852  33.267  23.429   0.847
11444W        W77853  18.480  28.181  14.843
11445W        W77854  15.259  42.990   0.641
11446W        W77855  23.039  14.564   0.506
11447W        W77856  17.049  32.858   0.975
11448W        W77857  23.930  26.121   1.334
11449W        W77858  39.391  43.483  11.146
11450W        W77859  37.601  30.857   0.319
11451W        W77860  41.953   1.977  12.429
11452W        W77861  27.210  13.710  11.149
11453W        W77862  44.244  11.243  13.156
11454W        W77863  38.256  13.802  14.023
11455W        W77864  25.185  13.202  10.757
11456W        W77865   4.822  21.094  10.883
11457W        W77866  43.001  34.637   4.578
11458W        W77867  34.447  13.042  13.614
11459W        W77868  32.473  43.322  11.908
11460W        W77869  18.585  15.537   2.411
11461W        W77870  19.951  15.776  13.837
11462W        W77871  24.292  37.900   0.973
11463W        W77872  44.801  22.468  13.583
11464W        W77873   1.042  27.708   3.964
11465W        W77874  43.840  17.928  12.842
11466W        W77875  30.910   7.207   2.632
11467W        W77876   1.876   5.378   2.883
11468W        W77877  24.734  13.729  12.183
11469W        W77878  10.363  30.227  14.853
11470W        W77879  14.121  14.809   1.486
11471W        W77880  43.784  44.465  14.437
11472W        W77881  27.209  28.134  12.957
11473W        W77882  38.393  39.772  12.541
11474W        W77883  13.617  37.083   3.402
11475W        W77884  16.877  34.738  11.672
11476W        W77885  25.930  32.889  11.612
11477W        W77886  14.245  17.554   2.354
11478W        W77887   2.429  21.761   2.755
11479W        W77888  38.361   4.355   1.904
11480W        W77889  39.291   2.305  13.865
11481W        W77890  30.986   2.396   1.867
11482W        W77891  43.818  40.843  12.436
11483W        W77892  18.696  23.471   3.581
11484W        W77893  35.895  13.395   2.464
11485W        W77894  29.288  28.488   3.793
11486W        W77895  31.413   1.665   3.442
11487W        W77896  18.838  40.819   2.715
11488W        W77897  43.521  25.802   4.823
11489W        W77898   9.368   6.827  13.077
11490W        W77899  29.619  38.469  11.591
11491W        W77900  35.455  10.994   0.291
11492W        W77901  32.569  27.414  14.345
11493W        W77902  35.938   6.969   2.285
11494W        W77903   8.378  39.494  13.927
11495W        W77904  42.425  14.205   1.867
11496W        W77905   2.427  37.376  12.153
11497W        W77906  17.733  41.051   1.997
11498W        W77907  41.241  44.321   1.746
11499W        W77908  39.416   9.857   1.732
11500W        W77909  44.951  42.105  10.643
11501W        W77910   8.627   7.710   1.487
11502W        W77911  37.494  39.917   1.799
11503W        W77912  10.212   0.029   1.223
11504W        W77913  15.806  35.887   0.333
11505W        W77914   8.231  27.873  13.394
11506W        W77915  36.372  22.683   1.840
11507W        W77916   4.325  13.275   4.684
11508W        W77917  15.802  36.595   2.132
11509W        W77918   6.689  30.916   2.836
11510W        W77919  31.059  32.180  14.549
11511W        W77920  12.177  38.842  14.082
11512W        W77921  16.609  44.492  13.510
11513W        W77922  37.867   1.443  12.012
11514W        W77923  40.439   5.177  11.242
11515W        W77924  29.797  25.140   1.818
11516W        W77925  24.045  23.906   2.309
11517W        W77926  10.130  17.346  13.697
11518W        W77927  26.291  31.923   1.777
11519W        W77928  17.304   6.502   3.275
11520W        W77929  29.667   5.831  11.553
11521W        W77930  28.237   6.195  12.283
11522W        W77931  19.053  20.149   1.489
11523W        W77932  14.581  37.113   1.487
11524W        W77933   7.404  43.834  11.459
11525W        W77934  19.177  44.022   0.171
11526W        W77935   7.930   9.297   4.356
11527W        W77936  19.918  38.349  14.019
11528W        W77937  12.137  38.168  12.967
11529W        W77938  22.152  36.121  13.384
11530W        W77939  43.798  37.807   3.259
11531W        W77940  29.254  30.117   4.726
11532W        W77941   8.096  29.026  10.465
11533W        W77942  25.655  24.783   2.707
11534W        W77943  33.896   3.308  11.666
11535W        W77944  44.537  33.717   3.363
11536W        W77945   0.224   5.757   4.810
11537W        W77946   9.682  33.645   0.298
11538W        W77947  40.073  18.167  11.842
11539W        W77948  36.421  15.863   2.686
11540W        W77949  13.317  39.594   1.392
11541W        W77950   2.795   2.882   2.431
11542W        W77951  23.194  27.440  13.232
11543W        W77952   3.785  18.715  14.464
11544W        W77953  33.667  17.124  10.713
11545W        W77954  34.523  29.644  13.582
11546W        W77955  18.840  12.287  14.051
11547W        W77956  15.303  35.332  13.701
11548W        W77957  19.161  21.454   3.903
11549W        W77958  27.329  44.533   0.942
11550W        W77959  44.021  26.533   0.463
11551W        W77960  32.745  12.461  10.702
11552W        W77961  11.116  31.303  14.867
11553W        W77962   4.768   9.703  14.949
11554W        W77963  15.098  30.982   2.712
11555W        W77964  14.645  36.697  12.337
11556W        W77965  27.638   8.276  11.002
11557W        W77966  42.212  30.017  14.302
11558W        W77967  33.411  22.775  14.809
11559W        W77968  13.046  24.760   4.143
11560W        W77969   4.785   6.587   3.713
11561W        W77970   2.072  36.394  13.001
11562W        W77971  18.111  16.588  13.817
11563W        W77972  26.558  35.068  11.174
11564W        W77973  44.774  31.134  12.922
11565W        W77974   2.438  27.605  13.371
11566W        W77975  13.069  22.032  11.355
11567W        W77976  34.108  24.059   2.342
11568W        W77977  15.863  10.245  14.112
11569W        W77978  16.560  24.954   3.793
11570W        W77979  35.907  18.162   4.912
11571W        W77980  36.077   5.881  14.304
11572W        W77981  32.054  27.476  14.866
11573W        W77982  40.012  29.640  12.089
11574W        W77983  21.662  15.371  13.092
11575W        W77984  18.429  22.045   0.625
11576W        W77985  42.978  29.840  13.002
11577W        W77986  35.152  20.891  13.026
11578W        W77987   6.126  37.927  11.094
11579W        W77988   6.173  40.004  14.570
11580W        W77989  23.066  25.687  11.474
11581W        W77990  40.194   5.018  12.152
11582W        W77991  23.627  31.656   2.709
11583W        W77992  32.097  27.599  14.323
11584W        W77993  27.702  28.444  12.461
11585W        W77994   0.829  17.734   3.717
11586W        W77995  18.585  22.594   3.409
11587W        W77996  41.418   6.175   1.361
11588W        W77997  21.417  17.157   1.342
11589W        W77998  39.411   3.725  11.640
11590W        W77999  23.662  13.324  14.839
11591W        W78000   1.536  32.601  14.401
11592W        W78001   0.914  15.993  10.602
11593W        W78002  17.182   1.215   4.791
11594W        W78003   6.851  40.002  14.467
11595W        W78004  34.374  39.836  14.512
11596W        W78005  19.280   4.355   4.495
11597W        W78006  29.404  29.912   3.774
11598W        W78007  36.936  23.527   1.627
11599W        W78008  12.900  19.275   0.229
11600W        W78009   2.238  42.911  13.111
11601W        W78010  35.296   9.315   1.345
11602W        W78011   6.867  41.096   0.322
11603W        W78012  33.333  34.584  12.567
11604W        W78013  39.738   1.237  12.049
11605W        W78014  37.798  39.839   2.808
11606W        W78015   2.900   7.144  12.215
11607W        W78016  39.928  29.335  14.457
11608W        W78017  23.801  35.705   2.371
11609W        W78018  35.513  10.883  11.249
11610W        W78019  42.467  11.698   3.611
11611W        W78020   7.036  17.827  11.064
11612W        W78021   7.600  32.107  12.546
11613W        W78022  11.195  21.159   1.694
11614W        W78023  10.750  25.237   0.354
11615W        W78024  27.243  21.729  10.582
11616W        W78025   7.421   0.890  11.422
11617W        W78026   7.657  12.396   1.786
11618W        W78027  15.176  42.467  11.133
11619W        W78028   9.381  39.861   3.296
11620W        W78029  44.067  20.253   5.118
11621W        W78030  13.950  23.235   3.737
11622W        W78031  31.864  28.356   0.388
11623W        W78032  20.123  39.767   0.672
11624W        W78033   8.356  26.312   4.583
11625W        W78034  20.812   3.349   1.698
11626W        W78035  35.504  37.868  13.783
11627W        W78036  13.011  40.559  10.713
11628W        W78037   6.673  33.508  12.941
11629W        W78038  10.308  20.531  12.406
11630W        W78039   3.766  39.306   0.780
11631W        W78040  39.556   1.297   2.447
11632W        W78041   4.177  40.071  10.731
11633W        W78042  29.227  43.980  14.891
11634W        W78043  32.917  26.565  12.105
11635W        W78044  19.067  31.876   0.284
11636W        W78045  33.887  20.777  12.681
11637W        W78046  14.820  12.272   0.864
11638W        W78047  21.136  27.332  14.480
11639W        W78048   9.133  21.231   0.070
11640W        W78049  28.531  27.888  14.045
11641W        W78050  21.584  26.455   3.607
11642W        W78051   1.028  28.115  13.877
11643W        W78052  17.821   3.959  14.567
11644W        W78053  27.629  14.373  11.521
11645W        W78054  11.480   2.294  12.067
11646W        W78055  21.461  26.033  13.349
11647W        W78056   2.499   1.039   2.283
11648W        W78057  29.559  27.633  10.551
11649W        W78058   9.176  22.233  10.740
11650W        W78059  24.127   0.282   4.183
11651W        W78060  36.379  27.974  13.610
11652W        W78061  34.825  38.714  11.217
11653W        W78062  11.328  42.989   5.027
11654W        W78063  15.218   3.776   4.626
11655W        W78064  33.017  32.422   3.384
11656W        W78065  36.223   1.722  11.520
11657W        W78066  18.185  36.350  11.631
11658W        W78067  11.342  31.822   3.693
11659W        W78068  19.708  39.971  14.221
11660W        W78069  21.782  28.536  13.828
11661W        W78070  39.593  19.143   5.232
11662W        W78071   9.805  20.685   4.692
11663W        W78072  16.560  41.151  13.748
11664W        W78073  35.060  31.363   4.105
11665W        W78074  16.678   4.489   4.574
11666W        W78075  29.059   0.722   0.322
11667W        W78076  38.835  44.909   0.381
11668W        W78077  32.977  27.883  13.548
11669W        W78078   8.766  34.402  14.710
11670W        W78079  29.551  24.032   0.906
11671W        W78080  33.082  19.173   4.422
11672W        W78081  26.595   7.741   4.532
11673W        W78082  19.494  14.773  11.320
11674W        W78083  43.936  19.754   4.932
11675W        W78084  11.439  19.164   0.231
11676W        W78085  34.574  19.701   0.505
11677W        W78086  37.604  17.002  12.182
11678W        W78087  18.762  44.210   0.390
11679W        W78088   8.900  27.552   4.284
11680W        W78089  37.359   0.719  13.315
11681W        W78090  24.803  27.529  11.074
11682W        W78091  35.789  31.020  12.627
11683W        W78092   8.153  25.104  10.174
11684W        W78093  28.754  31.515  10.504
11685W        W78094  34.184  32.661   2.809
11686W        W78095  39.657  22.579  14.906
11687W        W78096  11.361  15.735  14.695
11688W        W78097  37.996  13.051  11.627
11689W        W78098  20.515  10.900  12.895
11690W        W78099  17.289  17.346   0.429
11691W        W78100  15.573  18.742  12.398
11692W        W78101  25.685   7.408   1.819
11693W        W78102   3.662  20.566  14.343
11694W        W78103  37.828  32.323   2.536
11695W        W78104  26.869  42.867  14.523
11696W        W78105   0.880  40.570  12.936
11697W        W78106   2.994  16.592   0.988
11698W        W78107  31.885  12.760   2.447
11699W        W78108   6.057  23.563   4.968
11700W        W78109  16.137   7.875  12.468
11701W        W78110   5.876  18.230  11.493
11702W        W78111  40.351  12.562   0.475
11703W        W78112  27.651  38.004  13.129
11704W        W78113   9.388  36.985  13.378
11705W        W78114  41.109  40.654  12.023
11706W        W78115  30.577  24.068   4.112
11707W        W78116  32.605   1.440  12.477
11708W        W78117  28.886  21.269  13.403
11709W        W78118  12.666  15.578   2.325
11710W        W78119  29.019  18.422   3.815
11711W        W78120  11.689   0.158   2.341
11712W        W78121   4.230  43.999   1.016
11713W        W78122  12.164  15.379   0.589
11714W        W78123  12.909   8.090  12.578
11715W        W78124  13.558   9.434   0.450
11716W        W78125   3.956  38.165  11.094
11717W        W78126  18.202  40.768  11.889
11718W        W78127  17.435   7.366   2.299
11719W        W78128   5.194   9.946  13.836
11720W        W78129  26.158  23.003  14.294
11721W        W78130  20.444  22.054   4.567
11722W        W78131  14.413  41.781  14.379
11723W        W78132  22.600  40.892   2.455
11724W        W78133  28.542  38.155  13.810
11725W        W78134   4.994   0.679  11.938
11726W        W78135  12.396  29.650  13.320
11727W        W78136  43.279  39.460  14.455
11728W        W78137  42.974  14.152  14.218
11729W        W78138   9.134   7.470  13.527
11730W        W78139  27.369  44.520  12.816
11731W        W78140  10.152  36.880   1.297
11732W        W78141   2.913  27.047  12.063
11733W        W78142  32.853   2.667   0.758
11734W        W78143  13.803  38.414  13.892
11735W        W78144  31.102  29.910  13.899
11736W        W78145  15.878  40.030  11.009
11737W        W78146  37.668  29.684  12.393
11738W        W78147  19.535  21.204  14.666
11739W        W78148  11.304   2.649   3.776
11740W        W78149  20.900  10.362  12.334
11741W        W78150   6.084  25.348  12.221
11742W        W78151  38.895  26.032  12.982
11743W        W78152   8.737  15.618   3.742
11744W        W78153  35.978  35.040  12.977
11745W        W78154   4.825   8.381   4.567
11746W        W78155  16.592  31.280   1.225
11747W        W78156  17.329   0.684  11.428
11748W        W78157  25.929  27.022   3.263
11749W        W78158  41.924   8.066   4.365
11750W        W78159  16.801  11.720   4.148
11751W        W78160  36.962  36.409  11.608
11752W        W78161   5.262   5.369  12.945
11753W        W78162   9.181  32.626  14.878
11754W        W78163  39.810  20.159  13.038
11755W        W78164  43.992   1.148   1.260
11756W        W78165  26.926  31.985   0.979
11757W        W78166  13.265   6.280  14.578
11758W        W78167  34.702  28.578   0.401
11759W        W78168  35.399  38.475  10.983
11760W        W78169  39.361   7.977  11.367
11761W        W78170  28.920  33.645  11.011
11762W        W78171  40.303   7.139  12.883
11763W        W78172   6.107  19.052   0.374
11764W        W78173  30.660  29.118  11.503
11765W        W78174  24.546  19.009  14.027
11766W        W78175   1.355  26.078   0.055
11767W        W78176   7.364  44.788   4.109
11768W        W78177  27.507  22.206  14.462
11769W        W78178  32.112  38.216  10.588
11770W        W78179  12.430  24.007   1.013
11771W        W78180  39.841  31.921  13.462
11772W        W78181  10.603  29.943   3.188
11773W        W78182  14.459  14.227   5.306
11774W        W78183  21.499   6.059   1.329
11775W        W78184  34.101   1.541  14.789
11776W        W78185  44.387  31.157  13.890
11777W        W78186  40.386  12.718   3.107
11778W        W78187  16.756   6.950   4.435
11779W        W78188  42.709  23.947   3.783
11780W        W78189  26.574   2.923  13.752
11781W        W78190  35.289  16.707  10.178
11782W        W78191  20.230  20.941  12.448
11783W        W78192  44.819  42.901  14.153
11784W        W78193  14.410   7.775   3.723
11785W        W78194  28.452  23.568  11.446
11786W        W78195  38.022   2.017   2.804
11787W        W78196   2.734  21.646  11.501
11788W        W78197  15.686  28.862   0.135
11789W        W78198   2.890   2.162  14.413
11790W        W78199   3.355  38.521  14.189
11791W        W78200   1.311   7.967  11.427
11792W        W78201   0.841  29.378  13.299
11793W        W78202  30.543  29.941  11.156
11794W        W78203  15.073  28.373   2.139
11795W        W78204   4.805  11.862  14.071
11796W        W78205   2.119   9.192  11.524
11797W        W78206  37.336  13.931   5.025
11798W        W78207   0.492  18.246   1.926
11799W        W78208   8.813  39.979  12.008
11800W        W78209  25.815  28.860  10.105
11801W        W78210   1.991   6.179   0.828
11802W        W78211  14.274  40.243   2.455
11803W        W78212  12.467  38.443  14.215
11804W        W78213  16.781  44.875  14.786
11805W        W78214  22.411  38.033   3.882
11806W        W78215   3.911  17.327  12.145
11807W        W78216  36.459  12.332  14.865
11808W        W78217  36.694  36.471  11.169
11809W        W78218  35.601  26.171   2.400
11810W        W78219  34.948  39.417  14.895
11811W        W78220   7.379  24.066   3.779
11812W        W78221  42.933   1.012   0.683
11813W        W78222  10.808  13.102  12.062
11814W        W78223  18.680   0.729   4.328
11815W        W78224  18.653  33.975  12.224
11816W        W78225   1.282  10.139  12.856
11817W        W78226  30.134  40.885   1.521
11818W        W78227  18.244   6.232   0.391
11819W        W78228  39.078  22.009  11.962
11820W        W78229   1.069  30.994  13.017
11821W        W78230  15.070  34.483  14.461
11822W        W78231  31.515  28.431   3.818
11823W        W78232  33.407  27.965  13.035
11824W        W78233  38.454  13.144  14.370
11825W        W78234  14.886  38.597  14.516
11826W        W78235   9.277  22.942  13.918
11827W        W78236  33.384  37.452   4.150
11828W        W78237  38.094  28.777   0.016
11829W        W78238   9.789  16.732   1.655
11830W        W78239  31.621  38.293   2.399
11831W        W78240   4.561   3.512  11.438
11832W        W78241  30.967  33.332  14.038
11833W        W78242  41.243  18.976   0.514
11834W        W78243  15.012  17.071  13.949
11835W        W78244  33.111  42.766  11.084
11836W        W78245  23.463   8.182   2.932
11837W        W78246  17.279  44.766   0.332
11838W        W78247   8.682   4.245   0.041
11839W        W78248  18.001  11.291   2.393
11840W        W78249  12.624  20.648  11.074
11841W        W78250  16.090   5.253   4.276
11842W        W78251  32.587  36.578   0.363
11843W        W78252  29.961  36.452  14.524
11844W        W78253   9.744   0.355  13.589
11845W        W78254  20.180  24.165   1.964
11846W        W78255   5.950  16.850  11.045
11847W        W78256  19.124  38.030   1.277
11848W        W78257  24.917  10.746  11.892
11849W        W78258  43.380  44.440   0.376
11850W        W78259  36.578  13.286   0.952
11851W        W78260  24.197   9.324  13.944
11852W        W78261   3.701  11.461   4.675
11853W        W78262  10.398  24.788  11.945
11854W        W78263   9.898   2.859  14.839
11855W        W78264   9.746  30.189   0.856
11856W        W78265   2.274  36.449  11.622
11857W        W78266  42.157  36.896   2.855
11858W        W78267  23.708  39.492   1.051
11859W        W78268  33.473  21.124  11.533
11860W        W78269  17.053  30.006  14.364
11861W        W78270  24.158  36.590  13.971
11862W        W78271  42.485  39.833   0.881
11863W        W78272  39.581  11.330  11.990
11864W        W78273  25.452  20.498   5.149
11865W        W78274  32.674  11.085   0.920
11866W        W78275  18.632  28.531   3.638
11867W        W78276  29.953   9.931   2.272
11868W        W78277  38.395   2.247  11.935
11869W        W78278  20.635   1.124  11.775
11870W        W78279   5.718  19.373   0.229
11871W        W78280  32.512   8.902  13.367
11872W        W78281  32.632  13.727   3.615
11873W        W78282  17.189  34.004  13.921
11874W        W78283  23.140  26.219  14.680
11875W        W78284  43.747  16.624  11.651
11876W        W78285  21.805  15.333   4.166
11877W        W78286  21.627  39.632   1.340
11878W        W78287  42.307  34.731   0.978
11879W        W78288  16.111   9.116   3.195
11880W        W78289  43.382  13.480   2.713
11881W        W78290  10.295  42.780  13.992
11882W        W78291   4.719  19.663  12.572
11883W        W78292  11.853  43.535  11.495
11884W        W78293  17.006  24.720  10.855
11885W        W78294   2.000  22.936   0.391
11886W        W78295  25.623  39.451   0.364
11887W        W78296  43.589  15.198  13.827
11888W        W78297  31.704  28.935   2.340
11889W        W78298  14.915  40.057   4.573
11890W        W78299  27.089   2.349   3.522
11891W        W78300   3.722  20.876   3.162
11892W        W78301  10.474  12.626  14.821
11893W        W78302  19.442  16.114   2.248
11894W        W78303  41.131  18.407   3.770
11895W        W78304  14.370  10.848   3.268
11896W        W78305  10.657  37.244   0.539
11897W        W78306  35.978  20.573   5.029
11898W        W78307  38.135  17.980  14.789
11899W        W78308  30.381   8.571  10.085
11900W        W78309  33.569  25.300  11.957
11901W        W78310  33.394  21.838   1.058
11902W        W78311  14.769   1.265  14.681
11903W        W78312  32.503  24.649   3.232
11904W        W78313  42.999  26.236   3.105
11905W        W78314   1.246  12.949   1.798
11906W        W78315  23.010   5.182  10.959
11907W        W78316  37.085  19.239  14.928
11908W        W78317  13.095  40.989  14.910
11909W        W78318   8.360   3.141   4.605
11910W        W78319  23.646   1.847  13.810
11911W        W78320  37.316  30.019  11.266
11912W        W78321  25.989   6.309   0.472
11913W        W78322   9.313   1.869   2.825
11914W        W78323  31.864   1.262  12.066
11915W        W78324   6.714  43.740  13.833
11916W        W78325  21.571   4.443  12.615
11917W        W78326  39.859  35.247   3.832
11918W        W78327  34.074  31.722  12.993
11919W        W78328  38.144  14.731  13.947
11920W        W78329  28.043  32.564  12.419
11921W        W78330  44.964  35.163   0.816
11922W        W78331   7.830  19.281   4.613
11923W        W78332  40.986  13.404   0.733
11924W        W78333   2.075  14.963  13.890
11925W        W78334  38.669   4.292  13.560
11926W        W78335  34.807  10.842  13.424
11927W        W78336  27.510   2.622  10.643
11928W        W78337  26.869  39.095  10.627
11929W        W78338  12.167  28.233  11.304
11930W        W78339  27.613  31.434   3.059
11931W        W78340   7.060   9.880   0.201
11932W        W78341   7.135  18.136   1.615
11933W        W78342  39.979  36.099  13.031
11934W        W78343  24.336  41.893   0.704
11935W        W78344  30.046  15.089   3.886
11936W        W78345  21.607   7.865   3.712
11937W        W78346  41.614  44.837  14.858
11938W        W78347   9.182  30.026  12.571
11939W        W78348  34.010  12.807   0.473
11940W        W78349  11.319  18.461   1.169
11941W        W78350  26.313  32.128   2.683
11942W        W78351  18.921  26.422  14.875
11943W        W78352   2.721  43.994   2.163
11944W        W78353  17.610  27.263   2.220
11945W        W78354   7.916  10.096  14.865
11946W        W78355  43.256  39.711   2.306
11947W        W78356   2.533  12.640   2.422
11948W        W78357  19.023  14.012  14.131
11949W        W78358  39.455   3.959   4.384
11950W        W78359  25.953  43.944   0.808
11951W        W78360  35.583   0.549  12.847
11952W        W78361  27.086  19.106  11.131
11953W        W78362   1.534  23.104  13.746
11954W        W78363  16.786  19.144   0.832
11955W        W78364  40.386  42.250  12.493
11956W        W78365   4.721  22.711   3.196
11957W        W78366   5.264  18.698  14.232
11958W        W78367  24.081   4.735   2.703
11959W        W78368  34.052  44.886   0.313
11960W        W78369  37.984  25.969  12.446
11961W        W78370  17.531  27.210   1.721
11962W        W78371  28.031  33.645   1.829
11963W        W78372   3.977   3.899   1.782
11964W        W78373  36.461  37.331  10.977
11965W        W78374  17.142  41.298  11.047
11966W        W78375   7.755  22.388  14.129
11967W        W78376  25.180  38.752  11.906
11968W        W78377  38.647  19.115   0.372
11969W        W78378  27.695   2.879  12.374
11970W        W78379  34.061  17.296  13.396
11971W        W78380  27.610  21.281   0.829
11972W        W78381  34.196  22.694   0.358
11973W        W78382  14.368   7.176   0.214
11974W        W78383  21.948  31.570   2.822
11975W        W78384   3.372  41.626  13.052
11976W        W78385  39.047  28.607   2.766
11977W        W78386  11.076  11.658   2.704
11978W        W78387  36.543  14.021   2.387
11979W        W78388   2.478   0.916  12.135
11980W        W78389  22.724   4.765  12.094
11981W        W78390  38.140   5.172   2.832
11982W        W78391  13.104  19.799   3.221
11983W        W78392  37.146  18.406   0.987
11984W        W78393  26.139   3.726   0.646
11985W        W78394  39.316  43.370   0.483
11986W        W78395  27.184  26.181  10.473
11987W        W78396  37.874  40.307  10.222
11988W        W78397   5.247   0.031  10.629
11989W        W78398  20.006   3.901  13.130
11990W        W78399  20.096  28.488  12.907
11991W        W78400  43.903  23.599   3.248
11992W        W78401  38.356   5.597  14.170
11993W        W78402  41.500  10.942   1.109
11994W        W78403  25.443  12.746   1.623
11995W        W78404  14.906  37.903  12.868
11996W        W78405  17.112  11.803  10.920
11997W        W78406   6.019  37.899  12.600
11998W        W78407  23.452  33.299   3.264
11999W        W78408  33.614   6.327   3.449
12000W        W78409  36.851   5.358   2.406
12001W        W78410  37.286  15.224   3.144
12002W        W78411  25.700  12.493   0.341
12003W        W78412   6.171  31.912  11.623
12004W        W78413  23.222  33.843  12.201
12005W        W78414  17.270  32.178  10.992
12006W        W78415  22.181  23.651  14.532
12007W        W78416  10.348  32.452  13.508
12008W        W78417  12.809  33.171  14.793
12009W        W78418  40.345  10.951   2.638
12010W        W78419  27.680  44.248  13.121
12011W        W78420  15.078   8.448  12.475
12012W        W78421   8.224  15.315   3.744
12013W        W78422  29.643  18.630   0.502
12014W        W78423   0.732  34.916  11.302
12015W        W78424  32.576   4.490  13.478
12016W        W78425   1.912  37.062   2.155
12017W        W78426  17.861  21.635   3.928
12018W        W78427  25.499  41.708   0.680
12019W        W78428   0.956  40.971  12.552
12020W        W78429  31.646  44.723   3.635
12021W        W78430  24.610   8.871   4.705
12022W        W78431  27.552  16.359  14.463
12023W        W78432  22.731  38.812   5.277
12024W        W78433  11.755  22.637  13.308
12025W        W78434   6.814  21.090   4.331
12026W        W78435   1.769   4.933  12.177
12027W        W78436  33.762   5.975  14.382
12028W        W78437   0.035   4.726  12.641
12029W        W78438  18.101  27.285  14.527
12030W        W78439  27.893  35.793   2.371
12031W        W78440  38.757  31.303   3.150
12032W        W78441  11.040   6.766  13.937
12033W        W78442  14.772   6.817  13.977
12034W        W78443   5.963  31.245  11.029
12035W        W78444   3.961  31.405  13.781
12036W        W78445  21.485  13.318   3.119
12037W        W78446  23.295  42.033   4.216
12038W        W78447   2.569  10.742  12.835
12039W        W78448  25.865  20.082   3.223
12040W        W78449  12.592   6.982  11.569
12041W        W78450  31.945   4.722   2.283
12042W        W78451  16.586  44.482   4.895
12043W        W78452   7.927  22.541   1.843
12044W        W78453  39.247  15.599  12.519
12045W        W78454   8.277  11.872  14.414
12046W        W78455  12.709   3.210  13.085
12047W        W78456  43.653  21.416   1.371
12048W        W78457  30.557  10.353   1.762
12049W        W78458  44.529  32.342   1.408
12050W        W78459  23.246  16.618   2.141
12051W        W78460  41.589  28.885  10.533
12052W        W78461  31.090  43.233  12.120
12053W        W78462  16.149  22.782  14.453
12054W        W78463   9.355   6.354   4.582
12055W        W78464  10.018  29.557  11.454
12056W        W78465  28.690  32.471   2.360
12057W        W78466  20.702  39.434  11.615
12058W        W78467  38.867  36.549   3.714
12059W        W78468  32.150  39.454  12.047
12060W        W78469  27.133  31.513   0.886
12061W        W78470  42.465  43.194   3.228
12062W        W78471  39.491  21.956   2.940
12063W        W78472   7.285   2.382  14.882
12064W        W78473  23.003   3.933   3.706
12065W        W78474  40.091  14.295   2.803
12066W        W78475  39.556  37.982   3.634
12067W        W78476  43.423  19.829   5.041
12068W        W78477  27.639   9.756   1.480
12069W        W78478  42.449  12.275   4.504
12070W        W78479  32.982  35.067   3.432
12071W        W78480  38.696  11.824  14.015
12072W        W78481  25.180  16.111  10.801
12073W        W78482   7.852  37.972  13.944
12074W        W78483  10.629   9.590   4.625
12075W        W78484  11.000  10.137   0.437
12076W        W78485  26.944  21.173  13.671
12077W        W78486  37.152  34.738   0.702
12078W        W78487   8.388  28.111   3.598
12079W        W78488  41.756   3.924   1.342
12080W        W78489  15.115  26.911   1.460
12081W        W78490  43.776  27.296  11.602
12082W        W78491  34.259   7.430  14.997
12083W        W78492   4.902   8.759   5.017
12084W        W78493  28.849  39.803  11.992
12085W        W78494  44.796   8.358  14.927
12086W        W78495  36.568  21.053  10.958
12087W        W78496  16.758  14.229   3.738
12088W        W78497   2.322  10.339   1.447
12089W        W78498  33.548  13.862   4.513
12090W        W78499   0.300   1.143   2.886
12091W        W78500  19.622  41.837  13.939
12092W        W78501   2.270  38.872  14.351
12093W        W78502  33.601  37.359   2.806
12094W        W78503  15.039  31.205   1.903
12095W        W78504   8.869  37.758   1.151
12096W        W78505  39.529  11.879   0.779
12097W        W78506  18.726  37.067   3.688
12098W        W78507   6.164  19.227   1.363
12099W        W78508  42.204  25.547  12.650
12100W        W78509  39.548  38.552  14.961
12101W        W78510  18.180  25.113   3.663
12102W        W78511  17.567  44.494   2.487
12103W        W78512  35.025   4.003  12.358
12104W        W78513  12.406   4.263   2.243
12105W        W78514  18.097  44.892   3.160
12106W        W78515  24.216   0.776  14.982
12107W        W78516  43.621  35.100   0.407
12108W        W78517  31.968  37.503  14.741
12109W        W78518  23.521  23.293  13.654
12110W        W78519  24.560  18.724   1.696
12111W        W78520  12.777  31.370   3.044
12112W        W78521  31.826  33.392   4.151
12113W        W78522  36.915  44.413  12.045
12114W        W78523  15.768   7.179   3.728
12115W        W78524  19.523  22.995  11.515
12116W        W78525  22.591  21.562   4.627
12117W        W78526  42.308  38.608  12.490
12118W        W78527  38.841  22.941   4.310
12119W        W78528  26.027   4.230  10.708
12120W        W78529   2.069  40.875   2.277
12121W        W78530   6.858  24.653   2.311
12122W        W78531  18.786  22.169   3.210
12123W        W78532  29.784  41.618  12.005
12124W        W78533  13.588  42.846  10.513
12125W        W78534  39.756   6.797  13.300
12126W        W78535  36.446  16.077  10.421
12127W        W78536  19.695  27.978   1.408
12128W        W78537  25.760  16.116   0.461
12129W        W78538   2.271  12.391  12.980
12130W        W78539  20.156  24.116   5.083
12131W        W78540  25.201  43.870   1.650
12132W        W78541  26.014   1.388  14.914
12133W        W78542   6.991  29.918  11.063
12134W        W78543  34.912  28.397  13.378
12135W        W78544  39.119  43.502   3.313
12136W        W78545  29.541  31.012   1.658
12137W        W78546  41.831  17.000  11.984
12138W        W78547  33.360  11.880   0.935
12139W        W78548  36.551  37.539   3.168
12140W        W78549  22.779  33.079  11.189
12141W        W78550   6.930   0.861   2.150
12142W        W78551  31.010  28.518   2.173
12143W        W78552   9.629  43.456   3.749
12144W        W78553  27.174  15.668  12.612
12145W        W78554  22.779  44.787  12.834
12146W        W78555  14.418  18.711   5.198
12147W        W78556  38.547  23.144   4.695
12148W        W78557  32.064   5.277   0.287
12149W        W78558  34.135  22.114   1.669
12150W        W78559  26.087   3.190  10.547
12151W        W78560  26.156  27.468   3.048
12152W        W78561  28.546  20.522   4.908
12153W        W78562   9.696   5.802  10.629
12154W        W78563  24.447   0.990  10.583
12155W        W78564  11.507   6.417  12.629
12156W        W78565   2.771  16.786  12.233
12157W        W78566  14.752  26.099   1.802
12158W        W78567   7.260  32.024   3.201
12159W        W78568  34.408  18.556   1.843
12160W        W78569  29.669  26.377  11.532
12161W        W78570  20.235   4.136  14.708
12162W        W78571  21.186   9.557   3.871
12163W        W78572  18.243  34.311  12.552
12164W        W78573   1.808  38.623  14.342
12165W        W78574  21.463   6.896  11.934
12166W        W78575  14.763   0.451  14.735
12167W        W78576  39.929  17.626   3.258
12168W        W78577  19.234  43.247   2.860
12169W        W78578  41.929  41.113  12.004
12170W        W78579  44.101  18.283   4.237
12171W        W78580  36.197  32.116   1.028
12172W        W78581  11.061  15.960  11.522
12173W        W78582  22.480  13.372   3.212
12174W        W78583  22.146  26.888   4.044
12175W        W78584   4.266  44.449   4.629
12176W        W78585   2.941   8.540  14.435
12177W        W78586   0.430  27.317   1.340
12178W        W78587  24.790  10.901   0.768
12179W        W78588  10.380   6.848   0.958
12180W        W78589  40.338  13.833   4.649
12181W        W78590   7.212  31.172  10.669
12182W        W78591   3.272   4.685  11.262
12183W        W78592   5.158  26.003  14.578
12184W        W78593  24.602   0.234   1.941
12185W        W78594  23.528  32.486   3.748
12186W        W78595  19.601  41.349   1.248
12187W        W78596   6.314  24.067   4.325
12188W        W78597  17.657   1.863  14.853
12189W        W78598  39.402   2.933   3.293
12190W        W78599   6.384  31.869   3.775
12191W        W78600   7.658  19.548   3.096
12192W        W78601  23.268   1.115  13.576
12193W        W78602  14.629  10.328   1.158
12194W        W78603  38.989  13.816  12.036
12195W        W78604  35.341  37.418   0.282
12196W        W78605  44.785  14.384   1.464
12197W        W78606   3.346  13.848   0.798
12198W        W78607  33.386  29.419   0.827
12199W        W78608  27.782  27.416   3.794
12200W        W78609  41.387  42.784   0.993
12201W        W78610  22.768  22.926  14.372
12202W        W78611  35.851  44.999   2.329
12203W        W78612   6.198  42.454   0.302
12204W        W78613   3.955  24.443  12.461
12205W        W78614   7.151  40.853   4.195
12206W        W78615  41.857  22.521  11.460
12207W        W78616  38.485   9.297  13.884
12208W        W78617  41.019  40.958  11.611
12209W        W78618  32.986  32.792   0.801
12210W        W78619  17.544  35.451  12.982
12211W        W78620  32.552  24.088  12.571
12212W        W78621  22.567  37.363   4.626
12213W        W78622  13.259  44.077  14.444
12214W        W78623  26.469  31.628  14.147
12215W        W78624  35.369  26.644   1.749
12216W        W78625   2.764  24.633   2.221
12217W        W78626  17.195  23.211  12.349
12218W        W78627  23.938  27.072   0.322
12219W        W78628  17.027  33.586   2.552
12220W        W78629  41.474  41.522  13.098
12221W        W78630  34.356  42.952   1.907
12222W        W78631   3.438  20.695   2.741
12223W        W78632  27.553  41.084   1.682
12224W        W78633  33.077   4.415   0.329
12225W        W78634  20.168  44.022  13.813
12226W        W78635  38.827  44.367  12.135
12227W        W78636  19.629   1.956   1.802
12228W        W78637   9.088  40.594  12.737
12229W        W78638   6.284  19.546  13.019
12230W        W78639  13.118  36.594   0.553
12231W        W78640  23.656  26.156  14.864
12232W        W78641  30.047   7.932   1.862
12233W        W78642  17.596  36.476  14.065
12234W        W78643  40.338  10.376  14.730
12235W        W78644  42.371  26.244  11.138
12236W        W78645  32.623  21.033   3.299
12237W        W78646   4.693  33.774   0.979
12238W        W78647  43.854  10.956  13.424
12239W        W78648  32.272   5.504  10.475
12240W        W78649  24.653  19.788  13.519
12241W        W78650   3.464  25.127   1.669
12242W        W78651  43.676  12.641  14.658
12243W        W78652   0.842  32.998   1.773
12244W        W78653  18.955  26.095   0.738
12245W        W78654  10.290  20.707   4.547
12246W        W78655   9.602  28.966  12.096
12247W        W78656  22.982  13.105  11.094
12248W        W78657  18.700  16.330   2.911
12249W        W78658  20.022  16.183   1.586
12250W        W78659  43.907  11.170   2.811
12251W        W78660  41.895   9.155  13.427
12252W        W78661  23.332  36.508  14.449
12253W        W78662  33.416  15.308  13.280
12254W        W78663  19.295   2.282   4.109
12255W        W78664  34.045  14.526   1.346
12256W        W78665   2.918   2.364   1.655
12257W        W78666  15.308   9.325   0.819
12258W        W78667  28.901  34.174  11.043
12259W        W78668  18.707   0.318   4.835
12260W        W78669  39.369  38.345  12.940
12261W        W78670  12.679  17.539   0.271
12262W        W78671  13.701  23.691   2.670
12263W        W78672  15.576  42.944   0.236
12264W        W78673  15.104  34.481   0.894
12265W        W78674  24.397  18.495  11.135
12266W        W78675   4.851  34.431   0.487
12267W        W78676  38.867   1.775   1.383
12268W        W78677  33.023  14.846   0.827
12269W        W78678  42.104  44.107   1.180
12270W        W78679  34.343  13.865  11.010
12271W        W78680  41.305  16.809  13.384
12272W        W78681  10.352   3.716  11.242
12273W        W78682   8.839  36.458   5.058
12274W        W78683  37.458  15.661  11.016
12275W        W78684  28.246  34.558  12.108
12276W        W78685  34.996   1.829   4.382
12277W        W78686  11.670   0.823  12.957
12278W        W78687   5.376  17.174   2.334
12279W        W78688  30.583  19.544  13.498
12280W        W78689  17.706  21.553  11.621
12281W        W78690  16.890   9.713  10.719
12282W        W78691  41.939  13.753   0.299
12283W        W78692  38.928  20.154   0.058
12284W        W78693  12.904  13.199  12.591
12285W        W78694  24.094  39.570   3.757
12286W        W78695  31.072   6.444   1.799
12287W        W78696  40.295  21.592  14.800
12288W        W78697  17.550   8.264   2.116
12289W        W78698   7.823  17.002  14.465
12290W        W78699  12.707  23.490   1.338
12291W        W78700  36.156  19.352  11.431
12292W        W78701  20.240  24.091  11.920
12293W        W78702  13.380  36.415   0.960
12294W        W78703   7.296  37.164   0.596
12295W        W78704   5.232  37.004   2.756
12296W        W78705  28.158   0.648   2.188
12297W        W78706  32.677  39.474  12.004
12298W        W78707   6.475  20.344  12.082
12299W        W78708  10.645  18.036  11.603
12300W        W78709  11.671   5.918   1.437
12301W        W78710  22.764   5.710   4.057
12302W        W78711  41.230  41.394   3.322
12303W        W78712  42.690  25.915  11.374
12304W        W78713  41.033  22.522   2.812
12305W        W78714  26.666   6.484  10.741
12306W        W78715   9.887  30.905   5.582
12307W        W78716   0.922  15.393  13.847
12308W        W78717  31.844   2.177  12.906
12309W        W78718  15.835  32.591  12.386
12310W        W78719   1.541   8.360  13.865
12311W        W78720  29.269  31.718  12.136
12312W        W78721  42.798  42.301  12.404
12313W        W78722  18.727  27.610  11.567
12314W        W78723  16.321  25.426   0.356
12315W        W78724  21.546  39.290  10.383
12316W        W78725   4.730  29.067   1.791
12317W        W78726  32.377  26.687   2.407
12318W        W78727   3.035  18.784  13.765
12319W        W78728  13.275  15.320   3.066
12320W        W78729  24.648  37.876  12.163
12321W        W78730   0.955  36.527   4.678
12322W        W78731  35.573  39.565   3.927
12323W        W78732   8.384  14.365   0.831
12324W        W78733  16.189  29.698  13.233
12325W        W78734  38.299   7.921   4.185
12326W        W78735  23.716   7.207   2.334
12327W        W78736  41.511   9.597  11.277
12328W        W78737  29.959   7.424  13.302
12329W        W78738  25.059  20.511  10.404
12330W        W78739   3.929  13.687   2.968
12331W        W78740   1.291  44.536   4.141
12332W        W78741   4.362  41.104   1.852
12333W        W78742  10.309  21.442  14.353
12334W        W78743   9.179   3.504  11.563
12335W        W78744  29.439  30.756  13.826
12336W        W78745  21.506  30.412   1.953
12337W        W78746  29.503   1.005  10.669
12338W        W78747  27.545  20.513  13.551
12339W        W78748  26.179  14.356  14.387
12340W        W78749  15.661  10.756  13.371
12341W        W78750  25.016  12.187  11.388
12342W        W78751  16.724  37.277  13.815
12343W        W78752   7.334  36.812   2.795
12344W        W78753  27.932   9.101  12.896
12345W        W78754  11.796  40.794   4.162
12346W        W78755  14.252  19.098  14.523
12347W        W78756   4.094  42.268  10.998
12348W        W78757  10.567  24.758  13.963
12349W        W78758  43.988  34.740  14.429
12350W        W78759  34.536  32.477  10.663
12351W        W78760  38.996  27.923   4.583
12352W        W78761  26.003  18.665   3.616
12353W        W78762  11.663  40.170   2.819
12354W        W78763   0.311  25.946   1.156
12355W        W78764  33.857  13.091   9.999
12356W        W78765  26.478  33.060  10.628
12357W        W78766   6.282  19.822   3.732
12358W        W78767  40.996  24.753  10.700
12359W        W78768  37.140  13.159   1.346
12360W        W78769  23.762  44.853  14.002
12361W        W78770  44.477  13.336  11.039
12362W        W78771   2.742  25.433  12.935
12363W        W78772  36.979  26.686   0.550
12364W        W78773   7.640  39.392   1.237
12365W        W78774  26.411  25.070  11.358
12366W        W78775   5.783   9.742  11.503
12367W        W78776  42.107  18.805   5.386
12368W        W78777  36.356  40.781  13.901
12369W        W78778   6.741  22.075   4.639
12370W        W78779  18.325  23.736  11.670
12371W        W78780  16.847  38.963  13.700
12372W        W78781  16.650  21.646   3.540
12373W        W78782  40.087  44.459   2.504
12374W        W78783  33.063  26.264  10.607
12375W        W78784  17.179  25.924  11.317
12376W        W78785  15.264  20.015  11.105
12377W        W78786  26.794  43.612  12.190
12378W        W78787  37.082  12.341  13.154
12379W        W78788  36.503  17.724   2.251
12380W        W78789  29.535  38.451   0.973
12381W        W78790  40.947   2.180   3.260
12382W        W78791  19.988  11.155   2.787
12383W        W78792  27.486  11.146   1.425
12384W        W78793  19.510  21.989   4.589
12385W        W78794  29.705   8.182   3.748
12386W        W78795  14.144   3.343   0.919
12387W        W78796  31.646  24.598  13.275
12388W        W78797  16.137   0.008   1.926
12389W        W78798  44.802   9.144   0.508
12390W        W78799  31.740  23.513  12.365
12391W        W78800   3.755  39.321  11.562
12392W        W78801  24.665   8.149   0.992
12393W        W78802  17.974   5.348   2.880
12394W        W78803  22.873   8.865   1.043
12395W        W78804  35.486  18.777   4.791
12396W        W78805  13.293  13.042   2.301
12397W        W78806  43.899   2.968   1.857
12398W        W78807  40.533  10.806  12.552
12399W        W78808  31.109   8.951   1.273
12400W        W78809  35.815  21.203   4.127
12401W        W78810  20.413  10.810   1.426
12402W        W78811  33.604   0.804   0.710
12403W        W78812  10.792  40.534   3.123
12404W        W78813  39.569  41.129   0.328
12405W        W78814  39.360   7.407   1.523
12406W        W78815   1.938  41.658   3.713
12407W        W78816   4.960  21.937   1.416
12408W        W78817  13.581  27.497  13.528
12409W        W78818   1.911  41.884  14.487
12410W        W78819  21.368  30.702   4.403
12411W        W78820  13.711  21.105  14.335
12412W        W78821  37.083   8.863   2.224
12413W        W78822  10.606  41.866  13.124
12414W        W78823  30.240  29.836   0.676
12415W        W78824   5.619  39.102   3.723
12416W        W78825   9.973   5.886  12.973
12417W        W78826   6.022  24.097  13.303
12418W        W78827  42.467   8.874  14.368
12419W        W78828  18.321  16.204   3.552
12420W        W78829  10.684   2.339   4.067
12421W        W78830  24.718  10.329  14.517
12422W        W78831   3.181  42.238   1.589
12423W        W78832  28.180  39.794   1.796
12424W        W78833  28.859  38.417  10.440
12425W        W78834   9.675   3.035   1.823
12426W        W78835  39.984   7.365  11.113
12427W        W78836   4.004  37.644  11.080
12428W        W78837  25.262  28.677  11.643
12429W        W78838   3.709  18.508  11.165
12430W        W78839  25.427  23.322  12.995
12431W        W78840  35.595   0.949   0.352
12432W        W78841  44.818  14.625   0.818
12433W        W78842   6.245  27.565   3.301
12434W        W78843   8.913  41.432   1.208
12435W        W78844  21.504   6.607   1.320
12436W        W78845  29.501   6.338  12.980
12437W        W78846  29.874   8.837   3.234
12438W        W78847   5.588   2.293   1.342
12439W        W78848  38.410   1.860  13.083
12440W        W78849   5.880   4.150   1.788
12441W        W78850  33.491  33.896  12.513
12442W        W78851  30.061   7.634   3.375
12443W        W78852   1.345   7.112  12.512
12444W        W78853  16.192   0.635   3.686
12445W        W78854  24.343  42.824   4.071
12446W        W78855  44.576  18.223   1.821
12447W        W78856   2.492  38.397  11.969
12448W        W78857  11.180  26.614  11.903
12449W        W78858  32.368  20.389   2.280
12450W        W78859  13.677  41.874   1.503
12451W        W78860  43.258  24.846   0.067
12452W        W78861  41.027  36.230   0.195
12453W        W78862   9.790   0.264   4.153
12454W        W78863  28.420  16.190   1.170
12455W        W78864  15.304  20.570   3.254
12456W        W78865  42.213   0.382  14.734
12457W        W78866  13.787  22.868   4.540
12458W        W78867  24.646  29.499  12.217
12459W        W78868  36.645  29.155  10.487
12460W        W78869  41.359  21.783  10.640
12461W        W78870  20.560  15.877  14.910
12462W        W78871  17.801   3.489  11.604
12463W        W78872   4.660   0.944   4.124
12464W        W78873  41.461   4.346  12.017
12465W        W78874  27.949  23.606   4.284
12466W        W78875  33.549  19.283  12.940
12467W        W78876  12.710  16.731   3.333
12468W        W78877  43.687  23.715   3.699
12469W        W78878  15.280  22.327  12.001
12470W        W78879  44.745  32.587  11.183
12471W        W78880  19.893   6.370   3.408
12472W        W78881  32.283  16.641   4.619
12473W        W78882  29.209  13.284  12.131
12474W        W78883  32.951  13.970  11.198
12475W        W78884  27.274  23.008   3.199
12476W        W78885   6.129  26.144  11.202
12477W        W78886  26.275  36.758   3.071
12478W        W78887   7.321  11.445   3.665
12479W        W78888  28.570  28.404  14.205
12480W        W78889  39.171  25.907   0.670
12481W        W78890  27.164  25.583   2.695
12482W        W78891   7.775   9.411  11.960
12483W        W78892  38.313  42.247   3.268
12484W        W78893  21.602  30.860  14.146
12485W        W78894  31.755  38.095   3.844
12486W        W78895   6.774   2.273   1.642
12487W        W78896  18.724   3.300  10.680
12488W        W78897   7.318  27.042   0.680
12489W        W78898  41.524  22.323   4.543
12490W        W78899   9.202  11.338  12.857
12491W        W78900   6.722  43.942   4.450
12492W        W78901  23.308  21.740   0.936
12493W        W78902   0.578  22.073  11.289
12494W        W78903  33.929  25.571  13.899
12495W        W78904  43.765   7.384  10.275
12496W        W78905  32.735  44.596   2.854
12497W        W78906  29.914  14.230   0.729
12498W        W78907   9.260  36.744  10.922
12499W        W78908  39.092  20.568  14.800
12500W        W78909  27.134  16.798   2.183
12501W        W78910  42.730  13.136  13.413
12502W        W78911  15.319  15.603   4.616
12503W        W78912  31.168  40.419  12.143
12504W        W78913  44.336   5.240  11.961
12505W        W78914  23.315   9.878   0.468
12506W        W78915  23.029  16.677   0.835
12507W        W78916  12.607  14.595   2.118
12508W        W78917  11.600  26.040   3.648
12509W        W78918  39.033  28.507  10.915
12510W        W78919  16.362  26.241   2.567
12511W        W78920  13.474  10.232  13.471
12512W        W78921  16.375  13.619  12.935
12513W        W78922   0.398  20.208   2.802
12514W        W78923   2.153  27.137  10.752
12515W        W78924  29.457  40.127  10.777
12516W        W78925  20.158  39.530   2.721
12517W        W78926  29.346  19.236   1.444
12518W        W78927  15.019  34.103  10.732
12519W        W78928  22.998  29.076   1.343
12520W        W78929  26.179  23.511  14.241
12521W        W78930  23.956  11.871   3.127
12522W        W78931  27.430  43.098  12.377
12523W        W78932  41.476   7.972   1.523
12524W        W78933   1.937  21.533  12.002
12525W        W78934  14.593  26.346  11.084
12526W        W78935   0.644  19.621   4.166
12527W        W78936  25.629   3.175  11.621
12528W        W78937   5.436  24.062  12.456
12529W        W78938  36.498  17.673   1.745
12530W        W78939   2.807   2.690  14.361
12531W        W78940   5.257  28.932   2.643
12532W        W78941  43.815  20.175  12.164
12533W        W78942   7.867   8.856   2.689
12534W        W78943  33.968  18.872  12.533
12535W        W78944  36.863  19.250  12.569
12536W        W78945   6.524   0.820   4.581
12537W        W78946  18.154  16.046   1.247
12538W        W78947  14.422  17.974   4.500
12539W        W78948  43.244   5.478   2.634
12540W        W78949  20.975   0.997   1.607
12541W        W78950   0.514   8.391  13.328
12542W        W78951   4.903  43.412  11.986
12543W        W78952  18.502   3.908   3.736
12544W        W78953  24.087  41.066  10.600
12545W        W78954  37.926  43.540   4.409
12546W        W78955   6.816  25.652  11.703
12547W        W78956   9.625  20.165   4.828
12548W        W78957   3.706  37.396   0.863
12549W        W78958  19.649  11.165   0.478
12550W        W78959  26.004   5.115  14.393
12551W        W78960   7.886   6.708  11.353
12552W        W78961  41.128   9.687   2.848
12553W        W78962  24.307  42.928  10.659
12554W        W78963  15.690   1.753  11.155
12555W        W78964   1.810  30.917   3.791
12556W        W78965  37.864   8.844  13.615
12557W        W78966  40.291   9.813  13.001
12558W        W78967  27.655  38.906   4.935
12559W        W78968  24.705  30.904  13.331
12560W        W78969  15.258  28.960   4.609
12561W        W78970  37.464   0.346   3.342
12562W        W78971   4.226   9.209   4.562
12563W        W78972  31.526  16.850  14.006
12564W        W78973  41.776   4.793   5.030
12565W        W78974  35.987  21.784   4.555
12566W        W78975  18.583  33.288   3.826
12567W        W78976  29.105  39.699  13.301
12568W        W78977  38.001  24.087   0.228
12569W        W78978  43.569  16.034   1.351
12570W        W78979  30.104  19.681  14.478
12571W        W78980   4.444  11.855  11.780
12572W        W78981  12.179   3.868   3.861
12573W        W78982  15.572  14.747   1.780
12574W        W78983   4.954  34.508   2.255
12575W        W78984  17.797  24.972  13.396
12576W        W78985   6.256  14.241  12.553
12577W        W78986  42.579   3.464  13.513
12578W        W78987  30.615  24.778   2.814
12579W        W78988  18.059   1.490  11.451
12580W        W78989  44.549  39.402  14.014
12581W        W78990  36.083  31.114  11.143
12582W        W78991  26.926   7.672   0.333
12583W        W78992  25.459  27.697   2.943
12584W        W78993  27.441  11.286   4.199
12585W        W78994  41.455  37.817   4.609
12586W        W78995  34.709  44.738  11.810
12587W        W78996  18.593   5.638  12.579
12588W        W78997  25.160  12.314   1.732
12589W        W78998  34.846   4.599   3.214
12590W        W78999   7.383  29.015   0.981
12591W        W79000  26.635  21.510   5.138
12592W        W79001  38.462  15.940   9.761
12593W        W79002  30.881  29.389   4.132
12594W        W79003  12.786   6.124   2.385
12595W        W79004  37.463  26.337   2.082
12596W        W79005  39.362  16.688  11.265
12597W        W79006  17.341  21.198   3.125
12598W        W79007  13.921   6.856  14.466
12599W        W79008  21.219  37.639   2.756
12600W        W79009  27.086  19.939   0.870
12601W        W79010  35.928   9.200   2.572
12602W        W79011   7.393  35.539  13.092
12603W        W79012   4.565  36.977   3.605
12604W        W79013  34.558   4.264  14.454
12605W        W79014   4.950  38.111  11.984
12606W        W79015  27.182   0.519   1.693
12607W        W79016  28.186  40.978  11.625
12608W        W79017   6.675  34.687   1.343
12609W        W79018  19.341  31.645   1.994
12610W        W79019   7.746   3.687  11.100
12611W        W79020  40.262  34.996   0.304
12612W        W79021  10.809  28.010   4.618
12613W        W79022  26.652   2.354   1.650
12614W        W79023  42.365  38.140   4.287
12615W        W79024  31.402  21.302   2.769
12616W        W79025   7.283  19.699  10.607
12617W        W79026   9.929  11.347   0.020
12618W        W79027  12.165   6.944   3.294
12619W        W79028   4.232   9.748  10.594
12620W        W79029   6.698  10.889  14.791
12621W        W79030  14.648  35.468  14.439
12622W        W79031  11.765  20.093  11.898
12623W        W79032  29.971   3.874  10.564
12624W        W79033   0.372  40.400  12.972
12625W        W79034   8.725  36.414  11.194
12626W        W79035  40.499  40.294  14.832
12627W        W79036  38.455  33.096  11.133
12628W        W79037   2.283  31.515   1.673
12629W        W79038   3.418   6.726   0.947
12630W        W79039  42.388   5.971  14.329
12631W        W79040  31.046  34.885  14.719
12632W        W79041  11.263  41.864  14.764
12633W        W79042  19.525  34.992  14.250
12634W        W79043   1.485  41.434   0.665
12635W        W79044  44.712  39.317  13.546
12636W        W79045  39.069   5.715   3.973
12637W        W79046  23.598  30.124   4.384
12638W        W79047   5.699  16.532   0.302
12639W        W79048   2.802  19.847  14.621
12640W        W79049  14.572  28.436  14.713
12641W        W79050   9.359   5.905   2.835
12642W        W79051  44.232  29.155   2.644
12643W        W79052  42.917  44.403   3.203
12644W        W79053  26.616  40.066   3.368
12645W        W79054  27.934  23.503  14.852
12646W        W79055  17.566  22.591   1.402
12647W        W79056  35.847  15.116   3.139
12648W        W79057  27.650   2.018  13.936
12649W        W79058  25.596  33.396   2.801
12650W        W79059   9.607  17.715   2.373
12651W        W79060   2.373  14.569   0.425
12652W        W79061  27.772   1.844  12.451
12653W        W79062  33.640   0.350   3.241
12654W        W79063   2.976  26.245  12.612
12655W        W79064  38.550  39.925   2.330
12656W        W79065   4.695  39.039   3.767
12657W        W79066  20.082  13.412   1.548
12658W        W79067   6.489   5.187   1.158
12659W        W79068  35.069  14.287  10.993
12660W        W79069  17.043  20.275  14.517
12661W        W79070  26.747  19.785  12.085
12662W        W79071  12.622  31.869   4.247
12663W        W79072  44.843  44.496  11.516
12664W        W79073  15.181  29.238  13.844
12665W        W79074  21.101  13.482   4.327
12666W        W79075  42.602  30.040   2.144
12667W        W79076  16.477  43.726   1.382
12668W        W79077  43.252  24.979   2.385
12669W        W79078  21.199  17.156  11.656
12670W        W79079  28.526  35.988  11.388
12671W        W79080  28.883  44.709  12.957
12672W        W79081  30.715  18.476  11.913
12673W        W79082   0.686  36.954   4.503
12674W        W79083   1.432   1.445  11.651
12675W        W79084   2.864  11.568  14.878
12676W        W79085  18.413  37.024  10.775
12677W        W79086   2.864  37.065   2.686
12678W        W79087  19.190  43.034  14.960
12679W        W79088   2.825   0.945  13.049
12680W        W79089  40.441   1.373   2.160
12681W        W79090  42.031   0.145  12.898
12682W        W79091  28.357  36.442   0.388
12683W        W79092   7.210   6.258   3.526
12684W        W79093  35.030   2.390  11.691
12685W        W79094  33.177  42.400  10.557
12686W        W79095  20.557  21.133  11.555
12687W        W79096  34.219  32.237  12.436
12688W        W79097  39.760  12.803   0.496
12689W        W79098  15.972   7.210  14.831
12690W        W79099  21.501  15.985   1.741
12691W        W79100  38.029  35.509  14.782
12692W        W79101   6.217   0.218   2.211
12693W        W79102  12.758  42.402  13.846
12694W        W79103  27.580  25.502  13.995
12695W        W79104  42.943   9.856  13.448
12696W        W79105  41.249  17.724   3.274
12697W        W79106  12.370  35.023  11.913
12698W        W79107  39.542  24.236   1.726
12699W        W79108  21.775  36.894   4.734
12700W        W79109  27.055  23.923  11.662
12701W        W79110  12.181  25.658   3.772
12702W        W79111  35.052  23.150   0.809
12703W        W79112  22.484   2.215   0.074
12704W        W79113  17.499  18.090   4.965
12705W        W79114  10.421  11.625  12.887
12706W        W79115   2.372  43.246   0.153
12707W        W79116  44.535  16.708  12.037
12708W        W79117  40.937  27.674  11.657
12709W        W79118  35.043   2.909   2.751
12710W        W79119  13.665   7.163   0.883
12711W        W79120  16.712  15.607   0.323
12712W        W79121  42.369  26.533  14.034
12713W        W79122  39.123  22.661  13.545
12714W        W79123  27.013  27.462   2.818
12715W        W79124  13.295   9.183  11.587
12716W        W79125  14.700  33.377  14.890
12717W        W79126  35.310  25.220  13.501
12718W        W79127  43.982  44.849   0.083
12719W        W79128  14.311  30.202   1.234
12720W        W79129   2.317  27.212  13.010
12721W        W79130  16.645   5.798   3.129
12722W        W79131   4.396  22.195  12.059
12723W        W79132  30.126  25.022   2.776
12724W        W79133  33.855  40.064   1.865
12725W        W79134   6.758  32.911   2.047
12726W        W79135  36.483  22.427   2.291
12727W        W79136  41.236   3.868   2.838
12728W        W79137  34.790  21.618  12.909
12729W        W79138  44.187  28.057   3.604
12730W        W79139  34.940  40.839  10.918
12731W        W79140  27.085  13.205  11.042
12732W        W79141   0.288  21.653  11.159
12733W        W79142  17.402  42.470  13.469
12734W        W79143   9.625  13.173   3.652
12735W        W79144   0.734  14.203  12.871
12736W        W79145  27.654  18.150  14.825
12737W        W79146  27.400  11.324   5.129
12738W        W79147  15.919  40.253   4.271
12739W        W79148   0.059   5.814   2.865
12740W        W79149  38.817  34.217   2.200
12741W        W79150   0.174  16.188   2.406
12742W        W79151   4.381  29.739   2.073
12743W        W79152  22.688  27.056  10.493
12744W        W79153  37.819  22.945   3.426
12745W        W79154   8.097   2.012  14.027
12746W        W79155  28.534   5.966  11.418
12747W        W79156   0.860  20.041   4.413
12748W        W79157  17.543  16.769  11.537
12749W        W79158  25.206  24.538   9.856
12750W        W79159   0.982  23.662  13.559
12751W        W79160  26.554   6.425   1.385
12752W        W79161  30.588  18.049  13.491
12753W        W79162  29.561  12.323   2.861
12754W        W79163  12.720  30.377   1.704
12755W        W79164  22.873   7.368   1.669
12756W        W79165  19.071  10.301  11.486
12757W        W79166  27.473   8.920   1.407
12758W        W79167  19.125  38.543   4.534
12759W        W79168  34.282  25.639   2.525
12760W        W79169  36.081   5.319   0.016
12761W        W79170  14.044  28.104   3.530
12762W        W79171   6.698   6.303   0.272
12763W        W79172   4.417  26.853  11.042
12764W        W79173   2.491  23.214   4.406
12765W        W79174  33.926  31.112   4.306
12766W        W79175  30.027  34.572  10.746
12767W        W79176  43.359  29.105   3.712
12768W        W79177  12.282  40.577   3.228
12769W        W79178  42.011  20.988  11.058
12770W        W79179  10.483  23.990   9.899
12771W        W79180  22.801  37.629  12.579
12772W        W79181   9.483  20.112  11.508
12773W        W79182   2.972  40.981   4.755
12774W        W79183   6.790  15.633   4.585
12775W        W79184  18.172  10.081   1.224
12776W        W79185  44.173  35.505   4.669
12777W        W79186  21.065  31.148  13.635
12778W        W79187   4.456   9.608   4.823
12779W        W79188  43.416  15.042   1.051
12780W        W79189  32.404  26.672  12.968
12781W        W79190  41.852  23.076  14.489
12782W        W79191  14.930  10.252   2.836
12783W        W79192  39.542  28.925   3.200
12784W        W79193  13.201  41.090   9.985
12785W        W79194  36.733  33.561   2.743
12786W        W79195   9.287  34.495   0.476
12787W        W79196  44.966  12.301   3.524
12788W        W79197  27.524  44.003   0.268
12789W        W79198  44.955  10.647   2.671
12790W        W79199  23.539  10.764   4.506
12791W        W79200  32.556  25.177   3.938
12792W        W79201   1.786   0.520  11.023
12793W        W79202  14.571  19.381  12.932
12794W        W79203  21.758  29.110  10.929
12795W        W79204   9.978  19.076  11.135
12796W        W79205  14.026  30.233   2.605
12797W        W79206  11.720  11.622  14.954
12798W        W79207  25.692  43.289   3.523
12799W        W79208  11.875   1.485   3.576
12800W        W79209  18.132  42.484   0.234
12801W        W79210  31.159  25.671  13.418
12802W        W79211  35.951   8.182   2.245
12803W        W79212  23.846  12.578   0.430
12804W        W79213  41.113   8.818   3.645
12805W        W79214  43.802  11.918   1.856
12806W        W79215   2.320   1.931  11.459
12807W        W79216  33.623  40.055   3.626
12808W        W79217  26.498  33.161   1.705
12809W        W79218  18.098  26.940  11.476
12810W        W79219  16.842  23.549   3.712
12811W        W79220   1.303  44.422  11.657
12812W        W79221  28.638  38.848   1.787
12813W        W79222  28.561  18.901  11.498
12814W        W79223  17.291  21.837  14.015
12815W        W79224  34.091  30.530  12.072
12816W        W79225   8.650  13.161   4.973
12817W        W79226  15.371  25.698  12.933
12818W        W79227  33.878  39.662  10.991
12819W        W79228   0.651  26.229   0.715
12820W        W79229  40.283   3.185   2.954
12821W        W79230  21.405  32.986  13.878
12822W        W79231  35.942   0.039   0.491
12823W        W79232   7.112  22.710   0.686
12824W        W79233   8.727  29.290   0.794
12825W        W79234  24.420  21.072   9.718
12826W        W79235   9.651   8.112   1.852
12827W        W79236  43.442  34.956  11.247
12828W        W79237   3.728  32.504  10.639
12829W        W79238   2.477   3.715  14.556
12830W        W79239  35.157  43.053  11.192
12831W        W79240  14.359  37.764   0.376
12832W        W79241   7.757  13.552   4.091
12833W        W79242   7.168   3.428   0.273
12834W        W79243  15.740   8.397   3.451
12835W        W79244   2.829  35.135   3.526
12836W        W79245   1.784  37.458   0.898
12837W        W79246   2.513  18.479  13.095
12838W        W79247  11.108  40.804   0.619
12839W        W79248   3.226  26.893   1.092
12840W        W79249  30.632  32.092  10.997
12841W        W79250  20.223  16.990   4.879
12842W        W79251   6.822  43.756   3.222
12843W        W79252   2.696  32.871   2.718
12844W        W79253  22.928  41.871  13.934
12845W        W79254  23.093  38.823  12.371
12846W        W79255  42.850  44.192   2.647
12847W        W79256  23.621  19.519  12.450
12848W        W79257   3.394  33.969  13.897
12849W        W79258  25.524  31.440  12.315
12850W        W79259  40.385  30.595   2.669
12851W        W79260   7.739  28.350  10.594
12852W        W79261  19.628  30.640   1.408
12853W        W79262  24.743   0.313  12.162
12854W        W79263  15.669  28.680   4.414
12855W        W79264  36.944   3.498   4.754
12856W        W79265  28.143  22.768  11.001
12857W        W79266  19.550  24.732  10.647
12858W        W79267  28.580  16.092  14.742
12859W        W79268   3.314   0.751  13.114
12860W        W79269  16.375   9.911  11.614
12861W        W79270   1.862  32.613   3.313
12862W        W79271  37.017  38.019   1.855
12863W        W79272  39.858  21.578  10.424
12864W        W79273  35.510  35.113   2.730
12865W        W79274  26.428  28.463  12.968
12866W        W79275  44.754  35.782  11.660
12867W        W79276  42.484   1.826  12.989
12868W        W79277   8.917  12.682   2.458
12869W        W79278  34.037  20.614  11.595
12870W        W79279  13.163   5.635  10.676
12871W        W79280  38.651  18.320  11.511
12872W        W79281  12.235  10.902  12.557
12873W        W79282  26.770  12.644   2.823
12874W        W79283  17.520  34.333  14.955
12875W        W79284  40.504  30.481  10.624
12876W        W79285  32.554   0.592   0.322
12877W        W79286   1.714  11.661   3.217
12878W        W79287  32.869  37.895   1.905
12879W        W79288  15.935  39.119   5.433
12880W        W79289  32.792  10.857  11.156
12881W        W79290  40.458   7.274  14.334
12882W        W79291  29.176  17.603   1.219
12883W        W79292  25.128   1.735   4.583
12884W        W79293  11.796  15.765   1.896
12885W        W79294   6.486  38.781  12.374
12886W        W79295  30.620   5.157   1.950
12887W        W79296   3.970  36.958   0.811
12888W        W79297   5.708   9.229  12.546
12889W        W79298   3.372   5.923  11.987
12890W        W79299   3.784  13.078  12.144
12891W        W79300   4.412  42.127  14.935
12892W        W79301  37.670  44.099  11.014
12893W        W79302  11.792  15.920  13.263
12894W        W79303   3.672   5.275   1.232
12895W        W79304  36.640   0.461  12.445
12896W        W79305   7.180  38.133   0.769
12897W        W79306  25.901  20.215   2.276
12898W        W79307   1.388  26.247  13.917
12899W        W79308  29.924  37.273  10.792
12900W        W79309  32.852  16.643   3.745
12901W        W79310  33.937  38.257  12.510
12902W        W79311  26.103  16.502   4.169
12903W        W79312  24.075  38.360   0.927
12904W        W79313   9.797  25.523  12.798
12905W        W79314   0.802  15.163  12.485
12906W        W79315  30.557  17.912   2.801
12907W        W79316  25.065  16.796   2.759
12908W        W79317   7.624  26.612  11.999
12909W        W79318  28.994  38.394  14.422
12910W        W79319  11.592  16.794   2.625
12911W        W79320  39.815  20.745  12.281
12912W        W79321  32.996   9.404  12.082
12913W        W79322  27.379   6.987  14.899
12914W        W79323  10.054   3.762  11.708
12915W        W79324  10.172  26.999  10.657
12916W        W79325  17.467  43.132   0.348
12917W        W79326  41.985  36.928  11.108
12918W        W79327  10.307   9.442  14.716
12919W        W79328  40.655   3.195  13.445
12920W        W79329   3.511  11.294  14.556
12921W        W79330  17.659   9.780   2.925
12922W        W79331  21.120  25.656  13.409
12923W        W79332  30.153  31.616   0.966
12924W        W79333   0.779   3.836   2.244
12925W        W79334  24.238   8.254  11.628
12926W        W79335   7.813   3.049   2.783
12927W        W79336  18.055  33.549  12.966
12928W        W79337   4.277  13.850  14.472
12929W        W79338  26.620   3.766   2.977
12930W        W79339  42.568  44.528  13.817
12931W        W79340  37.095   9.907   3.749
12932W        W79341  44.349  23.091  12.504
12933W        W79342  21.069  22.133   2.391
12934W        W79343   9.371  39.726  14.495
12935W        W79344   8.268  27.119  10.916
12936W        W79345  27.040  14.153  14.925
12937W        W79346  29.438  12.807   2.126
12938W        W79347  16.725  32.810   0.404
12939W        W79348  29.717  39.315   1.355
12940W        W79349  32.424  30.234   1.917
12941W        W79350   8.637  40.350   2.851
12942W        W79351  34.077  27.657  14.607
12943W        W79352  35.455  17.616  11.607
12944W        W79353  42.985   8.792   3.238
12945W        W79354  32.449  41.916   0.399
12946W        W79355  18.193  10.661  14.795
12947W        W79356  28.833  29.937   1.806
12948W        W79357  19.161  33.003   2.365
12949W        W79358  25.131  39.025   3.821
12950W        W79359  35.680  43.916   3.716
12951W        W79360  38.553  40.335  14.699
12952W        W79361   8.134   1.182  13.373
12953W        W79362  42.712   7.738   3.682
12954W        W79363  43.964   1.412   1.753
12955W        W79364  39.864  28.071   2.868
12956W        W79365  13.395  15.036   2.229
12957W        W79366  38.907  13.888   0.327
12958W        W79367  30.053   8.863   1.038
12959W        W79368  18.506   2.327   2.391
12960W        W79369  42.021  25.976  12.864
12961W        W79370  28.934  27.144  14.459
12962W        W79371  19.763  13.906  11.138
12963W        W79372  27.600  15.649   2.124
12964W        W79373   5.080  11.634  13.637
12965W        W79374  23.046  11.037   3.628
12966W        W79375   6.965  23.075  12.622
12967W        W79376  27.658  24.330   2.502
12968W        W79377  24.501  43.441  12.834
12969W        W79378   5.951  21.231  13.513
12970W        W79379  35.935  19.214   9.733
12971W        W79380  27.506  19.180  12.331
12972W        W79381  43.845  18.154  11.845
12973W        W79382  21.325  10.286  12.026
12974W        W79383   8.401  33.052   2.749
12975W        W79384   5.331   1.429   0.850
12976W        W79385   6.921   7.161  14.703
12977W        W79386  36.392   6.177   0.024
12978W        W79387   0.911  21.948  10.814
12979W        W79388  16.400  13.771  10.937
12980W        W79389  43.860  19.063   0.794
12981W        W79390  39.161  15.669  13.148
12982W        W79391   2.491  22.481   1.289
12983W        W79392   8.894  33.060   2.585
12984W        W79393  34.468   0.901   1.644
12985W        W79394  43.714  18.434  11.171
12986W        W79395   9.768  40.581   1.145
12987W        W79396  42.396   7.949  10.701
12988W        W79397  30.149  18.598   2.213
12989W        W79398  11.619  30.704  14.894
12990W        W79399   1.289  28.387  11.155
12991W        W79400   8.156  18.023  11.119
12992W        W79401  22.143   1.940   3.423
12993W        W79402  26.540  30.179   4.631
12994W        W79403   4.824  24.727  13.595
12995W        W79404  44.307   9.755  14.378
12996W        W79405  24.980   1.734  11.638
12997W        W79406  34.122  16.206   1.713
12998W        W79407   4.095   2.316   2.223
12999W        W79408  43.333   9.926  10.335
13000W        W79409  24.646  41.023   2.190
13001W        W79410   7.564   2.295   0.329
13002W        W79411  42.096  10.580  14.706
13003W        W79412  28.963  33.039   0.023
13004W        W79413  42.947  33.821  13.764
13005W        W79414  13.845  36.468  10.665
13006W        W79415  41.344  27.502   3.381
13007W        W79416  23.674  19.778  13.498
13008W        W79417  28.048  30.625   4.590
13009W        W79418   7.437   9.907  12.798
13010W        W79419  23.559  25.614   0.474
13011W        W79420  23.817  42.604  12.420
13012W        W79421  19.987   3.479   2.734
13013W        W79422   7.366  32.312   3.648
13014W        W79423  43.328  37.353   4.530
13015W        W79424   6.223  21.709  10.538
13016W        W79425  13.662   9.378  14.364
13017W        W79426  38.373  12.400  13.256
13018W        W79427  22.974  32.864  13.313
13019W        W79428   7.153  36.440   4.632
13020W        W79429  29.596  21.635   1.006
13021W        W79430   1.680  33.197   2.320
13022W        W79431   1.699  32.227  13.128
13023W        W79432  44.971  36.133  10.502
13024W        W79433   9.414   8.415   4.557
13025W        W79434  37.282  40.805   0.178
13026W        W79435  42.390  16.987   1.403
13027W        W79436  23.491  24.148  12.660
13028W        W79437   1.456  41.306   1.875
13029W        W79438  25.607  14.335   3.601
13030W        W79439  21.162  37.576   5.066
13031W        W79440  22.222   0.800   0.780
13032W        W79441  28.081  33.700  10.476
13033W        W79442  37.954  28.031  11.931
13034W        W79443  36.870  11.127   3.580
13035W        W79444   6.367  31.237  12.110
13036W        W79445  11.667  22.753  10.893
13037W        W79446  25.690  34.554   4.651
13038W        W79447   9.587   2.526   1.850
13039W        W79448  28.551  23.605  11.995
13040W        W79449  14.685  19.622   0.252
13041W        W79450  23.517  12.312  14.230
13042W        W79451  16.136  18.507  11.696
13043W        W79452   2.540   1.976   2.415
13044W        W79453  36.699   9.333  11.231
13045W        W79454  19.846  13.243  13.766
13046W        W79455  11.296  13.736   4.645
13047W        W79456  24.260  22.548   0.254
13048W        W79457  24.722  42.866  11.581
13049W        W79458   1.912   8.716   1.633
13050W        W79459  30.651  13.178   2.628
13051W        W79460  22.536   3.668   2.278
13052W        W79461  26.896  35.445   0.843
13053W        W79462  23.633  30.407  11.650
13054W        W79463   7.484   1.024  14.715
13055W        W79464  24.277   8.682   2.703
13056W        W79465  18.460  31.394   1.869
13057W        W79466  30.982  15.049  13.908
13058W        W79467   7.825  44.291   1.199
13059W        W79468  28.457   1.423   1.203
13060W        W79469  42.954   7.403  13.142
13061W        W79470  43.727  37.378  14.205
13062W        W79471  21.025  43.001   4.015
13063W        W79472  10.225   3.211   4.109
13064W        W79473   4.705  25.962   1.960
13065W        W79474  32.082  15.378  11.171
13066W        W79475  19.603   5.244  13.705
13067W        W79476  36.299  24.120  13.025
13068W        W79477  14.615  18.787   2.186
13069W        W79478  44.770  15.147  12.381
13070W        W79479   6.925  15.160  10.574
13071W        W79480  33.887  20.763   2.175
13072W        W79481  24.668  23.064   3.286
13073W        W79482  24.157   4.829   1.305
13074W        W79483  22.806  13.185  11.646
13075W        W79484  16.710  23.013   2.597
13076W        W79485  31.021  27.050   4.720
13077W        W79486   3.984  31.922   3.672
13078W        W79487  34.439   0.733  11.130
13079W        W79488  33.628  30.452   2.212
13080W        W79489   3.701  24.240   0.538
13081W        W79490  32.577  33.386  12.350
13082W        W79491   7.604   1.295  12.467
13083W        W79492  39.003   9.720  12.282
13084W        W79493  19.815   4.159   2.418
13085W        W79494  32.700  24.169   3.130
13086W        W79495  37.815  44.442   0.935
13087W        W79496  32.187   4.325   3.607
13088W        W79497  40.844  16.139   2.400
13089W        W79498  38.974  38.081  13.162
13090W        W79499  19.739  28.604   0.303
13091W        W79500  23.521  12.039   1.491
13092W        W79501  19.590  43.648   4.546
13093W        W79502  15.527   5.431  12.430
13094W        W79503  27.203  15.745  13.510
13095W        W79504  21.580  12.407   1.461
13096W        W79505  25.832  18.270   2.508
13097W        W79506  17.699  28.971   4.527
13098W        W79507   0.732  42.470   3.132
13099W        W79508  27.365  18.342   1.222
13100W        W79509  10.827  39.081  14.005
13101W        W79510  29.427   2.986   1.450
13102W        W79511   6.888   9.111  14.486
13103W        W79512  41.899  37.652   2.629
13104W        W79513  22.988  31.032   3.465
13105W        W79514  33.101  21.250   4.755
13106W        W79515  42.596  21.163  10.746
13107W        W79516  43.387  11.118   3.610
13108W        W79517  32.964  40.376  13.962
13109W        W79518  32.476   6.190  12.990
13110W        W79519  42.693  41.246   9.596
13111W        W79520  24.302   3.930  13.220
13112W        W79521  41.367  32.732   4.225
13113W        W79522  11.875  26.938   3.574
13114W        W79523   7.964  36.791  14.914
13115W        W79524  14.695  10.883   0.614
13116W        W79525  33.979  21.928   3.639
13117W        W79526  15.271  39.619  13.365
13118W        W79527  29.126  35.324  12.648
13119W        W79528   1.346   2.512   2.958
13120W        W79529  44.000   5.791   3.337
13121W        W79530  42.300   7.436  10.704
13122W        W79531  37.321  32.215  14.101
13123W        W79532  27.745  31.776  13.206
13124W        W79533  14.872  22.049  11.555
13125W        W79534  17.990  20.105   2.732
13126W        W79535  34.824  26.970  10.716
13127W        W79536  21.274  23.613  14.507
13128W        W79537  24.624  31.635   1.571
13129W        W79538  24.360   4.173   3.253
13130W        W79539   3.813  35.006   3.233
13131W        W79540   6.298  30.470  11.453
13132W        W79541  39.720  23.074   0.192
13133W        W79542   5.383  32.199   0.200
13134W        W79543   1.539  43.935  11.592
13135W        W79544   1.396  44.350  13.892
13136W        W79545  42.329  14.632  12.945
13137W        W79546  13.188   2.976   1.021
13138W        W79547  23.373  40.185  12.624
13139W        W79548  22.161  14.260   2.265
13140W        W79549  13.311  38.594   1.745
13141W        W79550   6.247  42.769   3.721
13142W        W79551   3.292  18.025  14.309
13143W        W79552  17.513   7.932   3.277
13144W        W79553  38.763  16.365   2.869
13145W        W79554   1.085  29.125   4.581
13146W        W79555  19.561  43.943   1.423
13147W        W79556   6.209  35.949   0.694
13148W        W79557  24.599  44.769   2.937
13149W        W79558  26.684  13.867  11.522
13150W        W79559  36.570   6.401   3.627
13151W        W79560   2.496  39.334  13.693
13152W        W79561  18.971   0.069   0.883
13153W        W79562  41.476   8.182  11.408
13154W        W79563  19.505   7.440  10.748
13155W        W79564  10.604  22.241   0.459
13156W        W79565  38.410  39.414   2.329
13157W        W79566  16.784  20.241   3.668
13158W        W79567  37.607  40.791   3.724
13159W        W79568  44.764  34.821  13.404
13160W        W79569  24.229   0.149  13.352
13161W        W79570  22.869  42.379   2.045
13162W        W79571  29.790  26.423   2.786
13163W        W79572   6.710  42.078   1.453
13164W        W79573  35.194  42.769   3.555
13165W        W79574  17.591  37.932   2.976
13166W        W79575  13.687   1.425  13.312
13167W        W79576  41.406  19.577  11.543
13168W        W79577  15.498  14.681  12.131
13169W        W79578  23.549  21.458  14.941
13170W        W79579  19.027  27.964  10.490
13171W        W79580  36.884   2.509  14.369
13172W        W79581   6.822  19.973   3.806
13173W        W79582  42.027  16.683  13.161
13174W        W79583  21.811  20.723   2.751
13175W        W79584  39.029  36.002  12.703
13176W        W79585  43.250  10.776  11.604
13177W        W79586  39.873  12.934  11.623
13178W        W79587  29.599  28.901   3.652
13179W        W79588  40.076  25.447  14.590
13180W        W79589  14.346  17.735   4.058
13181W        W79590  12.447   4.673   0.874
13182W        W79591  40.974  21.347   0.527
13183W        W79592   9.425  38.027  12.858
13184W        W79593  34.598  22.783  11.109
13185W        W79594   0.678   5.360  14.400
13186W        W79595  16.837  20.155  14.986
13187W        W79596  13.252  19.368   4.531
13188W        W79597  28.955  42.144   4.114
13189W        W79598  11.730  27.139  13.277
13190W        W79599  19.844  41.816   3.118
13191W        W79600  36.843  16.619  13.903
13192W        W79601  40.676  42.061   4.191
13193W        W79602  28.717  10.731   2.639
13194W        W79603  24.983   7.334  13.107
13195W        W79604  37.181  43.499  12.766
13196W        W79605  26.676  33.427  11.849
13197W        W79606  32.996  27.027  11.398
13198W        W79607  34.066  25.525   2.971
13199W        W79608   7.869  40.295  12.688
13200W        W79609   5.759  36.889   1.943
13201W        W79610   6.695  40.552  13.452
13202W        W79611   8.820  15.712   1.846
13203W        W79612  36.530  41.104  12.059
13204W        W79613   1.844  13.635   3.129
13205W        W79614   9.805  39.831   0.849
13206W        W79615  11.579  26.975  13.896
13207W        W79616   0.458  34.771  13.676
13208W        W79617  27.727  25.218   2.639
13209W        W79618  38.699  18.209   2.834
13210W        W79619  29.046  19.252   4.468
13211W        W79620   4.627  41.529  11.104
13212W        W79621  16.863  19.435   4.170
13213W        W79622  39.939  41.258   3.400
13214W        W79623   4.703  40.218  11.493
13215W        W79624  18.652  40.953   0.354
13216W        W79625   7.376  33.931  13.350
13217W        W79626  14.564  34.997  13.901
13218W        W79627  21.113   8.430   1.309
13219W        W79628  30.022  21.547  11.400
13220W        W79629  37.568  26.505  13.037
13221W        W79630  10.417  14.218  10.808
13222W        W79631  41.402  34.429  14.392
13223W        W79632  13.256  30.714  12.888
13224W        W79633  17.046  13.364   4.880
13225W        W79634  33.356  11.134   3.703
13226W        W79635  27.410  21.244  10.668
13227W        W79636  31.766  35.571  11.772
13228W        W79637   6.795  27.467   4.138
13229W        W79638  40.587  16.332  14.940
13230W        W79639  12.454   3.798  12.124
13231W        W79640  30.559  34.622  12.087
13232W        W79641  37.398  25.889  11.665
13233W        W79642   6.299  41.530  10.265
13234W        W79643  31.393  15.145  12.487
13235W        W79644   7.202  14.394  11.596
13236W        W79645   2.090   9.858  14.767
13237W        W79646  29.962  13.034  13.919
13238W        W79647  36.853  23.726   2.639
13239W        W79648  38.599  23.864   1.772
13240W        W79649  29.292   9.353   3.081
13241W        W79650  37.651  38.913   4.834
13242W        W79651  39.938  15.876  13.599
13243W        W79652   1.321  21.118   0.558
13244W        W79653  16.409  33.946   1.737
13245W        W79654  35.135  11.192  11.965
13246W        W79655  35.280  39.336  12.577
13247W        W79656   6.782  34.675  13.439
13248W        W79657  34.136  43.220   2.818
13249W        W79658  40.398   7.234   3.632
13250W        W79659  42.768  23.464  13.862
13251W        W79660  15.088  29.177  11.120
13252W        W79661  32.102  10.897   4.737
13253W        W79662  43.141  43.336  13.869
13254W        W79663  14.900  22.198   1.205
13255W        W79664  31.568   5.642   2.515
13256W        W79665  24.735  21.049   4.061
13257W        W79666  36.359  12.124  14.340
13258W        W79667  36.348  20.806  11.421
13259W        W79668   1.390  15.801  10.746
13260W        W79669  14.195  18.723   0.946
13261W        W79670  32.445   7.194   5.046
13262W        W79671   6.897  39.958  12.054
13263W        W79672   7.934  39.423  12.567
13264W        W79673  16.241  21.936  14.779
13265W        W79674   7.364  41.768   1.881
13266W        W79675  41.084   8.299   2.193
13267W        W79676  33.041  13.402  12.086
13268W        W79677  23.367  13.639  14.555
13269W        W79678  40.793  11.834  11.569
13270W        W79679   8.971  38.021  14.512
13271W        W79680  11.625  37.592  12.558
13272W        W79681  31.721  14.416  14.243
13273W        W79682  20.675  31.371   2.204
13274W        W79683  17.158  23.745   4.319
13275W        W79684  30.913  25.216   5.057
13276W        W79685  10.646  34.876   2.932
13277W        W79686   6.925  40.516  11.558
13278W        W79687  40.977   5.569  14.790
13279W        W79688   0.388  22.759  13.892
13280W        W79689  33.830  28.361   1.731
13281W        W79690  28.014  37.072  14.069
13282W        W79691   3.494  34.558  11.606
13283W        W79692   2.661  37.055  13.550
13284W        W79693  40.652   8.897   0.984
13285W        W79694  13.742  24.808   3.198
13286W        W79695  43.871  14.959  11.440
13287W        W79696   6.474  12.743  10.412
13288W        W79697   1.482  38.507   4.805
13289W        W79698   4.448  22.110  13.557
13290W        W79699  26.564  37.872  14.523
13291W        W79700  23.551  31.610   1.715
13292W        W79701  31.506  35.512  14.748
13293W        W79702  30.865   7.818  14.024
13294W        W79703  24.556  28.515  11.965
13295W        W79704   5.753  10.637  14.528
13296W        W79705  15.065   7.044   0.758
13297W        W79706  35.515  26.157   0.477
13298W        W79707   1.309   7.670   3.866
13299W        W79708   0.071  24.048  10.739
13300W        W79709  32.952  30.882   2.342
13301W        W79710  24.537  26.646  14.455
13302W        W79711   9.460  32.812   1.332
13303W        W79712   4.254  26.752  10.549
13304W        W79713  25.473  15.697  11.689
13305W        W79714  26.832  12.577   4.262
13306W        W79715  13.234  41.288  11.248
13307W        W79716   9.461  43.485  11.558
13308W        W79717  26.711  28.735  11.628
13309W        W79718  36.875  27.965  13.417
13310W        W79719  28.377  17.466   4.159
13311W        W79720   2.357  13.292  11.215
13312W        W79721  29.737  40.608   0.828
13313W        W79722  38.423  36.569   4.636
13314W        W79723   8.745   4.515   4.776
13315W        W79724  26.532  36.421  14.447
13316W        W79725  20.005   4.716  11.555
13317W        W79726  43.503  24.779  14.266
13318W        W79727  19.961  32.868   0.443
13319W        W79728   2.465  37.127  14.582
13320W        W79729   2.385  17.195  10.693
13321W        W79730  25.180   0.540  12.043
13322W        W79731  38.993  18.024   1.253
13323W        W79732  12.326  33.568  14.058
13324W        W79733   3.512  15.209  13.747
13325W        W79734   1.891   5.184   1.509
13326W        W79735   7.825  19.524  13.326
13327W        W79736  11.507  36.580   2.377
13328W        W79737  41.991  21.210   4.547
13329W        W79738  31.821   0.128  14.811
13330W        W79739   2.457  30.053  12.415
13331W        W79740  21.998   9.330  11.559
13332W        W79741  34.878  13.051   4.934
13333W        W79742  40.973   7.197  11.067
13334W        W79743  36.292  33.876  12.751
13335W        W79744   9.264   8.923   2.876
13336W        W79745   0.941  14.619  14.768
13337W        W79746  11.697  10.328  11.465
13338W        W79747   8.364   7.434   4.632
13339W        W79748  13.836  27.842   2.599
13340W        W79749  36.025  31.344  12.311
13341W        W79750  34.676  22.695  13.402
13342W        W79751   0.502   3.947  11.632
13343W        W79752  44.421  30.513   5.019
13344W        W79753  41.757  37.860   3.113
13345W        W79754  21.732  13.259   0.862
13346W        W79755  44.173  39.618  12.149
13347W        W79756  33.592  27.146   4.533
13348W        W79757  44.260  15.567   3.604
13349W        W79758   5.948  20.681   2.150
13350W        W79759  39.118   4.749   0.538
13351W        W79760  19.983  16.486  10.609
13352W        W79761  22.065   1.236   1.841
13353W        W79762  18.994  19.717  12.115
13354W        W79763  36.937  31.432  14.896
13355W        W79764   6.575  13.122  12.489
13356W        W79765  31.687  32.589   3.164
13357W        W79766   2.521   3.341   2.409
13358W        W79767  38.961   3.736  11.100
13359W        W79768   3.660  19.525   3.149
13360W        W79769  37.596   8.673   4.566
13361W        W79770  29.367  32.562   1.910
13362W        W79771  26.268  40.889  13.908
13363W        W79772  24.645  39.122  13.598
13364W        W79773   4.700  31.056  14.936
13365W        W79774  24.067  33.562  13.063
13366W        W79775  18.608  34.441  10.622
13367W        W79776  22.803  38.495   1.783
13368W        W79777  41.817   1.930   4.998
13369W        W79778  20.172  19.008  11.076
13370W        W79779   2.838  31.622   3.429
13371W        W79780   8.866   4.973   2.358
13372W        W79781  42.538  29.907  13.831
13373W        W79782  35.855  40.644  12.459
13374W        W79783  19.068   7.071   1.049
13375W        W79784  10.955  32.486  14.458
13376W        W79785  37.567  43.074   4.128
13377W        W79786  21.102  42.244  11.160
13378W        W79787  33.731  12.317  14.633
13379W        W79788  17.493  12.594   0.168
13380W        W79789  31.121   8.271  14.123
13381W        W79790  31.935  23.684   4.535
13382W        W79791  22.916   6.379   4.112
13383W        W79792  30.525  14.401   1.305
13384W        W79793   3.715   7.747  14.617
13385W        W79794  37.545  14.336   1.874
13386W        W79795   6.907   8.797   0.820
13387W        W79796  41.587  43.280  13.940
13388W        W79797  13.270  19.005   3.590
13389W        W79798   0.035  37.459   0.473
13390W        W79799  23.277  29.119  11.050
13391W        W79800   3.835  13.154  13.075
13392W        W79801  27.727  11.266   0.975
13393W        W79802  34.379   1.402   0.692
13394W        W79803  42.798  17.012   0.750
13395W        W79804  27.968  29.099  13.421
13396W        W79805  23.727  18.685   0.196
13397W        W79806  14.100   4.420   4.120
13398W        W79807  10.299  30.903   0.584
13399W        W79808  34.951   7.804   1.564
13400W        W79809  15.527  25.558  10.311
13401W        W79810  21.621   4.815   4.048
13402W        W79811   8.429  20.214  13.799
13403W        W79812  29.018  27.060   1.480
13404W        W79813  41.355  42.498  11.953
13405W        W79814  13.940  41.689   1.915
13406W        W79815  23.981   8.083  11.225
13407W        W79816  43.955   7.492  11.140
13408W        W79817   1.284  10.560   2.485
13409W        W79818  34.535  12.497  14.365
13410W        W79819  38.574  19.971  11.465
13411W        W79820  36.390  43.913   3.274
13412W        W79821   9.317  15.738   1.762
13413W        W79822  16.541   6.412  14.862
13414W        W79823   5.682  25.158   2.256
13415W        W79824   7.767  32.026   4.020
13416W        W79825   8.925  20.972  11.051
13417W        W79826  20.352   8.694   2.430
13418W        W79827  32.138   5.272   3.545
13419W        W79828  40.105   9.377  12.454
13420W        W79829  14.574  12.272  12.492
13421W        W79830  13.551   0.797  14.209
13422W        W79831  13.259  40.098   0.262
13423W        W79832  40.819  44.817  12.545
13424W        W79833  37.470   0.367  12.949
13425W        W79834  40.270  21.801   1.258
13426W        W79835  32.126  12.487   3.381
13427W        W79836  35.070  40.550   3.655
13428W        W79837   0.500   9.167   2.382
13429W        W79838  30.600   6.844   4.844
13430W        W79839  24.880  19.229   3.261
13431W        W79840  39.459  35.524   3.133
13432W        W79841  21.765  36.093  11.685
13433W        W79842   2.768  10.399  13.861
13434W        W79843  38.090  18.929   3.917
13435W        W79844  27.958  12.858   4.181
13436W        W79845  33.994  39.878   0.979
13437W        W79846  38.457   9.900  10.978
13438W        W79847  33.914  17.016   2.645
13439W        W79848  17.190  36.027  14.741
13440W        W79849  30.846   3.358  13.883
13441W        W79850   6.667  20.821  11.996
13442W        W79851  12.820  29.553  13.636
13443W        W79852  16.065  40.577  12.430
13444W        W79853  20.717  34.392  10.816
13445W        W79854   0.843  12.775  11.340
13446W        W79855   1.258  13.886  14.998
13447W        W79856  15.545  29.428   1.835
13448W        W79857  28.652  30.130  14.788
13449W        W79858  41.094   4.204   0.917
13450W        W79859  33.210  10.649  14.468
13451W        W79860  38.639  12.674  13.612
13452W        W79861  10.336   0.347  13.862
13453W        W79862   6.116  40.198   1.084
13454W        W79863  33.509   2.160   1.481
13455W        W79864   1.994  17.586   4.544
13456W        W79865   5.223  36.501  11.454
13457W        W79866  39.739  14.080  13.776
13458W        W79867  35.846  35.950   4.077
13459W        W79868   9.190  15.878   0.864
13460W        W79869  23.141  26.043   2.913
13461W        W79870  30.877  32.944  12.419
13462W        W79871  44.671  42.802  11.165
13463W        W79872  12.729  30.352  10.425
13464W        W79873   5.912  36.471   2.203
13465W        W79874  43.114  34.500  11.441
13466W        W79875  28.441  42.156   1.857
13467W        W79876  19.224  16.864   2.085
13468W        W79877  42.570  36.213  13.139
13469W        W79878  34.144  24.124  13.420
13470W        W79879  25.451  26.167  14.388
13471W        W79880  28.423  23.309  14.894
13472W        W79881  17.183  10.508  11.461
13473W        W79882  24.841  44.727  11.524
13474W        W79883   3.388  17.275   5.562
13475W        W79884  30.925   5.659   0.953
13476W        W79885  26.447  34.454  14.328
13477W        W79886  34.910  11.877  13.401
13478W        W79887   6.293   9.016   3.299
13479W        W79888   5.615  42.330  13.478
13480W        W79889  26.737   9.805   0.127
13481W        W79890   7.905  42.577  11.929
13482W        W79891  32.215  35.557  11.532
13483W        W79892  22.545   1.453   1.807
13484W        W79893  18.945   6.465  12.208
13485W        W79894  18.679  37.796  14.797
13486W        W79895  21.656  37.324   4.448
13487W        W79896  23.110   7.821   4.172
13488W        W79897  19.025  12.858   1.274
13489W        W79898  23.173  27.325  12.377
13490W        W79899   9.475  24.232   0.872
13491W        W79900  33.177   4.884  14.180
13492W        W79901   2.555  23.165  10.374
13493W        W79902  24.447   9.918   9.873
13494W        W79903  24.732   2.930  12.486
13495W        W79904  27.037  42.917   3.697
13496W        W79905  20.657  13.362   2.295
13497W        W79906  11.727  34.935   4.282
13498W        W79907  21.628  42.035  12.003
13499W        W79908  24.019   2.761   1.649
13500W        W79909  34.358  23.220  11.216
13501W        W79910  26.031  17.213  11.886
13502W        W79911   6.072  44.760   4.498
13503W        W79912  25.954   1.762  13.264
13504W        W79913   2.268  14.820   1.645
13505W        W79914  44.948  21.759   0.399
13506W        W79915  25.016  37.297  14.447
13507W        W79916  34.106   9.645  11.825
13508W        W79917  26.629  36.886   0.267
13509W        W79918  33.395   4.860   1.376
13510W        W79919   8.735  40.461   0.382
13511W        W79920   7.881  16.598  13.481
13512W        W79921  18.019  17.048  10.731
13513W        W79922  29.445  22.051  14.367
13514W        W79923  39.023   3.852   1.473
13515W        W79924  28.605   0.892   2.353
13516W        W79925  18.288  25.143   2.295
13517W        W79926  28.491  40.642   0.464
13518W        W79927  38.910  28.401  12.842
13519W        W79928  18.171   2.214   3.571
13520W        W79929  15.251   9.501   3.211
13521W        W79930   2.251  29.198  12.161
13522W        W79931  16.037  12.700   2.439
13523W        W79932  37.857   5.024  12.025
13524W        W79933  17.228  27.799  11.476
13525W        W79934   3.848  22.943  11.942
13526W        W79935   5.187  36.582  14.774
13527W        W79936  42.121  27.109  13.751
13528W        W79937  25.016   3.354  12.352
13529W        W79938  38.141  41.684   0.116
13530W        W79939  18.484  14.547  11.610
13531W        W79940  13.109  40.543   1.674
13532W        W79941   0.624  38.169  12.661
13533W        W79942  37.130  35.113  12.081
13534W        W79943   7.951  36.864  12.935
13535W        W79944  35.284  21.611   4.920
13536W        W79945  11.300  28.943   2.638
13537W        W79946  19.601  34.781   2.175
13538W        W79947  34.019   9.302   0.661
13539W        W79948  38.498   2.246   2.776
13540W        W79949  19.274  31.263  13.513
13541W        W79950  39.640  41.360   0.864
13542W        W79951   2.521   5.734  13.984
13543W        W79952  16.182   4.027   0.935
13544W        W79953   6.328  30.436  12.935
13545W        W79954  35.338  31.244   0.252
13546W        W79955  44.713  13.656   3.823
13547W        W79956  30.124   8.944  14.781
13548W        W79957  16.340  24.670  10.295
13549W        W79958  16.764   4.376  11.434
13550W        W79959  14.677  42.340  11.414
13551W        W79960  32.222   9.692  12.880
13552W        W79961   9.446   6.296  10.714
13553W        W79962  35.419  18.249   4.755
13554W        W79963   4.274  42.358  13.096
13555W        W79964  20.989  30.955   1.760
13556W        W79965  30.589  41.270  12.921
13557W        W79966  39.423   0.768  11.749
13558W        W79967   7.117  35.375  12.699
13559W        W79968  14.210  30.305  13.824
13560W        W79969   0.024   5.451   0.312
13561W        W79970  39.054  26.530  14.451
13562W        W79971  31.568  23.626  11.369
13563W        W79972  42.903  11.034  14.574
13564W        W79973  19.090  15.662   1.900
13565W        W79974  22.067   4.542   0.736
13566W        W79975  17.870  18.756   2.310
13567W        W79976  42.752   5.855  11.177
13568W        W79977  43.252  29.933  13.439
13569W        W79978  27.842   4.789  10.484
13570W        W79979  23.991   7.603   5.002
13571W        W79980  30.818  19.164  14.780
13572W        W79981  36.751  15.301  11.570
13573W        W79982   5.647  41.071  11.636
13574W        W79983  27.204  25.800   0.979
13575W        W79984  17.363  43.752   3.252
13576W        W79985  43.053  32.435  12.271
13577W        W79986   3.162  15.751   4.248
13578W        W79987  20.247  15.695   4.823
13579W        W79988  10.456  27.215  11.065
13580W        W79989  11.641  21.375   3.542
13581W        W79990   9.914  22.818   0.859
13582W        W79991  41.972   0.069   1.590
13583W        W79992   2.959  16.055   0.832
13584W        W79993  29.147  24.467   1.325
13585W        W79994  23.035  35.510   0.995
13586W        W79995  31.690  39.037   1.699
13587W        W79996  29.087  29.876  14.702
13588W        W79997  28.145  24.454   0.068
13589W        W79998  23.148  44.466  14.864
13590W        W79999  31.912  11.723   4.103
13591W        W80000  24.835  36.988  12.705
13592W        W80001  22.700  22.666   2.704
13593W        W80002  14.492  27.670  12.089
13594W        W80003  40.385  38.562  14.827
13595W        W80004  44.502  32.493   3.254
13596W        W80005  27.180  35.312  13.834
13597W        W80006  41.880  43.888  12.377
13598W        W80007   4.462  22.561   4.961
13599W        W80008  42.122  25.909   0.561
13600W        W80009  25.014  16.899  11.226
13601W        W80010  11.133  40.478  11.720
13602W        W80011  42.916  44.592   2.315
13603W        W80012  18.380  36.490   9.663
13604W        W80013  21.123  10.604   0.908
13605W        W80014  40.592   3.341   5.205
13606W        W80015  30.018   0.161   0.169
13607W        W80016   1.442  26.951   2.699
13608W        W80017  43.753  14.239   3.300
13609W        W80018   0.787  44.044   1.615
13610W        W80019  43.427  25.111  14.669
13611W        W80020  16.625   8.109   1.269
13612W        W80021  18.184  43.499   4.993
13613W        W80022  32.577  32.482  14.315
13614W        W80023  42.808   7.200   1.863
13615W        W80024  14.234  24.391  10.722
13616W        W80025   1.412  27.925   4.236
13617W        W80026  12.140  43.910  14.004
13618W        W80027  43.487  28.586  13.953
13619W        W80028   9.578  15.372   1.519
13620W        W80029  38.812  18.166   1.730
13621W        W80030   8.750  21.773  12.944
13622W        W80031  14.606  43.870  11.211
13623W        W80032  31.844  21.237   1.404
13624W        W80033  31.529  16.868  12.652
13625W        W80034  29.876   9.847   5.108
13626W        W80035  11.924  19.316   2.222
13627W        W80036  38.919  40.956   2.258
13628W        W80037  24.668  20.551   4.156
13629W        W80038  29.631  17.045  12.542
13630W        W80039  39.101  27.548  11.490
13631W        W80040  30.948  19.959  12.018
13632W        W80041   9.691  38.350  12.552
13633W        W80042  14.559  30.661   1.308
13634W        W80043  40.535   1.477  14.754
13635W        W80044  14.161  25.687  11.273
13636W        W80045  14.661  29.970   0.897
13637W        W80046  17.322  33.483  13.872
13638W        W80047   6.151  21.173   3.259
13639W        W80048  38.893  13.029  13.339
13640W        W80049   3.190  21.054  14.546
13641W        W80050  42.472  30.981   4.416
13642W        W80051  15.267   3.493  13.481
13643W        W80052  27.943  36.448  14.063
13644W        W80053   4.255  39.287  12.493
13645W        W80054  25.622   2.906   4.269
13646W        W80055  15.419  18.982   2.721
13647W        W80056  11.710  35.172   2.221
13648W        W80057  41.657  39.142  13.790
13649W        W80058  30.079  14.202   4.417
13650W        W80059  23.427  27.013   0.321
13651W        W80060  13.418  14.819  12.722
13652W        W80061  20.409  36.678   1.226
13653W        W80062  33.768  26.937  12.434
13654W        W80063  16.089  43.941  14.822
13655W        W80064  40.104   1.693  14.999
13656W        W80065  22.808  44.977   0.589
13657W        W80066   5.558  12.825   4.665
13658W        W80067  10.121  13.924   0.344
13659W        W80068  14.736  32.146  10.297
13660W        W80069  10.764  27.706   1.998
13661W        W80070  12.603  14.635  13.077
13662W        W80071  19.695  34.523   4.199
13663W        W80072  28.566  19.198   0.498
13664W        W80073  19.719  44.231  12.450
13665W        W80074   5.024  11.793   0.768
13666W        W80075  25.045  15.278   1.446
13667W        W80076  40.223  23.772   3.497
13668W        W80077  18.669   8.890   0.349
13669W        W80078   6.300  42.426  11.691
13670W        W80079  34.469   8.631   2.839
13671W        W80080  41.359  28.655   2.003
13672W        W80081  28.483  18.679  14.765
13673W        W80082   2.398  10.098  11.665
13674W        W80083   5.750  15.056   2.773
13675W        W80084  19.744  14.711   2.444
13676W        W80085  18.720  36.477  10.963
13677W        W80086  26.977   6.909  11.671
13678W        W80087  39.480   9.113   4.928
13679W        W80088  43.764  29.354   3.510
13680W        W80089  18.079  28.527  12.580
13681W        W80090  15.620  13.658   3.785
13682W        W80091  21.164  23.487   2.797
13683W        W80092  29.539  10.905   3.831
13684W        W80093  14.605  11.732   1.303
13685W        W80094  10.782   5.482  11.183
13686W        W80095  14.092  19.615   2.557
13687W        W80096  19.180   6.266  14.362
13688W        W80097   3.354  37.090   2.854
13689W        W80098  21.056  34.585   4.314
13690W        W80099  21.538   8.038   2.831
13691W        W80100  38.129  11.056  11.965
13692W        W80101  16.398  32.638  13.980
13693W        W80102  16.486   9.165   1.275
13694W        W80103  24.709  28.567  13.378
13695W        W80104   3.917  34.036   0.346
13696W        W80105  18.045   5.087  12.576
13697W        W80106  22.709   1.026  10.766
13698W        W80107   5.157  17.139  14.431
13699W        W80108   6.942  13.217   2.744
13700W        W80109  10.335  37.269   5.079
13701W        W80110  21.545  40.098  13.493
13702W        W80111  22.209  15.320   1.210
13703W        W80112  44.414  17.436  11.612
13704W        W80113  43.297  28.098   3.847
13705W        W80114  38.035  11.687  10.307
13706W        W80115   2.870   3.271   3.078
13707W        W80116  20.833  36.811   2.354
13708W        W80117   8.853  25.294  14.368
13709W        W80118  19.166  11.609  12.380
13710W        W80119  15.581  17.277   0.350
13711W        W80120  23.936  31.302  14.965
13712W        W80121  23.141  39.411   4.579
13713W        W80122  36.797  13.624  14.783
13714W        W80123  20.241  30.842  11.059
13715W        W80124  15.175  43.969   0.713
13716W        W80125  38.377  26.058  13.078
13717W        W80126  19.624  23.084  12.618
13718W        W80127  12.791  25.492  13.084
13719W        W80128  10.061  42.906  12.307
13720W        W80129  13.408   3.907   4.419
13721W        W80130  22.333  41.473   0.798
13722W        W80131   9.181  40.084   1.670
13723W        W80132  33.634  17.526  13.185
13724W        W80133   4.473  23.409   2.277
13725W        W80134  19.725  21.162   3.229
13726W        W80135  23.083  34.600  10.676
13727W        W80136  21.140  15.825   4.464
13728W        W80137  44.243  11.424  14.591
13729W        W80138  17.654  22.144   1.131
13730W        W80139   7.227   4.886   4.078
13731W        W80140  36.026  11.090   3.504
13732W        W80141  44.948  44.071  14.715
13733W        W80142  36.338  23.607   2.789
13734W        W80143   0.987  25.467   3.377
13735W        W80144  30.128   1.434  13.084
13736W        W80145   0.078  15.364  11.130
13737W        W80146  11.606  41.828   2.536
13738W        W80147  22.170  15.420   2.127
13739W        W80148  11.151  39.968  11.057
13740W        W80149  33.660  35.096  14.685
13741W        W80150  31.515  30.183   3.296
13742W        W80151  40.716  16.837   0.048
13743W        W80152   7.502  37.828  14.418
13744W        W80153   4.500  31.138   1.450
13745W        W80154   0.710  36.116   0.915
13746W        W80155  31.034  28.882  12.610
13747W        W80156   9.609  30.055  10.838
13748W        W80157  35.906  12.492   2.721
13749W        W80158  29.492   2.856   3.944
13750W        W80159  31.034  31.545   4.593
13751W        W80160  36.994  14.842   2.704
13752W        W80161  20.693   0.449  13.952
13753W        W80162  13.090  15.198  12.538
13754W        W80163  25.696   2.437  10.927
13755W        W80164   6.335  27.854  10.371
13756W        W80165   3.037  15.175  12.833
13757W        W80166  37.244  11.444  13.461
13758W        W80167   5.699  31.853   4.215
13759W        W80168  10.769   7.803   3.491
13760W        W80169   1.533  17.566  13.440
13761W        W80170  29.172  23.832  11.465
13762W        W80171  33.670  11.909   4.115
13763W        W80172  23.512  44.938   1.244
13764W        W80173   9.607  36.401   0.648
13765W        W80174  21.157  40.367   0.038
13766W        W80175  44.538  35.324  12.147
13767W        W80176  34.167  22.144   2.190
13768W        W80177  35.237  11.623   1.305
13769W        W80178  26.626   0.285  11.123
13770W        W80179  32.502  15.200   1.460
13771W        W80180  21.263   5.122  11.232
13772W        W80181   2.386  22.916  14.611
13773W        W80182  10.369   7.207  11.373
13774W        W80183  34.963  43.420  14.806
13775W        W80184   4.829  27.654   1.779
13776W        W80185  15.863  20.585  13.472
13777W        W80186  38.807  38.915  11.096
13778W        W80187   7.398  40.263  14.690
13779W        W80188   6.274  33.870  10.399
13780W        W80189  18.363  12.699  14.280
13781W        W80190   0.867  33.850   3.257
13782W        W80191  21.114  19.810   1.784
13783W        W80192  26.693   8.814  12.407
13784W        W80193  20.115  16.411  12.605
13785W        W80194   8.575  19.270   4.149
13786W        W80195   1.729   3.672  11.166
13787W        W80196   2.807  39.057   0.702
13788W        W80197  23.628  20.203  12.116
13789W        W80198  36.089  23.592   3.252
13790W        W80199   4.104  25.866  14.361
13791W        W80200  35.597  18.251  11.068
13792W        W80201  23.041  25.413  14.557
13793W        W80202  15.835  22.862  12.912
13794W        W80203  10.839  34.679   4.702
13795W        W80204  32.121  20.523  14.812
13796W        W80205  27.953  29.139   4.566
13797W        W80206  13.741   8.665  14.016
13798W        W80207  38.348  14.362  11.486
13799W        W80208  12.643  11.367  11.994
13800W        W80209  40.935   7.160   3.181
13801W        W80210   1.056  14.064   4.154
13802W        W80211   2.023  24.696  12.452
13803W        W80212  17.251  28.909   2.725
13804W        W80213  14.093  34.559   3.869
13805W        W80214  24.985  37.364   4.982
13806W        W80215   5.315   2.785   4.570
13807W        W80216  35.940  36.026   0.933
13808W        W80217  37.133   1.536  11.704
13809W        W80218  14.124  38.645  12.029
13810W        W80219   5.830  34.135   0.312
13811W        W80220  38.379  10.260  14.837
13812W        W80221  36.167  31.014   3.065
13813W        W80222  32.044   3.007  13.527
13814W        W80223  41.252  36.067   0.638
13815W        W80224  28.183   1.839   2.305
13816W        W80225  36.466  11.627   4.421
13817W        W80226  44.955  44.245  14.209
13818W        W80227  27.998  27.407  14.249
13819W        W80228  11.403  44.199   4.108
13820W        W80229  17.027   7.931  10.425
13821W        W80230  34.902  38.985   3.622
13822W        W80231   1.026  32.158   4.007
13823W        W80232  13.036   5.297  14.115
13824W        W80233  12.848  24.772   0.722
13825W        W80234   7.337  41.011   4.647
13826W        W80235  37.067  40.538  14.781
13827W        W80236  40.805  12.298  14.287
13828W        W80237   5.669  38.595   3.713
13829W        W80238   2.598  31.694  12.439
13830W        W80239  32.357  20.166   1.815
13831W        W80240  10.456  16.264  14.373
13832W        W80241  13.524  31.038   0.798
13833W        W80242  44.321  10.850   4.038
13834W        W80243  35.521   5.140   4.995
13835W        W80244  21.785  26.521  14.386
13836W        W80245  23.684   8.426  10.968
13837W        W80246  42.080  23.230  11.086
13838W        W80247  16.364  40.016   4.462
13839W        W80248  15.003  15.803  13.072
13840W        W80249  39.144   0.952   0.860
13841W        W80250  26.948  24.443  11.550
13842W        W80251   6.368  16.295   4.676
13843W        W80252  42.983  17.237   4.270
13844W        W80253  12.815  37.389   3.187
13845W        W80254  32.516  38.339   2.704
13846W        W80255   5.171  30.896  14.004
13847W        W80256  37.440   6.572   2.907
13848W        W80257  27.149  16.357   1.407
13849W        W80258   5.300  31.132  11.633
13850W        W80259   1.702  18.710   2.197
13851W        W80260  11.166   7.227   4.044
13852W        W80261  31.234   1.368   4.487
13853W        W80262  12.919   5.697  11.810
13854W        W80263  22.574  37.406  14.853
13855W        W80264  29.845  16.742   4.579
13856W        W80265   0.494  11.787   0.325
13857W        W80266  44.384  27.870  10.600
13858W        W80267  32.940  12.031  13.412
13859W        W80268  44.336  44.446  11.481
13860W        W80269  23.507  38.282   2.271
13861W        W80270  44.435  43.309  12.005
13862W        W80271  35.602   5.945   4.195
13863W        W80272  10.567  16.721   2.776
13864W        W80273  24.557  26.800  12.882
13865W        W80274  15.594  28.710  13.867
13866W        W80275  27.540  36.920   0.764
13867W        W80276   7.757   3.936  13.178
13868W        W80277   2.334  44.284   0.250
13869W        W80278  38.711  11.626   4.142
13870W        W80279  28.105  34.052   2.146
13871W        W80280  31.636  25.468   4.250
13872W        W80281  28.812  12.217  11.168
13873W        W80282  44.944  32.425  14.083
13874W        W80283  38.311  20.995   0.843
13875W        W80284  42.946  24.578   3.222
13876W        W80285  36.571  38.126   0.861
13877W        W80286  29.829   4.385   1.874
13878W        W80287  27.068  40.492  12.468
13879W        W80288  12.091  39.943  14.692
13880W        W80289  44.433   5.543  11.010
13881W        W80290  30.612  26.128  12.793
13882W        W80291  27.761  39.467  13.261
13883W        W80292  42.788   9.740   1.195
13884W        W80293  16.162  44.064  12.871
13885W        W80294   9.328  23.862   4.276
13886W        W80295  24.524  39.525  13.920
13887W        W80296   2.022  43.937  11.918
13888W        W80297  16.440  36.395  14.272
13889W        W80298  28.645  38.999   2.688
13890W        W80299  36.488   4.786  13.386
13891W        W80300   2.711  18.700   4.524
13892W        W80301  33.929  44.496   3.289
13893W        W80302  44.937  17.262   0.408
13894W        W80303  30.874  42.955   2.874
13895W        W80304  33.506  33.442   2.183
13896W        W80305   6.579  21.727  14.373
13897W        W80306  19.165  24.982  12.478
13898W        W80307   1.399  16.312   1.454
13899W        W80308  21.940   9.657  13.312
13900W        W80309  38.973  11.111   1.827
13901W        W80310   5.477  36.598  14.306
13902W        W80311  36.177  21.934  14.385
13903W        W80312  18.253  27.585  12.899
13904W        W80313  39.597  29.330  12.249
13905W        W80314  13.906  42.305   1.360
13906W        W80315  22.213  27.528  11.006
13907W        W80316  27.563  43.025   1.799
13908W        W80317  44.013  22.564  11.456
13909W        W80318  23.217  24.778  12.860
13910W        W80319  24.719  32.010  13.002
13911W        W80320  15.975  11.287   2.433
13912W        W80321   2.210  22.175   0.802
13913W        W80322  22.281  37.985   1.311
13914W        W80323  11.245  36.023   3.683
13915W        W80324  15.699  19.117  12.782
13916W        W80325  34.672   5.766   4.082
13917W        W80326  16.568  16.138   0.271
13918W        W80327   6.036  11.902   0.677
13919W        W80328   3.732  15.619  11.573
13920W        W80329  10.109   4.981  10.775
13921W        W80330  40.219   0.940   1.767
13922W        W80331  22.555  21.447  14.586
13923W        W80332  39.801  25.991   0.519
13924W        W80333  40.501  19.092  10.666
13925W        W80334   0.497  21.446  14.759
13926W        W80335  42.611   9.677  14.862
13927W        W80336   1.485  19.795  13.025
13928W        W80337  40.893  10.621   1.791
13929W        W80338  27.605   0.429   0.929
13930W        W80339  39.260  40.614   5.060
13931W        W80340   1.110  19.678  13.910
13932W        W80341  20.421   1.902  14.523
13933W        W80342  33.162  22.674   1.308
13934W        W80343  42.362  36.323  10.533
13935W        W80344  19.606  35.928   0.912
13936W        W80345   4.253   1.332  11.866
13937W        W80346  29.018  39.566  14.953
13938W        W80347  38.933  26.486  13.527
13939W        W80348  27.465  22.336   0.780
13940W        W80349  22.204  19.712   0.295
13941W        W80350  24.786   0.725  14.299
13942W        W80351   8.360  12.718   3.756
13943W        W80352  12.806  26.585   1.251
13944W        W80353  28.769  21.645   5.654
13945W        W80354  11.688  13.838  10.910
13946W        W80355   1.756  26.221   2.392
13947W        W80356   2.141  19.778   0.813
13948W        W80357   7.698   7.622  11.693
13949W        W80358  18.505   6.236  12.096
13950W        W80359  27.025  21.211  12.613
13951W        W80360   2.785   1.284  14.327
13952W        W80361  12.706  10.935  13.425
13953W        W80362  35.016   6.919   2.822
13954W        W80363  16.187  35.109  12.976
13955W        W80364  24.578  34.466  10.595
13956W        W80365  43.898  19.463   2.244
13957W        W80366  12.160  29.852  12.909
13958W        W80367   9.115  41.270   3.342
13959W        W80368   7.358  39.855  14.361
13960W        W80369  37.879  32.761  11.065
13961W        W80370   0.231  19.127   1.930
13962W        W80371  17.863   9.306   0.751
13963W        W80372  16.640  44.898   1.957
13964W        W80373  22.208  15.587   3.426
13965W        W80374  28.277  32.031  11.173
13966W        W80375  18.096  12.600  10.604
13967W        W80376  25.394  19.112  10.596
13968W        W80377   8.711  13.187  12.608
13969W        W80378   8.173  13.727  14.364
13970W        W80379  31.357  38.399  11.095
13971W        W80380   4.080  42.726   4.100
13972W        W80381  15.543  36.309   3.096
13973W        W80382  39.551  31.702   3.863
13974W        W80383  10.583  18.096   1.691
13975W        W80384  43.234  18.806   2.310
13976W        W80385  25.074   1.854   0.565
13977W        W80386   1.717  41.477   2.291
13978W        W80387  35.927  36.944   2.404
13979W        W80388  43.810  37.016   0.477
13980W        W80389  26.295  37.416  13.521
13981W        W80390  24.016   1.264  10.397
13982W        W80391  36.937  23.562  14.365
13983W        W80392   7.648  38.837   2.635
13984W        W80393  18.108  36.430  14.116
13985W        W80394   5.670  37.030  12.074
13986W        W80395  38.145  26.661   1.017
13987W        W80396   1.143  16.719  11.014
13988W        W80397  13.845  34.137   2.855
13989W        W80398   3.321  24.984   0.798
13990W        W80399  17.242  14.558   2.287
13991W        W80400  27.127   0.451   3.670
13992W        W80401  39.511  26.177  14.810
13993W        W80402  32.267   0.869  11.214
13994W        W80403  21.718  22.378  13.629
13995W        W80404  44.308  20.141  13.549
13996W        W80405  25.140  42.843   3.123
13997W        W80406  42.096  35.853   0.329
13998W        W80407  43.480  40.028  13.531
13999W        W80408   0.123  11.109   0.634
14000W        W80409  18.519  22.192  10.625
14001W        W80410  33.860  19.098  14.509
14002W        W80411   0.917   2.523  11.561
14003W        W80412  25.716  42.902   4.477
14004W        W80413  40.098  34.441   2.054
14005W        W80414  24.025  25.461  14.509
14006W        W80415  41.496  41.399   2.435
14007W        W80416  31.809  41.221   3.771
14008W        W80417   5.326   8.265   3.861
14009W        W80418  25.522   5.615   2.667
14010W        W80419  14.253  11.776  12.326
14011W        W80420   4.867  38.184  11.140
14012W        W80421   1.890  18.627  14.404
14013W        W80422   9.810  19.271  12.492
14014W        W80423  34.690  42.980  12.004
14015W        W80424  38.032  44.387   0.403
14016W        W80425  15.383   0.905   3.192
14017W        W80426   7.341  20.251  11.457
14018W        W80427   9.527  33.395   0.775
14019W        W80428  44.898  38.523  13.842
14020W        W80429  44.672   9.162   1.744
14021W        W80430  26.043  41.937  11.966
14022W        W80431  34.486  19.765   1.356
14023W        W80432   0.930   7.071   3.213
14024W        W80433  16.040  41.513   1.979
14025W        W80434  25.528  42.170   0.930
14026W        W80435  39.453  32.274  14.362
14027W        W80436   4.536  43.733   0.654
14028W        W80437  20.840  29.887  14.457
14029W        W80438  35.895  42.805  10.743
14030W        W80439  17.788  18.711  12.800
14031W        W80440  27.675   6.715   3.038
14032W        W80441  33.992  23.877   1.397
14033W        W80442  44.305  34.439   0.853
14034W        W80443   0.278  44.448   3.511
14035W        W80444  14.292  20.618   3.383
14036W        W80445  31.910  34.200   3.577
14037W        W80446  38.686  27.675   2.325
14038W        W80447  11.811  42.860  14.492
14039W        W80448  29.940  19.986  14.086
14040W        W80449  17.341  44.751   1.224
14041W        W80450  19.525  23.951   0.228
14042W        W80451  28.725  41.874  11.634
14043W        W80452  40.976  18.774   3.300
14044W        W80453  23.207  38.364  11.590
14045W        W80454  15.313   0.486  10.970
14046W        W80455  39.257  23.852   3.718
14047W        W80456  27.532  12.814  14.305
14048W        W80457  13.095  44.933   1.828
14049W        W80458  26.181  12.141   1.859
14050W        W80459  42.110  34.853  12.900
14051W        W80460  13.741  29.703   0.994
14052W        W80461  13.161  42.048   1.488
14053W        W80462  28.958  15.597   1.273
14054W        W80463  18.369   4.781  14.868
14055W        W80464  44.267   4.796   1.232
14056W        W80465  28.036  34.747   4.061
14057W        W80466   4.384  34.129  12.984
14058W        W80467   8.638  12.331  11.627
14059W        W80468  41.839  40.430  10.685
14060W        W80469  14.588  40.379   0.683
14061W        W80470  27.021  31.473  13.457
14062W        W80471  40.383   3.601  12.908
14063W        W80472   3.385   8.647   4.619
14064W        W80473  30.875  41.187   5.013
14065W        W80474  40.177  24.546  13.903
14066W        W80475   8.856   9.194  11.067
14067W        W80476   7.664  16.181   0.781
14068W        W80477  42.795  37.029  12.970
14069W        W80478  22.741  41.850  12.079
14070W        W80479  43.012  20.658  11.630
14071W        W80480  24.212   4.505  13.911
14072W        W80481  38.864  26.199   5.147
14073W        W80482  19.156  28.525  11.765
14074W        W80483  33.621  30.312  14.554
14075W        W80484   8.892   5.734   4.824
14076W        W80485  20.663  15.260  14.008
14077W        W80486  30.736  18.525   5.050
14078W        W80487  14.812   2.651  14.654
14079W        W80488   0.952  37.868   0.914
14080W        W80489   1.509  41.810  11.577
14081W        W80490  10.215   5.490  11.271
14082W        W80491   6.944   6.822   0.948
14083W        W80492  33.272   5.963  13.662
14084W        W80493  38.844  13.911   2.712
14085W        W80494   4.654  35.608   9.974
14086W        W80495  32.583   5.142   2.599
14087W        W80496  17.333  14.818   4.165
14088W        W80497  43.370  31.420  12.152
14089W        W80498   1.413  34.672  14.447
14090W        W80499  25.454  22.843   1.684
14091W        W80500   5.833  22.515  10.618
14092W        W80501   4.261  18.149  10.494
14093W        W80502  28.110  28.032   4.046
14094W        W80503  15.091  11.293  12.232
14095W        W80504  28.008  14.022   0.841
14096W        W80505   2.201  21.679   0.929
14097W        W80506  39.952  14.187   4.664
14098W        W80507  10.338  28.512   1.782
14099W        W80508  34.929  17.846  13.533
14100W        W80509  10.264  21.457  11.961
14101W        W80510   6.069  32.699  12.889
14102W        W80511  15.784  21.048   1.848
14103W        W80512  20.642  36.143   3.150
14104W        W80513  12.650  23.705  13.515
14105W        W80514  41.781  10.760  11.913
14106W        W80515  42.132  18.150   2.273
14107W        W80516  32.440   4.431   0.268
14108W        W80517  24.090  44.338   1.190
14109W        W80518  34.514  22.311   4.751
14110W        W80519  40.849  41.217   0.552
14111W        W80520  13.762  14.129   1.450
14112W        W80521  20.333  13.830   1.735
14113W        W80522  29.530  25.580  12.052
14114W        W80523  36.903  28.906  14.899
14115W        W80524  22.408  20.539  13.975
14116W        W80525   2.414   7.413  14.930
14117W        W80526  32.906  31.197   3.614
14118W        W80527  28.866  43.029  14.539
14119W        W80528   5.358  39.382  13.403
14120W        W80529  22.110  11.711   2.045
14121W        W80530  22.665  17.107  12.988
14122W        W80531  39.154   5.258   2.758
14123W        W80532  31.450  33.893   1.714
14124W        W80533   4.107  32.588  11.475
14125W        W80534   5.656   3.351   2.391
14126W        W80535  31.443   0.311   2.059
14127W        W80536   3.179  36.421  14.726
14128W        W80537  26.656  13.220  13.534
14129W        W80538  36.389  43.393  12.472
14130W        W80539  40.713  36.542  12.541
14131W        W80540  10.189  21.110  10.987
14132W        W80541  19.458  28.700   3.370
14133W        W80542   3.533  30.112  12.376
14134W        W80543  36.576  21.393   2.398
14135W        W80544  29.154  17.458   2.802
14136W        W80545  27.558   6.427  11.078
14137W        W80546  40.873   7.122  11.985
14138W        W80547   0.381  36.101  11.687
14139W        W80548  19.135  36.827   1.889
14140W        W80549  35.338   5.108   2.183
14141W        W80550  20.583  39.234   2.653
14142W        W80551  21.173  22.499   0.321
14143W        W80552   7.120   3.200   3.219
14144W        W80553  22.022  39.473  11.142
14145W        W80554  31.361  24.009   0.797
14146W        W80555  41.222  21.355  12.962
14147W        W80556  40.486   4.111  13.019
14148W        W80557  37.065  26.771   3.872
14149W        W80558  31.558  40.487   3.631
14150W        W80559   1.161  17.492   0.874
14151W        W80560  42.785  41.837   1.814
14152W        W80561   3.193  34.169  13.426
14153W        W80562  31.864  36.887   0.718
14154W        W80563  35.373  24.493   3.952
14155W        W80564   2.805  26.414  13.920
14156W        W80565   8.680  41.665  14.999
14157W        W80566  25.885  10.355   4.609
14158W        W80567  22.993   9.706   3.609
14159W        W80568  39.816  21.190  13.030
14160W        W80569   1.465  42.614  13.528
14161W        W80570  38.782   6.735   1.018
14162W        W80571  27.174  11.813   4.597
14163W        W80572  25.500  17.317  13.337
14164W        W80573  26.081  33.863   3.433
14165W        W80574  34.941  17.242   1.239
14166W        W80575  13.649   2.789  12.659
14167W        W80576  18.204   8.282  11.467
14168W        W80577  18.781  34.355  14.029
14169W        W80578  21.224  33.928   0.981
14170W        W80579  34.386  43.151   2.367
14171W        W80580  20.497  26.227   0.857
14172W        W80581  44.365   2.180   2.840
14173W        W80582  31.070  25.091   2.747
14174W        W80583  15.610  36.591   1.340
14175W        W80584  40.944  17.548  11.570
14176W        W80585  42.839  13.158   4.545
14177W        W80586  22.328  37.896   2.200
14178W        W80587  36.544  43.300   4.584
14179W        W80588  14.173  26.125   4.735
14180W        W80589   7.300  20.741   1.831
14181W        W80590   9.864  10.573  12.481
14182W        W80591  10.248   1.521  12.230
14183W        W80592   1.488   3.215  11.996
14184W        W80593  18.377   6.674   0.678
14185W        W80594  27.538  20.042   1.082
14186W        W80595   9.144  40.369  11.932
14187W        W80596  43.536  15.496   1.323
14188W        W80597   3.773  43.733  11.313
14189W        W80598  14.075  29.859  12.405
14190W        W80599  41.197  13.175  11.263
14191W        W80600  13.711  43.561  12.538
14192W        W80601  33.113   2.229  11.872
14193W        W80602  40.386  39.553  11.659
14194W        W80603  18.055  38.451  14.994
14195W        W80604  42.254   5.756  13.879
14196W        W80605  17.610  41.378   0.838
14197W        W80606  32.888  43.675  12.023
14198W        W80607  19.079  23.560  12.023
14199W        W80608  36.653  34.319  12.486
14200W        W80609  15.658   7.639   4.485
14201W        W80610   9.587  16.557  12.898
14202W        W80611   1.562  11.604   4.146
14203W        W80612   9.348  44.894   1.770
14204W        W80613   4.348  32.876  12.892
14205W        W80614   9.387  21.897   1.718
14206W        W80615  28.443  10.220  11.814
14207W        W80616   5.828  35.401  13.936
14208W        W80617  12.699  17.667  12.127
14209W        W80618  25.188   6.479   4.528
14210W        W80619  22.839  11.283   4.052
14211W        W80620   5.623  33.075  12.811
14212W        W80621  39.036  44.020  10.508
14213W        W80622  14.063  22.599  13.807
14214W        W80623  26.194  20.900  13.045
14215W        W80624   7.620  17.800   3.408
14216W        W80625  13.962  39.487   2.773
14217W        W80626  24.290  14.561  14.231
14218W        W80627   1.222  22.234   3.326
14219W        W80628  38.759  39.107   2.114
14220W        W80629  16.451  33.868  12.054
14221W        W80630  18.277  26.510  12.500
14222W        W80631  22.616  35.624  12.013
14223W        W80632  30.934  33.848   4.045
14224W        W80633  20.286  17.824  13.906
14225W        W80634  36.950  17.456   3.564
14226W        W80635  41.734  13.594  13.459
14227W        W80636  20.551  38.299   1.565
14228W        W80637  19.766  37.272   3.832
14229W        W80638  27.341  42.691   4.449
14230W        W80639  39.438  33.701   1.418
14231W        W80640  19.529  17.704   1.384
14232W        W80641  18.691   3.274   2.190
14233W        W80642   9.939  39.511   1.235
14234W        W80643   0.309  11.877   2.915
14235W        W80644   3.721  32.139   3.235
14236W        W80645  34.898  37.480  10.689
14237W        W80646  18.276  30.211   1.496
14238W        W80647  21.247  26.420  14.360
14239W        W80648  35.375  23.504   2.761
14240W        W80649  14.304  35.924   4.746
14241W        W80650   5.467  27.572   0.007
14242W        W80651   3.994  30.083   4.205
14243W        W80652  37.333   8.494   3.333
14244W        W80653  17.783  43.881   0.792
14245W        W80654  19.941  37.223   2.956
14246W        W80655  19.078  20.592   1.791
14247W        W80656  41.509  16.999   4.972
14248W        W80657  13.603   4.845   1.241
14249W        W80658   6.663  23.312  14.550
14250W        W80659  14.615  34.366   0.947
14251W        W80660  40.288  32.968   3.228
14252W        W80661  41.403   7.214  10.798
14253W        W80662  34.064  13.056   2.210
14254W        W80663  21.455  40.361   3.461
14255W        W80664  26.648   8.246   1.720
14256W        W80665  24.939  32.880   3.315
14257W        W80666   2.190  19.800   2.954
14258W        W80667  19.246  34.826  10.688
14259W        W80668   0.988  12.397   3.242
14260W        W80669  32.558  37.564   0.557
14261W        W80670   6.728  41.860  12.976
14262W        W80671  20.597  39.564   4.097
14263W        W80672  21.925  16.809   4.161
14264W        W80673  13.467   4.893  13.372
14265W        W80674   5.190  17.551  14.769
14266W        W80675  18.525  23.069   0.036
14267W        W80676  11.343  38.361   2.712
14268W        W80677  43.374  38.600   3.544
14269W        W80678  18.033  32.255  11.122
14270W        W80679  32.124  42.019   0.006
14271W        W80680  25.667   6.951   4.152
14272W        W80681  21.095  21.216   1.632
14273W        W80682   8.823   8.559   3.181
14274W        W80683  27.960  25.503  14.899
14275W        W80684  23.601  26.578  12.077
14276W        W80685  26.514  21.128  13.385
14277W        W80686  13.911  15.671   0.424
14278W        W80687  26.158   9.603  12.570
14279W        W80688   5.426  36.441  10.974
14280W        W80689  40.509  19.351  11.102
14281W        W80690  34.093  23.203  12.440
14282W        W80691  11.132  23.697  10.665
14283W        W80692   9.875   7.178   2.658
14284W        W80693   0.959  37.372   2.298
14285W        W80694  32.071   3.381   1.237
14286W        W80695  35.972   0.574   3.143
14287W        W80696   0.936  27.439   1.753
14288W        W80697  43.229  24.698   1.926
14289W        W80698  18.310  36.488  14.601
14290W        W80699   6.676  17.962   0.820
14291W        W80700  33.529  36.505   4.155
14292W        W80701  20.044   2.933  10.694
14293W        W80702  27.622  34.007   1.362
14294W        W80703  14.163   4.263   1.811
14295W        W80704   5.792  37.784   1.856
14296W        W80705  35.514  33.859  14.480
14297W        W80706  40.389  29.886   2.258
14298W        W80707  23.243  20.271   0.870
14299W        W80708  23.025  44.854   1.417
14300W        W80709  43.414  28.627   4.716
14301W        W80710  29.188  12.231  12.975
14302W        W80711  11.875  27.507  14.706
14303W        W80712   8.241   1.753   2.799
14304W        W80713  22.257  40.685  10.409
14305W        W80714   9.243  10.974   1.066
14306W        W80715  15.094  33.018   4.108
14307W        W80716   9.348  26.741   4.573
14308W        W80717  28.401   0.601  10.166
14309W        W80718  19.721  17.739  13.963
14310W        W80719  28.317   1.339  10.745
14311W        W80720  20.598  36.368   4.518
14312W        W80721   9.878  43.009   0.734
14313W        W80722  25.672  38.892  13.421
14314W        W80723  41.127  15.232   4.524
14315W        W80724  23.640  12.229  11.959
14316W        W80725  20.083  43.293  14.883
14317W        W80726  11.238   5.377   4.700
14318W        W80727  16.751  12.607  12.557
14319W        W80728  28.194   6.652  14.483
14320W        W80729  43.229   1.795   3.963
14321W        W80730  10.311  30.360   4.001
14322W        W80731  10.687  22.840   2.729
14323W        W80732  27.055  14.409   1.793
14324W        W80733   6.675  37.354  12.117
14325W        W80734   0.811  23.580  11.733
14326W        W80735  29.837  37.758  14.787
14327W        W80736  22.688  21.581  13.809
14328W        W80737  23.868  15.073  12.823
14329W        W80738  40.754  15.122  12.532
14330W        W80739  44.193  26.488   1.900
14331W        W80740  33.300  23.565  13.950
14332W        W80741   8.128  32.511  10.057
14333W        W80742   0.307  19.655   1.215
14334W        W80743  24.697  33.191   4.240
14335W        W80744  18.068  36.197   1.776
14336W        W80745  26.563   5.635   4.072
14337W        W80746  37.315   6.323   1.933
14338W        W80747   0.861   2.962   2.482
14339W        W80748  42.989  31.897  14.877
14340W        W80749  23.117  31.792  14.935
14341W        W80750   4.916   0.564   5.012
14342W        W80751  31.157  16.618  12.093
14343W        W80752  15.717  41.839   2.296
14344W        W80753  41.813  17.078   2.224
14345W        W80754  29.238  33.492  10.648
14346W        W80755  10.127  21.673   3.832
14347W        W80756  42.471   3.786   0.804
14348W        W80757  10.262  15.684   4.281
14349W        W80758  21.500  19.447   4.141
14350W        W80759   6.290   0.300   0.835
14351W        W80760  41.881  39.957   4.082
14352W        W80761  28.731  23.504   1.419
14353W        W80762  20.180  33.598  10.802
14354W        W80763  17.683  32.414   4.219
14355W        W80764  32.454   6.798   4.689
14356W        W80765  33.831  15.226   2.654
14357W        W80766  33.540  40.830   0.323
14358W        W80767  36.727  10.870   2.240
14359W        W80768  15.833   1.828  11.623
14360W        W80769  31.892  15.114  14.968
14361W        W80770  11.446  29.177  14.492
14362W        W80771  39.584  26.466  11.335
14363W        W80772  10.965  16.072  10.747
14364W        W80773  22.145  20.715  11.765
14365W        W80774  18.539  15.047  11.661
14366W        W80775   0.760  30.730  11.155
14367W        W80776  17.131  19.410  13.051
14368W        W80777  11.242  10.690   1.301
14369W        W80778  32.196  31.587  14.279
14370W        W80779   2.793  43.837   4.463
14371W        W80780  12.127   0.402   3.144
14372W        W80781  42.953   6.914  14.260
14373W        W80782  12.372  16.375   4.631
14374W        W80783  16.264  14.894  14.158
14375W        W80784  44.433   7.404  14.991
14376W        W80785  13.656   4.273  12.089
14377W        W80786  12.291  14.638  11.063
14378W        W80787  11.591  38.748   4.121
14379W        W80788  17.017  16.923  14.104
14380W        W80789  26.493   6.655   4.172
14381W        W80790  32.637  27.093  12.096
14382W        W80791  29.856  12.800   2.433
14383W        W80792   8.905  44.150  14.513
14384W        W80793  38.795  28.241   3.697
14385W        W80794  24.588  20.243  14.430
14386W        W80795  25.979  22.163   2.325
14387W        W80796  22.655   2.088  11.140
14388W        W80797  21.694  20.018  13.993
14389W        W80798  29.534  17.870  10.705
14390W        W80799  22.304  29.216  11.037
14391W        W80800  27.126  29.497   2.679
14392W        W80801  42.491   5.361   3.258
14393W        W80802  44.490  39.953   1.979
14394W        W80803  35.360  36.086   4.782
14395W        W80804   7.248  14.142   1.637
14396W        W80805  24.672  15.242   0.202
14397W        W80806   2.400  20.572  13.416
14398W        W80807   5.316  11.710  11.650
14399W        W80808   0.945  34.025  10.728
14400W        W80809   1.416   4.951   3.634
14401W        W80810   7.934  24.259   3.175
14402W        W80811  29.154  40.900  13.555
14403W        W80812  13.973   3.367  13.961
14404W        W80813  11.142  34.073  12.205
14405W        W80814  29.167  19.325  13.254
14406W        W80815  13.455  12.006   0.797
14407W        W80816  38.462  12.653  10.450
14408W        W80817  36.603   5.925  14.427
14409W        W80818  38.498  43.423   4.109
14410W        W80819  30.957  29.178   0.744
14411W        W80820   2.525  19.328  12.779
14412W        W80821  36.563  20.713   0.699
14413W        W80822  22.518   4.352   1.667
14414W        W80823  17.108   9.873  14.111
14415W        W80824  24.588  43.534  13.832
14416W        W80825  32.170  44.913  14.068
14417W        W80826  20.131  42.738  14.840
14418W        W80827  11.755  44.468   3.534
14419W        W80828  23.110  12.802  14.910
14420W        W80829  42.767  38.043  11.993
14421W        W80830   1.907  42.699  11.485
14422W        W80831  30.511  35.771   0.864
14423W        W80832  39.907  35.624   0.108
14424W        W80833  12.741  44.358   2.531
14425W        W80834  25.619  31.757   0.802
14426W        W80835  22.641   8.394  14.803
14427W        W80836  31.708   9.131  13.958
14428W        W80837  14.568  29.948  13.277
14429W        W80838  40.843  11.775   2.817
14430W        W80839   2.605  16.952   1.004
14431W        W80840  27.372  14.067   2.603
14432W        W80841  19.149  15.057  12.951
14433W        W80842   6.834  32.921   3.140
14434W        W80843  40.307  12.668   4.000
14435W        W80844  19.030  35.219   0.213
14436W        W80845  30.551  22.497  13.021
14437W        W80846  30.510  12.025   0.342
14438W        W80847  13.428   1.268   0.004
14439W        W80848  10.478  29.633  12.419
14440W        W80849  10.111  38.601  11.536
14441W        W80850  30.822  17.277   0.800
14442W        W80851  21.406  29.550  14.748
14443W        W80852   7.310  18.671  14.840
14444W        W80853   9.187   8.044   0.745
14445W        W80854  14.705   7.607   3.331
14446W        W80855  37.849  13.268   2.204
14447W        W80856  39.942   7.083  14.291
14448W        W80857   8.384  44.546   4.722
14449W        W80858  42.253  25.965  14.439
14450W        W80859  34.965  16.782   3.861
14451W        W80860   9.329  29.453   1.836
14452W        W80861  21.014   6.897  14.132
14453W        W80862  21.713  38.919  10.718
14454W        W80863  32.622   7.707   3.638
14455W        W80864  18.644  12.807   4.039
14456W        W80865   2.858   6.088  11.198
14457W        W80866  42.312  32.114   4.640
14458W        W80867  35.408  17.244  12.647
14459W        W80868  25.560  41.264   0.411
14460W        W80869   1.964  26.667  14.744
14461W        W80870  40.444  44.456  11.677
14462W        W80871  42.177  38.357   0.383
14463W        W80872   4.932  31.354  14.200
14464W        W80873  37.859  10.350  10.255
14465W        W80874  16.747  34.682   3.736
14466W        W80875  37.908  27.642  11.139
14467W        W80876   8.398  43.468  14.883
14468W        W80877  43.838  40.921   2.710
14469W        W80878  15.043  16.688  14.803
14470W        W80879  40.572   4.330  11.688
14471W        W80880  24.971   0.003   0.863
14472W        W80881   8.590  38.318  12.141
14473W        W80882  40.698  10.112   4.683
14474W        W80883  11.935  34.018  13.397
14475W        W80884   7.181  10.274   1.405
14476W        W80885  25.071  28.238  14.514
14477W        W80886  16.272   7.857  10.437
14478W        W80887  28.424  15.047  14.533
14479W        W80888  17.882  28.351  11.712
14480W        W80889  15.434  38.786  13.100
14481W        W80890  35.382  21.968   2.732
14482W        W80891  23.823  36.548   0.836
14483W        W80892   8.461   6.507   1.409
14484W        W80893  13.289  44.477  12.117
14485W        W80894  44.580  27.746   1.413
14486W        W80895  16.347  37.595   0.470
14487W        W80896  22.339   3.388  14.378
14488W        W80897  32.720  25.613  11.837
14489W        W80898  40.293  24.349  12.112
14490W        W80899  38.507  32.932  14.875
14491W        W80900  33.596  30.400  13.029
14492W        W80901  29.378  12.041  13.904
14493W        W80902  23.950  17.321   2.140
14494W        W80903  29.665  33.419  13.543
14495W        W80904   6.236  23.560  12.470
14496W        W80905   0.918  28.867  12.440
14497W        W80906  34.411   2.241  13.497
14498W        W80907  16.084  14.553  14.511
14499W        W80908   5.696  32.671   2.290
14500W        W80909  29.475  35.792  14.787
14501W        W80910  38.762  15.483   1.367
14502W        W80911  28.512   1.441  11.204
14503W        W80912  26.560  32.695  11.029
14504W        W80913   9.242  21.333  11.202
14505W        W80914  14.928  21.559   0.826
14506W        W80915  29.928   8.796  12.519
14507W        W80916   9.225  36.295  11.191
14508W        W80917  17.315   9.401   3.171
14509W        W80918   5.227  14.196   0.434
14510W        W80919  22.581  41.484  12.514
14511W        W80920  24.591  39.781   1.967
14512W        W80921  27.216  19.011  14.181
14513W        W80922   4.313  41.700  12.439
14514W        W80923  22.367  18.466   5.020
14515W        W80924   9.634  23.292  11.078
14516W        W80925   2.214   4.870   4.102
14517W        W80926  18.637  30.241  13.039
14518W        W80927  42.400  12.870  14.382
14519W        W80928  41.884  22.169   1.776
14520W        W80929   9.227  19.527  13.922
14521W        W80930  44.458  30.027  13.927
14522W        W80931  21.200  16.508   4.614
14523W        W80932  12.099   7.655  11.539
14524W        W80933   3.585  34.648  14.667
14525W        W80934  16.702  17.750  13.380
14526W        W80935  29.611  36.595  11.700
14527W        W80936   0.888   1.468  10.742
14528W        W80937   9.884  43.171  10.128
14529W        W80938  43.189  11.707  10.136
14530W        W80939  17.818  13.331   2.807
14531W        W80940  29.917  24.925  14.109
14532W        W80941  33.074   0.488   0.967
14533W        W80942   0.496  26.677   2.346
14534W        W80943  26.934  35.392   0.229
14535W        W80944  42.155   9.882  11.675
14536W        W80945   0.809   2.392  14.723
14537W        W80946  38.926  21.583   0.491
14538W        W80947  42.816  28.067  11.468
14539W        W80948  28.146  20.678  11.469
14540W        W80949  17.567   7.605  11.530
14541W        W80950  12.446  44.930  12.157
14542W        W80951  20.313  36.031  10.576
14543W        W80952  40.707  35.326  12.881
14544W        W80953  16.819   0.260  12.074
14545W        W80954  40.460  40.838  14.906
14546W        W80955  22.943  40.439   1.931
14547W        W80956  19.347  13.789  12.828
14548W        W80957  18.563  37.428  10.076
14549W        W80958  18.635   5.726  14.812
14550W        W80959  34.800   8.424  10.951
14551W        W80960  29.752  14.993   4.293
14552W        W80961  14.630  31.191   2.846
14553W        W80962  25.987  43.573   2.164
14554W        W80963   9.324  16.544   1.508
14555W        W80964  25.426  13.188   4.839
14556W        W80965  39.419   2.682  14.552
14557W        W80966  21.336  14.619  10.683
14558W        W80967  19.774  40.826   2.855
14559W        W80968  23.476   6.181  13.449
14560W        W80969  31.188  11.776  12.781
14561W        W80970  38.945  34.418  12.638
14562W        W80971  32.896  27.855   0.337
14563W        W80972  16.255  23.034   5.175
14564W        W80973  26.482  21.154   2.335
14565W        W80974  42.807  35.536  13.826
14566W        W80975  41.227  29.591   1.626
14567W        W80976  28.637  35.209  13.927
14568W        W80977  32.455  10.536  12.826
14569W        W80978  18.427  35.377  12.504
14570W        W80979  19.172   7.905  11.533
14571W        W80980  42.897  18.627   1.006
14572W        W80981   4.671  35.633  12.033
14573W        W80982  17.282   1.170   1.171
14574W        W80983   2.137   4.388   0.786
14575W        W80984  22.257  30.171  11.662
14576W        W80985  16.085   9.822   3.635
14577W        W80986  30.585  18.663  14.195
14578W        W80987   7.198   1.321   1.401
14579W        W80988  36.560  35.495   0.516
14580W        W80989  39.071  20.057  11.647
14581W        W80990  33.360  39.265   4.554
14582W        W80991  34.027   5.223   1.036
14583W        W80992  31.122  29.195  11.225
14584W        W80993  25.799   3.932   4.160
14585W        W80994  38.917  25.442   2.298
14586W        W80995  22.535  10.211   2.806
14587W        W80996  42.488  26.021   2.917
14588W        W80997  22.705  27.291  11.502
14589W        W80998  24.982  10.358   4.602
14590W        W80999  35.191  17.192   0.777
14591W        W81000  24.776  43.558  14.296
14592W        W81001  29.459  43.232   1.772
14593W        W81002  44.497  43.580  12.429
14594W        W81003   9.200  19.234   1.098
14595W        W81004   8.157  18.255   0.797
14596W        W81005  15.634  37.784   0.832
14597W        W81006  18.648  43.552  12.925
14598W        W81007  27.726  17.650   0.560
14599W        W81008  30.187  10.724   1.729
14600W        W81009  43.260   9.237   3.160
14601W        W81010  27.719  11.013   0.493
14602W        W81011  29.632  16.263   2.874
14603W        W81012  26.681  15.348   0.039
14604W        W81013  14.487  34.038   0.228
14605W        W81014  31.511   6.557   2.873
14606W        W81015   1.004  31.145  11.044
14607W        W81016   1.960  37.493   1.393
14608W        W81017  42.672   3.446  12.535
14609W        W81018  22.993  22.823   1.868
14610W        W81019  23.041  11.881   1.708
14611W        W81020  12.648  25.252  12.635
14612W        W81021  26.210   9.398   2.373
14613W        W81022  37.121  30.653   0.399
14614W        W81023  39.934  23.438  14.731
14615W        W81024  41.825  42.008   1.610
14616W        W81025   7.425  15.034  13.704
14617W        W81026   7.192  12.147   1.725
14618W        W81027   2.212  13.138   4.181
14619W        W81028  33.591  27.580   1.315
14620W        W81029  37.111  44.950   1.336
14621W        W81030  22.247  25.010   2.751
14622W        W81031  20.077   0.892  13.496
14623W        W81032  35.152  28.229  11.648
14624W        W81033  20.569  20.591  14.324
14625W        W81034  37.827  26.069  12.942
14626W        W81035  19.158  40.551   4.600
14627W        W81036  35.372  29.864   2.267
14628W        W81037   4.885  21.080  11.882
14629W        W81038  10.946  39.490  14.493
14630W        W81039   6.688  25.354   3.211
14631W        W81040  21.261  34.439   0.910
14632W        W81041  34.929  36.383   4.649
14633W        W81042  39.426  27.514   3.324
14634W        W81043  26.423  38.789  11.573
14635W        W81044   8.917  43.713  10.695
14636W        W81045  14.974  43.701   3.664
14637W        W81046   0.905   5.200   0.846
14638W        W81047  21.765   5.906  13.929
14639W        W81048  11.991  35.083   2.757
14640W        W81049  20.297  22.231  11.164
14641W        W81050   9.853  39.585   3.164
14642W        W81051   0.676  16.787  14.461
14643W        W81052   8.359  20.082   2.810
14644W        W81053  24.860   0.578  13.797
14645W        W81054   3.815  42.391   4.572
14646W        W81055  11.844   8.611   3.603
14647W        W81056  39.049   8.634  14.769
14648W        W81057  24.459  42.498   4.803
14649W        W81058  29.595   2.841   4.445
14650W        W81059  23.145  33.117  13.862
14651W        W81060   6.181  16.329   1.191
14652W        W81061   7.247  36.898   1.032
14653W        W81062  25.011  26.648  12.413
14654W        W81063  18.326  19.991   3.660
14655W        W81064   9.686  44.843  13.682
14656W        W81065  43.880   5.299  11.696
14657W        W81066  20.881  25.985  14.766
14658W        W81067  38.695  30.629  12.525
14659W        W81068  40.170  18.415  14.833
14660W        W81069  35.563   2.361  11.464
14661W        W81070  23.111  26.874  12.077
14662W        W81071  37.612  27.596  14.846
14663W        W81072   6.775  19.991   0.663
14664W        W81073  21.781  16.308   4.105
14665W        W81074  43.253  15.659   2.310
14666W        W81075  21.045  10.093  11.052
14667W        W81076  14.362   9.128   2.304
14668W        W81077   3.742   0.198  14.255
14669W        W81078  35.691  42.851   1.869
14670W        W81079  35.930   3.890  11.350
14671W        W81080  36.369  19.115  10.299
14672W        W81081  40.008  16.031  12.693
14673W        W81082   7.193  39.489   0.997
14674W        W81083  37.445  19.220   4.465
14675W        W81084  15.746  13.322   2.461
14676W        W81085  44.822  44.479   1.499
14677W        W81086  12.058  26.490  12.036
14678W        W81087  20.603  19.582   1.782
14679W        W81088  37.093  23.465  13.008
14680W        W81089  34.925  23.728  12.421
14681W        W81090  36.668   0.325   4.581
14682W        W81091  25.691  20.378   2.805
14683W        W81092   8.703   6.888   3.675
14684W        W81093  21.528  20.999   2.401
14685W        W81094  10.189  12.602   5.018
14686W        W81095   1.601  29.157  13.301
14687W        W81096   0.022  15.671   1.181
14688W        W81097  30.879  40.505   2.985
14689W        W81098   4.829  33.714   3.636
14690W        W81099  41.842  17.030  11.089
14691W        W81100  34.970  29.975   4.038
14692W        W81101  13.875  10.689  11.034
14693W        W81102  17.050  39.456  12.310
14694W        W81103  21.199  36.076  10.193
14695W        W81104  38.854  25.043  10.364
14696W        W81105  35.276   4.840  10.340
14697W        W81106  17.487  38.266  13.868
14698W        W81107  27.761  31.519  13.872
14699W        W81108  12.325  36.392   2.396
14700W        W81109  15.637   1.982  10.334
14701W        W81110  34.492  21.062   4.502
14702W        W81111  31.968  41.376   4.593
14703W        W81112   4.800  30.363   3.036
14704W        W81113   1.253  14.723  14.375
14705W        W81114   9.904   3.324   1.430
14706W        W81115  42.285  25.460   3.823
14707W        W81116  26.104   2.954  11.546
14708W        W81117  34.902  13.274  12.709
14709W        W81118  40.003  34.013   1.800
14710W        W81119  26.211  16.906  10.588
14711W        W81120  29.926   8.247  10.977
14712W        W81121  16.967  40.372  14.000
14713W        W81122   2.213   6.762   4.918
14714W        W81123  19.748  21.489   1.428
14715W        W81124  22.558   8.213  11.433
14716W        W81125  44.030  39.126   4.587
14717W        W81126   6.732  43.509  14.500
14718W        W81127   4.393   4.820   0.807
14719W        W81128  28.492   9.154  11.158
14720W        W81129  33.309  30.912  13.843
14721W        W81130  27.116   3.466   2.383
14722W        W81131   4.170  41.270  11.104
14723W        W81132  26.421   8.659   2.339
14724W        W81133   2.301  20.710   1.883
14725W        W81134  33.975  14.622  14.441
14726W        W81135  36.293  41.407  13.370
14727W        W81136   2.378  25.657  14.284
14728W        W81137  36.211  20.299   1.786
14729W        W81138  30.193  44.369   0.716
14730W        W81139  15.800  35.869   3.173
14731W        W81140  39.829   6.867   1.963
14732W        W81141  17.503   0.438   1.789
14733W        W81142   4.973  36.132  14.897
14734W        W81143  11.090  13.083   3.889
14735W        W81144  15.860  34.421  10.663
14736W        W81145  10.849  41.281  14.753
14737W        W81146  17.280   9.855  12.576
14738W        W81147  42.842   7.727  10.562
14739W        W81148  28.670  32.336  12.473
14740W        W81149  38.280  23.028  11.679
14741W        W81150  23.213  34.074  12.671
14742W        W81151   7.097   9.930  14.701
14743W        W81152  30.434  44.436   1.472
14744W        W81153  38.952   5.987  11.967
14745W        W81154  31.483  23.146   0.928
14746W        W81155  25.846  26.232   0.885
14747W        W81156  15.269   6.183  12.987
14748W        W81157  11.302  14.915  13.959
14749W        W81158  11.609  18.127  10.801
14750W        W81159  10.888  29.464  13.884
14751W        W81160  14.846  27.437   0.944
14752W        W81161  11.927  14.210  10.652
14753W        W81162  40.335  23.638   4.009
14754W        W81163   1.462  33.827  12.149
14755W        W81164  32.866  11.592   4.153
14756W        W81165  22.064  38.853   2.275
14757W        W81166  30.403  18.099   0.819
14758W        W81167  27.669  10.914   4.933
14759W        W81168   9.841  26.048   3.078
14760W        W81169  43.822  17.075   2.234
14761W        W81170  41.534  13.236   4.184
14762W        W81171   6.404   1.358  14.891
14763W        W81172  43.551   9.826   9.868
14764W        W81173  31.166  18.043   2.592
14765W        W81174  28.612  29.012   3.729
14766W        W81175  13.402  38.079  13.137
14767W        W81176  13.598   8.694  12.218
14768W        W81177  32.379  14.217   2.849
14769W        W81178  26.620  43.328   2.869
14770W        W81179  30.174  13.765  13.435
14771W        W81180  38.658  37.166  11.977
14772W        W81181   2.250   2.995   0.176
14773W        W81182  23.725  32.533  10.556
14774W        W81183  35.362  11.750   2.214
14775W        W81184  30.934  17.528  12.050
14776W        W81185   4.517  11.357   3.435
14777W        W81186  44.358  26.922   0.368
14778W        W81187  13.219  26.391  12.936
14779W        W81188  25.035  24.734  12.494
14780W        W81189  14.110  14.554   4.266
14781W        W81190  26.897   9.842  12.487
14782W        W81191   5.277  29.475  13.745
14783W        W81192  37.417  42.298   1.486
14784W        W81193  33.793  20.134  12.744
14785W        W81194  34.473  12.319  11.077
14786W        W81195   3.284   4.490   1.451
14787W        W81196  28.547  11.950  12.455
14788W        W81197  24.482  41.990  13.885
14789W        W81198  14.533  30.563  13.491
14790W        W81199  23.588  23.995  11.930
14791W        W81200  22.732  34.102  11.160
14792W        W81201  26.374  43.392  13.211
14793W        W81202   0.492  21.680   4.482
14794W        W81203   9.205   6.172   0.860
14795W        W81204  19.491   8.342  11.002
14796W        W81205  19.012  30.546   3.298
14797W        W81206  32.997  11.130  11.545
14798W        W81207  31.430   8.417   2.935
14799W        W81208  12.220  11.096  14.807
14800W        W81209   8.275  12.128   2.047
14801W        W81210  11.118   4.164   5.906
14802W        W81211  41.562  14.395   2.769
14803W        W81212  17.547  34.390   3.158
14804W        W81213   1.240  27.021  11.822
14805W        W81214  41.793  13.126   2.259
14806W        W81215   2.185  39.505  12.395
14807W        W81216  28.193  32.305   2.483
14808W        W81217  29.518  20.130   4.174
14809W        W81218  19.511  22.758   4.306
14810W        W81219  40.076  21.116  13.480
14811W        W81220   8.829  40.389   1.927
14812W        W81221  10.770  37.792  13.002
14813W        W81222  15.524  34.009  10.693
14814W        W81223  29.594  41.803  12.933
14815W        W81224  34.877  24.469   0.885
14816W        W81225  23.052   0.636  12.991
14817W        W81226  33.352  12.266  13.791
14818W        W81227  42.916  39.839  14.513
14819W        W81228  31.085   2.196   4.957
14820W        W81229  15.001  14.624   0.196
14821W        W81230  29.359   6.236   1.888
14822W        W81231  14.737  19.567   4.913
14823W        W81232  44.320  44.147   0.452
14824W        W81233  15.133  12.143   4.156
14825W        W81234  18.171  12.558  12.334
14826W        W81235  35.069  42.580  12.886
14827W        W81236  32.061  32.453  11.504
14828W        W81237  13.244  30.057  14.738
14829W        W81238  18.199  14.681  12.047
14830W        W81239  41.045  42.247   0.992
14831W        W81240  20.103  10.972   3.686
14832W        W81241  42.039  20.556  11.355
14833W        W81242   6.850  18.830   3.053
14834W        W81243   0.895  44.874  12.816
14835W        W81244  16.779  40.077   2.753
14836W        W81245   2.433  27.799  14.121
14837W        W81246   4.176  17.386  12.867
14838W        W81247  22.070  42.604  11.501
14839W        W81248   2.875  29.970   4.620
14840W        W81249  44.625  13.946  12.042
14841W        W81250  21.609  16.645  13.046
14842W        W81251  32.194  42.382   0.389
14843W        W81252  29.098  33.953   3.969
14844W        W81253  37.429  38.513  11.583
14845W        W81254  16.569  37.674  12.507
14846W        W81255  32.329  12.117  11.660
14847W        W81256  22.852  41.535   0.934
14848W        W81257   6.494   4.897  10.906
14849W        W81258   5.313  21.748  13.144
14850W        W81259   6.316  40.363   4.110
14851W        W81260  13.623  26.151  13.173
14852W        W81261  29.919  35.867   1.903
14853W        W81262  28.354  28.877   0.681
14854W        W81263   3.764  21.667   2.273
14855W        W81264  15.507  43.750  14.053
14856W        W81265   5.268  38.656  14.489
14857W        W81266  31.986  44.517  11.571
14858W        W81267  25.991  44.386  12.524
14859W        W81268  23.957  20.963  14.901
14860W        W81269  31.123  28.306  14.622
14861W        W81270  35.135  32.271   2.123
14862W        W81271   7.848  34.832   2.818
14863W        W81272  18.932  44.545   1.166
14864W        W81273  27.683  42.282  12.109
14865W        W81274  18.413  35.824   1.917
14866W        W81275   1.705  12.832  11.163
14867W        W81276  39.320  42.991   0.850
14868W        W81277  23.744  39.311  11.751
14869W        W81278  15.635  41.408  11.669
14870W        W81279  40.565   3.323  13.941
14871W        W81280  33.210  11.840   2.806
14872W        W81281  36.358   0.861   3.898
14873W        W81282  30.113  43.735  14.996
14874W        W81283   7.932  31.667   3.228
14875W        W81284  13.911  27.051   4.158
14876W        W81285  43.511  13.274  10.391
14877W        W81286  12.068   3.071  10.609
14878W        W81287   4.617  24.747   2.846
14879W        W81288   6.152   5.126   4.693
14880W        W81289  32.974   6.039   1.549
14881W        W81290  30.921   0.594  13.492
14882W        W81291  23.409  12.227  12.805
14883W        W81292   4.897  33.839  14.625
14884W        W81293  31.143  44.585   1.797
14885W        W81294  14.304   3.710   4.570
14886W        W81295  15.501  24.624   1.661
14887W        W81296   9.551  24.025  10.279
14888W        W81297  31.945  10.841   4.238
14889W        W81298  30.776  12.333  11.622
14890W        W81299  15.832  17.495   2.805
14891W        W81300  12.271  25.777  11.572
14892W        W81301  25.561  21.975  12.545
14893W        W81302  13.053   9.205   2.640
14894W        W81303  39.560   7.875  14.841
14895W        W81304  28.160  20.078  14.397
14896W        W81305   9.668  22.811  10.763
14897W        W81306  25.672  33.232   5.384
14898W        W81307  13.737  31.075   2.789
14899W        W81308  22.105  33.570  10.784
14900W        W81309  10.269   1.666  12.776
14901W        W81310  23.991  35.768   3.738
14902W        W81311  21.251  27.164  13.486
14903W        W81312  34.832  11.955  11.016
14904W        W81313  30.585  30.568   4.661
14905W        W81314  21.185   0.361   4.693
14906W        W81315  12.747  23.599  11.733
14907W        W81316   7.943  37.208   2.778
14908W        W81317   4.459   6.275  11.439
14909W        W81318  25.232  17.310   4.549
14910W        W81319  43.964  32.002   2.162
14911W        W81320  17.331  39.462  10.590
14912W        W81321  27.703   5.610  12.033
14913W        W81322  40.522  34.948  10.368
14914W        W81323  16.669  12.565   1.121
14915W        W81324  27.535   1.757   4.095
14916W        W81325  13.297   2.621   4.193
14917W        W81326  27.762   9.597  11.576
14918W        W81327  36.158  37.872  10.506
14919W        W81328  13.506  18.567  13.905
14920W        W81329  18.913   0.976   0.379
14921W        W81330  10.553  14.213   0.343
14922W        W81331  35.720   5.447   9.194
14923W        W81332  24.029  42.841   5.065
14924W        W81333  38.968   2.883  12.067
14925W        W81334   0.248   1.861   0.941
14926W        W81335  18.605  34.325  11.866
14927W        W81336   7.095  14.672   3.351
14928W        W81337  43.549  31.694   0.887
14929W        W81338  27.551   9.941  11.909
14930W        W81339  41.482  10.420   1.223
14931W        W81340  28.342  44.744  13.676
14932W        W81341  34.787  19.974   5.073
14933W        W81342  11.346  42.430  11.470
14934W        W81343  11.877  21.978  10.625
14935W        W81344  43.024  44.304  13.667
14936W        W81345  36.818  18.987   2.263
14937W        W81346   3.832  20.588  13.879
14938W        W81347   1.996  29.733   1.280
14939W        W81348  21.199  30.424   2.596
14940W        W81349   0.883  19.664   0.465
14941W        W81350  11.873   9.179  11.211
14942W        W81351   3.848  29.923   2.780
14943W        W81352  43.325  26.095  13.072
14944W        W81353  30.453  30.647  13.904
14945W        W81354   9.600  11.782  11.665
14946W        W81355   3.891  36.893  10.651
14947W        W81356  18.123  22.641   2.607
14948W        W81357  23.590  20.561   0.472
14949W        W81358   8.611  15.051  11.472
14950W        W81359  17.804  35.371   4.214
14951W        W81360  25.636   5.204   4.346
14952W        W81361   7.878  36.088  11.731
14953W        W81362  15.161  39.420   1.930
14954W        W81363  37.368   4.262   3.620
14955W        W81364  11.218  10.369  11.205
14956W        W81365  22.091  18.473   1.558
14957W        W81366  30.162  35.581   0.466
14958W        W81367  23.649  35.868   4.131
14959W        W81368  24.136  20.681   9.916
14960W        W81369  40.766  39.668  13.789
14961W        W81370  38.508  15.076   3.242
14962W        W81371  15.088  36.442  11.766
14963W        W81372  43.990  44.250  14.910
14964W        W81373   5.437  33.308  10.674
14965W        W81374  16.382  28.752  13.552
14966W        W81375  14.551  28.005   4.948
14967W        W81376  10.236  41.361   1.475
14968W        W81377  32.273  15.726  10.106
14969W        W81378  24.067  42.225   2.165
14970W        W81379  35.296  23.294  14.939
14971W        W81380   0.857  38.469  13.717
14972W        W81381   4.548   2.967   0.061
14973W        W81382   8.831  10.588  14.160
14974W        W81383  17.736   3.642  14.163
14975W        W81384  36.937  17.254   1.108
14976W        W81385  22.770  43.988   2.356
14977W        W81386  26.686  14.851   4.008
14978W        W81387  25.657   8.612   2.881
14979W        W81388   9.277  25.462   0.350
14980W        W81389  12.095  41.779  10.663
14981W        W81390  37.941  26.247   1.925
14982W        W81391   9.833   3.719  12.210
14983W        W81392  27.077  30.986   0.862
14984W        W81393  16.227  12.166  13.801
14985W        W81394   2.197  32.861  12.887
14986W        W81395   1.193   2.339  12.063
14987W        W81396  34.892  26.280  14.238
14988W        W81397   2.490  10.217   4.890
14989W        W81398  40.413  38.411   1.368
14990W        W81399   5.981   7.053   1.842
14991W        W81400  11.831  36.231  13.483
14992W        W81401  32.304  35.840   1.614
14993W        W81402  29.159   9.692   1.761
14994W        W81403   1.410  37.024  11.902
14995W        W81404  19.114  15.131  10.663
14996W        W81405  32.447   7.181   3.713
14997W        W81406  13.234  34.987   5.231
14998W        W81407   6.793  17.610   2.780
14999W        W81408  21.302  29.176  13.003
15000W        W81409  31.608  21.606  10.500
15001W        W81410  29.346  41.764   1.922
15002W        W81411  13.105  32.823  11.982
15003W        W81412   5.169  21.699  11.668
15004W        W81413   4.737  43.378   0.326
15005W        W81414   6.012  31.574  11.988
15006W        W81415  12.641  22.056  13.585
15007W        W81416  23.747   5.898   2.488
15008W        W81417  38.970  19.106  10.973
15009W        W81418  36.579  41.956   4.197
15010W        W81419  16.139   2.213   2.190
15011W        W81420  13.165  26.245   3.274
15012W        W81421  23.832  20.128  13.046
15013W        W81422  13.716   3.430  11.014
15014W        W81423  22.955   4.197   1.911
15015W        W81424  29.063   8.303  13.808
15016W        W81425  26.480  16.685   0.255
15017W        W81426  22.395   9.836   1.318
15018W        W81427  22.461  19.179   3.281
15019W        W81428  13.068   7.719  10.675
15020W        W81429  43.891  17.223  10.816
15021W        W81430  35.006  30.280   1.196
15022W        W81431  41.029  34.674  11.998
15023W        W81432  29.896   1.876   0.911
15024W        W81433   5.472  25.625  11.484
15025W        W81434   3.145   1.267   3.921
15026W        W81435  19.185  26.548   3.595
15027W        W81436  40.431  17.146   0.958
15028W        W81437  13.100  31.484   4.879
15029W        W81438  10.800   8.422   4.104
15030W        W81439  19.682  33.615   2.910
15031W        W81440   6.111  35.966  10.645
15032W        W81441  38.452  36.959  14.801
15033W        W81442  14.699  17.807   2.391
15034W        W81443  36.670  43.973  11.207
15035W        W81444  12.825   7.765  13.892
15036W        W81445   0.827   6.535   3.257
15037W        W81446  33.554   1.721   0.210
15038W        W81447  11.246  29.240  11.332
15039W        W81448  25.832   1.945   0.764
15040W        W81449  26.339   1.831   0.749
15041W        W81450  32.629  19.457  13.961
15042W        W81451   0.903  24.922  14.018
15043W        W81452  28.038  29.598  12.070
15044W        W81453  30.627  39.125  14.433
15045W        W81454  40.648  33.161   3.557
15046W        W81455  17.707  27.560  14.872
15047W        W81456  23.258  26.157   4.619
15048W        W81457   3.505  23.272   0.494
15049W        W81458  31.370   7.827  14.009
15050W        W81459  10.824  10.917   2.285
15051W        W81460  28.517   2.883   2.347
15052W        W81461  29.361  25.391  11.614
15053W        W81462  26.899  44.312  14.863
15054W        W81463   3.965  38.859  11.619
15055W        W81464  12.431  38.956  13.115
15056W        W81465  16.505  40.482  11.642
15057W        W81466   3.157  16.672  13.690
15058W        W81467  23.670  44.518   0.927
15059W        W81468  10.246   8.589   2.318
15060W        W81469  17.037  13.115  11.209
15061W        W81470  36.734   5.555  12.610
15062W        W81471  31.329  17.610  13.771
15063W        W81472  21.245  25.730   1.385
15064W        W81473  13.851  21.425  12.911
15065W        W81474  31.145  31.376   0.800
15066W        W81475  28.317  25.310   5.048
15067W        W81476  15.831  14.893  12.512
15068W        W81477  42.431  14.897  14.611
15069W        W81478  24.192  29.461   1.779
15070W        W81479  22.163  36.175  10.848
15071W        W81480  18.400  12.695   0.687
15072W        W81481  25.240  19.152  13.576
15073W        W81482  37.117  40.365  12.185
15074W        W81483  32.198  27.332   2.803
15075W        W81484  42.926  11.444   9.782
15076W        W81485  33.928  28.934   1.756
15077W        W81486   6.509   7.722   2.347
15078W        W81487  22.088   4.649   0.013
15079W        W81488  36.310  16.767   1.265
15080W        W81489  20.590  24.442  12.054
15081W        W81490  26.562  30.145  13.184
15082W        W81491   1.424  21.073  11.528
15083W        W81492  17.121  19.681  11.539
15084W        W81493  15.823  20.732  14.367
15085W        W81494  15.309  21.059   2.093
15086W        W81495  41.260  19.095   4.865
15087W        W81496  12.767  37.228   5.147
15088W        W81497  27.961  38.459  12.029
15089W        W81498  20.310  20.197  13.748
15090W        W81499   0.481  30.212  12.360
15091W        W81500  13.290  41.597  13.331
15092W        W81501  39.118  24.981  14.806
15093W        W81502   8.804  44.992  13.499
15094W        W81503  13.409  25.266  11.548
15095W        W81504  28.328  31.018   2.135
15096W        W81505  27.928  16.711   4.076
15097W        W81506   8.502  16.171   2.935
15098W        W81507  17.186  14.168  10.223
15099W        W81508   2.105  24.108  13.919
15100W        W81509  43.740  40.464   4.129
15101W        W81510  35.473  20.812  12.627
15102W        W81511  44.355  36.775   3.673
15103W        W81512  14.773  21.287   1.263
15104W        W81513  39.405  10.361   1.748
15105W        W81514  39.327  38.091   1.439
15106W        W81515  22.330  30.161  12.371
15107W        W81516  22.626  30.498   5.078
15108W        W81517  31.096  33.436  10.767
15109W        W81518   3.660   3.627   0.348
15110W        W81519   8.904  39.909  11.509
15111W        W81520  20.079   9.329   1.194
15112W        W81521   3.442   1.774   2.857
15113W        W81522   3.350  24.544   2.995
15114W        W81523  37.895  36.091  11.290
15115W        W81524  15.733  26.588  10.597
15116W        W81525  43.968   2.412   3.375
15117W        W81526  10.806  39.384  11.597
15118W        W81527  15.595  19.644  11.703
15119W        W81528  35.235  25.947  12.932
15120W        W81529  11.222   8.241   1.430
15121W        W81530  13.407  41.500  12.052
15122W        W81531  23.297  44.455   3.753
15123W        W81532  42.803   9.835   3.745
15124W        W81533  33.624  35.906  12.522
15125W        W81534  40.355   6.289   1.492
15126W        W81535  40.823  35.083  12.412
15127W        W81536   5.134  30.623   2.222
15128W        W81537   9.293  29.246   4.119
15129W        W81538  32.115   4.334   1.408
15130W        W81539  40.015  44.403  14.016
15131W        W81540   1.839  36.347  10.681
15132W        W81541  15.241  32.273   1.868
15133W        W81542  44.548  27.029  10.913
15134W        W81543  31.611  35.200   0.269
15135W        W81544  26.619   5.470  10.566
15136W        W81545  42.539  28.842  10.998
15137W        W81546   5.424  22.258   4.094
15138W        W81547  14.244  13.714  11.480
15139W        W81548   7.811   8.410  12.087
15140W        W81549  11.851  33.329   2.883
15141W        W81550  27.859  32.819  13.383
15142W        W81551  17.736  19.484  11.470
15143W        W81552  16.886  10.767  12.748
15144W        W81553  35.111  25.230  10.579
15145W        W81554   1.959  44.879  13.532
15146W        W81555   7.199  26.073   1.412
15147W        W81556  25.175  26.948  11.953
15148W        W81557   2.825   9.955   3.787
15149W        W81558  15.737  33.655  11.064
15150W        W81559  29.980  16.662  12.933
15151W        W81560  14.491  29.702   4.710
15152W        W81561  33.387  18.683   3.739
15153W        W81562   8.471  35.302   0.721
15154W        W81563   4.829  26.288   1.280
15155W        W81564  43.750   6.363  12.344
15156W        W81565  24.781  36.339   2.695
15157W        W81566  20.464  39.912  11.398
15158W        W81567  39.092   1.946   1.839
15159W        W81568  17.633  36.470   1.877
15160W        W81569  30.433  18.251  14.487
15161W        W81570   3.327  33.813  12.086
15162W        W81571  28.682   1.680  11.625
15163W        W81572  22.103  33.945   1.377
15164W        W81573  20.841  20.561   0.333
15165W        W81574   7.372  12.286  14.254
15166W        W81575  44.267  30.637  10.396
15167W        W81576  28.184  24.822  11.241
15168W        W81577   6.316  18.347   1.524
15169W        W81578  33.291  12.328   2.639
15170W        W81579  35.431   2.513   1.806
15171W        W81580  25.437  15.043  14.452
15172W        W81581  15.338  33.560  14.459
15173W        W81582  43.434  29.905   0.794
15174W        W81583   4.926  29.451   1.499
15175W        W81584   9.122  23.183  11.132
15176W        W81585  22.891  37.796  14.925
15177W        W81586   6.409  17.534  14.906
15178W        W81587   2.918  39.625   0.685
15179W        W81588  17.101  40.481   4.543
15180W        W81589  28.024  43.307  10.652
15181W        W81590  16.602  38.447  10.831
15182W        W81591  10.313   1.536   2.339
15183W        W81592  20.229   7.710  11.615
15184W        W81593  23.306  15.556  12.261
15185W        W81594  44.650  44.905   1.760
15186W        W81595   7.357   8.157   3.936
15187W        W81596  26.882  10.706  13.409
15188W        W81597   3.978  36.876   0.253
15189W        W81598  41.619  29.793   4.466
15190W        W81599  34.019   6.843  13.962
15191W        W81600  26.551  21.375  10.263
15192W        W81601  33.193  42.979  13.397
15193W        W81602  17.728  43.541   4.256
15194W        W81603  23.363  13.426  10.980
15195W        W81604  29.786  20.702  12.255
15196W        W81605  17.771  36.746  10.307
15197W        W81606  34.534  18.105  12.610
15198W        W81607  18.036  16.706  11.510
15199W        W81608  41.029  15.713  14.428
15200W        W81609  30.684  28.220  13.751
15201W        W81610  26.731  29.004  10.936
15202W        W81611   1.759  14.822   1.783
15203W        W81612  22.108   2.917  14.433
15204W        W81613   9.545  41.340   3.025
15205W        W81614  25.423  24.631  13.558
15206W        W81615   4.150  26.481   3.220
15207W        W81616  38.613  41.417   2.787
15208W        W81617  30.201  31.405   3.182
15209W        W81618   0.903   7.818   4.137
15210W        W81619   4.904   3.886   0.810
15211W        W81620  43.566  25.742  13.461
15212W        W81621  40.166  17.004   1.871
15213W        W81622  14.128  23.040  12.104
15214W        W81623  34.356  25.316  14.039
15215W        W81624  22.197   1.504  11.677
15216W        W81625  44.398  24.755   3.287
15217W        W81626  23.780  27.540  11.052
15218W        W81627   0.083   8.374   4.526
15219W        W81628  19.159  30.048  10.603
15220W        W81629  31.054   4.787   4.074
15221W        W81630  11.242  10.979  13.289
15222W        W81631  33.891  38.909   4.145
15223W        W81632  10.712  13.338  14.870
15224W        W81633  42.321  26.034  10.673
15225W        W81634   2.900   0.025  12.009
15226W        W81635  34.038  15.086  11.423
15227W        W81636   5.320  13.735  10.743
15228W        W81637  38.643  28.617  10.609
15229W        W81638  26.897  13.917   0.376
15230W        W81639  17.171   2.829   0.343
15231W        W81640  13.698  12.324   0.411
15232W        W81641   9.403  35.860  10.938
15233W        W81642  31.637  21.088   0.503
15234W        W81643  43.267   6.196  12.511
15235W        W81644  19.867   2.331   4.037
15236W        W81645  27.630  11.643   2.923
15237W        W81646   1.973  19.078   1.940
15238W        W81647   2.999  37.395   2.299
15239W        W81648  29.551  30.044   1.843
15240W        W81649  42.783   2.705   3.683
15241W        W81650  15.269  24.117  10.081
15242W        W81651   3.786  22.797   4.680
15243W        W81652  26.502  40.931   2.515
15244W        W81653  12.291  35.891   2.248
15245W        W81654  24.046  32.624  11.543
15246W        W81655  24.547  24.297  10.954
15247W        W81656  17.285   7.879   2.339
15248W        W81657  10.735  36.019  10.708
15249W        W81658  10.320   8.991  14.455
15250W        W81659  29.856  12.461  11.453
15251W        W81660  22.836  19.627  12.575
15252W        W81661  43.628  20.425   3.861
15253W        W81662  10.114   4.683   1.064
15254W        W81663   3.330  17.901   4.022
15255W        W81664   2.245   0.406  12.081
15256W        W81665  19.647  41.038  13.392
15257W        W81666  24.293  35.438  13.434
15258W        W81667  30.650   6.674   4.060
15259W        W81668  33.992   8.133  11.868
15260W        W81669  17.843  23.227  10.595
15261W        W81670  36.825  23.600   0.676
15262W        W81671  15.604  33.856   3.459
15263W        W81672  41.887  43.448   1.937
15264W        W81673  16.996  30.532   4.081
15265W        W81674  30.155  33.302   1.478
15266W        W81675   6.825  15.088  12.305
15267W        W81676  31.818  18.568   2.849
15268W        W81677  31.374  41.393   1.513
15269W        W81678  40.423  35.071   0.782
15270W        W81679   5.738  14.073  11.518
15271W        W81680  30.312  39.897   4.521
15272W        W81681  39.585  33.995   3.863
15273W        W81682  31.514  11.035  13.458
15274W        W81683  28.143  24.547   4.624
15275W        W81684   1.910  14.990  11.480
15276W        W81685  36.817  27.196  14.283
15277W        W81686   1.187  27.777   4.951
15278W        W81687  34.117  40.342  10.682
15279W        W81688  20.465  24.234  10.643
15280W        W81689  33.944  15.796  13.489
15281W        W81690  29.887  22.485   1.847
15282W        W81691  30.492  29.560   2.424
15283W        W81692  18.035  28.433   2.829
15284W        W81693  40.941  38.954   3.172
15285W        W81694  34.046  42.293   2.845
15286W        W81695   1.290  22.551  14.480
15287W        W81696   9.339  10.712  14.992
15288W        W81697  34.409  28.782  12.446
15289W        W81698  44.715   3.757  11.987
15290W        W81699  14.863  30.614   3.721
15291W        W81700  22.067  14.163  13.482
15292W        W81701  29.045   1.186  13.435
15293W        W81702  10.633  11.789  11.709
15294W        W81703  44.528  13.267   2.179
15295W        W81704  12.599  34.987   2.337
15296W        W81705  28.648  15.734  13.351
15297W        W81706  18.617  32.043  14.451
15298W        W81707  11.865  11.993  12.155
15299W        W81708  20.188   9.438   3.996
15300W        W81709  12.516  17.824   1.587
15301W        W81710  35.131  21.920   2.240
15302W        W81711  32.625  18.270  10.912
15303W        W81712   6.352  21.709  12.328
15304W        W81713  41.336  37.638  13.955
15305W        W81714  10.392  35.430  14.344
15306W        W81715  20.196   1.494   0.242
15307W        W81716  19.361  44.402   2.295
15308W        W81717  17.598   6.833  12.615
15309W        W81718  24.557  21.538  13.972
15310W        W81719  25.617  16.689   1.972
15311W        W81720   5.730  36.040  14.945
15312W        W81721  23.382  30.451  11.190
15313W        W81722  14.605  12.926   3.701
15314W        W81723   2.268  43.752   0.217
15315W        W81724   9.713  31.655   5.029
15316W        W81725  11.819   3.289   5.061
15317W        W81726   4.315  17.308   3.264
15318W        W81727  37.939  12.545  11.564
15319W        W81728  23.016  44.544  13.319
15320W        W81729  15.192  31.718   1.882
15321W        W81730  30.582  35.541  12.474
15322W        W81731  10.836   9.167   4.375
15323W        W81732  20.100  18.698   4.801
15324W        W81733   6.696  18.597  12.561
15325W        W81734  17.807   8.625   3.666
15326W        W81735  25.060  42.999   0.758
15327W        W81736  19.157  41.215  13.398
15328W        W81737  28.223  23.125   4.144
15329W        W81738  38.529   3.375   3.620
15330W        W81739  15.699  33.059   3.279
15331W        W81740  33.397  37.564   2.371
15332W        W81741  27.494  37.146   2.285
15333W        W81742  11.321  37.016   2.171
15334W        W81743  24.499   3.381   3.146
15335W        W81744  35.145   7.400   2.784
15336W        W81745  36.934  13.841  14.140
15337W        W81746  26.677  11.098   4.919
15338W        W81747   1.438  16.629  13.836
15339W        W81748   9.647  36.929   2.151
15340W        W81749  22.489   1.887  14.512
15341W        W81750   7.779  22.921  12.053
15342W        W81751  11.377   8.635   3.818
15343W        W81752  44.347  34.551  10.610
15344W        W81753  14.587   8.803  13.789
15345W        W81754  10.750  12.176  10.525
15346W        W81755   5.375  37.363   3.539
15347W        W81756  41.012  35.480  11.774
15348W        W81757  35.390   0.418   0.333
15349W        W81758  40.365  29.356   0.794
15350W        W81759  19.512  33.933  14.332
15351W        W81760  12.732  36.858  11.526
15352W        W81761  16.655  28.697  14.935
15353W        W81762  31.074  39.621  11.709
15354W        W81763  35.478  29.407   0.545
15355W        W81764  36.956  12.858   4.254
15356W        W81765  19.747  32.229  13.428
15357W        W81766  18.717  12.381  12.099
15358W        W81767  41.868  22.045  12.344
15359W        W81768  29.100  22.016   3.391
15360W        W81769   4.511  35.321   3.357
15361W        W81770  16.586  30.304   2.989
15362W        W81771  21.307  44.739  10.533
15363W        W81772  29.538  41.498   4.126
15364W        W81773   6.327  39.874   3.921
15365W        W81774   7.115  17.802  13.561
15366W        W81775  44.695  24.586   1.418
15367W        W81776  25.942  14.837   0.480
15368W        W81777  26.114  19.257  14.800
15369W        W81778   2.722   4.752   3.270
15370W        W81779  44.332  21.368   3.426
15371W        W81780  23.370  38.963  14.990
15372W        W81781  23.152  27.911   0.353
15373W        W81782   6.998   1.851   2.176
15374W        W81783  29.212  24.212  11.103
15375W        W81784  30.432  11.170   1.900
15376W        W81785  25.024   0.259  12.964
15377W        W81786  36.980  22.367  14.105
15378W        W81787  27.700  40.005  11.139
15379W        W81788   0.422   4.963   0.920
15380W        W81789  18.675   7.083   4.800
15381W        W81790  32.839   0.790  12.083
15382W        W81791  36.202  26.016  13.799
15383W        W81792  20.754  31.848  10.532
15384W        W81793  20.468  18.551  11.912
15385W        W81794  24.588   9.682   5.493
15386W        W81795  41.378  10.495   5.021
15387W        W81796   8.987   4.470   1.042
15388W        W81797  38.964  36.162   4.094
15389W        W81798  24.980  43.329   2.335
15390W        W81799  28.892  20.455  13.930
15391W        W81800   3.389  15.322   2.865
15392W        W81801  28.448   6.108   1.945
15393W        W81802  17.978  20.007  12.507
15394W        W81803   7.121   8.937   2.331
15395W        W81804  44.266  37.469   4.050
15396W        W81805  29.178  44.871  11.659
15397W        W81806  29.555  37.298  13.927
15398W        W81807   7.374  43.468  11.928
15399W        W81808  23.681  12.396  13.201
15400W        W81809   7.883  14.174  12.122
15401W        W81810  25.179  21.494   4.573
15402W        W81811  12.176  16.502  12.428
15403W        W81812  44.382  16.550  13.549
15404W        W81813   5.183   6.766   3.237
15405W        W81814  36.387  27.864  11.160
15406W        W81815  40.560  39.825  10.753
15407W        W81816  17.988   9.107  12.938
15408W        W81817  37.134  41.891   1.615
15409W        W81818  39.945   2.982   1.479
15410W        W81819  26.838  10.847  11.164
15411W        W81820  25.248  31.847   1.763
15412W        W81821   1.600  32.151  10.223
15413W        W81822  44.771  44.562   3.376
15414W        W81823  10.393   0.427  12.963
15415W        W81824  43.982  37.277   0.009
15416W        W81825  41.632   7.183  11.266
15417W        W81826  35.857  37.462   1.632
15418W        W81827  23.522  25.620   1.010
15419W        W81828  43.414  26.264  11.010
15420W        W81829   6.651   2.672   3.726
15421W        W81830   1.441  28.695  12.473
15422W        W81831  25.403  37.880   2.257
15423W        W81832  18.176  40.970   2.296
15424W        W81833   3.517  10.837   2.233
15425W        W81834   3.821  37.071   1.784
15426W        W81835  29.501  25.443   4.687
15427W        W81836  38.554  11.355  11.062
15428W        W81837   8.713   9.737  14.795
15429W        W81838  39.135  37.170   2.647
15430W        W81839  42.319  20.961   0.188
15431W        W81840  27.614  31.548  14.774
15432W        W81841  37.491  13.199  12.182
15433W        W81842  44.400   0.821  13.429
15434W        W81843  33.045   7.690   3.321
15435W        W81844  17.767  30.878   1.892
15436W        W81845   9.341  15.668  11.059
15437W        W81846  35.078  27.686   2.328
15438W        W81847  16.023   5.033   5.056
15439W        W81848  43.453  19.362   0.872
15440W        W81849  33.632  15.569   0.367
15441W        W81850  32.068   2.337   2.555
15442W        W81851  21.464  42.818   4.225
15443W        W81852  30.937  31.011  12.461
15444W        W81853   3.382  11.678  13.722
15445W        W81854  20.250  41.048  11.615
15446W        W81855  44.308   5.174  12.477
15447W        W81856  18.165   1.392  11.946
15448W        W81857   0.510  42.883   4.782
15449W        W81858  12.899  10.130   3.680
15450W        W81859  20.196  40.045   1.363
15451W        W81860  33.679  33.828  11.962
15452W        W81861  40.770  20.107   3.544
15453W        W81862  12.878   7.564  13.407
15454W        W81863   5.153  43.182   2.282
15455W        W81864  39.523  15.214   4.689
15456W        W81865   6.199  27.309  14.463
15457W        W81866  13.859  17.741  14.293
15458W        W81867  21.992   4.185  13.386
15459W        W81868  35.915  22.276   0.777
15460W        W81869  28.629  16.246   1.844
15461W        W81870   6.351  16.114   3.289
15462W        W81871   1.536   4.943  11.575
15463W        W81872  38.499  19.728  13.422
15464W        W81873  11.921  37.647  14.388
15465W        W81874  20.821  14.847  14.920
15466W        W81875  38.497   0.345   0.460
15467W        W81876  37.187  26.449   0.970
15468W        W81877  42.820  12.087   1.420
15469W        W81878  43.362   9.401  12.029
15470W        W81879  20.951  43.822   2.927
15471W        W81880  19.154   8.658   3.337
15472W        W81881   0.686  24.992  11.555
15473W        W81882  18.094  22.589   3.651
15474W        W81883  36.893   8.496   1.273
15475W        W81884  12.520   1.410   1.562
15476W        W81885   0.296  10.890  11.627
15477W        W81886  38.953   9.177  14.747
15478W        W81887   3.549  43.605  13.963
15479W        W81888  44.802  14.872  11.111
15480W        W81889   4.975  30.425   1.749
15481W        W81890  22.309  41.394  14.462
15482W        W81891  21.220  31.212   4.265
15483W        W81892  10.330  21.979  14.415
15484W        W81893  38.511   8.504  14.106
15485W        W81894  31.009  28.256  11.557
15486W        W81895   1.214  20.129  12.048
15487W        W81896   3.849   3.779   4.655
15488W        W81897  30.457  10.657   3.459
15489W        W81898  38.589  41.978  14.927
15490W        W81899  19.382  24.194   3.141
15491W        W81900  44.833  16.195  13.092
15492W        W81901  19.208  44.698  11.497
15493W        W81902  35.964  39.133   4.381
15494W        W81903  39.813  44.497  14.911
15495W        W81904  33.193  24.959   3.227
15496W        W81905   2.446  26.498  14.885
15497W        W81906  31.458   2.513  12.960
15498W        W81907  27.382  14.564  14.056
15499W        W81908  43.864   4.557   4.067
15500W        W81909   0.787  26.712   2.852
15501W        W81910  37.570  14.243  14.877
15502W        W81911  26.059  25.605  10.265
15503W        W81912  21.357  29.051   0.997
15504W        W81913  16.656  14.806   2.750
15505W        W81914  35.417  22.222  12.557
15506W        W81915  13.191  34.243  12.341
15507W        W81916   4.763   2.254   1.775
15508W        W81917  42.254  36.890   3.760
15509W        W81918  17.313  41.290  14.463
15510W        W81919  22.203  16.294  13.990
15511W        W81920  12.819  40.322   0.970
15512W        W81921  32.315  33.834   2.476
15513W        W81922  39.831   0.262  10.583
15514W        W81923  24.938   2.451   3.284
15515W        W81924  28.050  37.100   3.121
15516W        W81925  32.700   8.995  11.996
15517W        W81926  21.065  40.659   5.083
15518W        W81927  38.716   3.897  14.316
15519W        W81928  44.599  14.561   0.307
15520W        W81929   1.622   7.855  11.019
15521W        W81930  35.460   7.898   0.787
15522W        W81931  17.759  20.198  14.011
15523W        W81932   5.677  17.116   1.306
15524W        W81933  44.307  23.464  14.931
15525W        W81934  23.048   2.749   3.078
15526W        W81935  33.841  19.547  10.744
15527W        W81936  33.854  34.435  14.463
15528W        W81937  34.029  22.802   4.260
15529W        W81938  35.567  28.702   0.759
15530W        W81939   0.012   5.218   2.280
15531W        W81940  37.432  20.215  11.804
15532W        W81941  34.929   3.915   2.806
15533W        W81942  10.715  24.575   3.456
15534W        W81943   9.286  41.942  11.209
15535W        W81944  25.492   2.514   2.412
15536W        W81945  29.419   1.740   3.683
15537W        W81946  21.004   2.277  11.833
15538W        W81947  20.261  40.430  12.442
15539W        W81948   7.742   4.746   4.965
15540W        W81949  13.099  43.668   2.388
15541W        W81950  35.557  34.872  10.671
15542W        W81951  22.116   6.752  13.621
15543W        W81952   9.413   0.068  11.132
15544W        W81953  37.767  29.668   0.079
15545W        W81954  18.283  29.494   0.209
15546W        W81955  13.079  19.292   3.212
15547W        W81956  19.049   4.799   3.141
15548W        W81957  18.096  23.218  11.298
15549W        W81958  38.352  38.092   4.604
15550W        W81959  24.303  23.965   1.854
15551W        W81960   9.055  11.727   2.985
15552W        W81961   4.396   6.480  13.945
15553W        W81962  34.334  13.854   2.386
15554W        W81963  20.538   2.763  12.499
15555W        W81964  35.331  12.889   2.779
15556W        W81965  17.855   2.418  12.433
15557W        W81966  23.418  24.204  13.567
15558W        W81967  27.725   7.132   4.253
15559W        W81968  15.193  11.447   3.756
15560W        W81969  20.071  29.150  14.843
15561W        W81970   8.174  43.328   1.929
15562W        W81971  41.465  24.652   4.633
15563W        W81972  38.267  24.150  12.039
15564W        W81973  21.007   9.176  12.840
15565W        W81974   1.172  26.711  13.816
15566W        W81975  24.226  19.918  14.206
15567W        W81976  20.784  37.305   3.787
15568W        W81977  14.267   4.242  11.420
15569W        W81978  22.763  28.574   4.675
15570W        W81979  22.186  33.405  12.853
15571W        W81980   0.834  21.556  12.031
15572W        W81981  39.607  30.612  12.705
15573W        W81982  40.150   3.337  13.518
15574W        W81983   5.691  13.876   2.290
15575W        W81984  35.408  31.316  13.810
15576W        W81985  37.430  31.560   1.268
15577W        W81986   8.421  22.758   0.500
15578W        W81987  12.341  20.193  10.710
15579W        W81988  38.934  27.200   2.293
15580W        W81989  29.518  33.312   0.323
15581W        W81990   5.640  43.762   0.307
15582W        W81991  10.733  13.039   4.356
15583W        W81992   1.401  12.753  14.017
15584W        W81993  26.807   8.230   3.102
15585W        W81994  26.461   8.177  12.856
15586W        W81995  25.023  21.036  14.323
15587W        W81996  15.075  26.431   1.277
15588W        W81997   3.715  28.902  11.073
15589W        W81998  39.330  34.660  12.351
15590W        W81999  44.366   5.187  13.962
15591W        W82000   7.900  40.077  12.175
15592W        W82001   1.513  31.358   3.730
15593W        W82002  26.951  30.422   2.809
15594W        W82003  27.426  19.685   1.447
15595W        W82004   9.566  31.809  11.688
15596W        W82005  27.039  39.507   0.223
15597W        W82006  24.991  23.487  13.214
15598W        W82007   5.804  18.746   4.176
15599W        W82008  38.423  26.695   4.688
15600W        W82009  13.564  13.734   2.145
15601W        W82010  43.718   5.879  12.932
15602W        W82011   1.188   5.764  12.287
15603W        W82012  40.539  36.290   0.465
15604W        W82013  43.232   7.641  11.135
15605W        W82014  20.656  44.795   2.782
15606W        W82015  11.461  36.977   4.138
15607W        W82016   3.572  44.845   4.590
15608W        W82017  42.456  38.105   0.811
15609W        W82018  36.417  15.476  12.860
15610W        W82019  42.002   3.196   1.355
15611W        W82020  41.288  10.633  13.909
15612W        W82021  29.027  36.042  10.526
15613W        W82022  21.054  25.127  14.943
15614W        W82023  16.514  19.073  11.141
15615W        W82024  19.644  12.479  10.749
15616W        W82025  10.341   4.253   0.646
15617W        W82026  36.495  16.251   1.958
15618W        W82027  29.391  20.771   1.318
15619W        W82028  14.395  20.206   0.728
15620W        W82029  34.013  19.564  14.251
15621W        W82030  19.598  20.619   2.058
15622W        W82031  29.496  10.060  14.694
15623W        W82032  44.419  25.118  12.813
15624W        W82033  25.161  19.504  14.603
15625W        W82034   0.196  26.030  14.361
15626W        W82035   6.418   5.456   4.406
15627W        W82036  15.109  15.734  11.760
15628W        W82037   6.280   4.706   3.695
15629W        W82038  30.663  16.617  11.201
15630W        W82039  44.444  23.738   4.123
15631W        W82040  44.535  39.979   0.835
15632W        W82041   6.400  40.507   0.783
15633W        W82042  25.865  42.638  10.713
15634W        W82043  22.179   6.138  11.209
15635W        W82044  31.288  23.529  10.404
15636W        W82045  30.462  31.107  12.812
15637W        W82046  30.473  25.713   4.441
15638W        W82047  14.426  14.403   4.825
15639W        W82048   5.807  41.029   4.132
15640W        W82049  27.135  41.016  13.794
15641W        W82050  36.355  24.642  11.521
15642W        W82051  16.171   0.474  11.143
15643W        W82052  22.990   6.747  14.325
15644W        W82053  35.870  39.247   3.655
15645W        W82054  17.524  17.476   1.268
15646W        W82055  28.715  20.409  14.986
15647W        W82056  31.423  32.198   0.468
15648W        W82057   9.715  21.926  12.090
15649W        W82058  11.527  21.765  13.995
15650W        W82059  17.465  20.002   2.568
15651W        W82060  25.916  38.788   2.176
15652W        W82061  16.965  20.010   2.395
15653W        W82062  23.624   2.217   2.845
15654W        W82063  19.379  33.269  14.694
15655W        W82064  21.663   4.735  11.356
15656W        W82065   1.163  41.442   1.448
15657W        W82066  22.606  15.092  11.382
15658W        W82067   1.702   7.808   0.011
15659W        W82068  27.866  12.216   1.803
15660W        W82069  15.927   9.878  13.284
15661W        W82070  18.377  32.124  13.997
15662W        W82071  35.006  16.824  14.920
15663W        W82072  25.105  18.070   1.961
15664W        W82073   1.083  13.113  14.236
15665W        W82074   4.898   5.250  11.362
15666W        W82075  29.442  19.744  12.892
15667W        W82076  10.352  24.823   1.183
15668W        W82077  15.549  14.390  11.691
15669W        W82078  37.997   2.875  14.940
15670W        W82079  35.203  13.656  12.953
15671W        W82080  42.783  13.169  12.631
15672W        W82081  27.451   1.382  12.051
15673W        W82082  41.987  43.079   3.140
15674W        W82083  39.140  31.512  11.512
15675W        W82084   5.666  33.515  13.054
15676W        W82085  37.893  23.497  12.521
15677W        W82086  37.938   1.526  12.530
15678W        W82087  15.383   8.827   0.882
15679W        W82088   2.170   9.716   3.154
15680W        W82089  17.362  25.066   4.138
15681W        W82090  26.069   3.240  12.355
15682W        W82091  32.898  43.973  11.418
15683W        W82092  30.080  24.965  12.637
15684W        W82093  17.632  10.581  11.203
15685W        W82094  21.763  27.917  11.132
15686W        W82095  16.344   7.495   1.906
15687W        W82096  11.192  32.181  11.573
15688W        W82097  44.268  18.740   0.842
15689W        W82098  22.015   3.585   3.977
15690W        W82099   5.396  38.418   0.883
15691W        W82100  44.040  44.922   0.597
15692W        W82101  21.515  10.416  10.605
15693W        W82102  34.899  34.317  12.379
15694W        W82103  35.675  36.442   2.401
15695W        W82104  41.724  31.662   0.299
15696W        W82105   2.547  25.523  12.445
15697W        W82106  14.555  35.827  10.753
15698W        W82107  20.784  21.529   1.344
15699W        W82108  30.207   8.166   0.725
15700W        W82109  10.483  39.610   1.181
15701W        W82110  39.088  10.439   3.874
15702W        W82111  37.764  22.088  12.458
15703W        W82112   6.950  25.907   4.078
15704W        W82113  39.367  44.511   3.230
15705W        W82114  24.193  26.706   2.099
15706W        W82115  14.327  10.053   5.092
15707W        W82116  35.676  21.035  14.737
15708W        W82117  14.521   4.971  11.606
15709W        W82118   4.534  17.329  10.623
15710W        W82119  16.275  39.279   0.679
15711W        W82120  13.870  18.246  10.722
15712W        W82121   9.362  35.910   0.785
15713W        W82122  29.435   5.721   1.970
15714W        W82123   1.025  44.824   3.242
15715W        W82124   1.879  41.103  13.799
15716W        W82125   6.766  44.979  12.004
15717W        W82126   5.028  18.862   4.476
15718W        W82127   1.165  37.505  11.677
15719W        W82128  14.350  28.565   4.326
15720W        W82129   5.684  33.749  11.648
15721W        W82130   4.394  32.547  13.441
15722W        W82131  16.177  10.132   3.219
15723W        W82132  14.740  42.864   4.318
15724W        W82133  15.806  24.187  13.764
15725W        W82134  22.109  43.165   0.151
15726W        W82135  13.827  38.367  14.459
15727W        W82136  10.541  11.317  10.602
15728W        W82137  37.352  25.502   1.351
15729W        W82138   0.729   1.883  14.840
15730W        W82139  26.681  35.206  13.990
15731W        W82140  24.670   6.305  14.850
15732W        W82141  42.524  37.004  12.516
15733W        W82142   7.885   6.186  14.077
15734W        W82143  19.389  19.710   2.690
15735W        W82144  13.051  30.411   2.388
15736W        W82145   3.754  39.412  12.456
15737W        W82146  10.146  13.103   3.588
15738W        W82147   3.875  22.009   4.299
15739W        W82148  35.477   7.663  12.942
15740W        W82149  27.424  22.415   2.151
15741W        W82150  40.987  28.529   4.376
15742W        W82151  28.377  13.058   2.394
15743W        W82152  23.552  41.066   2.398
15744W        W82153  15.674  12.871  10.811
15745W        W82154  39.593  14.051   3.685
15746W        W82155  41.937   8.498   9.887
15747W        W82156   1.504  14.705  11.577
15748W        W82157  33.075  34.618   3.657
15749W        W82158  26.616  31.424   0.939
15750W        W82159  40.820  37.348  12.348
15751W        W82160  28.434  36.964   0.241
15752W        W82161   0.761   5.366   1.398
15753W        W82162  13.786  39.353  11.548
15754W        W82163   2.763  13.748   4.885
15755W        W82164  19.192  19.611   4.213
15756W        W82165  37.259  38.273   0.765
15757W        W82166  44.094  25.805  13.335
15758W        W82167  25.433   5.993  11.090
15759W        W82168   0.004  23.230  14.434
15760W        W82169   9.744  43.926   1.843
15761W        W82170   9.439  10.646   1.468
15762W        W82171  44.800  13.043  12.597
15763W        W82172   8.364  29.432   2.178
15764W        W82173  17.692   3.269  11.137
15765W        W82174  13.582  22.235  14.471
15766W        W82175   7.755  25.119  12.115
15767W        W82176  36.010  32.999   4.206
15768W        W82177  36.035  26.112   3.181
15769W        W82178   0.716  38.825   3.297
15770W        W82179  22.769  19.297  11.177
15771W        W82180  28.317  32.077  12.075
15772W        W82181   3.516   9.394  11.377
15773W        W82182  20.768  26.254   3.322
15774W        W82183  38.190  28.712  11.355
15775W        W82184  15.861  18.024   2.754
15776W        W82185  32.628  13.263  13.595
15777W        W82186  24.689  29.112   4.721
15778W        W82187  34.086   3.708   0.051
15779W        W82188  25.734  16.729   3.851
15780W        W82189   3.298  13.377  11.575
15781W        W82190  20.440  33.318  11.595
15782W        W82191  40.390   9.174   9.948
15783W        W82192  15.918   9.942  12.374
15784W        W82193  39.409  22.111  14.922
15785W        W82194   4.208  28.543   1.168
15786W        W82195  21.582  32.888  12.024
15787W        W82196  28.874  12.117   3.216
15788W        W82197  14.030  13.951  11.873
15789W        W82198   8.466  29.893  11.154
15790W        W82199  18.374   5.545  14.403
15791W        W82200   8.662  42.774   4.161
15792W        W82201   8.706  10.389  10.682
15793W        W82202  31.430  41.359  14.530
15794W        W82203  37.003   6.419   2.328
15795W        W82204   7.934  15.698   0.244
15796W        W82205  33.465  35.856  14.060
15797W        W82206  10.384  24.244   2.009
15798W        W82207  30.055  19.230   1.791
15799W        W82208  26.557  43.512  11.745
15800W        W82209  31.365  33.150   4.246
15801W        W82210   0.135  25.578   1.491
15802W        W82211   2.032   2.246  12.932
15803W        W82212  15.593  15.026  10.039
15804W        W82213   0.197  12.699  14.989
15805W        W82214  27.297  13.557   2.623
15806W        W82215   2.942   5.640  12.072
15807W        W82216  20.252  19.029  11.925
15808W        W82217  18.729  36.810   0.019
15809W        W82218  40.187  30.100   2.708
15810W        W82219  39.616  26.099   4.746
15811W        W82220   7.972   5.257  14.758
15812W        W82221   2.318  19.078  13.755
15813W        W82222  27.931   0.021   1.775
15814W        W82223  39.503  27.203  14.793
15815W        W82224  42.299  40.021  13.730
15816W        W82225   2.340  33.143  10.374
15817W        W82226   0.179  25.591  14.744
15818W        W82227  35.807  43.878   4.606
15819W        W82228   1.282  34.054  14.522
15820W        W82229   6.652  28.079   1.454
15821W        W82230  43.353   6.704  13.220
15822W        W82231  13.317  39.549  14.438
15823W        W82232  13.139  31.925  14.771
15824W        W82233  10.339  30.222  13.026
15825W        W82234  25.617  33.542   3.309
15826W        W82235  26.719  13.051   3.554
15827W        W82236   5.824  43.449  13.975
15828W        W82237  25.626  41.473  11.428
15829W        W82238  37.834  39.868   0.053
15830W        W82239  26.953  42.527   1.256
15831W        W82240  37.577  36.125   4.292
15832W        W82241  20.853  37.459  12.069
15833W        W82242  24.300   2.931   0.342
15834W        W82243  18.136  27.073   2.894
15835W        W82244  22.221  10.322  11.778
15836W        W82245  39.779  39.889   4.769
15837W        W82246  15.584  40.351  13.764
15838W        W82247   0.744  11.371   4.052
15839W        W82248  13.303  36.566  14.576
15840W        W82249   7.123   4.680  12.944
15841W        W82250  26.071   7.395  11.667
15842W        W82251  38.646  41.586   4.823
15843W        W82252  11.115  22.602   3.663
15844W        W82253   3.284  21.698  12.623
15845W        W82254  30.038  38.240  12.918
15846W        W82255  17.502  37.811  11.063
15847W        W82256  10.025  14.933   0.331
15848W        W82257   6.654  21.882   2.658
15849W        W82258  25.009  22.005  11.661
15850W        W82259   8.979  25.001   2.827
15851W        W82260  24.047  41.604  11.699
15852W        W82261  34.532  15.064  11.289
15853W        W82262   0.923  28.039   3.125
15854W        W82263  29.112  16.033   4.125
15855W        W82264  26.563   4.664   2.741
15856W        W82265  11.219  34.447  14.967
15857W        W82266   3.029  28.886   3.759
15858W        W82267   7.782  20.499  11.499
15859W        W82268  29.621  36.072  14.380
15860W        W82269  32.457  15.670   0.259
15861W        W82270  33.556  36.866  12.558
15862W        W82271   6.941   8.900   4.411
15863W        W82272  29.763  44.869  14.797
15864W        W82273   6.900  35.078  14.796
15865W        W82274  39.728  12.710   4.098
15866W        W82275  18.163  43.378   4.493
15867W        W82276  41.790  40.441   0.827
15868W        W82277  23.942  26.784   5.056
15869W        W82278  42.566   2.199   4.642
15870W        W82279  15.781   9.918  14.558
15871W        W82280  29.584   5.695  12.418
15872W        W82281  11.088  23.535   0.856
15873W        W82282  38.825  39.111  12.937
15874W        W82283  18.762   2.373  10.643
15875W        W82284   3.970  27.595   2.828
15876W        W82285  35.592  20.604   0.439
15877W        W82286  18.235  16.357   4.071
15878W        W82287  16.624   4.848   3.647
15879W        W82288  20.183  10.531   0.876
15880W        W82289  26.598  22.742  14.285
15881W        W82290  17.219  41.972  11.408
15882W        W82291  23.068  38.660   4.030
15883W        W82292  39.053  17.656  13.864
15884W        W82293  24.896  27.378   4.269
15885W        W82294  15.849   6.635   2.950
15886W        W82295  44.803  25.941   1.264
15887W        W82296  11.826  11.685  12.584
15888W        W82297  24.014  41.295  13.444
15889W        W82298  34.812  12.324  12.282
15890W        W82299   0.442  22.747  13.038
15891W        W82300   1.200  18.567   4.955
15892W        W82301  27.561  19.104   4.347
15893W        W82302  43.400  37.981  14.781
15894W        W82303  41.045   4.801  12.495
15895W        W82304  34.439   3.772  13.513
15896W        W82305   1.395   8.997   1.409
15897W        W82306  24.430  29.174  14.508
15898W        W82307  44.850  29.572   0.848
15899W        W82308  18.104   8.430   4.532
15900W        W82309  26.361   4.885   3.536
15901W        W82310  21.125   2.921   4.364
15902W        W82311  37.526   0.730   1.701
15903W        W82312  25.993   2.423   2.386
15904W        W82313   8.277  21.000   4.548
15905W        W82314  24.102   3.728   3.150
15906W        W82315  42.679  32.557   4.642
15907W        W82316  33.138  41.999  13.986
15908W        W82317  13.780  11.051  13.885
15909W        W82318   1.903  34.956  11.798
15910W        W82319  12.094  39.383  13.366
15911W        W82320  14.295  34.069   2.107
15912W        W82321  32.028  20.819  13.295
15913W        W82322   3.978   4.227   2.232
15914W        W82323  44.203   1.338   2.233
15915W        W82324  29.718  44.867  11.611
15916W        W82325  15.578  23.732   0.884
15917W        W82326  28.960   1.155  11.243
15918W        W82327  34.803   8.162   3.258
15919W        W82328   8.174  24.261  12.912
15920W        W82329  37.313  43.274  13.221
15921W        W82330  25.682  10.732   3.146
15922W        W82331  36.149  34.746  14.427
15923W        W82332  20.335  17.458  11.178
15924W        W82333   6.740   6.140   2.643
15925W        W82334  34.826  22.525  10.737
15926W        W82335   7.272  26.255  14.094
15927W        W82336   7.779  28.577  14.465
15928W        W82337  12.600  24.165   4.851
15929W        W82338  36.566  30.975   2.699
15930W        W82339   9.291  31.494  12.612
15931W        W82340  40.772  21.670   0.009
15932W        W82341   9.141  38.884   0.334
15933W        W82342  23.594  34.504  10.647
15934W        W82343  28.649  40.021   1.848
15935W        W82344  16.053  19.111   4.787
15936W        W82345  29.945   2.209   2.370
15937W        W82346  28.620  21.571  14.055
15938W        W82347  12.284  35.840  14.540
15939W        W82348  18.800  31.095  13.223
15940W        W82349   3.290   6.164  12.869
15941W        W82350  42.516  20.119  14.363
15942W        W82351  20.536   9.303   4.568
15943W        W82352  25.109  42.982  13.321
15944W        W82353   1.062  39.506   0.416
15945W        W82354  40.742  40.919  10.786
15946W        W82355  10.415  31.586   3.599
15947W        W82356  25.267  36.044   3.263
15948W        W82357   8.773   0.928  11.300
15949W        W82358  35.483   6.839  11.536
15950W        W82359   0.390  39.868   1.223
15951W        W82360  26.012  39.495   2.687
15952W        W82361  43.346  44.015  13.998
15953W        W82362  41.500  28.203   3.781
15954W        W82363  33.324   7.361   0.907
15955W        W82364   3.464   0.445  12.728
15956W        W82365  39.726  35.621   1.376
15957W        W82366  19.632   8.968   0.335
15958W        W82367  29.690  21.142  11.412
15959W        W82368  15.505  13.890  11.134
15960W        W82369  15.253  29.257  12.480
15961W        W82370  30.688  30.168  14.336
15962W        W82371  31.460  19.777  12.641
15963W        W82372  37.414  38.979   5.298
15964W        W82373  21.687  35.947   2.107
15965W        W82374  41.591   6.271   2.910
15966W        W82375  42.932  44.790   4.536
15967W        W82376  23.946   4.013   1.351
15968W        W82377   4.394  41.617   1.692
15969W        W82378  10.179   6.807  11.917
15970W        W82379  17.293  39.990   2.672
15971W        W82380   3.908  32.458  11.935
15972W        W82381  35.187  30.712   0.201
15973W        W82382  35.035  40.384  10.703
15974W        W82383  34.135   8.353  13.354
15975W        W82384  27.025  19.603   2.759
15976W        W82385  24.300  35.649  11.633
15977W        W82386  38.516   4.479   4.568
15978W        W82387   8.931  28.231   3.719
15979W        W82388   4.307  34.285  11.182
15980W        W82389  37.304  16.997   1.377
15981W        W82390  40.228   9.734   3.104
15982W        W82391   3.499  18.731  14.000
15983W        W82392  14.111   7.464   0.933
15984W        W82393  16.788  17.815   3.670
15985W        W82394  44.422  12.856   2.901
15986W        W82395   3.817  30.657  13.331
15987W        W82396  25.933  13.408   2.174
15988W        W82397  42.936  30.445   2.714
15989W        W82398  34.521  19.068   4.132
15990W        W82399  26.018  30.986   4.520
15991W        W82400  25.744   6.171  11.489
15992W        W82401  31.356  24.211   1.574
15993W        W82402  44.967  14.163   4.184
15994W        W82403   3.693  19.246  13.536
15995W        W82404  11.322  19.356  14.211
15996W        W82405  43.425  16.735   0.777
15997W        W82406  12.614  23.113   4.374
15998W        W82407  38.556   2.511  13.288
15999W        W82408  21.702   7.744  10.736
16000W        W82409  42.731  25.542  12.578
16001W        W82410  27.651  15.032  13.234
16002W        W82411  31.087  44.635  12.124
16003W        W82412   7.990  41.722  12.576
16004W        W82413   5.436  34.321  12.943
16005W        W82414  13.336  24.594   0.964
16006W        W82415  36.833  27.732  14.405
16007W        W82416   6.911  40.485   0.960
16008W        W82417  34.416  37.909   0.249
16009W        W82418  43.989  23.487   0.526
16010W        W82419  13.048  34.044   4.331
16011W        W82420  42.482  36.606  12.825
16012W        W82421  33.377  10.606   0.285
16013W        W82422  15.596  16.066   3.328
16014W        W82423   0.290  33.347   0.728
16015W        W82424  24.144  24.036  10.741
16016W        W82425   2.773  29.302   3.943
16017W        W82426  27.411   9.627   0.055
16018W        W82427  21.601  24.037  10.775
16019W        W82428  25.363  14.039   1.174
16020W        W82429  13.918  43.987  12.366
16021W        W82430  16.778  12.429   3.876
16022W        W82431  42.585  44.475   3.608
16023W        W82432   5.473  16.837   3.628
16024W        W82433   8.395  27.754   0.984
16025W        W82434  32.549  24.501   4.258
16026W        W82435  17.780  22.553  13.460
16027W        W82436  15.126  30.865  11.204
16028W        W82437  28.764   3.237   3.569
16029W        W82438  25.266   7.461   0.372
16030W        W82439  25.698  23.091   3.183
16031W        W82440  28.680  40.005   0.997
16032W        W82441  29.376  33.550   2.680
16033W        W82442  14.349   5.479  14.433
16034W        W82443  17.536   4.949  14.434
16035W        W82444   6.890  44.428   0.682
16036W        W82445  40.736   2.384  12.995
16037W        W82446  21.096  23.525  11.116
16038W        W82447  14.300  34.995   1.786
16039W        W82448   8.999   2.791   0.257
16040W        W82449  25.497  20.270   4.023
16041W        W82450   2.961  30.284   4.201
16042W        W82451   8.634  41.080   3.219
16043W        W82452  44.666  28.899  14.848
16044W        W82453  21.699   6.647   0.217
16045W        W82454  10.539  17.320  12.984
16046W        W82455   7.798  19.569  13.839
16047W        W82456   2.730  38.371   2.266
16048W        W82457  21.006  21.304  10.371
16049W        W82458   5.967   2.137  11.692
16050W        W82459  22.485  10.967  10.593
16051W        W82460  25.875  27.037  14.684
16052W        W82461  20.093   0.765   2.170
16053W        W82462  40.781   0.802  11.643
16054W        W82463  19.740   2.068   2.614
16055W        W82464  44.024  43.941   0.834
16056W        W82465   4.330  18.894  12.780
16057W        W82466  34.721  44.405   0.916
16058W        W82467   9.918  26.369  14.671
16059W        W82468  17.229   2.665  10.190
16060W        W82469  25.751   1.941  11.084
16061W        W82470  17.033   8.015  13.596
16062W        W82471  37.328   1.854   1.270
16063W        W82472  31.505   9.286   3.576
16064W        W82473  31.149   7.441  14.253
16065W        W82474  17.327   7.317   3.606
16066W        W82475  22.690  36.576   1.437
16067W        W82476   2.360  35.610   2.908
16068W        W82477  34.438  41.763  13.577
16069W        W82478  18.732   2.295   2.885
16070W        W82479  11.079   1.754   0.577
16071W        W82480  18.760  31.861  11.616
16072W        W82481  22.915  41.480  11.187
16073W        W82482  23.196  22.798   2.739
16074W        W82483  29.461   7.410   2.331
16075W        W82484   6.245  16.081   4.213
16076W        W82485   8.140  24.006   2.197
16077W        W82486  28.913  31.345   0.345
16078W        W82487  19.198  32.498   2.027
16079W        W82488  42.538  42.278  11.521
16080W        W82489   2.951  29.003  11.463
16081W        W82490   8.251  25.994   1.232
16082W        W82491  15.104  18.667  10.782
16083W        W82492  33.434  20.785  12.935
16084W        W82493  17.600  23.428   0.474
16085W        W82494   0.304  34.100  14.371
16086W        W82495  32.079  42.453  13.275
16087W        W82496  37.592  22.038  14.496
16088W        W82497  42.224  26.960  12.172
16089W        W82498  33.101   8.318  13.730
16090W        W82499  36.113  23.193   0.480
16091W        W82500  36.270   1.258  12.050
16092W        W82501  25.116  36.324  14.358
16093W        W82502  39.308  27.940   3.735
16094W        W82503  33.413  25.224  11.094
16095W        W82504   6.783  36.826   3.395
16096W        W82505  16.861  24.590   0.087
16097W        W82506  31.402  34.823   4.876
16098W        W82507  36.163   0.432   4.636
16099W        W82508  20.796  38.789   4.170
16100W        W82509  17.554  12.051  11.128
16101W        W82510  19.524  25.993  10.737
16102W        W82511   3.375  29.506   1.791
16103W        W82512  42.356  29.621   2.396
16104W        W82513   1.781  14.111  13.832
16105W        W82514   5.005   1.351   2.772
16106W        W82515  38.086  10.338   1.399
16107W        W82516  12.812   2.049   3.673
16108W        W82517  27.967  36.898  12.191
16109W        W82518  31.831  41.306  13.359
16110W        W82519  23.080  37.806   0.410
16111W        W82520   5.696   7.989   2.706
16112W        W82521  16.713  17.854  12.391
16113W        W82522   2.708   6.438  11.688
16114W        W82523   3.415  22.207   4.104
16115W        W82524  14.097  43.389  11.024
16116W        W82525  17.791  13.110   1.342
16117W        W82526  14.748   8.871   3.778
16118W        W82527   3.937   4.489   4.897
16119W        W82528  44.134  19.622  10.715
16120W        W82529  28.775  10.900   0.438
16121W        W82530  17.089  14.024  11.598
16122W        W82531  40.336  22.038  11.575
16123W        W82532  35.218  29.192  11.389
16124W        W82533  24.372  33.130  12.505
16125W        W82534   3.706  14.599   3.734
16126W        W82535  15.326   2.009   3.581
16127W        W82536  41.859  36.394   1.212
16128W        W82537  42.904  30.766   1.898
16129W        W82538  11.681  28.252  13.428
16130W        W82539  29.685  30.989  13.375
16131W        W82540  13.378  26.339   0.920
16132W        W82541  33.651  15.058  12.895
16133W        W82542  42.016  34.134   2.811
16134W        W82543  12.305  36.430  13.466
16135W        W82544  18.160  15.580  14.819
16136W        W82545  33.146  30.000   0.400
16137W        W82546  12.585   0.043  14.531
16138W        W82547  34.622  25.500  14.495
16139W        W82548  34.035  17.584   1.787
16140W        W82549  24.243  18.169   2.286
16141W        W82550   0.017  21.468   1.304
16142W        W82551  12.375  39.325  13.948
16143W        W82552  14.483   7.711   4.230
16144W        W82553  38.907  20.814  10.947
16145W        W82554  29.025   2.312   4.451
16146W        W82555  12.503  25.438   1.879
16147W        W82556  41.067  20.095   4.022
16148W        W82557  41.162  11.081   1.952
16149W        W82558  18.123  19.594   2.747
16150W        W82559  19.596   3.660   0.382
16151W        W82560  11.349  34.871   0.874
16152W        W82561   3.006  15.188   4.403
16153W        W82562  15.518   9.964   2.354
16154W        W82563  41.453  32.062   3.310
16155W        W82564  36.898   9.739   3.251
16156W        W82565   1.693  32.109   3.231
16157W        W82566  13.035  26.044  11.183
16158W        W82567  37.116  38.363   4.176
16159W        W82568  21.214  39.394  11.505
16160W        W82569  16.727  43.013   3.534
16161W        W82570   1.512  34.031   4.334
16162W        W82571  33.238  15.703   4.071
16163W        W82572  12.620  30.079  13.482
16164W        W82573  26.224  12.674  11.494
16165W        W82574   2.613  17.391  14.840
16166W        W82575   9.727  38.270  11.641
16167W        W82576  18.925   8.002   3.960
16168W        W82577  12.068  18.076   1.666
16169W        W82578  14.688  38.939   2.562
16170W        W82579   6.348  37.002   4.296
16171W        W82580  35.533  28.800  10.679
16172W        W82581   5.914  13.751  12.361
16173W        W82582  10.814  17.116   0.729
16174W        W82583  43.432   2.947  12.998
16175W        W82584  22.029  21.921   9.753
16176W        W82585  32.426  20.521  13.814
16177W        W82586   7.834  39.795   4.428
16178W        W82587  16.801  22.108   3.296
16179W        W82588  44.156   7.737   2.814
16180W        W82589  27.620  10.872   3.329
16181W        W82590  25.744  19.021  13.573
16182W        W82591  16.267  28.006  11.905
16183W        W82592   4.563  38.449  12.101
16184W        W82593  19.150   7.811  13.410
16185W        W82594  26.953   7.191   3.587
16186W        W82595  30.649  41.520   4.643
16187W        W82596  44.985  44.937  14.770
16188W        W82597  22.978  37.114  11.107
16189W        W82598  21.722  34.007  11.511
16190W        W82599  11.461  26.369  10.426
16191W        W82600   6.268  41.620  14.569
16192W        W82601   1.396  23.909  12.207
16193W        W82602   7.126  43.463   0.355
16194W        W82603  24.660  32.360  12.429
16195W        W82604  23.730  14.773   4.373
16196W        W82605  43.165  41.371   3.173
16197W        W82606  33.473  36.397  14.307
16198W        W82607   3.141  17.621   0.598
16199W        W82608  25.756   4.694   1.292
16200W        W82609   1.383  42.863   1.402
16201W        W82610   5.823  12.808  13.735
16202W        W82611  44.577  13.444  11.992
16203W        W82612   9.856  30.072   2.258
16204W        W82613  20.565   9.123   0.241
16205W        W82614  40.113  41.781  10.762
16206W        W82615  41.988  30.140   4.616
16207W        W82616  16.010  13.674  12.058
16208W        W82617  26.741  39.006  12.861
16209W        W82618  33.049  44.243  14.384
16210W        W82619  43.281  35.323  10.644
16211W        W82620  41.406  29.533  12.476
16212W        W82621  37.559   0.920   0.234
16213W        W82622  39.901   1.406  13.498
16214W        W82623  42.862  44.805  13.490
16215W        W82624  33.525   4.423   3.236
16216W        W82625   9.837  14.126  13.955
16217W        W82626  43.662   7.267   4.469
16218W        W82627  37.463  38.825   1.326
16219W        W82628  16.292  30.418  14.434
16220W        W82629  42.063  16.521   0.400
16221W        W82630  26.926  17.074  14.462
16222W        W82631  33.403  14.823  13.485
16223W        W82632  33.081  33.594   3.633
16224W        W82633  40.609  24.945  11.029
16225W        W82634  19.453  12.812  12.794
16226W        W82635  27.714  39.733  14.098
16227W        W82636   5.388  15.136   4.342
16228W        W82637  38.501  22.016  12.827
16229W        W82638  40.720  39.400   1.806
16230W        W82639  41.312  33.332  13.521
16231W        W82640   8.362  11.031  11.669
16232W        W82641  35.054  18.182  12.042
16233W        W82642  42.536  11.733   1.752
16234W        W82643  42.286  39.661   4.190
16235W        W82644   6.387  30.605  13.896
16236W        W82645  40.873  14.639  12.325
16237W        W82646   9.892  22.522  11.133
16238W        W82647   2.458  17.733  14.479
16239W        W82648  37.247   4.702  12.864
16240W        W82649   5.854   7.302   2.262
16241W        W82650  14.549  26.151   1.333
16242W        W82651  29.749  20.947   2.230
16243W        W82652  22.611  28.022   1.748
16244W        W82653  13.855  14.777   2.738
16245W        W82654  15.021  43.420   0.441
16246W        W82655  24.556   8.480   4.368
16247W        W82656  12.778  18.646  14.437
16248W        W82657  32.623  10.031  12.777
16249W        W82658  34.907  19.143  11.056
16250W        W82659   4.654  38.059  13.502
16251W        W82660  18.592  12.243   2.338
16252W        W82661  10.750  31.020  13.034
16253W        W82662   0.182  27.686   1.600
16254W        W82663  25.055   4.602   4.599
16255W        W82664  10.844   1.806  14.474
16256W        W82665  36.044  43.373   0.898
16257W        W82666   5.087  34.355  14.732
16258W        W82667  33.697  35.672  11.533
16259W        W82668  33.546  26.036  10.550
16260W        W82669   6.035  12.575  13.335
16261W        W82670  22.492   6.732  14.439
16262W        W82671  19.279  12.344  11.102
16263W        W82672   0.854  10.591  12.501
16264W        W82673  25.518   6.944   1.633
16265W        W82674  24.031  42.062   2.951
16266W        W82675  40.861  38.327  12.009
16267W        W82676   2.841  20.657  13.039
16268W        W82677  23.282   4.898   3.682
16269W        W82678  22.960  28.142   4.033
16270W        W82679   8.278  18.323   2.334
16271W        W82680  31.971  25.094   5.109
16272W        W82681  38.857  25.091  12.986
16273W        W82682  29.215  21.635  10.312
16274W        W82683  22.776  11.945  12.062
16275W        W82684  23.946   7.401   0.829
16276W        W82685   8.200  12.990   2.066
16277W        W82686  10.863  26.539   1.666
16278W        W82687  33.568   7.318  12.956
16279W        W82688   6.797  21.544  10.327
16280W        W82689  22.519  25.152  12.405
16281W        W82690  20.246  35.503  12.953
16282W        W82691  20.624  15.648  14.404
16283W        W82692  36.364  33.386  14.990
16284W        W82693  30.990   0.378  12.578
16285W        W82694  39.869  19.833  10.635
16286W        W82695  15.980  21.260   0.385
16287W        W82696  19.865  41.342   2.229
16288W        W82697  26.002  12.878  14.378
16289W        W82698   7.042   4.475  14.433
16290W        W82699  19.106  11.868  11.032
16291W        W82700   0.835  33.799   4.182
16292W        W82701   2.005  31.634   2.126
16293W        W82702  38.637  32.267   4.744
16294W        W82703  42.908  31.853  11.472
16295W        W82704  25.243  20.037  12.468
16296W        W82705  28.979  24.007  10.687
16297W        W82706   8.676  19.804  12.082
16298W        W82707  33.564  44.776  13.829
16299W        W82708  23.202   4.351  14.624
16300W        W82709  40.462  20.528  10.097
16301W        W82710  19.274  15.239   2.146
16302W        W82711  24.978   0.581  12.546
16303W        W82712   0.333  15.240   2.876
16304W        W82713  30.435   9.618   2.346
16305W        W82714  16.260  38.956  12.491
16306W        W82715  43.909  16.683   4.569
16307W        W82716  14.026  42.039  13.446
16308W        W82717  44.301   2.848   3.904
16309W        W82718   8.020  28.696  14.921
16310W        W82719   9.057   7.254  13.038
16311W        W82720  36.412  35.984   9.709
16312W        W82721   3.493  43.347   0.680
16313W        W82722   5.119  42.453  12.081
16314W        W82723  40.411  21.682   2.789
16315W        W82724  23.019  29.399  14.460
16316W        W82725  43.940   2.377   4.914
16317W        W82726   1.789  14.293  11.059
16318W        W82727  36.905  14.664   2.231
16319W        W82728   3.468  12.566  13.439
16320W        W82729  12.932  19.556   4.127
16321W        W82730  25.491  20.480  12.435
16322W        W82731   5.316   5.713  13.303
16323W        W82732   8.485   4.654   2.267
16324W        W82733  22.252   4.319  14.277
16325W        W82734  39.424   4.334  13.154
16326W        W82735   6.916  44.050   1.918
16327W        W82736  29.699  12.595  10.775
16328W        W82737  29.563  17.952   4.240
16329W        W82738  34.915  22.997  11.901
16330W        W82739  44.511  41.511  10.279
16331W        W82740   3.429  26.405  13.373
16332W        W82741  22.706  34.956   4.660
16333W        W82742  43.088  15.749  10.770
16334W        W82743   2.764   8.806  10.959
16335W        W82744  28.553   6.382   2.858
16336W        W82745  43.582  19.149   4.213
16337W        W82746  20.158  39.373   3.826
16338W        W82747  41.000  13.111  13.877
16339W        W82748  13.925  23.094   1.317
16340W        W82749   9.714  30.609  13.584
16341W        W82750  13.268  39.983  11.942
16342W        W82751  36.622   0.111  10.016
16343W        W82752  31.528  18.037  13.557
16344W        W82753  14.794  20.265   2.814
16345W        W82754  24.874  43.748   1.272
16346W        W82755  19.218  25.753   0.400
16347W        W82756   4.882  36.973  14.862
16348W        W82757  18.336  13.411   2.607
16349W        W82758  22.609   5.336  14.267
16350W        W82759  25.011  25.720   1.799
16351W        W82760  29.959  26.345  12.325
16352W        W82761  18.240  37.562  10.486
16353W        W82762   0.312  27.004   4.546
16354W        W82763  10.854   9.582  11.159
16355W        W82764  18.636  15.809  10.615
16356W        W82765  32.005   2.002   1.499
16357W        W82766  26.468   6.317  12.885
16358W        W82767  40.023  11.630  11.989
16359W        W82768  11.705   3.017   2.661
16360W        W82769  43.068  36.051  12.973
16361W        W82770  37.406  30.772   5.191
16362W        W82771  14.759  17.063   0.965
16363W        W82772  25.629  36.856   1.324
16364W        W82773   1.445   9.296  14.859
16365W        W82774  11.379  41.809   3.154
16366W        W82775  43.266  19.504  11.978
16367W        W82776  42.991  26.331  11.266
16368W        W82777  28.077  38.498  11.159
16369W        W82778   3.241  40.449   0.733
16370W        W82779  15.419  24.122   4.613
16371W        W82780  18.557  30.643   1.571
16372W        W82781  16.629  19.672  13.762
16373W        W82782  33.892   5.985   0.729
16374W        W82783  33.048  12.028   3.256
16375W        W82784  19.626  39.581   3.340
16376W        W82785  38.826  32.990   4.280
16377W        W82786  38.867  37.359  11.092
16378W        W82787  18.577  37.962  14.306
16379W        W82788  10.682   3.754   1.541
16380W        W82789   5.933  13.385  14.254
16381W        W82790  24.217  26.659   1.306
16382W        W82791  34.429  31.189   4.245
16383W        W82792  20.474   8.248   2.172
16384W        W82793  16.821   6.004   4.716
16385W        W82794  38.371  34.387   3.854
16386W        W82795  37.905   4.532  14.943
16387W        W82796  36.529  14.318  10.275
16388W        W82797  17.044  23.774  12.126
16389W        W82798   9.151   9.996   4.503
16390W        W82799  16.172  13.169   2.196
16391W        W82800  19.761  39.917   0.213
16392W        W82801   0.307  34.177   3.564
16393W        W82802   3.693   5.956  12.513
16394W        W82803  23.242  30.125  13.076
16395W        W82804  30.752   7.299  14.540
16396W        W82805   3.066  25.455   2.747
16397W        W82806  33.903  28.156  11.337
16398W        W82807  36.892  42.287   2.389
16399W        W82808   5.209  27.429  14.257
16400W        W82809  19.578   7.377   4.048
16401W        W82810  24.173   1.809   5.008
16402W        W82811  24.732  23.139   2.144
16403W        W82812  42.037   0.706   0.872
16404W        W82813  40.368   5.224   0.462
16405W        W82814  30.528  36.704  13.365
16406W        W82815  42.089  19.264   5.118
16407W        W82816  38.991  43.511  11.833
16408W        W82817  42.902  20.686  13.646
16409W        W82818  27.860  41.882  11.166
16410W        W82819  41.564  44.519  11.506
16411W        W82820  33.069  26.504  14.412
16412W        W82821  13.244   3.489   0.976
16413W        W82822  14.085  30.349  14.853
16414W        W82823  36.727  25.037   0.818
16415W        W82824  17.556  23.723   0.994
16416W        W82825  34.108   7.816  14.076
16417W        W82826  41.618  25.447   1.866
16418W        W82827   1.542  12.766   1.374
16419W        W82828   6.654   8.400  11.064
16420W        W82829  16.085   8.592  14.051
16421W        W82830   8.209  10.973   3.539
16422W        W82831  28.060  24.711   1.765
16423W        W82832  29.650  34.948  11.955
16424W        W82833  17.856  36.351   1.331
16425W        W82834  23.896  42.313  12.979
16426W        W82835   3.529  12.701  10.713
16427W        W82836   3.919  40.771  11.360
16428W        W82837  31.157   5.860   0.325
16429W        W82838  43.993   6.996   4.149
16430W        W82839  34.542  30.905  14.180
16431W        W82840   0.094   5.969   0.241
16432W        W82841  15.792  16.082   1.926
16433W        W82842  37.520  18.209   2.379
16434W        W82843   6.793   0.657  14.057
16435W        W82844  12.721  20.521  10.555
16436W        W82845   1.489  33.365  11.481
16437W        W82846   8.727  29.446  11.975
16438W        W82847  15.897  30.022  11.903
16439W        W82848  33.837  14.764  10.805
16440W        W82849  27.156  43.290   1.633
16441W        W82850   5.460  12.713  10.746
16442W        W82851  21.351   4.301   4.188
16443W        W82852  13.662  16.708   2.843
16444W        W82853  12.473   9.644  11.718
16445W        W82854  11.316  21.810   0.717
16446W        W82855  16.317   1.403  13.371
16447W        W82856   8.898  42.524  13.801
16448W        W82857   6.346  19.453   2.701
16449W        W82858  36.095   4.209   0.697
16450W        W82859  20.978  24.036   4.540
16451W        W82860  19.556  13.200  12.493
16452W        W82861  33.446  20.162   0.220
16453W        W82862  35.873  43.478  11.168
16454W        W82863  30.114  40.935   2.025
16455W        W82864  44.768  40.388  13.718
16456W        W82865  40.914   4.948  11.216
16457W        W82866  27.461   1.943  14.433
16458W        W82867   1.823  25.086   1.241
16459W        W82868  38.793  31.906   1.869
16460W        W82869  10.850   9.110   1.087
16461W        W82870  11.119   0.582   3.555
16462W        W82871  19.708  38.669   3.788
16463W        W82872  12.116   0.700   2.716
16464W        W82873  40.790  28.428   3.188
16465W        W82874   8.000  31.899  11.160
16466W        W82875   5.350  42.007  13.952
16467W        W82876  35.093   5.918   0.296
16468W        W82877   4.488  11.690  14.943
16469W        W82878  33.833  20.861   2.680
16470W        W82879  12.602  44.939  12.700
16471W        W82880  12.805  11.856  11.121
16472W        W82881  35.534  44.192   4.239
16473W        W82882   3.894  26.280   0.493
16474W        W82883   7.342  17.501   2.191
16475W        W82884   9.098  10.102   3.243
16476W        W82885  36.360  13.098   2.421
16477W        W82886  23.246   4.177   2.777
16478W        W82887  16.878  42.786  14.422
16479W        W82888  33.045   1.485  13.869
16480W        W82889  36.634  30.920   4.728
16481W        W82890  15.207  18.519   1.287
16482W        W82891  43.011  33.317  12.174
16483W        W82892  40.837  20.603  13.078
16484W        W82893  26.596  35.991   3.667
16485W        W82894   7.694  13.028  12.441
16486W        W82895   3.269  35.487  14.950
16487W        W82896   9.184  37.793   3.277
16488W        W82897   2.670  33.464   3.808
16489W        W82898  33.840   9.984  14.562
16490W        W82899  32.108  29.476   3.643
16491W        W82900  43.623  26.045  12.398
16492W        W82901  43.330  31.269   3.869
16493W        W82902   4.693  27.913  12.549
16494W        W82903  35.427   2.474   5.182
16495W        W82904  27.493   7.130   0.873
16496W        W82905  28.438  27.209  11.555
16497W        W82906  27.393  34.308   4.510
16498W        W82907   6.146  14.804  14.944
16499W        W82908   5.672  39.261   4.222
16500W        W82909   2.820  12.367   1.782
16501W        W82910   4.248  13.281   3.160
16502W        W82911  37.562  12.394   2.736
16503W        W82912  44.066  38.667   2.747
16504W        W82913   3.313  20.917   0.926
16505W        W82914  29.617  41.093  13.453
16506W        W82915  43.161   6.244   1.837
16507W        W82916  21.415  29.617  12.730
16508W        W82917  31.261   4.764  10.522
16509W        W82918   6.228  44.348   3.701
16510W        W82919  28.492  35.056  12.081
16511W        W82920  20.296  17.568   0.819
16512W        W82921  20.937   7.078  12.486
16513W        W82922   9.851  16.739  10.930
16514W        W82923  16.473   5.538  13.344
16515W        W82924   5.496   5.969   3.700
16516W        W82925   5.387  12.260   2.278
16517W        W82926  12.792   2.498  12.597
16518W        W82927  17.296  29.694   4.216
16519W        W82928   1.939  32.376   1.370
16520W        W82929  29.549   3.879   2.631
16521W        W82930  42.912  34.076   0.950
16522W        W82931   3.122   6.692   1.364
16523W        W82932  12.001  37.286  12.404
16524W        W82933  21.315  32.227  14.356
16525W        W82934   0.271  28.057  13.531
16526W        W82935   2.579  10.060   2.444
16527W        W82936  13.622   9.407  10.845
16528W        W82937   5.248   0.345   3.678
16529W        W82938  34.113  39.568  13.129
16530W        W82939  33.159  27.714   2.687
16531W        W82940   5.371   7.470  12.047
16532W        W82941  24.420  19.653  11.548
16533W        W82942   0.881  42.656   3.844
16534W        W82943  41.953  12.202  13.322
16535W        W82944  43.817  15.227  12.306
16536W        W82945  25.496  43.417   2.234
16537W        W82946  10.273   0.003   2.200
16538W        W82947   2.521  10.320   3.987
16539W        W82948  14.177  28.298  13.039
16540W        W82949   3.414   8.918  11.599
16541W        W82950  10.556  28.169  11.744
16542W        W82951  10.233  26.756   0.834
16543W        W82952  42.847   0.481   4.808
16544W        W82953  44.253  21.181   2.909
16545W        W82954  37.048  42.383  10.818
16546W        W82955   4.406  33.986  10.727
16547W        W82956   9.142  40.078  12.657
16548W        W82957  16.771  15.489  11.171
16549W        W82958  24.562  11.664  12.920
16550W        W82959  43.554  13.867  13.562
16551W        W82960  12.735   0.725  13.786
16552W        W82961  19.865  16.476  10.031
16553W        W82962  35.191  31.199   1.348
16554W        W82963   6.875  39.829   1.200
16555W        W82964  12.572   7.970   1.642
16556W        W82965  34.025  43.287  10.794
16557W        W82966  16.125  12.905  14.976
16558W        W82967  34.799   4.210  11.259
16559W        W82968   4.864  21.001   9.921
16560W        W82969  42.198   7.712   3.698
16561W        W82970   5.320   9.871   0.662
16562W        W82971  36.200  26.766  12.693
16563W        W82972  39.840   2.924   2.947
16564W        W82973  30.970  19.827   0.966
16565W        W82974  36.946  20.080   0.318
16566W        W82975  17.914   6.223   1.884
16567W        W82976  20.499  17.139  13.471
16568W        W82977  39.482   0.461   3.961
16569W        W82978   0.348  38.371  10.937
16570W        W82979  39.098   4.885  12.357
16571W        W82980   6.150  20.536   1.689
16572W        W82981  11.638  36.336  12.132
16573W        W82982  16.873   5.922  11.621
16574W        W82983  12.077  21.116  12.829
16575W        W82984   9.775  14.709   4.078
16576W        W82985   5.362  24.952  13.719
16577W        W82986  16.004  29.599  10.728
16578W        W82987  43.622  11.218   4.974
16579W        W82988  29.971  27.634  13.163
16580W        W82989  20.292   7.341   2.324
16581W        W82990  14.647  22.500   0.862
16582W        W82991  33.428  25.775  13.863
16583W        W82992  22.981   4.464   3.681
16584W        W82993  18.099  25.179  10.764
16585W        W82994   3.457  23.695   1.389
16586W        W82995  37.333  30.581  14.056
16587W        W82996  17.063  13.643   2.336
16588W        W82997  26.603  25.548   3.610
16589W        W82998  36.465   9.283   2.732
16590W        W82999   7.201  20.426   5.293
16591W        W83000   3.687  23.543  14.506
16592W        W83001   6.741  19.818   2.053
16593W        W83002   5.932  40.627   0.537
16594W        W83003  19.213   0.820  14.711
16595W        W83004  14.985   0.491   4.988
16596W        W83005   6.992   0.424   3.794
16597W        W83006  40.037  39.854  14.503
16598W        W83007   4.340  34.344   1.383
16599W        W83008  42.126  32.028  12.082
16600W        W83009   1.644  17.722  14.835
16601W        W83010  22.453  34.116  13.352
16602W        W83011  29.859   4.331   4.573
16603W        W83012  41.742  31.158  11.210
16604W        W83013  28.083  42.379   4.600
16605W        W83014  35.787  41.359   2.456
16606W        W83015   3.718  44.299   0.488
16607W        W83016   9.896   5.332  10.444
16608W        W83017   6.014   8.821   2.897
16609W        W83018   7.827   2.480   1.907
16610W        W83019   1.593  24.264  13.974
16611W        W83020   6.937  10.601  13.914
16612W        W83021  40.407  15.803   1.673
16613W        W83022  32.302   6.508  14.542
16614W        W83023   4.008  15.160  11.531
16615W        W83024  33.804  40.955   3.684
16616W        W83025  19.216  11.717  13.368
16617W        W83026  39.532   2.175   2.033
16618W        W83027  23.999  40.334   1.127
16619W        W83028   9.799  19.121  14.393
16620W        W83029  29.636  43.545   3.123
16621W        W83030  31.309   8.303   4.637
16622W        W83031  28.138  27.776  12.016
16623W        W83032  17.047  35.000   2.935
16624W        W83033  39.749  29.629  11.069
16625W        W83034   5.360   0.024   4.084
16626W        W83035  34.908  36.006   2.402
16627W        W83036   0.886  14.163  13.851
16628W        W83037   6.419  27.458  12.420
16629W        W83038   9.093   6.927   2.904
16630W        W83039   7.112  39.181  14.529
16631W        W83040  28.042  30.187   0.333
16632W        W83041   5.987   6.298   1.322
16633W        W83042  15.712   9.434   2.363
16634W        W83043  42.777  24.645   0.741
16635W        W83044  14.826  25.533   3.789
16636W        W83045  35.794  23.154  12.384
16637W        W83046  28.114  16.235   4.156
16638W        W83047  27.436   9.339   4.599
16639W        W83048   8.462  18.156  14.472
16640W        W83049  37.562   4.875   2.240
16641W        W83050  34.116  19.719   3.526
16642W        W83051  43.453  34.382   4.445
16643W        W83052  39.936  18.106   1.894
16644W        W83053   0.661  38.280   3.313
16645W        W83054   1.284  34.102   3.471
16646W        W83055  43.229   8.609   4.786
16647W        W83056  18.468  12.868   1.653
16648W        W83057   9.133  16.368  14.169
16649W        W83058  43.515   3.211   2.207
16650W        W83059  21.606  41.508  13.915
16651W        W83060  35.668  30.143  12.576
16652W        W83061   2.895  41.788  13.009
16653W        W83062  23.494   8.156  12.452
16654W        W83063  11.341  43.559  11.442
16655W        W83064  32.578  33.655   0.491
16656W        W83065  42.398   5.338   1.272
16657W        W83066  30.002  39.016   3.049
16658W        W83067  40.276  14.553   0.182
16659W        W83068  12.542  34.180  11.062
16660W        W83069  12.192   3.477   4.180
16661W        W83070  10.080  18.738   3.217
16662W        W83071   1.952  10.871   0.517
16663W        W83072  40.671  34.342   1.308
16664W        W83073  10.739   3.736   1.026
16665W        W83074  11.952  14.263  14.964
16666W        W83075  13.250  41.435   0.666
16667W        W83076  36.644  12.236  11.253
16668W        W83077  11.292  36.462   4.834
16669W        W83078  43.354  26.198   2.710
16670W        W83079  20.990  39.574   3.744
16671W        W83080   0.902  21.506   4.214
16672W        W83081  39.297  15.352  11.419
16673W        W83082   7.748  44.322  11.613
16674W        W83083  22.117  22.488   4.033
16675W        W83084  27.078   5.463  13.866
16676W        W83085   0.495  35.537   1.718
16677W        W83086  25.588  26.111   4.415
16678W        W83087  43.407   0.413   0.437
16679W        W83088  24.513  40.807  10.733
16680W        W83089  26.985  13.121  12.934
16681W        W83090  32.040  33.365  12.076
16682W        W83091  37.424  36.794   4.613
16683W        W83092  13.171  33.155  12.395
16684W        W83093   2.766  23.217   1.445
16685W        W83094  26.517  12.289  12.363
16686W        W83095  22.333   8.943   0.360
16687W        W83096  39.909  23.373   3.639
16688W        W83097  34.719  14.158   3.705
16689W        W83098  33.117  13.016  14.461
16690W        W83099   4.332   5.151  13.386
16691W        W83100  16.238   8.796  10.687
16692W        W83101   5.912  11.052   0.469
16693W        W83102  13.195  34.407   1.992
16694W        W83103  10.415  43.845   2.777
16695W        W83104  44.944  20.440   1.469
16696W        W83105  28.994  38.328   4.016
16697W        W83106  19.605  20.065   1.235
16698W        W83107  31.704  37.852   2.683
16699W        W83108  27.084  20.030  14.967
16700W        W83109  31.829   5.366  13.068
16701W        W83110  15.292  33.138  13.125
16702W        W83111   8.288   1.302   4.553
16703W        W83112   7.257  21.521   3.203
16704W        W83113  32.109  11.786  13.289
16705W        W83114   0.931  29.658  10.745
16706W        W83115   1.009  31.595  12.128
16707W        W83116  32.277   6.545  13.304
16708W        W83117  28.570  23.433  10.400
16709W        W83118  44.685  13.630  10.682
16710W        W83119  43.983  33.595  11.911
16711W        W83120  29.213  19.691  14.980
16712W        W83121  12.241  10.381  12.563
16713W        W83122  12.615  35.979  11.632
16714W        W83123  41.898   8.757  14.157
16715W        W83124   5.228   8.227  10.797
16716W        W83125  13.770  20.519   5.461
16717W        W83126  42.610   5.305  14.106
16718W        W83127  27.050  27.954   1.902
16719W        W83128  14.687  37.898  14.697
16720W        W83129  11.865   9.340   3.226
16721W        W83130  23.944  24.728   3.183
16722W        W83131  18.036  35.137   2.814
16723W        W83132  31.637   1.308   1.104
16724W        W83133  36.051   5.403  14.002
16725W        W83134  39.379  40.774   2.419
16726W        W83135   4.249  28.228   2.066
16727W        W83136   3.366  27.220  12.263
16728W        W83137  37.494  26.491   3.658
16729W        W83138   5.870   4.658   1.826
16730W        W83139  38.344  12.879  13.012
16731W        W83140  15.996   5.469  14.606
16732W        W83141  43.402   0.500   3.588
16733W        W83142  28.203  43.451  13.453
16734W        W83143   8.205  19.606  12.099
16735W        W83144  28.140  18.645  12.673
16736W        W83145  20.583  37.104   0.719
16737W        W83146  26.616   4.180   0.403
16738W        W83147  22.615  41.064   1.459
16739W        W83148  11.879  40.097  10.281
16740W        W83149   4.897  33.910   0.507
16741W        W83150  32.698  29.531  11.034
16742W        W83151  35.246   1.189   1.697
16743W        W83152  30.958  16.765   2.266
16744W        W83153  33.437  34.409   1.712
16745W        W83154  44.257  38.028   3.206
16746W        W83155  27.923  38.058   4.821
16747W        W83156  12.518   6.021  14.400
16748W        W83157   1.346  24.548   2.427
16749W        W83158  21.932  29.303   4.566
16750W        W83159  16.024  32.399  11.390
16751W        W83160   7.467  33.716  14.236
16752W        W83161  24.930   6.625  11.656
16753W        W83162  33.221  21.020   1.675
16754W        W83163   3.007  11.355  14.453
16755W        W83164   5.542  22.343  14.922
16756W        W83165   8.927   6.352   4.995
16757W        W83166  11.896  21.592  12.646
16758W        W83167  40.903  44.322   4.190
16759W        W83168  42.395   9.102   0.783
16760W        W83169  19.774  28.558   4.387
16761W        W83170  42.123  34.544  11.720
16762W        W83171  25.095   4.081   4.627
16763W        W83172  30.240  33.617   1.876
16764W        W83173  41.542  33.879   2.803
16765W        W83174  25.687  21.214  14.360
16766W        W83175  44.822  28.744   3.137
16767W        W83176  12.282  43.429  10.775
16768W        W83177  17.792  38.389   2.814
16769W        W83178  36.461  26.014   4.621
16770W        W83179  17.599   9.157  13.732
16771W        W83180  32.363  14.626   3.691
16772W        W83181   9.187  24.092  11.225
16773W        W83182  26.435   1.022   3.224
16774W        W83183  18.558  32.082  13.516
16775W        W83184  11.751  27.992  11.145
16776W        W83185  25.699   2.500   0.374
16777W        W83186   2.081  23.701  10.695
16778W        W83187  33.281  32.803   2.697
16779W        W83188  32.933  39.022  12.583
16780W        W83189  44.405   0.523   1.902
16781W        W83190  12.914   6.851   4.563
16782W        W83191   7.056   1.774  12.894
16783W        W83192  25.039   8.908  14.978
16784W        W83193   2.284  33.334  13.861
16785W        W83194  32.083  16.184  10.773
16786W        W83195  30.147   9.734  12.964
16787W        W83196  10.377  37.061  13.612
16788W        W83197   8.937  13.617  14.796
16789W        W83198  27.443  24.297  12.151
16790W        W83199  17.157  38.259  13.165
16791W        W83200  20.661  37.581   1.666
16792W        W83201  40.528  18.524   0.964
16793W        W83202  19.502  25.163  13.937
16794W        W83203  42.462  33.968  12.477
16795W        W83204  31.654   2.812   2.046
16796W        W83205   4.074  25.617   5.024
16797W        W83206  31.512  28.884  12.059
16798W        W83207  36.652  25.695  11.996
16799W        W83208  39.357  20.672  12.489
16800W        W83209  23.766  26.102   4.620
16801W        W83210  32.612  23.291   0.478
16802W        W83211   8.810  38.396  11.035
16803W        W83212  25.146  41.867  10.418
16804W        W83213   9.817  23.664   3.584
16805W        W83214  12.854  34.142  13.035
16806W        W83215  23.089  14.390   0.028
16807W        W83216  21.046  19.572  12.103
16808W        W83217  16.747   3.406   2.957
16809W        W83218  39.962  30.535  13.157
16810W        W83219  28.717  25.101  14.531
16811W        W83220   9.759  37.014  11.604
16812W        W83221  32.943  37.505  14.452
16813W        W83222  13.183   8.821  14.915
16814W        W83223  17.069  36.931   3.792
16815W        W83224  25.686  28.538   1.171
16816W        W83225  24.600  21.289  13.505
16817W        W83226  16.786  24.953  13.493
16818W        W83227   7.211  31.583   0.391
16819W        W83228  38.826  44.392   1.237
16820W        W83229  38.878   3.200  13.005
16821W        W83230  38.032  16.816  12.584
16822W        W83231  36.087   1.032  11.136
16823W        W83232  43.802  32.172   4.930
16824W        W83233  10.247  11.714  12.022
16825W        W83234  43.766  33.370  11.513
16826W        W83235  43.305   3.491  11.355
16827W        W83236  36.374  13.796  11.007
16828W        W83237  43.991  16.325  14.285
16829W        W83238  22.624  23.435  14.353
16830W        W83239   6.617   1.469  14.199
16831W        W83240   3.051  10.258   5.041
16832W        W83241   8.687   3.290   4.231
16833W        W83242  27.747  28.209  12.913
16834W        W83243  34.479   4.616   3.702
16835W        W83244  13.534  36.221   1.836
16836W        W83245  26.494  29.103   2.222
16837W        W83246  37.826  11.749  12.664
16838W        W83247   2.820  43.357   0.401
16839W        W83248  18.758  31.877  10.045
16840W        W83249   1.350  17.671   3.887
16841W        W83250  22.168  24.644   0.368
16842W        W83251   5.523  37.274   1.221
16843W        W83252  37.408   4.933   0.765
16844W        W83253  42.394  19.013  11.545
16845W        W83254  31.958  21.011  11.670
16846W        W83255  18.548  33.033   0.109
16847W        W83256  16.583  34.945   4.717
16848W        W83257   3.172   6.477  14.467
16849W        W83258  33.117  26.218  13.898
16850W        W83259  35.100  22.437   1.347
16851W        W83260  39.292  27.222   4.221
16852W        W83261   8.831   8.647   2.687
16853W        W83262  27.260  18.239   3.846
16854W        W83263  14.768   3.467  11.497
16855W        W83264  31.989   1.641  14.779
16856W        W83265  14.255   5.412   3.127
16857W        W83266  22.213  31.637   1.899
16858W        W83267  35.367   9.678  11.141
16859W        W83268   4.270   3.464   1.434
16860W        W83269  24.267  40.300  11.997
16861W        W83270  10.264  33.770  10.805
16862W        W83271  20.549  29.028   4.114
16863W        W83272  22.700  25.276   4.544
16864W        W83273   7.614  37.623  13.162
16865W        W83274   8.647  38.031  10.548
16866W        W83275  44.012  39.735  14.373
16867W        W83276  18.818  43.784   0.722
16868W        W83277  30.581  17.836   0.044
16869W        W83278  37.952   3.746  10.232
16870W        W83279  25.119   7.823   1.823
16871W        W83280  25.628  33.018   4.355
16872W        W83281  41.063   8.052  11.129
16873W        W83282  19.226  29.645   3.144
16874W        W83283   5.238  15.402   0.041
16875W        W83284  19.188  25.029   3.756
16876W        W83285  37.611  33.609  10.996
16877W        W83286  22.013  20.079  12.508
16878W        W83287  19.119  15.134  14.901
16879W        W83288   2.042   3.625   1.741
16880W        W83289  22.015  23.602   1.541
16881W        W83290  31.043  24.770  11.084
16882W        W83291  33.053  19.214   4.943
16883W        W83292  41.471  16.365   1.738
16884W        W83293  12.591  17.266   3.284
16885W        W83294   8.915  18.191   2.755
16886W        W83295  10.236  21.829  11.561
16887W        W83296  22.573  18.798   3.611
16888W        W83297  15.546  10.983  14.864
16889W        W83298  41.777  24.815  11.376
16890W        W83299   4.018  20.691   1.348
16891W        W83300  22.982  42.466  10.659
16892W        W83301  14.726   3.565  12.900
16893W        W83302  28.477  34.981   0.845
16894W        W83303  19.016  34.051  14.400
16895W        W83304  34.406  24.293  13.011
16896W        W83305   6.370  44.747   4.053
16897W        W83306  34.084  25.407  13.144
16898W        W83307   7.423  11.888  12.910
16899W        W83308  44.771   9.267  12.306
16900W        W83309   4.634  21.534  14.256
16901W        W83310  11.440  11.702  11.387
16902W        W83311  43.001  18.457  12.003
16903W        W83312  36.360  19.056  11.041
16904W        W83313   9.605  24.580   2.246
16905W        W83314  44.301  22.282  10.656
16906W        W83315  41.295  23.252  12.191
16907W        W83316  19.206   5.363   4.934
16908W        W83317  34.943   4.713  11.282
16909W        W83318  38.642  10.203   3.764
16910W        W83319  22.503   0.296   2.646
16911W        W83320   8.971  36.964  11.959
16912W        W83321  28.432  29.148  11.660
16913W        W83322  11.194  27.474   1.146
16914W        W83323  25.269   8.652   3.308
16915W        W83324  37.818  36.614   3.634
16916W        W83325   7.652   6.086  10.223
16917W        W83326  36.498  14.663   0.031
16918W        W83327  22.828  36.365  11.611
16919W        W83328   7.927  22.295   1.325
16920W        W83329  27.231   9.352  11.608
16921W        W83330  21.587  25.637  12.018
16922W        W83331  13.170  36.483   4.799
16923W        W83332  30.205  12.203  14.932
16924W        W83333  19.240  29.168   0.379
16925W        W83334  30.567   5.339  14.326
16926W        W83335  44.009  14.179   2.846
16927W        W83336   1.951  32.145   2.291
16928W        W83337  38.541  37.351  14.013
16929W        W83338  16.310  25.428   4.109
16930W        W83339  39.038  19.239  12.916
16931W        W83340  11.129   3.209   0.837
16932W        W83341  37.506  39.765   1.299
16933W        W83342  41.315  42.968   3.561
16934W        W83343  30.403  18.660  11.559
16935W        W83344  44.869  33.898   0.265
16936W        W83345  20.158  23.199   3.858
16937W        W83346  32.524   9.719   4.621
16938W        W83347   0.430  24.140   1.814
16939W        W83348  42.128  34.393   4.097
16940W        W83349  37.408  22.708   5.327
16941W        W83350  21.944   2.408  13.672
16942W        W83351  39.777  31.660  13.903
16943W        W83352  44.742   2.487   4.692
16944W        W83353  20.222  10.388   4.497
16945W        W83354  27.582  12.162   3.820
16946W        W83355  18.920  41.240   0.749
16947W        W83356   3.828   8.102  10.629
16948W        W83357  19.737  31.043  11.655
16949W        W83358   3.940  27.138   1.027
16950W        W83359  29.204   2.026  14.761
16951W        W83360  30.433   2.348   9.778
16952W        W83361  20.313  43.229   4.291
16953W        W83362   8.698   2.848  10.074
16954W        W83363  33.418  17.276   1.415
16955W        W83364  24.610  16.667  13.864
16956W        W83365   6.859  26.128  14.803
16957W        W83366   8.360  34.546  12.919
16958W        W83367  18.045  11.014   1.405
16959W        W83368  20.236  22.427   0.832
16960W        W83369   4.632  15.837  14.002
16961W        W83370   0.556  24.910  10.737
16962W        W83371  34.161   3.319  12.116
16963W        W83372  24.946  38.384   1.631
16964W        W83373  15.635  23.385  10.327
16965W        W83374  14.539  26.471   0.519
16966W        W83375  23.252  38.497  14.787
16967W        W83376  16.190  20.176   1.326
16968W        W83377  13.819   8.350   3.413
16969W        W83378  42.194   8.908   1.877
16970W        W83379  43.284  31.450  14.379
16971W        W83380   1.039  33.202  11.624
16972W        W83381   1.329  32.831   2.173
16973W        W83382  35.426  24.662   4.809
16974W        W83383  41.311  24.089  14.691
16975W        W83384  44.375  40.338  10.768
16976W        W83385  31.441   0.521  10.765
16977W        W83386  26.572  30.722   2.565
16978W        W83387   1.317  33.534   4.351
16979W        W83388   4.494  43.518  14.435
16980W        W83389  19.945  18.904   3.403
16981W        W83390  20.312  12.601   3.611
16982W        W83391   7.604  18.296   4.503
16983W        W83392  22.075  35.929  13.910
16984W        W83393  25.259   3.821   3.123
16985W        W83394  11.742  39.774   4.136
16986W        W83395   5.013  36.840  14.355
16987W        W83396   2.579  41.783  14.949
16988W        W83397  43.522  35.853  11.556
16989W        W83398  38.410  36.027   4.626
16990W        W83399  41.889   8.669   1.448
16991W        W83400  36.078   7.207   2.725
16992W        W83401  23.629  41.963  12.173
16993W        W83402  16.616  44.382  10.346
16994W        W83403  23.177  29.558   3.644
16995W        W83404  30.471  15.295   3.598
16996W        W83405   1.344   9.372  10.120
16997W        W83406  25.021  41.555   2.335
16998W        W83407  35.502  44.845   2.697
16999W        W83408  17.034  44.783  13.916
17000W        W83409  41.948  37.121  10.635
17001W        W83410   7.902  18.222   2.685
17002W        W83411   9.260   6.861   4.610
17003W        W83412   4.808   1.276   3.743
17004W        W83413   6.369   9.634   2.198
17005W        W83414  44.766  26.907  12.755
17006W        W83415  25.594  23.711   1.456
17007W        W83416   8.582  20.577  13.067
17008W        W83417  14.637  33.910   3.885
17009W        W83418  16.656   9.625  14.783
17010W        W83419  28.243   4.349  10.229
17011W        W83420  40.805   1.629   3.593
17012W        W83421  14.023   6.943   1.735
17013W        W83422  27.444   5.771  13.627
17014W        W83423  33.612  13.102  12.114
17015W        W83424  19.203  44.302  12.471
17016W        W83425  33.745   1.489   4.157
17017W        W83426  30.589  24.992  11.352
17018W        W83427  37.274  40.361  11.239
17019W        W83428  20.036   9.641   0.751
17020W        W83429  17.735  28.726   2.518
17021W        W83430   5.287  31.893   1.108
17022W        W83431  28.749  40.479   4.720
17023W        W83432  41.029   6.377  13.386
17024W        W83433  23.299  34.584   3.098
17025W        W83434  22.036  32.152   1.902
17026W        W83435  14.332  33.412  10.991
17027W        W83436  15.591  36.787   3.947
17028W        W83437  15.859  43.455   5.020
17029W        W83438  34.594  39.503   4.400
17030W        W83439  22.577   6.691  13.007
17031W        W83440  22.561  44.829   3.782
17032W        W83441  12.443   5.015   0.103
17033W        W83442   8.129  18.776   3.252
17034W        W83443   7.991  26.522   0.427
17035W        W83444  36.791  31.544   2.606
17036W        W83445  10.825  14.489   2.088
17037W        W83446   3.706  41.083  11.008
17038W        W83447  12.093  30.611  14.719
17039W        W83448   1.188   1.557   3.044
17040W        W83449   8.917  32.510   3.821
17041W        W83450  15.703  33.993  13.814
17042W        W83451  38.964  29.101  14.629
17043W        W83452  21.608   2.154  14.819
17044W        W83453  29.346   1.338   2.864
17045W        W83454  41.855  34.327   2.212
17046W        W83455  11.860  20.036  13.666
17047W        W83456   5.229   2.600   3.746
17048W        W83457  30.360  25.607  14.473
17049W        W83458  27.908  19.700  11.587
17050W        W83459  23.168   7.288   1.214
17051W        W83460  33.877   7.217  11.525
17052W        W83461  31.988  25.276  12.340
17053W        W83462  14.126  40.794  13.889
17054W        W83463   9.147   4.924  10.797
17055W        W83464   7.496  23.291   3.136
17056W        W83465  14.115   3.500   4.133
17057W        W83466   4.529   0.444  11.953
17058W        W83467  12.225  26.161   0.308
17059W        W83468  16.289  19.668  13.385
17060W        W83469   5.646  31.918   1.500
17061W        W83470  31.032  33.201  11.630
17062W        W83471   8.638  12.557  13.815
17063W        W83472   0.514  41.930   3.600
17064W        W83473  18.650  20.629   0.838
17065W        W83474  40.100  42.430   1.968
17066W        W83475  42.820  20.793   2.892
17067W        W83476   7.658   7.185   4.093
17068W        W83477  41.798   3.401  10.051
17069W        W83478  20.874  22.980   4.229
17070W        W83479   6.236  32.017  14.767
17071W        W83480  40.837  34.853   3.567
17072W        W83481  11.203   5.786  13.901
17073W        W83482  44.560  43.322  12.868
17074W        W83483   3.556   4.438  13.839
17075W        W83484  31.742  24.945   4.122
17076W        W83485   8.984   4.794   1.883
17077W        W83486   2.427  16.432  14.911
17078W        W83487   5.142  18.589   1.689
17079W        W83488  29.142   5.795  11.061
17080W        W83489  19.282  25.598  10.512
17081W        W83490  18.641  25.980   2.486
17082W        W83491  29.583   4.914  11.072
17083W        W83492  28.380  33.017  13.372
17084W        W83493   0.458  17.691   4.087
17085W        W83494  38.653   2.278   4.541
17086W        W83495  11.421  30.424   2.198
17087W        W83496  13.612  14.147  11.646
17088W        W83497  23.940  26.494   0.909
17089W        W83498   6.470   0.705   2.417
17090W        W83499  14.216   0.510   2.447
17091W        W83500   8.118  32.290  12.545
17092W        W83501  21.881  27.079  12.717
17093W        W83502  19.492  33.060   1.354
17094W        W83503  17.061  42.907  13.520
17095W        W83504  14.329  10.163  13.816
17096W        W83505   7.712  10.633   3.837
17097W        W83506  25.713  23.280  14.340
17098W        W83507  39.540  27.753   4.223
17099W        W83508  42.845  34.466   0.601
17100W        W83509  27.613   8.775   4.094
17101W        W83510  17.288  23.780  11.643
17102W        W83511  38.395  18.629  10.297
17103W        W83512   9.188   7.225   3.319
17104W        W83513  13.795   6.829  11.609
17105W        W83514   6.788  13.081  10.756
17106W        W83515  27.905   7.072  10.097
17107W        W83516  42.268   0.731   4.143
17108W        W83517  20.645   3.600  14.117
17109W        W83518  12.635  10.079   1.283
17110W        W83519  11.036   8.601  11.547
17111W        W83520  27.983  18.529   4.518
17112W        W83521  31.221  14.644   2.936
17113W        W83522  16.060  32.810   2.128
17114W        W83523   7.721  15.861  10.564
17115W        W83524  30.745  37.880   0.871
17116W        W83525  10.963  30.520  11.507
17117W        W83526   5.151   9.832   3.717
17118W        W83527  11.554  10.996  12.037
17119W        W83528   6.694   5.136  11.362
17120W        W83529  26.615  32.100  11.592
17121W        W83530   1.513   0.493   0.404
17122W        W83531  42.378  27.153   3.826
17123W        W83532  16.758  16.642   3.666
17124W        W83533  31.968  36.633  14.320
17125W        W83534  26.288   9.213   3.750
17126W        W83535  44.345   3.199  13.801
17127W        W83536  32.093   9.287  10.693
17128W        W83537  32.932   9.638   3.856
17129W        W83538  20.481  30.781  14.063
17130W        W83539  31.656  28.849   1.394
17131W        W83540   0.779  15.194  14.827
17132W        W83541  13.646  40.477   0.210
17133W        W83542  26.549   3.985  12.347
17134W        W83543  30.665  22.678   0.448
17135W        W83544  12.900  40.856  11.158
17136W        W83545   8.812   9.118   1.784
17137W        W83546  27.632   3.870   0.769
17138W        W83547  33.041  13.604  13.580
17139W        W83548  27.964  19.563   3.686
17140W        W83549  13.055  42.381   3.200
17141W        W83550  25.087   9.377  12.885
17142W        W83551   9.719  34.858  13.062
17143W        W83552   3.475  10.232  13.377
17144W        W83553  17.684  27.183   3.741
17145W        W83554  12.405   3.926  12.896
17146W        W83555  39.312  17.194  11.497
17147W        W83556  22.630  31.736  14.378
17148W        W83557  16.694  20.047   1.350
17149W        W83558   1.961  16.472  12.499
17150W        W83559   1.439  18.321  13.836
17151W        W83560   2.871  32.524   3.376
17152W        W83561  21.079  10.148  10.547
17153W        W83562   5.853  40.267  11.135
17154W        W83563  24.224  37.063   1.328
17155W        W83564  40.767   0.988   4.179
17156W        W83565  22.812  17.212  12.062
17157W        W83566   4.767  23.701   3.434
17158W        W83567  39.877  27.525  12.013
17159W        W83568  10.712  21.271   3.050
17160W        W83569  17.565  28.463  12.741
17161W        W83570  26.189  20.132   0.822
17162W        W83571  23.542  33.488  12.400
17163W        W83572   0.935  39.220  12.005
17164W        W83573  25.470   9.917  13.416
17165W        W83574  11.207   8.650  13.877
17166W        W83575  36.851  29.932  14.922
17167W        W83576   5.619  33.540  11.126
17168W        W83577  14.090  33.392   4.674
17169W        W83578  28.950  20.248  10.595
17170W        W83579   9.774  11.775  13.677
17171W        W83580   3.940   4.434  10.970
17172W        W83581   2.663  27.739   4.589
17173W        W83582   4.481  15.792  11.225
17174W        W83583   4.955  23.473   1.524
17175W        W83584  41.873  19.088   3.241
17176W        W83585  19.940  10.179  12.156
17177W        W83586   3.895   4.266   4.441
17178W        W83587  36.075  36.275   3.222
17179W        W83588  32.793  44.303  13.429
17180W        W83589  11.564   4.696   2.315
17181W        W83590  32.719  29.546  10.500
17182W        W83591   3.772  27.952  11.180
17183W        W83592  40.240  24.599   4.090
17184W        W83593   3.118  31.699  12.549
17185W        W83594  18.665  19.254   0.736
17186W        W83595  32.964   4.130   4.020
17187W        W83596  35.756   6.670  12.051
17188W        W83597   2.258  14.565   3.203
17189W        W83598  39.306  38.953  14.696
17190W        W83599  21.385   0.969   1.229
17191W        W83600  19.761  16.251   0.761
17192W        W83601  15.487  40.637  11.601
17193W        W83602  10.291  15.773  11.972
17194W        W83603  29.116  15.911  13.489
17195W        W83604  30.543   1.984   3.028
17196W        W83605  42.985  39.045   1.474
17197W        W83606  25.714  44.780  14.255
17198W        W83607  10.791  11.066   0.013
17199W        W83608  25.738  24.151   0.328
17200W        W83609  13.412  34.221  11.417
17201W        W83610  43.974   3.853  13.628
17202W        W83611  19.526   4.398   1.046
17203W        W83612  34.019  41.041   1.385
17204W        W83613  17.487  38.841   1.334
17205W        W83614  38.055   8.129  11.196
17206W        W83615  16.218   0.522   0.698
17207W        W83616  34.022  35.920  13.296
17208W        W83617  30.550   9.068   5.048
17209W        W83618  43.078  11.789  12.005
17210W        W83619  33.282   6.397  13.402
17211W        W83620   8.308  32.448   0.045
17212W        W83621  13.696  40.752  13.095
17213W        W83622   3.221  17.108  12.483
17214W        W83623  28.014  14.346  14.853
17215W        W83624  22.696  37.178   3.713
17216W        W83625  36.429  43.491  11.168
17217W        W83626  26.321  26.301  11.626
17218W        W83627  26.899  17.852   3.345
17219W        W83628  26.083  21.150  10.360
17220W        W83629  12.165  19.007  14.448
17221W        W83630  37.119   1.274   4.524
17222W        W83631  32.220  36.264   0.200
17223W        W83632  17.073   8.689   3.246
17224W        W83633  23.926  29.429  12.042
17225W        W83634  27.558  14.106  14.870
17226W        W83635  14.273   7.887  13.979
17227W        W83636   3.696  31.652  12.522
17228W        W83637   4.434  12.315   0.381
17229W        W83638  34.305  35.035  11.999
17230W        W83639  18.217  40.872   1.279
17231W        W83640   7.745  42.939  13.381
17232W        W83641   3.849  38.927  10.191
17233W        W83642   9.859  35.970   3.035
17234W        W83643  24.735  30.544  13.711
17235W        W83644  16.099  36.583   0.438
17236W        W83645  12.171  41.742   0.456
17237W        W83646  29.415  21.818   2.510
17238W        W83647  30.476  11.604  11.533
17239W        W83648  34.110   7.760   2.178
17240W        W83649  40.045  15.343   3.714
17241W        W83650   7.920   5.359  13.837
17242W        W83651  19.734  10.276   1.183
17243W        W83652  34.909  41.820   4.583
17244W        W83653  13.836  29.281   2.736
17245W        W83654   6.835  35.107  11.560
17246W        W83655   1.263   5.462   1.695
17247W        W83656  41.206  18.036   1.368
17248W        W83657  39.277   6.805  13.567
17249W        W83658  36.698  42.820  14.611
17250W        W83659  10.518  13.339   4.725
17251W        W83660  10.149  27.500  10.770
17252W        W83661  18.304  40.508  13.908
17253W        W83662  12.340   9.152  12.225
17254W        W83663  34.254  21.977   4.453
17255W        W83664  31.898  31.651   2.570
17256W        W83665  14.670  23.222   2.630
17257W        W83666  27.428   8.743  13.508
17258W        W83667   8.664  14.578  10.707
17259W        W83668  31.945  16.081  10.294
17260W        W83669  31.249   1.448   2.690
17261W        W83670  17.199   2.358   4.134
17262W        W83671  14.882  36.078   9.759
17263W        W83672  34.127  26.477   4.548
17264W        W83673   4.008  42.367   2.191
17265W        W83674  16.500  36.448  11.669
17266W        W83675  19.207  29.273   2.791
17267W        W83676  26.081   7.274   2.174
17268W        W83677  12.283  23.952  13.137
17269W        W83678  42.359  37.084   3.289
17270W        W83679  35.976  33.631  12.204
17271W        W83680  25.044  11.460  10.181
17272W        W83681  21.311  33.189  13.420
17273W        W83682  25.420   6.258   0.448
17274W        W83683  34.345  35.612  14.999
17275W        W83684  29.528  23.637   4.167
17276W        W83685  17.039   8.818   4.190
17277W        W83686  40.902  42.017  14.635
17278W        W83687  14.070  22.139   0.819
17279W        W83688  38.177  42.520   1.778
17280W        W83689  42.638   7.374   5.603
17281W        W83690  32.201  22.822   2.145
17282W        W83691   0.832  25.534  13.092
17283W        W83692  17.091  26.112   0.341
17284W        W83693  15.443  27.735   3.389
17285W        W83694  21.557  41.264   4.676
17286W        W83695  25.812  13.799   4.236
17287W        W83696  21.678   2.138   4.539
17288W        W83697   3.656  12.413   3.715
17289W        W83698  33.938  30.896  12.901
17290W        W83699  11.951  23.176   0.777
17291W        W83700  15.597   9.679  10.222
17292W        W83701  19.225  21.925   1.729
17293W        W83702  28.477  43.730   0.348
17294W        W83703  22.625  44.359  14.974
17295W        W83704  13.625  39.870   1.755
17296W        W83705  22.231  10.110   1.935
17297W        W83706  43.666  11.908  10.211
17298W        W83707   5.890   5.329   0.916
17299W        W83708  39.598  28.593   4.531
17300W        W83709  18.748  44.449  14.466
17301W        W83710  38.658   7.728  14.373
17302W        W83711  17.625  42.349   2.206
17303W        W83712  25.025  39.186  13.159
17304W        W83713  44.454  16.733   2.764
17305W        W83714  22.482  42.428  11.282
17306W        W83715  35.250   5.989  14.814
17307W        W83716  43.825   6.640   0.366
17308W        W83717  31.074  37.412   1.646
17309W        W83718  42.362  20.533   2.856
17310W        W83719  15.335  22.971  14.088
17311W        W83720  24.486   9.665   0.098
17312W        W83721  39.377  29.022   0.917
17313W        W83722  32.131  32.005   2.270
17314W        W83723   6.739  36.762   2.328
17315W        W83724  23.886  14.442   0.592
17316W        W83725  22.721  19.154   1.309
17317W        W83726  30.661  33.239   2.626
17318W        W83727  32.360  22.341  11.590
17319W        W83728  23.329   2.478   1.587
17320W        W83729  25.023  29.166  11.598
17321W        W83730   0.929   8.649   2.695
17322W        W83731  38.953  41.900  13.422
17323W        W83732  26.813  27.719   3.809
17324W        W83733  17.792  26.828  11.073
17325W        W83734  33.564  28.055   3.731
17326W        W83735   3.009  20.755   0.543
17327W        W83736  42.866  28.062  13.370
17328W        W83737  21.802  36.846  13.992
17329W        W83738  13.143  23.118   4.611
17330W        W83739  33.330  32.092  11.107
17331W        W83740  35.299  44.383  10.990
17332W        W83741  14.264  29.465  14.339
17333W        W83742   7.914  17.569  11.106
17334W        W83743  14.617   2.038   2.390
17335W        W83744   6.369  21.790   3.417
17336W        W83745  31.655  18.668  12.332
17337W        W83746  27.235  35.812   0.330
17338W        W83747  42.931  41.416  11.361
17339W        W83748  44.321  19.257   0.930
17340W        W83749  12.986   7.875   3.627
17341W        W83750  17.139  24.242  10.705
17342W        W83751  29.857   9.628  13.796
17343W        W83752  25.627  15.604  12.456
17344W        W83753  11.665  44.841   0.782
17345W        W83754  21.138  31.477  12.307
17346W        W83755  38.372   6.484   0.800
17347W        W83756  15.207   2.368  11.201
17348W        W83757  15.918  40.537   5.274
17349W        W83758  25.653  40.561  11.526
17350W        W83759  32.567  21.962  13.472
17351W        W83760  24.997  10.589   1.957
17352W        W83761   9.398  10.509  12.283
17353W        W83762  30.373  15.268   1.259
17354W        W83763  30.082  40.428   2.777
17355W        W83764  34.059  23.672   3.696
17356W        W83765  43.518  16.495  13.027
17357W        W83766  11.200   7.783   2.770
17358W        W83767  40.562  27.809  13.936
17359W        W83768  26.045  18.290   4.294
17360W        W83769  28.231   0.411   3.250
17361W        W83770  21.447  38.856  12.691
17362W        W83771   3.841  26.113   2.942
17363W        W83772   7.299  35.844  13.527
17364W        W83773  38.410  32.997  14.344
17365W        W83774  39.113  34.524   2.491
17366W        W83775  18.194  35.154   0.769
17367W        W83776  42.353   0.452  10.392
17368W        W83777  35.898  34.771  13.598
17369W        W83778  35.860  38.546  12.507
17370W        W83779  29.175  29.694  10.811
17371W        W83780  18.046   1.762  10.886
17372W        W83781  44.425  13.211  10.533
17373W        W83782  34.343   1.417   2.860
17374W        W83783  28.961  15.592   2.733
17375W        W83784   8.670   2.183   3.263
17376W        W83785  44.138  22.609  12.537
17377W        W83786  22.068   7.914   1.286
17378W        W83787  10.731  32.256   1.339
17379W        W83788  40.055  27.766  11.502
17380W        W83789  37.125  36.916  13.978
17381W        W83790  19.133  35.080  11.990
17382W        W83791  25.510  20.278  10.309
17383W        W83792  30.945  22.136   2.364
17384W        W83793  27.413  44.558   1.897
17385W        W83794  27.121  36.290  11.717
17386W        W83795  31.573  32.198   0.953
17387W        W83796  13.311  42.840  14.474
17388W        W83797   1.340  29.807  14.035
17389W        W83798  27.486  27.910   0.002
17390W        W83799  15.309  27.844   1.916
17391W        W83800  13.615  27.896   3.756
17392W        W83801  16.207   9.419  14.927
17393W        W83802   3.336  23.718  12.900
17394W        W83803  37.984   0.980  12.722
17395W        W83804  29.223  14.759   1.235
17396W        W83805  24.230  32.612   0.735
17397W        W83806   6.672  41.050   4.211
17398W        W83807  25.905  22.031   3.807
17399W        W83808  13.244  42.660  11.478
17400W        W83809  39.372   1.718   4.658
17401W        W83810  14.923  11.107   1.433
17402W        W83811  21.755  24.087  14.036
17403W        W83812   0.741   3.991  11.200
17404W        W83813   0.010  15.929  10.524
17405W        W83814  21.292  26.569  13.463
17406W        W83815  22.484   5.121   3.170
17407W        W83816  24.551  32.022   3.413
17408W        W83817   0.539   1.810  10.960
17409W        W83818  13.690  41.625   1.009
17410W        W83819   1.719  43.510  13.507
17411W        W83820  35.162  32.606   3.768
17412W        W83821  17.858  40.302   1.822
17413W        W83822  33.547  37.051   2.376
17414W        W83823  42.011  33.435  11.257
17415W        W83824   1.872  26.709   3.928
17416W        W83825  40.669  37.602  14.317
17417W        W83826  18.510  32.532  14.336
17418W        W83827  44.731  32.032  11.870
17419W        W83828   5.665  23.044  12.980
17420W        W83829  38.559  42.426   0.206
17421W        W83830  29.196   7.255  12.872
17422W        W83831  37.289  41.426  13.310
17423W        W83832  22.678  38.450   1.278
17424W        W83833  23.023  18.885   3.885
17425W        W83834  14.821  20.448  12.771
17426W        W83835  23.568  34.322  13.245
17427W        W83836  25.936  39.016   0.256
17428W        W83837   7.805   9.442  14.100
17429W        W83838   3.370  13.860   2.980
17430W        W83839   3.417  12.045   2.832
17431W        W83840  29.887   2.293   0.033
17432W        W83841  44.701   8.347  10.325
17433W        W83842  42.977  24.685  11.583
17434W        W83843  38.604   9.420  11.208
17435W        W83844  21.642  39.436   3.274
17436W        W83845  10.668  40.069  10.820
17437W        W83846  19.070  11.186  14.848
17438W        W83847   9.434  16.090   3.884
17439W        W83848  28.503  34.221   4.655
17440W        W83849  38.517  15.763   1.003
17441W        W83850  44.527  10.288   2.564
17442W        W83851  26.908  34.818  12.966
17443W        W83852  19.158   7.942  14.892
17444W        W83853  20.197  31.083  13.437
17445W        W83854  28.198   1.276  12.458
17446W        W83855   9.978  38.927  13.471
17447W        W83856  29.636  44.458  10.659
17448W        W83857   1.010  24.144   3.724
17449W        W83858  20.117  33.492   1.638
17450W        W83859  18.144  12.078  12.524
17451W        W83860   5.784  26.202   3.008
17452W        W83861  10.269  26.781  13.010
17453W        W83862   2.989   4.941  12.437
17454W        W83863  17.781  35.046  11.663
17455W        W83864  27.446  43.561   4.475
17456W        W83865  29.380   8.682  13.602
17457W        W83866  25.982  15.173   1.688
17458W        W83867  17.118  11.724  13.023
17459W        W83868  19.775  26.952  12.013
17460W        W83869  35.705  42.982  13.502
17461W        W83870  11.845   8.515  10.205
17462W        W83871  37.928  27.122   0.928
17463W        W83872  32.037  10.588   1.660
17464W        W83873  44.884  35.593   0.306
17465W        W83874  19.678   8.027  12.557
17466W        W83875   1.958  35.935   0.316
17467W        W83876   7.321  28.817   1.505
17468W        W83877  15.242  17.230   0.754
17469W        W83878  25.915  30.878  13.976
17470W        W83879  27.062  34.271  13.896
17471W        W83880  25.552  31.439  14.283
17472W        W83881  15.041  30.256  12.511
17473W        W83882  31.499   7.670  10.502
17474W        W83883  34.319  37.699  10.804
17475W        W83884   8.251  35.569  13.875
17476W        W83885  11.448  32.484  12.273
17477W        W83886  40.246  30.724   4.461
17478W        W83887   0.215  41.861   1.244
17479W        W83888  39.152  40.609   4.552
17480W        W83889  21.243  39.733   4.178
17481W        W83890   5.421  29.257   0.483
17482W        W83891  36.037  16.871  11.580
17483W        W83892  30.650  43.541   3.229
17484W        W83893   8.285   4.508  12.117
17485W        W83894  38.825  11.226  10.607
17486W        W83895  34.826  41.907   0.813
17487W        W83896  24.489  28.403  10.691
17488W        W83897   0.838   1.001  14.970
17489W        W83898   4.935  23.046  10.769
17490W        W83899  34.330   0.423   0.366
17491W        W83900  10.606  39.370  12.374
17492W        W83901  23.197   1.352  11.176
17493W        W83902  11.232  30.770   3.701
17494W        W83903  44.485  36.647  12.463
17495W        W83904  37.355   9.042   3.398
17496W        W83905  18.355   0.568   1.915
17497W        W83906  41.982  44.954   3.054
17498W        W83907  24.230  30.553   4.575
17499W        W83908  31.561   8.225  13.755
17500W        W83909  24.210  23.325  12.920
17501W        W83910  13.847   4.254   3.679
17502W        W83911  14.711  31.247  11.759
17503W        W83912  32.448  43.566   4.533
17504W        W83913  38.055   8.671  14.491
17505W        W83914  26.702  14.357  14.311
17506W        W83915   3.172  22.205   2.679
17507W        W83916  34.047   1.725   3.761
17508W        W83917  11.832  29.940   3.650
17509W        W83918  37.942  19.741   3.887
17510W        W83919  40.602  44.265  14.060
17511W        W83920  15.612  10.138   0.973
17512W        W83921  33.928   5.487   3.828
17513W        W83922  28.159  39.322  12.432
17514W        W83923  23.714  39.993  13.521
17515W        W83924  30.638  20.296  13.403
17516W        W83925  38.834  17.570   4.052
17517W        W83926  27.251   1.441   1.650
17518W        W83927  11.713  24.872   2.677
17519W        W83928   4.015   6.313   1.670
17520W        W83929  30.029  40.981   0.477
17521W        W83930  39.987  22.690  13.751
17522W        W83931  27.881  30.136   4.734
17523W        W83932  13.650  44.946  11.527
17524W        W83933  44.098  14.553   0.430
17525W        W83934  10.139   2.358  11.612
17526W        W83935  22.549  23.110   2.927
17527W        W83936  23.872  34.617  14.494
17528W        W83937  18.267  25.229  11.284
17529W        W83938  32.217  33.101  13.021
17530W        W83939  26.911  21.691   0.451
17531W        W83940  15.246   1.473   0.485
17532W        W83941  35.635   5.504   1.845
17533W        W83942   9.028  28.902   0.976
17534W        W83943  44.463  14.331   2.135
17535W        W83944   5.988  12.709   3.229
17536W        W83945  29.596  13.803  14.065
17537W        W83946  39.579  25.730   2.734
17538W        W83947  43.274  12.967  14.549
17539W        W83948  29.879  32.569   1.817
17540W        W83949  29.378  28.627  10.736
17541W        W83950   1.222  12.847  11.012
17542W        W83951  39.010  15.220   4.718
17543W        W83952  26.009  31.617  13.503
17544W        W83953  40.790  28.958  13.034
17545W        W83954  13.552  43.873   2.191
17546W        W83955  29.160  41.019  11.274
17547W        W83956  21.406   8.154  10.876
17548W        W83957  32.801  23.293   1.376
17549W        W83958   4.974  21.648   4.966
17550W        W83959   7.569  23.603  12.831
17551W        W83960  41.041  10.111  12.108
17552W        W83961  32.543  26.160   3.251
17553W        W83962   9.724  36.926  11.076
17554W        W83963   8.929  29.107  11.592
17555W        W83964   8.245   8.415   1.865
17556W        W83965  14.637  10.881  12.365
17557W        W83966  14.222  26.226   2.733
17558W        W83967  21.071  41.092   2.858
17559W        W83968  29.543  14.083   4.506
17560W        W83969  43.731   1.196  12.978
17561W        W83970   6.648  32.427   2.306
17562W        W83971  34.567  18.055  11.232
17563W        W83972  14.140  36.070   0.692
17564W        W83973  30.532   7.348   4.795
17565W        W83974   8.118  39.530   3.550
17566W        W83975  23.587  20.039  12.601
17567W        W83976   0.344  36.113  12.485
17568W        W83977  17.881  13.142   4.126
17569W        W83978  32.458  38.381   3.611
17570W        W83979  25.255  18.997   4.122
17571W        W83980   4.038   2.268   1.388
17572W        W83981  29.587  32.630  11.175
17573W        W83982  42.991  36.570   4.858
17574W        W83983  16.798  24.899   0.961
17575W        W83984  34.441  22.491   4.226
17576W        W83985  38.369   6.196  11.579
17577W        W83986  25.991  26.489   2.754
17578W        W83987  43.394  44.623   3.279
17579W        W83988  42.834  17.056  12.335
17580W        W83989  22.684  25.156  14.245
17581W        W83990  25.119   1.770   5.082
17582W        W83991  31.639   5.347   2.076
17583W        W83992  37.534  34.988   0.395
17584W        W83993  33.073   0.201  11.107
17585W        W83994  11.329   9.620  13.951
17586W        W83995   9.703  16.565   0.764
17587W        W83996   4.756  24.514   1.647
17588W        W83997  25.134  27.443  12.842
17589W        W83998  27.591  29.141  11.037
17590W        W83999  16.156  33.719  10.169
17591W        W84000  31.156  39.523   2.329
17592W        W84001  40.323  39.957   2.696
17593W        W84002  12.283  32.392   3.618
17594W        W84003  20.597  30.372  14.428
17595W        W84004   8.817  38.310   2.751
17596W        W84005  23.286   0.759  14.464
17597W        W84006  43.171  21.674   3.216
17598W        W84007   7.174  23.642   2.921
17599W        W84008  16.094   7.211   0.924
17600W        W84009  18.093  15.036   4.653
17601W        W84010   9.857  21.724  14.438
17602W        W84011  42.466  38.582   3.345
17603W        W84012   0.923  29.903  13.363
17604W        W84013   6.093  30.099   4.939
17605W        W84014  31.446  43.452   2.693
17606W        W84015  29.490  25.651   1.581
17607W        W84016  40.737  26.691   4.134
17608W        W84017  17.174  42.300   4.126
17609W        W84018  22.683  17.710  12.112
17610W        W84019  37.350   5.382   2.254
17611W        W84020  12.465  14.081   0.014
17612W        W84021  13.591  14.320  13.420
17613W        W84022  16.501   4.812  11.618
17614W        W84023  24.940  37.652   2.227
17615W        W84024  37.013   1.728  14.102
17616W        W84025  19.647   5.958   0.800
17617W        W84026  19.922  30.869  12.472
17618W        W84027  18.660  15.639  10.082
17619W        W84028  29.016  30.442   0.502
17620W        W84029  10.129  40.416  10.951
17621W        W84030  27.014  25.593   1.802
17622W        W84031  36.697  22.011  14.357
17623W        W84032   6.602  41.573  11.626
17624W        W84033  27.246  31.704  13.032
17625W        W84034  15.796  30.436   3.238
17626W        W84035  44.412  20.810  10.884
17627W        W84036  40.826  43.048  10.595
17628W        W84037  10.236  33.048  14.230
17629W        W84038  19.690  39.472   0.459
17630W        W84039   5.828   7.881  13.203
17631W        W84040  16.626  33.645   0.821
17632W        W84041  35.382  39.070   1.142
17633W        W84042  44.678  39.883  13.850
17634W        W84043  40.842  34.215  11.650
17635W        W84044  40.380   4.070   2.596
17636W        W84045  14.264  18.078   0.281
17637W        W84046  13.160  27.901   0.938
17638W        W84047  36.248  20.461   1.084
17639W        W84048  12.161  44.884  13.045
17640W        W84049  23.581   9.237   2.276
17641W        W84050  43.562  44.576  14.893
17642W        W84051  14.134  31.868  13.874
17643W        W84052  13.143  19.373   0.946
17644W        W84053  15.747  37.541  14.523
17645W        W84054   6.446  43.836   1.795
17646W        W84055  42.091  39.988  10.570
17647W        W84056   5.730   6.000   2.406
17648W        W84057  32.263  26.720  10.489
17649W        W84058   6.724  15.639  10.642
17650W        W84059  15.092  26.424   4.094
17651W        W84060  40.713  32.806  11.649
17652W        W84061  25.487  13.382  13.958
17653W        W84062  40.705   1.073   0.881
17654W        W84063  12.865  12.586   3.103
17655W        W84064  30.354  21.187  14.971
17656W        W84065  39.515  12.145   1.237
17657W        W84066  39.038   6.922  14.427
17658W        W84067   3.862  34.328   2.792
17659W        W84068  23.437  18.701   3.623
17660W        W84069  29.745  40.002  13.799
17661W        W84070  12.685  43.318  10.395
17662W        W84071  39.552  11.311   4.249
17663W        W84072   0.366  10.409  12.469
17664W        W84073  23.250  16.079  10.688
17665W        W84074  15.922  15.226  11.361
17666W        W84075  10.596  34.599  12.826
17667W        W84076   6.878  12.240   1.268
17668W        W84077   5.167  33.350  13.893
17669W        W84078  22.197   1.664  12.570
17670W        W84079  27.706   6.876   5.370
17671W        W84080   4.980  16.884  11.710
17672W        W84081  40.399   1.443  10.665
17673W        W84082  35.368  28.977   2.143
17674W        W84083   1.013  43.848   4.471
17675W        W84084   5.847  26.185   1.223
17676W        W84085  15.772   4.973  13.326
17677W        W84086  38.063  11.543  11.807
17678W        W84087   3.178  15.145   3.904
17679W        W84088  12.648   4.703   3.859
17680W        W84089  11.662   7.709  13.063
17681W        W84090  19.227  40.609  11.219
17682W        W84091  11.303  35.146   3.524
17683W        W84092  32.133  13.789  14.765
17684W        W84093   9.981  32.604  14.434
17685W        W84094   7.250   0.394   1.382
17686W        W84095  24.568   5.627  14.308
17687W        W84096  33.087   4.982  11.977
17688W        W84097  19.050  30.243  13.400
17689W        W84098   5.339  31.469   1.404
17690W        W84099  42.727  24.512   3.745
17691W        W84100  32.578   9.606  11.070
17692W        W84101  12.073   5.577   2.237
17693W        W84102  35.091  17.678   3.966
17694W        W84103  12.861  28.211   2.682
17695W        W84104  11.424  26.677   3.686
17696W        W84105  12.340   7.262   2.699
17697W        W84106  34.445  16.204  12.429
17698W        W84107  25.565  33.176   0.440
17699W        W84108  15.822  32.338   0.346
17700W        W84109  30.177  39.268   0.291
17701W        W84110  12.293   5.679   1.290
17702W        W84111  40.451  40.587  11.091
17703W        W84112   8.752  28.585   2.957
17704W        W84113  33.644  29.968   1.359
17705W        W84114  24.556  13.660  10.743
17706W        W84115   7.738  10.164   2.302
17707W        W84116  13.842  28.481  12.072
17708W        W84117  38.326   3.890  10.575
17709W        W84118  26.424   4.844   4.962
17710W        W84119   2.921   8.852  13.413
17711W        W84120  22.290  26.659  14.344
17712W        W84121  15.356  14.095   4.451
17713W        W84122  35.111   7.757   3.395
17714W        W84123  36.095  17.778   4.639
17715W        W84124   5.632  17.216   1.867
17716W        W84125  28.426  22.251  13.005
17717W        W84126  43.140   6.405   5.009
17718W        W84127  26.903  44.456  12.538
17719W        W84128  37.466   8.117   4.566
17720W        W84129  36.421  41.060   0.358
17721W        W84130  33.219   5.903   2.827
17722W        W84131  34.480  19.540   0.013
17723W        W84132   5.334   7.213   2.346
17724W        W84133  13.213  23.528   2.803
17725W        W84134  29.066   1.337   0.969
17726W        W84135  19.367   8.631   2.838
17727W        W84136  26.681  22.726   1.157
17728W        W84137   9.350  13.087  11.406
17729W        W84138   4.974  34.572   1.277
17730W        W84139  14.293  23.943   2.158
17731W        W84140  27.698  10.647  13.834
17732W        W84141  14.763  29.591  10.992
17733W        W84142  10.881   3.165  14.522
17734W        W84143   5.627  23.061   3.616
17735W        W84144  41.971  33.974  11.005
17736W        W84145  16.845  39.324   3.652
17737W        W84146  26.955  42.350   0.367
17738W        W84147  32.545  36.824  12.396
17739W        W84148  34.141  44.553   4.654
17740W        W84149  39.468   4.795   3.661
17741W        W84150  32.234  19.136   1.701
17742W        W84151  40.499  30.662   1.878
17743W        W84152  14.751  40.921  12.545
17744W        W84153  13.635  28.450  13.845
17745W        W84154  38.326   7.825   0.304
17746W        W84155  18.339  12.346   2.777
17747W        W84156   2.809  19.240   4.599
17748W        W84157  16.119  34.403   1.878
17749W        W84158  27.398  33.998  12.052
17750W        W84159  14.100  25.206  11.007
17751W        W84160  27.148  15.435   2.813
17752W        W84161  19.583  32.988   4.592
17753W        W84162   9.208  32.046  10.886
17754W        W84163   3.883  36.328   1.446
17755W        W84164   3.429  36.898  12.858
17756W        W84165  38.304  36.072   3.754
17757W        W84166  38.443  28.918  13.313
17758W        W84167  27.740  12.940   0.648
17759W        W84168  36.541  43.546   0.743
17760W        W84169  27.163   1.371   3.000
17761W        W84170   9.790   2.860   0.852
17762W        W84171  32.371  12.421   2.890
17763W        W84172  29.981  19.962   2.820
17764W        W84173  28.555  16.927   2.317
17765W        W84174   6.811  26.111   3.634
17766W        W84175  10.447  44.379  13.890
17767W        W84176  16.385  23.306   0.766
17768W        W84177  18.010  19.707  13.996
17769W        W84178  13.262  18.515   1.372
17770W        W84179  39.139  25.548  13.009
17771W        W84180  16.389  39.567  14.245
17772W        W84181  39.622   5.342   4.575
17773W        W84182  21.711   7.962  14.954
17774W        W84183   3.767  44.774   3.578
17775W        W84184  14.569  44.956  11.616
17776W        W84185  24.226   8.307   4.700
17777W        W84186   0.950  27.651   0.760
17778W        W84187   8.461  21.137  10.915
17779W        W84188  44.983  42.343   0.467
17780W        W84189  44.842  24.940   0.029
17781W        W84190   4.735  17.883   4.078
17782W        W84191  22.632   2.148   3.200
17783W        W84192   8.122   9.455  10.652
17784W        W84193  17.900  41.820   3.782
17785W        W84194  11.048  41.330  11.356
17786W        W84195  44.236  31.162   0.264
17787W        W84196  12.949  24.407  12.791
17788W        W84197  20.512   9.185   2.737
17789W        W84198  26.115  41.295  11.266
17790W        W84199  10.785  28.379   1.386
17791W        W84200  17.255  22.297  11.620
17792W        W84201  23.392   0.563   3.000
17793W        W84202  38.008   0.263   2.178
17794W        W84203  37.973   4.213  14.218
17795W        W84204  37.029  41.958  13.091
17796W        W84205  26.560  15.666   1.655
17797W        W84206  32.145  26.558   4.061
17798W        W84207   9.774  22.430  12.119
17799W        W84208  35.029  37.127   3.887
17800W        W84209  13.649  25.274  12.541
17801W        W84210  44.266  25.558   2.814
17802W        W84211  25.556  29.557  13.083
17803W        W84212  43.246   6.721  12.390
17804W        W84213  26.515   1.517   1.168
17805W        W84214   3.485  33.015   2.305
17806W        W84215  39.490  24.200   2.277
17807W        W84216   6.271  40.153  11.408
17808W        W84217  35.106   2.708  10.766
17809W        W84218  39.524  35.911  12.481
17810W        W84219  10.357  22.498  10.887
17811W        W84220  26.788  12.329  11.113
17812W        W84221  39.512  32.349   5.067
17813W        W84222  32.118  25.586   4.499
17814W        W84223   5.572  35.018  12.124
17815W        W84224  31.701   0.944   0.228
17816W        W84225  27.204  31.364   1.738
17817W        W84226  36.791  39.398   3.244
17818W        W84227  41.561  26.536  13.343
17819W        W84228  33.240  29.480  12.659
17820W        W84229  19.305  25.595  11.887
17821W        W84230  21.030   9.922  13.341
17822W        W84231   9.259  44.077  12.822
17823W        W84232  29.179  28.732   1.891
17824W        W84233  10.845   0.688  13.765
17825W        W84234  12.326  27.982   4.541
17826W        W84235  12.937  21.302   5.490
17827W        W84236  18.309   1.169   1.808
17828W        W84237   0.534  26.441   3.704
17829W        W84238  17.477  23.581  10.420
17830W        W84239  21.087  41.743   4.877
17831W        W84240   5.682  14.128   0.703
17832W        W84241   8.207  26.468  14.374
17833W        W84242   6.665   5.242   2.134
17834W        W84243  44.565  19.768   1.560
17835W        W84244  20.271  34.948  12.101
17836W        W84245  42.229  13.913   0.891
17837W        W84246  12.248  44.377  12.795
17838W        W84247  12.092   5.615  11.531
17839W        W84248  19.657  37.837  10.721
17840W        W84249  30.949  33.822  12.794
17841W        W84250  30.902  18.109   2.156
17842W        W84251  13.352  28.668   3.476
17843W        W84252  25.781  15.755   2.320
17844W        W84253  33.341   5.426  12.036
17845W        W84254  10.349  34.122   1.421
17846W        W84255  39.706  26.159   2.480
17847W        W84256  26.270  27.861   4.504
17848W        W84257  22.478  27.226   0.393
17849W        W84258   2.425   6.353  12.437
17850W        W84259   9.687   0.284  10.334
17851W        W84260  31.544  25.062  12.582
17852W        W84261  25.880  22.730  12.503
17853W        W84262  10.708  35.671  10.301
17854W        W84263  27.626  28.435   1.325
17855W        W84264  26.976  14.182  10.740
17856W        W84265  41.997  24.083  13.653
17857W        W84266  29.008  38.818   0.380
17858W        W84267  21.514  40.565  13.244
17859W        W84268   1.641  31.868   0.510
17860W        W84269  34.194  28.115  14.874
17861W        W84270  21.087  15.398  11.383
17862W        W84271   9.925  25.025  14.355
17863W        W84272  29.971  29.222  12.783
17864W        W84273  39.558  26.544  10.821
17865W        W84274   7.366  10.387  13.026
17866W        W84275  31.047  10.612  11.148
17867W        W84276  38.161  34.723   3.248
17868W        W84277  31.617  27.638   0.454
17869W        W84278  15.603  39.812   4.232
17870W        W84279   5.154  36.451  13.336
17871W        W84280  17.108  24.689  11.854
17872W        W84281   6.345   7.402   0.332
17873W        W84282  16.312   8.858   0.457
17874W        W84283  22.320  35.954   4.552
17875W        W84284   4.911  12.630   3.160
17876W        W84285  11.811  13.714   3.240
17877W        W84286  34.301  10.646   0.273
17878W        W84287  26.962  41.554  12.933
17879W        W84288  21.665  24.678   1.205
17880W        W84289  21.058  26.151   2.683
17881W        W84290   0.377  12.190   4.385
17882W        W84291  27.962   9.304   0.413
17883W        W84292  20.762   6.296   0.917
17884W        W84293  34.174  37.427  12.006
17885W        W84294   6.182  43.861   4.493
17886W        W84295   0.960  38.909  14.055
17887W        W84296  11.454  33.678  13.073
17888W        W84297  37.091  37.438  14.740
17889W        W84298  44.501  42.991  11.610
17890W        W84299  26.011  32.886  10.728
17891W        W84300  21.443  26.919  14.371
17892W        W84301  22.529  42.811   3.685
17893W        W84302  20.363  42.183  13.435
17894W        W84303  13.276  11.341  11.680
17895W        W84304  26.558  12.303   0.059
17896W        W84305  32.462   8.772  12.473
17897W        W84306   2.830  36.201   0.029
17898W        W84307  34.525  23.355   3.795
17899W        W84308  34.097  38.098  13.511
17900W        W84309  40.499  20.801   4.900
17901W        W84310  27.691  32.563  10.932
17902W        W84311  29.636  27.597  13.566
17903W        W84312  27.201  20.042   3.626
17904W        W84313   5.521  20.055   1.692
17905W        W84314  41.516  19.127  13.618
17906W        W84315  33.538  42.465   0.976
17907W        W84316  26.231  13.048  11.068
17908W        W84317  17.790  25.057   2.221
17909W        W84318  37.360  25.513  11.288
17910W        W84319  20.559  19.580   4.443
17911W        W84320  14.787  22.601  10.775
17912W        W84321  15.833  14.868   0.428
17913W        W84322   0.439  16.148  11.216
17914W        W84323   7.004  27.999   0.633
17915W        W84324  38.935  40.683  11.465
17916W        W84325  40.698  11.197   2.937
17917W        W84326  42.208  30.000   3.626
17918W        W84327  13.243  23.637  12.484
17919W        W84328  16.181  17.793   1.791
17920W        W84329  19.137  42.793  14.495
17921W        W84330  36.290  35.943   1.307
17922W        W84331  41.811   5.082   2.110
17923W        W84332  28.125  32.114   4.146
17924W        W84333  21.525   1.779   4.945
17925W        W84334   4.799   2.542  12.032
17926W        W84335  18.953  25.541   1.371
17927W        W84336  39.409  35.707  10.984
17928W        W84337  13.413  19.743   4.109
17929W        W84338   8.880  23.682   3.534
17930W        W84339   1.768   3.017  13.825
17931W        W84340  17.056  31.450  12.891
17932W        W84341  32.684  38.648   1.880
17933W        W84342   1.137  37.332  10.606
17934W        W84343  32.507  17.214  12.501
17935W        W84344   1.898  13.157   1.397
17936W        W84345  21.466   4.165  13.894
17937W        W84346  10.616  43.273  13.022
17938W        W84347  18.985  28.467   3.260
17939W        W84348  44.324  29.613  14.957
17940W        W84349  28.660  42.277  11.189
17941W        W84350   2.929  28.709   0.833
17942W        W84351  36.522  42.386  11.534
17943W        W84352   7.153  14.489  11.094
17944W        W84353  44.407  11.313   1.680
17945W        W84354  14.284   8.176  11.153
17946W        W84355  33.041  31.487  12.155
17947W        W84356  16.524  29.075   3.249
17948W        W84357  12.199   9.138  14.791
17949W        W84358  23.992  43.524  12.729
17950W        W84359  41.296  21.051   1.773
17951W        W84360  11.327  19.072   1.963
17952W        W84361   7.274  35.604   3.377
17953W        W84362  34.347  25.750  12.687
17954W        W84363  15.821  23.128  11.554
17955W        W84364  20.555  12.263  10.651
17956W        W84365   7.856   7.633  12.496
17957W        W84366  37.273   3.219   2.778
17958W        W84367  38.022  11.382  11.210
17959W        W84368  32.465  34.313  14.359
17960W        W84369   2.012   9.848  12.617
17961W        W84370  36.556  24.446  14.472
17962W        W84371   1.839  35.459  14.965
17963W        W84372   5.795  31.473   0.297
17964W        W84373  19.626  27.736   1.860
17965W        W84374  44.275   4.302  12.548
17966W        W84375   1.960  14.164   2.323
17967W        W84376  26.958   2.436  11.520
17968W        W84377  27.089  33.114   2.351
17969W        W84378  16.674  12.859  13.488
17970W        W84379   4.039  27.084   0.518
17971W        W84380  15.666  22.533   2.605
17972W        W84381  30.525  26.241  13.901
17973W        W84382  15.731   1.793   3.386
17974W        W84383  25.245  31.662   4.271
17975W        W84384  34.995  12.343  11.307
17976W        W84385  14.322  27.187   3.132
17977W        W84386   7.992  25.212  13.844
17978W        W84387   5.261  19.522  14.846
17979W        W84388   5.324  37.822  14.642
17980W        W84389  13.098  30.681  11.191
17981W        W84390  20.619   3.779  14.601
17982W        W84391  17.025  10.980  11.612
17983W        W84392   7.216  34.434  11.149
17984W        W84393  41.851  19.611  12.131
17985W        W84394  33.354   3.286  12.576
17986W        W84395  18.628  39.997   2.263
17987W        W84396  17.084  25.732  13.847
17988W        W84397   9.620  17.820  12.361
17989W        W84398  35.256   1.238   1.188
17990W        W84399  14.631  28.574  12.506
17991W        W84400   4.182  43.228   4.083
17992W        W84401  36.795  19.196   0.471
17993W        W84402  18.878  37.639  13.106
17994W        W84403  10.114  22.387   4.563
17995W        W84404  22.516  10.424  10.588
17996W        W84405  23.159   2.941  12.329
17997W        W84406   8.757   7.661  12.382
17998W        W84407   8.161  30.318   3.235
17999W        W84408  33.873  43.767   1.651
18000W        W84409  20.847  16.846  14.931
18001W        W84410  34.416  24.813  13.114
18002W        W84411  16.661  11.401  12.100
18003W        W84412   4.817  35.990   1.074
18004W        W84413  26.987  44.811  14.962
18005W        W84414  36.000  11.512  13.057
18006W        W84415  21.851   9.728   1.359
18007W        W84416  21.692  24.598  10.760
18008W        W84417  42.098  43.411  13.949
18009W        W84418  41.913  12.372  12.335
18010W        W84419   8.748  13.352   1.374
18011W        W84420  35.556   0.683  14.449
18012W        W84421  12.212   7.948   0.646
18013W        W84422  34.360   9.939   4.189
18014W        W84423   3.244   5.340   0.831
18015W        W84424   9.309  31.060  12.929
18016W        W84425  20.211  15.335   1.333
18017W        W84426   1.142   1.325   0.881
18018W        W84427  38.827  31.469   0.877
18019W        W84428   4.741  44.485  13.515
18020W        W84429  29.532  35.306  10.828
18021W        W84430   4.813  43.552   2.370
18022W        W84431   0.912   9.984  13.182
18023W        W84432  23.478  30.982  10.586
18024W        W84433  13.195  33.836  10.651
18025W        W84434  41.301  17.606   2.769
18026W        W84435  18.208   3.562  11.931
18027W        W84436   4.093  23.209  11.535
18028W        W84437  11.191  25.063   0.144
18029W        W84438  10.709  20.289  11.129
18030W        W84439  18.571   1.297  13.707
18031W        W84440  10.296   0.259  14.383
18032W        W84441  44.779  14.659   2.686
18033W        W84442  38.068  37.934  14.947
18034W        W84443  28.135  21.717  12.898
18035W        W84444  13.081  16.193  12.136
18036W        W84445  41.709  18.183   4.545
18037W        W84446   8.645  30.618   2.773
18038W        W84447  24.894  24.645   4.684
18039W        W84448  34.511   4.892  13.083
18040W        W84449  18.774  33.354  10.707
18041W        W84450  42.761  42.891  10.384
18042W        W84451  26.549  28.902   4.082
18043W        W84452  18.545  26.467  13.417
18044W        W84453  36.902  25.579   3.271
18045W        W84454  14.296  14.865   1.966
18046W        W84455  32.814  35.932   3.418
18047W        W84456  31.149  12.282  12.961
18048W        W84457  27.329  42.736   0.384
18049W        W84458  13.167   2.928   2.681
18050W        W84459   4.491  34.167  14.502
18051W        W84460  39.902   2.479   2.677
18052W        W84461  20.617  28.262   5.021
18053W        W84462  35.617  31.801  12.135
18054W        W84463   1.736   9.652  11.187
18055W        W84464  35.833  31.976  14.314
18056W        W84465  44.202  28.417   0.713
18057W        W84466   3.822  33.049   0.277
18058W        W84467   7.852  35.810  10.384
18059W        W84468  43.861   3.224  11.274
18060W        W84469  24.653  39.409  10.318
18061W        W84470   1.713  27.548   3.324
18062W        W84471   7.376  32.194   5.167
18063W        W84472  15.291  41.328  10.854
18064W        W84473   2.994  44.906  10.617
18065W        W84474  29.671  15.582   2.355
18066W        W84475  36.525  38.889  13.412
18067W        W84476  38.439  32.315   0.757
18068W        W84477  30.894  17.699   3.436
18069W        W84478  12.686  12.135   1.219
18070W        W84479  26.234  16.732   3.688
18071W        W84480   6.995   6.370   2.234
18072W        W84481  34.463   2.019   3.650
18073W        W84482  15.877  33.949  13.326
18074W        W84483  42.222  39.817  11.039
18075W        W84484   4.186  21.158   3.613
18076W        W84485  22.496  25.535  11.980
18077W        W84486   9.805  18.294  10.454
18078W        W84487   2.617  31.445   2.120
18079W        W84488  28.957   1.955  12.971
18080W        W84489  15.282  13.934   3.432
18081W        W84490  38.876   4.894  12.827
18082W        W84491  31.019   2.232  14.437
18083W        W84492  11.539  14.566  13.657
18084W        W84493  23.228   0.428  14.985
18085W        W84494  26.779  42.407  11.030
18086W        W84495  23.785  16.804   1.849
18087W        W84496  42.670   0.326  13.418
18088W        W84497  31.336   7.538   2.698
18089W        W84498  10.198  26.925  12.465
18090W        W84499  22.719  18.042   2.342
18091W        W84500  30.874  24.208   0.838
18092W        W84501  39.963  36.996  14.378
18093W        W84502  38.445  26.997   2.185
18094W        W84503  11.812   2.374   2.170
18095W        W84504   1.226  43.593  14.395
18096W        W84505  39.501  34.234  11.505
18097W        W84506  26.033  15.774   4.897
18098W        W84507  32.171   0.993  13.451
18099W        W84508  35.187  15.763  11.659
18100W        W84509  37.537   8.314  11.462
18101W        W84510  28.575   8.575   3.129
18102W        W84511  15.530   3.617   5.067
18103W        W84512  22.919  20.529   4.140
18104W        W84513  15.230  34.998   0.713
18105W        W84514  34.950   8.726  12.555
18106W        W84515  28.184  23.116   1.959
18107W        W84516  19.490  43.324  11.844
18108W        W84517  22.993  18.189  13.937
18109W        W84518  12.583  22.739   2.692
18110W        W84519  30.728  36.558  13.813
18111W        W84520  27.446  37.767  14.122
18112W        W84521   0.152  28.428   2.876
18113W        W84522  25.946  13.979   3.372
18114W        W84523  43.012  26.727   2.387
18115W        W84524  33.560  17.791   3.802
18116W        W84525  31.955  39.957  12.098
18117W        W84526  30.648  12.537  14.886
18118W        W84527  41.499  26.521   3.061
18119W        W84528  29.639  24.673   4.133
18120W        W84529  25.218  42.075   0.333
18121W        W84530  29.888  36.764  11.246
18122W        W84531   8.682  23.528   3.065
18123W        W84532  24.237   8.295  12.934
18124W        W84533   3.086   7.636  11.376
18125W        W84534   2.397  13.153  14.427
18126W        W84535  33.538  22.536  12.486
18127W        W84536  18.059  23.116  14.818
18128W        W84537  34.517  34.622  12.832
18129W        W84538  29.046   9.158   1.785
18130W        W84539  44.370   0.766   3.513
18131W        W84540  30.226  24.604  14.380
18132W        W84541  38.471  44.751  10.676
18133W        W84542  44.181  12.674  14.826
18134W        W84543  38.532  39.966   1.293
18135W        W84544  18.216  20.526   4.487
18136W        W84545  26.715  20.422  10.569
18137W        W84546  26.585  21.711  14.474
18138W        W84547  33.956   0.765  10.576
18139W        W84548  27.689  41.161  12.518
18140W        W84549  17.849  18.949  11.572
18141W        W84550  41.875   6.326   0.545
18142W        W84551  22.443   4.410  12.679
18143W        W84552   6.612  28.832   0.698
18144W        W84553  38.929   7.306   3.821
18145W        W84554   1.099  11.815  10.155
18146W        W84555  23.452  29.633   3.188
18147W        W84556  42.798  42.398   2.580
18148W        W84557  38.737  11.705   1.239
18149W        W84558   8.972  17.968  14.439
18150W        W84559  36.003  12.896  14.369
18151W        W84560  30.129  38.333  10.772
18152W        W84561  11.891  21.736   3.267
18153W        W84562   5.149   9.404  11.770
18154W        W84563  38.564  23.350   1.735
18155W        W84564  17.326  24.170   0.648
18156W        W84565  44.495  27.180   2.935
18157W        W84566  14.930   2.266   1.072
18158W        W84567   3.919  27.413  13.921
18159W        W84568  23.777  42.836  11.024
18160W        W84569  27.707   6.610   2.512
18161W        W84570  13.355   5.004   2.795
18162W        W84571  33.903   7.896   1.710
18163W        W84572  32.532  28.641  14.509
18164W        W84573   8.880  33.586   2.147
18165W        W84574   8.860   4.954   3.676
18166W        W84575  26.111   9.276  14.462
18167W        W84576  39.859  11.395   1.498
18168W        W84577   5.490  13.504   3.443
18169W        W84578  25.597  26.119   3.886
18170W        W84579  44.947  40.834   4.417
18171W        W84580  31.639   4.817  13.333
18172W        W84581  12.572  10.868   1.934
18173W        W84582  22.538  14.323  12.102
18174W        W84583  23.263  18.024  14.412
18175W        W84584  41.543   7.443  13.432
18176W        W84585  28.025  12.673   3.321
18177W        W84586   1.858  33.886   4.702
18178W        W84587  19.104  16.360   4.170
18179W        W84588  43.418   7.651   3.186
18180W        W84589  34.516  12.869   2.355
18181W        W84590   8.944  15.171   2.250
18182W        W84591  18.051  31.184   0.816
18183W        W84592   5.888  20.190   2.033
18184W        W84593  36.433   1.699   3.682
18185W        W84594   0.797  24.244  14.364
18186W        W84595  44.172  19.458  14.923
18187W        W84596  39.406  17.737   3.332
18188W        W84597  22.485  17.544  14.516
18189W        W84598  15.806  13.662  13.853
18190W        W84599  19.056  36.513   3.343
18191W        W84600  32.163  23.718  13.366
18192W        W84601  34.750  23.252  14.270
18193W        W84602  20.532  13.371  10.865
18194W        W84603  31.550  44.429  10.517
18195W        W84604  39.973  44.816  14.311
18196W        W84605  18.661  11.176  11.166
18197W        W84606  41.519  19.279   2.284
18198W        W84607   1.850  31.596  13.977
18199W        W84608  44.941   2.920  14.511
18200W        W84609  12.632  30.004   0.740
18201W        W84610  13.486  20.548   1.205
18202W        W84611  26.112  20.509   3.073
18203W        W84612  38.954  16.808   2.629
18204W        W84613  26.191  28.041  14.964
18205W        W84614  21.285  22.492   2.719
18206W        W84615  22.151  32.484   4.180
18207W        W84616  16.169  24.917  12.068
18208W        W84617  21.548  32.935   2.844
18209W        W84618  36.901  41.257   4.344
18210W        W84619   8.526  24.826  12.104
18211W        W84620  39.177  41.562  12.540
18212W        W84621   1.765  15.517   2.020
18213W        W84622  15.643  10.681   2.777
18214W        W84623  19.376  37.695  11.264
18215W        W84624  41.883  20.215  13.507
18216W        W84625  17.606  44.524   1.974
18217W        W84626  20.768  10.317  14.136
18218W        W84627   1.870  12.373  11.383
18219W        W84628  13.905   8.809   3.614
18220W        W84629   0.015  25.727   3.256
18221W        W84630  27.706  28.722  11.334
18222W        W84631  22.550  21.269  10.960
18223W        W84632  22.650  19.738   1.414
18224W        W84633   6.729   3.576  14.566
18225W        W84634  25.432  26.651  12.736
18226W        W84635  42.751  13.677   1.924
18227W        W84636  15.889   5.829  11.604
18228W        W84637  24.824  27.459   1.360
18229W        W84638  38.441  24.739  13.109
18230W        W84639   2.771   8.939   1.768
18231W        W84640  37.806   6.760   4.622
18232W        W84641  11.396  23.983  11.761
18233W        W84642  18.236  38.981  13.952
18234W        W84643  12.282  42.345   3.640
18235W        W84644  42.602  23.573  11.556
18236W        W84645  26.344   4.348   1.062
18237W        W84646   1.707  28.921   2.631
18238W        W84647   1.332  44.091  14.352
18239W        W84648  32.310   0.324  14.922
18240W        W84649  10.771  27.513  12.863
18241W        W84650   7.209  38.528  12.878
18242W        W84651  11.855   6.740   2.947
18243W        W84652   7.136  34.679  14.438
18244W        W84653  32.133  41.012  12.108
18245W        W84654  11.283  16.920  12.546
18246W        W84655  22.766  42.944  11.983
18247W        W84656  12.648  43.536  12.945
18248W        W84657  43.339  16.050   0.013
18249W        W84658  11.522   2.923   5.306
18250W        W84659  30.406  32.242   2.643
18251W        W84660  38.587  19.126  11.916
18252W        W84661   3.934  43.739   3.169
18253W        W84662   4.455   1.713  14.902
18254W        W84663   1.294  36.108  14.487
18255W        W84664  25.946   1.928  14.268
18256W        W84665   2.823  27.021   0.173
18257W        W84666  26.662  24.755  11.043
18258W        W84667  22.416  20.732   3.319
18259W        W84668  25.653   4.544  11.736
18260W        W84669  32.476  11.779  14.891
18261W        W84670   0.884   1.796   0.403
18262W        W84671  42.946  33.525   2.868
18263W        W84672  36.648   7.777   4.106
18264W        W84673  42.740   5.670   2.162
18265W        W84674   3.609  24.156  12.777
18266W        W84675  16.282  11.561  12.427
18267W        W84676  17.058   0.989   2.073
18268W        W84677  27.557  35.574  14.394
18269W        W84678  40.702   3.906  14.055
18270W        W84679   0.921  22.705  12.434
18271W        W84680  37.424  38.084  11.284
18272W        W84681  39.742  32.670   2.331
18273W        W84682  33.435  13.256   3.614
18274W        W84683  44.431  20.707  12.866
18275W        W84684  42.170   4.826  11.598
18276W        W84685  17.856  23.315   3.809
18277W        W84686   5.509  42.136  12.190
18278W        W84687  43.391  14.286  11.548
18279W        W84688  39.935  23.952   0.240
18280W        W84689   0.730   4.513  14.430
18281W        W84690  13.219   3.176  12.865
18282W        W84691   3.455  40.352  10.716
18283W        W84692  11.675  34.658  14.798
18284W        W84693   3.250   5.202  11.284
18285W        W84694  24.420  33.652   4.168
18286W        W84695  19.513   6.672  12.111
18287W        W84696  32.633  27.142   2.336
18288W        W84697   8.680  34.538  12.509
18289W        W84698  26.529  41.558  11.098
18290W        W84699  41.472  35.363  14.436
18291W        W84700  38.046   3.752   2.681
18292W        W84701   7.927  40.282  11.580
18293W        W84702   7.538   5.829   1.726
18294W        W84703   1.031   7.230  12.912
18295W        W84704  44.786  39.367   4.220
18296W        W84705  11.733  18.568   2.930
18297W        W84706  11.058   1.964   3.243
18298W        W84707  41.377  44.005   2.156
18299W        W84708  24.896  18.328   1.569
18300W        W84709  13.609   5.097   3.676
18301W        W84710  14.782  20.565  13.450
18302W        W84711  27.719   6.667  11.490
18303W        W84712   8.494   7.425   0.243
18304W        W84713  33.083  20.511   3.831
18305W        W84714  15.209  42.909   4.081
18306W        W84715  34.579  19.018   0.012
18307W        W84716  33.679  32.655  12.847
18308W        W84717  16.370   4.478  11.104
18309W        W84718   1.944  18.093  10.470
18310W        W84719  19.680  13.564  10.739
18311W        W84720  31.081  35.372  14.485
18312W        W84721  25.239   5.595   2.217
18313W        W84722  35.416  24.413  13.033
18314W        W84723  26.780  16.124   4.679
18315W        W84724   8.938   5.663  11.158
18316W        W84725  19.004  42.458   1.789
18317W        W84726  14.737  27.246  12.477
18318W        W84727  40.798   1.944   4.964
18319W        W84728  24.256  39.952   1.364
18320W        W84729   8.544   0.218   5.553
18321W        W84730  25.668  28.174  13.297
18322W        W84731  42.944  37.024   4.060
18323W        W84732   6.823   5.307   0.759
18324W        W84733  31.982  19.117   2.208
18325W        W84734  24.188  25.727   3.728
18326W        W84735   1.050  15.383   0.408
18327W        W84736  18.782  41.546   4.991
18328W        W84737  23.175   4.275  14.072
18329W        W84738  23.024   9.846  10.709
18330W        W84739  41.513  41.310  10.636
18331W        W84740  19.473   5.670  10.699
18332W        W84741   4.306  23.293   4.241
18333W        W84742  14.867  25.592   2.323
18334W        W84743  14.704  24.385  13.858
18335W        W84744  37.166  26.575   0.078
18336W        W84745  17.353  41.855   3.862
18337W        W84746  29.241   1.529  10.549
18338W        W84747  42.561  22.102  13.446
18339W        W84748   4.088   4.989  11.688
18340W        W84749  36.387  31.015   0.832
18341W        W84750  31.244   2.115  13.936
18342W        W84751   6.364   7.178  11.934
18343W        W84752  13.376   9.316   4.666
18344W        W84753   7.273  22.248   0.497
18345W        W84754  18.606   5.819   2.441
18346W        W84755  10.285  23.730   1.986
18347W        W84756   8.406   9.842   2.368
18348W        W84757  39.459  15.679  13.639
18349W        W84758   5.247  33.868  13.863
18350W        W84759   5.410  19.880  13.035
18351W        W84760  38.966  25.912  12.474
18352W        W84761  39.924  23.736   2.961
18353W        W84762  26.007   7.130  13.382
18354W        W84763  17.141  30.194  12.133
18355W        W84764  22.199  22.526   5.056
18356W        W84765  38.500  19.747   2.204
18357W        W84766   6.485  32.639   1.335
18358W        W84767   0.758   9.732   2.763
18359W        W84768  35.172  34.763   3.959
18360W        W84769  36.344  11.797   0.967
18361W        W84770  14.208  19.178   4.315
18362W        W84771   8.231  36.033  14.990
18363W        W84772  44.302   8.792  13.494
18364W        W84773   0.807   3.093  10.704
18365W        W84774  18.043   2.664  10.801
18366W        W84775   7.441  23.155   4.097
18367W        W84776  43.983  31.116  12.559
18368W        W84777  27.631  14.665  12.092
18369W        W84778  11.888  28.493  13.850
18370W        W84779  37.063  39.298   1.686
18371W        W84780  34.055   6.708  11.418
18372W        W84781  30.230   0.489  11.157
18373W        W84782  38.809  41.372   3.972
18374W        W84783   4.978   8.798  12.381
18375W        W84784   0.029  27.530   0.598
18376W        W84785   5.450  43.426  13.029
18377W        W84786  15.619   8.861   3.215
18378W        W84787  25.995  21.077   3.694
18379W        W84788  38.085  34.331  12.302
18380W        W84789  12.979  43.216  12.745
18381W        W84790   0.908  13.174  10.571
18382W        W84791   7.819   6.296   4.156
18383W        W84792  13.326   5.743  13.902
18384W        W84793  32.378   9.708   1.464
18385W        W84794  19.310   2.356   1.684
18386W        W84795  42.809  44.896  12.389
18387W        W84796   8.251  33.033  11.199
18388W        W84797  39.629  38.970  10.548
18389W        W84798  11.733  19.527  11.219
18390W        W84799  26.717   3.363  11.717
18391W        W84800  11.695  33.611  12.635
18392W        W84801   9.905   5.810   1.978
18393W        W84802  13.321  31.587   2.325
18394W        W84803  30.874  41.428   1.780
18395W        W84804   5.612  43.827  13.695
18396W        W84805   4.217   1.928  13.450
18397W        W84806  28.746   0.304   3.202
18398W        W84807  21.695  19.157  14.088
18399W        W84808  32.997   1.841  14.795
18400W        W84809  37.612  36.519   2.858
18401W        W84810  16.485  10.316   2.827
18402W        W84811   7.193  26.491   4.606
18403W        W84812  27.294  38.023  11.481
18404W        W84813  35.166  29.196  12.904
18405W        W84814  37.062  27.146  12.193
18406W        W84815   5.647   9.777   3.590
18407W        W84816   6.386  26.070  13.958
18408W        W84817   9.741  21.314   3.705
18409W        W84818  30.213  39.890  11.608
18410W        W84819  20.683   9.949   1.905
18411W        W84820  10.550  36.610  13.342
18412W        W84821  41.893  40.439   3.346
18413W        W84822  23.531  27.370  10.652
18414W        W84823  15.623  23.249  13.709
18415W        W84824  10.793   7.947   2.476
18416W        W84825  25.960  27.871  10.585
18417W        W84826  43.695  19.692  12.274
18418W        W84827  14.327  41.052   4.574
18419W        W84828  33.813  43.364   4.930
18420W        W84829  33.350  39.135   2.429
18421W        W84830  27.306   1.282  10.623
18422W        W84831   3.504  36.396  11.145
18423W        W84832  43.316  25.550   1.758
18424W        W84833   5.510   6.493   1.269
18425W        W84834  34.337  42.840  10.810
18426W        W84835   0.384  19.406   3.330
18427W        W84836  12.295  24.105  12.074
18428W        W84837  41.893  22.022  14.502
18429W        W84838   5.312  42.381   3.660
18430W        W84839   5.537   9.249  14.719
18431W        W84840  36.671  42.985  11.194
18432W        W84841  36.613  38.364   4.254
18433W        W84842  31.143  11.616  11.082
18434W        W84843  35.873  10.104  11.929
18435W        W84844  21.296  27.157   3.340
18436W        W84845   0.333  13.172   1.167
18437W        W84846   7.919   1.539   4.197
18438W        W84847  11.654  38.964   2.351
18439W        W84848  23.734  34.445  12.735
18440W        W84849  35.948  38.922   2.930
18441W        W84850  12.781  41.006   4.732
18442W        W84851  19.458  15.828  14.574
18443W        W84852   0.003   9.110   3.056
18444W        W84853   2.810   5.902   1.817
18445W        W84854  26.048   7.891  11.477
18446W        W84855   7.920  11.194  12.783
18447W        W84856  26.578  34.309   5.050
18448W        W84857  40.176  12.841   2.161
18449W        W84858  26.145  26.597   4.056
18450W        W84859   2.755  17.072  11.616
18451W        W84860  23.811  28.037   0.968
18452W        W84861  35.071  21.051  12.217
18453W        W84862  40.763  24.408   0.871
18454W        W84863  35.557  10.953  11.756
18455W        W84864  27.536  41.419   2.167
18456W        W84865   4.170  41.275  13.377
18457W        W84866  36.192  36.281  11.180
18458W        W84867  17.214  21.982  14.558
18459W        W84868   4.593  25.419  14.987
18460W        W84869  32.831  19.573   4.632
18461W        W84870  17.205  29.769   3.380
18462W        W84871  36.343  35.475  14.935
18463W        W84872  43.962  27.861  13.814
18464W        W84873  39.490   0.841  13.218
18465W        W84874  41.935  40.379   2.182
18466W        W84875  19.684  25.962   1.221
18467W        W84876   6.215  40.880  14.000
18468W        W84877  20.549  14.050  11.676
18469W        W84878  16.965  22.061   0.321
18470W        W84879  17.311  33.688   0.241
18471W        W84880   7.413   3.601   1.762
18472W        W84881   7.044  41.042  13.026
18473W        W84882  13.364  27.000   1.705
18474W        W84883  33.418  26.993  13.324
18475W        W84884  36.583  21.589   1.893
18476W        W84885  33.900  24.718  11.987
18477W        W84886  22.535  30.987   1.741
18478W        W84887  18.914   5.451  10.924
18479W        W84888  16.839  39.318  14.062
18480W        W84889   2.357  43.438   0.660
18481W        W84890  33.511   9.440  13.020
18482W        W84891  17.185  34.792  10.594
18483W        W84892   3.350  15.702   5.179
18484W        W84893  41.783  13.302   3.343
18485W        W84894   9.958  12.680  14.802
18486W        W84895  11.274  21.115   3.810
18487W        W84896  17.262   7.807   4.575
18488W        W84897  12.962  12.602   0.263
18489W        W84898  42.753  43.856   2.234
18490W        W84899  29.301  16.691  14.445
18491W        W84900  44.172  30.770   1.360
18492W        W84901  16.288  43.277   1.502
18493W        W84902  38.030  42.096   2.840
18494W        W84903  23.089  27.289  11.189
18495W        W84904  15.294  32.135  13.184
18496W        W84905  31.561  20.728   3.702
18497W        W84906  43.376   5.171   2.241
18498W        W84907  12.260   3.728   3.339
18499W        W84908   5.455  42.937   0.005
18500W        W84909  37.467  34.679   1.387
18501W        W84910  16.222  27.697   1.803
18502W        W84911  43.748  31.928  11.597
18503W        W84912  18.518  12.714   3.549
18504W        W84913  22.178  35.642  10.801
18505W        W84914  16.530  30.720   1.792
18506W        W84915   7.301  15.086  14.762
18507W        W84916  42.250  31.563  12.919
18508W        W84917  25.136  44.287  13.965
18509W        W84918  16.805  13.113  13.044
18510W        W84919  30.520  19.260   3.570
18511W        W84920   7.133  25.631   2.433
18512W        W84921  42.720   3.240   0.284
18513W        W84922  10.393  25.941   1.249
18514W        W84923  14.151   5.471  14.913
18515W        W84924  27.155  33.388  12.064
18516W        W84925  32.843  40.411  12.190
18517W        W84926  24.015   7.864  11.928
18518W        W84927  39.006  37.397  14.227
18519W        W84928  13.337  38.338  14.206
18520W        W84929  42.708  26.138  14.242
18521W        W84930  18.089  24.503  13.792
18522W        W84931  18.480  38.917  11.437
18523W        W84932   2.638  38.273   1.755
18524W        W84933   9.390  33.121   2.764
18525W        W84934  44.866  10.179   0.246
18526W        W84935  28.645  42.961   2.211
18527W        W84936  15.580  19.909  10.721
18528W        W84937  14.643  13.057  13.109
18529W        W84938  39.873   2.115  10.790
18530W        W84939  25.027  35.380   4.324
18531W        W84940  34.439  12.280  11.939
18532W        W84941  19.675  26.034   0.369
18533W        W84942  32.089  30.559   4.825
18534W        W84943  44.429  40.752  13.907
18535W        W84944  24.420  35.773  13.797
18536W        W84945  37.995  14.248  14.034
18537W        W84946  22.988  29.116   1.928
18538W        W84947   7.283  10.083   4.696
18539W        W84948  16.484   5.299  14.541
18540W        W84949  26.780  32.598   4.957
18541W        W84950  43.831   9.923  13.533
18542W        W84951  20.281  40.562  10.782
18543W        W84952  24.320   6.406  14.032
18544W        W84953  42.852   2.592   1.559
18545W        W84954   9.292  32.344   0.301
18546W        W84955  15.977  25.218  13.945
18547W        W84956   9.674  26.472   4.035
18548W        W84957   0.960  15.468  12.864
18549W        W84958  40.224   5.019  14.880
18550W        W84959  17.303  40.401  14.371
18551W        W84960  17.582  40.769   4.724
18552W        W84961   9.667  31.947  14.564
18553W        W84962   6.473  36.868   4.790
18554W        W84963  32.763  21.028  11.981
18555W        W84964  19.374  28.439   4.734
18556W        W84965  44.564  25.843   3.748
18557W        W84966  17.242  30.886   0.782
18558W        W84967  31.565  19.068  10.643
18559W        W84968   1.256  39.833  11.194
18560W        W84969   5.903  20.420   1.252
18561W        W84970  11.913  10.802   4.188
18562W        W84971  13.639  16.951   3.288
18563W        W84972  23.630   2.582  13.485
18564W        W84973  31.113  30.992   3.136
18565W        W84974  40.812   6.382   3.771
18566W        W84975  30.845   5.368  10.981
18567W        W84976  10.547  11.748   2.809
18568W        W84977  44.382  36.162  11.663
18569W        W84978  29.057  19.080  10.851
18570W        W84979  22.681  27.034   3.855
18571W        W84980  41.781  21.693   2.073
18572W        W84981  25.845  12.701  11.131
18573W        W84982  37.135   8.393  14.794
18574W        W84983  36.860  28.999   3.188
18575W        W84984  36.863  28.883  13.570
18576W        W84985  33.667  26.612   4.699
18577W        W84986   2.457   6.389   1.795
18578W        W84987   7.743  27.930   4.451
18579W        W84988  36.803   4.423  11.197
18580W        W84989  17.129  39.829  11.910
18581W        W84990  32.587  22.834  12.359
18582W        W84991  23.747  17.507  13.932
18583W        W84992  37.391  44.092   2.255
18584W        W84993  43.203  13.017  13.593
18585W        W84994   2.324  37.811   0.515
18586W        W84995  11.703  44.152   4.524
18587W        W84996  23.560   4.757  13.403
18588W        W84997  29.690  39.892  11.639
18589W        W84998   2.787   8.435  10.476
18590W        W84999  17.414  27.746   4.570
18591W        W85000  31.602   9.654  13.835
18592W        W85001  15.208  11.855  14.975
18593W        W85002   4.803  13.223   4.952
18594W        W85003  27.196  22.141  13.547
18595W        W85004  28.382  43.399   0.823
18596W        W85005   5.926   7.423   4.707
18597W        W85006   2.939   4.659   0.419
18598W        W85007  30.129   2.882   3.183
18599W        W85008  39.326   6.369   4.651
18600W        W85009  33.956  15.265  12.471
18601W        W85010  13.769  18.292   0.317
18602W        W85011  10.949   4.280  12.494
18603W        W85012   4.344  11.160   4.003
18604W        W85013  13.561  23.747  11.414
18605W        W85014   6.785  28.646  13.811
18606W        W85015  44.893   4.840  14.496
18607W        W85016   7.128  13.090  12.508
18608W        W85017   1.296  24.080   3.195
18609W        W85018  11.677  35.345  12.520
18610W        W85019   7.325  23.711   3.407
18611W        W85020  25.482  26.465   1.876
18612W        W85021  35.542  18.579  10.672
18613W        W85022  42.805  41.466  11.839
18614W        W85023  10.020   1.938   4.538
18615W        W85024  21.958   9.880  11.586
18616W        W85025   8.284  20.652  13.511
18617W        W85026  29.906  24.901   0.818
18618W        W85027  41.455   0.768   2.665
18619W        W85028  19.592  11.749  13.010
18620W        W85029  40.288  17.283   3.636
18621W        W85030  25.179   1.970  13.990
18622W        W85031  29.741   9.086   4.126
18623W        W85032   9.788  38.844   3.870
18624W        W85033  37.933  30.461   5.141
18625W        W85034  13.074  33.974   1.725
18626W        W85035  34.680  42.022  10.665
18627W        W85036   8.110  27.981   2.363
18628W        W85037  44.274   5.262  14.960
18629W        W85038  38.867  13.169   4.463
18630W        W85039  38.311  11.656   3.601
18631W        W85040   1.713  26.652  13.803
18632W        W85041  14.900  14.444  13.461
18633W        W85042  44.546  34.207  13.835
18634W        W85043  21.714  10.316  11.693
18635W        W85044  27.638  32.086   0.437
18636W        W85045  23.734  33.649   2.816
18637W        W85046  40.928   0.296   3.244
18638W        W85047  26.292  33.138  11.100
18639W        W85048  17.020  27.053   1.566
18640W        W85049  29.020  35.726   1.749
18641W        W85050  43.800  39.591  13.489
18642W        W85051  25.476  19.073   0.435
18643W        W85052   5.144  20.825  12.862
18644W        W85053  33.520  42.023  12.319
18645W        W85054  27.968   2.656   3.815
18646W        W85055  37.125  10.290  13.384
18647W        W85056  39.596  27.557  11.455
18648W        W85057  25.499   5.382   0.432
18649W        W85058   5.315  23.961  14.545
18650W        W85059  30.066  31.943   3.272
18651W        W85060  22.530  32.668  14.942
18652W        W85061  34.102   3.355   0.433
18653W        W85062  10.710  33.628  10.197
18654W        W85063  39.851  32.601   2.838
18655W        W85064   0.077   6.288   0.648
18656W        W85065  23.509  40.462   0.234
18657W        W85066  38.563   9.696  12.600
18658W        W85067   2.310   3.012  13.720
18659W        W85068  39.328  21.544  10.489
18660W        W85069  31.382  41.029   3.518
18661W        W85070  42.789   4.697  11.988
18662W        W85071  23.961   5.096   4.993
18663W        W85072  23.563   4.937   1.439
18664W        W85073  32.430  18.497  13.827
18665W        W85074  22.857  14.537   5.162
18666W        W85075  12.748  19.129  12.310
18667W        W85076  31.620   7.255  13.415
18668W        W85077  30.107  11.702   0.241
18669W        W85078  36.442  29.104  12.311
18670W        W85079  10.317  17.467  11.118
18671W        W85080   3.959  11.231  12.346
18672W        W85081  15.667  20.118   5.098
18673W        W85082  30.588   3.878  14.067
18674W        W85083  14.289  34.114   0.675
18675W        W85084  21.277  21.931   0.335
18676W        W85085  40.053   8.255  11.129
18677W        W85086  31.406   9.711   1.450
18678W        W85087  23.111  26.215  11.424
18679W        W85088  40.044  27.112   2.864
18680W        W85089  37.343  31.757   4.126
18681W        W85090   7.351  20.508   2.304
18682W        W85091   3.905  40.880  12.348
18683W        W85092   5.440  35.350   1.267
18684W        W85093  22.709  25.073  13.741
18685W        W85094  11.189   2.702  11.186
18686W        W85095  30.411  27.869  14.789
18687W        W85096  24.070  22.330  13.910
18688W        W85097  19.193  43.625  14.101
18689W        W85098  24.530  26.191   5.305
18690W        W85099  32.652  18.790   4.136
18691W        W85100   1.151  26.483  12.473
18692W        W85101  26.015  37.886   4.409
18693W        W85102   7.185  38.004   4.674
18694W        W85103  30.699   7.303  10.621
18695W        W85104  21.233  24.408  10.608
18696W        W85105  33.907  36.060  11.236
18697W        W85106  32.853  12.716  12.387
18698W        W85107  12.308  35.539   4.215
18699W        W85108  34.879  24.533  13.085
18700W        W85109   6.365  18.375   2.831
18701W        W85110  30.754   7.063   4.400
18702W        W85111   7.383   1.806   2.609
18703W        W85112  21.317  30.974  11.575
18704W        W85113  35.458   3.196  12.486
18705W        W85114  33.463   4.811   2.246
18706W        W85115  42.297  13.895   4.240
18707W        W85116  22.651  42.329  14.001
18708W        W85117  14.380  39.230  10.752
18709W        W85118  13.639  42.338   4.048
18710W        W85119   7.235   8.708  13.188
18711W        W85120   2.461   7.314   1.780
18712W        W85121  12.204  24.156  14.122
18713W        W85122   5.823  43.433   1.751
18714W        W85123  11.747  16.299  12.026
18715W        W85124  13.324  13.830  14.840
18716W        W85125  37.145  40.823  14.355
18717W        W85126  35.085  35.549   2.166
18718W        W85127   0.900  41.598  13.040
18719W        W85128   4.685  32.048   4.200
18720W        W85129  20.693   9.920  12.586
18721W        W85130  22.542  39.527  14.250
18722W        W85131  32.061   5.177   1.286
18723W        W85132  37.325  23.723  14.709
18724W        W85133  27.960  37.660   1.657
18725W        W85134  21.719  20.321   0.663
18726W        W85135  11.350   4.222   2.289
18727W        W85136  41.273  21.900  12.455
18728W        W85137  43.431  15.620  14.739
18729W        W85138  27.104   9.805   1.910
18730W        W85139  30.525  16.760  11.699
18731W        W85140  36.851   2.065   1.882
18732W        W85141  44.943  39.023  13.900
18733W        W85142  28.128  30.686   0.284
18734W        W85143  26.207   0.403   1.981
18735W        W85144   5.710  35.058   1.631
18736W        W85145  40.447   4.034  14.878
18737W        W85146  19.991  38.853  11.201
18738W        W85147  28.816  17.117   1.913
18739W        W85148  24.749  17.104   5.174
18740W        W85149  17.585  23.266  14.971
18741W        W85150  31.580  40.534  10.615
18742W        W85151  41.067  40.039  12.322
18743W        W85152  19.271  40.354   0.924
18744W        W85153  43.886   2.719  12.943
18745W        W85154  36.903  42.841   0.804
18746W        W85155  16.596  12.405  11.933
18747W        W85156   5.395  19.705   3.065
18748W        W85157  40.567  44.317   3.773
18749W        W85158   2.368  23.435  12.563
18750W        W85159  41.156   8.832   1.903
18751W        W85160  14.852   4.907  12.358
18752W        W85161  26.501  30.496  12.801
18753W        W85162  16.427  24.932   5.506
18754W        W85163   1.791  33.714   2.332
18755W        W85164  31.290  26.985   3.109
18756W        W85165  42.321   5.516  14.544
18757W        W85166  42.920  17.819   3.109
18758W        W85167  23.433  42.974  12.386
18759W        W85168  24.190  27.907   4.445
18760W        W85169  20.018  38.864   4.593
18761W        W85170  22.657  10.663   4.835
18762W        W85171   7.071   7.377   3.036
18763W        W85172  11.228  32.083   1.168
18764W        W85173   4.169  12.108  14.886
18765W        W85174   0.423  26.719   0.020
18766W        W85175   2.027  10.370  11.430
18767W        W85176  11.724  42.871  13.025
18768W        W85177   9.412  20.809  11.169
18769W        W85178  21.583  25.243  10.824
18770W        W85179   8.245  27.475  12.701
18771W        W85180  43.515  27.482   0.508
18772W        W85181  25.991   4.581   3.689
18773W        W85182  11.696  13.596  13.879
18774W        W85183  27.994   2.002  14.325
18775W        W85184  39.988  38.336   0.148
18776W        W85185  33.421  20.518   1.533
18777W        W85186   7.255  17.954  12.628
18778W        W85187   1.915  44.459   0.551
18779W        W85188  17.585  39.929  14.452
18780W        W85189   7.380  34.065   2.984
18781W        W85190  20.933   6.571  13.253
18782W        W85191  12.426  18.218   2.376
18783W        W85192  19.551  16.089   4.173
18784W        W85193  28.112   0.539   1.686
18785W        W85194  38.648  11.973  13.052
18786W        W85195  26.910   1.115   3.375
18787W        W85196   0.776   5.892   4.752
18788W        W85197  18.986  25.569  11.471
18789W        W85198  43.410  41.799   0.921
18790W        W85199  16.988  38.159   0.743
18791W        W85200  18.253   9.431  14.833
18792W        W85201  19.092   8.215  13.754
18793W        W85202  43.268  44.665   1.821
18794W        W85203   0.336  10.734   0.967
18795W        W85204  31.411   2.284   0.327
18796W        W85205   6.787  17.843   3.272
18797W        W85206   7.390  26.446   2.837
18798W        W85207  14.002  28.928   4.156
18799W        W85208  10.482  37.315   1.211
18800W        W85209  14.750  13.805   2.130
18801W        W85210   5.342   0.281   4.893
18802W        W85211  28.984  27.727  13.299
18803W        W85212  29.513  13.328  13.781
18804W        W85213   4.644  13.379  10.614
18805W        W85214   5.509   3.004   2.855
18806W        W85215   6.089  41.383  13.775
18807W        W85216  26.962  36.742  11.527
18808W        W85217  11.837  43.262   1.860
18809W        W85218  43.217  40.419  13.309
18810W        W85219   7.304  35.333  13.657
18811W        W85220   6.925   7.011   4.163
18812W        W85221  26.222  43.311  13.732
18813W        W85222  26.169  20.644  13.513
18814W        W85223   5.757  36.859   1.445
18815W        W85224  28.428  25.479  10.770
18816W        W85225  22.836  31.715   1.353
18817W        W85226  29.022  10.807  14.978
18818W        W85227   9.848   6.317   2.117
18819W        W85228  27.086  20.516   3.769
18820W        W85229  12.582  36.525   1.574
18821W        W85230  14.591  17.190   3.769
18822W        W85231  35.004  43.402   4.748
18823W        W85232  42.713   6.456  10.679
18824W        W85233  41.921   1.301   0.656
18825W        W85234   4.497  22.780  10.699
18826W        W85235  17.115  32.363   0.120
18827W        W85236  42.998  14.667   3.531
18828W        W85237  40.100  15.426   1.037
18829W        W85238  43.378  40.825   0.949
18830W        W85239   4.435  15.217  11.815
18831W        W85240  15.129  33.717   2.087
18832W        W85241  40.394  17.271   2.750
18833W        W85242  33.368  26.070  14.332
18834W        W85243  31.495   8.934   3.947
18835W        W85244   5.789   0.812  14.430
18836W        W85245  27.041  40.160  13.434
18837W        W85246  43.849   2.160  14.495
18838W        W85247  34.565  29.176   4.044
18839W        W85248  26.298   4.723  12.817
18840W        W85249   1.527  28.489   0.002
18841W        W85250  44.031  19.428  11.168
18842W        W85251  25.529  20.277   1.399
18843W        W85252  17.344   9.941   2.551
18844W        W85253  36.465   7.884  12.356
18845W        W85254   3.294  31.977  14.903
18846W        W85255   3.274  11.837   3.323
18847W        W85256   8.836  20.617   4.088
18848W        W85257   8.800  44.729   1.171
18849W        W85258  25.135  35.015  13.232
18850W        W85259   7.899  14.197   0.958
18851W        W85260  21.601   3.929   3.336
18852W        W85261  19.469   7.082  11.650
18853W        W85262  36.267  12.079   2.249
18854W        W85263  29.528  25.875  11.568
18855W        W85264   8.304  26.092  14.015
18856W        W85265   8.578  31.565  13.044
18857W        W85266  26.163  15.353  10.350
18858W        W85267  27.417  44.573   2.855
18859W        W85268  41.263   2.754   4.664
18860W        W85269   6.330   4.382  12.571
18861W        W85270  23.130  28.132  13.064
18862W        W85271  43.067   5.396  11.140
18863W        W85272  29.684  16.876  14.923
18864W        W85273  17.136   6.939  11.398
18865W        W85274  28.013  37.485   0.825
18866W        W85275  42.591  11.610  11.986
18867W        W85276  43.307  18.241   3.786
18868W        W85277  17.201   9.055   2.300
18869W        W85278  34.599  16.194  13.796
18870W        W85279   1.448  17.061  14.601
18871W        W85280   9.653  24.141   5.108
18872W        W85281   7.171  33.667   2.742
18873W        W85282  17.229  12.872   4.805
18874W        W85283   8.485  26.791   3.671
18875W        W85284  20.158   0.686   4.565
18876W        W85285   7.446  42.217   1.625
18877W        W85286  22.053  35.353  11.212
18878W        W85287  14.205   8.280  12.890
18879W        W85288  34.847  40.358   0.305
18880W        W85289  17.153  16.340  13.545
18881W        W85290  29.477  13.262   0.413
18882W        W85291  43.374  27.965  13.305
18883W        W85292   5.400  23.967   0.519
18884W        W85293   8.316  39.937  14.500
18885W        W85294   2.076   7.235   4.130
18886W        W85295  21.472  17.566   1.931
18887W        W85296  28.949  25.923   2.423
18888W        W85297  32.143   9.852  11.984
18889W        W85298   8.883  36.216   4.573
18890W        W85299  16.749   3.232   3.462
18891W        W85300   3.922  22.727   3.777
18892W        W85301  40.555   0.504   4.936
18893W        W85302  43.525   6.397  14.868
18894W        W85303  37.346  19.013   2.256
18895W        W85304  28.907  11.249   1.846
18896W        W85305  23.545  25.798  14.475
18897W        W85306  18.795  16.674  14.746
18898W        W85307  32.438  30.953   4.119
18899W        W85308  17.758  34.870  13.930
18900W        W85309  39.470  23.637  12.313
18901W        W85310  28.382  25.053  11.735
18902W        W85311  43.225   6.742   2.189
18903W        W85312  20.480   6.834   2.285
18904W        W85313  33.641  23.492   2.356
18905W        W85314   1.655   8.300   2.544
18906W        W85315  29.239  38.112   1.815
18907W        W85316  17.242  23.111  11.852
18908W        W85317   0.992  33.357  12.569
18909W        W85318  37.722  43.861   3.680
18910W        W85319  18.275  39.030   2.904
18911W        W85320  18.978  21.741   0.454
18912W        W85321  43.861  20.831  11.624
18913W        W85322  22.342  11.840   2.993
18914W        W85323  17.105  29.281   3.305
18915W        W85324  35.849   7.670   1.528
18916W        W85325  38.643  23.475   0.158
18917W        W85326  23.414   7.338  13.764
18918W        W85327  16.338  29.909   0.533
18919W        W85328   6.901  39.907   2.220
18920W        W85329  18.506  22.012  11.545
18921W        W85330   7.898  11.273   4.332
18922W        W85331  23.021  20.583  11.882
18923W        W85332  27.646   4.848   4.453
18924W        W85333  22.601  26.687   1.287
18925W        W85334   5.684  43.411  14.908
18926W        W85335  31.272  30.588   3.678
18927W        W85336  36.172  42.523   3.631
18928W        W85337  40.027  43.403  14.329
18929W        W85338  12.575  26.143  12.097
18930W        W85339  14.128   1.006  12.107
18931W        W85340   3.420  34.463  13.791
18932W        W85341   0.377  26.989  11.904
18933W        W85342  20.625   1.895  12.613
18934W        W85343   6.459  40.397  10.574
18935W        W85344  24.922  24.828   0.421
18936W        W85345  38.208  17.520   0.023
18937W        W85346  34.815  36.052  10.292
18938W        W85347  13.047   7.221  11.552
18939W        W85348  22.738  14.146   4.336
18940W        W85349  34.835  20.879  12.626
18941W        W85350   9.646  12.177   4.160
18942W        W85351   5.006   3.818   4.109
18943W        W85352  36.593  35.231  12.148
18944W        W85353  10.226  38.557   3.797
18945W        W85354  26.267  38.148  13.279
18946W        W85355  38.319  33.069  11.983
18947W        W85356  23.482  10.861  12.204
18948W        W85357  35.713   1.773  11.571
18949W        W85358   1.494  42.572  10.431
18950W        W85359  16.948  10.737   2.145
18951W        W85360   1.325  29.590   0.080
18952W        W85361   5.840  36.133   4.987
18953W        W85362  18.592  43.846  13.898
18954W        W85363  42.389  26.209   1.418
18955W        W85364  11.608  30.911   1.265
18956W        W85365   9.019  29.548  12.399
18957W        W85366  12.123  18.627   0.219
18958W        W85367   3.795  40.346  11.647
18959W        W85368  23.947  38.035   3.576
18960W        W85369  37.348   3.907   0.755
18961W        W85370  23.705  19.589   0.329
18962W        W85371   9.933  41.910  11.567
18963W        W85372   2.843  24.542  14.468
18964W        W85373  24.155   9.306   0.328
18965W        W85374  36.137  37.115   2.849
18966W        W85375   3.453  11.139   0.586
18967W        W85376  33.093  44.497  10.562
18968W        W85377   6.190  16.576   2.140
18969W        W85378  10.558  14.491   3.777
18970W        W85379   9.929  15.671   2.887
18971W        W85380  37.900   7.212   0.817
18972W        W85381  32.836  40.720   0.821
18973W        W85382  39.743  11.418   3.327
18974W        W85383  39.951  26.416  12.120
18975W        W85384  17.208   3.662  13.342
18976W        W85385   2.327   1.025  10.335
18977W        W85386  38.386   5.892  11.997
18978W        W85387  33.332  33.601  11.644
18979W        W85388  23.050  37.576  14.018
18980W        W85389   7.494  13.768  10.710
18981W        W85390  12.152   2.280   5.450
18982W        W85391  15.246  13.291  11.921
18983W        W85392  16.133  25.268   2.728
18984W        W85393  20.494   0.410   4.171
18985W        W85394   9.237  30.977   1.681
18986W        W85395  41.416  38.911  14.768
18987W        W85396  37.188   0.258   0.815
18988W        W85397  14.569  18.081  10.118
18989W        W85398   7.437  21.770  11.503
18990W        W85399  23.319  11.110   4.071
18991W        W85400  27.611  33.385   4.180
18992W        W85401  24.998   8.867  12.899
18993W        W85402  40.513  31.936   3.047
18994W        W85403   1.407  33.061   0.202
18995W        W85404  29.017   0.852  10.791
18996W        W85405   0.545  27.185  14.837
18997W        W85406  34.210  37.882  12.701
18998W        W85407  22.842   7.371  11.383
18999W        W85408  17.237  43.864  11.898
19000W        W85409  11.217  36.977   2.707
19001W        W85410  13.234  32.403  13.947
19002W        W85411  42.704  29.078  12.482
19003W        W85412   6.566   8.712   3.631
19004W        W85413  13.156  22.438  14.231
19005W        W85414  22.759  27.936   3.595
19006W        W85415  12.612   6.716   0.792
19007W        W85416  37.099  29.626  12.615
19008W        W85417  13.155  27.624  12.453
19009W        W85418  17.500  11.500  11.103
19010W        W85419   7.441  42.202   2.168
19011W        W85420   9.465  37.282  10.131
19012W        W85421  43.850  20.493   3.230
19013W        W85422  19.123  40.196  13.451
19014W        W85423   0.468  20.684   0.242
19015W        W85424  16.039  37.023   3.797
19016W        W85425  28.751  16.919  10.989
19017W        W85426   8.917  17.696  13.984
19018W        W85427  28.755  23.914  12.415
19019W        W85428  14.991  26.040  12.240
19020W        W85429  38.340  23.528  11.658
19021W        W85430   1.522  40.866   3.639
19022W        W85431  30.766  23.980  11.090
19023W        W85432   0.098  34.792   4.161
19024W        W85433  43.618  42.504  12.615
19025W        W85434  27.950  40.257  11.501
19026W        W85435  23.517   1.870   3.198
19027W        W85436  23.568   1.029  10.612
19028W        W85437  27.029  30.291   3.771
19029W        W85438  37.634  41.502   3.162
19030W        W85439  11.151  14.639  11.220
19031W        W85440  32.884  28.439   2.658
19032W        W85441  24.009   3.783  10.615
19033W        W85442  38.692  37.440  14.821
19034W        W85443  39.901  19.730   3.640
19035W        W85444  44.076  10.924  14.723
19036W        W85445  20.717  13.796  12.873
19037W        W85446   3.298  31.554  13.562
19038W        W85447  39.364   8.259  14.550
19039W        W85448  36.420  21.013  14.381
19040W        W85449  37.003  23.988   3.983
19041W        W85450  27.503  15.383  11.542
19042W        W85451   3.200  32.214  11.205
19043W        W85452  41.267   3.178   3.309
19044W        W85453  38.030   5.854  10.789
19045W        W85454  23.106  26.117   0.773
19046W        W85455  15.182   4.326  13.885
19047W        W85456  21.285  14.357   0.332
19048W        W85457  33.406  18.679  11.199
19049W        W85458   5.294  27.527   3.149
19050W        W85459  12.669  18.667   9.862
19051W        W85460  29.455   4.820  11.863
19052W        W85461  15.693   2.299  11.372
19053W        W85462  35.212  37.353  11.095
19054W        W85463   6.661  39.112  13.351
19055W        W85464  44.958  35.892   1.322
19056W        W85465   3.111  25.024  14.474
19057W        W85466  29.384  18.683   3.557
19058W        W85467  21.580  34.014  12.932
19059W        W85468  26.544   7.724   1.626
19060W        W85469  25.128  16.595   0.244
19061W        W85470  33.514  41.334   0.465
19062W        W85471  24.123  31.597  12.479
19063W        W85472  39.499   9.196   4.420
19064W        W85473  17.366  42.714   4.666
19065W        W85474  23.531   1.432   3.463
19066W        W85475  22.804   9.133  12.006
19067W        W85476  43.351  43.180  13.383
19068W        W85477  19.579  14.224   2.665
19069W        W85478  33.040  32.018  13.608
19070W        W85479   6.443   0.342  13.785
19071W        W85480  36.448   2.229  13.026
19072W        W85481  35.112  36.818  12.614
19073W        W85482  37.043   5.151  12.662
19074W        W85483  28.634   2.743   0.753
19075W        W85484  14.199  18.580   0.354
19076W        W85485  33.977  16.464  13.876
19077W        W85486  18.694  11.040   1.876
19078W        W85487  37.855  39.677  14.269
19079W        W85488  37.570  17.746   1.751
19080W        W85489  20.095  31.091  10.625
19081W        W85490  22.430   3.445   4.283
19082W        W85491   2.378  20.614  11.606
19083W        W85492   3.275   1.769   1.228
19084W        W85493  12.174  22.311   3.912
19085W        W85494   5.409   5.889   2.821
19086W        W85495  29.574  21.403   2.883
19087W        W85496   9.357  25.622   0.840
19088W        W85497  31.719  38.412  11.431
19089W        W85498  42.171  30.579   5.093
19090W        W85499  12.240  43.778   2.229
19091W        W85500   5.351  23.500   2.769
19092W        W85501  37.775  31.495   2.298
19093W        W85502  37.794   2.325  12.994
19094W        W85503  16.609  35.039   2.153
19095W        W85504  34.517  38.058   3.688
19096W        W85505  20.811  39.910  11.001
19097W        W85506  10.326  31.409   2.283
19098W        W85507   1.930  22.049   0.355
19099W        W85508  11.290  41.939   0.280
19100W        W85509  37.509   3.374  13.108
19101W        W85510   8.242  20.172  13.309
19102W        W85511  33.907  40.099  14.422
19103W        W85512   7.808  40.723  10.710
19104W        W85513  24.723  16.138  13.476
19105W        W85514   3.969  10.784   4.067
19106W        W85515  41.550  17.483  11.966
19107W        W85516  42.795  19.744  13.536
19108W        W85517  10.259  28.593  14.293
19109W        W85518  10.435  42.306   0.986
19110W        W85519  21.727  20.594  10.990
19111W        W85520  37.436  37.999   0.013
19112W        W85521  19.020  17.739   2.337
19113W        W85522   3.530  33.152  13.424
19114W        W85523  14.762  29.450  11.931
19115W        W85524  42.921   9.157  12.161
19116W        W85525  28.472  37.535  12.633
19117W        W85526   2.446  36.142   4.210
19118W        W85527   5.248   3.374   4.084
19119W        W85528   5.713  39.469   2.311
19120W        W85529  41.083  22.950  13.882
19121W        W85530  14.672   3.910   3.702
19122W        W85531  40.285  22.033   1.828
19123W        W85532   1.415  26.512   4.106
19124W        W85533   7.143  23.339   2.189
19125W        W85534  33.384  22.474   3.341
19126W        W85535  23.571  19.818   2.264
19127W        W85536  30.901   1.775   0.757
19128W        W85537  11.230  38.694  12.808
19129W        W85538   0.738  23.729  14.899
19130W        W85539  19.960  15.823  10.403
19131W        W85540   8.722  35.393  14.834
19132W        W85541  23.505  15.616   1.266
19133W        W85542  39.255  39.331   2.071
19134W        W85543  29.930  21.662   1.399
19135W        W85544  22.994  20.274   4.589
19136W        W85545   4.475   7.198  12.486
19137W        W85546   8.659  25.431   3.697
19138W        W85547  28.163  32.452   3.271
19139W        W85548   6.410  10.031   1.214
19140W        W85549  35.815   9.073  11.118
19141W        W85550  24.651  37.817  12.672
19142W        W85551  24.046  33.836   1.782
19143W        W85552  36.999  24.670   5.082
19144W        W85553  41.962  22.325  14.919
19145W        W85554  31.486  21.214  14.411
19146W        W85555  29.378   2.521   4.777
19147W        W85556  43.372   6.997  13.982
19148W        W85557  35.954  17.853  14.914
19149W        W85558   8.458   9.849  11.027
19150W        W85559  21.515  16.638   1.921
19151W        W85560  26.529  18.551   2.704
19152W        W85561  39.768  16.666   1.864
19153W        W85562   6.428  27.911  14.799
19154W        W85563   0.296   3.686  11.143
19155W        W85564  10.330  21.543   3.353
19156W        W85565   0.891  39.946   1.319
19157W        W85566  34.398  27.478  14.254
19158W        W85567   7.489  39.010   0.905
19159W        W85568  42.832  34.308  12.580
19160W        W85569  39.956   2.603  10.652
19161W        W85570  42.482  31.556  13.888
19162W        W85571  11.758   5.278   4.791
19163W        W85572  34.285  39.982  10.318
19164W        W85573   1.890  23.133   1.253
19165W        W85574  43.547   9.183   3.577
19166W        W85575  32.934   1.834   4.986
19167W        W85576  44.926  18.770  12.428
19168W        W85577  19.289  10.306  14.783
19169W        W85578  12.471  10.347  14.311
19170W        W85579  10.714  26.916   4.247
19171W        W85580  11.307  43.575   0.274
19172W        W85581  36.452  40.765   2.254
19173W        W85582  32.600  14.380  11.173
19174W        W85583  32.515   0.503  10.200
19175W        W85584  20.251   9.618   2.898
19176W        W85585  18.040  16.035  10.691
19177W        W85586  38.985  25.009   1.153
19178W        W85587  12.190  15.851  14.083
19179W        W85588  24.839  19.927   4.063
19180W        W85589  28.494  24.527  13.771
19181W        W85590  42.761   1.226   0.223
19182W        W85591  15.811   4.173  12.771
19183W        W85592  14.819  20.084   4.057
19184W        W85593  27.181  37.605   3.710
19185W        W85594   3.732  22.782   3.312
19186W        W85595  41.428  20.422  12.025
19187W        W85596  21.969  33.638  14.947
19188W        W85597  10.914  40.154  12.059
19189W        W85598  24.122  20.683  12.856
19190W        W85599  11.191  37.372  14.794
19191W        W85600  12.088  39.520  12.156
19192W        W85601  12.365  41.053   3.453
19193W        W85602   9.391  17.807   0.972
19194W        W85603   9.450   2.674  11.145
19195W        W85604  10.503  34.973   4.925
19196W        W85605  34.589   9.270  12.423
19197W        W85606  38.645  38.422  11.909
19198W        W85607  37.115  10.987  10.575
19199W        W85608  24.138  18.034  10.597
19200W        W85609   0.604  34.704   4.167
19201W        W85610  29.579  21.681  11.153
19202W        W85611  44.458  17.617  14.571
19203W        W85612  33.445  43.056   4.682
19204W        W85613   3.353  15.146  10.898
19205W        W85614  24.143  12.061  11.182
19206W        W85615  41.768  43.368  14.962
19207W        W85616  36.516  25.165   4.056
19208W        W85617  37.909  25.388  13.717
19209W        W85618   7.084  32.593  13.079
19210W        W85619  37.567  16.149  11.983
19211W        W85620  42.557  10.912   4.436
19212W        W85621  29.093  42.848   0.958
19213W        W85622   1.856  28.970   0.767
19214W        W85623   1.002  18.129   1.841
19215W        W85624  21.302  11.101  11.712
19216W        W85625   7.601  31.372   0.863
19217W        W85626   3.819  10.828  11.066
19218W        W85627  44.550  20.145  14.533
19219W        W85628  38.933  29.911  12.000
19220W        W85629  26.281   2.857   2.492
19221W        W85630  18.613  44.967  12.492
19222W        W85631  28.552  27.955   1.783
19223W        W85632  30.756   3.768   2.668
19224W        W85633  16.470  18.620  12.986
19225W        W85634  15.191  38.494   3.528
19226W        W85635  20.390  44.252   3.626
19227W        W85636  41.541  37.402   3.322
19228W        W85637  10.162  28.528   0.332
19229W        W85638  14.134  15.998   4.804
19230W        W85639   1.959  44.246   3.517
19231W        W85640  15.270  11.208  11.777
19232W        W85641  31.641  11.804   5.048
19233W        W85642  35.416  42.916  12.588
19234W        W85643  38.107  11.419  13.383
19235W        W85644  14.042  15.870   0.887
19236W        W85645  26.831   9.727  10.700
19237W        W85646  38.771  24.567  11.634
19238W        W85647  25.580  40.690  14.653
19239W        W85648   7.045  41.841   2.316
19240W        W85649  38.275  29.619   0.022
19241W        W85650  29.218  38.739   4.203
19242W        W85651  39.387  28.190  12.599
19243W        W85652  40.305  43.355   1.366
19244W        W85653  41.747  38.956   4.460
19245W        W85654  42.009  19.714   0.945
19246W        W85655  33.853  34.546   3.309
19247W        W85656  17.062  28.151  10.770
19248W        W85657   1.662   5.811   3.032
19249W        W85658  13.789  33.771  10.404
19250W        W85659  27.220  21.210  11.163
19251W        W85660  19.626  18.853  14.855
19252W        W85661  11.232   5.984  12.567
19253W        W85662  39.095  43.680  10.115
19254W        W85663  38.787  30.482  13.960
19255W        W85664  28.487  19.629   1.281
19256W        W85665  21.536   4.951  12.599
19257W        W85666  43.866  16.855  14.799
19258W        W85667  42.424   3.395   1.689
19259W        W85668  21.663  15.276  13.800
19260W        W85669  17.519  41.488  13.190
19261W        W85670  40.437  37.975  12.908
19262W        W85671  43.776  20.822  14.501
19263W        W85672  30.240  44.893   4.069
19264W        W85673   7.534  10.314  13.525
19265W        W85674   8.805  17.665   2.858
19266W        W85675   8.731  27.161  11.553
19267W        W85676  15.623   8.435   3.962
19268W        W85677  39.051  33.534  13.983
19269W        W85678  34.977   0.433  12.364
19270W        W85679  21.191  13.979   4.380
19271W        W85680   0.423   8.818   0.459
19272W        W85681  16.182  36.139  11.387
19273W        W85682  26.103  39.615  13.493
19274W        W85683  42.844  30.603  10.799
19275W        W85684  40.018  35.922  11.126
19276W        W85685  20.119  23.691   1.779
19277W        W85686  39.623  43.903   4.237
19278W        W85687   7.208  40.935   0.830
19279W        W85688  30.551  20.621   1.670
19280W        W85689  18.021  41.843  14.034
19281W        W85690  11.679  44.747  10.403
19282W        W85691  41.625  17.524   5.001
19283W        W85692  14.160   1.675   0.987
19284W        W85693  31.592  32.442   4.672
19285W        W85694  22.977  31.080  10.470
19286W        W85695   5.913  26.681  13.484
19287W        W85696   4.343  16.257   0.940
19288W        W85697   6.699  11.434   2.164
19289W        W85698  41.933  17.751  12.210
19290W        W85699  15.060  18.710   0.810
19291W        W85700  21.451   3.391   4.168
19292W        W85701  44.693  37.431  10.617
19293W        W85702  14.838  12.327  10.393
19294W        W85703  35.503  18.767   0.031
19295W        W85704  42.034  10.978   4.610
19296W        W85705   0.306  36.942   3.656
19297W        W85706  20.808  24.749   1.769
19298W        W85707  41.793  37.436  11.012
19299W        W85708  15.813   7.011   1.330
19300W        W85709  16.246  28.258  12.896
19301W        W85710  16.691  33.920  14.037
19302W        W85711  28.135  27.744   3.615
19303W        W85712  13.185  44.657  11.605
19304W        W85713  41.046  20.568   0.736
19305W        W85714  12.726  21.399   2.033
19306W        W85715  10.052  23.764  12.808
19307W        W85716  38.342   9.353  12.991
19308W        W85717  29.742  32.369  12.545
19309W        W85718  37.021   1.265   0.025
19310W        W85719  12.626   5.520  14.353
19311W        W85720  27.398  40.299   1.856
19312W        W85721  13.841  21.359  12.398
19313W        W85722  35.050   7.363   1.266
19314W        W85723  21.953  16.993   3.680
19315W        W85724  35.956  30.135  14.065
19316W        W85725  26.968  18.068  11.101
19317W        W85726  28.235  36.468   4.397
19318W        W85727  14.874   2.279   3.629
19319W        W85728  18.137  32.847   2.860
19320W        W85729   9.426  44.523  11.018
19321W        W85730  37.366   8.282  13.312
19322W        W85731  11.236  14.271  12.940
19323W        W85732  36.732  42.306  13.386
19324W        W85733  43.296  21.648  13.336
19325W        W85734  13.596  33.989  14.993
19326W        W85735  32.334  27.159   4.121
19327W        W85736  34.416   4.096  12.077
19328W        W85737  10.127   1.462   0.984
19329W        W85738  18.903  25.900  14.946
19330W        W85739  29.177  18.061   3.475
19331W        W85740  14.820  13.623   1.149
19332W        W85741  17.225  43.272   1.906
19333W        W85742  42.583   7.726  14.797
19334W        W85743   9.851   2.791  12.609
19335W        W85744  39.818  39.917   2.665
19336W        W85745   9.156  15.549   1.282
19337W        W85746   2.203   5.892  12.393
19338W        W85747  21.341  25.077   0.484
19339W        W85748  42.299  20.582  14.555
19340W        W85749  23.580  33.817  14.269
19341W        W85750  14.259  13.831   0.889
19342W        W85751   4.389  20.227   0.507
19343W        W85752  14.554  19.545   1.735
19344W        W85753   6.253  19.185   0.855
19345W        W85754  21.753  38.398  10.557
19346W        W85755  39.841  17.815  13.122
19347W        W85756  20.553  11.547  14.499
19348W        W85757  30.091  43.358   0.930
19349W        W85758  41.580  11.407  13.070
19350W        W85759   9.423  25.572  13.810
19351W        W85760  24.192  26.610   0.456
19352W        W85761  13.355  23.728  13.468
19353W        W85762   4.640  27.315  11.145
19354W        W85763  31.305  25.783   1.958
19355W        W85764   0.947  16.893  11.922
19356W        W85765  36.122  20.525   0.514
19357W        W85766  40.989   2.336   1.014
19358W        W85767  10.242  13.778  10.994
19359W        W85768  44.466   5.708  13.975
19360W        W85769  23.271   0.016  10.525
19361W        W85770  17.327  18.695   2.315
19362W        W85771  12.434  37.603  14.327
19363W        W85772  18.106  36.603  11.184
19364W        W85773   0.226  37.551   1.832
19365W        W85774  42.870   2.824   4.707
19366W        W85775  15.587  38.103   1.240
19367W        W85776   1.310  30.154   1.322
19368W        W85777  35.960  44.506   0.722
19369W        W85778   3.340  40.943  14.978
19370W        W85779  13.231   1.398   0.869
19371W        W85780   4.353  18.150  13.353
19372W        W85781  16.802   5.746   0.229
19373W        W85782  19.767  38.876  13.134
19374W        W85783  26.259   9.636   0.255
19375W        W85784   7.671  38.100  12.283
19376W        W85785   8.887  29.774   0.914
19377W        W85786  34.448   0.206  11.109
19378W        W85787   8.950   9.211   0.486
19379W        W85788  17.125  32.274   9.910
19380W        W85789  22.038  34.606  12.482
19381W        W85790   2.458  16.226  11.125
19382W        W85791  10.908  27.941  10.950
19383W        W85792  39.904  32.740  14.858
19384W        W85793  15.826  34.369   2.801
19385W        W85794   0.582  16.518   4.081
19386W        W85795  44.251  23.687  10.678
19387W        W85796  21.343   1.734   2.236
19388W        W85797   4.446  30.562   2.685
19389W        W85798  27.733  35.350  13.875
19390W        W85799   3.713  43.987   0.875
19391W        W85800   8.945  28.408  11.052
19392W        W85801   8.373  12.051   4.416
19393W        W85802  43.379  31.900  13.451
19394W        W85803  21.017  29.370  11.005
19395W        W85804  12.078  38.099  12.154
19396W        W85805  31.387  19.266  12.597
19397W        W85806  43.745  36.964  11.210
19398W        W85807  42.701  32.329  11.409
19399W        W85808  16.666  26.487   4.624
19400W        W85809  11.637  18.138   3.212
19401W        W85810  19.596  41.435   1.786
19402W        W85811  31.092  11.601   1.292
19403W        W85812  30.645  21.956   3.320
19404W        W85813  19.598   7.611  11.608
19405W        W85814  41.368  43.718  13.507
19406W        W85815  16.093  27.481   4.408
19407W        W85816  31.413  14.689  11.564
19408W        W85817  19.092  43.834   4.304
19409W        W85818  20.274  20.253   1.900
19410W        W85819  43.404  28.569   1.891
19411W        W85820  15.709  42.820  10.643
19412W        W85821  34.885  11.100  14.712
19413W        W85822  12.700  40.969  10.697
19414W        W85823  25.931  16.747   3.146
19415W        W85824  42.946  31.982   2.880
19416W        W85825   2.349  30.926  12.797
19417W        W85826  31.397  23.189  12.590
19418W        W85827  11.103   2.810  13.623
19419W        W85828  41.893  31.664  11.142
19420W        W85829  40.448   0.443   3.365
19421W        W85830  37.311  13.644   1.378
19422W        W85831  31.137  38.441  12.866
19423W        W85832  31.714  37.624   0.947
19424W        W85833  37.990   9.822  14.417
19425W        W85834   2.603  18.064   4.983
19426W        W85835  20.206  20.848   4.970
19427W        W85836  21.129  36.380  10.609
19428W        W85837  27.149  30.357   1.181
19429W        W85838  22.057  37.315  14.082
19430W        W85839   0.923  16.985   3.326
19431W        W85840  13.266  11.703  13.384
19432W        W85841   3.911  39.518   3.308
19433W        W85842  37.791  38.236   3.385
19434W        W85843  17.762   0.553  11.659
19435W        W85844   4.791  38.138  12.498
19436W        W85845  17.184  27.562   2.321
19437W        W85846  15.203  28.277  11.094
19438W        W85847  15.243  22.150   2.121
19439W        W85848   4.459  32.152  10.733
19440W        W85849  33.469  15.348  14.489
19441W        W85850  15.647   9.428  13.253
19442W        W85851  28.885  14.081  13.408
19443W        W85852  36.829  20.282   0.814
19444W        W85853  33.030   4.912  14.687
19445W        W85854  22.535  36.341   1.877
19446W        W85855  27.155   0.497  14.406
19447W        W85856  15.724  34.174   0.627
19448W        W85857  12.143  10.584  11.233
19449W        W85858  19.713  17.238   1.510
19450W        W85859  37.579  16.503   3.674
19451W        W85860  27.966   4.024  14.245
19452W        W85861  26.370  40.530   1.825
19453W        W85862  13.265  41.241  12.469
19454W        W85863   6.798  29.935   4.294
19455W        W85864  21.120  19.934  13.683
19456W        W85865  31.368  42.900  12.701
19457W        W85866   3.184  26.683   2.367
19458W        W85867  14.389  26.153  10.655
19459W        W85868  15.228  21.216   3.529
19460W        W85869  13.187  39.427   4.607
19461W        W85870   5.701  14.711   1.768
19462W        W85871   4.241   4.219  12.061
19463W        W85872  19.345  16.301  14.302
19464W        W85873  18.240  12.610  14.766
19465W        W85874  21.976   2.001  12.877
19466W        W85875  38.629  27.987   4.221
19467W        W85876  15.610  19.743   2.967
19468W        W85877  23.581   5.777  10.402
19469W        W85878  31.081  44.724  11.629
19470W        W85879  15.627  35.035  12.039
19471W        W85880  31.080  18.219  10.721
19472W        W85881  10.803  40.020   3.096
19473W        W85882  31.934  26.487   3.578
19474W        W85883   5.746   2.157   2.689
19475W        W85884  11.768  37.830  13.004
19476W        W85885  26.725   7.374   9.849
19477W        W85886  39.697  39.295  12.995
19478W        W85887  28.164  35.468   1.272
19479W        W85888   1.347  19.490   3.643
19480W        W85889   0.525  17.792  11.731
19481W        W85890  17.807  43.263   1.237
19482W        W85891  14.649  42.760   2.792
19483W        W85892   5.543  18.076   3.655
19484W        W85893  24.045  26.740   3.084
19485W        W85894  23.486  39.764   3.667
19486W        W85895   8.121   2.724   3.736
19487W        W85896   9.108  31.180  11.189
19488W        W85897  13.239   1.413  13.570
19489W        W85898  22.012   5.256   1.727
19490W        W85899  25.815  37.096  12.487
19491W        W85900   9.934  31.470   1.313
19492W        W85901   2.758  28.388  12.491
19493W        W85902  15.268  25.569   4.616
19494W        W85903  43.762   5.917   1.390
19495W        W85904   9.612  35.531  14.389
19496W        W85905   9.288  21.039  14.595
19497W        W85906  30.421  22.131  10.998
19498W        W85907  34.414  19.805   4.698
19499W        W85908   5.872  13.532   2.664
19500W        W85909  37.004  33.815  14.791
19501W        W85910  34.787  22.685   5.005
19502W        W85911  41.864  17.570  13.611
19503W        W85912  11.603  19.009  10.996
19504W        W85913   9.888  24.611   3.817
19505W        W85914  22.200  37.617  10.610
19506W        W85915  36.133  10.423   1.800
19507W        W85916  25.128  36.831   4.541
19508W        W85917  21.943  41.989   3.827
19509W        W85918  29.347  41.900   0.559
19510W        W85919  30.027  14.355   1.237
19511W        W85920  10.113  34.539   3.241
19512W        W85921  36.254   5.710  14.744
19513W        W85922  14.265  28.954  12.451
19514W        W85923   3.041  12.775   4.714
19515W        W85924   2.759  39.074  14.297
19516W        W85925  10.250  30.198   0.892
19517W        W85926  36.680   0.346   0.854
19518W        W85927  33.597  19.557   1.817
19519W        W85928  41.485  31.031  13.645
19520W        W85929  39.177  42.551   3.811
19521W        W85930  12.233  13.733   2.101
19522W        W85931  26.415   4.827  14.570
19523W        W85932  36.098   6.354   0.979
19524W        W85933  32.923   0.428   1.874
19525W        W85934  14.502  32.178   5.077
19526W        W85935  35.262   6.835   4.651
19527W        W85936  17.729   9.733   0.481
19528W        W85937  13.830  34.827   3.517
19529W        W85938  17.725  40.895  11.677
19530W        W85939  29.000   7.915   4.072
19531W        W85940  25.167  22.196   5.095
19532W        W85941  22.651  33.338  11.619
19533W        W85942  10.923   7.929   4.083
19534W        W85943  39.531  42.870   4.559
19535W        W85944  10.392  33.881   0.438
19536W        W85945   8.935  41.837  11.603
19537W        W85946  26.947   6.914   4.063
19538W        W85947  18.247   6.901   4.523
19539W        W85948   4.956  20.024   4.102
19540W        W85949   3.275  39.509  11.552
19541W        W85950  16.930   9.860  10.221
19542W        W85951  13.175  41.657  13.826
19543W        W85952  19.714  11.556  14.481
19544W        W85953  32.952  16.217  14.630
19545W        W85954  17.042  29.507  14.438
19546W        W85955  42.795  24.933   0.295
19547W        W85956  44.426   9.156  12.697
19548W        W85957  30.316   1.333  14.451
19549W        W85958  37.478   6.702   4.103
19550W        W85959   1.408  41.011  14.512
19551W        W85960  31.979   8.853   4.220
19552W        W85961  30.715  24.696   0.987
19553W        W85962   9.634   5.807   4.140
19554W        W85963  28.625  33.164   2.322
19555W        W85964   5.404  41.644  12.090
19556W        W85965   7.001  20.050   3.316
19557W        W85966  37.879  41.526   4.250
19558W        W85967  40.894  35.294   4.572
19559W        W85968  20.012  30.429   5.063
19560W        W85969  14.554  23.909   4.677
19561W        W85970  28.380  11.263  13.894
19562W        W85971  38.525  23.149   2.240
19563W        W85972  26.206  11.300  11.353
19564W        W85973  21.748   5.076  12.153
19565W        W85974   9.742   8.760  12.537
19566W        W85975   9.722  14.288   4.378
19567W        W85976  32.919  26.919   1.657
19568W        W85977  16.755   0.900  14.401
19569W        W85978  25.953  42.651   2.822
19570W        W85979  35.067   3.164   0.450
19571W        W85980  39.468  27.529  12.919
19572W        W85981   7.612  39.509   0.699
19573W        W85982  23.027  16.173   3.051
19574W        W85983  14.367  24.147  12.909
19575W        W85984  25.621   9.863   4.553
19576W        W85985  31.952  14.570  10.575
19577W        W85986  44.890  12.601  11.924
19578W        W85987  14.316  17.870   2.779
19579W        W85988  21.067  30.151   0.411
19580W        W85989   6.105  20.975   0.820
19581W        W85990  28.729  35.372   0.443
19582W        W85991  25.969  12.953   3.133
19583W        W85992  21.202  43.249  11.007
19584W        W85993  16.530   0.280   4.390
19585W        W85994   9.211  12.108   1.350
19586W        W85995  23.723  41.392   0.735
19587W        W85996  15.877  42.868   2.218
19588W        W85997   1.426  18.265  12.866
19589W        W85998  34.260  13.427   1.841
19590W        W85999  35.581  39.038   2.233
19591W        W86000  37.996   8.659   0.835
19592W        W86001  23.618   3.288   3.716
19593W        W86002  22.433  20.695  13.477
19594W        W86003  20.807  16.215  11.631
19595W        W86004  39.635  24.195  11.609
19596W        W86005  42.031   0.304  11.122
19597W        W86006   2.323  32.798  13.807
19598W        W86007  36.001  17.404  11.456
19599W        W86008   7.620  33.030  12.433
19600W        W86009  25.051  11.406  14.933
19601W        W86010  14.199  16.025  12.815
19602W        W86011  12.394  44.241  11.707
19603W        W86012  19.292  32.046   2.322
19604W        W86013  13.275  22.840  13.468
19605W        W86014  28.856   3.416   4.356
19606W        W86015   3.484  25.626  11.060
19607W        W86016  10.166  40.870  11.174
19608W        W86017   9.734  33.048  12.056
19609W        W86018  21.122  36.069   2.907
19610W        W86019  18.632   0.527  10.688
19611W        W86020  13.031  25.204  11.879
19612W        W86021  44.802  31.482   4.616
19613W        W86022  32.028  38.991   2.443
19614W        W86023  24.707  11.539   2.662
19615W        W86024   9.727  35.910   0.334
19616W        W86025   1.758  28.613  13.788
19617W        W86026  18.226  42.545   3.401
19618W        W86027  39.164   5.218   1.365
19619W        W86028   2.225  22.564  11.487
19620W        W86029   6.792  41.820  12.038
19621W        W86030  16.194  18.669   5.024
19622W        W86031  27.108  25.710  10.699
19623W        W86032  34.905  23.723   4.641
19624W        W86033   6.155   5.959  10.902
19625W        W86034  28.435  32.134   0.193
19626W        W86035  42.583  32.138   0.815
19627W        W86036  12.785  42.728   0.955
19628W        W86037  11.415  38.931  14.830
19629W        W86038  25.511  15.222   4.182
19630W        W86039   8.631  10.088   2.987
19631W        W86040  20.224  43.932  12.926
19632W        W86041  39.859   6.837   2.466
19633W        W86042   8.571  21.488   0.703
19634W        W86043  18.656  33.853  14.086
19635W        W86044   1.675   2.685  12.959
19636W        W86045  41.344  13.738   3.314
19637W        W86046  13.796  44.985  13.962
19638W        W86047  12.858  21.572  12.812
19639W        W86048  24.155  44.703  10.976
19640W        W86049  30.116  42.633  12.849
19641W        W86050  26.515  36.769  10.729
19642W        W86051   9.349  25.600  10.951
19643W        W86052  40.864  40.430   3.246
19644W        W86053   9.743  25.028  12.908
19645W        W86054  40.321  23.434   1.297
19646W        W86055   2.426  17.982   3.177
19647W        W86056  34.256  19.580  11.832
19648W        W86057  37.554   4.430  14.010
19649W        W86058  13.455   0.478   2.609
19650W        W86059  41.178  25.696   0.291
19651W        W86060  36.632   9.061  13.455
19652W        W86061  13.537  24.178   0.198
19653W        W86062  43.558  35.857   4.065
19654W        W86063  38.941  42.787  14.420
19655W        W86064  32.640  37.724   2.814
19656W        W86065  32.694   6.486   0.429
19657W        W86066  32.542   8.304   3.732
19658W        W86067  10.821  12.976  13.060
19659W        W86068   7.372  43.253   0.810
19660W        W86069  36.397  32.590  12.828
19661W        W86070   0.950  12.285   4.520
19662W        W86071  17.241  36.614  12.374
19663W        W86072  10.255  42.444  12.386
19664W        W86073  23.948  22.387   0.734
19665W        W86074  21.661  10.195   0.699
19666W        W86075  41.936  34.456   1.237
19667W        W86076  18.737   5.141  12.555
19668W        W86077  21.006  38.878   1.362
19669W        W86078   1.469   2.260   3.572
19670W        W86079   5.141  28.664  13.522
19671W        W86080   3.726  25.535   2.711
19672W        W86081  14.001  42.311   0.228
19673W        W86082  31.611  18.676   0.087
19674W        W86083  40.380  32.139   0.439
19675W        W86084  32.950  12.308  12.970
19676W        W86085  34.388  31.401  14.337
19677W        W86086  44.751   7.881  12.561
19678W        W86087  26.416  32.482  14.442
19679W        W86088  34.412  34.613   0.528
19680W        W86089  41.233   9.976   3.651
19681W        W86090  14.859  31.754  12.529
19682W        W86091   2.890  32.843   0.515
19683W        W86092  16.105  30.655   2.871
19684W        W86093   7.296   4.801   1.113
19685W        W86094  30.914  13.266   3.371
19686W        W86095  29.971  13.750   4.637
19687W        W86096  34.304  44.429  11.145
19688W        W86097  15.591  30.481   1.473
19689W        W86098  44.019  11.686  11.871
19690W        W86099  42.554  11.466   2.255
19691W        W86100  19.119  44.193   0.841
19692W        W86101   7.730  43.443   3.872
19693W        W86102  10.155  36.549   2.379
19694W        W86103  14.754   0.566   0.223
19695W        W86104  29.386  23.049  10.721
19696W        W86105  30.572  36.702   2.257
19697W        W86106  17.262  30.583  13.267
19698W        W86107  32.192  14.693  13.786
19699W        W86108  28.175  26.173  10.632
19700W        W86109   8.166  19.874   2.372
19701W        W86110  39.125  33.536   0.970
19702W        W86111  38.448   0.263  10.633
19703W        W86112  12.750  32.671   3.652
19704W        W86113  23.395  19.200  11.918
19705W        W86114  29.368   0.846  11.152
19706W        W86115  32.068  38.076   2.954
19707W        W86116  15.852   8.087   0.749
19708W        W86117  27.747  34.473  12.112
19709W        W86118  13.194   0.474   0.798
19710W        W86119  42.855  39.865  12.084
19711W        W86120  28.911  43.826   4.046
19712W        W86121  21.775   2.734  11.192
19713W        W86122   6.627  36.104  10.687
19714W        W86123   5.654  29.650   2.665
19715W        W86124  39.069  30.321  11.130
19716W        W86125   2.264  30.064  10.572
19717W        W86126  37.687  16.117   4.959
19718W        W86127  20.596  20.732   0.863
19719W        W86128  27.637  29.544   4.550
19720W        W86129   5.507  38.067  13.745
19721W        W86130  34.184   8.278   1.929
19722W        W86131   9.426  21.488   3.330
19723W        W86132  20.730  41.251  11.525
19724W        W86133  42.864  38.031   4.087
19725W        W86134  29.727  44.899   4.067
19726W        W86135  31.589  36.406  12.787
19727W        W86136  18.064  18.569   1.679
19728W        W86137  15.910  16.861  11.890
19729W        W86138   2.399  38.041  12.347
19730W        W86139   2.946  25.955   2.636
19731W        W86140   3.295  27.989  13.537
19732W        W86141  38.035  10.650   3.347
19733W        W86142  25.623  36.890  11.108
19734W        W86143  25.946  32.516  12.891
19735W        W86144  18.074  43.764  12.961
19736W        W86145  29.500  40.908   0.386
19737W        W86146  28.571  14.563  14.326
19738W        W86147  15.780  26.172   0.724
19739W        W86148  25.539  39.581   2.454
19740W        W86149  20.596  39.409   0.791
19741W        W86150  15.653  23.692  12.935
19742W        W86151  35.186  24.201   4.657
19743W        W86152  27.503  10.274  13.519
19744W        W86153  35.380  21.974   3.688
19745W        W86154   3.932  16.556   0.825
19746W        W86155  33.189  38.106  12.575
19747W        W86156  14.159  12.344  10.831
19748W        W86157   3.881  11.596  14.362
19749W        W86158  43.008  25.943   3.532
19750W        W86159   5.717  15.697   4.843
19751W        W86160   0.746  11.931   3.213
19752W        W86161  40.510  19.344  12.800
19753W        W86162  25.336  39.803   3.336
19754W        W86163   0.348  29.476  14.858
19755W        W86164  14.164  38.790   2.128
19756W        W86165  43.407   1.527  13.201
19757W        W86166  19.840  17.931  12.968
19758W        W86167  17.823   1.762  11.996
19759W        W86168  37.091  35.508   4.268
19760W        W86169  39.814  38.436  11.159
19761W        W86170  39.203  20.653   1.222
19762W        W86171   7.922  38.550   3.015
19763W        W86172  11.115   7.616   2.228
19764W        W86173  27.612  29.370   1.759
19765W        W86174  41.147   5.369   4.662
19766W        W86175  13.839  18.207  11.235
19767W        W86176  37.036  38.926   0.390
19768W        W86177  26.561   2.046   1.227
19769W        W86178  16.565  20.241   2.166
19770W        W86179  41.039  20.044  13.972
19771W        W86180   4.691  19.168   1.544
19772W        W86181  18.053  11.885   2.767
19773W        W86182  23.727  17.066  14.745
19774W        W86183   5.703   8.277  14.499
19775W        W86184   1.231  42.840   4.182
19776W        W86185   4.340  15.991   1.962
19777W        W86186  37.761   9.307   4.563
19778W        W86187  13.621   0.059  13.474
19779W        W86188  10.388   6.188  11.577
19780W        W86189  21.419  28.152   3.185
19781W        W86190   7.399  15.636   1.550
19782W        W86191  28.214  39.161  11.951
19783W        W86192  20.319  24.650   1.867
19784W        W86193  36.104  35.370   2.385
19785W        W86194   9.007  32.960   3.588
19786W        W86195  23.164  21.552   1.398
19787W        W86196  27.502  43.972   2.262
19788W        W86197  38.872  19.129  11.469
19789W        W86198  23.654  35.100  14.615
19790W        W86199  17.720  36.830   1.237
19791W        W86200  31.488  15.538  13.627
19792W        W86201   7.776  12.182   0.859
19793W        W86202  13.849  23.686  13.348
19794W        W86203  44.055  34.011   4.108
19795W        W86204  40.309  42.855  13.037
19796W        W86205  38.983  20.785  10.422
19797W        W86206  35.928  29.369   3.360
19798W        W86207  20.820  28.125  12.973
19799W        W86208   7.692  17.788  13.394
19800W        W86209  36.483   0.847   3.389
19801W        W86210  30.381  29.959   1.163
19802W        W86211   0.409  38.015  10.569
19803W        W86212   6.283  11.302   1.840
19804W        W86213   7.812  22.035   1.786
19805W        W86214  14.239  35.062  10.367
19806W        W86215   4.900  30.458   4.474
19807W        W86216   9.939  20.882   0.703
19808W        W86217   6.629   6.882   4.589
19809W        W86218  32.514   7.463  12.115
19810W        W86219  19.213  28.663   0.285
19811W        W86220  35.269  14.111   0.426
19812W        W86221  13.275  39.285  11.607
19813W        W86222  27.034  19.851  13.376
19814W        W86223  12.650  37.886  13.885
19815W        W86224  11.434  13.010  14.065
19816W        W86225  21.406  33.858   4.050
19817W        W86226  22.487  19.722   3.211
19818W        W86227  11.203   7.386   3.124
19819W        W86228  21.846  16.289   2.191
19820W        W86229  23.081  38.604  12.847
19821W        W86230  41.217   2.928   2.712
19822W        W86231  40.979  42.881   0.191
19823W        W86232  12.041  24.239  11.258
19824W        W86233  44.197  18.697   3.039
19825W        W86234  27.481   3.969  14.392
19826W        W86235  35.057   7.303  12.039
19827W        W86236  38.190  43.080  11.619
19828W        W86237  38.635  29.020  13.813
19829W        W86238  44.820  26.670  14.466
19830W        W86239  35.597   9.802   3.907
19831W        W86240   8.618  11.866  11.883
19832W        W86241  23.383  35.434   2.482
19833W        W86242  41.465   2.313  12.387
19834W        W86243  36.028  29.894   3.106
19835W        W86244  12.864  24.092   2.969
19836W        W86245   9.645  15.216  11.547
19837W        W86246   5.942   4.204   2.770
19838W        W86247  35.903  20.644   1.497
19839W        W86248  17.563  41.085  13.576
19840W        W86249  22.140  13.782   2.484
19841W        W86250  24.073  18.315   4.110
19842W        W86251  13.731  40.904   1.579
19843W        W86252  30.716   6.049   0.523
19844W        W86253  29.237  26.225   2.792
19845W        W86254   0.213  26.631   1.853
19846W        W86255  17.755  36.612  11.588
19847W        W86256  10.641  12.917   3.361
19848W        W86257  42.337   1.815   1.286
19849W        W86258  34.000   6.810   3.700
19850W        W86259  22.741  36.959  13.904
19851W        W86260   7.669  18.264  12.596
19852W        W86261  16.116   1.698   0.303
19853W        W86262  21.281  16.958  13.319
19854W        W86263  18.071  39.090  14.458
19855W        W86264  44.714  20.254  12.855
19856W        W86265  42.306   3.150   3.809
19857W        W86266  29.346  21.905   0.276
19858W        W86267  18.739  28.096  11.778
19859W        W86268  31.876  24.974  14.448
19860W        W86269  25.232   1.960  11.115
19861W        W86270  18.235  16.095  12.909
19862W        W86271  20.266   1.283   2.177
19863W        W86272  42.899   9.394  13.173
19864W        W86273  41.881   0.960  14.282
19865W        W86274  23.703  33.396  13.422
19866W        W86275  20.981   6.436   4.212
19867W        W86276  38.120   9.751   2.263
19868W        W86277  42.611  30.389   3.174
19869W        W86278   1.883   3.199   2.654
19870W        W86279  13.849  12.572  13.822
19871W        W86280   7.059  23.964  11.606
19872W        W86281  37.892  23.634  13.421
19873W        W86282  44.467  39.990  14.481
19874W        W86283  30.789  35.228  12.113
19875W        W86284  12.862  15.188   4.274
19876W        W86285  40.423  15.738   4.113
19877W        W86286   0.926   1.494  11.643
19878W        W86287  26.926  35.334   4.472
19879W        W86288   9.239  33.996   2.252
19880W        W86289  27.395  30.872  13.509
19881W        W86290  25.295   6.365  13.511
19882W        W86291  17.084  12.213   1.301
19883W        W86292  37.833  28.712   2.271
19884W        W86293  17.058   8.374   0.014
19885W        W86294  26.124  43.833   2.946
19886W        W86295   6.561  32.132   1.202
19887W        W86296  24.918  26.014   1.333
19888W        W86297  39.340  23.955  12.944
19889W        W86298  21.302  38.085   1.358
19890W        W86299  28.065  43.114  13.086
19891W        W86300   7.997   6.793   4.080
19892W        W86301  43.033  31.187   3.226
19893W        W86302  35.999  36.328   3.744
19894W        W86303  16.583  27.659  14.780
19895W        W86304   6.476  35.452  11.432
19896W        W86305  14.863  12.799   4.130
19897W        W86306  29.389  21.109   1.861
19898W        W86307   3.688  39.461  14.564
19899W        W86308   4.191  24.878   5.509
19900W        W86309  20.348  24.355  12.486
19901W        W86310  31.339   1.046  13.028
19902W        W86311  15.571   4.335  14.853
19903W        W86312  37.885  32.219  14.736
19904W        W86313  41.065   6.100  14.818
19905W        W86314   2.190  28.509   3.722
19906W        W86315  13.206  20.500   3.900
19907W        W86316  31.064  32.529   3.713
19908W        W86317  15.233  44.378  14.647
19909W        W86318  14.123  10.317  12.827
19910W        W86319  20.334  11.795  10.501
19911W        W86320  32.559  14.923   3.327
19912W        W86321  14.029  13.333  10.675
19913W        W86322   7.576  31.688  12.956
19914W        W86323   7.735  25.680  14.573
19915W        W86324   9.140  34.323   0.940
19916W        W86325  23.999  11.825  14.964
19917W        W86326  22.625   6.232  12.018
19918W        W86327  24.253  38.901  10.957
19919W        W86328  41.544  18.188   4.048
19920W        W86329  39.462  23.503   4.095
19921W        W86330  23.441  39.753  11.684
19922W        W86331  27.168  38.507  11.565
19923W        W86332  37.834   4.764   2.708
19924W        W86333  18.645  11.785   0.533
19925W        W86334  14.016  44.351   3.978
19926W        W86335  42.679   3.798   2.374
19927W        W86336  13.191  15.646  11.394
19928W        W86337  20.056  41.096   0.423
19929W        W86338  28.752  40.303   2.272
19930W        W86339  32.974  41.078   3.347
19931W        W86340  17.646  26.134  14.962
19932W        W86341  24.490   2.425  11.052
19933W        W86342  26.635   2.023   5.124
19934W        W86343  30.416   8.157  11.902
19935W        W86344   3.273  16.643   0.430
19936W        W86345   6.650  26.707  12.891
19937W        W86346  18.211  11.172  12.083
19938W        W86347  13.502   1.139   3.196
19939W        W86348  16.211  31.930   2.343
19940W        W86349   9.585  11.813  12.198
19941W        W86350  16.403  12.777  12.232
19942W        W86351   8.937  43.882   2.754
19943W        W86352  27.187  20.455   0.926
19944W        W86353  23.259  10.197  13.204
19945W        W86354  33.875  28.050  13.273
19946W        W86355  14.011  42.368   4.447
19947W        W86356  29.022  36.462  14.140
19948W        W86357  31.171   8.006   0.912
19949W        W86358  43.191  29.599  11.210
19950W        W86359  36.953  37.854   0.021
19951W        W86360  22.526  18.201  11.296
19952W        W86361  32.897   7.759  13.503
19953W        W86362   4.681  20.085  11.363
19954W        W86363  22.225  21.903  12.103
19955W        W86364  41.550  28.754   4.974
19956W        W86365  36.843  12.208   3.121
19957W        W86366  20.558  17.072  13.982
19958W        W86367  28.142  42.874  14.995
19959W        W86368  27.538  18.800  14.529
19960W        W86369  27.286  36.277  14.888
19961W        W86370   5.507  43.402   1.285
19962W        W86371  31.922  19.794  13.785
19963W        W86372  18.563  13.541  10.796
19964W        W86373  33.980  30.657   4.592
19965W        W86374   0.843  34.631   0.889
19966W        W86375   5.992  39.217   1.951
19967W        W86376  23.059  10.423   1.734
19968W        W86377  24.315  29.851  13.373
19969W        W86378  44.900   1.080   4.774
19970W        W86379  25.587  38.137   0.761
19971W        W86380   9.261  33.154  14.888
19972W        W86381   0.283   4.786   3.429
19973W        W86382  33.987  34.629  12.107
19974W        W86383  38.116  20.816  14.837
19975W        W86384  13.295  16.656   4.384
19976W        W86385   1.801  19.073   4.467
19977W        W86386  27.060  25.888   2.243
19978W        W86387  20.726  28.684   1.611
19979W        W86388  40.364  32.560  14.652
19980W        W86389  20.115  35.830   0.868
19981W        W86390   2.912   1.889   2.828
19982W        W86391  18.266  30.900   0.267
19983W        W86392  28.510   6.325  10.412
19984W        W86393  29.267  12.897  13.932
19985W        W86394  40.547  21.246   2.271
19986W        W86395  38.611  40.402   0.933
19987W        W86396  43.614  17.744  12.057
19988W        W86397  44.495  36.457  12.945
19989W        W86398  26.227   1.008  11.412
19990W        W86399  27.070  42.334  14.458
19991W        W86400  17.232  14.217   3.127
19992W        W86401  39.948   8.839  14.426
19993W        W86402  43.372  34.425  13.373
19994W        W86403   8.926  37.339   2.369
19995W        W86404   7.432  30.847   2.279
19996W        W86405  12.312  26.956  11.998
19997W        W86406  29.919  26.483   1.245
19998W        W86407  21.553  14.051   2.649
19999W        W86408  21.224  17.159   2.654
20000W        W86409  30.201  32.144  11.248
20001W        W86410  25.464  27.873   2.453
20002W        W86411  39.293   8.465  11.561
20003W        W86412  39.366   5.735   2.693
20004W        W86413  34.055  35.824  12.792
20005W        W86414   2.987  15.893  11.987
20006W        W86415   5.658   1.601  13.988
20007W        W86416  24.550   8.501   9.494
20008W        W86417   3.299  19.304   4.384
20009W        W86418  20.615  44.078  14.432
20010W        W86419   3.644   8.231  12.017
20011W        W86420  18.021  31.199  13.436
20012W        W86421  12.594  14.071  14.453
20013W        W86422  19.516  29.348   0.776
20014W        W86423  21.758  41.363   2.891
20015W        W86424  35.262  40.384  14.963
20016W        W86425   2.702  27.986   4.105
20017W        W86426   3.559  14.819   5.047
20018W        W86427  16.770  27.188   2.427
20019W        W86428  13.660  29.526   4.547
20020W        W86429   5.652  25.029   0.621
20021W        W86430  14.875  10.614   0.221
20022W        W86431  20.676  34.389  12.378
20023W        W86432  21.271   7.509  11.601
20024W        W86433  33.529  35.903   0.036
20025W        W86434   2.491   6.280   0.812
20026W        W86435  29.366  40.306  14.550
20027W        W86436   7.358  24.685   2.133
20028W        W86437  41.596  12.688  12.086
20029W        W86438  16.143  42.531   3.133
20030W        W86439  13.185  28.187   3.653
20031W        W86440  40.950  19.666   3.768
20032W        W86441  41.333  12.208   3.662
20033W        W86442  36.564   9.824  11.194
20034W        W86443   2.745  19.162   0.445
20035W        W86444   4.192  36.924   2.638
20036W        W86445  34.538  37.160   4.544
20037W        W86446  34.523  32.516   4.392
20038W        W86447  33.892  38.772  12.442
20039W        W86448  28.427   2.643   2.821
20040W        W86449  25.517  14.233  12.844
20041W        W86450   5.873  38.344   0.680
20042W        W86451  39.175  27.197   1.157
20043W        W86452  14.538  17.566   4.773
20044W        W86453  35.591  22.464   2.773
20045W        W86454  12.277  22.887   2.310
20046W        W86455  26.981  24.196  12.902
20047W        W86456  19.884   1.184  12.364
20048W        W86457  43.260   6.843   4.491
20049W        W86458  13.176  14.751  11.762
20050W        W86459  21.225  26.647   2.672
20051W        W86460  14.068  29.114  11.123
20052W        W86461  11.370  39.917  14.417
20053W        W86462  36.650  44.037   1.158
20054W        W86463  43.236  27.861  12.372
20055W        W86464  13.552  35.078   4.376
20056W        W86465  32.862  35.330   0.847
20057W        W86466  11.279  29.942   1.433
20058W        W86467   4.098   3.049  14.143
20059W        W86468  28.633  35.387  12.462
20060W        W86469  20.627   6.252  12.891
20061W        W86470   5.251  14.189   5.172
20062W        W86471  13.662  43.129  11.212
20063W        W86472  18.266  24.673   0.385
20064W        W86473  39.499   3.706   1.805
20065W        W86474   3.946   6.712  14.126
20066W        W86475  25.046  35.306  10.743
20067W        W86476  10.880  29.606  13.354
20068W        W86477  13.049  11.291   3.035
20069W        W86478  26.386  31.424  11.162
20070W        W86479   1.360   0.475  12.615
20071W        W86480  21.505  42.163   3.644
20072W        W86481  13.187  29.634   2.002
20073W        W86482  27.178  18.781   1.880
20074W        W86483  27.516  24.182  11.631
20075W        W86484   1.176  17.293   2.968
20076W        W86485  27.670  11.773  11.417
20077W        W86486  11.040  42.602   4.799
20078W        W86487  22.606  24.656  14.061
20079W        W86488  20.333  42.260   4.696
20080W        W86489  21.202  41.413  10.241
20081W        W86490  17.741   2.124   0.368
20082W        W86491  24.037  34.392   4.561
20083W        W86492  15.866   8.716  13.599
20084W        W86493   6.354  26.328  13.500
20085W        W86494  30.541  11.054   0.235
20086W        W86495  13.177  33.926  14.177
20087W        W86496  39.261  11.535  11.556
20088W        W86497   1.507  13.740  11.881
20089W        W86498   2.692  32.058   3.185
20090W        W86499   8.957  25.234  12.643
20091W        W86500  37.332  42.049   0.491
20092W        W86501  33.504   9.591   0.333
20093W        W86502   7.496  16.742   4.860
20094W        W86503  12.661  26.617   2.130
20095W        W86504   5.245  32.902  11.017
20096W        W86505  26.531  12.285   1.472
20097W        W86506  42.072  29.122  11.241
20098W        W86507   6.320  32.140  14.273
20099W        W86508  27.663  25.997   0.803
20100W        W86509  33.342  24.287  12.014
20101W        W86510  28.756   2.402  11.994
20102W        W86511  32.125  30.923  11.578
20103W        W86512   4.307   7.898  13.040
20104W        W86513  41.477  13.573   1.415
20105W        W86514   2.920  42.927  14.495
20106W        W86515  15.350  29.572   3.227
20107W        W86516  28.478  11.176   3.308
20108W        W86517  24.554  31.431   2.622
20109W        W86518  32.561   3.157   2.650
20110W        W86519  25.052  26.977   1.400
20111W        W86520  10.709  25.224  12.652
20112W        W86521  36.395  18.491   5.029
20113W        W86522  21.647  18.640  12.482
20114W        W86523  36.070  10.867  10.671
20115W        W86524  35.460  13.886   1.434
20116W        W86525  37.990  36.769   2.239
20117W        W86526  24.934  26.152   0.280
20118W        W86527  24.973  37.468  12.136
20119W        W86528   3.967   3.341  10.806
20120W        W86529   1.555  30.845  13.099
20121W        W86530  44.955  25.056   1.481
20122W        W86531  19.321  15.283   1.630
20123W        W86532  38.383  17.640  12.213
20124W        W86533   8.915  39.890   4.256
20125W        W86534  15.866  35.796   4.213
20126W        W86535  41.222  26.223   3.735
20127W        W86536  36.355  43.743   0.286
20128W        W86537  41.527  18.643  13.414
20129W        W86538  24.592  42.430   4.295
20130W        W86539   6.915  18.293  14.849
20131W        W86540  18.766  29.120  12.650
20132W        W86541  31.182  33.016   3.802
20133W        W86542  43.424  22.400  14.922
20134W        W86543   8.850  12.234  13.406
20135W        W86544  40.970  29.162   1.476
20136W        W86545  43.533  15.527  13.213
20137W        W86546   4.826   0.846  12.410
20138W        W86547  41.300  17.725  14.489
20139W        W86548   5.407  18.751   3.131
20140W        W86549  39.438  40.610  14.477
20141W        W86550   7.401  33.412  14.686
20142W        W86551  20.134  32.170   4.905
20143W        W86552  33.485  40.546   2.421
20144W        W86553  12.825  26.126  12.590
20145W        W86554   9.225   3.068  13.795
20146W        W86555   1.916  17.575   2.739
20147W        W86556  41.088   3.378  14.679
20148W        W86557   2.264  32.068  11.276
20149W        W86558  32.460  27.963  10.991
20150W        W86559  41.889  40.603  12.077
20151W        W86560  30.846  22.608   0.921
20152W        W86561  26.940  41.550   4.124
20153W        W86562  22.485  42.835   2.774
20154W        W86563   1.596  18.518  11.574
20155W        W86564  36.409   0.803   1.943
20156W        W86565   7.319  44.417   0.398
20157W        W86566   5.676  39.758   1.819
20158W        W86567  26.494  22.610   0.685
20159W        W86568   5.327  34.189   0.467
20160W        W86569  32.834  20.782   4.810
20161W        W86570  28.388  41.918   3.181
20162W        W86571  16.359  32.775   3.397
20163W        W86572   3.706  19.827   4.515
20164W        W86573   2.195  21.356  11.084
20165W        W86574  34.216  29.632  12.428
20166W        W86575  30.747  38.948  11.535
20167W        W86576  15.034  24.666  11.291
20168W        W86577  38.486  38.564  10.896
20169W        W86578  34.090   5.800   3.100
20170W        W86579   4.670   8.281  12.131
20171W        W86580  33.114  30.416   3.177
20172W        W86581  29.866   0.994  11.057
20173W        W86582   4.529  12.727  13.529
20174W        W86583  41.449  35.074   1.450
20175W        W86584  42.728   8.833   1.752
20176W        W86585   8.473  44.322  12.492
20177W        W86586  22.187  24.578   1.375
20178W        W86587  14.620  35.373   1.926
20179W        W86588  25.980  27.860   3.374
20180W        W86589  34.319   4.432  14.896
20181W        W86590   8.912  26.539  10.743
20182W        W86591  32.669  42.546   2.580
20183W        W86592  37.043   6.982   4.117
20184W        W86593   6.830  11.544  11.714
20185W        W86594  42.235   4.911   3.283
20186W        W86595  42.437  37.606   4.234
20187W        W86596  39.639   0.437  12.469
20188W        W86597  11.039  10.389   0.910
20189W        W86598  39.106  19.432  14.510
20190W        W86599  12.463  30.612   1.300
20191W        W86600   9.204   1.915   1.818
20192W        W86601  15.057   7.764  14.459
20193W        W86602  41.985  17.638  10.914
20194W        W86603   2.512  38.037  14.327
20195W        W86604  24.506  42.354  10.827
20196W        W86605  20.578  19.502   3.435
20197W        W86606   4.036  18.052  10.997
20198W        W86607  39.774  27.899  11.087
20199W        W86608  31.431  17.427  12.795
20200W        W86609   1.691  16.670  13.401
20201W        W86610   4.702  14.820   1.993
20202W        W86611  27.298  31.138  14.373
20203W        W86612  19.999  33.752   4.138
20204W        W86613  42.373  11.439   3.121
20205W        W86614   0.872  31.077   0.946
20206W        W86615  29.604  16.573  13.306
20207W        W86616  22.567  17.850  13.484
20208W        W86617  14.250  40.193  12.623
20209W        W86618  16.190  30.092   1.784
20210W        W86619   7.434   8.215  10.960
20211W        W86620  26.751   1.998   3.350
20212W        W86621  44.842  18.031   1.194
20213W        W86622   9.288  27.270   4.126
20214W        W86623   9.200  33.157  13.633
20215W        W86624  11.151  39.911  10.544
20216W        W86625  32.090  10.125  14.861
20217W        W86626  39.453   3.730   2.707
20218W        W86627  16.137  17.235  14.535
20219W        W86628  13.728  21.302  11.907
20220W        W86629  42.896  16.250   0.294
20221W        W86630  30.622  33.172  12.022
20222W        W86631  19.028  35.144  11.121
20223W        W86632  17.995   2.898  11.546
20224W        W86633   9.358  11.676   0.159
20225W        W86634  14.690  28.416   2.508
20226W        W86635  44.207   6.627  12.338
20227W        W86636  37.843  38.924  14.848
20228W        W86637  16.727  29.191   3.700
20229W        W86638  19.501  20.889   2.812
20230W        W86639  28.498  40.194  11.986
20231W        W86640   8.733  41.611  13.252
20232W        W86641  37.495  43.577   4.112
20233W        W86642  29.173   7.988  14.577
20234W        W86643  23.243   6.015   1.670
20235W        W86644   0.569   8.404  12.347
20236W        W86645  32.806   6.330  14.419
20237W        W86646  26.975  15.030   3.622
20238W        W86647  22.637   7.736  11.716
20239W        W86648  14.840  44.543   2.338
20240W        W86649  16.166  10.033  13.733
20241W        W86650   6.205  29.450  10.737
20242W        W86651  17.511  33.041  11.121
20243W        W86652  19.619  40.444  14.467
20244W        W86653  44.956  20.283  11.613
20245W        W86654  22.236  18.028  14.533
20246W        W86655  42.005  12.681   1.361
20247W        W86656  18.156  43.705  11.721
20248W        W86657  22.030   3.726   2.188
20249W        W86658  19.249  14.650  13.298
20250W        W86659  17.236  40.579  12.870
20251W        W86660  36.672   6.061   4.082
20252W        W86661  15.895  22.489  13.354
20253W        W86662  21.081  26.776   2.186
20254W        W86663   0.522  36.448   1.937
20255W        W86664  16.876  10.178  12.443
20256W        W86665  25.484  10.282   3.815
20257W        W86666   1.571   5.190   2.335
20258W        W86667  18.205  35.140  13.818
20259W        W86668  21.193  37.202  10.849
20260W        W86669   4.907  38.501  13.378
20261W        W86670  15.537  33.996  14.778
20262W        W86671  31.281  42.820  13.227
20263W        W86672   2.009   2.733   0.905
20264W        W86673  42.787  35.557   1.540
20265W        W86674  38.457  21.725  14.564
20266W        W86675   5.369  31.418   2.402
20267W        W86676  27.679  40.595  11.193
20268W        W86677  26.636  42.258  12.277
20269W        W86678   4.669   0.890  11.604
20270W        W86679   1.437  44.011   4.156
20271W        W86680   8.695  40.265  12.900
20272W        W86681  32.169   1.293   4.924
20273W        W86682   8.595  22.052   0.200
20274W        W86683  40.896  32.594  11.227
20275W        W86684   0.907  44.011  10.787
20276W        W86685  31.875   5.243   2.536
20277W        W86686  32.384  42.279   3.290
20278W        W86687  40.454  26.258  12.111
20279W        W86688  15.041  39.944  10.645
20280W        W86689  33.100   5.881  11.949
20281W        W86690  14.595   1.432   1.175
20282W        W86691  11.809  30.111   0.667
20283W        W86692  36.099  43.489   2.405
20284W        W86693   8.383  44.405  13.925
20285W        W86694  24.945  19.614  12.403
20286W        W86695  42.254  28.419  14.063
20287W        W86696  22.044  24.780   3.171
20288W        W86697  24.777  26.944   2.229
20289W        W86698  37.100  31.210  11.725
20290W        W86699  12.636   4.580   0.346
20291W        W86700  42.429  36.571   0.843
20292W        W86701   4.240   6.346   2.567
20293W        W86702   9.864  34.572   2.432
20294W        W86703  27.567  37.393   1.848
20295W        W86704   6.167  44.777   0.660
20296W        W86705  27.521  33.530   1.621
20297W        W86706  40.018  14.330   3.804
20298W        W86707  10.093  34.317  11.581
20299W        W86708  42.323  40.820   0.895
20300W        W86709  10.659  26.631  12.482
20301W        W86710  23.391  29.795   4.050
20302W        W86711  24.070   4.225   2.826
20303W        W86712  26.131  10.685  12.032
20304W        W86713  35.170  14.239   2.205
20305W        W86714  27.715   2.407   1.705
20306W        W86715   0.306  17.413   0.732
20307W        W86716  23.873  33.069  12.608
20308W        W86717  11.464  31.104  12.435
20309W        W86718  41.085  37.927   3.688
20310W        W86719  35.120   5.401   2.703
20311W        W86720  11.176  22.043  12.032
20312W        W86721  33.456   6.326   0.081
20313W        W86722  23.511  26.572   4.768
20314W        W86723   9.401  15.443  13.876
20315W        W86724  42.932  31.585   1.202
20316W        W86725  18.603  33.007  14.100
20317W        W86726   1.811  31.596   2.612
20318W        W86727   8.690  41.815   1.463
20319W        W86728  26.674  31.803   0.576
20320W        W86729  27.523  18.812  11.105
20321W        W86730  31.550  40.793  12.979
20322W        W86731  25.946  25.052   3.195
20323W        W86732  39.553  24.058  13.450
20324W        W86733  20.275  21.180   0.380
20325W        W86734   2.947  33.848   0.434
20326W        W86735  41.432  19.049  14.124
20327W        W86736  33.058   2.362   2.221
20328W        W86737   9.931  25.560   3.325
20329W        W86738  13.731  23.187   2.823
20330W        W86739  29.083  38.372   1.365
20331W        W86740  18.087   5.915   4.633
20332W        W86741  27.216  25.678   0.449
20333W        W86742  10.821  37.396  12.115
20334W        W86743  12.289  10.589  14.741
20335W        W86744   8.445  31.371   4.083
20336W        W86745   0.518  16.477  11.599
20337W        W86746  16.324   2.704  10.522
20338W        W86747  16.757  27.251   3.416
20339W        W86748   5.704   9.700  14.910
20340W        W86749   1.780  39.587  10.749
20341W        W86750  16.752  30.009  10.930
20342W        W86751  18.820  10.234   3.732
20343W        W86752  14.976  26.513  12.018
20344W        W86753  41.583  16.822  12.935
20345W        W86754  12.570  29.892   0.227
20346W        W86755   7.190  32.535   3.197
20347W        W86756  11.634  14.604   0.373
20348W        W86757   7.973  23.114   4.106
20349W        W86758  31.086  41.974   4.494
20350W        W86759  14.146   7.934  14.509
20351W        W86760  28.909  30.844  13.784
20352W        W86761  21.532  39.799  10.489
20353W        W86762  13.255  21.972  12.459
20354W        W86763  42.740   7.790  11.055
20355W        W86764  40.593  29.194   0.356
20356W        W86765  20.318  34.414  14.505
20357W        W86766  11.536  41.460   0.926
20358W        W86767  42.930  11.949   3.772
20359W        W86768  42.507  18.530   4.534
20360W        W86769  27.600  38.926   1.826
20361W        W86770   5.525  13.056   3.687
20362W        W86771   4.818  15.109  14.839
20363W        W86772   1.690  13.988  11.457
20364W        W86773  30.006  11.360  11.532
20365W        W86774  28.353  30.597  10.487
20366W        W86775  14.846  44.987  14.956
20367W        W86776  39.519  28.465   3.669
20368W        W86777  14.809  34.760  12.164
20369W        W86778  34.023   5.012  12.989
20370W        W86779  18.798  39.064   0.769
20371W        W86780  40.565  43.503  10.740
20372W        W86781   5.262  10.262   1.523
20373W        W86782  21.952  18.023   3.890
20374W        W86783  21.220  20.310   4.112
20375W        W86784  40.064   8.181   4.306
20376W        W86785  44.626  37.110   3.322
20377W        W86786  30.309   2.405   3.190
20378W        W86787   5.745  35.365  13.431
20379W        W86788  29.903   3.695   0.334
20380W        W86789   1.007  10.223   4.667
20381W        W86790  22.761  25.450   1.494
20382W        W86791  31.825  17.763  14.519
20383W        W86792  25.586  34.097  10.491
20384W        W86793  20.719  28.899   0.441
20385W        W86794   5.848  27.964  12.915
20386W        W86795   8.135  14.038  11.698
20387W        W86796  13.114  25.121  11.119
20388W        W86797  12.336  37.085  11.852
20389W        W86798   7.814  22.786  14.987
20390W        W86799  12.344  26.616   1.710
20391W        W86800   6.628   3.099   3.447
20392W        W86801  10.307  30.459   4.548
20393W        W86802  37.911  13.096   1.031
20394W        W86803  30.628   2.264  10.259
20395W        W86804  43.932  29.875  14.018
20396W        W86805  43.757  41.398  13.392
20397W        W86806  22.477   3.411  12.397
20398W        W86807  29.995  17.844   3.386
20399W        W86808  18.484  39.552   1.920
20400W        W86809  40.992  15.389  10.712
20401W        W86810  15.110  39.512  14.582
20402W        W86811  26.717  36.640  11.972
20403W        W86812   1.200  17.075  11.473
20404W        W86813   2.885  25.097   2.405
20405W        W86814  25.143   4.887  10.197
20406W        W86815   4.995   5.237  10.335
20407W        W86816  38.098  14.291  14.915
20408W        W86817  20.706  41.065   2.488
20409W        W86818   1.709  38.753  14.830
20410W        W86819  28.117   6.257  11.463
20411W        W86820  42.992  39.479   1.898
20412W        W86821  36.407  37.611   2.226
20413W        W86822  38.407  31.982  11.815
20414W        W86823   6.018  10.763   2.702
20415W        W86824  37.627   1.646   2.836
20416W        W86825  44.727  38.034  13.826
20417W        W86826  37.050  23.935   1.955
20418W        W86827  26.060  28.490   0.479
20419W        W86828   6.518   2.798  14.005
20420W        W86829  42.879  11.296  10.793
20421W        W86830  39.886  36.058   4.220
20422W        W86831  17.164  11.393   0.794
20423W        W86832   1.795  27.443   0.764
20424W        W86833  43.883  28.450  10.653
20425W        W86834  19.995   4.448   1.278
20426W        W86835  35.953   3.930  11.851
20427W        W86836   8.150   0.459   5.210
20428W        W86837  41.473  13.271   0.938
20429W        W86838  29.668   4.949   1.335
20430W        W86839  44.425   0.288   3.855
20431W        W86840  31.135   1.817   2.199
20432W        W86841  36.458  11.186   0.174
20433W        W86842   4.819  44.560  12.993
20434W        W86843  41.118  26.157   3.190
20435W        W86844  24.014  15.730  10.678
20436W        W86845   1.746  38.221  14.709
20437W        W86846   2.118  13.830  14.759
20438W        W86847   3.678  42.915  11.395
20439W        W86848  21.140  13.576   0.664
20440W        W86849  34.179  30.867   1.412
20441W        W86850  16.317  19.875   0.874
20442W        W86851   9.445   1.529   2.340
20443W        W86852   5.664   8.706  14.811
20444W        W86853  38.823  37.798  13.975
20445W        W86854  30.536  30.073   4.858
20446W        W86855  44.386  27.634  14.059
20447W        W86856  16.585  26.213   0.422
20448W        W86857   2.548  30.986   3.605
20449W        W86858   3.983  32.097  12.609
20450W        W86859  40.409  29.703   0.401
20451W        W86860   0.216  25.693   4.124
20452W        W86861  17.996  12.692   3.587
20453W        W86862  41.494   5.207  12.964
20454W        W86863  34.993  28.152   3.746
20455W        W86864  16.293   5.834   1.204
20456W        W86865  30.009  28.651   3.392
20457W        W86866   0.784  37.789  14.821
20458W        W86867   2.349  31.056   1.902
20459W        W86868  24.513  23.264  14.613
20460W        W86869  10.292  23.981   1.539
20461W        W86870  29.130  27.970   4.918
20462W        W86871  17.598  31.455   0.940
20463W        W86872   9.314  28.612   0.284
20464W        W86873  34.958  22.706   1.776
20465W        W86874  41.528  38.795   3.272
20466W        W86875   5.236   7.796   2.784
20467W        W86876   9.919  21.000   4.113
20468W        W86877  42.784  30.097  12.602
20469W        W86878  42.496  11.446   4.098
20470W        W86879  13.244  44.332   2.229
20471W        W86880  10.984   3.324  11.914
20472W        W86881   7.306  11.178   3.182
20473W        W86882  10.555   1.009  14.781
20474W        W86883  35.573  15.178   0.340
20475W        W86884  15.612  24.391  12.422
20476W        W86885  30.379  36.638  11.304
20477W        W86886  13.773   9.669   4.569
20478W        W86887  30.419  25.578   2.231
20479W        W86888  31.410   0.744  12.602
20480W        W86889  10.334  25.376   1.240
20481W        W86890   7.838  44.774   3.159
20482W        W86891  41.849  37.924  13.055
20483W        W86892  14.892   1.333  12.298
20484W        W86893  21.546  34.831  14.797
20485W        W86894  32.816   4.703   2.806
20486W        W86895  18.696  21.410   2.788
20487W        W86896  32.998   1.046  10.748
20488W        W86897  13.289   4.483  12.383
20489W        W86898  29.655  23.752   4.763
20490W        W86899  42.016  32.815  14.043
20491W        W86900   7.801  20.982   0.516
20492W        W86901  42.961   2.726  12.943
20493W        W86902  37.052  24.682  13.424
20494W        W86903  44.436  20.244   1.383
20495W        W86904  22.236  40.632  11.800
20496W        W86905  40.974  18.672  11.617
20497W        W86906  36.575  44.412   1.519
20498W        W86907  18.749  18.679  11.174
20499W        W86908  27.694  44.917  11.784
20500W        W86909   4.309   0.841  14.878
20501W        W86910   3.930  26.114  10.558
20502W        W86911  24.297  17.011   0.639
20503W        W86912  12.575  20.126   2.336
20504W        W86913  42.228  26.590  11.839
20505W        W86914  25.184  16.195  13.817
20506W        W86915   7.130  25.887   1.901
20507W        W86916   0.445   3.314   4.595
20508W        W86917  24.605   4.692   3.818
20509W        W86918  33.670  19.215   3.078
20510W        W86919  18.773  29.485   2.624
20511W        W86920  10.735  19.754   2.771
20512W        W86921   7.279   8.375   4.418
20513W        W86922  35.032  22.642  14.442
20514W        W86923  30.863  42.221  10.933
20515W        W86924  28.583   4.781   2.984
20516W        W86925  39.073  19.247  10.493
20517W        W86926  39.071  39.572   3.714
20518W        W86927  43.619  20.673   0.789
20519W        W86928   2.536  19.785  12.006
20520W        W86929   2.016  37.890  13.047
20521W        W86930  34.887  26.171  10.549
20522W        W86931  11.905  44.187   1.391
20523W        W86932  11.700  44.247   5.036
20524W        W86933  12.194  20.265   0.295
20525W        W86934  43.839  21.618  14.417
20526W        W86935  33.487  37.966   4.134
20527W        W86936  41.545  37.359   4.851
20528W        W86937  33.720  22.817  13.397
20529W        W86938  24.668  44.297  14.963
20530W        W86939  39.195  28.462   3.275
20531W        W86940  15.302  25.637  12.066
20532W        W86941  15.619  20.723   0.491
20533W        W86942  12.214  23.297   4.042
20534W        W86943  23.943  20.155   0.350
20535W        W86944  39.414  15.785   1.846
20536W        W86945   4.225  30.465  11.967
20537W        W86946  37.517  22.311   1.448
20538W        W86947  36.065   3.175   1.825
20539W        W86948   0.972  12.542   4.989
20540W        W86949   8.310  43.884  13.334
20541W        W86950   6.406  29.436  11.682
20542W        W86951  12.326  18.601   4.730
20543W        W86952  12.830  31.973  10.558
20544W        W86953  33.701  24.083   4.500
20545W        W86954  40.424  31.419  11.618
20546W        W86955  21.057  38.904   4.598
20547W        W86956   3.768  27.408   0.242
20548W        W86957  29.058  38.222  13.547
20549W        W86958  37.081  21.293  11.714
20550W        W86959  34.836  30.951   0.547
20551W        W86960  28.591  24.213   0.092
20552W        W86961  31.642  24.543   2.460
20553W        W86962  18.160   5.372   2.415
20554W        W86963  16.205   4.180  13.478
20555W        W86964  41.879  40.421   4.360
20556W        W86965  11.314  35.930  14.411
20557W        W86966  11.286  22.791  11.515
20558W        W86967   1.401  29.237   3.223
20559W        W86968  36.511  35.602   2.669
20560W        W86969   3.330  34.617  12.473
20561W        W86970   1.915   4.727   3.601
20562W        W86971  43.722  32.224  14.446
20563W        W86972  28.387   5.826  10.543
20564W        W86973  19.836   8.175  12.039
20565W        W86974  16.235   1.190   0.314
20566W        W86975  29.956   8.323  12.293
20567W        W86976  14.080  15.222  10.954
20568W        W86977  44.811  41.260   4.130
20569W        W86978  18.140  37.838   0.161
20570W        W86979  36.865  20.755   2.761
20571W        W86980  19.682  18.264   2.305
20572W        W86981   5.682  35.877   3.976
20573W        W86982  34.170   5.886   4.097
20574W        W86983  26.242   7.795  11.960
20575W        W86984   0.187  18.631  13.889
20576W        W86985   2.968  14.231   4.188
20577W        W86986  44.273   3.323  11.548
20578W        W86987   2.300   4.366   3.359
20579W        W86988  40.299  14.851   4.624
20580W        W86989  17.112   5.791   1.748
20581W        W86990  12.157  21.740   4.730
20582W        W86991  24.017  12.287  14.024
20583W        W86992  26.645  14.351   3.061
20584W        W86993  16.295  18.027  14.986
20585W        W86994   9.355  13.829  10.686
20586W        W86995  18.097   9.216   2.828
20587W        W86996  12.944  37.862   9.950
20588W        W86997   9.265   3.196  12.893
20589W        W86998  43.982  38.145   4.670
20590W        W86999  33.649   1.179  10.602
20591W        W87000  33.598  15.836  14.455
20592W        W87001  43.892  16.135  12.900
20593W        W87002  31.046   8.957   5.117
20594W        W87003  41.543  11.881  14.297
20595W        W87004  30.898  13.459  12.261
20596W        W87005  34.635  39.766   3.694
20597W        W87006  33.517  32.808  10.701
20598W        W87007  22.107  24.246   2.360
20599W        W87008  31.728  23.968  12.608
20600W        W87009   5.226  39.148   3.394
20601W        W87010  18.421   5.316  10.964
20602W        W87011   9.076  14.811   2.586
20603W        W87012  27.083  11.131  10.347
20604W        W87013  24.662   0.016   1.432
20605W        W87014  20.132  23.471   0.311
20606W        W87015  33.077   6.097   4.660
20607W        W87016  15.842  31.088   4.520
20608W        W87017  39.864   9.336   0.797
20609W        W87018  41.887  40.738  13.399
20610W        W87019  12.455   0.852  14.240
20611W        W87020  24.591  18.551   2.183
20612W        W87021  14.894  30.254   0.370
20613W        W87022   0.749  10.645  11.536
20614W        W87023  27.656   0.476   1.974
20615W        W87024  32.624  28.025  13.915
20616W        W87025   3.450  17.546   4.697
20617W        W87026  32.183  40.877  14.394
20618W        W87027  12.006  17.976  12.487
20619W        W87028  20.675   2.249   2.710
20620W        W87029   3.409  32.475   1.584
20621W        W87030   8.881  38.777   1.710
20622W        W87031   6.238  36.956   1.636
20623W        W87032  30.930  32.591  10.900
20624W        W87033  31.531  26.189   0.238
20625W        W87034   0.598  22.035  13.425
20626W        W87035   9.291  23.606  11.401
20627W        W87036   4.428  43.261   0.809
20628W        W87037  42.333  40.344  11.946
20629W        W87038  36.879  21.090   3.261
20630W        W87039   6.558  18.703  11.712
20631W        W87040  24.706  41.554   1.891
20632W        W87041   9.425  39.870   2.429
20633W        W87042  43.805  26.862  12.845
20634W        W87043  10.820  25.978  14.899
20635W        W87044  41.803  31.313   2.346
20636W        W87045  38.888  13.915  10.262
20637W        W87046   8.975  28.985   3.795
20638W        W87047  43.039  35.528  12.882
20639W        W87048  15.704  30.259  14.733
20640W        W87049  22.282  17.679  13.879
20641W        W87050  10.685  24.998   0.821
20642W        W87051  19.903  13.334   0.346
20643W        W87052   0.411  26.374   1.447
20644W        W87053   1.820  25.642  10.446
20645W        W87054   2.776  14.313   0.191
20646W        W87055  15.710   6.729   3.998
20647W        W87056   3.828  43.936   2.679
20648W        W87057  26.684  29.456  10.715
20649W        W87058  22.702  36.053   3.571
20650W        W87059  17.133  22.845   1.281
20651W        W87060   4.748  33.533  11.351
20652W        W87061  22.946  36.046  11.999
20653W        W87062   2.395  23.569  11.609
20654W        W87063   6.811  18.123   0.331
20655W        W87064   4.495  37.446   0.311
20656W        W87065  16.724  22.503   2.630
20657W        W87066   2.913   0.780   4.535
20658W        W87067  18.232  27.164  13.222
20659W        W87068  41.580  41.453  13.616
20660W        W87069   8.867  18.996  14.247
20661W        W87070  18.524  28.682  14.565
20662W        W87071  13.622  36.594  13.915
20663W        W87072  38.793  26.893  13.099
20664W        W87073  24.590  18.282   4.120
20665W        W87074  11.878  11.952  11.198
20666W        W87075  36.862  34.408   3.167
20667W        W87076  21.758   8.467  14.988
20668W        W87077   8.034  15.272  12.080
20669W        W87078  22.301  32.581   4.671
20670W        W87079  12.692   9.853   2.164
20671W        W87080  25.190  16.678  14.683
20672W        W87081  16.530  12.230  14.423
20673W        W87082  10.110   1.763  10.760
20674W        W87083  41.368  22.085   1.784
20675W        W87084  39.367  21.900   0.483
20676W        W87085  18.340  18.111   1.679
20677W        W87086  42.306  43.619   2.387
20678W        W87087  16.694  35.488  10.462
20679W        W87088  36.011  33.184  14.674
20680W        W87089  38.687  30.478   9.928
20681W        W87090  24.910  40.509   5.134
20682W        W87091   2.328  43.771  14.273
20683W        W87092  10.648  23.729  14.453
20684W        W87093   0.182   4.834  11.150
20685W        W87094   7.349  19.668   0.100
20686W        W87095  37.905  35.255  14.319
20687W        W87096  37.323  13.665  12.025
20688W        W87097  25.695  23.726  12.844
20689W        W87098  40.034  17.025  13.838
20690W        W87099  21.229  13.687   2.845
20691W        W87100  39.910  27.025  14.015
20692W        W87101  13.572   8.878   0.841
20693W        W87102  17.163   5.828  13.019
20694W        W87103  28.370   1.001  12.849
20695W        W87104  26.211   7.388   4.581
20696W        W87105  44.563  11.062  14.857
20697W        W87106  40.779  15.642  13.966
20698W        W87107  20.303  15.070  14.399
20699W        W87108  39.314   2.868  14.074
20700W        W87109  24.987  39.858   2.786
20701W        W87110  37.985  21.272  14.025
20702W        W87111  14.724  30.416  12.085
20703W        W87112   6.357  27.927   2.638
20704W        W87113  29.518   3.736  14.977
20705W        W87114  28.109  18.753   0.162
20706W        W87115  43.770   9.644   3.690
20707W        W87116  34.377  32.604   1.254
20708W        W87117  24.691  37.196   2.256
20709W        W87118  19.483   9.901  12.064
20710W        W87119  32.151  16.310   1.736
20711W        W87120   4.299  40.263   3.698
20712W        W87121  34.887  13.852  14.543
20713W        W87122  12.417  18.662  14.799
20714W        W87123  28.576  22.495   3.613
20715W        W87124  31.395   1.178  14.593
20716W        W87125  28.425  18.826  13.294
20717W        W87126  37.117  19.982  13.932
20718W        W87127  21.560  34.863   4.228
20719W        W87128  33.634  34.632   2.825
20720W        W87129   3.063  43.973  14.784
20721W        W87130   3.078  25.656   4.432
20722W        W87131  35.541  17.558  14.855
20723W        W87132  43.887  28.880  13.809
20724W        W87133  30.950  22.093  13.017
20725W        W87134  25.054  42.330   1.043
20726W        W87135  40.383  23.439  13.356
20727W        W87136  16.785  35.398  13.139
20728W        W87137  28.724  28.999   4.235
20729W        W87138  23.727  28.486   2.144
20730W        W87139  24.593  20.570   9.688
20731W        W87140  39.794   3.789   0.958
20732W        W87141  43.660  42.399  11.146
20733W        W87142  39.045  33.460  12.899
20734W        W87143  43.263  18.198  11.134
20735W        W87144  19.154   9.743   0.420
20736W        W87145   6.485   6.419   2.254
20737W        W87146  19.221   8.186   0.359
20738W        W87147  40.715  33.799   0.215
20739W        W87148  19.617  40.108   3.576
20740W        W87149  44.366   8.733  12.399
20741W        W87150  13.789  24.656   2.328
20742W        W87151   3.331   9.799   3.773
20743W        W87152  20.514  23.083   0.314
20744W        W87153  35.426   2.648   1.295
20745W        W87154  14.407   3.959  13.041
20746W        W87155  40.937  10.530  12.419
20747W        W87156  37.449  12.064  11.934
20748W        W87157  10.544   7.426  13.570
20749W        W87158  42.434  14.166  14.847
20750W        W87159   2.402  34.164   2.841
20751W        W87160  13.862  27.387  11.143
20752W        W87161  31.814  32.150   2.841
20753W        W87162  37.381  13.549   2.244
20754W        W87163  37.607  20.726   0.712
20755W        W87164  10.213  24.738  11.033
20756W        W87165  29.413  18.744  11.654
20757W        W87166   0.951  15.896   3.249
20758W        W87167  26.709   7.892   9.768
20759W        W87168  42.086  13.608   4.619
20760W        W87169  30.567   7.922  12.352
20761W        W87170  23.101  10.746   0.404
20762W        W87171   3.355   9.642   4.666
20763W        W87172   7.844  26.154   4.526
20764W        W87173  36.233  33.682   2.748
20765W        W87174  20.104  41.596  13.859
20766W        W87175  28.603  29.474  14.186
20767W        W87176   2.701  12.184   4.061
20768W        W87177  37.606  29.824   4.006
20769W        W87178  19.080  33.944  11.125
20770W        W87179  10.316  29.533   1.061
20771W        W87180  18.668  28.929  10.633
20772W        W87181  44.518  14.023   1.706
20773W        W87182  39.904  17.724  12.132
20774W        W87183  20.768   3.433  11.559
20775W        W87184  30.898  44.523   4.600
20776W        W87185  17.679  34.326   0.909
20777W        W87186   3.266  32.383   1.098
20778W        W87187  41.987   8.111   3.352
20779W        W87188   4.336  25.387  12.607
20780W        W87189  30.976  30.489  12.504
20781W        W87190  29.621  33.345  12.995
20782W        W87191  24.916  39.675   0.794
20783W        W87192  20.792   1.778   3.702
20784W        W87193  23.231  10.110  12.381
20785W        W87194  18.181  32.416  12.040
20786W        W87195  23.251  42.525   2.383
20787W        W87196   6.377  21.764   4.828
20788W        W87197   2.712  41.635  13.465
20789W        W87198  35.433   3.195   2.551
20790W        W87199  33.335   6.452   1.622
20791W        W87200  30.792   8.245   2.304
20792W        W87201  25.307  37.420  13.531
20793W        W87202  13.125  28.227  10.667
20794W        W87203   5.158   8.649  13.475
20795W        W87204   9.059  31.007   1.183
20796W        W87205  37.524  33.080   3.006
20797W        W87206  16.347  10.729  11.984
20798W        W87207   5.820  10.678   0.065
20799W        W87208  44.552  36.942  10.721
20800W        W87209  34.565  22.106  13.053
20801W        W87210  24.537  28.131  13.160
20802W        W87211  42.908   7.234  11.755
20803W        W87212  24.690  33.067   4.742
20804W        W87213  35.839  38.482  10.711
20805W        W87214  38.309  34.688   4.816
20806W        W87215   3.436   2.326  10.680
20807W        W87216  14.811  26.069   0.333
20808W        W87217  19.628  25.691   0.782
20809W        W87218   5.128  12.251  13.889
20810W        W87219  19.914  38.308   0.962
20811W        W87220  29.243  24.831   0.361
20812W        W87221  16.654   5.751  11.166
20813W        W87222  39.639  42.688   3.610
20814W        W87223  33.432  21.657  10.958
20815W        W87224  14.739  16.774   0.471
20816W        W87225   6.443  27.858  13.425
20817W        W87226  20.090  15.334  14.799
20818W        W87227  13.455  18.538  11.417
20819W        W87228   4.563  42.396  11.117
20820W        W87229  10.253  43.997  12.895
20821W        W87230  29.476  14.254  12.753
20822W        W87231  12.950  37.941  14.880
20823W        W87232  30.166  34.421   2.257
20824W        W87233  19.091  36.830   2.716
20825W        W87234  17.076  18.757   2.772
20826W        W87235  37.976  41.955  12.176
20827W        W87236  16.996  21.240  13.493
20828W        W87237  19.794  39.568  13.530
20829W        W87238  36.542  22.651  10.486
20830W        W87239  34.172   0.463   4.934
20831W        W87240  15.468  43.591   3.798
20832W        W87241  26.155  11.560  12.203
20833W        W87242  39.587  37.494   4.639
20834W        W87243  19.658  32.698  12.853
20835W        W87244  14.319   0.939  10.267
20836W        W87245  25.671   5.117   2.846
20837W        W87246  38.742  27.973   1.715
20838W        W87247  42.814  20.505  14.569
20839W        W87248  21.246  22.527  13.814
20840W        W87249   5.178  40.376  11.543
20841W        W87250  31.364  17.945  12.925
20842W        W87251  19.317  39.230  11.575
20843W        W87252   0.955  17.201   1.323
20844W        W87253  28.466  21.265   0.865
20845W        W87254  19.433  16.104   4.682
20846W        W87255   9.799  10.794  13.723
20847W        W87256  15.625  37.521  11.686
20848W        W87257  42.034   6.455  12.613
20849W        W87258  37.188  43.974  11.163
20850W        W87259   1.449  32.869   3.657
20851W        W87260  32.148  43.805  14.927
20852W        W87261  30.052  34.916   4.371
20853W        W87262   5.324  42.847  12.462
20854W        W87263  32.788  14.828  12.141
20855W        W87264  32.383   5.996  14.358
20856W        W87265  24.554   8.119  12.587
20857W        W87266  16.527  19.464   3.371
20858W        W87267  13.023  38.339  12.842
20859W        W87268  42.302  41.432  13.757
20860W        W87269  23.665  21.276  13.553
20861W        W87270  35.364  35.574   4.591
20862W        W87271   5.908  35.113   1.166
20863W        W87272   5.192  17.167   2.830
20864W        W87273  29.591  17.791   3.722
20865W        W87274  24.958  15.562  11.888
20866W        W87275   5.127  35.804  12.216
20867W        W87276   0.981  23.213  12.530
20868W        W87277   5.719   0.428  11.463
20869W        W87278  37.629  39.456   4.066
20870W        W87279  34.020  37.049   2.892
20871W        W87280  40.506  36.995   4.278
20872W        W87281  42.001  17.668   1.100
20873W        W87282  15.964  29.261  14.932
20874W        W87283  40.913  29.009  14.593
20875W        W87284   7.904  12.033   2.400
20876W        W87285  29.195   7.511   1.224
20877W        W87286  30.934  15.805   3.554
20878W        W87287  43.121  30.478   1.142
20879W        W87288  21.793  31.173  11.604
20880W        W87289  43.811   6.376  13.897
20881W        W87290  18.567  34.513  12.907
20882W        W87291  37.468   8.016   1.952
20883W        W87292   4.996  12.173   1.885
20884W        W87293  14.595   1.425   5.353
20885W        W87294  34.779  39.241  12.541
20886W        W87295  21.712  30.919   0.541
20887W        W87296  34.628  29.888  11.530
20888W        W87297  33.023  23.826  10.905
20889W        W87298  42.576  31.088   2.938
20890W        W87299  19.594  42.818   1.727
20891W        W87300  36.292   6.826  10.577
20892W        W87301  14.361  30.735   3.488
20893W        W87302  44.527  39.335   3.713
20894W        W87303  27.402   2.223   2.105
20895W        W87304  16.047  19.437   3.115
20896W        W87305  24.067  19.902   1.841
20897W        W87306   9.184   6.434  12.795
20898W        W87307  20.523  18.258  12.422
20899W        W87308   4.168  24.063  11.153
20900W        W87309  34.385   0.463   2.774
20901W        W87310  27.757   4.414   4.127
20902W        W87311  43.418  32.462  12.998
20903W        W87312   6.001  11.632  14.916
20904W        W87313  18.585   6.557   3.605
20905W        W87314   0.237  13.952   4.571
20906W        W87315  10.665   5.045  14.097
20907W        W87316   4.755   6.364  12.862
20908W        W87317  10.823  31.881  12.864
20909W        W87318  35.188  42.781  14.338
20910W        W87319  24.618  12.150  12.036
20911W        W87320  29.396  25.061   0.858
20912W        W87321   5.354  39.788   1.266
20913W        W87322   8.816  34.796  13.764
20914W        W87323  37.132   3.897   2.200
20915W        W87324  28.292  42.423  14.799
20916W        W87325  31.424  29.710  10.751
20917W        W87326   9.194   5.824  10.735
20918W        W87327  10.184  34.648  13.255
20919W        W87328  18.643  26.344   2.867
20920W        W87329  12.435  27.095   1.924
20921W        W87330   5.621  37.025   3.827
20922W        W87331  20.797  35.678   4.246
20923W        W87332  34.631  22.036  10.716
20924W        W87333   3.694  28.038   2.740
20925W        W87334  29.595  30.970   0.727
20926W        W87335  27.538   0.959   1.717
20927W        W87336  18.725   5.157   0.685
20928W        W87337  22.928  21.017  10.683
20929W        W87338  23.771  34.885  14.055
20930W        W87339  24.248  20.676   3.802
20931W        W87340  40.779  42.682   0.974
20932W        W87341   5.537  19.067  12.554
20933W        W87342  34.375  23.185  14.688
20934W        W87343   8.340  30.271  12.617
20935W        W87344  38.477  32.179   1.403
20936W        W87345  31.409  33.178   2.966
20937W        W87346  22.007  10.207  10.816
20938W        W87347  34.871  30.906   4.199
20939W        W87348  20.149  42.423   3.664
20940W        W87349   8.644  27.539   1.408
20941W        W87350  30.897   6.225  13.369
20942W        W87351  13.833   9.701   2.093
20943W        W87352  42.946   7.841   3.251
20944W        W87353  31.455   1.889  12.145
20945W        W87354   2.760  36.073   0.869
20946W        W87355  11.700  33.064  13.423
20947W        W87356  20.077  24.924  11.675
20948W        W87357   5.799  37.972  12.133
20949W        W87358   6.313  42.414   4.178
20950W        W87359  10.269  12.696  14.349
20951W        W87360  32.941   3.900  14.505
20952W        W87361  36.964  11.128   4.077
20953W        W87362  30.116  43.059   3.205
20954W        W87363  26.092  41.057   0.431
20955W        W87364  29.180  44.271   4.049
20956W        W87365  34.388  30.358  14.835
20957W        W87366   9.628  37.336   0.844
20958W        W87367   1.115  42.609  14.048
20959W        W87368  32.427  14.248  11.661
20960W        W87369  13.852  24.473   4.546
20961W        W87370   9.247  44.654  11.464
20962W        W87371  36.415   1.407   0.232
20963W        W87372  17.119  44.479  14.897
20964W        W87373  35.516  22.070  11.689
20965W        W87374  43.966  26.514   4.101
20966W        W87375  43.031  13.808   3.383
20967W        W87376  17.114   8.892   0.021
20968W        W87377  21.370   7.107   2.163
20969W        W87378  17.168  10.761   2.638
20970W        W87379  34.972  23.058   4.583
20971W        W87380  22.714  11.876   4.344
20972W        W87381  27.226   5.154  10.962
20973W        W87382  23.432  38.365  12.056
20974W        W87383  44.655  30.853   0.396
20975W        W87384   4.783  28.498   3.636
20976W        W87385  14.200   7.855   2.274
20977W        W87386  33.881   4.969  14.269
20978W        W87387  13.343  31.939   5.061
20979W        W87388  12.207  26.493  14.369
20980W        W87389  37.532  41.793  14.398
20981W        W87390  15.720   5.021   0.385
20982W        W87391  23.507  14.798   0.611
20983W        W87392  14.440  14.688  13.453
20984W        W87393  39.849  40.943   1.177
20985W        W87394   9.735   8.542   2.226
20986W        W87395  39.601   4.826  12.398
20987W        W87396   1.328   3.794  13.477
20988W        W87397  24.779  19.609   2.929
20989W        W87398   3.499  16.119  11.117
20990W        W87399  43.391  38.780  11.025
20991W        W87400  32.585  13.320   3.294
20992W        W87401  44.493  14.688  11.513
20993W        W87402  30.644  15.678  10.909
20994W        W87403  30.740  11.803  13.881
20995W        W87404   9.331  40.849   1.273
20996W        W87405  31.058  36.595  12.951
20997W        W87406  23.643  10.249   4.713
20998W        W87407  22.509   3.461  11.022
20999W        W87408  27.096  41.207  13.299
21000W        W87409  42.074  18.304   4.158
21001W        W87410  29.201  21.209  11.659
21002W        W87411  23.042  21.082   5.028
21003W        W87412  26.986  10.609   0.834
21004W        W87413  14.837  36.272  10.668
21005W        W87414  16.362  23.790  13.565
21006W        W87415  39.985  36.859  12.415
21007W        W87416  34.501  33.749   0.010
21008W        W87417  24.983  32.658   4.157
21009W        W87418   5.394   3.489   2.808
21010W        W87419   0.762   2.157   0.771
21011W        W87420  23.101   6.048  10.464
21012W        W87421   0.060  18.022   4.117
21013W        W87422  22.257  35.420  12.931
21014W        W87423   5.403  34.814   4.097
21015W        W87424  20.294   2.359  14.310
21016W        W87425   7.233  33.091   4.159
21017W        W87426   1.406  39.559  14.420
21018W        W87427  32.489  43.775  11.674
21019W        W87428  13.652  12.879   0.782
21020W        W87429  41.028  25.960  13.068
21021W        W87430   4.035  11.783  12.071
21022W        W87431   7.865  15.070  10.713
21023W        W87432  40.297   3.905  11.651
21024W        W87433  22.772  26.807  11.678
21025W        W87434  19.642   4.877  14.693
21026W        W87435  42.347  40.864  14.326
21027W        W87436  18.707  38.042  12.224
21028W        W87437  27.964  16.666  14.345
21029W        W87438   4.702   8.469  14.301
21030W        W87439  26.799  23.326   4.871
21031W        W87440  31.465  27.051  10.651
21032W        W87441  10.007   8.393  12.796
21033W        W87442   9.195   1.404   1.330
21034W        W87443  43.736  43.738  12.842
21035W        W87444  25.190  24.483  12.070
21036W        W87445  33.902  32.203  12.865
21037W        W87446  22.686   1.888  12.514
21038W        W87447   4.953  22.117   2.367
21039W        W87448  40.408  44.516   4.324
21040W        W87449  17.735  12.366  13.911
21041W        W87450  29.501   6.883  10.303
21042W        W87451  11.686  44.330  11.863
21043W        W87452  31.730  16.911   4.471
21044W        W87453   2.306   2.503  14.478
21045W        W87454  27.695  43.031   4.283
21046W        W87455  23.108  41.072   3.187
21047W        W87456  22.715  28.912   3.277
21048W        W87457   5.150   0.519  10.733
21049W        W87458  41.483  14.439  11.596
21050W        W87459  35.100  14.038  14.062
21051W        W87460   5.793  33.814  12.565
21052W        W87461  34.310  16.628  12.155
21053W        W87462  13.116   4.726   3.185
21054W        W87463  14.604   6.397   3.394
21055W        W87464  27.141  16.816   1.648
21056W        W87465  31.910   3.403  13.872
21057W        W87466  44.789  42.929  12.105
21058W        W87467  22.646  36.487   4.372
21059W        W87468  23.986  43.296   1.545
21060W        W87469  42.535  28.867  13.999
21061W        W87470   4.682   4.847  11.073
21062W        W87471  21.552  40.818   4.972
21063W        W87472  12.806  15.109   1.407
21064W        W87473  37.929  36.816   4.502
21065W        W87474  24.071  20.668   0.327
21066W        W87475  42.542   7.840   5.384
21067W        W87476  37.809  29.158   0.245
21068W        W87477  44.966  23.649   2.271
21069W        W87478  44.893   4.491  13.614
21070W        W87479  10.105  27.514   1.244
21071W        W87480   3.286  14.655   4.080
21072W        W87481  23.598  14.049   0.781
21073W        W87482  18.169  29.946  14.967
21074W        W87483  31.866  14.741   3.759
21075W        W87484  10.911   9.161   0.560
21076W        W87485  23.910   6.739   1.316
21077W        W87486  16.338  11.132  13.863
21078W        W87487  23.032  36.164   4.236
21079W        W87488   3.651  44.183  14.639
21080W        W87489  20.861  42.006  13.579
21081W        W87490  30.592  23.069  14.513
21082W        W87491  10.390  11.052  13.508
21083W        W87492  37.992  16.930   1.294
21084W        W87493  24.432  30.364  12.241
21085W        W87494  35.631  27.448   1.228
21086W        W87495  11.319  29.893   2.442
21087W        W87496  21.306  24.553   2.695
21088W        W87497  15.286  19.885   3.712
21089W        W87498  20.512   7.445  12.526
21090W        W87499   5.473  30.080   0.507
21091W        W87500  26.397  37.669  12.907
21092W        W87501  28.716  14.620   1.381
21093W        W87502   2.410  40.913  14.503
21094W        W87503  20.139   0.199   1.284
21095W        W87504  34.878  35.952  12.922
21096W        W87505  13.672  43.769   0.398
21097W        W87506  37.601  44.934   3.053
21098W        W87507  10.209   6.371  11.122
21099W        W87508  11.601   6.232   0.229
21100W        W87509  40.709   4.392  10.828
21101W        W87510  26.530   7.635   2.858
21102W        W87511  41.472  21.819  14.273
21103W        W87512   0.291  37.618  11.469
21104W        W87513  37.474   3.998  13.745
21105W        W87514  20.591   8.182   1.272
21106W        W87515  42.625   0.677   0.963
21107W        W87516   0.739  12.563   2.424
21108W        W87517   2.898  29.154  12.929
21109W        W87518   0.132   8.803   2.290
21110W        W87519  43.412  10.240  10.741
21111W        W87520   1.485  38.722   0.351
21112W        W87521  40.475  22.656   4.584
21113W        W87522  19.470   9.314  10.741
21114W        W87523  35.594  10.310   4.587
21115W        W87524  44.898  24.935   3.374
21116W        W87525   3.003  35.780   3.140
21117W        W87526  33.493   5.200   0.847
21118W        W87527  38.934  27.991  11.690
21119W        W87528  35.268   8.916  11.549
21120W        W87529   7.454  34.528  14.863
21121W        W87530  43.660  32.900  11.670
21122W        W87531  17.638   3.673   1.910
21123W        W87532  39.266  36.784  11.944
21124W        W87533  42.132  42.095   1.202
21125W        W87534  37.353  39.401  11.651
21126W        W87535  27.545  42.535  10.782
21127W        W87536  26.137   0.218   0.353
21128W        W87537   2.306  43.012  10.166
21129W        W87538  14.834  25.489  14.690
21130W        W87539  21.511  42.486   4.621
21131W        W87540  39.471   6.770   4.362
21132W        W87541  19.086   2.151   0.722
21133W        W87542  24.257  41.498  13.872
21134W        W87543  26.860  28.485   4.244
21135W        W87544  40.999  43.974   2.774
21136W        W87545   5.637   0.053   4.519
21137W        W87546   0.884   3.230  13.049
21138W        W87547  12.506  37.951   1.824
21139W        W87548  19.722  29.439   3.866
21140W        W87549  11.739   3.485  10.730
21141W        W87550   1.393  14.701  13.324
21142W        W87551  28.094  18.138  14.443
21143W        W87552  32.049  35.526   4.598
21144W        W87553  26.488  15.991   3.346
21145W        W87554  28.067  39.018  11.182
21146W        W87555  32.926   1.232   1.796
21147W        W87556  35.383  26.974   2.920
21148W        W87557  21.059  12.038  11.476
21149W        W87558  19.226  32.388  12.643
21150W        W87559  16.712   3.641   3.777
21151W        W87560  38.371  31.115  11.604
21152W        W87561  24.048  28.396   0.679
21153W        W87562  11.089  23.827  11.394
21154W        W87563  38.069  29.395   1.527
21155W        W87564  36.518  35.327  14.299
21156W        W87565  25.977  13.675   1.694
21157W        W87566  34.432  44.390   3.339
21158W        W87567  25.711  37.200  14.783
21159W        W87568   1.758  39.652   1.270
21160W        W87569  27.269  39.963  13.866
21161W        W87570  12.624  22.673  13.388
21162W        W87571   0.402  17.221   2.185
21163W        W87572  23.571  43.270   0.330
21164W        W87573  14.342  34.382  12.937
21165W        W87574   1.407  25.598   0.915
21166W        W87575  13.557  17.268  11.151
21167W        W87576  33.386  18.527   1.906
21168W        W87577  34.727  17.527   2.320
21169W        W87578  12.678  37.469   9.734
21170W        W87579  33.899   8.855   1.663
21171W        W87580  27.968  37.330   0.331
21172W        W87581  23.896  11.406   3.327
21173W        W87582   3.874  23.897  12.438
21174W        W87583   7.858  42.819  14.718
21175W        W87584   3.815  43.925  11.781
21176W        W87585   6.004   3.258   3.671
21177W        W87586  32.372  29.128   0.926
21178W        W87587  13.674   4.375  13.073
21179W        W87588   1.698  23.049  11.970
21180W        W87589  25.735  31.570  10.392
21181W        W87590   0.646  21.910   2.200
21182W        W87591  35.659   0.040  12.810
21183W        W87592  30.723   9.970   5.594
21184W        W87593  11.215  17.507   4.765
21185W        W87594  32.373   4.454   1.832
21186W        W87595  39.956  11.183  14.508
21187W        W87596  15.678   0.691   3.579
21188W        W87597   9.968  22.385  14.998
21189W        W87598  30.494  23.263   4.539
21190W        W87599  39.726  21.188  13.899
21191W        W87600  21.811   1.212   4.479
21192W        W87601  20.691  27.219  14.091
21193W        W87602  26.700  13.828   2.239
21194W        W87603  27.230  14.783   4.011
21195W        W87604  39.834  15.106   1.375
21196W        W87605  31.144  13.639  12.979
21197W        W87606  15.749  29.521   4.227
21198W        W87607  30.402  20.525  14.444
21199W        W87608  11.394  22.428   2.352
21200W        W87609  39.051  24.987   3.253
21201W        W87610  31.615  41.508   0.521
21202W        W87611  39.912  12.197  13.301
21203W        W87612  11.006  44.055   2.289
21204W        W87613  10.799  44.835   0.448
21205W        W87614   2.433  26.774  12.082
21206W        W87615  16.636  44.754   3.715
21207W        W87616  27.109  14.129  11.592
21208W        W87617  38.149  31.011  14.478
21209W        W87618   8.845  44.457  12.867
21210W        W87619  36.001  32.472   0.213
21211W        W87620  19.286  26.036   3.449
21212W        W87621  23.276  37.279  12.529
21213W        W87622   8.807  41.572  12.052
21214W        W87623   1.928  23.412  11.119
21215W        W87624   1.455  29.175  14.403
21216W        W87625   7.247  40.583  12.822
21217W        W87626  26.668  40.977   3.406
21218W        W87627  30.093  12.507   1.561
21219W        W87628   2.871  12.331   2.716
21220W        W87629  18.024  32.340   0.110
21221W        W87630   4.712  17.351   4.042
21222W        W87631  12.906  13.843   1.471
21223W        W87632  36.581  13.608  11.438
21224W        W87633  28.835  29.004  12.899
21225W        W87634  24.533  24.741   4.032
21226W        W87635  44.674  36.122   0.954
21227W        W87636  30.895  43.445   2.674
21228W        W87637  41.288  36.078  12.981
21229W        W87638  19.872  23.653   2.241
21230W        W87639   0.981   4.924   1.268
21231W        W87640  11.795  40.549  13.049
21232W        W87641   7.690  16.762   4.381
21233W        W87642  13.862   1.959   3.580
21234W        W87643  20.504  15.186  12.518
21235W        W87644  18.699  17.655   4.423
21236W        W87645   8.791  17.631   1.924
21237W        W87646  14.381   5.885  14.069
21238W        W87647   4.863  14.355   2.859
21239W        W87648  11.856  17.558  14.036
21240W        W87649  31.144  35.546   3.612
21241W        W87650  21.430  33.560  11.489
21242W        W87651  36.998  37.368   2.932
21243W        W87652   4.460  23.568  14.708
21244W        W87653   6.231   2.799  14.426
21245W        W87654  24.267   6.417  11.700
21246W        W87655  42.958   3.307   4.551
21247W        W87656   1.016  16.812  12.861
21248W        W87657  36.594  30.014   1.722
21249W        W87658  36.880  40.740   4.334
21250W        W87659  34.419  43.980  12.329
21251W        W87660  28.956  28.244  11.504
21252W        W87661   3.506  12.883  11.533
21253W        W87662  16.478  21.471  14.757
21254W        W87663  27.136  31.399  10.494
21255W        W87664  20.042  35.883  11.971
21256W        W87665  10.488   3.975  10.279
21257W        W87666   2.897  26.041  13.536
21258W        W87667  18.585  39.172   9.996
21259W        W87668  36.052  23.191   4.333
21260W        W87669  13.610   0.266   1.330
21261W        W87670  26.449   9.496   3.103
21262W        W87671  21.079  23.751   4.975
21263W        W87672  29.681  24.253   1.388
21264W        W87673  37.804   1.848   1.493
21265W        W87674  34.828   2.757   2.279
21266W        W87675   6.242  31.386   3.691
21267W        W87676  29.167   7.347  11.122
21268W        W87677  32.213  44.985   2.140
21269W        W87678   4.078  28.127  14.000
21270W        W87679  11.063  11.513  11.839
21271W        W87680  25.953  25.957   2.674
21272W        W87681  27.072  11.192  10.842
21273W        W87682  20.005   3.318   3.306
21274W        W87683   2.342  35.341  13.920
21275W        W87684  42.987  23.778  12.475
21276W        W87685  10.589  26.610  13.987
21277W        W87686   2.692  36.567   2.706
21278W        W87687  27.062  29.380  11.077
21279W        W87688  26.925  31.795  13.874
21280W        W87689  31.653  42.367   0.431
21281W        W87690   8.880   0.525  11.592
21282W        W87691  39.992  10.411   3.329
21283W        W87692  40.070  38.864   2.341
21284W        W87693   8.810  21.986   0.691
21285W        W87694   0.433  25.286  13.292
21286W        W87695  15.413   3.120   2.153
21287W        W87696   1.879  35.594  13.913
21288W        W87697  43.053  36.224  11.043
21289W        W87698  18.193  13.126  12.217
21290W        W87699   2.484  31.781  10.292
21291W        W87700   9.122  31.001   9.584
21292W        W87701  27.068  21.789   1.356
21293W        W87702   9.031  39.347  14.587
21294W        W87703  20.225  26.465  11.591
21295W        W87704  28.076  22.013  11.635
21296W        W87705  10.209   7.778  14.002
21297W        W87706  26.430  38.717   1.378
21298W        W87707   9.776   5.750   1.465
21299W        W87708  17.155   5.878  14.425
21300W        W87709  32.397   4.286   0.791
21301W        W87710   3.729  27.006  14.902
21302W        W87711  36.792   5.943   2.366
21303W        W87712  33.056  19.125  12.785
21304W        W87713   2.140   0.291   4.129
21305W        W87714  27.930  16.289   1.257
21306W        W87715   2.880  20.722  11.705
21307W        W87716   9.822  28.055   1.372
21308W        W87717   6.163  33.152   0.212
21309W        W87718  28.943  13.205   3.655
21310W        W87719   4.374   4.474   4.519
21311W        W87720  13.215   6.884  12.933
21312W        W87721  20.138  42.711   3.071
21313W        W87722  40.561  25.091   2.433
21314W        W87723  18.684  43.003   5.151
21315W        W87724   2.747  26.288  14.472
21316W        W87725  25.596   4.292   3.852
21317W        W87726   2.127  13.212  12.544
21318W        W87727  28.970  36.094  12.144
21319W        W87728  18.231  26.302   3.860
21320W        W87729   6.185  24.934  11.889
21321W        W87730   5.509  30.958  11.057
21322W        W87731  24.709   8.820   5.224
21323W        W87732  19.940  25.028   4.418
21324W        W87733  23.679  38.758  14.560
21325W        W87734  18.504  33.844   2.853
21326W        W87735  43.586  13.066  11.521
21327W        W87736   1.079   3.432   2.360
21328W        W87737  29.260  18.693  14.512
21329W        W87738   0.707  11.096   0.827
21330W        W87739   9.953   5.677   0.734
21331W        W87740   0.726  22.453  10.723
21332W        W87741  22.897  16.400   1.651
21333W        W87742   0.247  28.995   3.686
21334W        W87743  42.319  37.342   1.809
21335W        W87744  10.828  23.768  12.553
21336W        W87745  23.339  17.308  12.100
21337W        W87746  11.237  37.891   4.644
21338W        W87747  32.039  28.625   2.604
21339W        W87748  21.545  29.500   1.749
21340W        W87749   8.097  35.803   3.734
21341W        W87750   1.151  15.575  10.323
21342W        W87751  36.556  18.253   3.324
21343W        W87752  30.383  18.401   1.773
21344W        W87753   6.498   2.300   2.420
21345W        W87754   1.229   8.256   5.376
21346W        W87755  21.560  40.307  10.758
21347W        W87756  42.539  16.509   1.509
21348W        W87757   5.986  42.319  12.117
21349W        W87758   2.444   6.783  13.822
21350W        W87759  17.369  27.210   1.235
21351W        W87760   1.615  18.498  13.323
21352W        W87761  15.599  31.115  13.500
21353W        W87762  20.184  10.291  13.460
21354W        W87763  41.336   6.684   1.521
21355W        W87764  43.494  30.532  11.621
21356W        W87765   3.920  43.185   1.983
21357W        W87766  29.543  30.443  14.788
21358W        W87767   7.348  44.592   2.489
21359W        W87768  39.370   8.870   3.862
21360W        W87769  44.075  22.032  13.313
21361W        W87770  44.909  17.498  12.546
21362W        W87771  11.844  34.029  12.886
21363W        W87772  19.744  33.501  12.171
21364W        W87773   3.289  12.752   0.953
21365W        W87774  41.490  40.607   2.802
21366W        W87775  31.995  13.597  10.793
21367W        W87776   5.193  14.516  14.095
21368W        W87777  39.251  30.491  13.700
21369W        W87778   3.417  25.826   2.366
21370W        W87779   7.399  18.443  11.673
21371W        W87780  23.129  44.902  14.571
21372W        W87781  41.078  33.605   2.723
21373W        W87782  14.966   1.480  11.530
21374W        W87783  43.853  15.911  11.015
21375W        W87784   7.512  37.614  12.186
21376W        W87785   6.481  19.657  11.140
21377W        W87786   8.938  24.047   1.749
21378W        W87787  35.230  42.838   4.419
21379W        W87788  25.982  26.226  12.919
21380W        W87789  13.100  43.948  12.149
21381W        W87790  28.112  28.082  12.445
21382W        W87791   0.098  41.486   0.418
21383W        W87792  35.277  44.880  14.115
21384W        W87793  43.229   4.943  11.409
21385W        W87794  12.839  32.153   1.803
21386W        W87795  20.596  36.152  13.072
21387W        W87796   6.628  26.275   4.985
21388W        W87797  33.439  11.682   2.363
21389W        W87798  25.221   3.182  10.565
21390W        W87799  26.211  10.066  11.196
21391W        W87800  36.865  40.020   1.109
21392W        W87801  13.788  26.069   0.032
21393W        W87802   2.942  35.364   1.784
21394W        W87803  44.369   1.547  10.424
21395W        W87804  33.516  39.453   1.189
21396W        W87805  24.411   9.173   5.567
21397W        W87806  17.581  38.400  12.857
21398W        W87807  14.784  24.769   4.637
21399W        W87808   9.606   8.693  13.033
21400W        W87809  34.905  18.367   4.593
21401W        W87810  20.011   5.333  14.018
21402W        W87811  17.078  23.279   4.118
21403W        W87812  41.266  29.866  12.113
21404W        W87813   8.222  22.086   4.626
21405W        W87814  19.239  35.100   2.400
21406W        W87815  22.727  20.250   0.699
21407W        W87816  14.606  12.522  12.043
21408W        W87817  10.315  30.421   5.074
21409W        W87818  29.197   1.874   3.156
21410W        W87819  37.974  27.909  12.434
21411W        W87820  27.135  43.362  14.507
21412W        W87821  18.128  38.684   1.988
21413W        W87822  27.709  18.520  13.508
21414W        W87823   4.495  31.440  11.964
21415W        W87824  26.429  20.472  11.008
21416W        W87825   1.776  18.991  11.232
21417W        W87826  19.434   1.448  11.034
21418W        W87827   4.127  41.957  10.551
21419W        W87828  19.341  44.933   2.866
21420W        W87829  21.012  37.889   3.181
21421W        W87830  36.848  38.811  12.580
21422W        W87831  13.743  16.642   1.514
21423W        W87832   2.808  34.758   3.134
21424W        W87833  27.158  14.742   2.268
21425W        W87834  18.274  29.656  12.606
21426W        W87835  12.126  29.924  13.812
21427W        W87836  23.059  29.643  10.807
21428W        W87837  13.855  32.655  11.319
21429W        W87838  36.447   2.381   3.187
21430W        W87839  43.645  12.668  13.465
21431W        W87840  26.925  27.150   0.487
21432W        W87841  42.922  28.464  14.725
21433W        W87842   3.210   8.665  10.258
21434W        W87843  13.205  10.122  13.002
21435W        W87844  27.579  33.147  14.310
21436W        W87845  42.987  40.910   4.659
21437W        W87846  39.767   6.339   4.351
21438W        W87847  17.025   9.165  13.250
21439W        W87848  11.254   4.010  10.692
21440W        W87849  41.572  37.340   0.352
21441W        W87850   4.242   9.707  14.879
21442W        W87851   5.123  37.102  12.751
21443W        W87852  11.337   0.844   3.143
21444W        W87853   4.765  37.927   2.397
21445W        W87854  10.757  14.139  13.850
21446W        W87855  40.009   0.462  11.558
21447W        W87856   4.705  39.013  14.960
21448W        W87857   2.009  16.209   4.054
21449W        W87858   2.730  12.140   1.306
21450W        W87859  39.533  10.137  14.532
21451W        W87860   6.817  44.509   3.669
21452W        W87861  28.420  13.117  10.790
21453W        W87862   3.701  42.876   1.153
21454W        W87863  44.006  22.481  14.023
21455W        W87864  15.864   3.728  14.590
21456W        W87865   0.977  12.168   1.989
21457W        W87866   4.806  37.079   4.067
21458W        W87867   0.119  12.098   1.668
21459W        W87868  19.227   1.734  14.838
21460W        W87869  17.741  26.324  11.036
21461W        W87870   6.877   8.100  11.980
21462W        W87871   9.276  22.638   0.201
21463W        W87872  13.743  39.018  12.472
21464W        W87873  40.849  25.742   1.215
21465W        W87874   1.273  25.310  12.998
21466W        W87875  43.336  18.082  11.649
21467W        W87876  24.921  13.729  14.465
21468W        W87877  18.313  41.546  14.329
21469W        W87878  39.742   0.382  13.364
21470W        W87879  33.367  43.922   4.514
21471W        W87880  36.314   5.206   3.272
21472W        W87881  25.510  11.186   0.033
21473W        W87882  37.566  12.766   4.840
21474W        W87883   4.403  25.462   2.361
21475W        W87884  11.462   3.160  11.936
21476W        W87885  18.504   3.416  12.856
21477W        W87886  40.315  33.296   2.794
21478W        W87887  10.713   9.647  12.820
21479W        W87888  14.606  44.793   0.880
21480W        W87889  41.984  14.607  13.338
21481W        W87890  19.519  22.631  11.174
21482W        W87891   5.428  23.433   1.324
21483W        W87892   5.804  16.366   4.242
21484W        W87893  44.274  14.739  12.896
21485W        W87894  15.659  37.036  14.369
21486W        W87895  44.942  21.543   4.100
21487W        W87896  24.716  23.830   1.441
21488W        W87897  10.341  21.410  10.584
21489W        W87898  37.441  32.962   1.561
21490W        W87899   5.821  20.682   3.489
21491W        W87900  36.656  38.177  11.987
21492W        W87901  10.218  38.920   4.165
21493W        W87902   0.718  34.597  13.261
21494W        W87903   2.384  19.772  13.051
21495W        W87904   3.675  10.231  12.571
21496W        W87905  15.079  32.544   2.915
21497W        W87906  32.430  28.149   0.315
21498W        W87907  19.847  29.626   5.223
21499W        W87908   5.339  33.613  14.332
21500W        W87909  32.074  29.159  14.979
21501W        W87910  42.278  41.908   4.693
21502W        W87911  16.142  36.507   3.813
21503W        W87912   6.930  17.021   1.078
21504W        W87913  30.220  15.617   3.234
21505W        W87914  37.373  19.084   3.691
21506W        W87915  27.379   4.809  12.588
21507W        W87916  32.963  40.478   2.290
21508W        W87917  21.493  35.984   4.172
21509W        W87918  36.317  23.596   0.723
21510W        W87919  41.450  17.016   9.896
21511W        W87920  13.833  35.971   5.485
21512W        W87921  15.545  42.863  11.134
21513W        W87922  35.481   1.707   1.100
21514W        W87923  41.417  44.651  14.407
21515W        W87924   5.740   3.582  12.211
21516W        W87925  23.942   8.833   3.608
21517W        W87926  40.216  14.112   1.493
21518W        W87927  27.945  21.528   2.400
21519W        W87928  19.546   9.460   3.654
21520W        W87929  20.278   1.977   1.312
21521W        W87930  30.112   7.920  10.605
21522W        W87931  16.109  31.486  13.946
21523W        W87932   3.415  30.085  11.404
21524W        W87933  26.942  34.549  13.454
21525W        W87934   6.729  39.769   2.705
21526W        W87935  13.083  29.006  12.936
21527W        W87936  19.237  31.561   2.585
21528W        W87937   4.495  16.130   4.218
21529W        W87938  21.416  17.565   4.345
21530W        W87939  26.786  18.294   3.625
21531W        W87940  44.827  32.992   4.964
21532W        W87941  42.943   8.118  13.412
21533W        W87942  29.589  14.707   2.211
21534W        W87943  25.524  16.452  10.995
21535W        W87944   8.075   7.609  12.991
21536W        W87945  40.877  19.831   1.218
21537W        W87946   9.653  25.703  13.278
21538W        W87947  17.721   7.458  12.467
21539W        W87948  44.529  37.503   0.512
21540W        W87949  28.614  29.639  14.670
21541W        W87950  41.547  26.666   0.507
21542W        W87951  16.011  40.100   3.198
21543W        W87952  41.852  23.530   1.314
21544W        W87953  42.960  42.705   4.619
21545W        W87954  15.013  31.469   3.629
21546W        W87955   2.397  33.196  12.094
21547W        W87956  42.014  16.668  10.672
21548W        W87957  19.110  28.127  10.980
21549W        W87958  18.171  28.709  12.077
21550W        W87959   8.113  39.403   2.151
21551W        W87960  11.532  28.869  12.932
21552W        W87961  26.688  33.055   4.108
21553W        W87962  13.661  27.617  12.530
21554W        W87963  10.821  15.765  11.943
21555W        W87964  44.373  24.099  11.037
21556W        W87965  39.124  40.444   0.970
21557W        W87966  38.341  10.764   4.451
21558W        W87967  11.961   4.733  13.016
21559W        W87968   9.094  42.397   0.322
21560W        W87969  40.088  17.139   3.170
21561W        W87970  25.812  20.004  14.250
21562W        W87971  36.078  21.426  10.545
21563W        W87972  34.840  13.588  14.122
21564W        W87973  42.911   3.785   3.257
21565W        W87974  43.933  40.083  10.852
21566W        W87975  12.048  22.263   1.575
21567W        W87976   8.534  28.079  12.145
21568W        W87977   6.740  25.862   3.139
21569W        W87978   3.973   1.268  13.522
21570W        W87979  35.557  15.319  14.056
21571W        W87980  30.669  44.072   1.208
21572W        W87981  37.002  43.494  13.601
21573W        W87982  12.698  22.126   1.782
21574W        W87983  16.562  41.503   1.913
21575W        W87984  36.938  35.589  14.405
21576W        W87985  44.771  27.374   1.714
21577W        W87986  39.940  19.199  14.504
21578W        W87987   9.507   1.848  10.082
21579W        W87988  41.703  11.607   2.493
21580W        W87989  38.299  14.639   0.441
21581W        W87990  19.656  23.463  14.461
21582W        W87991   5.287   3.178   0.918
21583W        W87992  13.997  33.283   0.351
21584W        W87993  10.159  36.059   3.725
21585W        W87994   4.780  40.285   4.573
21586W        W87995  44.903  27.905  10.651
21587W        W87996  13.854   8.224   4.821
21588W        W87997  26.248  25.634   4.001
21589W        W87998   1.424   4.666   1.406
21590W        W87999  44.853  22.278   4.449
21591W        W88000  20.375   9.226   0.741
21592W        W88001  35.593  21.502   3.758
21593W        W88002   8.351   7.895  12.658
21594W        W88003   0.447   6.548   0.342
21595W        W88004   6.599  33.529  11.336
21596W        W88005  38.024  30.034   1.083
21597W        W88006  26.111  30.940   0.390
21598W        W88007  41.760  36.609  12.202
21599W        W88008  27.482  42.509  13.487
21600W        W88009  43.129  39.911  10.535
21601W        W88010  25.302  25.116  14.319
21602W        W88011  29.085  29.441  12.823
21603W        W88012  40.527  22.192   2.273
21604W        W88013  24.637  41.085  14.398
21605W        W88014   1.454  31.848   2.331
21606W        W88015  17.704   9.949   4.230
21607W        W88016   3.999  39.488  12.012
21608W        W88017  41.892  23.869  11.824
21609W        W88018  33.904  12.740  13.082
21610W        W88019  44.873  39.404  10.253
21611W        W88020   3.271  28.743  14.036
21612W        W88021  39.205  30.052  10.701
21613W        W88022  18.657  15.826  12.088
21614W        W88023  38.131   3.254   3.966
21615W        W88024  20.746  39.815  12.392
21616W        W88025  44.018   5.365   4.678
21617W        W88026  42.953  25.192   2.980
21618W        W88027  25.148   2.845   2.205
21619W        W88028  25.102  16.374  11.252
21620W        W88029  10.814  19.482   3.251
21621W        W88030   9.235  10.000  12.951
21622W        W88031  40.666  23.259  13.794
21623W        W88032   3.796  17.014   3.113
21624W        W88033  10.327  42.721  14.967
21625W        W88034  28.086  32.786   1.138
21626W        W88035  22.657  12.314  13.906
21627W        W88036  43.699  22.471   4.144
21628W        W88037  27.234  27.025  12.966
21629W        W88038   2.931   0.495  12.837
21630W        W88039   8.147  42.648  14.301
21631W        W88040  36.875  40.538   3.814
21632W        W88041  17.471  18.351  14.470
21633W        W88042  13.686  38.093   0.427
21634W        W88043  19.575  30.358   4.125
21635W        W88044  11.321  41.449   0.455
21636W        W88045  33.100  43.874   0.201
21637W        W88046   7.217  30.162   2.841
21638W        W88047  10.403  28.514  13.786
21639W        W88048  25.442   8.393  11.205
21640W        W88049  16.843  36.920   0.038
21641W        W88050  29.113  26.499   3.712
21642W        W88051  15.328   8.329  13.000
21643W        W88052  34.328  44.477   2.343
21644W        W88053   4.047  38.604  12.101
21645W        W88054  23.170  40.382  14.844
21646W        W88055  24.596   8.790   1.815
21647W        W88056   7.800   3.987   0.023
21648W        W88057  36.620  32.403  10.421
21649W        W88058  33.510  44.806  10.857
21650W        W88059   5.298  18.809  12.086
21651W        W88060  30.542  14.146  13.460
21652W        W88061   9.860   3.562  11.171
21653W        W88062  21.756  35.453  12.970
21654W        W88063  36.784  40.578  11.271
21655W        W88064  10.426  30.962  12.555
21656W        W88065  38.977   1.040   4.952
21657W        W88066  18.651  24.497   4.079
21658W        W88067  20.225   0.310  11.908
21659W        W88068  27.109   9.749   1.368
21660W        W88069  39.585   4.504   3.110
21661W        W88070  27.974  30.924  11.191
21662W        W88071  16.767   5.113  10.373
21663W        W88072  22.665  18.337  13.565
21664W        W88073  16.556  38.519   2.221
21665W        W88074   5.886  35.470  10.766
21666W        W88075   0.438  22.662   3.219
21667W        W88076   6.747  33.150   4.372
21668W        W88077  18.208  21.045   4.566
21669W        W88078  18.543  15.579  12.521
21670W        W88079   4.866  21.634  10.731
21671W        W88080  25.820  19.432  10.672
21672W        W88081  12.324  10.556   4.497
21673W        W88082  41.998  27.994  13.927
21674W        W88083  33.102  10.190  12.533
21675W        W88084  36.022   8.562   3.622
21676W        W88085  15.303   5.973   2.678
21677W        W88086  40.458  21.987  13.920
21678W        W88087  16.802  43.310   1.308
21679W        W88088  20.264   1.217   3.623
21680W        W88089   2.384  14.250  13.167
21681W        W88090  12.211   8.194   4.580
21682W        W88091  11.300   5.561  10.932
21683W        W88092  33.513  36.559   0.821
21684W        W88093   4.857  42.905   2.593
21685W        W88094  25.734   2.334   4.158
21686W        W88095  12.283  24.753   1.448
21687W        W88096  29.788   7.225   4.113
21688W        W88097  17.691  30.569  14.769
21689W        W88098   8.739  42.852   2.338
21690W        W88099  38.227  11.795   4.146
21691W        W88100  16.728   3.966   4.638
21692W        W88101  10.959  37.840  11.049
21693W        W88102  26.594  29.601   4.957
21694W        W88103  11.320   9.755  14.915
21695W        W88104  39.120  26.497   0.914
21696W        W88105  39.117  43.755   2.855
21697W        W88106   0.564   4.821  11.507
21698W        W88107  19.251  28.443  10.459
21699W        W88108  31.268  25.106   4.239
21700W        W88109  31.989  40.740   3.790
21701W        W88110  42.747  42.449   2.031
21702W        W88111  40.406  13.805   3.298
21703W        W88112   6.751  12.279  14.926
21704W        W88113  34.563  28.762   4.984
21705W        W88114  36.343  23.684   4.677
21706W        W88115  10.401  28.677   4.673
21707W        W88116  14.498  14.035  11.127
21708W        W88117  23.124   4.183   4.161
21709W        W88118  44.839  12.866   1.854
21710W        W88119  14.219  40.501   1.430
21711W        W88120  27.836  15.161  11.132
21712W        W88121  41.055  22.564  11.077
21713W        W88122   0.674  35.054  14.760
21714W        W88123  34.371  13.470  13.906
21715W        W88124   1.053  26.980  12.446
21716W        W88125   9.390  31.453  10.281
21717W        W88126   2.130   1.289  12.085
21718W        W88127  22.929  15.234   0.688
21719W        W88128  32.587  42.012  11.544
21720W        W88129  36.046  15.948   4.791
21721W        W88130   6.594  16.657   1.220
21722W        W88131   6.417  10.391   1.840
21723W        W88132   5.203  22.105   4.553
21724W        W88133  32.576  42.396  11.906
21725W        W88134  30.128  19.192   0.926
21726W        W88135  40.803  32.562  13.045
21727W        W88136  23.030  15.366   3.681
21728W        W88137  35.659  27.681   3.198
21729W        W88138  41.589  42.031  12.978
21730W        W88139  16.609  35.514  14.419
21731W        W88140  30.352  42.924  14.380
21732W        W88141   6.753  35.144  10.722
21733W        W88142   0.181  11.896   4.763
21734W        W88143  19.646  44.494   2.723
21735W        W88144  37.840  13.535   3.069
21736W        W88145   4.996  14.281  13.028
21737W        W88146  16.017  16.776   4.337
21738W        W88147  19.931  25.987  13.451
21739W        W88148  23.387  19.087   0.925
21740W        W88149  13.674  26.307   2.745
21741W        W88150  39.324  14.621   9.836
21742W        W88151   3.470  21.198   5.102
21743W        W88152  31.771  34.432   3.123
21744W        W88153  38.015   0.166   0.556
21745W        W88154   3.035  43.760  13.856
21746W        W88155   7.246  39.295   0.032
21747W        W88156  25.230   5.480   4.171
21748W        W88157  42.556   0.877  10.667
21749W        W88158  28.532  37.461  10.677
21750W        W88159  20.095   3.400  10.488
21751W        W88160   9.086   4.293   1.964
21752W        W88161   5.716  14.581  11.575
21753W        W88162  38.418   3.885  13.847
21754W        W88163  13.240  13.585   4.157
21755W        W88164  16.179   5.228  11.645
21756W        W88165   5.227  34.599   0.166
21757W        W88166   3.225  10.134  13.945
21758W        W88167  39.537  34.622  11.149
21759W        W88168   2.786  43.065   3.146
21760W        W88169  15.427  32.945   3.689
21761W        W88170   2.976  32.453  13.032
21762W        W88171  35.289   0.280  11.146
21763W        W88172   8.269  31.688  13.465
21764W        W88173  11.919   7.253  14.520
21765W        W88174  23.888  33.095  14.855
21766W        W88175  29.727  24.080  11.114
21767W        W88176  29.071   8.185   1.719
21768W        W88177  15.327   2.039   1.343
21769W        W88178  41.495  15.088  11.253
21770W        W88179  15.386  36.501   1.829
21771W        W88180  41.024  36.780  13.346
21772W        W88181  16.041  33.852   2.092
21773W        W88182  10.820  25.677   3.383
21774W        W88183  40.418   8.617  11.213
21775W        W88184  36.498  30.553   2.396
21776W        W88185  17.307  17.798   2.234
21777W        W88186  11.098   8.837   0.142
21778W        W88187   9.839  23.499   2.143
21779W        W88188  34.468   5.764  11.465
21780W        W88189  36.821   8.222   4.263
21781W        W88190  10.703  34.890  13.927
21782W        W88191  11.355  18.779   3.230
21783W        W88192  24.492   4.924   0.785
21784W        W88193  34.030  35.912   0.279
21785W        W88194   4.732  18.575  14.450
21786W        W88195  43.086  38.614   2.392
21787W        W88196  43.889   6.946   3.195
21788W        W88197   1.173  14.394   0.190
21789W        W88198   3.300   4.377  11.663
21790W        W88199  18.698  21.654  11.214
21791W        W88200  16.114  13.611   4.003
21792W        W88201  39.474  36.961   3.305
21793W        W88202  23.965   0.819   0.987
21794W        W88203  15.521  30.508   0.963
21795W        W88204  26.574   4.157   2.568
21796W        W88205  25.232  28.409  13.555
21797W        W88206  15.099  26.470   1.822
21798W        W88207  28.251   2.214  10.322
21799W        W88208  31.544  23.231   1.820
21800W        W88209  33.499  11.597  12.903
21801W        W88210  41.028  16.325  11.224
21802W        W88211  44.440  42.248   1.806
21803W        W88212  12.528  24.320  11.141
21804W        W88213   2.469   7.737  12.342
21805W        W88214  30.462  33.246   0.017
21806W        W88215  26.584  41.755   1.319
21807W        W88216  25.453   8.638  14.829
21808W        W88217  36.222   1.325   1.860
21809W        W88218  28.941  35.604   2.834
21810W        W88219  23.048  10.653   4.013
21811W        W88220  20.272  39.540  12.878
21812W        W88221  37.614  40.314  11.640
21813W        W88222  13.664  30.448   4.839
21814W        W88223  28.899   1.756   3.593
21815W        W88224  22.811  29.439   2.349
21816W        W88225   4.616  17.734  11.819
21817W        W88226  36.921  44.915   1.864
21818W        W88227   6.436  33.082  11.114
21819W        W88228  15.473  22.142   0.392
21820W        W88229  27.989  11.391   4.125
21821W        W88230  14.319  26.982  12.423
21822W        W88231  39.488  27.189   2.904
21823W        W88232  16.239  44.915   0.513
21824W        W88233   1.719  34.789  13.535
21825W        W88234  15.947   0.364  14.365
21826W        W88235  40.125  37.510  14.304
21827W        W88236   6.379  11.427  13.902
21828W        W88237  20.187  33.189  10.457
21829W        W88238   5.795  10.822   1.413
21830W        W88239  26.694  31.020  11.994
21831W        W88240   6.589  33.144   4.884
21832W        W88241  23.584  38.960   3.229
21833W        W88242  21.720  19.570  11.049
21834W        W88243  43.860   8.949   3.160
21835W        W88244  37.464  30.757   1.796
21836W        W88245  42.496   2.313   2.369
21837W        W88246  31.087  33.319  12.712
21838W        W88247  28.018  36.096  12.665
21839W        W88248   3.488   4.715   3.716
21840W        W88249  19.559  41.409   3.263
21841W        W88250  21.002  21.644   1.955
21842W        W88251  33.052  41.039   0.366
21843W        W88252   3.803   4.131   0.375
21844W        W88253  18.721  41.826  11.849
21845W        W88254  24.727   7.346   3.364
21846W        W88255  16.364  12.366   0.728
21847W        W88256  12.696  35.244   1.299
21848W        W88257  17.589  30.115   0.619
21849W        W88258  19.021  34.082   3.628
21850W        W88259  42.689  25.999   4.347
21851W        W88260  14.950   5.787  12.889
21852W        W88261   4.715  33.667   2.682
21853W        W88262  44.471   2.255  13.612
21854W        W88263   1.658  20.746   0.721
21855W        W88264  15.285   1.416  13.992
21856W        W88265  43.776  25.542  12.541
21857W        W88266   2.370   5.776  14.512
21858W        W88267  37.470   2.285  11.556
21859W        W88268  13.749  41.941   2.348
21860W        W88269  44.114  21.600   4.736
21861W        W88270   5.228  11.313  10.411
21862W        W88271   9.275  41.617   1.970
21863W        W88272  34.149  14.336  13.849
21864W        W88273  36.491   3.388   0.909
21865W        W88274  32.952  27.327   0.302
21866W        W88275  35.719  32.915   1.406
21867W        W88276   3.169  14.390   1.727
21868W        W88277  38.534  11.593  10.383
21869W        W88278  10.238   8.414   4.547
21870W        W88279  20.303  25.187   2.987
21871W        W88280  31.101  19.327   0.725
21872W        W88281  33.349  24.817  12.055
21873W        W88282  37.158  11.725  14.411
21874W        W88283  25.523   5.770  11.672
21875W        W88284  19.605  35.875  11.102
21876W        W88285  23.929   8.313   3.285
21877W        W88286  34.323  29.915   2.406
21878W        W88287  15.202   3.461   1.186
21879W        W88288  34.973  19.931  14.465
21880W        W88289  28.724  24.321   1.640
21881W        W88290  43.039  40.097   4.433
21882W        W88291  40.436   2.598  12.124
21883W        W88292   2.247  12.727   0.762
21884W        W88293  22.074  36.073   2.738
21885W        W88294  35.998  26.833   2.582
21886W        W88295  37.269   1.287   0.899
21887W        W88296  32.376  25.978  13.444
21888W        W88297  23.682  13.718  10.688
21889W        W88298  22.231   4.428  13.772
21890W        W88299  26.935  16.323   3.278
21891W        W88300  32.530  17.747  11.542
21892W        W88301  28.831  30.721   1.424
21893W        W88302  26.440  11.644  13.043
21894W        W88303   1.938  39.079  11.570
21895W        W88304  41.661  30.453  11.456
21896W        W88305  10.308  24.809   4.177
21897W        W88306  38.876  17.267   0.187
21898W        W88307   4.805   5.659  10.599
21899W        W88308  39.237   7.696   4.323
21900W        W88309  44.076  20.644   1.034
21901W        W88310  26.138  14.674   1.460
21902W        W88311  18.702  21.282   3.287
21903W        W88312  42.604  43.008  13.484
21904W        W88313   3.202  32.388  11.672
21905W        W88314  21.550  28.737  12.838
21906W        W88315   9.729  34.216   2.029
21907W        W88316  12.204  22.617  14.615
21908W        W88317  32.931  34.481  11.606
21909W        W88318  33.047  16.792   3.284
21910W        W88319   2.184  30.638   2.634
21911W        W88320  15.254  27.783   0.923
21912W        W88321  25.690   3.486   1.840
21913W        W88322   4.731  28.568   4.619
21914W        W88323   4.282  34.040  11.646
21915W        W88324   6.687  40.243   4.670
21916W        W88325  32.196  17.922   3.708
21917W        W88326   2.754   8.091   2.335
21918W        W88327  22.541  16.791   5.031
21919W        W88328  22.260  26.004  11.805
21920W        W88329  20.681  33.629  13.759
21921W        W88330  15.733  15.842   0.418
21922W        W88331  33.663  32.701  11.520
21923W        W88332  43.224   9.037   1.271
21924W        W88333  22.193   7.200   0.051
21925W        W88334  13.514  30.484  13.281
21926W        W88335  21.233   8.497  11.602
21927W        W88336  12.127  13.796   2.612
21928W        W88337   4.448  22.567   1.361
21929W        W88338  33.394  15.593   1.812
21930W        W88339   2.355  24.739   0.430
21931W        W88340  13.337   5.701   1.726
21932W        W88341   4.026  12.884  12.649
21933W        W88342   2.706  21.310  11.124
21934W        W88343   1.195  39.991   2.716
21935W        W88344  43.517  23.793  14.351
21936W        W88345   7.906  13.792   1.622
21937W        W88346  23.776  43.006  10.543
21938W        W88347   1.398  16.846  10.588
21939W        W88348  37.630  21.699   4.147
21940W        W88349  40.226  16.694  14.977
21941W        W88350   0.827  15.851  14.094
21942W        W88351  15.047  23.763   4.615
21943W        W88352   9.454  10.610   2.331
21944W        W88353  20.124  42.872  10.268
21945W        W88354  33.022  10.271  13.048
21946W        W88355  40.920  23.099   1.482
21947W        W88356  17.638  16.129  13.506
21948W        W88357  33.508  44.344  11.484
21949W        W88358  38.680   5.442   4.572
21950W        W88359  27.181  24.536   2.535
21951W        W88360   9.370  15.311  13.356
21952W        W88361  22.317  36.962  12.253
21953W        W88362   6.549  22.171   3.089
21954W        W88363  20.688  32.862  11.549
21955W        W88364  22.400   8.997   5.151
21956W        W88365  25.659  19.306  14.546
21957W        W88366  41.431  23.899   1.817
21958W        W88367  13.535  43.359   3.085
21959W        W88368   9.834  40.336   0.697
21960W        W88369  11.187  31.412  13.141
21961W        W88370  27.418  25.133  11.346
21962W        W88371  16.555  12.588  10.767
21963W        W88372  35.900   7.140  13.359
21964W        W88373  37.276   4.655  14.389
21965W        W88374  18.287  29.968  14.468
21966W        W88375  31.242  17.932   4.319
21967W        W88376  41.975  35.114  12.413
21968W        W88377  27.186  41.088   4.096
21969W        W88378  28.015  32.735   2.865
21970W        W88379  28.218   7.318  13.978
21971W        W88380  36.628  22.133  10.597
21972W        W88381  36.972  30.217   3.679
21973W        W88382   8.426  14.753  14.301
21974W        W88383  19.484  24.117   3.660
21975W        W88384   6.219  39.848   1.855
21976W        W88385  36.519  24.411   3.853
21977W        W88386  41.819  40.679  11.168
21978W        W88387  39.916  10.840  11.563
21979W        W88388  42.639   1.305  11.215
21980W        W88389  12.884  24.742   2.329
21981W        W88390   2.287  16.305  13.452
21982W        W88391  25.813  16.309  11.434
21983W        W88392  17.130   6.991   0.523
21984W        W88393  30.693   3.478  12.016
21985W        W88394   5.095  19.071   1.208
21986W        W88395  24.757   2.627  11.608
21987W        W88396  14.614  10.705   2.740
21988W        W88397   1.387  16.858  12.454
21989W        W88398  23.979  31.746   0.783
21990W        W88399  17.713   6.684  11.965
21991W        W88400  15.715   3.996  12.288
21992W        W88401   6.795   5.840   0.943
21993W        W88402  19.014  14.149   2.647
21994W        W88403  22.687  32.446   3.232
21995W        W88404  23.921   1.744  14.665
21996W        W88405  42.541  34.139  14.071
21997W        W88406  29.045  20.032  11.104
21998W        W88407  33.774  31.959  10.267
21999W        W88408   5.808   6.964  14.039
22000W        W88409   6.471  13.375  13.361
22001W        W88410  25.993  36.920   2.659
22002W        W88411   3.732  24.630   4.092
22003W        W88412   6.950  16.853  13.461
22004W        W88413  30.854  23.494   1.429
22005W        W88414   0.015   0.448   0.457
22006W        W88415  22.486  12.716   0.757
22007W        W88416  32.061  32.166   3.934
22008W        W88417  22.525   9.012   1.734
22009W        W88418  26.692   7.303   4.784
22010W        W88419  27.959  20.045   2.004
22011W        W88420  24.059  32.121   0.437
22012W        W88421  34.453  26.147  12.340
22013W        W88422   2.189  27.561   4.705
22014W        W88423  33.926  21.814  13.799
22015W        W88424  32.778  13.683  14.025
22016W        W88425  32.155  32.518   0.878
22017W        W88426  19.881  27.019  14.395
22018W        W88427  23.209  18.567   3.146
22019W        W88428   9.712  43.789   2.350
22020W        W88429  34.130  16.781   1.984
22021W        W88430  40.728   1.080  12.060
22022W        W88431   3.362   1.345   0.950
22023W        W88432  24.124   1.513   0.278
22024W        W88433  41.030   2.132  12.609
22025W        W88434  14.415  12.010  10.437
22026W        W88435  18.305  31.989  14.863
22027W        W88436  34.126  22.886   1.204
22028W        W88437  41.172  11.637  10.666
22029W        W88438  35.074  44.461   9.719
22030W        W88439   7.346  41.823   4.053
22031W        W88440   2.372  14.394  11.915
22032W        W88441  11.842  31.312  12.076
22033W        W88442  34.703   8.799  11.675
22034W        W88443  11.295  40.210   3.213
22035W        W88444  26.723  24.901  10.524
22036W        W88445  30.104  27.471   1.501
22037W        W88446  41.498  11.351  12.581
22038W        W88447  20.962  22.070   4.729
22039W        W88448   8.882  37.288   3.748
22040W        W88449  42.520  37.572   3.262
22041W        W88450  17.848  31.091   4.329
22042W        W88451  43.006  23.174   4.142
22043W        W88452  30.943  10.781   1.032
22044W        W88453  17.353   9.714  11.619
22045W        W88454   5.778  36.084  11.018
22046W        W88455   0.078  14.981  13.971
22047W        W88456   5.006  17.096   1.977
22048W        W88457  28.556  32.898   4.145
22049W        W88458  33.049   9.355  11.103
22050W        W88459  13.842   3.291  12.019
22051W        W88460  37.988   3.535  12.987
22052W        W88461  23.001   5.665  10.784
22053W        W88462  10.431  19.290  14.967
22054W        W88463  15.102  35.575   3.846
22055W        W88464  35.327  29.454   1.930
22056W        W88465  43.560  35.557  11.968
22057W        W88466   4.154  42.909  13.037
22058W        W88467  15.893  33.518   3.212
22059W        W88468   1.374  23.219   4.510
22060W        W88469  14.768  35.910   5.382
22061W        W88470  17.954  25.140   2.692
22062W        W88471  17.021  13.157  14.441
22063W        W88472   4.180  42.787  11.059
22064W        W88473   3.393  40.405   2.008
22065W        W88474  24.228  38.089  12.660
22066W        W88475  13.807  41.542  11.191
22067W        W88476  26.438  18.975   3.219
22068W        W88477  10.160  12.916  12.561
22069W        W88478  23.208  26.500  12.419
22070W        W88479  39.263  26.255   1.983
22071W        W88480   5.552  28.662   5.227
22072W        W88481  16.812  10.142  11.510
22073W        W88482  38.860   6.408  11.624
22074W        W88483  29.683  39.001  11.563
22075W        W88484  22.039  21.499   0.340
22076W        W88485  17.631  18.522   1.341
22077W        W88486   4.127   2.791  11.604
22078W        W88487  28.139   0.886   2.628
22079W        W88488  44.656  23.606   1.802
22080W        W88489  24.101  42.855  14.203
22081W        W88490   6.574   2.182  10.527
22082W        W88491  13.741  25.785  14.555
22083W        W88492  30.249  44.730  14.956
22084W        W88493  37.143  24.340   1.639
22085W        W88494  14.666  39.929  13.952
22086W        W88495  27.993  12.848  12.555
22087W        W88496   2.740  33.087  13.878
22088W        W88497   9.573   8.864   0.841
22089W        W88498  21.597  16.536  12.047
22090W        W88499   7.095  26.527   2.407
22091W        W88500  29.745  39.550  14.415
22092W        W88501  26.468  44.562  14.944
22093W        W88502   3.478  38.624  11.095
22094W        W88503   7.717  17.231   4.686
22095W        W88504   0.253  17.055  11.200
22096W        W88505  35.439  16.658   3.567
22097W        W88506  38.464  13.676  12.541
22098W        W88507  27.691   1.079   4.850
22099W        W88508  42.331   8.897   3.255
22100W        W88509  17.069  40.895   4.887
22101W        W88510  11.642   0.349   1.861
22102W        W88511  40.771  17.473  12.920
22103W        W88512  24.123  31.644  13.825
22104W        W88513   9.760  37.253   2.667
22105W        W88514  40.182  35.172  14.295
22106W        W88515  24.704   2.966  14.817
22107W        W88516  24.608  20.118   1.178
22108W        W88517  27.149  19.874  10.706
22109W        W88518  22.001  43.739   2.752
22110W        W88519  27.561  33.185   2.874
22111W        W88520  24.463  32.599   1.296
22112W        W88521  20.611   6.903   1.750
22113W        W88522  44.474   2.971  14.282
22114W        W88523  38.251  23.049   0.894
22115W        W88524  38.489  14.285   2.803
22116W        W88525   9.401  27.452  12.886
22117W        W88526   2.733  28.453  11.974
22118W        W88527  27.341  37.614   0.410
22119W        W88528  33.999  27.183   4.215
22120W        W88529  21.028  11.223   1.836
22121W        W88530   6.439  33.071  13.069
22122W        W88531  19.688  34.892   4.564
22123W        W88532  32.872   9.319  13.351
22124W        W88533  32.144  15.254  14.477
22125W        W88534  14.788  34.145   2.841
22126W        W88535  28.274  32.798   2.407
22127W        W88536  24.450  24.437   4.493
22128W        W88537  20.452  29.128   4.636
22129W        W88538  36.038  40.670  14.739
22130W        W88539  24.637  14.284  13.921
22131W        W88540  27.139  31.087  11.741
22132W        W88541   3.560   2.455   4.163
22133W        W88542  36.033  32.348  12.477
22134W        W88543  15.905  21.167  12.401
22135W        W88544  41.836  14.583  12.039
22136W        W88545  37.581   5.463   1.501
22137W        W88546  22.192  13.193   3.625
22138W        W88547  12.133  43.191  11.743
22139W        W88548  27.457  41.008   3.646
22140W        W88549  10.229  40.780   2.175
22141W        W88550   0.848  20.621   4.558
22142W        W88551  42.039  30.654   1.883
22143W        W88552   3.935  30.400   1.838
22144W        W88553   8.314  23.221   0.754
22145W        W88554   6.624   0.012   3.649
22146W        W88555  29.087   4.028  11.295
22147W        W88556  43.550   1.439   3.703
22148W        W88557  10.615   9.718  10.719
22149W        W88558  22.449  21.220   3.861
22150W        W88559  20.187  31.495   2.281
22151W        W88560  12.926  37.006   9.827
22152W        W88561  15.228  25.821   5.083
22153W        W88562  36.113   3.906  10.349
22154W        W88563  10.694  36.174  10.171
22155W        W88564  16.826  44.420  12.642
22156W        W88565  14.308  42.971  12.926
22157W        W88566  22.907   6.877   1.442
22158W        W88567  25.402  30.074  14.317
22159W        W88568  20.689  14.202   1.680
22160W        W88569  43.865  38.794  11.179
22161W        W88570  26.667  24.716  11.968
22162W        W88571  28.603  30.824   0.433
22163W        W88572   4.541  15.590  10.288
22164W        W88573  29.137  28.956  12.462
22165W        W88574  38.138  20.368  11.250
22166W        W88575  25.043  34.337  12.549
22167W        W88576   3.359  15.743   2.046
22168W        W88577  37.479  12.877   0.689
22169W        W88578  42.327  27.552   1.515
22170W        W88579  29.385  19.156  14.345
22171W        W88580  38.214  37.758   4.968
22172W        W88581  35.343  43.728  10.786
22173W        W88582  41.441  29.437   4.903
22174W        W88583  18.251   5.825  12.992
22175W        W88584  42.008  27.457  10.789
22176W        W88585  14.885  26.104   0.889
22177W        W88586  41.781  39.221  11.563
22178W        W88587  40.553  38.894  12.587
22179W        W88588  10.108  13.473   4.463
22180W        W88589  19.453  42.901   4.059
22181W        W88590  35.137  33.491   3.850
22182W        W88591  10.344  27.959   1.162
22183W        W88592  11.622  24.496  11.079
22184W        W88593   9.396  17.543  10.983
22185W        W88594   1.508  32.091   4.803
22186W        W88595  40.067  29.545  14.923
22187W        W88596  19.716  28.511   1.401
22188W        W88597  17.100   7.431  10.644
22189W        W88598   9.964   5.736  12.466
22190W        W88599  29.220  13.761  13.747
22191W        W88600  14.132  27.446   0.358
22192W        W88601  27.029  22.941  11.423
22193W        W88602  17.582  40.051  11.695
22194W        W88603  15.675   2.301   1.920
22195W        W88604   9.693   6.298  11.174
22196W        W88605   3.103  41.547  14.602
22197W        W88606   5.126  33.016   0.223
22198W        W88607   7.899  27.540   3.262
22199W        W88608  43.976   7.498  12.930
22200W        W88609  16.648  34.993  12.080
22201W        W88610  26.400  17.093  14.461
22202W        W88611  10.851   6.211  12.977
22203W        W88612  38.819  32.684   0.769
22204W        W88613   6.377   1.938   1.764
22205W        W88614   9.394  41.587   2.503
22206W        W88615  40.427  25.937   4.439
22207W        W88616  17.342  43.748  14.570
22208W        W88617  44.242  34.953  14.839
22209W        W88618  29.851   5.357   9.779
22210W        W88619   3.732  32.795   2.704
22211W        W88620  12.593  41.476   2.680
22212W        W88621  10.836  26.235   2.097
22213W        W88622  29.212   0.385  10.905
22214W        W88623  38.567  38.077   2.764
22215W        W88624   2.312  37.594   1.004
22216W        W88625  26.139   3.659  14.426
22217W        W88626   2.751   1.404  12.796
22218W        W88627   5.550  29.917  13.872
22219W        W88628  42.389  36.394   2.880
22220W        W88629   4.373   9.835  14.377
22221W        W88630  44.750   0.293   0.896
22222W        W88631  19.698   4.294  14.884
22223W        W88632  25.381  26.921   2.184
22224W        W88633   6.829  31.937  12.989
22225W        W88634  13.867  36.287   1.413
22226W        W88635  31.318  25.537   1.500
22227W        W88636  20.166  33.674  13.478
22228W        W88637  24.661  10.135   2.364
22229W        W88638  37.865  40.539   4.259
22230W        W88639   2.690  23.240   1.953
22231W        W88640  37.367  28.983   4.937
22232W        W88641  10.289  37.006   3.706
22233W        W88642   7.624  29.225  13.244
22234W        W88643  20.630  11.323   3.139
22235W        W88644  11.773   4.765  12.512
22236W        W88645   1.449   6.161  10.566
22237W        W88646   9.856  13.887   4.700
22238W        W88647   7.403  35.053   5.002
22239W        W88648  30.016   3.795   4.846
22240W        W88649   8.360   6.757  12.870
22241W        W88650  44.830  10.857   0.952
22242W        W88651  33.889  43.770   0.767
22243W        W88652  28.124  42.440   4.058
22244W        W88653  36.951  28.510  10.639
22245W        W88654  43.048  16.724  12.967
22246W        W88655   2.810  43.027   2.203
22247W        W88656  44.284  43.244   2.196
22248W        W88657  43.604   2.510   1.276
22249W        W88658  43.806  42.215  14.861
22250W        W88659   1.209  29.162   2.688
22251W        W88660  35.609  22.658  12.375
22252W        W88661  39.236  14.753   0.314
22253W        W88662  35.754   7.203  14.720
22254W        W88663  35.447  42.307   1.409
22255W        W88664  41.374   1.264  12.635
22256W        W88665  29.887  15.318   1.396
22257W        W88666  35.502  23.247   2.316
22258W        W88667  25.660  29.701  13.573
22259W        W88668  42.009  20.751   1.889
22260W        W88669  37.623   8.315  10.949
22261W        W88670  39.993  42.894   2.262
22262W        W88671  36.934  30.095  10.915
22263W        W88672  30.594  10.330  11.114
22264W        W88673  25.704  17.190  11.454
22265W        W88674  22.312  28.781   4.509
22266W        W88675  33.161   5.455  14.862
22267W        W88676  17.318  36.051  14.238
22268W        W88677   5.657  20.555  11.771
22269W        W88678  15.661  18.540   1.853
22270W        W88679   3.269  41.811  11.051
22271W        W88680  13.793  30.643  13.819
22272W        W88681  43.410  30.917   5.293
22273W        W88682  13.274   0.793  12.998
22274W        W88683   7.824   3.797   4.403
22275W        W88684   9.662  37.689   1.802
22276W        W88685  31.052  29.423  14.029
22277W        W88686  31.373  32.977  12.462
22278W        W88687  27.974  33.323  13.293
22279W        W88688  36.622  36.077   0.391
22280W        W88689  11.675  43.736  10.238
22281W        W88690  37.598  23.025  14.199
22282W        W88691  31.164  16.218  11.596
22283W        W88692  38.876  11.754  12.150
22284W        W88693  38.084  40.554  14.536
22285W        W88694   5.206  13.807   4.828
22286W        W88695  40.341  37.627  13.860
22287W        W88696   3.026  31.680   2.944
22288W        W88697  19.521  34.060   3.748
22289W        W88698  37.566  36.069   0.311
22290W        W88699  39.057   3.890   1.971
22291W        W88700  36.376  18.405  10.797
22292W        W88701   4.278  14.355  14.604
22293W        W88702  43.932  14.695   3.053
22294W        W88703  14.214  40.015   3.818
22295W        W88704   0.784  13.584  14.948
22296W        W88705  18.535   4.782  10.818
22297W        W88706  36.029   3.430  14.396
22298W        W88707  27.913  26.627  10.663
22299W        W88708  14.622  39.050  12.782
22300W        W88709  18.831  12.762  11.174
22301W        W88710  25.054  13.334  11.529
22302W        W88711   8.734   2.897  11.859
22303W        W88712  25.748   4.389  12.246
22304W        W88713  35.543  38.605   1.382
22305W        W88714  16.725   6.991   0.855
22306W        W88715  16.868  35.313   2.564
22307W        W88716  37.415  20.983   4.924
22308W        W88717  33.076   1.489   0.844
22309W        W88718  12.431  43.934   4.751
22310W        W88719  30.077   2.033   1.382
22311W        W88720  20.593  25.651  11.395
22312W        W88721   8.110  18.570   0.352
22313W        W88722  17.831  14.831   0.836
22314W        W88723  26.244  37.691  10.976
22315W        W88724  42.862   4.251   0.353
22316W        W88725  28.214  10.879   4.153
22317W        W88726  19.537  42.344   0.765
22318W        W88727  18.013  28.986   4.113
22319W        W88728   7.720  40.458  11.136
22320W        W88729   8.672  25.487   2.845
22321W        W88730  16.103  37.459   0.914
22322W        W88731  10.306  12.799  12.050
22323W        W88732  16.004  21.552   1.762
22324W        W88733   6.696  33.645   3.622
22325W        W88734   6.235  43.429   0.210
22326W        W88735  11.728  11.473  12.109
22327W        W88736   0.817  36.892  14.730
22328W        W88737  29.473  29.076  12.877
22329W        W88738  34.512   9.333  11.904
22330W        W88739   0.883  29.108   2.241
22331W        W88740  37.288  12.832  13.081
22332W        W88741  30.973  25.984   3.236
22333W        W88742   3.007  12.265  12.389
22334W        W88743  43.450  14.939  12.528
22335W        W88744  37.941  27.190  13.096
22336W        W88745  10.112   7.671   4.176
22337W        W88746  39.761   3.298   3.278
22338W        W88747  21.056   2.890  13.782
22339W        W88748  33.276  24.828   0.904
22340W        W88749  21.598   5.991  13.433
22341W        W88750  35.665  41.305   2.949
22342W        W88751  41.525  26.466  11.630
22343W        W88752  22.749   8.996  13.442
22344W        W88753  32.085   0.348   4.583
22345W        W88754  28.019  33.303  11.915
22346W        W88755  41.969   0.734  12.044
22347W        W88756  34.648  44.108   2.106
22348W        W88757   0.989  12.045   5.124
22349W        W88758  40.375  13.961  12.977
22350W        W88759  36.342  37.888  13.940
22351W        W88760  43.729  22.141  11.518
22352W        W88761  37.366  12.703  10.939
22353W        W88762  10.643  19.798  13.740
22354W        W88763  35.430  43.437  13.407
22355W        W88764  30.708  18.736   0.214
22356W        W88765   7.189  17.136  13.871
22357W        W88766  18.418   0.859   0.314
22358W        W88767   5.798   3.462   0.497
22359W        W88768  14.888  24.023   1.604
22360W        W88769  12.103  18.584   1.686
22361W        W88770   7.394  42.593  14.855
22362W        W88771  26.112  35.451  12.878
22363W        W88772  23.499  28.004   2.229
22364W        W88773  27.436   3.432  12.445
22365W        W88774   2.421  41.336   3.608
22366W        W88775  16.798  14.313  14.736
22367W        W88776  15.967  32.907  14.842
22368W        W88777   0.112  10.412   3.109
22369W        W88778  12.411  36.025  12.622
22370W        W88779  32.975  21.779   2.181
22371W        W88780  24.043   3.843   4.550
22372W        W88781  26.292  25.139  10.285
22373W        W88782  29.808   9.322  13.156
22374W        W88783  17.711  40.264   2.807
22375W        W88784   4.853   2.302   3.599
22376W        W88785  14.314  33.656   3.462
22377W        W88786  10.111  35.307   4.144
22378W        W88787  35.509  39.762  10.616
22379W        W88788  18.600   8.301  13.594
22380W        W88789   3.257  27.753  13.063
22381W        W88790   1.273   2.362   1.921
22382W        W88791   1.390  36.855  13.954
22383W        W88792   7.913  21.104  14.099
22384W        W88793  13.549   7.285  11.686
22385W        W88794  14.695  32.998  14.013
22386W        W88795  26.619  41.025   3.935
22387W        W88796  35.096  37.602  10.219
22388W        W88797   3.587   7.474   4.070
22389W        W88798  12.677  28.370   4.582
22390W        W88799   4.702   6.181   0.924
22391W        W88800   4.621   3.700  12.461
22392W        W88801  25.676  44.796  12.415
22393W        W88802  27.437  30.057  11.619
22394W        W88803  36.393  41.572   0.208
22395W        W88804  12.900  41.898  12.110
22396W        W88805  15.152  10.320  14.337
22397W        W88806  16.055  30.497   1.194
22398W        W88807  34.039  12.159   4.752
22399W        W88808  34.651  30.401  12.983
22400W        W88809  32.942  21.963   0.795
22401W        W88810  13.177   9.032  11.060
22402W        W88811  17.790  29.208   3.688
22403W        W88812   0.783  23.782   0.844
22404W        W88813  25.742  10.688   2.632
22405W        W88814  13.947  39.069   4.252
22406W        W88815  42.784  37.131  10.753
22407W        W88816  28.376   5.465   3.537
22408W        W88817  36.612  36.349   1.235
22409W        W88818  10.232  19.278  13.108
22410W        W88819  27.677  38.961   4.411
22411W        W88820  27.636  14.669   1.343
22412W        W88821  31.239   6.903  11.701
22413W        W88822  24.704  25.142  10.819
22414W        W88823  14.665  10.360  12.456
22415W        W88824  37.372  23.638   4.069
22416W        W88825   6.775  24.983  11.207
22417W        W88826  22.705  10.238  14.752
22418W        W88827  19.313   2.547  13.596
22419W        W88828  42.073   7.341   0.973
22420W        W88829  18.138  14.682   3.810
22421W        W88830  26.094  37.004   1.129
22422W        W88831  26.628  40.069   0.958
22423W        W88832  15.195   8.370  14.985
22424W        W88833  32.112  37.656   3.746
22425W        W88834   9.634  22.980  10.253
22426W        W88835   5.184   6.742  11.468
22427W        W88836   0.337  43.558  14.458
22428W        W88837   5.770  19.786   3.387
22429W        W88838  33.317   5.499  12.822
22430W        W88839  44.877   1.663  13.996
22431W        W88840  32.099  24.718   2.622
22432W        W88841  20.819   4.931  11.560
22433W        W88842  42.841  30.848  13.096
22434W        W88843   3.445  29.531  10.743
22435W        W88844  26.962  32.875   1.885
22436W        W88845  35.142  24.012  14.732
22437W        W88846  21.250  32.504   4.572
22438W        W88847   4.776   0.328   2.794
22439W        W88848  26.737   3.212  11.209
22440W        W88849  30.028  14.272  13.472
22441W        W88850   0.837  27.828  10.612
22442W        W88851   9.866  30.373  10.553
22443W        W88852   1.935  36.165   4.137
22444W        W88853  30.123  15.238  13.752
22445W        W88854   9.931  24.761   1.859
22446W        W88855   6.811  39.018  14.962
22447W        W88856  13.207   0.770   3.507
22448W        W88857  39.487  14.403   4.540
22449W        W88858  21.069  41.859  14.102
22450W        W88859  23.586  11.602   2.404
22451W        W88860  27.763  24.134   1.043
22452W        W88861  16.685  34.616  14.416
22453W        W88862  11.606  38.435  14.022
22454W        W88863   9.135  34.537  13.440
22455W        W88864   1.748  37.990   4.330
22456W        W88865   0.833  38.512   2.874
22457W        W88866   2.826  38.653  13.326
22458W        W88867   0.929  28.670   4.897
22459W        W88868  31.869   1.144  12.999
22460W        W88869   8.756   1.297  10.946
22461W        W88870  14.171  26.585  14.339
22462W        W88871   7.766  35.355  13.898
22463W        W88872  22.271  38.746   1.482
22464W        W88873  43.869  15.792  14.468
22465W        W88874  25.818  24.995  14.359
22466W        W88875  21.057  20.112   0.486
22467W        W88876  16.563  37.770   3.063
22468W        W88877  41.318  17.144  11.419
22469W        W88878  37.095  18.985  13.926
22470W        W88879   1.766  11.594  12.524
22471W        W88880   6.498   0.837  14.949
22472W        W88881  26.942  22.612   2.120
22473W        W88882   4.750  17.533  14.489
22474W        W88883   4.258   2.518   4.553
22475W        W88884  31.593  29.919  12.110
22476W        W88885  28.987  35.905  11.669
22477W        W88886  34.497  26.066  14.516
22478W        W88887   7.098  31.694   5.062
22479W        W88888   7.341  41.490  12.981
22480W        W88889  30.041   0.515  13.986
22481W        W88890  24.435  25.671  10.240
22482W        W88891   8.594  16.679   2.584
22483W        W88892   7.555  43.088  12.558
22484W        W88893  25.071  17.229   2.467
22485W        W88894  38.053   6.704   1.452
22486W        W88895  26.501  25.210  10.867
22487W        W88896  24.255  30.653   2.802
22488W        W88897   3.843  16.036   0.848
22489W        W88898   6.421  38.807   0.241
22490W        W88899  32.092  17.517  12.402
22491W        W88900  44.879  30.027  11.234
22492W        W88901  21.482  15.110   4.546
22493W        W88902  35.443  38.617   1.928
22494W        W88903  25.645   2.212   3.670
22495W        W88904  38.497  20.194   1.469
22496W        W88905  31.934  33.936   2.142
22497W        W88906  26.080  32.912   1.866
22498W        W88907  27.500  29.144  11.544
22499W        W88908  24.051  10.102  10.819
22500W        W88909  44.369   1.654   0.876
22501W        W88910  20.713   7.498   4.036
22502W        W88911  42.539  36.765  13.319
22503W        W88912  41.402  31.006   3.197
22504W        W88913  36.993   6.217   4.511
22505W        W88914   6.697  10.717  13.439
22506W        W88915  34.621  34.848   2.938
22507W        W88916  43.449  44.059  14.972
22508W        W88917  37.518   9.721  11.238
22509W        W88918  18.678  12.722   3.060
22510W        W88919  25.752   5.839   0.407
22511W        W88920   1.769  43.451   3.273
22512W        W88921  30.414   6.731   2.586
22513W        W88922  22.083  10.599   1.924
22514W        W88923   3.452  41.943  14.704
22515W        W88924   2.448  24.051  11.464
22516W        W88925  24.277   9.349   3.522
22517W        W88926  28.572   1.426  14.246
22518W        W88927   2.462  22.362   5.001
22519W        W88928  34.114  20.207  10.750
22520W        W88929   7.750  17.328  10.682
22521W        W88930  39.072  38.330   4.110
22522W        W88931  23.629   3.177  14.426
22523W        W88932   8.392   5.197   3.675
22524W        W88933   7.462  11.121  12.537
22525W        W88934  17.060  25.171   2.742
22526W        W88935  24.010  35.940   2.801
22527W        W88936  43.806  37.291   3.261
22528W        W88937  35.409   3.780  14.471
22529W        W88938  15.240  18.140   4.828
22530W        W88939  39.649  20.260  12.412
22531W        W88940  37.897   9.848  10.417
22532W        W88941  17.476   6.397   5.153
22533W        W88942  20.017   5.633   0.983
22534W        W88943  19.231  26.045   4.782
22535W        W88944  39.081  41.320   0.296
22536W        W88945  35.439   5.247   3.148
22537W        W88946  44.330  19.622  13.394
22538W        W88947   1.312   5.351  10.755
22539W        W88948  39.455  30.333   1.132
22540W        W88949   4.453  19.274   0.087
22541W        W88950   8.833  12.272   0.225
22542W        W88951  38.719  11.636  13.499
22543W        W88952   2.826  41.247   2.561
22544W        W88953   0.583  32.453   3.905
22545W        W88954  34.076   0.487   2.359
22546W        W88955  23.484  13.867   1.838
22547W        W88956  13.183   6.933  11.129
22548W        W88957   7.210   9.439  11.524
22549W        W88958  41.574  37.848  13.530
22550W        W88959  40.313  44.906  12.514
22551W        W88960  33.645  16.047  11.554
22552W        W88961  28.971  34.918   0.412
22553W        W88962   8.006  12.634   0.030
22554W        W88963  24.584  31.334  12.523
22555W        W88964  10.660  19.568  12.422
22556W        W88965  13.897  41.896   4.196
22557W        W88966  19.246  27.709  14.309
22558W        W88967  43.328  41.811   4.700
22559W        W88968  12.558   1.799  12.730
22560W        W88969  15.358   6.901  11.707
22561W        W88970  13.389  29.005   2.710
22562W        W88971  22.968  28.521  14.814
22563W        W88972  36.030  15.653   2.427
22564W        W88973  12.288  12.659  13.829
22565W        W88974  31.042  31.443  11.612
22566W        W88975  40.971  17.044   1.956
22567W        W88976  35.717  13.726  13.014
22568W        W88977  26.999  18.658   1.418
22569W        W88978  14.015  40.177  13.089
22570W        W88979   9.927  26.198   2.591
22571W        W88980   1.689  20.351  11.068
22572W        W88981  44.451  35.422   4.207
22573W        W88982  40.344  39.346  13.809
22574W        W88983  11.887  30.620  11.579
22575W        W88984   1.208  15.058   3.681
22576W        W88985  34.345  17.085  11.266
22577W        W88986  28.237  31.411   3.656
22578W        W88987  18.686  13.172   4.855
22579W        W88988  41.747  27.866  13.480
22580W        W88989  35.056  33.931  13.925
22581W        W88990  34.752   8.127   4.298
22582W        W88991  30.373  33.947  14.351
22583W        W88992  18.186  20.042  11.089
22584W        W88993  35.889  33.533   0.076
22585W        W88994  11.382  43.164  14.463
22586W        W88995  22.994  19.233  10.621
22587W        W88996  23.046  23.338  12.570
22588W        W88997  42.435  16.229   0.097
22589W        W88998   7.707  23.078   4.536
22590W        W88999  39.736  44.528  13.388
22591W        W89000  27.988  22.079  11.123
22592W        W89001  18.253   1.438   4.047
22593W        W89002  35.354  19.287  10.163
22594W        W89003  33.176   2.283  12.522
22595W        W89004  22.789  28.935   0.844
22596W        W89005  41.339  10.850  12.526
22597W        W89006  10.205  36.287   4.183
22598W        W89007   6.370   9.724  11.548
22599W        W89008  13.424  15.428   5.114
22600W        W89009   2.786  29.033   1.230
22601W        W89010  14.635  19.825   4.481
22602W        W89011  32.852  15.231  13.249
22603W        W89012   0.359  19.164   1.406
22604W        W89013  20.132   2.281   4.516
22605W        W89014  38.357  12.782  14.019
22606W        W89015   8.928  36.215  11.608
22607W        W89016  30.573  37.615   1.718
22608W        W89017  20.810  40.019   4.258
22609W        W89018  12.880  19.044   4.149
22610W        W89019  37.429   3.482  14.060
22611W        W89020  12.144  17.130  14.113
22612W        W89021  30.449  29.078   4.189
22613W        W89022  15.687   2.851   2.593
22614W        W89023   6.923  30.355   3.723
22615W        W89024  25.595  16.089   3.219
22616W        W89025  30.419  30.904  11.982
22617W        W89026  24.646  38.553  10.845
22618W        W89027  24.411   1.528  14.757
22619W        W89028  10.285  33.595   1.389
22620W        W89029  13.639   2.235   0.772
22621W        W89030  27.119  18.123  14.736
22622W        W89031  26.149  26.784   2.338
22623W        W89032  24.293  40.551   0.775
22624W        W89033   2.253   2.018  14.793
22625W        W89034  10.142   9.745   4.453
22626W        W89035   1.735  36.965   0.638
22627W        W89036  17.278  10.809  13.080
22628W        W89037  19.992  25.265   0.673
22629W        W89038  31.726   6.684  13.345
22630W        W89039  32.889  38.897   2.351
22631W        W89040   1.347   7.662  10.548
22632W        W89041  35.292   4.165   4.001
22633W        W89042  27.452  30.092  12.717
22634W        W89043  25.405  37.512  11.012
22635W        W89044   3.170  13.749  12.456
22636W        W89045  36.181  35.919   4.469
22637W        W89046  40.000  42.798  13.448
22638W        W89047  23.228   9.254   3.683
22639W        W89048  31.048  29.779  14.411
22640W        W89049  35.084  34.833   1.812
22641W        W89050  10.358  27.508   2.230
22642W        W89051  44.266  14.460   4.702
22643W        W89052  20.261   1.438  12.634
22644W        W89053  24.633   9.748   3.603
22645W        W89054   5.393   8.670   4.214
22646W        W89055  24.485  13.039   1.365
22647W        W89056  35.961   9.741   3.256
22648W        W89057   1.286   7.961   2.304
22649W        W89058  12.634  22.936  12.421
22650W        W89059  12.017  25.622   4.307
22651W        W89060  39.875  32.155  10.623
22652W        W89061  11.302  27.729  11.181
22653W        W89062  36.620   9.580   1.434
22654W        W89063  15.220  22.159   4.038
22655W        W89064  17.597  40.723  10.170
22656W        W89065  25.959  22.991   2.726
22657W        W89066  21.076   4.397  10.690
22658W        W89067  20.800  10.328   3.621
22659W        W89068  40.346   8.791  10.303
22660W        W89069   8.244  19.768  14.635
22661W        W89070  41.499   5.435  12.496
22662W        W89071  41.399  29.051  13.273
22663W        W89072   0.954  36.558  13.910
22664W        W89073  27.062  27.890   2.558
22665W        W89074  19.031  24.594   1.312
22666W        W89075  39.380  36.502   3.559
22667W        W89076  43.038  42.072  13.094
22668W        W89077  24.727   4.941   4.833
22669W        W89078  25.191  21.774   0.810
22670W        W89079   8.824  14.606  12.422
22671W        W89080  24.455   4.643  12.702
22672W        W89081  24.674   5.324   1.832
22673W        W89082  34.078  44.340  14.448
22674W        W89083   8.193  17.548  13.382
22675W        W89084  17.206  43.940   0.845
22676W        W89085  39.143  31.618  12.407
22677W        W89086  18.365  40.618   5.023
22678W        W89087  17.019  33.416  10.668
22679W        W89088  34.481   5.959   4.517
22680W        W89089  12.537   4.463  10.112
22681W        W89090  23.203  29.674  14.050
22682W        W89091  35.882  30.883  12.144
22683W        W89092  17.367  18.462  12.615
22684W        W89093  36.409  29.953  12.880
22685W        W89094  14.698  24.509  10.480
22686W        W89095  15.331  39.528  10.810
22687W        W89096  35.134  19.159  12.909
22688W        W89097  31.625  24.522  12.394
22689W        W89098   1.418  19.506  14.374
22690W        W89099  30.960  20.639   1.316
22691W        W89100  41.525  39.394  14.544
22692W        W89101   9.016   2.032  12.862
22693W        W89102   3.792  17.208   4.501
22694W        W89103  44.079   0.345   2.292
22695W        W89104  40.436  19.308   4.203
22696W        W89105   3.201  20.673  10.971
22697W        W89106  30.131   5.441   3.657
22698W        W89107   2.766  29.997   1.375
22699W        W89108   5.942  25.189   2.702
22700W        W89109  25.864  10.104   4.147
22701W        W89110   2.376  23.892  14.343
22702W        W89111  16.190  38.190  13.987
22703W        W89112  27.256  31.386  13.897
22704W        W89113  30.102  33.935   0.679
22705W        W89114  33.619   8.641  10.292
22706W        W89115   6.806  33.965  11.123
22707W        W89116   9.169  22.997   4.647
22708W        W89117  43.559   6.677  11.980
22709W        W89118  42.435  21.239  11.222
22710W        W89119  28.444  28.179  10.707
22711W        W89120   5.507   6.899  14.897
22712W        W89121   0.760  29.102  13.994
22713W        W89122  22.090  21.979   2.653
22714W        W89123  25.231   6.172  14.029
22715W        W89124  42.730  32.561  13.614
22716W        W89125   3.827  35.319   2.810
22717W        W89126  15.315  38.045  12.571
22718W        W89127  14.573  42.843  11.440
22719W        W89128   9.426  11.094   2.536
22720W        W89129  29.906  37.927  14.302
22721W        W89130  43.248  13.792  13.075
22722W        W89131  21.495  11.813  11.724
22723W        W89132  28.827  41.373   3.667
22724W        W89133   9.895  16.012   4.119
22725W        W89134  36.048  15.366  12.075
22726W        W89135  22.452  20.711   0.933
22727W        W89136   8.166  13.964   3.257
22728W        W89137   2.532  18.858   1.738
22729W        W89138  35.930  40.085   3.214
22730W        W89139  18.301  31.858   4.548
22731W        W89140  19.648  32.748  13.376
22732W        W89141   1.568  14.187   3.596
22733W        W89142  24.900   7.271  13.628
22734W        W89143  35.061   8.913   3.631
22735W        W89144  21.759  19.800  11.552
22736W        W89145  22.522  13.536  13.110
22737W        W89146  22.438  28.487  12.704
22738W        W89147  10.163  37.367   0.732
22739W        W89148   5.702  42.736  10.561
22740W        W89149  28.961  32.975   1.084
22741W        W89150   9.983  12.712   0.759
22742W        W89151  31.041  19.546   2.310
22743W        W89152  17.727  33.014   1.229
22744W        W89153  16.065  42.793   0.306
22745W        W89154  18.165  42.792  11.382
22746W        W89155   5.867  19.581   2.893
22747W        W89156  39.143  29.652  12.404
22748W        W89157   1.008  41.542   2.758
22749W        W89158  12.408  36.338  10.727
22750W        W89159  44.989  17.027   4.180
22751W        W89160  38.075  31.942   0.747
22752W        W89161  18.407  20.417  14.814
22753W        W89162  36.457  30.426  11.586
22754W        W89163  14.589  16.970   2.895
22755W        W89164   2.801  42.092   1.247
22756W        W89165  35.298  43.780  14.975
22757W        W89166  11.546  19.786  14.015
22758W        W89167  40.896  27.730   3.654
22759W        W89168  12.202  43.544  12.140
22760W        W89169  16.742  31.458  12.461
22761W        W89170  21.311  21.129  14.343
22762W        W89171  20.260  35.034   3.870
22763W        W89172   6.640  36.586  13.317
22764W        W89173   0.447  11.234   3.610
22765W        W89174   7.184   2.781  14.502
22766W        W89175   8.604  23.721  12.915
22767W        W89176  43.916  17.237   0.214
22768W        W89177  11.212  20.539   0.464
22769W        W89178  24.994   3.270   4.999
22770W        W89179  10.300  15.864   4.848
22771W        W89180  11.733  34.608   2.835
22772W        W89181  24.075  43.360   1.033
22773W        W89182   7.260  22.700  10.627
22774W        W89183   3.463  20.062   3.364
22775W        W89184  26.431   8.892  13.198
22776W        W89185  19.048  13.688  10.690
22777W        W89186   8.191  21.688   3.823
22778W        W89187   6.582  17.736  13.573
22779W        W89188  42.560  23.973  12.037
22780W        W89189  19.625  24.232  12.110
22781W        W89190   1.822   4.485   4.062
22782W        W89191  26.081  29.731   1.725
22783W        W89192   1.398  42.236   2.226
22784W        W89193   0.898   7.902   3.584
22785W        W89194   4.656  10.614   0.681
22786W        W89195  24.051   8.320   4.206
22787W        W89196  11.351  34.178  13.033
22788W        W89197  24.705  33.801  14.158
22789W        W89198  34.868  27.489  12.015
22790W        W89199  25.211  44.351  11.530
22791W        W89200  25.424  26.915  10.586
22792W        W89201  36.346  39.568   4.534
22793W        W89202  21.794   0.998   3.187
22794W        W89203  30.601  39.819   2.373
22795W        W89204  11.633  26.917   1.782
22796W        W89205  32.434   7.856   0.909
22797W        W89206  41.906  20.421  14.016
22798W        W89207   9.147  39.121  11.584
22799W        W89208   7.436   3.912  10.728
22800W        W89209  12.971  18.572  11.170
22801W        W89210  16.746   1.380   2.148
22802W        W89211  20.098  25.461  11.463
22803W        W89212  44.417  34.044   0.031
22804W        W89213  19.553  39.426  12.053
22805W        W89214  42.868   9.292   0.921
22806W        W89215  30.978  30.905   1.757
22807W        W89216   9.437  45.000  14.865
22808W        W89217   7.393  16.096   1.847
22809W        W89218  11.421  32.439   1.975
22810W        W89219  42.489  39.292   0.016
22811W        W89220  41.204   9.081  14.220
22812W        W89221  24.032  12.563  12.825
22813W        W89222  10.825  11.234  11.010
22814W        W89223  37.667  21.609   0.688
22815W        W89224   9.794  19.990  13.255
22816W        W89225  15.591  44.470  12.431
22817W        W89226  42.003   9.184   0.357
22818W        W89227  43.031  14.708  12.356
22819W        W89228  20.760  30.469  13.207
22820W        W89229   5.177   6.717   2.234
22821W        W89230  27.201  38.493   3.691
22822W        W89231  30.392   6.864  10.752
22823W        W89232  26.361  14.214  10.257
22824W        W89233  28.173   6.929   4.416
22825W        W89234  31.993  44.539   1.738
22826W        W89235   2.210  43.306  13.439
22827W        W89236   6.776  29.123  11.477
22828W        W89237  40.127  29.588   4.273
22829W        W89238  27.658  40.992  11.564
22830W        W89239  23.681  12.493   1.300
22831W        W89240  30.968  33.472   3.682
22832W        W89241  19.848  23.707  14.886
22833W        W89242  32.848  34.064  14.584
22834W        W89243  33.391  14.715   4.864
22835W        W89244  41.169   7.827  11.616
22836W        W89245   3.189  41.033  10.475
22837W        W89246   1.563  12.391  14.949
22838W        W89247  13.158  35.148   4.736
22839W        W89248  38.769  24.543   2.362
22840W        W89249  36.715  25.506   2.778
22841W        W89250  29.239  25.009  10.303
22842W        W89251  17.419   3.200   1.717
22843W        W89252  16.021  23.129  10.104
22844W        W89253  43.242  14.220   4.560
22845W        W89254  24.573  34.050   0.978
22846W        W89255  36.927  16.238  12.232
22847W        W89256   5.393  41.337   1.271
22848W        W89257  40.819  39.696  12.598
22849W        W89258  22.614  19.717  12.127
22850W        W89259  13.633   3.737   0.238
22851W        W89260   9.385  30.538  14.893
22852W        W89261  16.553  31.516  14.914
22853W        W89262  33.560  28.201   4.564
22854W        W89263   4.731   3.836   3.276
22855W        W89264   4.900  16.082   1.245
22856W        W89265   2.168   7.796  10.970
22857W        W89266  29.934  28.732   1.232
22858W        W89267  23.999   2.698   4.548
22859W        W89268  30.222   0.874   0.754
22860W        W89269  41.331  32.617   3.299
22861W        W89270   7.121  39.998   4.559
22862W        W89271  43.743   2.808   3.135
22863W        W89272  10.628  19.608   4.222
22864W        W89273  40.297   9.461  13.956
22865W        W89274  41.378  17.854  11.593
22866W        W89275  44.388   6.166   4.373
22867W        W89276  39.363  31.523   2.370
22868W        W89277  28.249  23.134   4.989
22869W        W89278  40.842  23.706  13.613
22870W        W89279  31.315   4.340   1.011
22871W        W89280  31.545   7.275  11.853
22872W        W89281  31.537  14.179  14.697
22873W        W89282  39.998   1.116  10.629
22874W        W89283  27.388  30.702   2.550
22875W        W89284  13.785  18.827   2.214
22876W        W89285  24.978  36.512   3.267
22877W        W89286  22.110   2.421   3.678
22878W        W89287  44.770   2.456   0.439
22879W        W89288  29.589  24.560  10.965
22880W        W89289  15.354  23.939  13.850
22881W        W89290   4.889   2.266  12.493
22882W        W89291   0.685  11.424  12.610
22883W        W89292  13.584  28.064  10.883
22884W        W89293  31.027   5.973  14.817
22885W        W89294  39.562  16.081   3.643
22886W        W89295  34.838  11.877   2.238
22887W        W89296  43.015  34.591   2.772
22888W        W89297  26.822  24.251   2.757
22889W        W89298  37.107   7.652   3.101
22890W        W89299  12.201  24.977  13.426
22891W        W89300  44.914  36.289  11.588
22892W        W89301  40.805  33.407   3.129
22893W        W89302  32.508  39.055  11.507
22894W        W89303  35.985  38.938   1.893
22895W        W89304   6.904  37.531  10.663
22896W        W89305  28.074   8.736  11.452
22897W        W89306   5.025  37.223   4.514
22898W        W89307  33.160  13.816   0.862
22899W        W89308  36.868  40.841   0.522
22900W        W89309  14.721  15.395  14.402
22901W        W89310  42.362  13.164   4.733
22902W        W89311  22.557  41.547  10.790
22903W        W89312  28.364  23.570   0.688
22904W        W89313  38.103   2.226  11.004
22905W        W89314  24.051   5.116  11.952
22906W        W89315  18.241  27.773   1.410
22907W        W89316  14.532  17.600  13.083
22908W        W89317  39.430  15.655   2.708
22909W        W89318  38.882  31.164  12.460
22910W        W89319  22.697  40.581  13.013
22911W        W89320  30.024   1.433  10.234
22912W        W89321  24.476  29.345   3.341
22913W        W89322   1.819  29.150   0.262
22914W        W89323   1.060  34.402   0.279
22915W        W89324  11.539  37.156  10.184
22916W        W89325  17.165  26.577   2.359
22917W        W89326  17.086  29.906   2.691
22918W        W89327  17.821  26.062  14.084
22919W        W89328  32.037  35.703   2.740
22920W        W89329  29.972  18.023  12.926
22921W        W89330  26.025   2.227  13.426
22922W        W89331  37.643  28.480  13.435
22923W        W89332  28.172  42.541  11.247
22924W        W89333   6.253  34.290   5.062
22925W        W89334  38.783  19.254   0.854
22926W        W89335  36.087   4.727   0.725
22927W        W89336  19.558  43.909   4.098
22928W        W89337  35.619  17.678  10.538
22929W        W89338  28.876  34.038  11.859
22930W        W89339  18.167  44.575  13.648
22931W        W89340  39.397  34.979   1.887
22932W        W89341  38.930  30.972  13.783
22933W        W89342   8.655  33.510   2.702
22934W        W89343   7.418   8.882  10.303
22935W        W89344  40.515  27.997  11.474
22936W        W89345  29.445  35.368   1.051
22937W        W89346   0.105  21.423  13.995
22938W        W89347   2.442  37.815  11.908
22939W        W89348  12.201  41.494   4.657
22940W        W89349  42.469  11.108   0.744
22941W        W89350  25.744  25.183   0.552
22942W        W89351  34.903  26.211  14.779
22943W        W89352  36.749  30.610  11.196
22944W        W89353  40.298  19.180  14.136
22945W        W89354  16.609   3.687  12.509
22946W        W89355  41.848  30.225   1.672
22947W        W89356  33.958  13.207  12.845
22948W        W89357  40.465   1.726  13.343
22949W        W89358  17.672  19.356   0.902
22950W        W89359  10.271  40.433  11.455
22951W        W89360  17.126   7.848  10.933
22952W        W89361  38.318  30.002  10.726
22953W        W89362  14.347  23.732  13.286
22954W        W89363  16.796  41.086   1.566
22955W        W89364  30.398  40.954  10.652
22956W        W89365  44.845  40.735   4.905
22957W        W89366  43.885  41.229   2.285
22958W        W89367  33.277   1.484  10.761
22959W        W89368  10.617  19.097   2.132
22960W        W89369  43.535  13.497  11.249
22961W        W89370  35.431  30.982  13.001
22962W        W89371   8.589  13.158  11.025
22963W        W89372   2.500  24.872   3.237
22964W        W89373  10.339  16.847  11.156
22965W        W89374   3.650  12.268   4.222
22966W        W89375  18.018   3.525  14.751
22967W        W89376   6.964  33.092  13.000
22968W        W89377   3.757  35.705  12.073
22969W        W89378  13.042  38.450  12.001
22970W        W89379  38.409   2.930  13.039
22971W        W89380   1.571   3.848   1.818
22972W        W89381  20.661  26.685  11.378
22973W        W89382  12.652   2.951   0.302
22974W        W89383  41.609   5.861   5.012
22975W        W89384   7.848  29.663   2.186
22976W        W89385  24.515   7.115   3.834
22977W        W89386  24.328  18.068  12.417
22978W        W89387   6.384  13.169   0.895
22979W        W89388   5.960  24.053   3.648
22980W        W89389  11.884  34.170   5.061
22981W        W89390  38.742  27.066   0.256
22982W        W89391  25.412   1.528  13.049
22983W        W89392  36.424   9.682   0.914
22984W        W89393  37.629  23.855  13.842
22985W        W89394  13.445  30.608  14.228
22986W        W89395  23.226  10.239  14.664
22987W        W89396   8.881  17.813   4.113
22988W        W89397   2.323  25.358   3.311
22989W        W89398  23.093  33.603  11.572
22990W        W89399   1.644   1.317   2.874
22991W        W89400  22.279  18.039  11.712
22992W        W89401  36.940  20.830  13.456
22993W        W89402  22.752  35.463   1.426
22994W        W89403  30.358  41.333   1.731
22995W        W89404  12.860  27.928   4.273
22996W        W89405   3.238  34.916   1.773
22997W        W89406  15.719  38.955  14.200
22998W        W89407  44.943  36.875  12.344
22999W        W89408  17.607  25.533   3.270
23000W        W89409   5.676  16.526  10.661
23001W        W89410  13.743  39.587   2.195
23002W        W89411  43.948   1.763  11.614
23003W        W89412  25.459  19.613  14.191
23004W        W89413  11.208  32.849  13.399
23005W        W89414  32.020  30.567   1.780
23006W        W89415  17.194  17.092   1.048
23007W        W89416  38.664  27.150   1.099
23008W        W89417  41.301  31.605  11.968
23009W        W89418   8.287   2.017   2.215
23010W        W89419  18.176  37.112  12.105
23011W        W89420  17.728   0.034  11.629
23012W        W89421  21.035   4.819   3.184
23013W        W89422  15.523  13.858  14.714
23014W        W89423  19.792  25.659  12.906
23015W        W89424  41.768  28.932  11.667
23016W        W89425  36.834   9.938   2.283
23017W        W89426   7.603  33.873  14.755
23018W        W89427   9.789  34.321  14.013
23019W        W89428   2.221   3.452   0.962
23020W        W89429  41.777  15.892  13.854
23021W        W89430  33.441  38.453  13.158
23022W        W89431  24.601  40.010  11.095
23023W        W89432   8.660  26.638  14.811
23024W        W89433   3.710   7.834   1.870
23025W        W89434  18.633  10.503  11.755
23026W        W89435  15.201   5.152   2.266
23027W        W89436  15.736   8.409  14.397
23028W        W89437  23.221   1.941  12.350
23029W        W89438  11.461  15.245  14.813
23030W        W89439   1.906  10.718   1.525
23031W        W89440  15.507  22.467  12.995
23032W        W89441  43.798  25.522   2.611
23033W        W89442   7.507  14.090   4.614
23034W        W89443   1.884  21.248   0.796
23035W        W89444  29.503  22.805   2.814
23036W        W89445  25.459   4.729  12.576
23037W        W89446  16.263   6.689  13.980
23038W        W89447  26.504  17.119   1.199
23039W        W89448  32.215  21.703   1.314
23040W        W89449  41.311  31.792   3.730
23041W        W89450  22.798  25.584  12.411
23042W        W89451  16.425  36.464  12.951
23043W        W89452  15.494  32.506  12.009
23044W        W89453  38.477  38.785  14.045
23045W        W89454   7.757  21.768  13.850
23046W        W89455  14.698  33.860   1.829
23047W        W89456   2.104  28.445   4.529
23048W        W89457  38.456   3.164  14.990
23049W        W89458  14.027  15.725  12.123
23050W        W89459  17.746  20.167   1.694
23051W        W89460  34.801  38.384   2.397
23052W        W89461  41.448  16.770   2.050
23053W        W89462  29.810   8.283  10.131
23054W        W89463  17.969   7.684  13.125
23055W        W89464  28.470  23.592   4.188
23056W        W89465  39.585  35.357  14.791
23057W        W89466  29.223  16.234  13.065
23058W        W89467   8.925  44.741   0.272
23059W        W89468  26.419  18.153  10.633
23060W        W89469  38.030  15.983  12.122
23061W        W89470   6.016  10.374  12.818
23062W        W89471  42.463   8.269   4.503
23063W        W89472   7.378  18.247  13.579
23064W        W89473   8.954  21.077   1.544
23065W        W89474  10.087  37.799   4.115
23066W        W89475  43.492   2.365   2.647
23067W        W89476   1.264  29.569  11.111
23068W        W89477  37.329  44.664   2.651
23069W        W89478   5.355  19.290  14.338
23070W        W89479   8.387  18.708  12.071
23071W        W89480  40.790  15.615   4.449
23072W        W89481   2.448  41.580   4.063
23073W        W89482   7.447   6.164   1.287
23074W        W89483  14.790   3.495   4.675
23075W        W89484  23.978   4.930   0.839
23076W        W89485   7.926   5.757  14.819
23077W        W89486   7.836  37.196   4.911
23078W        W89487  18.265  22.152  10.188
23079W        W89488   9.457   7.983  10.601
23080W        W89489  23.454  23.122   5.010
23081W        W89490  35.853  29.684   1.351
23082W        W89491  24.139   2.285   2.791
23083W        W89492  10.603  27.870   2.530
23084W        W89493  33.863  28.512  14.903
23085W        W89494  15.368  13.329  13.513
23086W        W89495  44.471  18.940  11.699
23087W        W89496  42.410  12.620  14.853
23088W        W89497   9.499  36.985   4.950
23089W        W89498  40.344  27.496  12.877
23090W        W89499  28.138   2.863   4.252
23091W        W89500  24.160  19.517   1.517
23092W        W89501  26.191  28.623  11.654
23093W        W89502  15.351  31.652   1.030
23094W        W89503   8.169   5.592   2.435
23095W        W89504  27.621  23.082  10.198
23096W        W89505  10.416  43.035   3.026
23097W        W89506  37.997  13.416   0.097
23098W        W89507  43.110  25.505  13.629
23099W        W89508  25.065  35.448   2.660
23100W        W89509  23.696   7.304   1.291
23101W        W89510   2.794  28.866   0.356
23102W        W89511  16.057  18.199   3.806
23103W        W89512  10.036  13.819  11.457
23104W        W89513   7.784  23.820  14.913
23105W        W89514  18.244   1.231  12.449
23106W        W89515  16.239  10.725   4.591
23107W        W89516  39.523  21.739  10.040
23108W        W89517   7.030  40.957  13.538
23109W        W89518  40.118   2.385   3.658
23110W        W89519  17.334  40.657  13.386
23111W        W89520  42.480  44.281  10.325
23112W        W89521  39.873  17.271   2.705
23113W        W89522  39.888   5.281   3.155
23114W        W89523  20.789  21.741  14.807
23115W        W89524  39.747  27.394  14.363
23116W        W89525   1.451  22.955   0.421
23117W        W89526  16.225  28.545   2.752
23118W        W89527  28.029   1.324   2.856
23119W        W89528  41.968  16.848   9.801
23120W        W89529   7.677  27.109  12.998
23121W        W89530  25.497   1.071   0.474
23122W        W89531  27.691   4.870  11.004
23123W        W89532   1.676  33.722   3.626
23124W        W89533  29.638   2.766   0.054
23125W        W89534  21.864  43.005  10.274
23126W        W89535  22.294   1.662   1.266
23127W        W89536  11.879  16.572   2.234
23128W        W89537   0.470  37.230   4.090
23129W        W89538  34.381  30.547   1.762
23130W        W89539  22.795  19.696   2.791
23131W        W89540  14.527  25.047  12.900
23132W        W89541  43.609  22.583  11.793
23133W        W89542   6.969   3.445   2.727
23134W        W89543  34.548  28.389  10.761
23135W        W89544  36.349  23.088  11.887
23136W        W89545   8.042  42.982  12.460
23137W        W89546  36.849  16.742   1.252
23138W        W89547  16.602  41.774  13.107
23139W        W89548   8.822  12.087   4.201
23140W        W89549  20.998   1.396  12.012
23141W        W89550  19.051  14.393  11.697
23142W        W89551  42.338  18.608  11.182
23143W        W89552  19.677  31.678  10.361
23144W        W89553  40.889  34.041   4.316
23145W        W89554  39.867   2.410   4.102
23146W        W89555  18.493  35.064  11.125
23147W        W89556  30.989  12.103  11.180
23148W        W89557  12.223  39.446  14.845
23149W        W89558  32.583   5.976   4.601
23150W        W89559  23.086  24.624   1.804
23151W        W89560  14.382   6.228   2.172
23152W        W89561   1.957  40.691   2.773
23153W        W89562  14.943  20.611   4.150
23154W        W89563  19.435   6.327  14.859
23155W        W89564  40.785  32.570  14.937
23156W        W89565  26.260  29.199  10.977
23157W        W89566   6.785  21.301  12.170
23158W        W89567  23.070  19.686  14.821
23159W        W89568  40.269  15.380  14.796
23160W        W89569  16.718  26.776  12.880
23161W        W89570  39.349  20.011  10.718
23162W        W89571  14.397  28.063  14.389
23163W        W89572  18.589  13.127  14.471
23164W        W89573   2.286   0.646  12.530
23165W        W89574   9.138   0.943   3.743
23166W        W89575  27.473  17.763  14.555
23167W        W89576  23.766  39.028  11.021
23168W        W89577  36.592  21.315   3.649
23169W        W89578  36.568  43.309  13.835
23170W        W89579   8.762  44.246   1.363
23171W        W89580  23.558  35.984  13.074
23172W        W89581  12.999  38.908   4.135
23173W        W89582  23.590  22.215  14.429
23174W        W89583  18.743   5.844   3.836
23175W        W89584  10.096  21.986   3.131
23176W        W89585   9.342  42.205   3.151
23177W        W89586  26.970  40.848  10.914
23178W        W89587  11.105   9.090  11.696
23179W        W89588  41.306  16.112   3.772
23180W        W89589   1.879   8.986   0.814
23181W        W89590  12.478  15.730   3.235
23182W        W89591   2.056  44.841  10.461
23183W        W89592  21.019  31.068  10.575
23184W        W89593  14.771  30.015   1.422
23185W        W89594  39.096  28.360   1.738
23186W        W89595   6.669   1.007  14.455
23187W        W89596   0.974   7.999  12.355
23188W        W89597   3.027  17.123  14.746
23189W        W89598  40.440  38.337   3.908
23190W        W89599  44.742  27.960   0.739
23191W        W89600  17.329  16.268  12.025
23192W        W89601  24.640  34.166  11.004
23193W        W89602  23.794  39.467   3.339
23194W        W89603  10.989  35.314  14.857
23195W        W89604  19.706  33.099   0.053
23196W        W89605  41.264  18.055  13.838
23197W        W89606  27.682  16.104   2.351
23198W        W89607   1.509   8.371  11.107
23199W        W89608   8.853  14.594  11.513
23200W        W89609  29.360  17.467   4.141
23201W        W89610  41.825   6.998  13.446
23202W        W89611  35.760   4.284   4.152
23203W        W89612  31.135  37.296  13.284
23204W        W89613  22.521  20.995  12.524
23205W        W89614  44.488  37.666  12.449
23206W        W89615   4.612  32.629  14.748
23207W        W89616   0.274  44.369  13.262
23208W        W89617  40.390  10.404  10.433
23209W        W89618  27.889   0.005   3.201
23210W        W89619  18.797  39.886   1.453
23211W        W89620   5.768   3.054   4.575
23212W        W89621  36.719  19.273   4.105
23213W        W89622   6.411   5.409  11.007
23214W        W89623  40.980   5.419  12.445
23215W        W89624  41.557  33.372  11.553
23216W        W89625  18.158  44.022  12.113
23217W        W89626  32.930  15.022   2.720
23218W        W89627  34.130  41.062  14.560
23219W        W89628  14.274  17.955  11.075
23220W        W89629  10.203  31.600  12.647
23221W        W89630  11.408  44.408   2.242
23222W        W89631   4.372  13.969   3.775
23223W        W89632   2.088  26.920  12.511
23224W        W89633  24.052  43.976   4.659
23225W        W89634  32.341  13.833  14.292
23226W        W89635  38.050  35.018  11.656
23227W        W89636  18.653   9.355   1.345
23228W        W89637  17.792   0.823  10.489
23229W        W89638  28.132  37.839   0.469
23230W        W89639  39.942  41.756   2.648
23231W        W89640  14.371   9.823  10.685
23232W        W89641  18.123  40.951  10.905
23233W        W89642  13.529  28.005  13.587
23234W        W89643   4.897   0.054   2.331
23235W        W89644  31.032  10.153  14.334
23236W        W89645   1.568  32.361   3.650
23237W        W89646  36.605  44.875  14.266
23238W        W89647  17.659  30.595   1.444
23239W        W89648  13.017   7.771  11.512
23240W        W89649  27.514  32.699  12.526
23241W        W89650  42.446  35.968  13.584
23242W        W89651   5.744   3.872   4.722
23243W        W89652  21.738   0.346   4.609
23244W        W89653  25.692  16.538  14.440
23245W        W89654  43.818  20.964  12.611
23246W        W89655   8.735   3.742   3.354
23247W        W89656  33.052  29.449  11.865
23248W        W89657  24.684  42.924   4.494
23249W        W89658   1.274  11.401  11.963
23250W        W89659  41.099  40.903   3.258
23251W        W89660  25.935  22.712  13.933
23252W        W89661  20.905  20.209  14.423
23253W        W89662  13.004  12.257  12.628
23254W        W89663   5.132  27.624  12.894
23255W        W89664  25.457  21.320   2.685
23256W        W89665  39.337  27.265  11.093
23257W        W89666  13.124  31.702   0.556
23258W        W89667  20.786  29.030   3.659
23259W        W89668  37.463  16.895   2.785
23260W        W89669  35.537   2.689  12.456
23261W        W89670  42.933  18.114  10.759
23262W        W89671   1.509  16.658  12.920
23263W        W89672  14.245  24.854   4.552
23264W        W89673  32.501   0.598  13.406
23265W        W89674  41.862   0.155  13.925
23266W        W89675   0.251  14.474   4.503
23267W        W89676  20.471  40.303  14.761
23268W        W89677   3.690  32.057  11.195
23269W        W89678   4.762  25.174  12.422
23270W        W89679   5.956   5.741   3.675
23271W        W89680  38.043  16.667  11.389
23272W        W89681   3.403  22.606   2.898
23273W        W89682  22.543  33.744   1.137
23274W        W89683  28.640  15.659  13.865
23275W        W89684   9.874  25.564   5.123
23276W        W89685  30.996  42.970  11.701
23277W        W89686   4.796  35.825   2.145
23278W        W89687  27.561  44.428  11.838
23279W        W89688   3.019   4.922   1.613
23280W        W89689  33.696  43.298   0.907
23281W        W89690  10.267  42.278   4.178
23282W        W89691  43.757  28.952  14.926
23283W        W89692   1.788  24.005   2.892
23284W        W89693   6.777  37.043   0.779
23285W        W89694  34.767   8.790   2.387
23286W        W89695  38.130  27.773   4.188
23287W        W89696  36.416   1.783  14.854
23288W        W89697   7.200  17.992   2.096
23289W        W89698   5.910  40.768  11.312
23290W        W89699  24.186  43.779   4.196
23291W        W89700  40.850  37.421  14.773
23292W        W89701   2.935   3.249   4.574
23293W        W89702   8.449  16.607  11.250
23294W        W89703   4.258  35.848   0.357
23295W        W89704  38.784  10.868  13.027
23296W        W89705  13.389   7.770  11.869
23297W        W89706  32.151   1.782  13.828
23298W        W89707  30.019  41.544  13.779
23299W        W89708  28.872   8.287  14.291
23300W        W89709   5.879   8.827  12.923
23301W        W89710  11.919  37.885   2.241
23302W        W89711   0.230  39.460   2.987
23303W        W89712  38.543   0.855  14.654
23304W        W89713  11.112  44.528  14.457
23305W        W89714  11.175  24.936   3.185
23306W        W89715  23.416  14.631   2.896
23307W        W89716   6.599  18.676  13.445
23308W        W89717  11.343  29.565  12.574
23309W        W89718  43.264   5.062   4.138
23310W        W89719  12.333  28.505   1.957
23311W        W89720  28.952   3.901  13.129
23312W        W89721  21.591  21.352   2.027
23313W        W89722  12.678  31.402   4.047
23314W        W89723  36.458  34.175   0.528
23315W        W89724   5.030   4.872  13.551
23316W        W89725  33.651   6.851  11.864
23317W        W89726  44.708  11.353  13.386
23318W        W89727  16.684  24.476  11.610
23319W        W89728   2.541   2.293  13.012
23320W        W89729  37.599  14.835  11.625
23321W        W89730   0.370  15.736  10.921
23322W        W89731  29.081  41.956  13.781
23323W        W89732  21.677  26.113   1.489
23324W        W89733  26.173  38.948   2.843
23325W        W89734  19.273  38.980   0.956
23326W        W89735  39.443  38.502   0.473
23327W        W89736  16.536  39.637   3.960
23328W        W89737  25.986   5.641   1.822
23329W        W89738  30.439   4.399  12.800
23330W        W89739   5.035  11.393  14.122
23331W        W89740   5.720  22.170   1.821
23332W        W89741  13.781   2.740  14.416
23333W        W89742  25.619   5.014   0.814
23334W        W89743  22.660  23.985   3.180
23335W        W89744  20.638  32.547   1.015
23336W        W89745  44.999   5.279   0.831
23337W        W89746  34.080  40.674  11.096
23338W        W89747  40.905  44.306  13.071
23339W        W89748  36.576  32.539  14.373
23340W        W89749   2.480  22.475  14.839
23341W        W89750  22.153  13.646  14.495
23342W        W89751  32.501  30.480   1.003
23343W        W89752  44.697  11.347   0.824
23344W        W89753  33.156  12.679   0.225
23345W        W89754  18.683  24.004   0.537
23346W        W89755  29.974  18.651   3.176
23347W        W89756   1.799   7.468   2.406
23348W        W89757  41.951  16.167   1.938
23349W        W89758  31.877  42.504  14.969
23350W        W89759  25.934  19.212   0.803
23351W        W89760  20.594  25.898  14.338
23352W        W89761  31.902  19.227   1.313
23353W        W89762  39.098  35.729  11.409
23354W        W89763  40.409  43.112   5.077
23355W        W89764   3.293  23.048   2.663
23356W        W89765  34.447  40.802  10.734
23357W        W89766  12.534  20.763  14.012
23358W        W89767  27.678  14.884   0.873
23359W        W89768  19.011  13.637   3.532
23360W        W89769  24.476  18.705  12.892
23361W        W89770   3.424  36.262   3.142
23362W        W89771   2.915  40.289   2.200
23363W        W89772  23.047  11.702  12.455
23364W        W89773  32.586  24.252  14.475
23365W        W89774   3.822  34.582  13.068
23366W        W89775  25.728  16.215   3.903
23367W        W89776   4.699  14.389   3.707
23368W        W89777  40.326  41.509   1.803
23369W        W89778  18.170   0.233  11.401
23370W        W89779  40.342  33.110  10.751
23371W        W89780  11.049   1.432   3.155
23372W        W89781  13.392  36.171  14.145
23373W        W89782  42.848   9.348   1.927
23374W        W89783  20.441  18.189   0.888
23375W        W89784  44.735  42.306  14.997
23376W        W89785  18.032  25.415  13.498
23377W        W89786  15.807  14.138  12.054
23378W        W89787  39.292  17.618   2.835
23379W        W89788  20.136  26.212   1.266
23380W        W89789  43.813  32.491   2.010
23381W        W89790  22.170  17.218   0.269
23382W        W89791   9.721  16.320  11.465
23383W        W89792  11.846   3.707  14.888
23384W        W89793  27.169  29.639  11.891
23385W        W89794   3.071  14.621  12.354
23386W        W89795  25.708  40.770   3.692
23387W        W89796   6.155  35.817   4.189
23388W        W89797  40.633   5.677   0.429
23389W        W89798  26.370   0.376  13.955
23390W        W89799   2.334  32.243  14.799
23391W        W89800   5.189  37.098  10.593
23392W        W89801  37.472  28.958   1.974
23393W        W89802  37.959   8.918  12.510
23394W        W89803   4.063  26.602   0.005
23395W        W89804   3.703  20.611  10.812
23396W        W89805   7.116  25.629   5.454
23397W        W89806   9.396  28.244   4.195
23398W        W89807  38.085  28.088   0.739
23399W        W89808  20.516  21.804  11.018
23400W        W89809  22.193  15.603  12.090
23401W        W89810  42.469  15.739  14.851
23402W        W89811  40.602  16.761   1.685
23403W        W89812  25.015   3.700   1.232
23404W        W89813  33.409  23.728  14.420
23405W        W89814  40.517  19.476   0.526
23406W        W89815  24.693  38.065  14.752
23407W        W89816  30.963  43.853  12.535
23408W        W89817  33.334  33.845   2.479
23409W        W89818  20.243  22.508   0.307
23410W        W89819   1.172  42.242   4.012
23411W        W89820  26.362  29.400  12.638
23412W        W89821   2.773  42.757   3.611
23413W        W89822  27.977  42.944   9.495
23414W        W89823  39.585  15.576   3.767
23415W        W89824  28.144  34.019   2.666
23416W        W89825  14.712  44.934  10.724
23417W        W89826  31.620   7.507   0.391
23418W        W89827   5.515  26.197   0.795
23419W        W89828  20.684   1.043   4.337
23420W        W89829  18.944  35.938  11.455
23421W        W89830  18.576  38.996   1.970
23422W        W89831   8.454   0.418   0.729
23423W        W89832  16.276  44.853  13.262
23424W        W89833  27.918  43.878   4.033
23425W        W89834  39.160  17.848  10.763
23426W        W89835   2.331  24.442  14.308
23427W        W89836  31.178  30.275  14.287
23428W        W89837  16.347  44.740   1.518
23429W        W89838  42.888  29.432   4.191
23430W        W89839  40.282   1.868   5.038
23431W        W89840   9.263  26.563  11.124
23432W        W89841  30.095  25.550   2.729
23433W        W89842  37.843  10.576   2.848
23434W        W89843  11.333  44.995   5.052
23435W        W89844  11.172  12.505   1.939
23436W        W89845  17.992  24.562   1.360
23437W        W89846  31.600   1.287  11.615
23438W        W89847   9.864  35.981  14.392
23439W        W89848  26.127   8.131   0.329
23440W        W89849   2.410  35.650  14.365
23441W        W89850   8.714   2.271   2.385
23442W        W89851  24.965  32.009  10.704
23443W        W89852  12.378   9.837   4.198
23444W        W89853   0.098  10.791   1.438
23445W        W89854   0.390  43.239   1.691
23446W        W89855  20.563  23.458  10.975
23447W        W89856  10.584  38.362  14.948
23448W        W89857  14.273  15.174  13.261
23449W        W89858   8.154  10.677   1.856
23450W        W89859  20.772  25.296  13.272
23451W        W89860  35.438  26.169  10.554
23452W        W89861  13.272   4.227  10.580
23453W        W89862  25.963  35.352  10.645
23454W        W89863  38.177  22.059   2.886
23455W        W89864  32.349  41.403  13.358
23456W        W89865  40.043  23.103  11.194
23457W        W89866  11.767  38.395   2.352
23458W        W89867   8.196  21.035  11.321
23459W        W89868  37.417  32.395  13.638
23460W        W89869   4.277   1.259   4.019
23461W        W89870  34.603   2.709  14.382
23462W        W89871  28.134  12.180   1.344
23463W        W89872   3.228   0.898   3.167
23464W        W89873  26.486  42.151  11.780
23465W        W89874  36.035  36.996   1.409
23466W        W89875  29.099  37.495  14.107
23467W        W89876  18.653  14.282  13.830
23468W        W89877  33.402  37.485  10.744
23469W        W89878  20.185  43.806  14.945
23470W        W89879  32.441  34.681  11.379
23471W        W89880  37.668   8.579   2.956
23472W        W89881   9.693  27.583  14.984
23473W        W89882  29.977  20.737  14.619
23474W        W89883   9.396  20.049   3.705
23475W        W89884  18.780   5.024  11.185
23476W        W89885  15.793   4.666  14.148
23477W        W89886  20.424  32.661  11.973
23478W        W89887  25.700  19.238  10.206
23479W        W89888  17.125  37.934  13.579
23480W        W89889  17.109  44.591  10.081
23481W        W89890   9.314  22.133   0.758
23482W        W89891  19.575  12.807  12.133
23483W        W89892   5.526   8.243  14.006
23484W        W89893  35.305   9.173  11.046
23485W        W89894  36.487  28.232  10.571
23486W        W89895  23.121  29.606   1.847
23487W        W89896  41.800  33.507  10.804
23488W        W89897   0.424   9.324   3.646
23489W        W89898  20.068  38.031   4.204
23490W        W89899   5.234  41.000   4.891
23491W        W89900  25.664  33.544  14.192
23492W        W89901  42.368  14.636  10.604
23493W        W89902  19.678  39.284  12.551
23494W        W89903  41.926   5.964   4.623
23495W        W89904   5.457  29.686   0.169
23496W        W89905  12.768   3.671   0.822
23497W        W89906  42.569  23.299  12.877
23498W        W89907  28.449  39.503   2.635
23499W        W89908  24.154  19.162  12.517
23500W        W89909  24.256  28.872  10.298
23501W        W89910  36.250  41.839   1.391
23502W        W89911  25.573  29.222  10.498
23503W        W89912  35.303  21.612  11.561
23504W        W89913  16.698  20.100  12.079
23505W        W89914   6.186  17.820   0.849
23506W        W89915   0.027   1.750   3.160
23507W        W89916  36.957   6.241  13.340
23508W        W89917  27.202  32.096  12.499
23509W        W89918  28.179  43.844  11.555
23510W        W89919  21.734  26.963   3.576
23511W        W89920   2.444  12.766   2.913
23512W        W89921   9.697   2.350   4.099
23513W        W89922  29.745  24.142  10.235
23514W        W89923  43.642  23.864   1.992
23515W        W89924  39.308  38.453  12.448
23516W        W89925  11.390   9.721   4.184
23517W        W89926  23.329  41.756   0.943
23518W        W89927  22.095  26.762  12.349
23519W        W89928  13.992  43.342   0.417
23520W        W89929  23.036  21.817   4.454
23521W        W89930  43.783  17.605   2.230
23522W        W89931   8.387   7.961   4.781
23523W        W89932  30.181  43.214   4.180
23524W        W89933  41.965   5.337   2.568
23525W        W89934  21.988   5.883   2.254
23526W        W89935   2.893  11.506  13.553
23527W        W89936  36.391   9.453   4.306
23528W        W89937  42.524  15.321   3.870
23529W        W89938  29.546  41.361  13.890
23530W        W89939   7.251  31.059  13.436
23531W        W89940   8.292  30.889   0.211
23532W        W89941   8.271   3.140  11.806
23533W        W89942  23.101  26.348   5.146
23534W        W89943   7.817  19.996  11.649
23535W        W89944   6.294  37.529  13.419
23536W        W89945  11.716  24.246  13.464
23537W        W89946   7.104  44.412  13.042
23538W        W89947  39.102  36.258  14.847
23539W        W89948  34.080  19.217  12.957
23540W        W89949  29.957  37.729   1.389
23541W        W89950  44.760  31.711   3.635
23542W        W89951  17.200   3.594   0.938
23543W        W89952   4.665  23.265  12.957
23544W        W89953  23.620  32.990   3.760
23545W        W89954  44.467   5.894  13.470
23546W        W89955  40.217  27.160  13.277
23547W        W89956   2.239  38.632   2.248
23548W        W89957  42.695   8.348  13.800
23549W        W89958   1.148  31.563   0.214
23550W        W89959  44.859  34.943   2.911
23551W        W89960  11.503  12.219  10.252
23552W        W89961  31.301  32.880  14.863
23553W        W89962  39.978  12.281  12.448
23554W        W89963   3.389  24.724  13.340
23555W        W89964   6.653  29.046  13.325
23556W        W89965  36.532  35.058   0.219
23557W        W89966  10.583   7.980   0.928
23558W        W89967  40.794  17.660   2.629
23559W        W89968  17.220  33.307  13.399
23560W        W89969  21.360  39.006  11.159
23561W        W89970   3.928  39.910   3.668
23562W        W89971  19.156  37.168   0.786
23563W        W89972  41.409   9.758  12.244
23564W        W89973  40.234   2.405  11.696
23565W        W89974  38.894  24.737  13.480
23566W        W89975  38.042  12.076   1.963
23567W        W89976  21.696  30.044  13.911
23568W        W89977  40.198  18.137  12.365
23569W        W89978  38.484   8.323  11.623
23570W        W89979  23.030  35.810   2.591
23571W        W89980   0.821   1.362   2.290
23572W        W89981  26.724  27.744  11.670
23573W        W89982  29.905  25.058  13.621
23574W        W89983  41.324  32.421  13.388
23575W        W89984  42.657  16.050  12.352
23576W        W89985  28.552  40.400   4.244
23577W        W89986  18.658  33.683   1.821
23578W        W89987   6.004  35.625   4.708
23579W        W89988  31.080  26.501   2.367
23580W        W89989  23.701   1.462   2.887
23581W        W89990  41.090  15.920  10.755
23582W        W89991  13.219  16.173  11.615
23583W        W89992  16.622  40.857  13.341
23584W        W89993  39.012  44.532   2.411
23585W        W89994  12.497  13.663   1.128
23586W        W89995  42.289  21.464   3.307
23587W        W89996  22.988  37.982  10.838
23588W        W89997  30.864  19.154  12.733
23589W        W89998  35.067  31.739   0.871
23590W        W89999  20.015  44.329  14.955
23591W        W90000  21.116  30.496   3.563
23592W        W90001   7.715  15.614  12.555
23593W        W90002  41.103   2.266   4.703
23594W        W90003   9.624  26.196  11.197
23595W        W90004  32.429  29.930   3.811
23596W        W90005   7.701   5.591   0.679
23597W        W90006  10.681  22.057  11.070
23598W        W90007  10.621  23.786  12.045
23599W        W90008  43.807  22.024  12.448
23600W        W90009   9.932  44.273   2.397
23601W        W90010  37.849  33.818   4.232
23602W        W90011  12.566  34.202  11.962
23603W        W90012   7.462  13.712   1.885
23604W        W90013  28.587  20.232  10.985
23605W        W90014  39.888   4.298   0.352
23606W        W90015  41.248  32.367   4.611
23607W        W90016  31.188  20.789  14.295
23608W        W90017  34.178  14.834  12.239
23609W        W90018  31.456  22.032   2.324
23610W        W90019  13.832   9.841  13.417
23611W        W90020  34.196  27.673   4.252
23612W        W90021  10.299  28.008   1.651
23613W        W90022   4.422  23.167   0.013
23614W        W90023  36.440  21.102   1.970
23615W        W90024  43.921  24.229   1.733
23616W        W90025  35.108  34.940   3.152
23617W        W90026  20.784  39.959  14.487
23618W        W90027  27.258  21.142  12.159
23619W        W90028  23.568   8.717  14.366
23620W        W90029  13.150   7.648   2.351
23621W        W90030  23.165  40.868   4.267
23622W        W90031   5.887  11.175  13.395
23623W        W90032   5.778  40.582   2.388
23624W        W90033  42.760  33.456  10.354
23625W        W90034  33.097  13.235   3.198
23626W        W90035  30.472  40.103  12.187
23627W        W90036  14.615  11.383   0.529
23628W        W90037   3.267  21.770  13.133
23629W        W90038   0.790   8.781   4.075
23630W        W90039  44.856  32.497   4.667
23631W        W90040  10.693  13.401   3.989
23632W        W90041  34.348   8.948   3.245
23633W        W90042  31.001   1.257   0.496
23634W        W90043  13.242  25.191   1.775
23635W        W90044   5.876  39.812   1.339
23636W        W90045  10.846  30.538   9.779
23637W        W90046  19.589  39.922   4.764
23638W        W90047  18.672   7.154   4.272
23639W        W90048  28.462  22.901   4.570
23640W        W90049  11.474  21.935   2.217
23641W        W90050  34.910  25.458   3.326
23642W        W90051  44.468   7.740   2.088
23643W        W90052  26.102  39.055   1.192
23644W        W90053  12.749   9.892  14.298
23645W        W90054  20.099   5.676  11.684
23646W        W90055  15.852  27.970  12.471
23647W        W90056  44.174   6.951   0.067
23648W        W90057  17.014   2.758  13.471
23649W        W90058  14.585  40.013  14.930
23650W        W90059  36.524  25.949  12.459
23651W        W90060   9.269   1.379   3.005
23652W        W90061  37.868  26.232  11.117
23653W        W90062  38.779  14.881   0.515
23654W        W90063  25.492  20.235   0.004
23655W        W90064  30.433  33.011  14.503
23656W        W90065  35.591   3.487  14.055
23657W        W90066  29.978  22.977   3.667
23658W        W90067  31.867  34.698  14.406
23659W        W90068  12.272   3.811   0.734
23660W        W90069  11.199   4.631   0.288
23661W        W90070  17.261  34.138  12.129
23662W        W90071  39.158  23.773   4.454
23663W        W90072  10.618   4.171   2.981
23664W        W90073   4.247   8.467   0.466
23665W        W90074   5.824   3.309  14.980
23666W        W90075  14.429  23.679   2.954
23667W        W90076  41.516  25.967   2.901
23668W        W90077  20.496   5.883   4.144
23669W        W90078   7.090  31.851   3.711
23670W        W90079  19.650  42.366  10.820
23671W        W90080  35.733  22.101   4.085
23672W        W90081  37.072  15.113   0.758
23673W        W90082   2.792   4.390  11.618
23674W        W90083  40.746  21.612   4.115
23675W        W90084  39.928  14.588   3.367
23676W        W90085  14.782  40.808  11.631
23677W        W90086   9.353  12.170  13.465
23678W        W90087   5.167  43.286  14.742
23679W        W90088  19.730  22.688  14.807
23680W        W90089  43.170  34.114  11.845
23681W        W90090  25.989  25.735   5.384
23682W        W90091  18.373  25.295  14.396
23683W        W90092  37.786  15.348  10.745
23684W        W90093  33.824  37.826  11.144
23685W        W90094  19.111  21.242  14.966
23686W        W90095  37.452  27.027  10.882
23687W        W90096   8.888  43.535  12.297
23688W        W90097  41.333   6.985   3.470
23689W        W90098   6.457   3.418  12.785
23690W        W90099   1.277  11.907  11.921
23691W        W90100  39.378  11.347   0.775
23692W        W90101  11.736   3.966  13.439
23693W        W90102  35.317  42.437  14.846
23694W        W90103  11.289  28.486  12.032
23695W        W90104  15.060  17.022  12.332
23696W        W90105  26.663  21.635   0.893
23697W        W90106  10.361  41.963  14.332
23698W        W90107  44.799  12.823   5.026
23699W        W90108  41.446  25.246   1.418
23700W        W90109  13.645   3.168   0.888
23701W        W90110  32.407  13.768  10.500
23702W        W90111  41.513  18.659  14.473
23703W        W90112  26.573  33.547  14.696
23704W        W90113  16.841   1.641   1.722
23705W        W90114   1.453  43.361  12.257
23706W        W90115  34.636  37.122  14.826
23707W        W90116  11.127  26.062  10.693
23708W        W90117   1.820   1.777  13.038
23709W        W90118  39.728  15.996  11.920
23710W        W90119  43.601  42.090  13.953
23711W        W90120  40.469  42.005   1.941
23712W        W90121   2.237  11.431   3.300
23713W        W90122  23.105  30.043   0.534
23714W        W90123   9.667  14.117  12.963
23715W        W90124  19.684  19.697   3.556
23716W        W90125  36.680  29.044   4.280
23717W        W90126  21.191   0.562   3.824
23718W        W90127  17.720  37.552   0.034
23719W        W90128  18.490  43.017   4.309
23720W        W90129  35.581  11.460  11.905
23721W        W90130  15.434  43.408  14.481
23722W        W90131  12.287  29.555  11.155
23723W        W90132   7.590  33.510   0.192
23724W        W90133  31.535  26.231  12.066
23725W        W90134  26.000  15.763  14.026
23726W        W90135  10.165  11.537   4.491
23727W        W90136  32.578  29.074  10.648
23728W        W90137   3.607  23.125   3.706
23729W        W90138  35.416   0.876  11.620
23730W        W90139  21.746  18.704   1.912
23731W        W90140  33.578   2.227   0.979
23732W        W90141  22.024  36.024   4.124
23733W        W90142  17.163   1.852  11.238
23734W        W90143  41.208  18.217  10.400
23735W        W90144   7.593  15.368   1.947
23736W        W90145  25.308  10.913  10.540
23737W        W90146  25.316   7.195  14.008
23738W        W90147   0.913  44.430   1.942
23739W        W90148  18.523  42.616  12.905
23740W        W90149  32.658   9.772  11.947
23741W        W90150   0.491   4.698   4.343
23742W        W90151  26.939  13.363   2.315
23743W        W90152  42.049  36.273  14.049
23744W        W90153  33.087   0.175  12.861
23745W        W90154  28.437   7.296  10.630
23746W        W90155   3.376  29.048  12.357
23747W        W90156  39.033  31.112   2.735
23748W        W90157  24.558  10.338   4.311
23749W        W90158  21.058  24.950   3.718
23750W        W90159  16.582  14.610  13.709
23751W        W90160  13.089  36.901  13.030
23752W        W90161   5.302  20.202   0.427
23753W        W90162  39.859  30.905   3.859
23754W        W90163   2.892  17.171  10.617
23755W        W90164  25.113  26.056  14.797
23756W        W90165  34.119  24.668  11.196
23757W        W90166  33.248   1.144  11.179
23758W        W90167  38.516  34.139  12.535
23759W        W90168   6.769  38.256   4.855
23760W        W90169  26.199  43.207   0.273
23761W        W90170  15.699  17.756  13.829
23762W        W90171  25.320   6.258  12.489
23763W        W90172  12.693   8.181   4.369
23764W        W90173  32.074  28.015  14.020
23765W        W90174  13.307  33.541   5.107
23766W        W90175  34.630  23.405  10.810
23767W        W90176   4.191   3.002   3.802
23768W        W90177  40.453  23.227  14.745
23769W        W90178  22.492  16.616   0.869
23770W        W90179  42.849   0.932  14.789
23771W        W90180  34.140  11.804   0.288
23772W        W90181  27.654  14.606   0.092
23773W        W90182  25.373  12.089  14.283
23774W        W90183   6.192   9.997  11.976
23775W        W90184   2.426  37.507  13.654
23776W        W90185  21.148  31.163   2.204
23777W        W90186  26.791  22.519  11.606
23778W        W90187  44.478   1.903   2.036
23779W        W90188  43.094  17.818  12.020
23780W        W90189  40.193  32.892   5.092
23781W        W90190  29.301   2.408   3.169
23782W        W90191  12.060  10.101   4.592
23783W        W90192  20.552   1.741   1.995
23784W        W90193  25.083  13.676   1.438
23785W        W90194   5.414  13.840  12.153
23786W        W90195   8.676  21.263  11.407
23787W        W90196  14.255  27.581   4.800
23788W        W90197  30.953  13.626   4.464
23789W        W90198  25.970  19.712   0.558
23790W        W90199  14.353  42.279   1.077
23791W        W90200  16.101  10.435   0.928
23792W        W90201   1.886  27.665   0.282
23793W        W90202  33.830  42.065  13.277
23794W        W90203  27.545  19.323  11.049
23795W        W90204   7.496  38.381  10.480
23796W        W90205  35.205  40.818   3.221
23797W        W90206  42.999  31.569   4.178
23798W        W90207   3.916  13.572   4.431
23799W        W90208  41.482  29.692  14.760
23800W        W90209   2.504  34.127   0.383
23801W        W90210  25.713   1.228  14.527
23802W        W90211   5.128  23.249   1.967
23803W        W90212  16.513   2.062  14.389
23804W        W90213  15.774  35.267  13.526
23805W        W90214  14.227  41.085  11.500
23806W        W90215  34.556  33.468  13.370
23807W        W90216  43.788  13.754  14.029
23808W        W90217   3.796  37.276   2.648
23809W        W90218  25.564  35.138   1.699
23810W        W90219  20.107  42.556   2.558
23811W        W90220  22.400  25.490  13.966
23812W        W90221  29.904   7.966   1.370
23813W        W90222  25.645   6.164   4.643
23814W        W90223  12.399  41.374  10.635
23815W        W90224  32.034   4.570   4.145
23816W        W90225  18.322  34.592  11.028
23817W        W90226   9.447  38.456   0.299
23818W        W90227   3.290  44.076   3.695
23819W        W90228  23.257  11.229  12.900
23820W        W90229  21.317  24.497   3.818
23821W        W90230  23.949  41.836   2.490
23822W        W90231  15.124  30.481   4.689
23823W        W90232  32.689  41.844   1.989
23824W        W90233  26.128  24.148  12.533
23825W        W90234   7.402  11.205  13.482
23826W        W90235   1.999  21.192   3.758
23827W        W90236  33.817   9.903   0.066
23828W        W90237   8.985  10.844   2.407
23829W        W90238  29.064  43.700   3.162
23830W        W90239  25.434  25.036  11.496
23831W        W90240  27.318  29.337   2.182
23832W        W90241  37.321  31.972  12.568
23833W        W90242   7.574  23.580   3.853
23834W        W90243   3.413  23.539   4.669
23835W        W90244  31.656  24.454   5.019
23836W        W90245  32.575  34.885  14.984
23837W        W90246   5.796   9.411   1.414
23838W        W90247  24.908   0.865   3.170
23839W        W90248  32.894  34.821  11.221
23840W        W90249  32.583   8.506  12.022
23841W        W90250  33.533  26.083   4.872
23842W        W90251   5.242  17.205   0.489
23843W        W90252  31.601  15.263   4.741
23844W        W90253  16.659  40.979   2.053
23845W        W90254   8.905  15.435   0.033
23846W        W90255   2.718  33.641  11.213
23847W        W90256  29.839  36.721  12.152
23848W        W90257   3.485  40.343  12.189
23849W        W90258  40.805   1.495   2.769
23850W        W90259  10.049  39.337   4.724
23851W        W90260  38.272  14.224   3.267
23852W        W90261  18.833  42.269   4.663
23853W        W90262  22.598  25.999  14.810
23854W        W90263  23.296  28.226  11.043
23855W        W90264   5.212  21.686  13.665
23856W        W90265  38.230  12.242   2.428
23857W        W90266  15.048  14.830   4.113
23858W        W90267   4.786  26.215  12.534
23859W        W90268   4.881  20.232   2.301
23860W        W90269  38.239  15.621  12.403
23861W        W90270  42.540   5.174   4.714
23862W        W90271  33.315   3.703  13.384
23863W        W90272  41.951  24.346  11.591
23864W        W90273   0.827  28.539  13.333
23865W        W90274  36.038  22.039   1.261
23866W        W90275  15.234  16.295  10.616
23867W        W90276  10.381   9.768   2.708
23868W        W90277  40.082  32.720   1.935
23869W        W90278  16.074  39.803   4.061
23870W        W90279  21.452  14.101  12.599
23871W        W90280  30.666   0.482   1.974
23872W        W90281   9.822  14.280   0.033
23873W        W90282  36.983  10.855   1.240
23874W        W90283  17.285   1.706   1.166
23875W        W90284  23.553  15.184   0.947
23876W        W90285   9.600  16.856   1.184
23877W        W90286   6.839  31.690   1.383
23878W        W90287  15.386  14.979  12.815
23879W        W90288  35.941   2.061  11.218
23880W        W90289  44.960  25.704  11.632
23881W        W90290  29.130  41.145   4.008
23882W        W90291  11.320  24.014   0.779
23883W        W90292  36.843  38.587   0.761
23884W        W90293   0.550   4.268  12.046
23885W        W90294  33.074  11.497  13.364
23886W        W90295  11.801   6.295  10.706
23887W        W90296  15.127  31.787   4.017
23888W        W90297  15.185  42.304  10.645
23889W        W90298  11.334   8.834  12.561
23890W        W90299  25.238  37.842   3.845
23891W        W90300  43.990   4.982  10.329
23892W        W90301  26.175  15.603   1.989
23893W        W90302  15.852  35.489  11.965
23894W        W90303  44.935   2.785  12.614
23895W        W90304  37.445   2.010   0.285
23896W        W90305  10.652  15.691   0.738
23897W        W90306  18.733  37.379  10.617
23898W        W90307   3.744   3.746   4.157
23899W        W90308  42.253  43.265  14.819
23900W        W90309   4.757  37.096  11.927
23901W        W90310  18.989  22.550  12.104
23902W        W90311  25.372  35.784  13.919
23903W        W90312  11.123   1.232   1.864
23904W        W90313  13.773   4.647   2.686
23905W        W90314  20.110  23.109  12.464
23906W        W90315  19.674  13.268   0.842
23907W        W90316  36.593  28.723  14.489
23908W        W90317  18.630  39.486  13.619
23909W        W90318  38.617  32.286  12.956
23910W        W90319  39.984  41.760  11.256
23911W        W90320  25.984  21.852   0.327
23912W        W90321  44.376  43.287  11.098
23913W        W90322  44.628  34.633   0.004
23914W        W90323  14.536  14.126  11.620
23915W        W90324  41.288  24.597  13.168
23916W        W90325   1.811   1.807  10.558
23917W        W90326   6.985  28.586  11.427
23918W        W90327   5.273  36.206  14.014
23919W        W90328  30.236  10.586   0.251
23920W        W90329  17.218  18.848  14.687
23921W        W90330   8.682  11.625  12.323
23922W        W90331  34.984  19.173   1.337
23923W        W90332  26.567  23.059  11.658
23924W        W90333  28.148  11.260   0.688
23925W        W90334  26.029  44.475   2.370
23926W        W90335  31.963  41.503   2.345
23927W        W90336   1.955  34.570  12.592
23928W        W90337  25.181  36.411  13.470
23929W        W90338  25.915   1.404  12.898
23930W        W90339  27.505  24.928  13.345
23931W        W90340   7.697  34.600   1.283
23932W        W90341  11.773  30.117  11.556
23933W        W90342  33.975  10.972  13.424
23934W        W90343  29.845  20.951   4.192
23935W        W90344  36.923  38.885   4.365
23936W        W90345  33.713  32.926   0.448
23937W        W90346  14.381  42.432  13.634
23938W        W90347  14.147  19.031  12.038
23939W        W90348   8.937  39.594   3.292
23940W        W90349  19.895  12.723  12.540
23941W        W90350  40.480  38.779  12.065
23942W        W90351  33.462  22.489  10.701
23943W        W90352  26.800   8.697  11.528
23944W        W90353  27.380   2.156  11.620
23945W        W90354  32.549   4.490  10.753
23946W        W90355  37.278  18.768  13.500
23947W        W90356  34.577  13.082  11.452
23948W        W90357  41.851  22.141   2.686
23949W        W90358  24.211  40.693  14.871
23950W        W90359  25.198  28.739   1.314
23951W        W90360  14.999  26.121  13.280
23952W        W90361  44.018  12.304  13.547
23953W        W90362  28.078   2.393  12.951
23954W        W90363  10.520  39.587   0.329
23955W        W90364  15.372   1.711   4.364
23956W        W90365   8.865   6.948  14.825
23957W        W90366  15.217   6.113  12.023
23958W        W90367  27.430  31.051  14.861
23959W        W90368   9.358  12.212   0.344
23960W        W90369   8.357  22.188   3.038
23961W        W90370   7.344   9.099  11.946
23962W        W90371   6.385   8.739   1.015
23963W        W90372  27.537  25.625   1.774
23964W        W90373  17.442  24.500  11.047
23965W        W90374  43.289  39.787  14.873
23966W        W90375   1.552   5.679   2.545
23967W        W90376  29.460  39.775   1.311
23968W        W90377  28.327  36.318  13.610
23969W        W90378  29.743   1.178   4.881
23970W        W90379  36.848  37.825  14.047
23971W        W90380  26.981  41.402  11.657
23972W        W90381  17.468   0.674  12.815
23973W        W90382  44.742  36.668   2.274
23974W        W90383  11.903  19.954  10.430
23975W        W90384  18.522  30.264   2.205
23976W        W90385   2.815  17.806  14.081
23977W        W90386   7.871  37.966  11.450
23978W        W90387  16.721  25.036  11.615
23979W        W90388   8.761  30.556   1.412
23980W        W90389  43.966  26.620   0.971
23981W        W90390  35.595  31.522  12.568
23982W        W90391  24.618  30.149  14.823
23983W        W90392   4.444  28.416  12.817
23984W        W90393  43.549   8.223  12.292
23985W        W90394  44.031   4.918   0.795
23986W        W90395  15.556   6.791   1.740
23987W        W90396  44.752  34.395   0.456
23988W        W90397  35.071  19.795   2.171
23989W        W90398   6.740  20.557   2.491
23990W        W90399  28.885   5.234   4.590
23991W        W90400  42.410  41.486   2.767
23992W        W90401  28.928  11.656   0.901
23993W        W90402  23.274   3.073   4.050
23994W        W90403  19.108  22.748   2.686
23995W        W90404  18.170  18.517   3.365
23996W        W90405   0.132  22.961  13.485
23997W        W90406  22.049  43.872   0.272
23998W        W90407  11.107  20.355  12.072
23999W        W90408  27.886  24.430  12.483
24000W        W90409  29.017  10.862  11.167
24001W        W90410  37.000  30.625   2.480
24002W        W90411  41.100  44.901   1.436
24003W        W90412  18.850   8.632   2.922
24004W        W90413  17.890  26.490  11.519
24005W        W90414  37.905  44.919   4.264
24006W        W90415   3.723  17.492  13.061
24007W        W90416  34.906  23.568   1.123
24008W        W90417   0.477  40.257   0.462
24009W        W90418   5.716  36.133   3.008
24010W        W90419  41.430  43.872  11.207
24011W        W90420  22.026  20.190   2.564
24012W        W90421  24.001  11.759   0.841
24013W        W90422  39.537  36.919   2.311
24014W        W90423  24.007   7.482  14.920
24015W        W90424  41.994   6.821  11.546
24016W        W90425  11.507  34.567   1.254
24017W        W90426  23.196   3.883  11.206
24018W        W90427  14.384  35.714   4.130
24019W        W90428  42.810  17.289   1.386
24020W        W90429  39.119  42.117   4.237
24021W        W90430  30.212  29.112   2.471
24022W        W90431   2.804   0.726   0.960
24023W        W90432  31.633  11.376  11.046
24024W        W90433  41.926  13.125  14.410
24025W        W90434  32.034   1.399   0.766
24026W        W90435  24.053  36.763   3.576
24027W        W90436  36.567  36.465  13.353
24028W        W90437  37.955   8.791  13.048
24029W        W90438   5.090  32.133  11.529
24030W        W90439  42.848  19.848   1.293
24031W        W90440  24.173  11.648  14.497
24032W        W90441  11.322  33.082   2.814
24033W        W90442  33.152   1.291  13.380
24034W        W90443  28.696  27.973  10.271
24035W        W90444  35.440  16.718  10.678
24036W        W90445   5.022  37.879  13.837
24037W        W90446  25.486  34.514   4.149
24038W        W90447  35.817  23.035  11.889
24039W        W90448  42.540  37.266  13.451
24040W        W90449  34.026   6.531  10.510
24041W        W90450  19.549  38.748   4.324
24042W        W90451   9.708   4.771   0.673
24043W        W90452   1.720  20.332  12.448
24044W        W90453   1.704   8.837   4.169
24045W        W90454   9.585  24.751   0.914
24046W        W90455  30.828   4.309   0.751
24047W        W90456  33.917  23.975   2.808
24048W        W90457  38.964  26.767   1.332
24049W        W90458  32.566   0.103  13.484
24050W        W90459  44.571  43.938   4.453
24051W        W90460  24.525  34.329  14.228
24052W        W90461  18.993   9.681  12.110
24053W        W90462  34.177  41.925   1.907
24054W        W90463   9.280  22.204  12.169
24055W        W90464  25.957   2.418   3.286
24056W        W90465   4.776  38.862  14.443
24057W        W90466  15.187  10.390  10.787
24058W        W90467  35.210  14.812   3.679
24059W        W90468  41.523  32.474  14.225
24060W        W90469  14.761  13.804  10.729
24061W        W90470   7.447  18.566   4.979
24062W        W90471   2.899  17.612  13.323
24063W        W90472   8.769  36.449   1.254
24064W        W90473   6.735  38.008  10.498
24065W        W90474   1.509  24.527  12.652
24066W        W90475  12.497  34.532  10.689
24067W        W90476  21.067  40.100  10.575
24068W        W90477  18.326  10.361   2.316
24069W        W90478  43.404  19.286   2.287
24070W        W90479   6.441  29.848  13.580
24071W        W90480   6.209  12.091  14.745
24072W        W90481  35.298  13.316   4.707
24073W        W90482  31.848   4.924  12.830
24074W        W90483  14.789  37.213  12.221
24075W        W90484  24.570  37.593   2.598
24076W        W90485   3.407  32.673  14.374
24077W        W90486  33.641  37.852  12.583
24078W        W90487   6.130  44.363  14.058
24079W        W90488  37.555  25.537   0.884
24080W        W90489  32.573  34.198  11.403
24081W        W90490  18.217  30.900  11.457
24082W        W90491  33.576  34.457   3.739
24083W        W90492  14.093  26.532   0.264
24084W        W90493  14.572  20.456   1.159
24085W        W90494  25.051  34.348  14.066
24086W        W90495  25.770   6.877   2.074
24087W        W90496  14.264  19.274   0.895
24088W        W90497  39.773  15.200  11.508
24089W        W90498  17.784  28.713   1.488
24090W        W90499  32.432  32.049  14.742
24091W        W90500  43.294  17.845   1.704
24092W        W90501  16.096  11.686  10.590
24093W        W90502  44.201   3.710   2.284
24094W        W90503  37.924  40.667   0.422
24095W        W90504  27.065  37.129   1.939
24096W        W90505  24.084  24.775   1.834
24097W        W90506  31.875  29.477   5.305
24098W        W90507  34.856  36.099  11.078
24099W        W90508  39.988  28.723  10.484
24100W        W90509  15.769   8.632  10.906
24101W        W90510  26.579  33.488   3.233
24102W        W90511  35.309  41.939  12.530
24103W        W90512  34.522  41.986  14.493
24104W        W90513  14.089  28.484  11.611
24105W        W90514   6.843  39.873   4.140
24106W        W90515  34.814  25.543  12.550
24107W        W90516  28.693   1.874   2.350
24108W        W90517  19.778  35.021   4.059
24109W        W90518  11.224  39.068  10.753
24110W        W90519  33.876  26.709  11.928
24111W        W90520  15.821   1.975   1.538
24112W        W90521  37.948  17.071   2.458
24113W        W90522  31.318  21.213  10.671
24114W        W90523   5.183  28.038  11.613
24115W        W90524  38.774  33.545   2.737
24116W        W90525  43.405   0.411  12.794
24117W        W90526  38.666   0.260   2.824
24118W        W90527  19.714  40.879  14.860
24119W        W90528  21.472  41.391  14.797
24120W        W90529  14.329  41.018  13.354
24121W        W90530  25.491  41.678  14.746
24122W        W90531  23.821   9.680  11.632
24123W        W90532  36.633  19.480  14.752
24124W        W90533  39.291  44.484  14.797
24125W        W90534  14.851   6.811  11.639
24126W        W90535  16.485  22.149  12.883
24127W        W90536   8.270   6.239   1.014
24128W        W90537  16.983  17.718  11.683
24129W        W90538  36.814  32.483   3.126
24130W        W90539   6.237   1.878   3.204
24131W        W90540  20.762  31.552  12.883
24132W        W90541   8.995  17.531   0.720
24133W        W90542  23.138  10.463   4.690
24134W        W90543  21.170  36.716  10.999
24135W        W90544   8.324   0.922   5.043
24136W        W90545  38.483  19.432  12.439
24137W        W90546  39.519   6.683   0.338
24138W        W90547  34.110  33.208   4.718
24139W        W90548   6.190   5.847  14.412
24140W        W90549  13.419   3.056   2.242
24141W        W90550  18.130  35.590  11.071
24142W        W90551   5.216  38.162   2.408
24143W        W90552  26.977  17.771   1.940
24144W        W90553  29.214   4.815  11.406
24145W        W90554   8.275  15.810   3.901
24146W        W90555  43.787  34.396  10.600
24147W        W90556  12.064  26.014  10.984
24148W        W90557  23.480   5.855  10.891
24149W        W90558   9.434   8.287   0.369
24150W        W90559  12.420  10.789   3.257
24151W        W90560  31.153  24.176   2.292
24152W        W90561  29.201  17.142  12.932
24153W        W90562  26.515  10.252   3.548
24154W        W90563   9.471  11.600  11.153
24155W        W90564   2.754   3.298  10.441
24156W        W90565  10.431  20.946   4.111
24157W        W90566   1.235  27.194   0.733
24158W        W90567  14.108   1.247  13.503
24159W        W90568  34.421  19.119   2.335
24160W        W90569   7.690  41.283  14.815
24161W        W90570  24.165   6.214  10.357
24162W        W90571   9.467   6.750  11.218
24163W        W90572  41.336   4.959   2.319
24164W        W90573  27.180  10.175  13.134
24165W        W90574  29.026  22.044   3.917
24166W        W90575   2.351   7.172   4.598
24167W        W90576  44.364  41.236   3.788
24168W        W90577  10.751  31.379   0.241
24169W        W90578  20.512  35.433  13.457
24170W        W90579  16.790  26.452  10.730
24171W        W90580  35.751  38.819  11.093
24172W        W90581  34.714  41.185  14.884
24173W        W90582   9.868  30.388  11.664
24174W        W90583  40.050  39.312  13.387
24175W        W90584  42.843  14.407  13.771
24176W        W90585   0.826   1.327  13.587
24177W        W90586   3.383  31.453  12.962
24178W        W90587  23.165  42.376   2.930
24179W        W90588  10.145  26.526   2.233
24180W        W90589   6.031  28.600   5.527
24181W        W90590  30.560   4.765  11.632
24182W        W90591  18.097  28.996   0.927
24183W        W90592  30.030   6.927  12.044
24184W        W90593  30.974   2.155  12.026
24185W        W90594  18.058  37.339   4.446
24186W        W90595  42.408  35.879  12.200
24187W        W90596  23.231  43.560  13.412
24188W        W90597  14.235  24.639  13.007
24189W        W90598  42.858   3.100   1.639
24190W        W90599   7.189  35.052  10.507
24191W        W90600   2.654  30.973  11.494
24192W        W90601   9.408  15.958  13.930
24193W        W90602   3.462  24.045   2.845
24194W        W90603  24.684  16.148  12.460
24195W        W90604  23.105  20.735  11.398
24196W        W90605  11.852  24.691   0.681
24197W        W90606  36.151  14.041  13.978
24198W        W90607  31.571   0.426   4.623
24199W        W90608  38.372  30.266   4.939
24200W        W90609  24.954  43.443   4.612
24201W        W90610   0.668  19.047  11.988
24202W        W90611  33.752  38.873  13.862
24203W        W90612  40.407  18.338  11.398
24204W        W90613  29.365   6.267   0.051
24205W        W90614  23.898  10.078   2.884
24206W        W90615   3.746   8.692  12.893
24207W        W90616  15.320  32.557  12.494
24208W        W90617  25.756  36.417   3.820
24209W        W90618  13.558   8.854  13.561
24210W        W90619   7.483  38.340  14.030
24211W        W90620  42.033  18.738   4.491
24212W        W90621   4.685  25.013   3.712
24213W        W90622  32.957  34.849  11.946
24214W        W90623  11.457  29.362   2.360
24215W        W90624  18.333  21.675   3.717
24216W        W90625  11.074  36.165  14.008
24217W        W90626  19.667  39.731   2.652
24218W        W90627  13.431   8.661   1.377
24219W        W90628  39.505  41.765   2.329
24220W        W90629  10.295  27.030   1.274
24221W        W90630  24.688  42.729   1.022
24222W        W90631  25.607  11.906  10.539
24223W        W90632  20.690  37.558   5.270
24224W        W90633  17.623  28.611  11.302
24225W        W90634   9.681   2.871  13.588
24226W        W90635   1.262  26.319  12.960
24227W        W90636  17.633   0.635   3.182
24228W        W90637  27.154  10.922   4.948
24229W        W90638  38.867   0.874   1.297
24230W        W90639  35.953   5.769   2.159
24231W        W90640   6.211  10.376  12.331
24232W        W90641   4.970  23.025  14.209
24233W        W90642  38.288  13.781   1.952
24234W        W90643  34.421  40.757   2.301
24235W        W90644  43.879   9.662  13.995
24236W        W90645  40.926   2.469  12.226
24237W        W90646   6.237  10.635  14.758
24238W        W90647  14.733  12.599  12.881
24239W        W90648   1.954  37.753  14.872
24240W        W90649  16.540  31.199  11.140
24241W        W90650  24.171  19.991  11.847
24242W        W90651   3.247   0.114  14.564
24243W        W90652  25.064  23.758   0.783
24244W        W90653   4.855  18.722  13.927
24245W        W90654  37.681  12.844   2.512
24246W        W90655  39.544  38.358   4.545
24247W        W90656   3.631  41.646  13.499
24248W        W90657   7.342  33.619   2.246
24249W        W90658   7.872  19.374  14.664
24250W        W90659  37.572  40.943   1.715
24251W        W90660   5.368  35.104   4.513
24252W        W90661  12.728   7.764  11.078
24253W        W90662  32.434   5.706   1.889
24254W        W90663  20.018  36.442   3.153
24255W        W90664   2.760  31.963  11.149
24256W        W90665  25.969  13.833   0.327
24257W        W90666  27.330  13.613   1.290
24258W        W90667  36.444  35.963   2.242
24259W        W90668   9.519  20.615   1.036
24260W        W90669  17.055  23.529   3.201
24261W        W90670  29.362  10.206   4.939
24262W        W90671  28.680   8.893   1.426
24263W        W90672  30.641  31.947  11.501
24264W        W90673  19.585  16.550   4.388
24265W        W90674  18.575  27.057   0.613
24266W        W90675  14.285  23.544   4.444
24267W        W90676  13.659  30.598  14.698
24268W        W90677   0.880  12.210  13.836
24269W        W90678  22.740   4.699   0.852
24270W        W90679  43.959  33.874  10.428
24271W        W90680  29.206  10.737  12.661
24272W        W90681   2.419  41.323   1.742
24273W        W90682  38.180   3.747   3.675
24274W        W90683  41.695  25.542  12.602
24275W        W90684  29.954  20.476   2.763
24276W        W90685  33.210  32.877  12.083
24277W        W90686  21.339   3.444   1.540
24278W        W90687  17.773  28.018   4.810
24279W        W90688   8.950  20.729   3.298
24280W        W90689  42.017  11.255  14.065
24281W        W90690   8.660  12.761  14.341
24282W        W90691  38.869  25.955   3.119
24283W        W90692  27.576  10.408   5.545
24284W        W90693  38.631  10.982  11.885
24285W        W90694  11.235  28.741  11.183
24286W        W90695  33.340  29.265   1.773
24287W        W90696  13.098  34.784  14.190
24288W        W90697  44.408  36.233   0.521
24289W        W90698  37.419   3.058  13.736
24290W        W90699  35.472  33.120   0.965
24291W        W90700   0.958  10.589  14.456
24292W        W90701  35.164  24.593   2.734
24293W        W90702  22.651  11.969  10.731
24294W        W90703  43.118  23.090   0.975
24295W        W90704  21.902  33.315  10.334
24296W        W90705  39.575  38.026  11.006
24297W        W90706  28.454  35.032  14.393
24298W        W90707  37.406  18.027  12.151
24299W        W90708  39.920  10.139  13.088
24300W        W90709  32.274  14.842  14.787
24301W        W90710  11.762   6.824   1.985
24302W        W90711  25.603   2.807  11.263
24303W        W90712  40.065  11.500  12.819
24304W        W90713   1.835  44.464  10.770
24305W        W90714  17.704   6.276   0.497
24306W        W90715  30.930  30.168   4.556
24307W        W90716  44.479  40.233  13.087
24308W        W90717  18.159  38.535  11.631
24309W        W90718  36.375  25.666   3.910
24310W        W90719  40.256  15.064   0.204
24311W        W90720  13.435  40.265  10.626
24312W        W90721  43.499  11.784   4.173
24313W        W90722  38.932  18.605   3.135
24314W        W90723  43.981  30.622  13.433
24315W        W90724  23.084  14.315  13.411
24316W        W90725  33.028  21.048   5.217
24317W        W90726   3.798   8.422  14.681
24318W        W90727   8.445  31.837   3.246
24319W        W90728  33.441   5.153  11.601
24320W        W90729  39.424  20.823  11.074
24321W        W90730  32.029  38.513   2.660
24322W        W90731  33.176  35.987   0.393
24323W        W90732   3.297  31.673   4.376
24324W        W90733  10.698  10.361   4.058
24325W        W90734  19.272  42.608   4.674
24326W        W90735   8.501   4.416   0.924
24327W        W90736  40.886  22.013  10.548
24328W        W90737   0.530   4.689   1.356
24329W        W90738  40.203   4.364   4.591
24330W        W90739  13.402  15.192  11.556
24331W        W90740  44.151   7.142   4.609
24332W        W90741  13.363  16.071   2.315
24333W        W90742  12.123  14.823  11.531
24334W        W90743  27.778  28.253  11.116
24335W        W90744   2.672   9.021   3.793
24336W        W90745  39.349  30.618   4.490
24337W        W90746   6.214  31.398   0.621
24338W        W90747   0.940  17.231   3.785
24339W        W90748  43.351  26.072   1.647
24340W        W90749   4.819  18.804   0.807
24341W        W90750  40.381  39.966   4.009
24342W        W90751  28.020  23.432   2.903
24343W        W90752  10.287  41.933   0.662
24344W        W90753  25.944  10.251   2.856
24345W        W90754  39.081   5.738  10.376
24346W        W90755  28.222  28.416  12.822
24347W        W90756  43.132   3.988  13.988
24348W        W90757  16.828  35.903   3.139
24349W        W90758  27.990  21.233  10.234
24350W        W90759  43.619  26.644   0.164
24351W        W90760  28.700  16.682  14.035
24352W        W90761  38.458  26.194   1.765
24353W        W90762   2.026  23.064  13.863
24354W        W90763  34.836  14.833  12.589
24355W        W90764   8.439  19.851   4.605
24356W        W90765   3.742  20.052   3.788
24357W        W90766   0.837  14.589  11.072
24358W        W90767  24.326   9.282   4.540
24359W        W90768  20.681  21.854   2.717
24360W        W90769  22.060  13.229  13.010
24361W        W90770  24.001  41.001  13.891
24362W        W90771   5.151  40.892  11.554
24363W        W90772  24.236  35.792  12.552
24364W        W90773  15.811  44.256  12.017
24365W        W90774  33.113   5.718  13.229
24366W        W90775   2.203  25.131  14.211
24367W        W90776  22.667  28.943  14.810
24368W        W90777  44.973  29.192   2.337
24369W        W90778  18.061  12.722  12.806
24370W        W90779  30.599  31.937  13.855
24371W        W90780  20.839   1.066  12.837
24372W        W90781  42.844  11.325  14.999
24373W        W90782  32.344  19.176  12.236
24374W        W90783  39.099  39.086  14.229
24375W        W90784  34.408   2.341   5.054
24376W        W90785  42.843   0.703   0.258
24377W        W90786   3.728  36.737   2.782
24378W        W90787  25.238   7.648  10.238
24379W        W90788  21.328  13.505  10.608
24380W        W90789   1.407   0.588   1.897
24381W        W90790  33.359  40.748  13.975
24382W        W90791  24.376  25.007   3.230
24383W        W90792  31.042  12.458  12.053
24384W        W90793  32.216  12.190  10.720
24385W        W90794  26.316  32.006  13.349
24386W        W90795  41.481  20.290   0.010
24387W        W90796  39.900  20.237  13.560
24388W        W90797  33.517  20.328  14.711
24389W        W90798  12.239  35.883   3.182
24390W        W90799   6.615  40.204   1.889
24391W        W90800  32.955  44.330   2.455
24392W        W90801  12.830  33.685  12.777
24393W        W90802  43.707  40.413   0.806
24394W        W90803  43.520  36.908  14.330
24395W        W90804  23.950  14.565  12.945
24396W        W90805   1.389  43.853   0.909
24397W        W90806   2.318  25.751  13.769
24398W        W90807  30.146   4.254  13.503
24399W        W90808  36.951  30.734   1.973
24400W        W90809  40.105  20.842   4.562
24401W        W90810  11.188  34.197   1.431
24402W        W90811  41.724   1.931  14.821
24403W        W90812  14.828   2.769  13.291
24404W        W90813   7.702   9.551   3.690
24405W        W90814  44.311  15.723  11.181
24406W        W90815   3.529  28.453  11.205
24407W        W90816  40.054  37.357   9.855
24408W        W90817  12.601  44.367   4.551
24409W        W90818  39.964  42.661   4.064
24410W        W90819   0.707  27.894   1.625
24411W        W90820  12.939  43.661  14.977
24412W        W90821  29.289  43.435   3.865
24413W        W90822  12.396   1.251  12.589
24414W        W90823  17.813   8.248  14.791
24415W        W90824   6.962   0.449  12.915
24416W        W90825  30.088  34.139   3.785
24417W        W90826  28.758  12.831  13.944
24418W        W90827  21.182  13.976   1.589
24419W        W90828  37.314  44.933   0.414
24420W        W90829   0.818  29.904   1.772
24421W        W90830  37.462   2.439   2.102
24422W        W90831  41.369  21.558   1.762
24423W        W90832   4.000  32.003   0.443
24424W        W90833  14.387  28.961   4.691
24425W        W90834  21.472  16.549   0.733
24426W        W90835   6.426   4.360   2.851
24427W        W90836   8.645  26.225  14.469
24428W        W90837  39.993  43.911   2.431
24429W        W90838  33.917  28.987  11.928
24430W        W90839  19.840  40.824  12.952
24431W        W90840   0.331  16.968   2.645
24432W        W90841   6.483  22.739  12.116
24433W        W90842  27.711   4.773  14.837
24434W        W90843  31.239  10.557   0.054
24435W        W90844  44.859  31.395  12.466
24436W        W90845  38.854   1.762   2.301
24437W        W90846  10.805  14.556  13.148
24438W        W90847  44.900  13.213   3.599
24439W        W90848  26.454  12.731   3.228
24440W        W90849  12.862  22.039   3.236
24441W        W90850  17.577   5.873   0.792
24442W        W90851  36.137  20.173  13.317
24443W        W90852  14.043  26.937  13.934
24444W        W90853  33.996   1.937   4.242
24445W        W90854  38.489  38.795  13.169
24446W        W90855  15.733  38.786   1.905
24447W        W90856   2.029  14.579   0.882
24448W        W90857   5.277  40.577  13.287
24449W        W90858  27.499  37.669   2.284
24450W        W90859  38.069   2.392  12.310
24451W        W90860   7.603   3.463   0.963
24452W        W90861  37.643  24.902  11.530
24453W        W90862  17.357  25.092   3.164
24454W        W90863  29.815   9.396   4.807
24455W        W90864   1.482  30.935  11.003
24456W        W90865  20.718   0.775   3.850
24457W        W90866  32.074  31.650  12.076
24458W        W90867   2.743   9.627  14.520
24459W        W90868  20.171  24.538  14.340
24460W        W90869   2.270  14.348  14.552
24461W        W90870  30.116  36.003  13.824
24462W        W90871   5.583  20.642   3.958
24463W        W90872  11.651  33.764   0.272
24464W        W90873  23.746  39.749  10.527
24465W        W90874   3.766   8.459   0.696
24466W        W90875  25.943  18.269  10.492
24467W        W90876  13.393  31.962   9.745
24468W        W90877  36.461  24.603  12.919
24469W        W90878   6.750   3.927   2.855
24470W        W90879  44.006   6.126   5.330
24471W        W90880  22.011  17.980   1.424
24472W        W90881  43.839  30.621  10.696
24473W        W90882  22.233  29.913  13.190
24474W        W90883  29.066  43.750  13.273
24475W        W90884  22.904   4.286  13.445
24476W        W90885  24.190  43.747  10.900
24477W        W90886  37.644  15.532  13.796
24478W        W90887  22.275  15.497   3.984
24479W        W90888  19.733  23.164  12.058
24480W        W90889   0.890  17.569  10.780
24481W        W90890  36.624   1.415   2.201
24482W        W90891   3.908  26.909  14.061
24483W        W90892  13.577  43.043   3.659
24484W        W90893   8.641  18.871   3.234
24485W        W90894   3.022  16.807   3.392
24486W        W90895   9.956   6.274  10.690
24487W        W90896  24.545   5.596  13.005
24488W        W90897  26.540   8.421  13.351
24489W        W90898  44.405  37.408   2.635
24490W        W90899  31.640  43.937   2.361
24491W        W90900  27.395  38.182   4.783
24492W        W90901   2.754  13.772   2.341
24493W        W90902  24.612   5.323   4.465
24494W        W90903  15.638  25.036   2.783
24495W        W90904  10.239   2.777  11.916
24496W        W90905   0.307  25.770  12.022
24497W        W90906  22.705  35.915  12.422
24498W        W90907  32.613  34.374   2.240
24499W        W90908  16.193  33.498  12.489
24500W        W90909  15.155   3.355   4.303
24501W        W90910  21.946  20.846  12.634
24502W        W90911  40.515  42.912   2.335
24503W        W90912  12.964   7.680   4.950
24504W        W90913  43.054  28.596  14.247
24505W        W90914  22.170  15.604  14.498
24506W        W90915  29.009  42.746   5.000
24507W        W90916  10.915  21.603  11.216
24508W        W90917  35.010  21.847  14.329
24509W        W90918  11.460  19.468  12.667
24510W        W90919   0.447   4.033  10.786
24511W        W90920   7.700  26.441   3.344
24512W        W90921  24.622   6.290   4.539
24513W        W90922  41.444  24.824  14.072
24514W        W90923  34.712  44.418   0.003
24515W        W90924  10.716  36.116   2.917
24516W        W90925  17.584  20.727   0.751
24517W        W90926  32.341  16.757  12.741
24518W        W90927  38.796  24.241  12.033
24519W        W90928  30.568  21.157   1.737
24520W        W90929  21.828  29.483   2.184
24521W        W90930  43.276  24.403   4.939
24522W        W90931  41.928  26.132   2.190
24523W        W90932   8.258  23.516   1.195
24524W        W90933  12.908  25.248   2.207
24525W        W90934  41.566   5.321   4.326
24526W        W90935   7.148  33.934   4.768
24527W        W90936   2.982   5.566   2.213
24528W        W90937  25.260  32.782   3.727
24529W        W90938  42.806   1.776   3.660
24530W        W90939  17.227  22.580   2.823
24531W        W90940  40.824   6.289   0.234
24532W        W90941  18.515  16.835  11.463
24533W        W90942  36.577  15.507  12.170
24534W        W90943  35.413   0.149   1.212
24535W        W90944  17.913  36.972  10.749
24536W        W90945  40.849   6.258  10.386
24537W        W90946  13.126  15.220  11.132
24538W        W90947  19.038   0.943   1.388
24539W        W90948  14.608  32.909   3.967
24540W        W90949   3.293  13.043   1.390
24541W        W90950  43.229  39.122  14.065
24542W        W90951   6.837  36.082  13.357
24543W        W90952  21.177  27.232   1.276
24544W        W90953  35.427   3.280   3.582
24545W        W90954  32.491  17.186  14.556
24546W        W90955  24.983  14.174  14.750
24547W        W90956  43.483  43.927   4.236
24548W        W90957  13.312  14.859  14.043
24549W        W90958   3.190  20.236   1.252
24550W        W90959  13.796  23.259  10.676
24551W        W90960  28.027  38.548   1.425
24552W        W90961  13.148   6.768   0.791
24553W        W90962  12.900  29.215  14.411
24554W        W90963   7.371   3.894   1.277
24555W        W90964  24.651  43.903   2.274
24556W        W90965   9.678  39.451  14.802
24557W        W90966  31.142   6.949  14.473
24558W        W90967   8.771  27.698  14.445
24559W        W90968   0.752  38.433  11.461
24560W        W90969  27.989   5.382  12.682
24561W        W90970  42.828  27.907   3.689
24562W        W90971  24.129  17.482   0.766
24563W        W90972  20.880  44.506  11.158
24564W        W90973  15.138  21.222   4.034
24565W        W90974  25.419  16.943  14.262
24566W        W90975  43.030  25.293  14.356
24567W        W90976  20.591  36.485   2.726
24568W        W90977  27.071   6.693   1.718
24569W        W90978  37.809   0.730  14.476
24570W        W90979  17.865  29.905  12.315
24571W        W90980  43.771  29.421   2.658
24572W        W90981   1.995  36.952   2.638
24573W        W90982  12.105  38.544  10.892
24574W        W90983   9.071  29.559   0.472
24575W        W90984  13.786   9.790   2.593
24576W        W90985  39.872   3.007  12.368
24577W        W90986   0.270  42.922  13.880
24578W        W90987  44.703  25.712  11.205
24579W        W90988  29.440  10.131   0.214
24580W        W90989  13.178   9.118   1.778
24581W        W90990  13.669  31.012  13.315
24582W        W90991  43.803  11.408   3.704
24583W        W90992  22.420  20.125  14.332
24584W        W90993  31.887  12.121   0.369
24585W        W90994  23.969  22.646   1.196
24586W        W90995  36.847  38.253  14.338
24587W        W90996  35.862  34.656   2.872
24588W        W90997  44.481  27.435  13.585
24589W        W90998  23.915  33.583  13.873
24590W        W90999   7.743   8.793   0.274
24591W        W91000  19.166  42.388  14.832
24592W        W91001  40.049  44.947  13.293
24593W        W91002  34.374  10.583  12.444
24594W        W91003  21.240  36.472  12.796
24595W        W91004  21.693   7.450  14.940
24596W        W91005  38.373  21.436   0.561
24597W        W91006  38.626  35.696   2.659
24598W        W91007  11.476  22.250  10.442
24599W        W91008  24.211  18.727   0.024
24600W        W91009  34.835  32.590   2.406
24601W        W91010  27.140  11.213  11.332
24602W        W91011  22.897  24.041   0.128
24603W        W91012  33.193  20.095  14.363
24604W        W91013  37.970  29.489   1.026
24605W        W91014  42.377  28.027   3.408
24606W        W91015  25.629  14.042  12.359
24607W        W91016  38.449  29.641  14.508
24608W        W91017  37.801  31.778   2.749
24609W        W91018  44.322  14.138  12.400
24610W        W91019  42.391  38.410  14.232
24611W        W91020  30.183  34.006  13.825
24612W        W91021  42.899   7.791   5.019
24613W        W91022  22.999  19.761  13.028
24614W        W91023  43.417   4.843   1.718
24615W        W91024  40.803   2.007   0.322
24616W        W91025  11.511  44.437  12.685
24617W        W91026  20.970  29.155   3.194
24618W        W91027  13.991  24.330   1.944
24619W        W91028  10.454  22.650  12.969
24620W        W91029   6.741  11.587  13.582
24621W        W91030  31.965  16.558   0.322
24622W        W91031  11.760   9.230   1.866
24623W        W91032   3.447  21.044  10.690
24624W        W91033  29.213   5.860   0.418
24625W        W91034  15.363  21.158  12.404
24626W        W91035  18.475   6.303  12.977
24627W        W91036   0.555  12.260   4.844
24628W        W91037  16.262   7.420  11.175
24629W        W91038  41.389  38.810  12.024
24630W        W91039   3.274  13.832   4.750
24631W        W91040  28.461  15.694   1.324
24632W        W91041  38.868  19.603   0.414
24633W        W91042  13.295  34.352   1.438
24634W        W91043  22.824  21.523   5.264
24635W        W91044  28.805  36.201  13.758
24636W        W91045  32.450   4.349  11.691
24637W        W91046  20.827  16.235   4.374
24638W        W91047  40.512  35.474  10.582
24639W        W91048  27.568  21.636   3.758
24640W        W91049  42.090   9.904   0.982
24641W        W91050  26.973  36.499  12.698
24642W        W91051  35.557  25.026   1.266
24643W        W91052   2.418  16.043   1.302
24644W        W91053  34.091  29.898   0.418
24645W        W91054  42.297  38.065   2.432
24646W        W91055  13.090  32.194  12.863
24647W        W91056  22.248  24.725  14.459
24648W        W91057   0.922  10.405   1.419
24649W        W91058  25.200  38.083   1.303
24650W        W91059  27.662  28.109   3.214
24651W        W91060  34.807   1.284   0.397
24652W        W91061  13.891  28.372   4.246
24653W        W91062  21.165  30.614   3.068
24654W        W91063  26.271   7.552   1.196
24655W        W91064  37.436  11.862   3.717
24656W        W91065   2.524  22.497   2.324
24657W        W91066  23.528   1.352  13.017
24658W        W91067   8.716   1.281   0.188
24659W        W91068  11.704  38.604  12.468
24660W        W91069  25.255  43.083   3.680
24661W        W91070  34.210  28.604   0.257
24662W        W91071  44.404  20.136   3.849
24663W        W91072   6.815  23.313  13.485
24664W        W91073  44.956  12.395  11.053
24665W        W91074  34.026   3.304   2.779
24666W        W91075  22.713  33.239  13.552
24667W        W91076   1.565  28.209  12.384
24668W        W91077  18.678  16.112  12.541
24669W        W91078  41.178   9.275  11.510
24670W        W91079  17.889  14.711  13.359
24671W        W91080  13.402  22.061   1.435
24672W        W91081  35.515  33.629   0.912
24673W        W91082  35.529   8.358  13.461
24674W        W91083  12.165  23.966   1.876
24675W        W91084  23.151   3.433  13.033
24676W        W91085   7.393  22.115  13.817
24677W        W91086  42.695  15.761  11.137
24678W        W91087  16.158  15.567  11.660
24679W        W91088  16.574  23.067   0.337
24680W        W91089   7.758  10.265  12.641
24681W        W91090  24.559  12.030   1.432
24682W        W91091  33.325  18.291  12.969
24683W        W91092  14.726  22.187   1.691
24684W        W91093  13.506  22.581  13.853
24685W        W91094   0.910  18.061  11.975
24686W        W91095  41.245  26.177  13.527
24687W        W91096   4.748  16.730  13.136
24688W        W91097  25.239  44.594  11.087
24689W        W91098  20.040  32.208   1.832
24690W        W91099   6.706   8.449   4.499
24691W        W91100  15.383  10.430   4.144
24692W        W91101  22.517  34.577  12.066
24693W        W91102  14.502  10.328   3.106
24694W        W91103  44.963  15.726   2.169
24695W        W91104  19.114  31.152  14.531
24696W        W91105  15.678  35.600   2.255
24697W        W91106  16.771  22.125  12.049
24698W        W91107  42.743  25.119  12.878
24699W        W91108   3.006  19.126  14.960
24700W        W91109  22.362  18.264  12.639
24701W        W91110  34.710   2.430   3.833
24702W        W91111  31.762   4.743  10.377
24703W        W91112   4.516  33.541  13.401
24704W        W91113   8.290  11.207   0.701
24705W        W91114  39.494  19.154   2.780
24706W        W91115  16.546  14.217  10.706
24707W        W91116   8.626  26.776   2.517
24708W        W91117  32.701   6.963   1.427
24709W        W91118  27.723  27.323   0.054
24710W        W91119  39.771  16.150   1.886
24711W        W91120   0.942   8.792   0.066
24712W        W91121   5.160   4.732   3.201
24713W        W91122  10.341  44.057   1.429
24714W        W91123  13.288  41.267  14.156
24715W        W91124  23.620  38.052  13.499
24716W        W91125   7.263  15.381  12.410
24717W        W91126  39.195  13.115   1.283
24718W        W91127  19.017   9.945   0.880
24719W        W91128  40.774  35.115   2.691
24720W        W91129  17.351   3.427  13.834
24721W        W91130   3.665  33.322   2.713
24722W        W91131  39.759  31.590   3.350
24723W        W91132   3.472  24.058  14.097
24724W        W91133  39.039  11.175   4.292
24725W        W91134  33.906  14.408  12.129
24726W        W91135  13.240  25.597  13.386
24727W        W91136  28.615   8.704  12.086
24728W        W91137  39.882  12.187  14.269
24729W        W91138  27.568  23.103   2.779
24730W        W91139  12.957  17.117   1.461
24731W        W91140   8.737  26.817   2.000
24732W        W91141  39.484   0.415  13.852
24733W        W91142  31.799  23.248   0.057
24734W        W91143   1.866  22.668   2.885
24735W        W91144  25.574  18.167  13.574
24736W        W91145   9.188  19.978  13.594
24737W        W91146  34.587  26.975   3.788
24738W        W91147  30.053  14.274  11.613
24739W        W91148   5.835  34.529   4.840
24740W        W91149  11.683  14.341  13.198
24741W        W91150  17.529  35.973  10.787
24742W        W91151   5.279  32.830  13.272
24743W        W91152  16.040   9.362   0.397
24744W        W91153  21.693   3.149   1.257
24745W        W91154  26.915   0.728  11.872
24746W        W91155  25.132  16.960   3.348
24747W        W91156   6.236   2.409  14.819
24748W        W91157  16.065  40.531   2.084
24749W        W91158  12.745  35.938  10.085
24750W        W91159  20.960  21.744  13.393
24751W        W91160  41.005  40.024  12.941
24752W        W91161  13.900  28.146  14.454
24753W        W91162   5.837  34.598  13.872
24754W        W91163  41.753   3.433   0.477
24755W        W91164  28.105  10.091   3.173
24756W        W91165  15.555  11.386   3.373
24757W        W91166  27.974   9.315  10.178
24758W        W91167   3.217  14.980  11.987
24759W        W91168  19.826  19.278  13.881
24760W        W91169  25.730  20.679  14.765
24761W        W91170  19.926   6.443  14.747
24762W        W91171  15.024  17.698  14.806
24763W        W91172  34.377  31.018  11.980
24764W        W91173  29.931  31.994  12.992
24765W        W91174  44.553  14.220  13.982
24766W        W91175  27.460  14.443  10.672
24767W        W91176  19.026  20.099  14.260
24768W        W91177  43.372   1.886   2.920
24769W        W91178  41.906   7.876   1.794
24770W        W91179  22.704  11.815   3.350
24771W        W91180  10.133  37.150  11.245
24772W        W91181  37.114  13.207  14.774
24773W        W91182   9.187  10.892   4.577
24774W        W91183  30.718   8.309  11.359
24775W        W91184  26.392  43.605  14.960
24776W        W91185   4.917  15.285  12.021
24777W        W91186  38.543  10.156   1.242
24778W        W91187  29.633  11.298  14.453
24779W        W91188  41.138  28.560  12.987
24780W        W91189  43.482   6.809   4.958
24781W        W91190  40.367  24.513   4.596
24782W        W91191  35.642  38.489  12.040
24783W        W91192  12.731  23.194   3.332
24784W        W91193  38.216  27.467   2.258
24785W        W91194  21.063  27.943   4.187
24786W        W91195  28.430  12.396   5.678
24787W        W91196  10.356  13.294   2.622
24788W        W91197  23.296  34.173   0.418
24789W        W91198  11.088  19.824   4.100
24790W        W91199  11.758  26.070   3.138
24791W        W91200  17.466  35.623  12.482
24792W        W91201  27.387   8.690   0.065
24793W        W91202  27.425   7.018   2.700
24794W        W91203  32.865  31.794   4.550
24795W        W91204  27.954   3.993   2.771
24796W        W91205  33.352  12.815  12.478
24797W        W91206  25.522  42.488  11.609
24798W        W91207  20.641  20.476   2.215
24799W        W91208  17.572   5.910   4.917
24800W        W91209  14.075  39.735  10.907
24801W        W91210  19.156  26.234  12.599
24802W        W91211  38.889  32.325   3.924
24803W        W91212  37.896  25.297   4.169
24804W        W91213  36.552  11.863  10.553
24805W        W91214   3.199  26.701   0.334
24806W        W91215  26.110   4.996   4.431
24807W        W91216   3.835  22.913  10.709
24808W        W91217  10.569  42.807  13.273
24809W        W91218  38.938   7.145   2.946
24810W        W91219  20.125  14.801   2.085
24811W        W91220  20.311   5.764  13.622
24812W        W91221   6.148  23.183  14.478
24813W        W91222  17.401  11.462  12.427
24814W        W91223   4.453  30.339   1.784
24815W        W91224  12.201   0.740  13.811
24816W        W91225  35.850  40.025   4.038
24817W        W91226  43.698  34.475  14.098
24818W        W91227  26.117  21.968  14.420
24819W        W91228  21.184   4.957   4.540
24820W        W91229   4.242  11.249   1.766
24821W        W91230  44.801   1.150  13.963
24822W        W91231  34.625  42.439  10.984
24823W        W91232  13.055  12.950   1.503
24824W        W91233   8.184  36.499  11.880
24825W        W91234  13.741  42.055  12.512
24826W        W91235   6.820  27.025   2.404
24827W        W91236  17.297  44.698  13.488
24828W        W91237  18.649   8.753  14.401
24829W        W91238  24.747   5.235  14.590
24830W        W91239  26.891  22.085  14.889
24831W        W91240  43.067  16.359   2.908
24832W        W91241  10.071  39.090   2.515
24833W        W91242   8.271  27.101   2.343
24834W        W91243  33.494  16.441   2.464
24835W        W91244  19.769  37.586  13.506
24836W        W91245  38.323  17.565   2.222
24837W        W91246  41.907  26.195  11.913
24838W        W91247  16.284  41.974   1.916
24839W        W91248  26.300  34.537   9.817
24840W        W91249  20.249  37.322   3.632
24841W        W91250  23.143  13.929  11.277
24842W        W91251  31.141  15.201  14.548
24843W        W91252   0.054   6.401   1.140
24844W        W91253  16.122  20.216   2.410
24845W        W91254  34.881  24.081   1.241
24846W        W91255  34.802  37.021   0.728
24847W        W91256  22.902  17.003  12.534
24848W        W91257  20.466  10.055   2.375
24849W        W91258   3.133  28.194  12.173
24850W        W91259  32.576  16.132   0.454
24851W        W91260   5.512  44.135   4.053
24852W        W91261  21.029  21.240  13.533
24853W        W91262  14.228  18.187  12.443
24854W        W91263   9.220  31.074  10.600
24855W        W91264  13.637  13.805  13.436
24856W        W91265  32.996  26.397   3.068
24857W        W91266  39.471   6.895   1.396
24858W        W91267  32.615  36.696  14.850
24859W        W91268  44.894  24.080   1.975
24860W        W91269  35.041  25.200   3.768
24861W        W91270  22.190  17.064  13.512
24862W        W91271   8.371  30.853   3.178
24863W        W91272   4.193  31.541   0.283
24864W        W91273  11.730   3.428  12.637
24865W        W91274   8.883   3.238  14.799
24866W        W91275  11.207  26.006   1.831
24867W        W91276  41.955  19.593   1.955
24868W        W91277   4.118   7.633   4.247
24869W        W91278  27.032   3.431   2.912
24870W        W91279  25.293  27.760  14.531
24871W        W91280  32.600  11.797  13.971
24872W        W91281   6.153  22.673   5.077
24873W        W91282  20.165  43.447   2.866
24874W        W91283   5.682   1.400   1.261
24875W        W91284  36.157  12.782   4.941
24876W        W91285  32.676  23.156   4.689
24877W        W91286  18.538  31.880   0.340
24878W        W91287  30.477  35.617  13.832
24879W        W91288   5.380   7.116  13.237
24880W        W91289  23.534  36.346  12.648
24881W        W91290  13.292  35.331  11.992
24882W        W91291   9.978  22.356   2.078
24883W        W91292  18.747  29.442   4.206
24884W        W91293  40.520  44.908   3.389
24885W        W91294  40.546  30.283   4.444
24886W        W91295  30.556  38.640   4.241
24887W        W91296  37.118  13.425   2.823
24888W        W91297   6.610   9.229   0.900
24889W        W91298  32.729  10.750  14.683
24890W        W91299  30.639   1.733  14.452
24891W        W91300   4.198  31.879  12.036
24892W        W91301  41.596   3.216   1.789
24893W        W91302  24.704  38.368   3.405
24894W        W91303  31.788  35.038   4.587
24895W        W91304  39.328   2.300   2.496
24896W        W91305  43.458  22.063   1.892
24897W        W91306  31.734  44.936   2.343
24898W        W91307  42.832  41.841  13.518
24899W        W91308   2.317  42.863  11.194
24900W        W91309  40.624  10.354  11.940
24901W        W91310  22.111  29.196   0.437
24902W        W91311  12.015   8.776  11.568
24903W        W91312  36.032  38.090  13.053
24904W        W91313  27.098  28.193  14.794
24905W        W91314   2.853  31.696  10.715
24906W        W91315  16.055   4.135   3.038
24907W        W91316  36.710  30.886  11.645
24908W        W91317   9.187  35.126   1.328
24909W        W91318  20.098  19.303   2.057
24910W        W91319  43.274  14.596  12.894
24911W        W91320  38.597  20.642   1.746
24912W        W91321  41.483  29.039  13.775
24913W        W91322  38.432  17.053   2.243
24914W        W91323  12.552  15.211   3.810
24915W        W91324  22.911  36.616  12.981
24916W        W91325   3.827   5.340  10.453
24917W        W91326   2.272  18.557   0.353
24918W        W91327  43.910  36.602   2.856
24919W        W91328   1.895  30.551  13.917
24920W        W91329  20.853  34.023   3.160
24921W        W91330   0.808   8.153   2.379
24922W        W91331   7.395  26.059   4.785
24923W        W91332  40.957  10.268  12.862
24924W        W91333  20.194  38.710  11.693
24925W        W91334  15.870  13.741  12.921
24926W        W91335   8.851  26.063   4.164
24927W        W91336  43.386  11.462   4.582
24928W        W91337  30.146  16.618  14.028
24929W        W91338  37.810  39.892  11.377
24930W        W91339  27.056  30.825   1.390
24931W        W91340  28.609  12.747   1.792
24932W        W91341  31.641  11.738  13.524
24933W        W91342  19.745  43.455  11.418
24934W        W91343   1.933   7.149   3.310
24935W        W91344  18.127  21.329   1.134
24936W        W91345  29.850   9.084  14.306
24937W        W91346  29.019  10.522   4.526
24938W        W91347  19.710   0.731  12.556
24939W        W91348  44.925   7.305  14.834
24940W        W91349  42.530   9.456   3.507
24941W        W91350  41.611  22.164   2.232
24942W        W91351  17.582  24.639   4.348
24943W        W91352  12.280  11.452  12.542
24944W        W91353  37.023  41.357  14.455
24945W        W91354   1.329  44.260   4.596
24946W        W91355   3.407  32.569   3.041
24947W        W91356  37.100  19.895   3.711
24948W        W91357  16.543   8.680   4.109
24949W        W91358   1.795  17.627   1.838
24950W        W91359   0.714   9.556  14.365
24951W        W91360  34.469  16.095  14.688
24952W        W91361  34.119   4.430   0.403
24953W        W91362  42.517  26.221   3.388
24954W        W91363  33.467  13.125  10.450
24955W        W91364   8.366  38.004  11.583
24956W        W91365  43.939  20.436   1.490
24957W        W91366  41.006  36.979   2.345
24958W        W91367   8.927  28.198  12.496
24959W        W91368  25.120  41.364  12.612
24960W        W91369  11.282  20.578  10.727
24961W        W91370  40.429  20.910   3.290
24962W        W91371  38.834  30.852   4.651
24963W        W91372  10.912  21.748  13.011
24964W        W91373  29.637  28.594   1.647
24965W        W91374  39.922  12.401  13.768
24966W        W91375  36.299  43.754   4.462
24967W        W91376  16.781  44.310  13.986
24968W        W91377  20.209  13.550   2.755
24969W        W91378   3.920  23.989   1.371
24970W        W91379  16.877  18.317   0.862
24971W        W91380  33.051  10.007   1.907
24972W        W91381  40.926  35.832  14.836
24973W        W91382   3.843   6.704   4.816
24974W        W91383  12.710   8.146   0.545
24975W        W91384  19.202  34.349   4.075
24976W        W91385   1.273  14.214   4.617
24977W        W91386   6.261  21.691   2.940
24978W        W91387  17.078  33.861   0.681
24979W        W91388  39.943  28.789  11.519
24980W        W91389  40.513  36.544   3.069
24981W        W91390  27.094  12.236  12.603
24982W        W91391  34.949  24.480   1.969
24983W        W91392   7.896  37.613   3.699
24984W        W91393   5.742  22.326   2.745
24985W        W91394  21.244  40.860   1.340
24986W        W91395  29.404  14.944   1.699
24987W        W91396  42.396  21.457   0.862
24988W        W91397   6.706  29.636  13.982
24989W        W91398  10.486  37.980  11.096
24990W        W91399  28.708   2.691  11.501
24991W        W91400  24.765   4.293  13.827
24992W        W91401  15.384  14.094   3.931
24993W        W91402  17.569  35.485   2.147
24994W        W91403  32.719   1.772  11.842
24995W        W91404  24.786   8.423  11.858
24996W        W91405   9.871  31.514   0.339
24997W        W91406  25.609  39.026   0.669
24998W        W91407  23.476  24.950   3.206
24999W        W91408  22.121  34.531   3.582
25000W        W91409  30.483  39.090  11.982
25001W        W91410  17.783  18.846   4.511
25002W        W91411  44.298  12.097  12.696
25003W        W91412  34.929   2.395   5.015
25004W        W91413  29.463  11.707   1.103
25005W        W91414  35.929  39.089  13.091
25006W        W91415  25.566  11.869  13.858
25007W        W91416   9.620  32.824  12.500
25008W        W91417  27.500  11.269   1.981
25009W        W91418  34.478  25.869   2.107
25010W        W91419  40.455  32.989  14.910
25011W        W91420   7.750  30.209   0.456
25012W        W91421  28.401  30.904  10.898
25013W        W91422  39.565  44.124   2.881
25014W        W91423  21.925  20.721  13.348
25015W        W91424  44.688  28.715  13.318
25016W        W91425   5.458  38.350   0.331
25017W        W91426  37.502  32.347   0.366
25018W        W91427  17.077  39.319  11.157
25019W        W91428  11.953   2.917  14.320
25020W        W91429  15.852  36.309  12.096
25021W        W91430  33.470  10.829   1.934
25022W        W91431  15.660  24.110   1.276
25023W        W91432   2.406  27.873   1.462
25024W        W91433  30.253  33.773  11.617
25025W        W91434   8.607  37.587   2.061
25026W        W91435   3.357  10.745   3.514
25027W        W91436  19.580  40.960   1.981
25028W        W91437  20.649  18.612   1.701
25029W        W91438  21.481  14.815   2.492
25030W        W91439  34.777   3.544   4.097
25031W        W91440  35.903  34.447   3.371
25032W        W91441   3.030  22.172   3.704
25033W        W91442  44.623   8.869  13.100
25034W        W91443  16.001  34.665   3.194
25035W        W91444  43.400  26.531  12.061
25036W        W91445  43.292  42.288   3.780
25037W        W91446  10.086   1.517   1.514
25038W        W91447  26.192  32.536  12.018
25039W        W91448  21.172  15.217  14.998
25040W        W91449   8.433   8.905   3.338
25041W        W91450  21.566  30.504  12.358
25042W        W91451  25.489  22.744  13.494
25043W        W91452  25.502   9.848  14.964
25044W        W91453  40.923  29.623   0.338
25045W        W91454  19.938  29.016   4.578
25046W        W91455  21.603  27.950   2.289
25047W        W91456  40.057  23.082   2.195
25048W        W91457  27.780  44.863  10.333
25049W        W91458   0.490  19.056   2.357
25050W        W91459  42.507  36.976  11.627
25051W        W91460   6.888  34.324  10.300
25052W        W91461  43.035   5.747  10.753
25053W        W91462  26.120  33.424   1.010
25054W        W91463  11.139  37.112   0.259
25055W        W91464  32.213   6.955   2.422
25056W        W91465   1.627  44.324   1.014
25057W        W91466  29.446  12.586  10.193
25058W        W91467  38.446  40.260  13.817
25059W        W91468  16.758   0.922  12.445
25060W        W91469  25.529  38.448   4.953
25061W        W91470  24.095  21.801  13.973
25062W        W91471  41.415  35.689   3.656
25063W        W91472  30.052  35.922   3.721
25064W        W91473   4.298   5.815  11.151
25065W        W91474  37.030  34.815  12.999
25066W        W91475  14.622  42.777   1.857
25067W        W91476  24.825  42.763  10.695
25068W        W91477   4.012   9.427  13.599
25069W        W91478  43.865  32.972  10.685
25070W        W91479  18.200  25.637  10.977
25071W        W91480  37.337  16.378   2.709
25072W        W91481   3.399  29.211   1.343
25073W        W91482  24.971  30.096  11.574
25074W        W91483   3.154   4.476   0.917
25075W        W91484   6.750   1.275   4.654
25076W        W91485  34.478   1.037   1.148
25077W        W91486  11.355  31.257  11.456
25078W        W91487   5.398  11.424   1.706
25079W        W91488  10.307  10.870   0.074
25080W        W91489  41.990  21.005   4.074
25081W        W91490   2.912   3.393  14.879
25082W        W91491  42.919  31.320  14.032
25083W        W91492  31.841   2.815   3.761
25084W        W91493  43.986  36.000  14.239
25085W        W91494   8.793   2.318   1.180
25086W        W91495  44.252  27.156   4.558
25087W        W91496   4.145  26.072   3.781
25088W        W91497  33.633  28.896   4.057
25089W        W91498  41.906  14.895  14.699
25090W        W91499  37.951  30.073   0.576
25091W        W91500  30.030  14.693   4.617
25092W        W91501  32.617  23.010  10.930
25093W        W91502   2.299   6.179   0.322
25094W        W91503   6.508   5.461   3.897
25095W        W91504  38.395  40.417   4.185
25096W        W91505  30.339  29.838   0.019
25097W        W91506  11.088  26.565   1.169
25098W        W91507  44.550   1.950  12.439
25099W        W91508  43.550  15.538   0.342
25100W        W91509  18.925  18.252   2.870
25101W        W91510   2.759   4.932   9.770
25102W        W91511  17.167   0.117   4.502
25103W        W91512  37.116  32.940   4.856
25104W        W91513  10.785  36.425   1.607
25105W        W91514  27.836  34.199  13.433
25106W        W91515  33.439  19.694   2.847
25107W        W91516  43.353  28.640  14.963
25108W        W91517   1.394  14.352  14.728
25109W        W91518   1.851   5.904   0.407
25110W        W91519   4.317  39.538   1.960
25111W        W91520  22.054   6.859  11.240
25112W        W91521  28.545  24.740   1.968
25113W        W91522  25.086   8.771   4.876
25114W        W91523  20.489  14.774   3.313
25115W        W91524  36.934  37.591   1.428
25116W        W91525   6.427  42.671   5.046
25117W        W91526  40.018   7.238   2.767
25118W        W91527  31.180  44.088  13.401
25119W        W91528  17.755   8.420   1.137
25120W        W91529   9.158  42.814   3.271
25121W        W91530   9.380   8.074  12.057
25122W        W91531  10.102   9.746  12.955
25123W        W91532  31.593   9.713   0.445
25124W        W91533  35.359  17.288  11.203
25125W        W91534  17.591  33.540   4.873
25126W        W91535  24.052  12.083  13.525
25127W        W91536  14.442  25.602   4.100
25128W        W91537  19.630   4.455  11.926
25129W        W91538   9.802  44.587  14.106
25130W        W91539  17.102  26.685  12.158
25131W        W91540   7.950  20.309   2.582
25132W        W91541   3.399  30.519   4.536
25133W        W91542  33.138  26.720  12.564
25134W        W91543  17.121  38.527  10.747
25135W        W91544  36.324  38.649   1.620
25136W        W91545  27.062  43.739   0.354
25137W        W91546  18.606  19.625   4.402
25138W        W91547  27.704  16.261  11.153
25139W        W91548  33.994  12.457  11.764
25140W        W91549  31.167  32.650   2.269
25141W        W91550  33.049  27.868   1.853
25142W        W91551  29.081  44.679   1.432
25143W        W91552  23.187  32.517  10.707
25144W        W91553  24.714   3.425   0.609
25145W        W91554  24.009  19.695  10.263
25146W        W91555   7.704  30.865  13.192
25147W        W91556  14.055  11.747   4.536
25148W        W91557  44.246   2.797  11.964
25149W        W91558  23.019  32.870  12.004
25150W        W91559   3.293   7.899  14.328
25151W        W91560   2.497  26.671  11.548
25152W        W91561  40.946  12.700   0.031
25153W        W91562   6.959  22.830   2.661
25154W        W91563  41.551  21.986   4.174
25155W        W91564  14.866   2.204   2.823
25156W        W91565  20.069  34.389  14.978
25157W        W91566   5.890   8.068  11.923
25158W        W91567  27.421   1.977   2.759
25159W        W91568  33.689  37.035   4.222
25160W        W91569  18.736   6.211  11.521
25161W        W91570  21.256  36.153  11.585
25162W        W91571  17.092  44.510   3.690
25163W        W91572  23.568   2.696  12.050
25164W        W91573  22.492  20.125   0.240
25165W        W91574  35.167   3.797   4.319
25166W        W91575  26.885  18.815  11.575
25167W        W91576  30.771  28.155   2.806
25168W        W91577  24.422  43.342   4.684
25169W        W91578  30.009  34.479  12.011
25170W        W91579  11.817   8.173   3.250
25171W        W91580  35.516  16.569   1.742
25172W        W91581  38.841  21.708  10.622
25173W        W91582  39.311  41.041   1.713
25174W        W91583  23.661  10.387  10.940
25175W        W91584  17.814  26.436   0.536
25176W        W91585  32.545  22.715   2.515
25177W        W91586  17.551  15.314  14.986
25178W        W91587  32.466  40.498   1.652
25179W        W91588  39.318  18.556  14.585
25180W        W91589  34.500  43.965   3.027
25181W        W91590  38.109  10.419  12.397
25182W        W91591  16.601  14.265   0.959
25183W        W91592   7.496  43.032   0.102
25184W        W91593  32.393  13.267   3.781
25185W        W91594  39.201  12.829  13.719
25186W        W91595  12.108   7.304  11.931
25187W        W91596  31.154   3.297  13.441
25188W        W91597  33.139   1.414  12.526
25189W        W91598   3.927  43.674   2.240
25190W        W91599  42.464   5.080   0.443
25191W        W91600  28.825  27.626   2.618
25192W        W91601   5.698  24.086  11.993
25193W        W91602  31.326  10.174   3.026
25194W        W91603   9.258  43.529  14.849
25195W        W91604  19.238  42.462   3.290
25196W        W91605  26.933  22.641   1.604
25197W        W91606  10.600  25.423   1.722
25198W        W91607  35.001  25.795  14.281
25199W        W91608  22.188   7.124  14.554
25200W        W91609   2.899  24.548  13.441
25201W        W91610  22.531   1.188   3.697
25202W        W91611  35.572   9.354  11.474
25203W        W91612  26.987   4.708  12.216
25204W        W91613  10.562   3.944  11.658
25205W        W91614  15.932  30.782  11.697
25206W        W91615   6.252  30.716  13.395
25207W        W91616  19.222   6.231   4.810
25208W        W91617  20.747  11.824   0.387
25209W        W91618  33.430  22.143  11.534
25210W        W91619  33.531   8.233  10.673
25211W        W91620   8.314   7.397  12.559
25212W        W91621  22.255  14.641  13.494
25213W        W91622  11.568  20.625   4.117
25214W        W91623  13.642  37.938  14.071
25215W        W91624  30.119   5.176  14.525
25216W        W91625  20.253   1.714   3.741
25217W        W91626  22.877  39.747   0.431
25218W        W91627  21.634   6.736   0.723
25219W        W91628  10.695   2.802   1.966
25220W        W91629  31.850  43.736   3.362
25221W        W91630  44.417  10.834   4.542
25222W        W91631  20.878   2.875  12.896
25223W        W91632   2.867  13.635   0.738
25224W        W91633  37.585  26.488   5.073
25225W        W91634  30.464   1.408   0.411
25226W        W91635   5.913  32.104  10.458
25227W        W91636  10.586   5.038  10.973
25228W        W91637   7.475   1.806   3.744
25229W        W91638  17.833  27.070  14.956
25230W        W91639  31.703  19.956   0.492
25231W        W91640  19.012   2.778   2.828
25232W        W91641   1.890  24.055  12.181
25233W        W91642   6.240  12.142   2.453
25234W        W91643  21.602  34.009   0.181
25235W        W91644  30.194  33.359  10.712
25236W        W91645   6.436  30.479   3.612
25237W        W91646  23.596  34.363   0.898
25238W        W91647  29.541  11.353   3.121
25239W        W91648  40.488   5.479  14.069
25240W        W91649  37.943   2.714   1.999
25241W        W91650  21.246  42.265  13.292
25242W        W91651  42.584  42.017   0.333
25243W        W91652  36.947  26.447  13.034
25244W        W91653  25.934  44.341   3.366
25245W        W91654  27.371  10.187   2.768
25246W        W91655  26.168  12.286   0.405
25247W        W91656  37.054  34.133   4.611
25248W        W91657  11.372   4.606   3.719
25249W        W91658   3.303   5.223  13.155
25250W        W91659  35.294  15.529  14.943
25251W        W91660  15.372   4.855   1.857
25252W        W91661  37.826  15.288  11.598
25253W        W91662  31.352  23.564  13.823
25254W        W91663   6.861  18.739  10.749
25255W        W91664  24.944   7.854   3.871
25256W        W91665   8.797  30.577  14.929
25257W        W91666  23.669  20.610   1.828
25258W        W91667   8.821  39.127  11.188
25259W        W91668  25.651  16.559   4.783
25260W        W91669  32.143  16.621  11.065
25261W        W91670   1.440  33.588  13.487
25262W        W91671  26.870   4.347  14.966
25263W        W91672  24.908  23.812  11.100
25264W        W91673   0.688  32.027   3.620
25265W        W91674   5.439  31.014   2.094
25266W        W91675  43.672  11.753   0.084
25267W        W91676  10.080  12.040   4.406
25268W        W91677  37.060  15.293  11.150
25269W        W91678  16.170  24.962   0.528
25270W        W91679  41.316  23.025   0.675
25271W        W91680  29.718  10.403  14.340
25272W        W91681  31.459  44.496  11.015
25273W        W91682  36.033  35.350   1.873
25274W        W91683  27.732  20.557  14.924
25275W        W91684  17.821  27.727   2.292
25276W        W91685  32.485   5.877  10.196
25277W        W91686  15.729   6.415  13.646
25278W        W91687  14.188  19.191   5.191
25279W        W91688  41.434  37.866  12.366
25280W        W91689  22.312   3.529  11.511
25281W        W91690  31.841   6.072   4.911
25282W        W91691  34.131   7.468   0.497
25283W        W91692  43.879  18.833  11.992
25284W        W91693  14.768  19.678   2.729
25285W        W91694  32.579   9.501  10.573
25286W        W91695   7.862  36.669   2.829
25287W        W91696   5.330  33.653   0.834
25288W        W91697   3.811  36.382  10.713
25289W        W91698  33.867   5.485   0.618
25290W        W91699   6.468  11.205  14.377
25291W        W91700  44.150  31.745  13.027
25292W        W91701   4.716  12.117  12.167
25293W        W91702   7.322  37.022  13.428
25294W        W91703  27.172  44.044   0.859
25295W        W91704  14.276  30.397   4.404
25296W        W91705   1.073   8.653  12.045
25297W        W91706  32.657  34.442  10.963
25298W        W91707  13.684   2.302  11.971
25299W        W91708  13.841  15.262   3.643
25300W        W91709  32.937  23.901  14.976
25301W        W91710   1.408   0.201  12.187
25302W        W91711  19.626  36.301   2.839
25303W        W91712   4.209   1.901   3.185
25304W        W91713  25.369  36.337   0.895
25305W        W91714  23.458  20.934  14.885
25306W        W91715  16.657  33.677   3.588
25307W        W91716  17.860  38.272   4.490
25308W        W91717   8.261   6.442   1.870
25309W        W91718  32.438  40.684   2.334
25310W        W91719   1.504  36.078   1.264
25311W        W91720  16.449  43.484   4.163
25312W        W91721   4.840  35.548  10.992
25313W        W91722  11.275   5.959  10.542
25314W        W91723  15.562  23.177   9.847
25315W        W91724  20.596  23.040   3.221
25316W        W91725  35.380  10.373  11.948
25317W        W91726   4.333  33.782  11.200
25318W        W91727  20.557   9.845  13.997
25319W        W91728  27.716  14.555  12.604
25320W        W91729  14.808   2.995   4.349
25321W        W91730  14.799  41.403  13.376
25322W        W91731  17.539  17.701  13.368
25323W        W91732  14.220  28.645   2.423
25324W        W91733   3.653   8.318   1.650
25325W        W91734  10.923   7.773  11.759
25326W        W91735   1.355  37.785  10.598
25327W        W91736   7.574   5.889  11.882
25328W        W91737  25.315   4.229   2.463
25329W        W91738  11.407  34.979   0.092
25330W        W91739  11.405  10.766   3.355
25331W        W91740  43.404  22.979  12.436
25332W        W91741  39.593  28.268   4.133
25333W        W91742  16.121  39.500  12.529
25334W        W91743  25.718   5.420  12.972
25335W        W91744  11.334  11.350   0.842
25336W        W91745  41.033  36.519   3.140
25337W        W91746  25.731   4.739   4.124
25338W        W91747  17.038  12.277   2.204
25339W        W91748  32.777  18.228  12.891
25340W        W91749  16.534  26.954  10.703
25341W        W91750  43.720  16.771  14.297
25342W        W91751   0.306  18.802  11.682
25343W        W91752  41.424   5.787   4.555
25344W        W91753  43.012  40.990   4.147
25345W        W91754  33.439  18.248   1.466
25346W        W91755  22.003  41.965   4.348
25347W        W91756  30.909  42.917   4.636
25348W        W91757  41.507  14.179  12.043
25349W        W91758  27.871  21.090   5.168
25350W        W91759   7.818   5.201   2.979
25351W        W91760   3.301   7.969  11.047
25352W        W91761  40.473  30.043  12.690
25353W        W91762  34.539   6.403  10.590
25354W        W91763  41.517  34.648  13.956
25355W        W91764  12.481  12.417  12.670
25356W        W91765  40.327  38.094   3.252
25357W        W91766  44.255   0.202   1.523
25358W        W91767  29.421  36.044   2.693
25359W        W91768   2.219  42.823   4.133
25360W        W91769   2.286  14.017  10.701
25361W        W91770  33.514  28.733  12.104
25362W        W91771  12.193  30.304  10.273
25363W        W91772  32.534  10.198   4.822
25364W        W91773   9.630  31.545   3.319
25365W        W91774   1.674   5.311   4.732
25366W        W91775   8.491  36.672   1.965
25367W        W91776  34.918   5.246  12.914
25368W        W91777   3.222  33.280   1.524
25369W        W91778  44.639  24.608   2.456
25370W        W91779  25.830  28.027  11.056
25371W        W91780   4.849  37.932  14.860
25372W        W91781  22.721  23.688  13.906
25373W        W91782   6.680  15.196   1.490
25374W        W91783  23.584  18.152   3.956
25375W        W91784  30.622  43.854  11.871
25376W        W91785   0.943  36.059  14.057
25377W        W91786  29.559  20.005   3.141
25378W        W91787  23.101  31.702   2.593
25379W        W91788  44.621   5.848   2.568
25380W        W91789  27.537  13.298   1.651
25381W        W91790   0.272   8.356   1.192
25382W        W91791   9.611  33.875  12.721
25383W        W91792   2.477   2.187  10.801
25384W        W91793  10.276  24.001   2.455
25385W        W91794   6.935  14.241  12.024
25386W        W91795  17.244  41.850   4.406
25387W        W91796  26.161  11.774   0.351
25388W        W91797  24.333  29.965   0.212
25389W        W91798   7.927  28.528  11.050
25390W        W91799   1.316   6.803   3.043
25391W        W91800   5.108  13.122  14.719
25392W        W91801   4.782   2.850  13.348
25393W        W91802  11.295   5.060  14.409
25394W        W91803  31.859  28.043   5.092
25395W        W91804  22.267   0.965   4.645
25396W        W91805  15.316  34.312   5.139
25397W        W91806  29.501   0.318   2.677
25398W        W91807  39.034  42.422  10.754
25399W        W91808  43.893   8.650   0.437
25400W        W91809   2.038  15.756  13.469
25401W        W91810  11.802  42.596  11.663
25402W        W91811  41.514  38.077   1.767
25403W        W91812  33.241   4.690  11.574
25404W        W91813  11.249  14.677   1.324
25405W        W91814  26.004   1.449   0.866
25406W        W91815  35.621  23.684  13.557
25407W        W91816  27.375  38.949  10.614
25408W        W91817   8.870  36.761   2.906
25409W        W91818  32.327  29.483   4.142
25410W        W91819   1.033  34.306   4.161
25411W        W91820  38.397  30.785   4.364
25412W        W91821   5.260  31.577  12.383
25413W        W91822   6.932  35.630  11.601
25414W        W91823  22.101  40.309  10.753
25415W        W91824  34.009  13.772   0.120
25416W        W91825  12.289  11.846   1.454
25417W        W91826  31.328  32.472  13.852
25418W        W91827  42.292  37.437  14.248
25419W        W91828  34.008   2.922  13.414
25420W        W91829  20.048  34.959  13.021
25421W        W91830  22.555   0.492  10.688
25422W        W91831  19.588  24.122   4.202
25423W        W91832  32.895  20.431  10.864
25424W        W91833  14.072  15.770   4.130
25425W        W91834  10.722   7.792  13.872
25426W        W91835  37.312  18.711   4.558
25427W        W91836  15.759   2.077  12.431
25428W        W91837  26.238   8.778  14.375
25429W        W91838  24.708   7.787  12.958
25430W        W91839  23.655  23.220   0.820
25431W        W91840  34.032  18.058   4.805
25432W        W91841  15.269  19.263  10.076
25433W        W91842  19.572  40.298   0.505
25434W        W91843  44.926  30.563  10.570
25435W        W91844  42.498  22.531   1.370
25436W        W91845  11.639  37.854   0.267
25437W        W91846  13.204  33.425  13.944
25438W        W91847  43.429  38.672  13.930
25439W        W91848  27.518  32.049   3.706
25440W        W91849  29.914  34.095  10.549
25441W        W91850   3.788  34.906   0.919
25442W        W91851  12.281  40.119   3.500
25443W        W91852  26.650  30.719   4.613
25444W        W91853  43.089   3.196  10.775
25445W        W91854  16.757  20.475   0.400
25446W        W91855   5.427  11.849  13.970
25447W        W91856  39.939  43.101  13.857
25448W        W91857  42.207  10.682  10.681
25449W        W91858   3.276  24.170   3.352
25450W        W91859  41.556   9.141  13.849
25451W        W91860  22.478   1.896   4.103
25452W        W91861  23.650  22.828  13.457
25453W        W91862  21.641   4.341   1.993
25454W        W91863  25.032  16.476   3.190
25455W        W91864  25.689  22.767  14.392
25456W        W91865  36.487  32.034  14.032
25457W        W91866  16.555   9.864  11.132
25458W        W91867  42.619  37.026  14.330
25459W        W91868  23.164   9.907   1.796
25460W        W91869  10.965  16.297   0.102
25461W        W91870  28.710  18.340   4.207
25462W        W91871  17.220  19.820   0.217
25463W        W91872  38.467  15.153  12.412
25464W        W91873  34.573  43.014   1.189
25465W        W91874  33.519  36.529   3.104
25466W        W91875  44.226   7.922  11.053
25467W        W91876  28.411  43.669   3.854
25468W        W91877  40.149   4.745   0.319
25469W        W91878  26.380  17.142   0.457
25470W        W91879  17.293  15.281  13.132
25471W        W91880  34.759   6.754   4.678
25472W        W91881  12.282  19.979  11.980
25473W        W91882  23.215  17.836  12.919
25474W        W91883   9.888  13.655   3.678
25475W        W91884  28.178  13.597   3.642
25476W        W91885  40.066  28.066   2.397
25477W        W91886  43.007  34.681   3.613
25478W        W91887  30.244   5.847   0.411
25479W        W91888  31.561  30.687   3.183
25480W        W91889   2.948  20.460   2.663
25481W        W91890  41.277  41.751  14.403
25482W        W91891  43.292   0.663  14.993
25483W        W91892  31.996  43.060   1.966
25484W        W91893  34.894   9.789   1.697
25485W        W91894  12.907  16.814  11.554
25486W        W91895   9.827  43.854  11.539
25487W        W91896   2.584  22.225   1.823
25488W        W91897  10.311  14.784   1.838
25489W        W91898   0.331  30.431   1.203
25490W        W91899  43.964  37.365  13.187
25491W        W91900  19.398   5.657  12.215
25492W        W91901  35.039  18.301  13.338
25493W        W91902  24.468  34.140   1.868
25494W        W91903  39.871  11.099   1.909
25495W        W91904  32.336  29.979  11.181
25496W        W91905  40.046  29.553  10.659
25497W        W91906   0.246  31.345  14.861
25498W        W91907  20.485  18.327  10.606
25499W        W91908  35.136  24.658  12.651
25500W        W91909  16.693  17.333  11.540
25501W        W91910  12.378  13.182   3.779
25502W        W91911   8.244  38.747  12.921
25503W        W91912  30.093  16.265   4.433
25504W        W91913  13.214  17.224   2.750
25505W        W91914  26.552  35.683  13.071
25506W        W91915   8.594   7.943   4.234
25507W        W91916  16.700  34.913  13.051
25508W        W91917   5.454  29.546   4.683
25509W        W91918  32.954   0.267   0.210
25510W        W91919  32.701  21.642  14.861
25511W        W91920  37.079  36.982   0.424
25512W        W91921  44.692  33.804  13.528
25513W        W91922   8.826  36.947   4.138
25514W        W91923  12.617  16.338  14.926
25515W        W91924  29.022  39.107   0.859
25516W        W91925  12.758  44.496   0.313
25517W        W91926  12.248   9.689   2.435
25518W        W91927   8.626   4.233   3.359
25519W        W91928  44.820   4.850   3.167
25520W        W91929  23.693  22.977  11.837
25521W        W91930  21.372  16.638  12.528
25522W        W91931  19.011   2.944   1.944
25523W        W91932  41.769  15.405  11.771
25524W        W91933   4.237  20.293  13.905
25525W        W91934   2.465  30.270   0.109
25526W        W91935  13.584  28.012   1.273
25527W        W91936  30.184  37.878   4.570
25528W        W91937  29.387   9.407  12.835
25529W        W91938  22.442  42.461   1.652
25530W        W91939   5.339  23.282   3.247
25531W        W91940  36.934   3.710  14.992
25532W        W91941  42.044  27.298   0.612
25533W        W91942  19.538  29.693  12.901
25534W        W91943  38.790  23.091  13.429
25535W        W91944  39.938  20.654  13.260
25536W        W91945  29.787  13.718  11.180
25537W        W91946   8.083   9.213  11.504
25538W        W91947  24.177  41.836  12.124
25539W        W91948  17.295  14.152   3.629
25540W        W91949  30.429   6.654   3.080
25541W        W91950  42.851  30.605   0.352
25542W        W91951  38.346   4.340  12.177
25543W        W91952   1.997  22.608  11.957
25544W        W91953   5.478  36.899   3.280
25545W        W91954  12.320   7.988   3.282
25546W        W91955  27.695   1.339  12.509
25547W        W91956  21.341   2.734  12.032
25548W        W91957  38.332  41.254   2.396
25549W        W91958  18.703  21.631   4.083
25550W        W91959  19.981   5.076   1.900
25551W        W91960   3.396  11.051   4.880
25552W        W91961  13.873  20.304   1.761
25553W        W91962  20.753  11.700   2.774
25554W        W91963   1.903  43.317  13.023
25555W        W91964   8.132  10.883  12.108
25556W        W91965  14.727  19.937  12.882
25557W        W91966  42.919  24.801   4.848
25558W        W91967  28.227  34.387  13.061
25559W        W91968  26.009  29.433  14.878
25560W        W91969  27.134   1.878   0.325
25561W        W91970   2.052   4.966   2.656
25562W        W91971   4.657  44.737   0.386
25563W        W91972  18.365  20.755  10.683
25564W        W91973  22.579  15.528  11.066
25565W        W91974  10.375  10.658   2.300
25566W        W91975  18.669  29.572   4.729
25567W        W91976  23.515  18.273  14.921
25568W        W91977  41.747   6.904  12.548
25569W        W91978  14.709   3.042   1.696
25570W        W91979  31.816  26.591   4.492
25571W        W91980   7.297  25.729   0.516
25572W        W91981   0.871  12.328  10.164
25573W        W91982  39.400  44.359  10.657
25574W        W91983  16.586  36.492   0.192
25575W        W91984  15.226   1.805   4.844
25576W        W91985  25.284   0.743  14.253
25577W        W91986  44.839  21.282   3.614
25578W        W91987  14.527  43.498   2.229
25579W        W91988  30.222  20.753   0.831
25580W        W91989   0.140  31.060   3.799
25581W        W91990   5.145  17.087   4.196
25582W        W91991  23.056  14.727  10.656
25583W        W91992  32.872  38.073  12.975
25584W        W91993  13.612   9.698  12.966
25585W        W91994  26.876   7.961  11.355
25586W        W91995  38.570  29.837  13.368
25587W        W91996  26.869  14.434   0.323
25588W        W91997   7.033   1.326   4.204
25589W        W91998  19.059  11.696   4.592
25590W        W91999   4.504  16.542   3.673
25591W        W92000   4.556  20.709  11.191
25592W        W92001  23.483   6.889  11.724
25593W        W92002   0.061  14.780   1.276
25594W        W92003  20.883  34.502  10.324
25595W        W92004  44.717  22.785  14.445
25596W        W92005   2.402   8.175   1.953
25597W        W92006  38.536  23.077  12.969
25598W        W92007  22.825  24.514   1.364
25599W        W92008  34.300  23.551  14.280
25600W        W92009  29.517  12.685   4.151
25601W        W92010  32.942  40.557   3.340
25602W        W92011  31.108   9.229  11.401
25603W        W92012  35.693  17.228   0.716
25604W        W92013  44.913   9.077  11.383
25605W        W92014  32.926  39.937  10.715
25606W        W92015  20.710  20.587   4.141
25607W        W92016  39.086  40.531   3.741
25608W        W92017  23.177  35.602  11.874
25609W        W92018   2.468  32.868  14.311
25610W        W92019   7.800  13.089  14.833
25611W        W92020  40.338  18.321  12.858
25612W        W92021   9.947  33.840  13.105
25613W        W92022  22.052  22.650  11.026
25614W        W92023  17.399  35.916   3.688
25615W        W92024  20.660  38.889  13.780
25616W        W92025  42.035  20.521   0.001
25617W        W92026  32.082  36.357   5.070
25618W        W92027  18.744  27.234   0.157
25619W        W92028  44.245  29.124   0.094
25620W        W92029  35.536  17.784  14.021
25621W        W92030   2.297  19.987   4.896
25622W        W92031  10.851  31.957  14.437
25623W        W92032  22.537  44.916  11.811
25624W        W92033   3.659  33.824   4.532
25625W        W92034  34.551  27.885   3.897
25626W        W92035   9.119  18.575   1.805
25627W        W92036  19.536  16.501   2.900
25628W        W92037   4.174  21.563   1.328
25629W        W92038   7.903  34.808  14.784
25630W        W92039   8.663   5.210   3.231
25631W        W92040  41.267  21.735  13.338
25632W        W92041  11.266  21.776   4.840
25633W        W92042  34.052  26.973   4.700
25634W        W92043  11.393   2.464  14.918
25635W        W92044  28.940  39.783   2.282
25636W        W92045  26.917   8.836  13.402
25637W        W92046  28.942  44.520   2.270
25638W        W92047  35.703  29.999   2.704
25639W        W92048  23.750   8.372   3.788
25640W        W92049  33.376  11.957   0.028
25641W        W92050  26.989  12.213  14.090
25642W        W92051  20.011  38.358  13.159
25643W        W92052  10.712   3.033  12.641
25644W        W92053  44.892  29.106  14.425
25645W        W92054  43.639  39.555  14.059
25646W        W92055  22.936  20.544   3.323
25647W        W92056  35.487  44.921   0.741
25648W        W92057  44.667  19.993  11.976
25649W        W92058  36.667   9.426  12.589
25650W        W92059   6.748  20.051  11.774
25651W        W92060  10.814  11.559  14.834
25652W        W92061  17.113  35.100  12.803
25653W        W92062  40.431   6.809   4.563
25654W        W92063  24.679  23.447   0.626
25655W        W92064  23.489  34.866   1.100
25656W        W92065  13.788  41.540   3.314
25657W        W92066  26.808  14.303  11.225
25658W        W92067  32.606  26.816  11.150
25659W        W92068  40.969  24.020  12.353
25660W        W92069  13.527  30.387   3.817
25661W        W92070  32.996   1.500   0.254
25662W        W92071  26.786  34.593   4.637
25663W        W92072  33.416  16.511   3.061
25664W        W92073   5.869  13.520   3.808
25665W        W92074  34.981  10.951  10.151
25666W        W92075  23.275  16.847   1.267
25667W        W92076  37.358  23.335   0.033
25668W        W92077   4.172  26.081  13.892
25669W        W92078  14.622  35.464   5.131
25670W        W92079  14.227  11.823  14.907
25671W        W92080   1.286  32.974  12.361
25672W        W92081   8.889  19.028   1.629
25673W        W92082  29.613   7.658   1.721
25674W        W92083  34.023  42.056   0.299
25675W        W92084  40.903  44.763   0.447
25676W        W92085   9.133  28.678   2.139
25677W        W92086  29.008  34.776   4.193
25678W        W92087  19.493  23.765   0.732
25679W        W92088  38.870  30.438   4.990
25680W        W92089  35.060  41.493   4.229
25681W        W92090   6.313   9.198   2.440
25682W        W92091  19.176  24.656   0.422
25683W        W92092  34.055  44.004   3.279
25684W        W92093  17.607  41.754   3.358
25685W        W92094  32.647  13.032   2.313
25686W        W92095  38.857  20.957  14.550
25687W        W92096  37.088  11.317   0.311
25688W        W92097  17.045   1.883  13.601
25689W        W92098   5.834  23.429  14.127
25690W        W92099  25.524  10.809  14.663
25691W        W92100   1.945  14.620  12.602
25692W        W92101  28.619  37.083   1.381
25693W        W92102   6.805  11.634  14.105
25694W        W92103  35.804  34.570   1.235
25695W        W92104  23.270  25.314   0.156
25696W        W92105  11.850  17.608  11.593
25697W        W92106  22.649   0.459   0.853
25698W        W92107  30.444   5.345  12.813
25699W        W92108  17.395  21.200   0.702
25700W        W92109  34.066  41.785   2.813
25701W        W92110  10.209  28.901   5.315
25702W        W92111  28.014  13.115   2.753
25703W        W92112  44.827  42.332  13.332
25704W        W92113  39.894  12.597   2.911
25705W        W92114  15.607  19.179   5.034
25706W        W92115  24.572   4.839   3.268
25707W        W92116  31.433  42.363   1.793
25708W        W92117  29.148  29.510  14.065
25709W        W92118  21.056  30.379   4.079
25710W        W92119  12.612  30.519   0.809
25711W        W92120  41.807  36.384  13.570
25712W        W92121  18.088  28.726  11.110
25713W        W92122  28.718   7.697   3.712
25714W        W92123  29.471  16.755   1.204
25715W        W92124   6.940  36.918  11.153
25716W        W92125   9.715   9.110  11.997
25717W        W92126  40.931   0.334   1.746
25718W        W92127  31.989  28.479   4.118
25719W        W92128  36.304  11.997  12.545
25720W        W92129  31.988  16.650  13.865
25721W        W92130  40.445  24.736  12.425
25722W        W92131  28.478  12.854   4.302
25723W        W92132   7.425   8.869   0.902
25724W        W92133  24.444   3.417  12.499
25725W        W92134  42.564   4.149   2.850
25726W        W92135  14.262   0.985  14.020
25727W        W92136   2.598   7.626   3.393
25728W        W92137   4.650  12.067   1.511
25729W        W92138  18.552   0.199   0.460
25730W        W92139  35.513  24.284  14.937
25731W        W92140  39.124  16.735  12.302
25732W        W92141   1.176  36.821   2.816
25733W        W92142  35.458  37.359   3.369
25734W        W92143  21.629  15.819  13.365
25735W        W92144  36.863  42.283   0.715
25736W        W92145  11.676  16.196  14.638
25737W        W92146  37.901   6.223   0.840
25738W        W92147  24.648  16.650   4.340
25739W        W92148  14.213  29.144   2.293
25740W        W92149  12.645   1.320  14.379
25741W        W92150  20.452  40.028  12.824
25742W        W92151  29.728   0.497  11.071
25743W        W92152  10.313  27.308  11.997
25744W        W92153  21.866   0.760   1.221
25745W        W92154  38.693  21.938   4.042
25746W        W92155   2.504  40.608   0.296
25747W        W92156  39.695  40.979   2.041
25748W        W92157   0.814  43.332   0.751
25749W        W92158  13.160  32.876   2.844
25750W        W92159  27.493  14.109  12.828
25751W        W92160  36.481   0.410  14.250
25752W        W92161  32.004  31.544   4.626
25753W        W92162  26.423  39.370  10.752
25754W        W92163  23.801  17.601  14.822
25755W        W92164   3.015  21.692  10.984
25756W        W92165  39.863  10.519  14.533
25757W        W92166  10.360   3.329   0.346
25758W        W92167  21.121  32.684  13.559
25759W        W92168  32.187   0.260  13.097
25760W        W92169  44.252  27.980  11.482
25761W        W92170   1.252   1.443   2.540
25762W        W92171  26.135  18.961  12.713
25763W        W92172  11.340  21.135   1.203
25764W        W92173  23.217  21.610  12.019
25765W        W92174   0.752   4.477  10.704
25766W        W92175  39.988  34.989  12.606
25767W        W92176  26.518  43.360   3.928
25768W        W92177  15.149  16.706   0.783
25769W        W92178   2.800   1.843  12.460
25770W        W92179  37.549   7.594   2.813
25771W        W92180  24.484  32.073   0.125
25772W        W92181  21.832  35.040  11.598
25773W        W92182   5.311  31.319   3.823
25774W        W92183  30.497  28.075  11.555
25775W        W92184  15.290  43.356  14.992
25776W        W92185   8.826   9.760  11.415
25777W        W92186  40.164  40.270  12.373
25778W        W92187   7.340   7.356   2.156
25779W        W92188  34.982  41.762   0.357
25780W        W92189  25.017   3.934   3.582
25781W        W92190  10.905  23.313   2.692
25782W        W92191  12.402  32.584   4.094
25783W        W92192  19.886   3.490   1.296
25784W        W92193  20.621  22.996  12.465
25785W        W92194   3.445  21.714  11.883
25786W        W92195  28.110  24.626   3.255
25787W        W92196  43.068  34.446   4.086
25788W        W92197   1.860   5.945   2.212
25789W        W92198  26.648  11.675  11.501
25790W        W92199   4.927  28.506  11.655
25791W        W92200  22.221  28.186  11.079
25792W        W92201  11.215   1.545   1.413
25793W        W92202  22.779   8.304   4.593
25794W        W92203  33.991  14.588   4.701
25795W        W92204   2.956  16.957   4.783
25796W        W92205  22.300   9.258  11.987
25797W        W92206  29.996  27.937  11.588
25798W        W92207  40.653  40.944  12.842
25799W        W92208  12.323  29.014   3.717
25800W        W92209   9.761  36.203   1.670
25801W        W92210  23.546  33.023   0.260
25802W        W92211  35.492  25.278   3.146
25803W        W92212  34.496  40.124  12.912
25804W        W92213  28.887  33.337  12.455
25805W        W92214  17.973  42.283  10.772
25806W        W92215  12.749  16.378  11.769
25807W        W92216  30.821  26.469  11.993
25808W        W92217   5.389  32.874  13.771
25809W        W92218  33.981  24.097  10.734
25810W        W92219  23.493  21.544  11.542
25811W        W92220  13.950  17.763  11.502
25812W        W92221  39.825  14.306  14.259
25813W        W92222  38.359  42.856  13.970
25814W        W92223  28.121  16.003   3.697
25815W        W92224  28.661  17.817   2.312
25816W        W92225  24.207  40.025   4.126
25817W        W92226   0.179  43.546   1.257
25818W        W92227  26.620   3.366   9.829
25819W        W92228  23.801  11.274  11.504
25820W        W92229  33.984   2.222   3.574
25821W        W92230  36.793  42.824   4.552
25822W        W92231  40.985  21.946  14.108
25823W        W92232  12.267  16.012  13.459
25824W        W92233   5.155  10.141  12.513
25825W        W92234  16.330  40.919   3.375
25826W        W92235  11.581   2.471   1.186
25827W        W92236  14.783   2.570   1.470
25828W        W92237  28.190   4.689  13.430
25829W        W92238   4.044  37.309  13.448
25830W        W92239  27.543  17.018   0.151
25831W        W92240  33.966  33.326   2.403
25832W        W92241  17.277  21.794   1.869
25833W        W92242   3.270  40.826  10.932
25834W        W92243  24.891  43.392  12.452
25835W        W92244  10.315  11.845  10.645
25836W        W92245  33.038  43.809  14.682
25837W        W92246  41.642  12.623   3.807
25838W        W92247  25.819  43.503   2.663
25839W        W92248  29.927   2.790   9.792
25840W        W92249  30.879  23.283  12.400
25841W        W92250  13.755  42.523  13.462
25842W        W92251  17.610  26.056  11.535
25843W        W92252  21.753  28.753   0.712
25844W        W92253  18.433  43.290   0.491
25845W        W92254  21.827  32.988   4.148
25846W        W92255  17.503  37.027   2.681
25847W        W92256  26.422  23.525  14.924
25848W        W92257   6.538  25.448  11.311
25849W        W92258  18.235  38.095   1.230
25850W        W92259   4.333  36.851   4.085
25851W        W92260  28.442  20.643   0.388
25852W        W92261  25.737  33.694  12.196
25853W        W92262  28.391  43.426   3.369
25854W        W92263   3.958  42.263  14.072
25855W        W92264  30.024   2.081   2.885
25856W        W92265   5.443  41.449   4.646
25857W        W92266  30.824   7.897   1.897
25858W        W92267   2.376  14.376  10.306
25859W        W92268   9.177   0.391   3.093
25860W        W92269  36.808   3.911   1.346
25861W        W92270  32.680   3.482   3.082
25862W        W92271  30.180  41.388   0.791
25863W        W92272   5.850   3.955  13.851
25864W        W92273  15.187  39.524   0.425
25865W        W92274   5.072  38.780  14.020
25866W        W92275   2.973  21.160   4.951
25867W        W92276  27.613  37.684  11.160
25868W        W92277  23.188  34.026  13.965
25869W        W92278  12.204  42.457  14.861
25870W        W92279  30.588  28.661   4.463
25871W        W92280   8.305   4.601  13.588
25872W        W92281  34.218  38.885  12.044
25873W        W92282   8.484  12.304  12.141
25874W        W92283   6.116  11.803   1.190
25875W        W92284  21.088  30.883   3.912
25876W        W92285  26.977  32.933   0.487
25877W        W92286  18.644  33.792   4.714
25878W        W92287  44.053   4.744  12.399
25879W        W92288  32.304  26.403   4.530
25880W        W92289  19.531  22.952   1.065
25881W        W92290   7.606   7.910  12.856
25882W        W92291  16.294  40.972  10.266
25883W        W92292  44.300  11.223   1.168
25884W        W92293  13.292  25.482   0.345
25885W        W92294   0.946  10.808  13.986
25886W        W92295  13.192  34.490   4.106
25887W        W92296  20.218  21.308   3.188
25888W        W92297  38.546  43.764  13.382
25889W        W92298  21.076  16.628  12.950
25890W        W92299  16.839  43.268  12.894
25891W        W92300  20.052   3.507  14.843
25892W        W92301  22.041  19.593   2.280
25893W        W92302   3.395   2.403  12.442
25894W        W92303  40.937   7.315  10.579
25895W        W92304  22.049  27.948  11.541
25896W        W92305  17.617  43.033   1.650
25897W        W92306   6.760   2.297   4.458
25898W        W92307  15.631  15.523  11.688
25899W        W92308   6.191   6.781   1.452
25900W        W92309  12.075  16.245  10.968
25901W        W92310  22.019  41.364  12.467
25902W        W92311   7.719  24.743   2.525
25903W        W92312  12.294  23.277   0.373
25904W        W92313  18.179  41.564   4.995
25905W        W92314   9.346  44.029  14.793
25906W        W92315   0.506  33.155  12.507
25907W        W92316  28.199  43.206   1.300
25908W        W92317   0.093   7.262   4.513
25909W        W92318  42.391  42.491   4.193
25910W        W92319  44.957   9.619   2.993
25911W        W92320  11.383   7.804  12.637
25912W        W92321   1.377  12.243   4.812
25913W        W92322  23.653  33.503   1.940
25914W        W92323  26.085   2.413  14.928
25915W        W92324  28.235  35.399   0.349
25916W        W92325  13.855  41.788  12.061
25917W        W92326  34.099  24.243   4.181
25918W        W92327  16.804  41.530  13.517
25919W        W92328  15.634  32.994   4.641
25920W        W92329  21.460   2.352   0.824
25921W        W92330  34.743   5.878  14.841
25922W        W92331  28.544  24.609  11.511
25923W        W92332  34.803  20.778  10.509
25924W        W92333  43.698  39.124  13.753
25925W        W92334  18.316  43.868   3.113
25926W        W92335  34.528  19.224  10.709
25927W        W92336  33.898  39.324  14.032
25928W        W92337  20.377  26.906  14.365
25929W        W92338  40.495  24.766  11.907
25930W        W92339  41.406  27.279   4.146
25931W        W92340  11.242   0.382  13.872
25932W        W92341  16.892  19.189   0.310
25933W        W92342  36.964  34.645   4.765
25934W        W92343   6.859  12.892   2.355
25935W        W92344  22.974  13.891   1.782
25936W        W92345   7.615  25.101  14.789
25937W        W92346  31.429  26.265   4.616
25938W        W92347  32.679  12.995   4.106
25939W        W92348  39.081  37.501   4.463
25940W        W92349  33.783  20.260   3.769
25941W        W92350  36.392  24.217   1.219
25942W        W92351   3.848  36.571  12.478
25943W        W92352  27.960  12.644  11.299
25944W        W92353  15.340  10.732  12.017
25945W        W92354  12.685  31.565  11.925
25946W        W92355  17.947   6.607  11.105
25947W        W92356  17.236   3.842   2.214
25948W        W92357  29.976  10.724   3.651
25949W        W92358   1.498   8.373  10.229
25950W        W92359  24.711  15.041  11.428
25951W        W92360  30.873  38.974  12.976
25952W        W92361   2.448   8.658  14.329
25953W        W92362  32.512   7.658  12.580
25954W        W92363  25.373  39.449   0.889
25955W        W92364  43.402  24.160   2.792
25956W        W92365  19.028  37.474  11.599
25957W        W92366  13.791   4.907  12.968
25958W        W92367  17.322  37.789  14.027
25959W        W92368  13.126  17.836  13.460
25960W        W92369  36.093  26.696  11.001
25961W        W92370  25.495  17.013   2.955
25962W        W92371  25.256  22.663  10.836
25963W        W92372   8.244  10.992  13.546
25964W        W92373  28.622  32.074   2.700
25965W        W92374  25.447   2.826  13.018
25966W        W92375  30.672  31.517  14.110
25967W        W92376  34.397   2.451   2.707
25968W        W92377  34.396  31.725   1.171
25969W        W92378  18.632  28.117   0.760
25970W        W92379  35.602  42.392   0.288
25971W        W92380  36.936  20.834  10.196
25972W        W92381  40.648  21.053   3.735
25973W        W92382  43.527  36.824  10.398
25974W        W92383  37.056  44.591  14.592
25975W        W92384   8.809  15.494   4.700
25976W        W92385  36.865  21.717  13.953
25977W        W92386  39.426  33.543   4.192
25978W        W92387  17.709  22.577  11.678
25979W        W92388   8.299  32.632   1.039
25980W        W92389  40.738  23.678   3.305
25981W        W92390  30.965  18.263   4.637
25982W        W92391  20.646  43.131  12.083
25983W        W92392  25.450  34.528   0.881
25984W        W92393  33.109  27.506   1.481
25985W        W92394   2.431  23.016  12.285
25986W        W92395  24.200  12.690  14.292
25987W        W92396  30.410   6.389   2.222
25988W        W92397  39.861   8.981   3.182
25989W        W92398  24.554  19.229   1.775
25990W        W92399  24.572  11.927  14.671
25991W        W92400   5.353  27.143  11.493
25992W        W92401   5.987  22.639  11.134
25993W        W92402  44.351  26.244   3.517
25994W        W92403  11.888  41.751  11.144
25995W        W92404   0.501  39.079   1.311
25996W        W92405   6.171  33.916  14.976
25997W        W92406  43.392  39.468  13.180
25998W        W92407  35.858  40.268   1.671
25999W        W92408  21.153  32.594   4.052
26000W        W92409  32.959  23.627   2.703
26001W        W92410   5.882  42.476  14.869
26002W        W92411   4.768  22.518  11.956
26003W        W92412  42.026  27.306  12.485
26004W        W92413   9.153  10.208   1.447
26005W        W92414   5.695  36.507   4.657
26006W        W92415  32.610  25.463  10.973
26007W        W92416  27.918  29.568  11.066
26008W        W92417  30.055  40.896   3.540
26009W        W92418  34.646  22.819   3.837
26010W        W92419  31.908   8.828  11.251
26011W        W92420  13.178  18.783   3.147
26012W        W92421  15.285  38.110  13.487
26013W        W92422  23.009  42.826   2.726
26014W        W92423   8.846  27.510  10.633
26015W        W92424  34.662   3.114  12.151
26016W        W92425  27.993  44.867   2.698
26017W        W92426  21.570  41.790   4.620
26018W        W92427  33.753  20.086  13.834
26019W        W92428  33.289  27.622  11.959
26020W        W92429  42.382  42.678   3.203
26021W        W92430  17.641  38.503  13.357
26022W        W92431  19.594  24.674  11.590
26023W        W92432  39.557   1.756   1.731
26024W        W92433   8.781  18.328   2.146
26025W        W92434  26.421  31.906  10.829
26026W        W92435  29.205  37.587  11.462
26027W        W92436   6.240  25.665  12.629
26028W        W92437  24.995  19.759   4.521
26029W        W92438  21.040  29.159  11.707
26030W        W92439  27.498   5.646  12.518
26031W        W92440  26.953  41.788  11.324
26032W        W92441  30.631  19.497  11.109
26033W        W92442  41.059  32.355   0.838
26034W        W92443  11.089  20.642  11.206
26035W        W92444  11.744   9.153   0.017
26036W        W92445   8.276  22.558  14.062
26037W        W92446  20.849  22.649  11.460
26038W        W92447   2.947   5.931   0.946
26039W        W92448  34.520  32.032  11.434
26040W        W92449   7.802  35.398  10.707
26041W        W92450  44.283  20.911  14.699
26042W        W92451   2.795  14.688   1.451
26043W        W92452  27.612  32.749   0.278
26044W        W92453  40.808  10.743  12.997
26045W        W92454  18.990  21.019   0.918
26046W        W92455  24.238  39.181   1.206
26047W        W92456   3.896  35.636  11.173
26048W        W92457  20.812  37.526   0.550
26049W        W92458  29.881  23.047   0.679
26050W        W92459  35.951  38.785  11.585
26051W        W92460   6.565  10.680  14.354
26052W        W92461   5.022  20.067   1.815
26053W        W92462   3.004  37.649   3.677
26054W        W92463  29.238   6.785  11.721
26055W        W92464  21.271  33.379   2.701
26056W        W92465   0.482  35.895   1.331
26057W        W92466  23.262  43.040  10.686
26058W        W92467  34.886  35.121  11.197
26059W        W92468  39.796   5.955   2.498
26060W        W92469  39.327  10.856  12.125
26061W        W92470   0.889   1.147   1.286
26062W        W92471  41.247  27.956   1.798
26063W        W92472  20.025  32.070  12.588
26064W        W92473  22.417  17.689   1.588
26065W        W92474  30.561   8.684  10.605
26066W        W92475  29.339   1.530  14.694
26067W        W92476  14.279  11.082   0.881
26068W        W92477  35.281  43.304  14.372
26069W        W92478   3.875  38.068  12.799
26070W        W92479  22.304  18.243   0.452
26071W        W92480  32.115  39.561  11.140
26072W        W92481  38.645  39.014  10.594
26073W        W92482   7.423  11.343  12.066
26074W        W92483   4.790  30.002  14.394
26075W        W92484  36.569  30.157  14.517
26076W        W92485   6.422  37.344   3.772
26077W        W92486  23.613  27.771   4.175
26078W        W92487   5.225  41.289  12.542
26079W        W92488  18.079  12.231  13.537
26080W        W92489  16.369  24.502   3.659
26081W        W92490  30.462   3.392  14.707
26082W        W92491  14.761   4.580   2.798
26083W        W92492  18.998  22.237   4.685
26084W        W92493  16.230  13.867  11.607
26085W        W92494  44.719  25.479  14.945
26086W        W92495   1.881  31.502  12.567
26087W        W92496   1.153   2.739   1.187
26088W        W92497  26.636  31.448  10.707
26089W        W92498  15.868  10.291   3.689
26090W        W92499  12.174  17.991  14.249
26091W        W92500   1.701   5.818  12.359
26092W        W92501  10.581  13.191  10.684
26093W        W92502  14.547   1.771  12.200
26094W        W92503  15.623  36.065   1.272
26095W        W92504  24.083   2.469   0.383
26096W        W92505  21.542  35.942  12.577
26097W        W92506  31.565  34.705   2.714
26098W        W92507   2.758  44.963   1.449
26099W        W92508   9.842  27.167  13.602
26100W        W92509  23.499  13.670   0.393
26101W        W92510  18.557  26.417  14.432
26102W        W92511  27.748  21.605  10.481
26103W        W92512  18.820  38.397   3.664
26104W        W92513  17.751  15.800   2.670
26105W        W92514   2.801  29.478   4.423
26106W        W92515   7.106   5.319   4.701
26107W        W92516  13.793  41.423   2.328
26108W        W92517  25.270   9.306  13.722
26109W        W92518  29.957  33.597   3.767
26110W        W92519  14.157   7.447  12.443
26111W        W92520  43.987  44.340  12.457
26112W        W92521  22.079   8.495   0.390
26113W        W92522  27.654  38.757  14.498
26114W        W92523  29.925  16.554   2.379
26115W        W92524  26.436  13.368   2.219
26116W        W92525  19.525   2.336   2.180
26117W        W92526  17.269   1.854  12.502
26118W        W92527  35.354  10.207   4.126
26119W        W92528  40.972  42.720  14.687
26120W        W92529   5.308  17.657  11.791
26121W        W92530   8.699  35.834   2.417
26122W        W92531  39.212  23.597   3.247
26123W        W92532  38.353  16.055  14.227
26124W        W92533  25.575  32.080  14.041
26125W        W92534  40.920  38.059   2.191
26126W        W92535   0.146  31.853   4.586
26127W        W92536  22.475  23.871  13.367
26128W        W92537  22.224   8.143   1.744
26129W        W92538  18.668  24.657  10.549
26130W        W92539  31.584  43.240  14.405
26131W        W92540  22.597  30.888   4.247
26132W        W92541  28.188   9.266  11.552
26133W        W92542  21.100  10.622  13.911
26134W        W92543   4.324   9.402   4.095
26135W        W92544   0.006  13.884  13.767
26136W        W92545   0.911   8.435  10.614
26137W        W92546  23.554   2.331  12.478
26138W        W92547   4.630   9.588  13.477
26139W        W92548   7.111   7.132  12.940
26140W        W92549   8.855   3.479  13.465
26141W        W92550  13.305   3.438  13.307
26142W        W92551  28.392  12.707  14.983
26143W        W92552  12.839  24.927  11.508
26144W        W92553  10.359  40.480  10.490
26145W        W92554  12.195   9.962  13.495
26146W        W92555  27.048  22.062  11.559
26147W        W92556   6.412  10.499   3.833
26148W        W92557  31.066  43.675  13.022
26149W        W92558  22.858  14.591   4.631
26150W        W92559   6.494   4.525  14.267
26151W        W92560  12.794  33.657  14.902
26152W        W92561  44.418  30.158   2.663
26153W        W92562  13.049  43.398   1.425
26154W        W92563  24.003  33.358  12.198
26155W        W92564  19.050   8.483   4.104
26156W        W92565   2.087   5.744  11.084
26157W        W92566   9.890   8.055   2.309
26158W        W92567  32.330   1.238   3.752
26159W        W92568  31.520  20.221   2.836
26160W        W92569   3.235  16.406  11.448
26161W        W92570   1.871  17.064  13.789
26162W        W92571   5.269   9.453  10.382
26163W        W92572   8.258   6.919  10.658
26164W        W92573   3.515  31.441  14.035
26165W        W92574  18.233  14.306  13.350
26166W        W92575  15.490  26.744   4.103
26167W        W92576  21.080  20.082   1.327
26168W        W92577  25.968  18.787   4.574
26169W        W92578   5.089  30.707  12.543
26170W        W92579  26.227   7.817   4.179
26171W        W92580  32.687  26.506  13.489
26172W        W92581  39.881   1.166  11.138
26173W        W92582  21.051   5.395  11.655
26174W        W92583  32.179  23.161  11.191
26175W        W92584  34.587  40.268  14.816
26176W        W92585   5.833   0.580  13.051
26177W        W92586  37.122  21.730   4.034
26178W        W92587  20.988  24.016  11.338
26179W        W92588  22.689  30.005   2.539
26180W        W92589   0.887  16.938   4.196
26181W        W92590  38.901  35.606  11.921
26182W        W92591  41.334  32.931  12.407
26183W        W92592  25.452  28.871  12.483
26184W        W92593   6.196  34.118   2.826
26185W        W92594  22.021  25.936   1.105
26186W        W92595  15.579   2.550   4.251
26187W        W92596  28.492  33.671   2.334
26188W        W92597  20.595  23.804   2.752
26189W        W92598  42.068  21.150   2.239
26190W        W92599   6.157  31.038  14.795
26191W        W92600  12.390  39.930   1.303
26192W        W92601  38.872  22.253   0.730
26193W        W92602  22.999  13.868  13.671
26194W        W92603  28.475  33.121  11.683
26195W        W92604  24.239  30.896  11.106
26196W        W92605  25.341  31.872  14.938
26197W        W92606   4.688   9.156   4.797
26198W        W92607  36.159  22.560  11.219
26199W        W92608  40.836   8.237  10.696
26200W        W92609   1.272  35.033  13.453
26201W        W92610  41.317  24.180   4.876
26202W        W92611  29.194   5.419   1.618
26203W        W92612  18.887  31.087   1.896
26204W        W92613  38.900   2.501  10.631
26205W        W92614  12.767  44.479   2.040
26206W        W92615  43.977  17.761  14.471
26207W        W92616  18.874  13.236   3.857
26208W        W92617  18.107  13.805   2.280
26209W        W92618  19.125  10.107  13.333
26210W        W92619   7.947  34.696   3.293
26211W        W92620  11.440   4.038  14.946
26212W        W92621  43.027   5.833  14.699
26213W        W92622  31.409  41.260  11.151
26214W        W92623  29.408   4.600   3.266
26215W        W92624  11.955  35.697   3.862
26216W        W92625  16.675  41.121  12.130
26217W        W92626   5.655  19.242   3.217
26218W        W92627  15.101   6.602  12.068
26219W        W92628  40.438   0.783  12.545
26220W        W92629  18.265   0.245   2.337
26221W        W92630  13.830  25.250  10.575
26222W        W92631  34.441  33.902   4.622
26223W        W92632  33.125  19.410  13.779
26224W        W92633  32.452  25.446  12.938
26225W        W92634  41.441  30.088   4.055
26226W        W92635  16.875  14.867  12.444
26227W        W92636  44.316   6.183   4.893
26228W        W92637  28.308  26.055   1.742
26229W        W92638  16.603   0.840   0.860
26230W        W92639  16.791  13.972   4.209
26231W        W92640  41.571  24.234  12.126
26232W        W92641  22.176  25.796   2.250
26233W        W92642  11.646  28.936  14.902
26234W        W92643  33.094  23.011   1.745
26235W        W92644  40.004  24.485  12.558
26236W        W92645  39.904   1.616  10.696
26237W        W92646  21.658   7.369  11.993
26238W        W92647  24.118  19.005   1.537
26239W        W92648  10.850  19.079  12.490
26240W        W92649  35.002  21.641   1.764
26241W        W92650  23.746  23.774  13.636
26242W        W92651  20.958   9.143   3.606
26243W        W92652  39.583   5.909  14.827
26244W        W92653   4.307   9.302  11.851
26245W        W92654  15.265  26.028  14.173
26246W        W92655   5.865  41.500   4.358
26247W        W92656  15.339  16.713   3.812
26248W        W92657  42.893  14.596  13.281
26249W        W92658  29.290  30.941   1.184
26250W        W92659  42.457  38.147  13.781
26251W        W92660   7.710  37.557   4.206
26252W        W92661  34.731  15.570  11.907
26253W        W92662   7.319  44.706  14.369
26254W        W92663   4.719  20.617  12.654
26255W        W92664  35.615  36.933   4.305
26256W        W92665  22.786  35.390  11.591
26257W        W92666  39.822  23.210  14.284
26258W        W92667  43.746   9.827  11.669
26259W        W92668  32.599  37.371  11.133
26260W        W92669   7.802  19.084  13.625
26261W        W92670  18.436  17.128  13.577
26262W        W92671  13.320   4.006  11.810
26263W        W92672  12.263  27.542   2.782
26264W        W92673  18.034  44.315   0.939
26265W        W92674  11.949  43.456  13.503
26266W        W92675  28.171  26.517  14.310
26267W        W92676   2.202   6.393   2.796
26268W        W92677  11.994  13.171   4.559
26269W        W92678  42.771   6.461  12.408
26270W        W92679   0.731  43.264  13.548
26271W        W92680  19.747  24.066  13.450
26272W        W92681   0.425   0.314   2.863
26273W        W92682  40.054  39.267   3.821
26274W        W92683   1.894  26.649   2.647
26275W        W92684  22.715   7.183  13.005
26276W        W92685   6.674  24.063   1.126
26277W        W92686  40.055   6.275  10.760
26278W        W92687  32.304  43.877  14.118
26279W        W92688  29.343  16.882  10.532
26280W        W92689  35.354   6.694  13.971
26281W        W92690  37.940  37.531  11.572
26282W        W92691  41.456   3.806   1.747
26283W        W92692  26.479  42.044  11.260
26284W        W92693  28.595  28.294   2.191
26285W        W92694  13.654  37.332   0.629
26286W        W92695  33.480   9.876   1.663
26287W        W92696  30.481  30.124   1.632
26288W        W92697  17.323   9.695   4.848
26289W        W92698   3.315  22.404  10.164
26290W        W92699  15.556   0.604   2.797
26291W        W92700  42.390  34.201   1.002
26292W        W92701   0.453  12.700   2.847
26293W        W92702  27.270   6.938  13.150
26294W        W92703  21.742  32.297   3.687
26295W        W92704  28.087   8.416   2.666
26296W        W92705  27.077  36.808   0.548
26297W        W92706  22.566  10.691  12.879
26298W        W92707   5.875  44.423  14.506
26299W        W92708  22.998   4.989  12.496
26300W        W92709   1.231  22.566   2.733
26301W        W92710  22.062  15.518  13.580
26302W        W92711  32.894  24.029   1.713
26303W        W92712  30.459  18.535  13.727
26304W        W92713  26.548  35.947   4.160
26305W        W92714  19.728   6.606   2.588
26306W        W92715  44.289  13.115   4.606
26307W        W92716  29.141  15.537  13.139
26308W        W92717  34.818   3.257   2.420
26309W        W92718  13.243  13.820  13.005
26310W        W92719   1.315  27.223   3.465
26311W        W92720   7.425  10.619  10.908
26312W        W92721  33.200  25.727   1.187
26313W        W92722  11.292  10.428   1.740
26314W        W92723  32.659  10.888   1.409
26315W        W92724  43.132  39.654   0.411
26316W        W92725  43.197  44.510  13.086
26317W        W92726  26.671  19.226   3.614
26318W        W92727  22.218  36.584  11.167
26319W        W92728  43.486  30.484  14.412
26320W        W92729  27.901  43.675  11.965
26321W        W92730  28.906  42.863  10.737
26322W        W92731  14.237  26.658   2.438
26323W        W92732  23.440   3.195  12.675
26324W        W92733  37.449  26.490   0.522
26325W        W92734  25.900   3.589   3.732
26326W        W92735  18.209  43.384  10.649
26327W        W92736   0.223  10.145  12.048
26328W        W92737  34.187   4.851   2.808
26329W        W92738  16.281  30.935   0.415
26330W        W92739  33.493   5.213   3.863
26331W        W92740  35.595  44.518   3.336
26332W        W92741  39.910  17.902  13.621
26333W        W92742  19.747  35.319  14.700
26334W        W92743   8.277  21.549  11.587
26335W        W92744  22.601  15.093   3.906
26336W        W92745   9.511   3.303  12.073
26337W        W92746  29.227  15.562  14.892
26338W        W92747  29.268  39.718   3.173
26339W        W92748   0.612  42.465  14.012
26340W        W92749  19.814  26.871  10.827
26341W        W92750   1.773  20.856   1.726
26342W        W92751   1.269  38.946   4.645
26343W        W92752  18.141  34.987   0.268
26344W        W92753  42.030  40.531  14.914
26345W        W92754  10.242  43.773   0.009
26346W        W92755   3.402   5.532   2.792
26347W        W92756  32.085  27.568  10.988
26348W        W92757  30.425  23.906  14.927
26349W        W92758  20.165  11.683   3.647
26350W        W92759  34.924  42.300   1.380
26351W        W92760  30.931  19.052   1.201
26352W        W92761  28.116  42.840   1.940
26353W        W92762  20.037   8.118  13.889
26354W        W92763  39.552  32.027   2.277
26355W        W92764   4.665  34.942   3.678
26356W        W92765  35.497  42.355  11.873
26357W        W92766  42.192  24.001   3.755
26358W        W92767   6.332   8.838   4.962
26359W        W92768  25.127   5.498  13.185
26360W        W92769   9.672  11.736   4.577
26361W        W92770  23.554   5.983   0.567
26362W        W92771  36.464  22.197  12.636
26363W        W92772  35.362  34.984  13.734
26364W        W92773  41.390  23.774  10.634
26365W        W92774  38.316   2.831   4.194
26366W        W92775  33.917  12.553  11.249
26367W        W92776  34.792  25.099  13.823
26368W        W92777  30.489  34.053  12.918
26369W        W92778  29.896  41.292   1.266
26370W        W92779  10.162  12.117  11.604
26371W        W92780  16.758  44.762  11.897
26372W        W92781   2.888  10.941   3.588
26373W        W92782  33.716  16.550   1.777
26374W        W92783  18.050  38.171  14.256
26375W        W92784  39.366  16.746   2.253
26376W        W92785  10.710   2.275   0.880
26377W        W92786  42.754  28.368  13.849
26378W        W92787  37.893  38.981  11.916
26379W        W92788   5.164  22.696   4.106
26380W        W92789   5.015   0.413  14.155
26381W        W92790  34.468   0.278  12.384
26382W        W92791   1.392  11.056  13.267
26383W        W92792  17.328  37.531   2.719
26384W        W92793   0.504   5.641   0.205
26385W        W92794  39.107   9.278  12.547
26386W        W92795  22.179  36.636   1.570
26387W        W92796  13.935  33.652  14.249
26388W        W92797   4.030  27.429  10.171
26389W        W92798  19.707  21.867  13.865
26390W        W92799  41.384  27.963  11.423
26391W        W92800  36.497   2.792  12.080
26392W        W92801  33.254  16.707  12.283
26393W        W92802  16.253  43.029   3.328
26394W        W92803  43.829  25.551   3.115
26395W        W92804  30.149  37.281   2.782
26396W        W92805  37.987  16.254   4.522
26397W        W92806  17.084  21.787   1.032
26398W        W92807   8.347  41.752   0.407
26399W        W92808  20.319  16.829  14.802
26400W        W92809  13.308  30.605   0.504
26401W        W92810   8.757   4.021  14.557
26402W        W92811  41.250  40.070   0.270
26403W        W92812  15.184   0.023  13.992
26404W        W92813  41.949  13.509   0.743
26405W        W92814   6.244  15.579   4.143
26406W        W92815  27.925   7.070   4.841
26407W        W92816  39.742  18.117   3.167
26408W        W92817  36.014  27.489   1.943
26409W        W92818  31.446  16.587   0.359
26410W        W92819   5.879  20.640  14.771
26411W        W92820  37.954  14.588  12.616
26412W        W92821  43.463  41.427  10.656
26413W        W92822   1.943  41.471  12.844
26414W        W92823  11.279   9.650   1.310
26415W        W92824   3.794   8.511   0.187
26416W        W92825   1.911  17.273  11.914
26417W        W92826  38.858  16.059  13.334
26418W        W92827  21.090   0.797   2.629
26419W        W92828  29.607  18.980  13.336
26420W        W92829  25.152   3.652  13.181
26421W        W92830  13.738  23.645  12.342
26422W        W92831  18.972  27.189   1.867
26423W        W92832  37.527  30.368   3.810
26424W        W92833  35.879  34.462  10.723
26425W        W92834  31.083  43.479  10.668
26426W        W92835  25.960  23.299   0.189
26427W        W92836  20.860  13.019  11.629
26428W        W92837  19.021  32.779   4.001
26429W        W92838   8.874   0.167   0.909
26430W        W92839   9.695  36.744   2.696
26431W        W92840  21.165  14.109  11.313
26432W        W92841   7.368  24.716   3.555
26433W        W92842   9.197   9.449   1.725
26434W        W92843   3.591  32.708   0.854
26435W        W92844  28.248  25.929   2.703
26436W        W92845  20.269   0.516   3.131
26437W        W92846  30.400  42.745   2.813
26438W        W92847  29.689  19.336  10.342
26439W        W92848  18.405  36.082  10.550
26440W        W92849   5.670  27.214  14.466
26441W        W92850  15.179  36.123   4.527
26442W        W92851   5.782  22.026  10.552
26443W        W92852   6.674  28.091   3.542
26444W        W92853  25.218  17.607  14.848
26445W        W92854  39.600  20.199  10.279
26446W        W92855   7.851  14.979   3.627
26447W        W92856  44.439  37.039  14.333
26448W        W92857   4.002  43.564   0.824
26449W        W92858  10.367  22.679   2.165
26450W        W92859  29.347   5.114  10.637
26451W        W92860   8.359   2.104   5.198
26452W        W92861   9.662  25.450  10.556
26453W        W92862  15.782  33.313   0.427
26454W        W92863  40.227  27.029  10.592
26455W        W92864  10.656   6.807   3.596
26456W        W92865  17.893  20.366  14.851
26457W        W92866   1.906  44.977  10.925
26458W        W92867  21.492  12.286  11.508
26459W        W92868  19.020  20.072  12.485
26460W        W92869  13.629  29.483  14.049
26461W        W92870  31.316  18.624   3.672
26462W        W92871  14.206  23.981   3.286
26463W        W92872   1.538   4.622   0.484
26464W        W92873  16.623   8.209  13.316
26465W        W92874  30.621  22.883   1.329
26466W        W92875  16.729   5.847   3.653
26467W        W92876  15.459   5.785   9.966
26468W        W92877   5.124  43.853  11.111
26469W        W92878  29.522   5.509   0.189
26470W        W92879   0.949  25.472  12.584
26471W        W92880  24.255   6.744   4.113
26472W        W92881  41.907  22.630  10.547
26473W        W92882  27.139  23.098  12.426
26474W        W92883  12.371   6.596   3.679
26475W        W92884  25.219   7.920   4.293
26476W        W92885   3.339  41.601   4.151
26477W        W92886  14.780  38.316   0.783
26478W        W92887  34.514  38.451  11.936
26479W        W92888  41.782  24.650  12.923
26480W        W92889  28.416   0.193   2.788
26481W        W92890   8.577  42.800  12.473
26482W        W92891  29.267  42.539   4.163
26483W        W92892   3.707  40.031  12.963
26484W        W92893   9.757  27.615   2.780
26485W        W92894  32.327  32.967  14.846
26486W        W92895  27.398  28.500  12.057
26487W        W92896   6.802  35.325   3.234
26488W        W92897  38.117  21.298   9.958
26489W        W92898  40.773  34.689  11.519
26490W        W92899   2.689  34.049  12.436
26491W        W92900  32.315  37.859  11.046
26492W        W92901  25.670   6.669   4.602
26493W        W92902  20.770  12.138  11.964
26494W        W92903  37.621  36.349  13.508
26495W        W92904  38.732  20.127   2.437
26496W        W92905  16.694  27.327   0.195
26497W        W92906  27.637   6.115  11.524
26498W        W92907  11.804  27.795  10.676
26499W        W92908   0.004  38.853   2.714
26500W        W92909  24.752  36.957   4.185
26501W        W92910  16.471  19.846   4.242
26502W        W92911  25.122  25.063  13.820
26503W        W92912  17.794  17.830   3.088
26504W        W92913  19.168   9.646  13.025
26505W        W92914  13.824  42.943   2.283
26506W        W92915  39.719  42.974   2.716
26507W        W92916  25.288   6.880  13.142
26508W        W92917  22.523  27.895  13.707
26509W        W92918  33.076  29.015  12.143
26510W        W92919  30.946  41.336  13.279
26511W        W92920  43.357  11.185   0.764
26512W        W92921  43.224  44.450   4.228
26513W        W92922  35.989   4.440   1.150
26514W        W92923  39.003  14.489   1.417
26515W        W92924  35.039  44.721   3.731
26516W        W92925   5.187  37.568  12.992
26517W        W92926  19.512  22.053  13.423
26518W        W92927  27.285   2.604   4.376
26519W        W92928  21.476  39.107   1.390
26520W        W92929  25.176  20.603   5.579
26521W        W92930   5.127  35.149  13.456
26522W        W92931  23.733  11.831   4.790
26523W        W92932  28.639  37.056  10.372
26524W        W92933  38.799  26.581   0.423
26525W        W92934  33.967  26.030  12.497
26526W        W92935  11.130  25.784  14.533
26527W        W92936  20.079  35.474   2.768
26528W        W92937  39.829  11.306  14.988
26529W        W92938   3.929   2.567  14.015
26530W        W92939  29.478   8.901   2.269
26531W        W92940  43.978  12.247  11.115
26532W        W92941   2.292  42.520   3.694
26533W        W92942   7.901  44.368   4.649
26534W        W92943   9.733  31.520  14.845
26535W        W92944  18.990  17.565  11.654
26536W        W92945  21.048  41.103  14.731
26537W        W92946  29.257  11.698   2.758
26538W        W92947   9.403  35.507   4.693
26539W        W92948  29.911  34.263   0.267
26540W        W92949  26.882  21.471   4.683
26541W        W92950   7.887  38.788   3.491
26542W        W92951  21.102  24.153  13.396
26543W        W92952  22.631  27.453   0.834
26544W        W92953   0.168  30.099  10.565
26545W        W92954   4.345   2.043  14.291
26546W        W92955  15.750  11.356  11.634
26547W        W92956  41.595   8.740   2.749
26548W        W92957   1.291  11.768   2.863
26549W        W92958  41.952   8.647   5.441
26550W        W92959   6.240  16.171   2.450
26551W        W92960  30.562  24.981   1.422
26552W        W92961  28.595  33.908  11.350
26553W        W92962  22.015   5.862   3.285
26554W        W92963  36.441  36.052   3.532
26555W        W92964   1.127  31.171  14.390
26556W        W92965  35.157  28.729  11.601
26557W        W92966  35.578   5.910  14.420
26558W        W92967   2.861  16.586   4.435
26559W        W92968  27.936  36.805   0.247
26560W        W92969  34.885  35.859  12.428
26561W        W92970  26.733  15.139   4.965
26562W        W92971  43.374  34.855   4.240
26563W        W92972  39.950  19.476   4.084
26564W        W92973  20.276  38.799  13.233
26565W        W92974   8.955  12.902  12.991
26566W        W92975  25.025  30.817   4.061
26567W        W92976  25.195  28.946  12.049
26568W        W92977  12.886   6.862  11.991
26569W        W92978  26.950   5.245   4.415
26570W        W92979  12.197  44.662   3.709
26571W        W92980   9.403  37.008  12.872
26572W        W92981  27.100   6.174   3.703
26573W        W92982  37.386  32.556  11.012
26574W        W92983  42.367  16.580  11.161
26575W        W92984  12.302  24.152  10.650
26576W        W92985  43.089  20.968  10.733
26577W        W92986   8.717  20.654  13.815
26578W        W92987  30.156  26.754   2.219
26579W        W92988   9.756   9.779   0.740
26580W        W92989  44.292  43.820   0.053
26581W        W92990   3.502   5.423  11.741
26582W        W92991  24.560  22.406  12.593
26583W        W92992   1.180  33.388  12.085
26584W        W92993  13.324   5.391   0.061
26585W        W92994   5.450  25.624  10.598
26586W        W92995  27.021   2.294   1.117
26587W        W92996   5.801   1.428  11.765
26588W        W92997  10.891   4.819  13.089
26589W        W92998   3.975  35.058  12.916
26590W        W92999   7.699  23.090   3.654
26591W        W93000  22.012  40.955  14.346
26592W        W93001  42.231  41.328   3.591
26593W        W93002   4.947  42.571   0.963
26594W        W93003  27.406  23.156   1.200
26595W        W93004   3.956  39.861   4.465
26596W        W93005  35.633  12.122   2.478
26597W        W93006  29.464  20.670  11.480
26598W        W93007  35.580  40.483   0.398
26599W        W93008  28.259  19.331  11.585
26600W        W93009  43.446  36.318   3.208
26601W        W93010  43.961  31.564   1.841
26602W        W93011  20.472  38.322   2.636
26603W        W93012  35.852   0.821  14.872
26604W        W93013  34.160  25.674  14.374
26605W        W93014   0.381  13.772   1.228
26606W        W93015  26.090  33.823  14.027
26607W        W93016  14.865  10.830   3.182
26608W        W93017  18.985  38.358  10.529
26609W        W93018  20.835  13.166  10.511
26610W        W93019  15.621  30.368  11.673
26611W        W93020  14.557   4.613  12.061
26612W        W93021  24.155  18.643   2.477
26613W        W93022   9.387  17.568   5.037
26614W        W93023  32.869  21.718   4.801
26615W        W93024  15.339  17.774  13.423
26616W        W93025  30.891  43.566   0.019
26617W        W93026  42.096  42.695  12.927
26618W        W93027  16.754  30.210   0.450
26619W        W93028  10.794  34.184   4.799
26620W        W93029  17.602   6.738   3.697
26621W        W93030   4.913   0.879  13.532
26622W        W93031  28.718  18.816   2.407
26623W        W93032  16.780  41.331   2.855
26624W        W93033  13.630  30.529  10.578
26625W        W93034   3.797  38.530   4.260
26626W        W93035   8.253  41.053  11.712
26627W        W93036   4.330  19.390  10.989
26628W        W93037   4.299  35.591   3.723
26629W        W93038  16.826  22.506  13.825
26630W        W93039  16.370  27.006  13.870
26631W        W93040  27.437  43.467  14.931
26632W        W93041  31.383  38.906  12.990
26633W        W93042  11.795  18.228  12.042
26634W        W93043  22.491   5.429  14.753
26635W        W93044  39.868   8.655  10.606
26636W        W93045   4.938  17.466   2.359
26637W        W93046   3.220  42.729   2.386
26638W        W93047  32.947  15.780   0.909
26639W        W93048  12.890  31.888  14.310
26640W        W93049  29.819  12.796  12.554
26641W        W93050   1.870  20.682  13.342
26642W        W93051  27.565  21.976   4.760
26643W        W93052  37.026  13.067   0.817
26644W        W93053  33.865  13.088   1.736
26645W        W93054   7.327  18.284  14.477
26646W        W93055  41.526  33.360   2.758
26647W        W93056  28.921  12.361  12.529
26648W        W93057  14.561   8.316   2.892
26649W        W93058  19.557   1.747  12.171
26650W        W93059  20.127  40.527  14.435
26651W        W93060   7.369  29.668  10.828
26652W        W93061  16.094  39.377  11.222
26653W        W93062   2.445  26.684   2.851
26654W        W93063   8.923  21.760  10.562
26655W        W93064   5.149  28.510   4.914
26656W        W93065  36.785  44.381   0.714
26657W        W93066   9.883  16.791   2.176
26658W        W93067   9.808  37.853   1.312
26659W        W93068  33.158  36.285  11.978
26660W        W93069  23.080  33.037   0.532
26661W        W93070   1.274  40.972   4.541
26662W        W93071  39.799   1.550   0.928
26663W        W93072  32.829   3.004  12.974
26664W        W93073  41.425   0.210   0.367
26665W        W93074  26.975  15.981  12.042
26666W        W93075  27.387   7.383  13.357
26667W        W93076  37.397  14.721  11.174
26668W        W93077  26.509   5.142   4.126
26669W        W93078  12.778  22.106  10.607
26670W        W93079  40.770  28.979  12.088
26671W        W93080  33.618  32.953   2.339
26672W        W93081   3.864  17.897   0.466
26673W        W93082   7.740  17.766   4.639
26674W        W93083  10.154  21.093   2.768
26675W        W93084   5.925  12.804  12.468
26676W        W93085   3.799  28.478   2.128
26677W        W93086  19.834  36.008   0.457
26678W        W93087  41.948  27.320   4.073
26679W        W93088  35.135   9.259   3.220
26680W        W93089  24.757   7.978  14.867
26681W        W93090  39.311  36.412  13.956
26682W        W93091  18.711  10.338  10.552
26683W        W93092  42.104  34.809  11.231
26684W        W93093  33.922  37.831   5.007
26685W        W93094  13.300  38.277  12.418
26686W        W93095   1.140  16.152   3.654
26687W        W93096   2.447  32.617  13.279
26688W        W93097   0.815  13.894  12.455
26689W        W93098  41.493  33.627  13.947
26690W        W93099  24.184  19.536  11.112
26691W        W93100  30.612   1.357   1.869
26692W        W93101  30.949   7.209   0.834
26693W        W93102  11.390  17.246  13.876
26694W        W93103  14.784   2.295  12.501
26695W        W93104  36.583   0.168  12.887
26696W        W93105  10.198  36.591   3.330
26697W        W93106  29.505  13.803  14.562
26698W        W93107   5.831   6.377  10.439
26699W        W93108  23.403  21.293  12.919
26700W        W93109   0.819  20.948  10.070
26701W        W93110  28.474  42.556  10.792
26702W        W93111   8.402   2.850   4.171
26703W        W93112  22.546  18.418  10.841
26704W        W93113  24.525  14.163  10.965
26705W        W93114  41.526  15.319   4.837
26706W        W93115   6.975   7.986  11.070
26707W        W93116  35.869   1.610  12.036
26708W        W93117  42.926  15.029   4.271
26709W        W93118  29.225   7.392  13.844
26710W        W93119  15.044  44.460   4.129
26711W        W93120  13.074  19.706  10.665
26712W        W93121  33.668  41.816   4.159
26713W        W93122  18.393  26.542   4.977
26714W        W93123  23.612  12.306  13.696
26715W        W93124  10.146  32.468  11.546
26716W        W93125   5.945   1.472   3.346
26717W        W93126   0.863  41.862   1.895
26718W        W93127   7.231  40.827  12.377
26719W        W93128  14.895  23.281  13.001
26720W        W93129  26.129  16.131   2.980
26721W        W93130  36.837  28.009  14.837
26722W        W93131  34.988  11.326  14.258
26723W        W93132  13.368  23.013   2.501
26724W        W93133   2.803  42.850  11.952
26725W        W93134  17.646  18.051  12.414
26726W        W93135   6.939  30.536  13.872
26727W        W93136   8.118  44.627   5.177
26728W        W93137  38.166  41.913  14.043
26729W        W93138   9.382   0.440   1.365
26730W        W93139  24.813  34.148   1.469
26731W        W93140  14.660  40.744   1.882
26732W        W93141  15.653   8.002   1.234
26733W        W93142  44.459  16.297  14.005
26734W        W93143  27.155   0.973   0.863
26735W        W93144  42.765  23.897   1.205
26736W        W93145  40.768  35.286   3.834
26737W        W93146  32.116  29.267   1.429
26738W        W93147  11.163  15.517  14.196
26739W        W93148  32.577  39.986   4.844
26740W        W93149  38.903  32.558  14.765
26741W        W93150  42.859   4.262  14.341
26742W        W93151  32.589  18.389  13.347
26743W        W93152  41.591  25.751  14.337
26744W        W93153   4.786  31.603  14.783
26745W        W93154   0.479  28.663  11.280
26746W        W93155   3.382  18.024   0.282
26747W        W93156  30.623  31.946  13.342
26748W        W93157  10.856  40.366   1.691
26749W        W93158  13.759  20.697   9.909
26750W        W93159  38.794   0.366  10.265
26751W        W93160   4.826  23.926  14.698
26752W        W93161   4.404  25.928  10.833
26753W        W93162   4.910   3.012  11.053
26754W        W93163  16.815  19.969   0.508
26755W        W93164  21.309  38.792   0.062
26756W        W93165   5.757  16.591  12.435
26757W        W93166  33.022  38.747  11.463
26758W        W93167  21.206  44.212   1.224
26759W        W93168  17.121   9.608  14.547
26760W        W93169  13.862  42.684  14.350
26761W        W93170  34.986  40.438  14.484
26762W        W93171  15.252  40.769   2.409
26763W        W93172  43.989  37.665   4.839
26764W        W93173  38.783   7.250   0.862
26765W        W93174   4.663  13.287  11.124
26766W        W93175  13.420   0.634   3.082
26767W        W93176  38.920   4.466  10.429
26768W        W93177  14.590  23.054  11.535
26769W        W93178  20.089  42.812   4.535
26770W        W93179  26.514  32.967   2.675
26771W        W93180  23.045  39.806  12.496
26772W        W93181   3.320  36.770   3.268
26773W        W93182  33.607   4.453   0.369
26774W        W93183  17.170  12.566  13.467
26775W        W93184  20.961  38.055  12.867
26776W        W93185  21.425  15.025   0.841
26777W        W93186  15.106   0.859   1.788
26778W        W93187  18.517  33.444  11.545
26779W        W93188  14.322  20.024  11.114
26780W        W93189  26.910  42.267  11.503
26781W        W93190   9.191  22.593   2.342
26782W        W93191  36.553   4.368  10.737
26783W        W93192  32.091  12.890  11.981
26784W        W93193  30.711  34.698   3.909
26785W        W93194  22.952  42.415   4.376
26786W        W93195  23.666  20.575  12.647
26787W        W93196  37.505  30.867   4.617
26788W        W93197   4.299  17.289  11.064
26789W        W93198   5.199  40.996  14.957
26790W        W93199  10.413  32.845  11.306
26791W        W93200  35.165  36.433   2.234
26792W        W93201  25.049  25.554  13.406
26793W        W93202   4.814  19.039   0.351
26794W        W93203  18.502  29.241  13.951
26795W        W93204  27.916   0.749  13.005
26796W        W93205  38.651   1.280  10.472
26797W        W93206  33.879  14.818  13.334
26798W        W93207  30.496  22.425   0.035
26799W        W93208  43.725   9.712   1.322
26800W        W93209  36.281  26.504  13.656
26801W        W93210  18.757   3.522   1.750
26802W        W93211  13.046  33.591   4.584
26803W        W93212  10.269   2.266  10.763
26804W        W93213  41.590  32.736   3.738
26805W        W93214  28.240   7.411   2.861
26806W        W93215  11.879  33.856  11.617
26807W        W93216   1.460  37.824   2.657
26808W        W93217  44.675  24.422   0.044
26809W        W93218  32.892  43.315  14.752
26810W        W93219   2.337  26.855   1.373
26811W        W93220  29.078  21.549   2.784
26812W        W93221  31.185  14.603   1.293
26813W        W93222  29.768  20.171  13.510
26814W        W93223  31.694   7.260   4.106
26815W        W93224  34.068   5.815  11.078
26816W        W93225  20.651  30.993   3.641
26817W        W93226  38.449  13.322   4.155
26818W        W93227  32.168  31.864   1.379
26819W        W93228  11.601  19.742  12.249
26820W        W93229  28.984  25.611  11.985
26821W        W93230  15.365  34.892  13.410
26822W        W93231  40.062  33.306  12.072
26823W        W93232   6.283  22.172  10.335
26824W        W93233  37.367  38.096   4.532
26825W        W93234  24.478  42.232  13.001
26826W        W93235  43.574  15.581  12.707
26827W        W93236   6.668  38.033   0.767
26828W        W93237  35.592  32.083  12.571
26829W        W93238  38.434  30.956  13.926
26830W        W93239  38.525  16.322   4.613
26831W        W93240  19.035  22.170  14.786
26832W        W93241  33.110  37.429  12.039
26833W        W93242  18.694  34.941  12.519
26834W        W93243  21.798  16.784  10.683
26835W        W93244  11.238  20.680   0.969
26836W        W93245  44.851  42.899   4.018
26837W        W93246  14.700  12.267  13.751
26838W        W93247  15.144  30.281   4.015
26839W        W93248  23.942  32.526   1.322
26840W        W93249  29.955  43.955  14.103
26841W        W93250  25.015  11.835   2.317
26842W        W93251  19.215   0.870   3.173
26843W        W93252  39.404  18.681   5.436
26844W        W93253  18.840   2.309  13.887
26845W        W93254  41.048  39.069  13.275
26846W        W93255  21.307  21.561   1.305
26847W        W93256  41.642   8.192  10.240
26848W        W93257  22.312   2.409   4.172
26849W        W93258  35.543  27.023  13.419
26850W        W93259  43.085   5.885   3.594
26851W        W93260  22.568   5.393  10.739
26852W        W93261  12.237  40.042   1.838
26853W        W93262  18.167   5.333   1.900
26854W        W93263  36.161  23.772   1.430
26855W        W93264  15.603   3.517  11.356
26856W        W93265  18.743  16.789   1.908
26857W        W93266  32.392  10.237   0.363
26858W        W93267  29.309  29.436   0.772
26859W        W93268  41.996  13.901  14.795
26860W        W93269  36.912  37.893  12.925
26861W        W93270  36.437  25.196   5.250
26862W        W93271  33.361  36.920  11.257
26863W        W93272  42.730   3.664  13.037
26864W        W93273   3.174  43.854   1.927
26865W        W93274   8.327   3.660   3.679
26866W        W93275  22.383   1.739  12.101
26867W        W93276  12.188  22.057   0.783
26868W        W93277  26.142  40.595  13.471
26869W        W93278   7.772  30.636   3.201
26870W        W93279  39.716  41.412   1.429
26871W        W93280  39.018  28.166   0.888
26872W        W93281  39.387  32.719  13.361
26873W        W93282   8.222   4.433  14.166
26874W        W93283  17.351   6.336   2.766
26875W        W93284   0.321  40.123   4.228
26876W        W93285   1.278  37.879   4.076
26877W        W93286  40.754  14.112   1.353
26878W        W93287  24.544   1.231   0.162
26879W        W93288  39.443  14.739  12.679
26880W        W93289  42.331  25.278  13.109
26881W        W93290   5.936  36.418   3.813
26882W        W93291  39.897   1.523   0.428
26883W        W93292   7.616  43.516   4.355
26884W        W93293  23.721  16.120  11.602
26885W        W93294  42.823   7.761   0.978
26886W        W93295  14.625   2.724  12.264
26887W        W93296  20.224  14.655   3.754
26888W        W93297  14.352  36.847  13.974
26889W        W93298   7.079   7.016  11.116
26890W        W93299   1.018  43.583  12.982
26891W        W93300  17.240  21.287   1.190
26892W        W93301   5.841  14.343   2.113
26893W        W93302  20.238   7.254  12.091
26894W        W93303   3.787  20.021  11.977
26895W        W93304  30.974  24.118  11.564
26896W        W93305  25.584  12.379  13.866
26897W        W93306  41.152  10.422   4.079
26898W        W93307  19.511   0.368  10.612
26899W        W93308  39.563  37.156  11.035
26900W        W93309  22.052  37.871   4.604
26901W        W93310  27.566  18.013  11.550
26902W        W93311  41.494  18.674   4.656
26903W        W93312   1.201  14.837  12.465
26904W        W93313  17.243  23.972  11.130
26905W        W93314   8.288  30.497   1.184
26906W        W93315  20.501  14.726   1.341
26907W        W93316  20.663  23.003   4.703
26908W        W93317  21.955  21.896   4.218
26909W        W93318   1.828  36.546   4.506
26910W        W93319  39.480  29.544  10.644
26911W        W93320  28.495  18.760   1.314
26912W        W93321  42.467  34.997  12.556
26913W        W93322  16.804  41.451   0.403
26914W        W93323   2.126  13.778  12.983
26915W        W93324   9.817  16.104   5.027
26916W        W93325  43.998  31.934   0.776
26917W        W93326   0.474   2.287   2.222
26918W        W93327  20.667  29.001  14.060
26919W        W93328  33.311  40.382   0.236
26920W        W93329  15.895  34.803  13.378
26921W        W93330   4.696  37.151  12.452
26922W        W93331  31.694  23.024  12.174
26923W        W93332  42.868  25.936   2.591
26924W        W93333   6.133   5.989  13.893
26925W        W93334  22.527   2.868   1.809
26926W        W93335  19.049  29.872   4.980
26927W        W93336  29.005  16.518  10.733
26928W        W93337  28.434  28.736  11.991
26929W        W93338   5.875  16.339   3.182
26930W        W93339  38.624  21.814   0.857
26931W        W93340   2.190  14.613   2.137
26932W        W93341  28.307   3.633   0.966
26933W        W93342  17.445  30.524   4.899
26934W        W93343   0.036   6.710  13.930
26935W        W93344  41.783  23.712   4.226
26936W        W93345   3.531  35.057   1.342
26937W        W93346   2.468  28.463   4.148
26938W        W93347  31.531   1.171   4.120
26939W        W93348   8.124  27.442   2.777
26940W        W93349  37.031  43.269   4.420
26941W        W93350  39.623  39.556   2.956
26942W        W93351  16.252  12.750   4.601
26943W        W93352  18.523  20.868   1.734
26944W        W93353  33.611  34.638   0.768
26945W        W93354  31.016   4.264  13.495
26946W        W93355  16.638  24.890   1.924
26947W        W93356  27.236  24.474   3.035
26948W        W93357   0.376   5.255  13.970
26949W        W93358  26.711  26.203  13.895
26950W        W93359  32.106  33.412  12.583
26951W        W93360   7.689  19.502  12.832
26952W        W93361   5.982  35.167  13.033
26953W        W93362  25.788  19.987  12.424
26954W        W93363  41.101  25.183  13.407
26955W        W93364   2.258  44.385   5.018
26956W        W93365   9.579   6.757   2.069
26957W        W93366  30.650   2.835   3.166
26958W        W93367  36.522  42.823  12.576
26959W        W93368  25.034   4.274   2.917
26960W        W93369   2.037  20.197  13.308
26961W        W93370  12.630  33.344  13.539
26962W        W93371  30.649  32.597   0.325
26963W        W93372  12.744   9.625   0.098
26964W        W93373  30.615  19.229   0.818
26965W        W93374   6.721  42.797  12.798
26966W        W93375  26.735  24.193   2.227
26967W        W93376   7.327  32.768  10.054
26968W        W93377  10.149  17.131   1.894
26969W        W93378  18.048   9.355  13.422
26970W        W93379  37.349  40.268  14.451
26971W        W93380  37.549  40.747   5.061
26972W        W93381   2.827  27.146  11.328
26973W        W93382  30.862  21.094  14.908
26974W        W93383  19.031  18.648   0.680
26975W        W93384  13.134   1.774  12.743
26976W        W93385  19.018  29.528   3.602
26977W        W93386  37.881  18.119  13.910
26978W        W93387  32.764  29.183   4.146
26979W        W93388  15.705  41.915   0.494
26980W        W93389  39.002  34.517   0.379
26981W        W93390   1.415  17.076  13.561
26982W        W93391  20.530   6.903  11.158
26983W        W93392  39.774  40.057   0.395
26984W        W93393  30.477  41.512  13.442
26985W        W93394  39.518   7.377  14.989
26986W        W93395  36.425  16.116  12.399
26987W        W93396   2.168  27.025   1.841
26988W        W93397  10.009  41.044  11.986
26989W        W93398  21.294  15.425   4.174
26990W        W93399  28.143  22.021   1.852
26991W        W93400   9.365  15.136  11.120
26992W        W93401  22.742   5.179   4.097
26993W        W93402   3.476   5.714   2.225
26994W        W93403  33.350  20.396  13.924
26995W        W93404   3.766  11.280   2.176
26996W        W93405  19.575  10.639  14.162
26997W        W93406  26.112  19.787  13.886
26998W        W93407  42.298  21.752   4.405
26999W        W93408  40.018  41.428  12.466
27000W        W93409   3.899  39.037   4.210
27001W        W93410  41.419  20.174  10.291
27002W        W93411  23.620  13.318   3.239
27003W        W93412  11.893  26.127  11.504
27004W        W93413   1.851  23.239   2.224
27005W        W93414   5.191  42.827   4.787
27006W        W93415   6.592  20.514  11.566
27007W        W93416  39.727   2.977   0.519
27008W        W93417  17.678  44.056   4.156
27009W        W93418  42.724  13.212   1.184
27010W        W93419  36.558   5.650   3.280
27011W        W93420   1.955  15.583  14.729
27012W        W93421  27.983  32.520  14.357
27013W        W93422   3.116  12.107  13.567
27014W        W93423   3.451  32.106  12.590
27015W        W93424  23.729  17.208   4.318
27016W        W93425   4.772  37.913   3.311
27017W        W93426  14.068  27.658   3.827
27018W        W93427   1.476  28.368  14.151
27019W        W93428   2.853   9.889   4.709
27020W        W93429  16.966  31.843  11.255
27021W        W93430  38.005   4.407  10.665
27022W        W93431   6.406  33.888  11.938
27023W        W93432  30.965  29.613   2.228
27024W        W93433   8.153  42.910   4.149
27025W        W93434  11.184  31.147   0.462
27026W        W93435  28.545  18.375  12.429
27027W        W93436  42.330  11.892  11.234
27028W        W93437  33.895  44.179  12.878
27029W        W93438  32.403  22.596  11.146
27030W        W93439  34.239  20.532   0.040
27031W        W93440  43.405   8.614  12.597
27032W        W93441  15.834  41.380  13.507
27033W        W93442  16.752  12.077   0.923
27034W        W93443  30.176  39.508   3.206
27035W        W93444   5.269  40.268  12.373
27036W        W93445  17.956   9.310   0.245
27037W        W93446   0.850  35.416  12.923
27038W        W93447   6.607  30.020  13.137
27039W        W93448  32.487  31.608   1.061
27040W        W93449  41.142  18.383  12.020
27041W        W93450   1.247   6.215  14.010
27042W        W93451  10.651   5.730  13.572
27043W        W93452  37.816  37.862   1.426
27044W        W93453  15.247  29.483   4.415
27045W        W93454  15.128  29.185  14.700
27046W        W93455  33.330  32.303  12.962
27047W        W93456  29.459  10.203   2.552
27048W        W93457  11.323  25.163  10.748
27049W        W93458  26.931  24.036  10.756
27050W        W93459  44.835  31.666   2.179
27051W        W93460  33.924   3.438   1.456
27052W        W93461  38.353   8.186   3.282
27053W        W93462  20.467   1.210  11.082
27054W        W93463  41.328  32.901  11.481
27055W        W93464  25.475  34.703   3.636
27056W        W93465  16.804  24.063   2.008
27057W        W93466  21.646   6.716   1.855
27058W        W93467  31.227  25.834  12.075
27059W        W93468  22.728  22.460   5.135
27060W        W93469   4.263   8.011   3.886
27061W        W93470  24.999  10.110   3.714
27062W        W93471  26.509   8.991   1.432
27063W        W93472  22.464  32.086   4.098
27064W        W93473   2.414  41.018  13.098
27065W        W93474  29.642  40.909  11.428
27066W        W93475  30.745  25.971  11.897
27067W        W93476  18.064  12.208   2.349
27068W        W93477   9.214  42.325  12.133
27069W        W93478  10.793  42.817   0.188
27070W        W93479   7.902  26.317   4.038
27071W        W93480  18.130  14.271   2.564
27072W        W93481   2.817  16.327   0.332
27073W        W93482  26.418  39.922  10.810
27074W        W93483  11.855  40.505   0.948
27075W        W93484  17.583  25.717   0.882
27076W        W93485   4.985  17.060   3.697
27077W        W93486   8.272   0.393  14.821
27078W        W93487  16.654  26.478  11.598
27079W        W93488  13.094  29.819   0.617
27080W        W93489  40.060   4.827  11.211
27081W        W93490  42.169  17.403   2.674
27082W        W93491  10.868  37.001  13.453
27083W        W93492  18.485  11.943  12.155
27084W        W93493  37.312  21.430  14.026
27085W        W93494  26.529   6.961   3.768
27086W        W93495   7.137   6.441  11.710
27087W        W93496  30.906  36.079   1.744
27088W        W93497  31.201   1.033  13.577
27089W        W93498  34.301   5.680   1.817
27090W        W93499  24.073  31.971   1.940
27091W        W93500  36.278  15.072  14.762
27092W        W93501  32.601   2.774  11.654
27093W        W93502  31.137   2.950  13.853
27094W        W93503   3.780  25.580  10.531
27095W        W93504  32.193  21.735  14.895
27096W        W93505  41.912  34.446  14.213
27097W        W93506  32.571  14.526  14.520
27098W        W93507  18.404  21.089   0.718
27099W        W93508  41.309  22.122   2.641
27100W        W93509  18.030   3.841   1.576
27101W        W93510  11.689  11.941   0.369
27102W        W93511  42.946  11.840   2.347
27103W        W93512  19.680  22.299  10.310
27104W        W93513   8.696   2.792   2.444
27105W        W93514  44.205   7.696   1.644
27106W        W93515  29.087  41.593   2.348
27107W        W93516  20.041  17.442  10.766
27108W        W93517  17.735  24.025   1.458
27109W        W93518   8.348  26.548  12.360
27110W        W93519  36.392  10.191  12.845
27111W        W93520  44.816  30.489  13.432
27112W        W93521  19.004  28.115   1.155
27113W        W93522  40.895  28.859   1.884
27114W        W93523  26.725  23.667  14.526
27115W        W93524  30.071  42.044  11.947
27116W        W93525  24.027  23.368  13.828
27117W        W93526  31.826   8.216   0.301
27118W        W93527  30.164   7.408  10.706
27119W        W93528  13.745  30.003   2.203
27120W        W93529  12.364  26.404  14.854
27121W        W93530  35.300  31.976  14.477
27122W        W93531  43.239  19.583   2.668
27123W        W93532  26.988  21.201  13.137
27124W        W93533  34.815  32.891  11.895
27125W        W93534  42.556  15.259  11.168
27126W        W93535  40.447  28.415   2.346
27127W        W93536  16.439  39.001   3.642
27128W        W93537  33.862  18.278  14.855
27129W        W93538  37.784  10.961   3.715
27130W        W93539  21.443   9.879  11.572
27131W        W93540  14.421  24.612  12.006
27132W        W93541  38.821  43.321  13.323
27133W        W93542  16.692  11.247   4.404
27134W        W93543  11.289  28.558   2.991
27135W        W93544  28.064  20.704  12.898
27136W        W93545   9.728  13.646   1.264
27137W        W93546   6.426   5.811  11.325
27138W        W93547  25.129  44.239  10.717
27139W        W93548  24.931  25.253  11.684
27140W        W93549   2.768   4.140   4.109
27141W        W93550  18.685  38.833   4.551
27142W        W93551   8.396  25.522   4.146
27143W        W93552  22.972  22.181   0.992
27144W        W93553   4.478  19.523  11.570
27145W        W93554  12.601   6.940   1.394
27146W        W93555  14.630  27.509   2.471
27147W        W93556  36.977  14.610  14.806
27148W        W93557  32.704  26.746   3.274
27149W        W93558  13.298  44.486  10.714
27150W        W93559  40.129  18.370  13.471
27151W        W93560  25.562  33.536   4.191
27152W        W93561  40.581  44.990   2.024
27153W        W93562  44.227  21.552  11.208
27154W        W93563  15.273   2.707  13.008
27155W        W93564  18.635   3.692  11.643
27156W        W93565   2.863  34.317   4.049
27157W        W93566  34.981  44.790  14.582
27158W        W93567  30.604  10.819  11.026
27159W        W93568  15.790  41.975   0.000
27160W        W93569  32.040  37.592  10.284
27161W        W93570  37.806  26.666  13.462
27162W        W93571  27.978  15.656  11.578
27163W        W93572   7.843  39.347   4.745
27164W        W93573  18.754  29.994  12.576
27165W        W93574   1.988  39.437   0.407
27166W        W93575   4.494  42.433   2.351
27167W        W93576  42.602  25.543  13.501
27168W        W93577  12.347  36.915  13.699
27169W        W93578  10.059  11.868   3.174
27170W        W93579   3.221  27.790  10.783
27171W        W93580  13.095  39.486  11.178
27172W        W93581  37.353  43.779  11.631
27173W        W93582  27.686  22.989  11.110
27174W        W93583  37.553   6.331   4.518
27175W        W93584  31.008   7.162   4.971
27176W        W93585  18.147  21.101  13.444
27177W        W93586   8.205  42.144  14.396
27178W        W93587  29.972  10.084   4.341
27179W        W93588   7.866  26.023  14.943
27180W        W93589   2.372  32.313  14.080
27181W        W93590  31.871   5.128  12.232
27182W        W93591  26.388  20.021   4.084
27183W        W93592  19.605  34.067   0.883
27184W        W93593  42.214   3.688  11.172
27185W        W93594  20.788  34.956  13.477
27186W        W93595  14.751  13.160   3.174
27187W        W93596   1.620  12.112  14.511
27188W        W93597  35.827  14.654   4.567
27189W        W93598  44.502  18.536   5.052
27190W        W93599  36.561  33.564  10.909
27191W        W93600  32.550  31.156  10.691
27192W        W93601  39.487   1.231   4.995
27193W        W93602  16.350  33.018  12.554
27194W        W93603  41.253  25.999  11.690
27195W        W93604  28.439   1.525  12.881
27196W        W93605  14.818  36.855   0.441
27197W        W93606  22.737  31.503  10.700
27198W        W93607  13.746  32.445   1.392
27199W        W93608  34.111  37.905   3.052
27200W        W93609  15.654  29.486  11.683
27201W        W93610  27.068  25.465  11.686
27202W        W93611  38.814  28.170   2.918
27203W        W93612  16.756  39.079  14.892
27204W        W93613  33.163  24.572  11.577
27205W        W93614   3.103   3.902  11.616
27206W        W93615  33.067  39.440  10.692
27207W        W93616   3.208   1.520   4.362
27208W        W93617   1.336  19.708  14.867
27209W        W93618  25.083  25.690   4.884
27210W        W93619  32.948  15.519   2.887
27211W        W93620  38.777  38.409  12.442
27212W        W93621  34.019  19.664  14.759
27213W        W93622  15.853  39.546  10.795
27214W        W93623  44.908  26.033  14.805
27215W        W93624  24.633  20.613  10.672
27216W        W93625  21.087  13.076   2.113
27217W        W93626  41.453  33.017   1.664
27218W        W93627  16.112  33.585  11.485
27219W        W93628  12.756  18.188  13.219
27220W        W93629  42.975  32.154  12.687
27221W        W93630  35.906   1.290  13.885
27222W        W93631  31.556   2.133   1.243
27223W        W93632  17.244   3.096   0.776
27224W        W93633  38.197  23.749  12.949
27225W        W93634   4.411  26.723   2.676
27226W        W93635  38.762   4.430  11.179
27227W        W93636  17.282  41.329   1.266
27228W        W93637  35.029   3.894  11.847
27229W        W93638  12.420  41.985   4.458
27230W        W93639  14.482  13.261  11.553
27231W        W93640   8.718   8.682   0.719
27232W        W93641   5.860  17.387   2.280
27233W        W93642  35.988  19.810  11.609
27234W        W93643  44.686  44.546   4.673
27235W        W93644  34.614  29.256   0.891
27236W        W93645  41.809   1.013   1.378
27237W        W93646  15.731  37.566   1.295
27238W        W93647  30.102  19.597   2.455
27239W        W93648  38.513  19.950  13.900
27240W        W93649  15.161  37.047   0.764
27241W        W93650  44.245   0.588   0.607
27242W        W93651  13.394  34.451   5.046
27243W        W93652  21.166  23.133  11.491
27244W        W93653  11.787  31.381   1.353
27245W        W93654  35.696   3.820   4.634
27246W        W93655  34.937   1.914  14.870
27247W        W93656  20.500   3.290   1.293
27248W        W93657  21.630   6.311  12.989
27249W        W93658  36.669   8.576  10.564
27250W        W93659   6.770  28.592   0.274
27251W        W93660  39.702  31.420   1.229
27252W        W93661  16.092  16.476   4.773
27253W        W93662  24.586   1.949   0.730
27254W        W93663   9.894   7.579   2.968
27255W        W93664   1.204  20.785   3.241
27256W        W93665  43.252   7.817  12.429
27257W        W93666  24.291  32.579  13.501
27258W        W93667  44.013  44.304  13.472
27259W        W93668   6.248  11.703   2.163
27260W        W93669  33.468  25.466   3.823
27261W        W93670   1.773  20.082   3.175
27262W        W93671  32.865  33.383  11.528
27263W        W93672  32.615   7.739   2.264
27264W        W93673   4.542   2.407   1.331
27265W        W93674  29.874  29.809   0.305
27266W        W93675  36.911  25.243  14.019
27267W        W93676  41.928   0.393   0.444
27268W        W93677   5.006  23.232   5.306
27269W        W93678  15.156  31.158  13.136
27270W        W93679  32.711  32.616   3.770
27271W        W93680  44.049  15.806   5.055
27272W        W93681   2.156  26.402  12.444
27273W        W93682   1.621  27.718  12.960
27274W        W93683  13.730  44.174   4.369
27275W        W93684  28.629  20.258   3.107
27276W        W93685  44.766  10.410  13.355
27277W        W93686   9.456  30.618  13.157
27278W        W93687  16.295  41.348   1.506
27279W        W93688  27.832  19.678  14.352
27280W        W93689  26.144  32.954   0.783
27281W        W93690  28.485  39.289   4.548
27282W        W93691  20.132  21.014  10.344
27283W        W93692  17.220   3.761  10.080
27284W        W93693  10.048  39.172  10.109
27285W        W93694  32.563  20.276  14.994
27286W        W93695  18.324  33.288  11.100
27287W        W93696  31.327  42.788  14.592
27288W        W93697  21.766   5.407   4.247
27289W        W93698   9.111  13.174   3.811
27290W        W93699  20.374  25.600  13.415
27291W        W93700  32.785  41.078   3.832
27292W        W93701  40.399   9.616   4.064
27293W        W93702  24.828  10.619   1.202
27294W        W93703  34.486  23.498  12.558
27295W        W93704  25.985   6.776   3.768
27296W        W93705  26.466  38.519   0.896
27297W        W93706  40.564  44.850  13.004
27298W        W93707  13.886  18.003  14.891
27299W        W93708   8.799  11.340   0.770
27300W        W93709  21.684  19.088   4.521
27301W        W93710   3.211  33.371  13.024
27302W        W93711  23.008  10.864  10.575
27303W        W93712  17.026   3.897  11.587
27304W        W93713  28.459  36.586  14.047
27305W        W93714  10.727  25.752   0.364
27306W        W93715  15.350  28.891   2.626
27307W        W93716  43.530  16.093  14.009
27308W        W93717  32.088  17.133   3.644
27309W        W93718  32.901  13.677   0.384
27310W        W93719   6.768  15.767  13.665
27311W        W93720  39.012  24.087  14.674
27312W        W93721   4.347  22.365  11.581
27313W        W93722  31.137   1.972   2.753
27314W        W93723  11.852  29.190  14.190
27315W        W93724   4.037  36.331   2.901
27316W        W93725   9.509  29.081   0.159
27317W        W93726   0.782  44.412  13.110
27318W        W93727   3.272  18.656   4.488
27319W        W93728  39.299  14.445   1.906
27320W        W93729  26.623  33.134   0.824
27321W        W93730  29.170  11.711  13.547
27322W        W93731  44.925  15.437  13.795
27323W        W93732   6.854   4.359   3.125
27324W        W93733  16.262   7.919   3.887
27325W        W93734  27.612   2.383   4.712
27326W        W93735  33.834  36.337   1.991
27327W        W93736  36.413  40.307   3.209
27328W        W93737  24.244  42.762  11.719
27329W        W93738  34.469   7.708  13.398
27330W        W93739  23.109  27.505   4.297
27331W        W93740  10.949  15.116   1.282
27332W        W93741  21.050  18.244  12.389
27333W        W93742  21.625  17.843  12.104
27334W        W93743  10.687  16.547   4.040
27335W        W93744  34.511  23.205  12.126
27336W        W93745  10.728  16.556   3.245
27337W        W93746  35.128  22.620  11.160
27338W        W93747  44.902  10.484  12.862
27339W        W93748  23.084  31.114  13.017
27340W        W93749  10.193  42.385   2.305
27341W        W93750  39.905  12.060   4.619
27342W        W93751  22.205  44.570  11.637
27343W        W93752  30.271  11.165   3.713
27344W        W93753  24.395  11.358  13.638
27345W        W93754  27.536  30.709   1.177
27346W        W93755  10.240  36.783   4.186
27347W        W93756  15.063  15.238  14.018
27348W        W93757  44.704   5.749  11.371
27349W        W93758  19.644  36.940   4.214
27350W        W93759  21.201  27.176  13.993
27351W        W93760  40.904  29.866  12.471
27352W        W93761  13.398  29.463  11.709
27353W        W93762  11.550   8.634   1.288
27354W        W93763  38.462  34.172   4.868
27355W        W93764  44.254  36.737   2.475
27356W        W93765  41.815  28.288   0.829
27357W        W93766  42.553  36.179  14.031
27358W        W93767  40.845  20.341  13.591
27359W        W93768  12.371  11.776  14.348
27360W        W93769   2.341  35.868  13.873
27361W        W93770  21.415  39.727   0.840
27362W        W93771  15.765  10.431   2.298
27363W        W93772  28.187  28.035   3.180
27364W        W93773  14.208  20.058   1.190
27365W        W93774  30.515  43.030   0.950
27366W        W93775  17.631  35.422  13.932
27367W        W93776   5.264  24.052  13.552
27368W        W93777  13.793  37.863  14.564
27369W        W93778  10.250   7.840  13.463
27370W        W93779  41.383   3.970   2.354
27371W        W93780  37.253  22.098   3.675
27372W        W93781  28.508   5.773  11.926
27373W        W93782  10.664  28.952  12.896
27374W        W93783  40.902  20.559  11.545
27375W        W93784  41.517  24.779  10.914
27376W        W93785  21.530  37.846   4.807
27377W        W93786  38.887   2.572   0.425
27378W        W93787  26.883  38.914   3.817
27379W        W93788  14.299  23.024   1.702
27380W        W93789  44.993  35.679  10.752
27381W        W93790  24.111  21.269  13.961
27382W        W93791  24.744  30.141   4.086
27383W        W93792  28.754  25.991   4.183
27384W        W93793  19.642   6.419  11.642
27385W        W93794  25.910  26.083   1.424
27386W        W93795   5.396  36.363   0.187
27387W        W93796  36.363  35.495  10.820
27388W        W93797  37.871  18.557   1.498
27389W        W93798  41.714   1.122  10.767
27390W        W93799  30.460   4.268   3.755
27391W        W93800  22.903  42.554  11.576
27392W        W93801  41.286   1.985  13.073
27393W        W93802   6.217  16.023   0.739
27394W        W93803  10.605  37.468  13.368
27395W        W93804  23.360  35.020   3.558
27396W        W93805   2.189  38.061   3.577
27397W        W93806  13.087  30.316   0.892
27398W        W93807  34.055   1.190   1.813
27399W        W93808   6.175  44.939   1.750
27400W        W93809   2.510   9.874   1.267
27401W        W93810  34.642  27.866  13.962
27402W        W93811  38.438  38.769   3.891
27403W        W93812  32.017  17.329   2.672
27404W        W93813  31.137  17.998   0.340
27405W        W93814   0.982  35.871   4.300
27406W        W93815  38.409  10.919   0.957
27407W        W93816   0.842  15.798  11.102
27408W        W93817  13.324  10.121  13.961
27409W        W93818  24.627  39.773  12.468
27410W        W93819  42.373   4.823  14.048
27411W        W93820   4.964   6.772  10.211
27412W        W93821  14.663  42.251  10.573
27413W        W93822  44.516  31.556  12.051
27414W        W93823   6.186  19.363  10.789
27415W        W93824  21.534  20.252  11.586
27416W        W93825   5.044  13.028  12.552
27417W        W93826   6.287  15.084   3.299
27418W        W93827  34.888  22.140  11.856
27419W        W93828  22.219  42.979   1.423
27420W        W93829  15.058  35.467  10.276
27421W        W93830  44.771  15.088  14.987
27422W        W93831  10.331   6.843   2.726
27423W        W93832  30.278  37.249  12.954
27424W        W93833  26.936  31.442   2.176
27425W        W93834  15.785  41.820  14.507
27426W        W93835  28.974  21.818  14.891
27427W        W93836  26.124  36.233   4.825
27428W        W93837  22.209  24.257  13.129
27429W        W93838  37.540  14.147   3.824
27430W        W93839   9.632  19.542   4.169
27431W        W93840   4.479  10.195  14.890
27432W        W93841  24.351  32.480  14.189
27433W        W93842  23.594  33.412  12.907
27434W        W93843   2.239  20.230  12.488
27435W        W93844  26.648   6.445   3.720
27436W        W93845  27.346  42.887   1.333
27437W        W93846  10.667   2.938   2.972
27438W        W93847  22.619  21.692  11.882
27439W        W93848   3.474  39.649   3.771
27440W        W93849  36.489  22.246  13.948
27441W        W93850  17.426  16.498   0.381
27442W        W93851  28.974  35.648   0.961
27443W        W93852   7.411  24.658  13.309
27444W        W93853   7.728  10.778   4.374
27445W        W93854  29.419  36.426   3.080
27446W        W93855  18.593  28.903  13.585
27447W        W93856  23.738  10.335  14.896
27448W        W93857  42.487  29.502   4.914
27449W        W93858   6.358  12.841  13.625
27450W        W93859  16.518   6.514   0.839
27451W        W93860   9.691   7.945  11.236
27452W        W93861  23.479  10.373  11.952
27453W        W93862  23.207  15.442  13.949
27454W        W93863   3.205  28.726   1.320
27455W        W93864  35.892   4.325   4.661
27456W        W93865  44.624   8.696   9.909
27457W        W93866  31.666   8.239  14.788
27458W        W93867   1.308  11.713   4.853
27459W        W93868  36.495  12.354  12.215
27460W        W93869  23.796  35.316  13.387
27461W        W93870  42.787   2.924   4.192
27462W        W93871  17.010  27.928   0.838
27463W        W93872  15.100   7.769  12.924
27464W        W93873  28.966  33.341  14.499
27465W        W93874  31.730  13.966   1.010
27466W        W93875  32.126  11.322  11.230
27467W        W93876  39.022  23.912   4.932
27468W        W93877   3.199  13.229  10.682
27469W        W93878  40.836   9.968   4.156
27470W        W93879  18.750  32.671   2.248
27471W        W93880  21.485  25.069  12.577
27472W        W93881  22.971  27.184  12.839
27473W        W93882   1.416  21.757  10.874
27474W        W93883  34.690   4.172   3.436
27475W        W93884  12.970   6.462  13.103
27476W        W93885  13.855  19.460   4.058
27477W        W93886   5.563  42.037  12.947
27478W        W93887  38.096  24.908  14.924
27479W        W93888  13.067   6.148  11.567
27480W        W93889  43.503  29.653   1.306
27481W        W93890   4.683  33.329   1.817
27482W        W93891   8.091   2.475   1.202
27483W        W93892   3.723  32.036  12.160
27484W        W93893  26.324  14.149  11.249
27485W        W93894  26.943  29.327  12.268
27486W        W93895  35.486  24.520   1.223
27487W        W93896   6.386  28.921  12.547
27488W        W93897   5.417  11.892   1.907
27489W        W93898  27.642   5.187  12.324
27490W        W93899  25.686  38.072   3.662
27491W        W93900  40.051  16.165  14.883
27492W        W93901  34.239  23.017  13.402
27493W        W93902  24.530  34.661  11.114
27494W        W93903   7.205  11.208  10.703
27495W        W93904  10.225  44.321   2.871
27496W        W93905  22.596  44.260   3.208
27497W        W93906  41.040  40.415   2.587
27498W        W93907  39.762  44.182   3.345
27499W        W93908  19.504   9.228  13.151
27500W        W93909  10.117  31.547   1.823
27501W        W93910  18.361   7.666   2.169
27502W        W93911   0.029   2.152   1.452
27503W        W93912  20.036  43.689   3.400
27504W        W93913  16.027  40.915   1.424
27505W        W93914   8.988  25.560   1.219
27506W        W93915   3.741  26.363  12.102
27507W        W93916  12.698  17.383  10.954
27508W        W93917   5.185  39.297   1.237
27509W        W93918   0.586   3.342   2.275
27510W        W93919  41.506  33.160  12.843
27511W        W93920  13.305  40.339  13.791
27512W        W93921  44.573  32.568   2.688
27513W        W93922  15.441   3.552   3.146
27514W        W93923  12.840  13.515   2.859
27515W        W93924   4.730  16.559   1.186
27516W        W93925  17.596  33.224  14.390
27517W        W93926  19.044  39.274  12.009
27518W        W93927   6.495  25.013  13.430
27519W        W93928  28.274  29.977  11.207
27520W        W93929  24.959  23.034   0.389
27521W        W93930  40.292  21.027  10.099
27522W        W93931  19.013  18.023  14.547
27523W        W93932  19.128  24.423  10.651
27524W        W93933  30.828  38.229  11.998
27525W        W93934  40.796  15.046   3.186
27526W        W93935  42.059   7.625  14.806
27527W        W93936  34.933   1.544  12.248
27528W        W93937  24.594  30.609   4.225
27529W        W93938  14.254  32.041  10.866
27530W        W93939   0.379  29.168  11.289
27531W        W93940  35.758  27.044   1.724
27532W        W93941   1.336  33.376   3.844
27533W        W93942  22.221  10.015  12.478
27534W        W93943  31.011  10.755  12.661
27535W        W93944  35.305  34.934  11.975
27536W        W93945  24.144  31.053  12.521
27537W        W93946  36.001  17.336  14.837
27538W        W93947  29.631   1.772  14.086
27539W        W93948  40.782  40.488  11.614
27540W        W93949  20.473  42.798  12.472
27541W        W93950   1.390  31.359  14.804
27542W        W93951  16.384  42.618   3.596
27543W        W93952  23.523  35.527   3.724
27544W        W93953   2.231  22.463   3.736
27545W        W93954   2.125  29.226   2.688
27546W        W93955  10.145  30.449  14.402
27547W        W93956  22.067  37.409   2.964
27548W        W93957  38.438  42.022  12.468
27549W        W93958  22.399  39.546   0.439
27550W        W93959  41.364  43.186   1.743
27551W        W93960  18.117  36.616   0.505
27552W        W93961  14.091  42.978  11.394
27553W        W93962   5.340  42.889  11.246
27554W        W93963  27.177  43.380  10.669
27555W        W93964  43.218  30.043  14.354
27556W        W93965  14.232  17.341   2.829
27557W        W93966  36.334   2.296   1.837
27558W        W93967  17.264  29.060  14.357
27559W        W93968  36.010  21.161   1.678
27560W        W93969   3.586   8.306   2.186
27561W        W93970  24.543   8.489  10.847
27562W        W93971  23.114  42.244  14.232
27563W        W93972   2.837  44.207  11.602
27564W        W93973  20.226   4.198   1.651
27565W        W93974  30.140  12.060   3.172
27566W        W93975  13.569   9.321  13.352
27567W        W93976  31.263  17.822   4.821
27568W        W93977  15.063  25.409  11.140
27569W        W93978  30.555   2.580   4.945
27570W        W93979  40.101  28.598   4.681
27571W        W93980  26.918  15.794  13.942
27572W        W93981   3.237  17.665   1.705
27573W        W93982   8.379  24.953   0.175
27574W        W93983  11.214  42.367  14.037
27575W        W93984   6.947  17.232  14.336
27576W        W93985  33.143   3.124  14.459
27577W        W93986  29.398  31.411  13.437
27578W        W93987   6.438  27.351  13.352
27579W        W93988  22.965  18.362   2.664
27580W        W93989  13.498  31.879  11.114
27581W        W93990  33.827  35.658   0.845
27582W        W93991  25.031  34.512  13.112
27583W        W93992  32.971   9.904   4.868
27584W        W93993  14.008  42.721  13.860
27585W        W93994   0.397   7.370   0.528
27586W        W93995  16.636   9.150  12.476
27587W        W93996  11.162  22.570  12.014
27588W        W93997  30.586  40.467   5.022
27589W        W93998  16.879  24.650  14.436
27590W        W93999  12.672  28.128   1.720
27591W        W94000   4.479  10.656  12.930
27592W        W94001  20.811   4.750   1.830
27593W        W94002  23.307  21.778   2.715
27594W        W94003  19.127  12.065  11.514
27595W        W94004  20.597   3.382  10.720
27596W        W94005   3.892  33.956   4.096
27597W        W94006  16.653   2.991   1.372
27598W        W94007  36.463   7.779  14.343
27599W        W94008   6.640  23.718   4.148
27600W        W94009  36.386  10.249   4.915
27601W        W94010  16.226  33.612  13.007
27602W        W94011   0.722  41.952   0.012
27603W        W94012  23.059   7.156   4.939
27604W        W94013   3.490   9.574   2.673
27605W        W94014   0.777  26.985  11.573
27606W        W94015  37.517  13.815   2.725
27607W        W94016  18.519  37.509  11.477
27608W        W94017  15.751  19.567  14.331
27609W        W94018  34.388  18.019   1.824
27610W        W94019  28.688   9.816  14.915
27611W        W94020  14.828  35.291   4.204
27612W        W94021  26.027  38.835  14.762
27613W        W94022  34.169  34.406   3.711
27614W        W94023  44.088  25.144  12.382
27615W        W94024  16.317  37.517   2.681
27616W        W94025  29.819  44.855  13.858
27617W        W94026  24.844   6.564   1.200
27618W        W94027  21.536  41.878   4.101
27619W        W94028  41.073  33.030  11.053
27620W        W94029  29.077  15.695   3.620
27621W        W94030  33.933  18.841  13.301
27622W        W94031  20.754   4.111  14.151
27623W        W94032   9.905  25.556   4.239
27624W        W94033  15.505  25.179  12.915
27625W        W94034  24.519  21.123  10.528
27626W        W94035   6.363  32.572   2.711
27627W        W94036  42.493  23.732   0.775
27628W        W94037  18.110   9.183  11.974
27629W        W94038  15.092  36.897   4.048
27630W        W94039  29.333  27.201  10.709
27631W        W94040  38.945  32.062   0.875
27632W        W94041  35.072  36.521   4.128
27633W        W94042  16.212  36.471   2.878
27634W        W94043  36.879  10.237   4.085
27635W        W94044  17.687   5.775  10.648
27636W        W94045  33.505  43.540   2.870
27637W        W94046   0.229  23.025   4.687
27638W        W94047  25.146  25.509  14.886
27639W        W94048  14.559  28.989  12.007
27640W        W94049  32.397   6.148   2.180
27641W        W94050   9.914  20.553   2.384
27642W        W94051   4.700  20.179   0.921
27643W        W94052  13.112  30.565  14.675
27644W        W94053  24.801  31.532   0.502
27645W        W94054  43.584  22.065  13.501
27646W        W94055  27.097  17.786  11.517
27647W        W94056   2.491  10.704  11.586
27648W        W94057   0.257  34.802  11.194
27649W        W94058   4.432  26.244  13.465
27650W        W94059  25.571  28.763   4.431
27651W        W94060  43.878  24.840  10.629
27652W        W94061  41.444  20.170   1.432
27653W        W94062   4.048  40.753  13.845
27654W        W94063  12.753  27.462  13.116
27655W        W94064   8.822  35.111   3.518
27656W        W94065  39.334  22.500  13.055
27657W        W94066  41.043  31.004  13.330
27658W        W94067  36.214  26.743  10.514
27659W        W94068  33.426  39.008   1.472
27660W        W94069  31.321   2.012   1.739
27661W        W94070  15.379  30.036  12.893
27662W        W94071  36.962  14.358  14.340
27663W        W94072  37.033  35.815  10.772
27664W        W94073  42.954  34.887   2.227
27665W        W94074  19.588  36.971  12.021
27666W        W94075  18.504  44.441   2.707
27667W        W94076  39.520  36.343   3.068
27668W        W94077   5.763  25.195  13.928
27669W        W94078  32.935  40.585   3.858
27670W        W94079  22.465  40.480  14.962
27671W        W94080  31.045  39.832   0.379
27672W        W94081  43.667  13.227   2.377
27673W        W94082  23.485  19.555   4.552
27674W        W94083  13.230  24.618  13.929
27675W        W94084  33.282  37.445  14.893
27676W        W94085  17.807  12.307   1.886
27677W        W94086  10.790  34.567  14.356
27678W        W94087  11.425   3.423   1.223
27679W        W94088  41.496  24.088  11.598
27680W        W94089   7.128   2.080   1.301
27681W        W94090  21.137   3.821   4.113
27682W        W94091  18.783  13.174   2.376
27683W        W94092  13.633  34.590   1.768
27684W        W94093  38.746   7.556   4.273
27685W        W94094   3.287  40.298   5.009
27686W        W94095  36.808  30.450  14.138
27687W        W94096   3.772   9.832   0.814
27688W        W94097   5.056  19.351  13.466
27689W        W94098   1.949  12.738   3.116
27690W        W94099  28.659  40.504   3.357
27691W        W94100  22.822  43.451   3.622
27692W        W94101  37.039  20.293  13.529
27693W        W94102   5.373  16.732   2.625
27694W        W94103  24.477  10.899  13.382
27695W        W94104  12.996  33.599  11.060
27696W        W94105  11.087   0.671   2.693
27697W        W94106  38.028   7.287   4.630
27698W        W94107  28.865   6.742   1.374
27699W        W94108   6.126  28.070   2.185
27700W        W94109   7.774   1.238   4.593
27701W        W94110  41.454  23.191   2.194
27702W        W94111  33.271  21.739  12.943
27703W        W94112  21.027  29.238  12.574
27704W        W94113  13.103   8.265   1.424
27705W        W94114  14.714  15.870  13.578
27706W        W94115  27.949   1.413  13.790
27707W        W94116  16.783   8.396   0.840
27708W        W94117   3.493  11.524   2.952
27709W        W94118  34.856   5.700   0.770
27710W        W94119  33.489  42.397   3.450
27711W        W94120  20.257  11.718  12.411
27712W        W94121   4.736   8.972  11.036
27713W        W94122  33.124  38.987   1.899
27714W        W94123   9.730   6.446  13.924
27715W        W94124  20.195  26.185   0.294
27716W        W94125  30.182  41.784   3.455
27717W        W94126  18.188   7.716   3.759
27718W        W94127  11.681   6.875   0.954
27719W        W94128  17.289   2.407   3.639
27720W        W94129  16.748  29.183   0.282
27721W        W94130   3.156  37.313   4.013
27722W        W94131  41.955  21.633  12.684
27723W        W94132  39.146   4.944   0.062
27724W        W94133   6.295  28.831  14.540
27725W        W94134  37.355  20.404   0.393
27726W        W94135  34.108   7.857   1.219
27727W        W94136  44.901  16.808  14.420
27728W        W94137   3.465  34.472   1.961
27729W        W94138  39.168   5.331  12.977
27730W        W94139  36.120  35.040   4.169
27731W        W94140  36.285  11.483  14.792
27732W        W94141  43.840  27.917  14.734
27733W        W94142   4.773  29.716   2.442
27734W        W94143  28.829  14.858  11.094
27735W        W94144  16.478   4.688  13.497
27736W        W94145  29.971  34.167  12.883
27737W        W94146   9.685  43.886  12.509
27738W        W94147  11.952  31.870   5.061
27739W        W94148  39.081  39.789   4.175
27740W        W94149  14.331  13.170  13.542
27741W        W94150   8.327   9.298   3.003
27742W        W94151   4.835  26.973   2.475
27743W        W94152   1.445  26.538   1.760
27744W        W94153   6.371  28.906   0.127
27745W        W94154  22.699  30.644  10.377
27746W        W94155   9.876  16.254   3.648
27747W        W94156   8.811  31.018   0.245
27748W        W94157  35.660  33.534  11.222
27749W        W94158   6.763  21.044   3.793
27750W        W94159   4.663  33.183  13.976
27751W        W94160  37.463  28.500   3.711
27752W        W94161  37.321   2.955   3.239
27753W        W94162  26.511  15.262  11.590
27754W        W94163  19.039  19.085   1.056
27755W        W94164  14.074  29.935  14.460
27756W        W94165  25.635   3.154   3.796
27757W        W94166  40.331  36.128   3.761
27758W        W94167  42.477  11.582  12.866
27759W        W94168  33.277  34.971  14.369
27760W        W94169  37.417  16.654   2.271
27761W        W94170  34.262  15.712   4.491
27762W        W94171  13.699   8.764   3.122
27763W        W94172  36.542  10.744   4.741
27764W        W94173   5.765  16.843  13.091
27765W        W94174  10.371  15.898  13.971
27766W        W94175  19.778  44.417  11.098
27767W        W94176   5.409  14.437   2.382
27768W        W94177  13.615  19.514  14.854
27769W        W94178  17.062  16.248   3.699
27770W        W94179   8.879  14.364  11.962
27771W        W94180  18.802  13.905  11.108
27772W        W94181  23.042   1.457   3.684
27773W        W94182  25.587  44.049  14.038
27774W        W94183  22.542  14.796  13.905
27775W        W94184  44.090  17.037  12.496
27776W        W94185  37.010  44.200  11.591
27777W        W94186   8.896   3.209  12.484
27778W        W94187  30.905  42.849   0.283
27779W        W94188   5.773  28.111  14.823
27780W        W94189  10.327  31.833  11.285
27781W        W94190  36.057  16.457   1.731
27782W        W94191  20.789  19.016   2.934
27783W        W94192  15.702  35.723  12.643
27784W        W94193  23.740  16.583   0.026
27785W        W94194  33.391  21.039  10.657
27786W        W94195  22.640  32.823  11.615
27787W        W94196  10.085   7.467  10.383
27788W        W94197   3.880  24.461  10.653
27789W        W94198  30.578   4.253   1.323
27790W        W94199  43.423  20.353  11.651
27791W        W94200   8.648  39.435  14.958
27792W        W94201   1.041  40.516   2.753
27793W        W94202  22.752  39.954   2.264
27794W        W94203  21.217   7.773  10.574
27795W        W94204  42.749  29.031   4.547
27796W        W94205  24.806  41.325  10.719
27797W        W94206  36.323   2.742  12.993
27798W        W94207  29.008  21.325   0.884
27799W        W94208  11.912  25.046   5.041
27800W        W94209   2.620  28.620  11.515
27801W        W94210  31.409   8.764  11.041
27802W        W94211  36.957  13.230  12.950
27803W        W94212   3.859  24.776   3.026
27804W        W94213  26.807  29.564   1.286
27805W        W94214  30.124  24.862  12.120
27806W        W94215  21.710  21.968  12.047
27807W        W94216   7.705  31.969  10.578
27808W        W94217  28.589  42.709   4.671
27809W        W94218  17.525  34.534   2.310
27810W        W94219  11.448  23.456   2.257
27811W        W94220   2.288   8.683   1.014
27812W        W94221  17.777   0.809   4.861
27813W        W94222  23.238  15.805   4.427
27814W        W94223   8.179  15.482   4.304
27815W        W94224  33.035  38.547  12.835
27816W        W94225   8.277  35.347  12.426
27817W        W94226  15.598  33.632   1.893
27818W        W94227  27.513  26.485  11.414
27819W        W94228  42.158  30.545  12.047
27820W        W94229  32.934  23.057   3.833
27821W        W94230   9.730   8.845   3.112
27822W        W94231  11.945  22.088   2.051
27823W        W94232   4.261  11.680   0.817
27824W        W94233   0.999  41.412   4.552
27825W        W94234   3.417   4.081  12.564
27826W        W94235  11.895  44.280   5.553
27827W        W94236  23.580  18.299   0.485
27828W        W94237  37.378   6.162  11.619
27829W        W94238  17.132  33.201  12.049
27830W        W94239  20.249  41.782   4.855
27831W        W94240  20.579  30.398   0.349
27832W        W94241  18.908  29.835   2.074
27833W        W94242  32.483   0.105  14.449
27834W        W94243   7.208  38.748  13.784
27835W        W94244  32.840   4.964   5.400
27836W        W94245  22.243   6.642  12.112
27837W        W94246  16.237  40.952   0.920
27838W        W94247  16.031  15.686  13.100
27839W        W94248  30.099  21.192   1.512
27840W        W94249  30.345  10.291   4.646
27841W        W94250   7.235  32.079  10.794
27842W        W94251  30.301   9.164   5.501
27843W        W94252  20.809  35.556  13.883
27844W        W94253  22.489  15.950  12.359
27845W        W94254   0.780  10.569   0.769
27846W        W94255  14.140  12.302  13.467
27847W        W94256  11.052  27.980   2.330
27848W        W94257   0.471   7.350   1.945
27849W        W94258  24.735   7.110  11.835
27850W        W94259  29.594  28.185   4.581
27851W        W94260  15.221  19.507  11.024
27852W        W94261   0.961  36.469  14.995
27853W        W94262   8.396  39.017   1.963
27854W        W94263  44.420  37.126  11.555
27855W        W94264  30.986  31.118  13.313
27856W        W94265  19.079  21.121   2.984
27857W        W94266  29.166  35.708  11.232
27858W        W94267   3.941  35.538   3.279
27859W        W94268  26.609   8.415  14.379
27860W        W94269  20.862  21.112  14.049
27861W        W94270  22.089  37.777  13.000
27862W        W94271   3.187  25.539  14.862
27863W        W94272  43.015  32.140   3.363
27864W        W94273   8.363  24.745   1.893
27865W        W94274  43.746  40.949  14.048
27866W        W94275  19.093  43.453  12.160
27867W        W94276  17.758   6.899   1.153
27868W        W94277  15.152  27.931   2.404
27869W        W94278  37.696  23.010  12.481
27870W        W94279  20.763  28.685   3.261
27871W        W94280  35.199  31.510  12.223
27872W        W94281  43.916  33.502   1.735
27873W        W94282  13.110   0.047  13.404
27874W        W94283   1.891  31.416  10.716
27875W        W94284  13.002  20.369  13.291
27876W        W94285  42.307   8.395   3.072
27877W        W94286  10.360  16.428   3.583
27878W        W94287  39.355  22.961   1.513
27879W        W94288   9.901  39.814   3.980
27880W        W94289   0.417  40.415   3.814
27881W        W94290  20.670  42.240   1.449
27882W        W94291  21.067  27.384   4.670
27883W        W94292  26.718  13.826  11.016
27884W        W94293   2.517  27.449   3.669
27885W        W94294  33.818   9.405  13.439
27886W        W94295  19.402  40.070   1.764
27887W        W94296  12.356  12.346   1.652
27888W        W94297  28.193   4.166  12.054
27889W        W94298  13.942  41.773   2.824
27890W        W94299   5.447  40.821   0.386
27891W        W94300  10.341  31.414   0.552
27892W        W94301  13.366   9.882   0.805
27893W        W94302  43.360   6.961  11.606
27894W        W94303  34.110   9.839   0.488
27895W        W94304  27.501  39.592  11.394
27896W        W94305  15.796  20.528  12.965
27897W        W94306  31.574  16.283   0.858
27898W        W94307  39.032  14.626   0.909
27899W        W94308  34.920   4.029   0.238
27900W        W94309   4.513  42.275   0.916
27901W        W94310  11.799  22.148   2.557
27902W        W94311  18.172   2.818  12.453
27903W        W94312  14.895  35.442   2.922
27904W        W94313  32.852  13.822   1.287
27905W        W94314   4.111   6.307   4.562
27906W        W94315  25.230  27.895  11.969
27907W        W94316   4.776  34.905   1.806
27908W        W94317  18.612  35.510  13.938
27909W        W94318  43.940  30.365  13.884
27910W        W94319  11.734  33.061   1.188
27911W        W94320   8.829  23.236  13.948
27912W        W94321   4.851  17.532  11.042
27913W        W94322  38.012  34.878  12.347
27914W        W94323  25.528  31.400   2.919
27915W        W94324  27.920  24.934  12.519
27916W        W94325  14.676  33.955  11.670
27917W        W94326  30.559  21.662  13.348
27918W        W94327   3.300  31.061   0.744
27919W        W94328  26.995  24.970  12.578
27920W        W94329  26.811  16.037  11.175
27921W        W94330  30.173  24.364  12.008
27922W        W94331  24.208   7.165   1.229
27923W        W94332  28.295  22.774  13.017
27924W        W94333  36.050  21.317   2.740
27925W        W94334   7.995  38.460  14.056
27926W        W94335   8.273  36.649  13.829
27927W        W94336  31.676  22.952   2.267
27928W        W94337   6.600  29.849  12.016
27929W        W94338  18.600  22.262  13.073
27930W        W94339  40.916   3.788  12.538
27931W        W94340   1.519  31.175  12.316
27932W        W94341  16.140  41.868  10.499
27933W        W94342  23.405  23.285   1.780
27934W        W94343  26.744   8.271   0.838
27935W        W94344  35.557  14.378  11.162
27936W        W94345  21.132  36.419   2.121
27937W        W94346   8.815  10.403   4.512
27938W        W94347   1.322  10.198  14.371
27939W        W94348   4.868  33.669  11.839
27940W        W94349   4.362  17.373  14.839
27941W        W94350  10.300  19.915   1.834
27942W        W94351  37.738  33.549   2.862
27943W        W94352  33.597  20.028  11.628
27944W        W94353  39.699  13.252   1.280
27945W        W94354  17.044  11.219   3.343
27946W        W94355  10.757  23.172   3.178
27947W        W94356  28.689  32.187  14.759
27948W        W94357  19.027  29.702  14.564
27949W        W94358  39.793  23.126  12.507
27950W        W94359  16.330  11.231   1.037
27951W        W94360  17.907   0.760   1.716
27952W        W94361  21.477  25.644   3.155
27953W        W94362  37.115  12.590   3.362
27954W        W94363  41.311   9.084  12.963
27955W        W94364  18.157   1.156  14.941
27956W        W94365  29.406  33.401  12.530
27957W        W94366  16.218  25.616   0.847
27958W        W94367  16.642  39.461   2.208
27959W        W94368  40.320  19.236  13.279
27960W        W94369  19.600  12.759   1.837
27961W        W94370  35.020  13.304   2.478
27962W        W94371  43.844  26.980   4.306
27963W        W94372  35.180  35.095  14.710
27964W        W94373  21.211  24.849  13.925
27965W        W94374  20.224  13.359   4.248
27966W        W94375  39.962   2.472   0.648
27967W        W94376  40.022  35.493   3.368
27968W        W94377  24.679  44.908   3.424
27969W        W94378   8.275  17.835   2.114
27970W        W94379  29.968   7.031  14.049
27971W        W94380   1.367  29.659  14.558
27972W        W94381   9.365  39.032  14.868
27973W        W94382  36.942   5.187   0.921
27974W        W94383   1.823  20.155   4.640
27975W        W94384  33.895  37.666  13.728
27976W        W94385  23.655  18.750  11.956
27977W        W94386  20.431  42.558   0.706
27978W        W94387  11.171  26.699  12.564
27979W        W94388   6.258  15.855  11.579
27980W        W94389  16.845  13.251   3.984
27981W        W94390  32.149   2.350  12.516
27982W        W94391  15.237  29.155  10.630
27983W        W94392  38.420  21.112  13.798
27984W        W94393   5.000  41.029   4.053
27985W        W94394  15.628   6.020  13.323
27986W        W94395  14.655  22.834  12.866
27987W        W94396  44.900  40.503   1.307
27988W        W94397  19.270  21.555  13.935
27989W        W94398  28.529  35.144  11.216
27990W        W94399  37.122  19.974   2.336
27991W        W94400  30.858  27.685  13.065
27992W        W94401  38.542  23.041  10.725
27993W        W94402   6.182  42.871  12.824
27994W        W94403  11.346  29.863  14.813
27995W        W94404  13.108   3.411   4.509
27996W        W94405  39.585   8.790  11.862
27997W        W94406  28.512  22.747  13.511
27998W        W94407  26.893  43.524  14.925
27999W        W94408  21.302  10.306  14.300
28000W        W94409  24.249  19.583  14.580
28001W        W94410   4.405   5.374  11.523
28002W        W94411  34.110  12.636   5.009
28003W        W94412  25.115  17.654  13.344
28004W        W94413  41.052  11.591  12.869
28005W        W94414  17.946  40.083   0.889
28006W        W94415   6.785  16.205   0.034
28007W        W94416  16.402  35.059   1.684
28008W        W94417  43.900  41.046   3.649
28009W        W94418  25.658  19.958   0.952
28010W        W94419  10.430  19.726   0.319
28011W        W94420  30.227  35.240   3.192
28012W        W94421  38.807   2.482  14.441
28013W        W94422   9.879  10.840   3.256
28014W        W94423  20.152   3.130   5.392
28015W        W94424   3.429  29.626  12.174
28016W        W94425  25.962  19.090  11.714
28017W        W94426  35.943  14.880  12.149
28018W        W94427  37.462   1.683   3.626
28019W        W94428  21.599  13.201  12.037
28020W        W94429  30.691  26.886  11.076
28021W        W94430   5.310  16.311   1.497
28022W        W94431   2.391   5.357  10.819
28023W        W94432   5.901  37.862   4.125
28024W        W94433  19.883   7.648  12.045
28025W        W94434   0.375  36.765   2.774
28026W        W94435  34.374   6.667  13.620
28027W        W94436   8.407  18.769  11.552
28028W        W94437  13.950  35.597  13.607
28029W        W94438   0.048  10.551  13.761
28030W        W94439  25.438  20.925   0.706
28031W        W94440  24.095   2.312   3.715
28032W        W94441  10.145  10.795  12.085
28033W        W94442  24.770   6.867  13.015
28034W        W94443   7.865  41.576  13.446
28035W        W94444   3.924  39.489   3.946
28036W        W94445  43.862  15.104   0.357
28037W        W94446  41.118  37.564  11.484
28038W        W94447  19.101   3.705  14.480
28039W        W94448  42.636  22.025   1.432
28040W        W94449  23.583  34.519   1.457
28041W        W94450  28.799  16.913   0.061
28042W        W94451  38.039  31.872  14.355
28043W        W94452  42.654  42.046   1.270
28044W        W94453  22.360  16.127  13.032
28045W        W94454   7.081  44.465  12.130
28046W        W94455  15.313  40.009  11.067
28047W        W94456  19.793  20.130   2.005
28048W        W94457  16.321   6.936   0.532
28049W        W94458  15.453  29.958  14.368
28050W        W94459  27.170  27.454  11.590
28051W        W94460   2.268  40.585  12.891
28052W        W94461   2.234   9.690   0.227
28053W        W94462  13.394   6.032   2.595
28054W        W94463   7.244  29.116  14.933
28055W        W94464  26.933  29.084   1.036
28056W        W94465  34.090  15.215  10.940
28057W        W94466  18.562   8.548  14.870
28058W        W94467  43.007  43.877   0.193
28059W        W94468  25.972  24.730  10.223
28060W        W94469  24.046   0.354   0.782
28061W        W94470   4.260   7.715  13.523
28062W        W94471  11.546  16.192  11.532
28063W        W94472  24.062   3.665  11.111
28064W        W94473   3.894  26.566   3.666
28065W        W94474  29.230  41.334   4.978
28066W        W94475  20.684  38.008   0.352
28067W        W94476   9.744   9.141  14.452
28068W        W94477  31.973  12.299   2.170
28069W        W94478   1.496  23.555   3.167
28070W        W94479  16.467  42.969   1.154
28071W        W94480  30.613  29.516   0.945
28072W        W94481  33.894   3.796  14.585
28073W        W94482  15.024  17.762   1.661
28074W        W94483  43.753  20.248   1.940
28075W        W94484  36.985  42.757   2.112
28076W        W94485  44.012   9.993   0.791
28077W        W94486  39.034  43.753  12.929
28078W        W94487  35.135  38.402   4.245
28079W        W94488   1.366  37.470  12.579
28080W        W94489  41.826  15.655   3.342
28081W        W94490  41.516  17.743  10.700
28082W        W94491  10.135  20.216   1.453
28083W        W94492  18.178  39.433  12.576
28084W        W94493   4.237  18.846   2.224
28085W        W94494   9.153  11.169  11.114
28086W        W94495  41.347   5.315   1.413
28087W        W94496  38.332  17.500  11.727
28088W        W94497  12.201  10.354   1.215
28089W        W94498  26.927  31.898   3.398
28090W        W94499  21.746  43.757   4.091
28091W        W94500   2.409  32.591  11.931
28092W        W94501   6.182   4.486  11.639
28093W        W94502  28.591   0.477   1.390
28094W        W94503  35.044  21.137  11.647
28095W        W94504  25.037  12.844  11.636
28096W        W94505  32.003   4.475  10.770
28097W        W94506  16.388  20.429   4.886
28098W        W94507  43.342  11.634   3.695
28099W        W94508  10.403   1.506  11.720
28100W        W94509  14.166  15.190   5.059
28101W        W94510  13.250  24.442   3.712
28102W        W94511  36.820  20.850  11.611
28103W        W94512  33.578   4.066   3.676
28104W        W94513  35.556  10.231   0.047
28105W        W94514  11.373  22.583   4.126
28106W        W94515  12.519  21.042   2.345
28107W        W94516  35.482  22.815  14.871
28108W        W94517  33.008  17.860  11.995
28109W        W94518  30.380   9.273  12.036
28110W        W94519  16.985  43.063  10.575
28111W        W94520   2.485  24.544  11.542
28112W        W94521  22.291  27.812  10.244
28113W        W94522  35.610   9.905  11.532
28114W        W94523  29.669  32.621   5.012
28115W        W94524   6.326   6.126  13.438
28116W        W94525  26.370  28.544   3.066
28117W        W94526   7.702  33.836   2.639
28118W        W94527  44.936  39.722  10.681
28119W        W94528   1.323   7.150   3.796
28120W        W94529  12.204  17.510  12.207
28121W        W94530  34.652  12.443   2.083
28122W        W94531  34.436  26.361   2.282
28123W        W94532  27.179  16.349   0.248
28124W        W94533  16.745   1.035   0.375
28125W        W94534  16.539  42.939  13.510
28126W        W94535  41.014  27.503  10.555
28127W        W94536  29.453  35.403  13.063
28128W        W94537  20.254   3.715   3.632
28129W        W94538  21.701  11.922   3.681
28130W        W94539  15.144  33.035  12.644
28131W        W94540  32.684  32.913  12.877
28132W        W94541  37.580  19.738  12.522
28133W        W94542  23.251  19.173  14.993
28134W        W94543  26.533  15.612   5.044
28135W        W94544  37.464  42.613  11.085
28136W        W94545  26.780   9.299   1.772
28137W        W94546  31.919  27.963   1.417
28138W        W94547   3.823  25.055   0.257
28139W        W94548  44.264  16.238   4.102
28140W        W94549  26.628  28.030   4.165
28141W        W94550  21.773  14.326   5.010
28142W        W94551  44.438  41.355   0.988
28143W        W94552  32.348   7.673   1.838
28144W        W94553  41.962  38.799  13.565
28145W        W94554  26.749   6.857   4.552
28146W        W94555  26.194   2.854   3.437
28147W        W94556  40.156  37.358  13.456
28148W        W94557  10.437  30.375   2.290
28149W        W94558  27.487  17.160   3.219
28150W        W94559  19.245  14.197  11.150
28151W        W94560  20.072  24.121  10.991
28152W        W94561  44.200   0.655   3.037
28153W        W94562  39.368  38.981  11.722
28154W        W94563  22.261  21.582  10.268
28155W        W94564  11.311  22.437  12.512
28156W        W94565  26.202  11.127   1.830
28157W        W94566  10.050  15.267   1.319
28158W        W94567   0.514  13.634   4.270
28159W        W94568  34.015   9.439   0.156
28160W        W94569  43.971  31.658  10.326
28161W        W94570   6.509   6.217   1.322
28162W        W94571   7.913   4.336  12.891
28163W        W94572  35.877  34.498  12.747
28164W        W94573  20.650   8.824   4.081
28165W        W94574  11.506  39.868   0.472
28166W        W94575  23.264  31.712  14.050
28167W        W94576  12.438  21.144  13.647
28168W        W94577  34.994  44.690  10.573
28169W        W94578  16.919  42.396   1.474
28170W        W94579  25.290   8.322  11.974
28171W        W94580  21.582  14.298   4.450
28172W        W94581  30.646  21.223  11.582
28173W        W94582  30.088  24.474  11.166
28174W        W94583  29.190  39.236   4.268
28175W        W94584  43.305   2.922   4.430
28176W        W94585   8.741  31.665   2.869
28177W        W94586  32.245  22.399  13.398
28178W        W94587   1.175  18.148  12.415
28179W        W94588  34.401   6.948  14.910
28180W        W94589  29.076  15.456  10.410
28181W        W94590  11.333  12.566   3.214
28182W        W94591   3.804  38.344  14.956
28183W        W94592  40.293  23.238   0.766
28184W        W94593  30.444   6.080   4.468
28185W        W94594  10.314  12.594   4.158
28186W        W94595  15.723  35.781  14.369
28187W        W94596  30.165  11.150  14.398
28188W        W94597  18.678  22.627   0.269
28189W        W94598  36.554  26.152   3.118
28190W        W94599   4.383   0.724  13.907
28191W        W94600  23.719  24.952   3.672
28192W        W94601  27.731  19.272  13.320
28193W        W94602  44.309  10.685  13.364
28194W        W94603  16.823  13.822   2.751
28195W        W94604  23.230  30.934  11.101
28196W        W94605  36.873   0.476  13.340
28197W        W94606   5.062  16.709   4.535
28198W        W94607  25.417  10.274   4.332
28199W        W94608  12.082  38.826   4.272
28200W        W94609   2.199  10.889   3.276
28201W        W94610  30.318  25.941  13.546
28202W        W94611   7.851   2.958  13.435
28203W        W94612  42.324  19.885   1.759
28204W        W94613  15.615  10.645   1.812
28205W        W94614  11.975  18.310   2.128
28206W        W94615  36.830   0.384   1.334
28207W        W94616  37.590  34.881  10.779
28208W        W94617  13.663  32.747  10.785
28209W        W94618  18.575  40.552  10.070
28210W        W94619  24.054  44.867   1.046
28211W        W94620  38.655  14.609   4.136
28212W        W94621  28.754   3.413  11.987
28213W        W94622  42.080  22.648   1.667
28214W        W94623  39.279  33.639  12.294
28215W        W94624   6.392  42.894  10.180
28216W        W94625  38.456  28.740   3.740
28217W        W94626  13.279  32.463   5.096
28218W        W94627   5.261  27.535  11.810
28219W        W94628  42.312  13.585  10.726
28220W        W94629  11.223  19.876  11.924
28221W        W94630  39.139  44.803  12.101
28222W        W94631  27.097  37.058   2.938
28223W        W94632  20.300   2.694  11.215
28224W        W94633   5.895  26.532  14.908
28225W        W94634  32.716  18.967   3.176
28226W        W94635  30.846   3.460   3.643
28227W        W94636  25.205  41.847   3.289
28228W        W94637  39.773  16.023  11.111
28229W        W94638  14.119   0.682   4.218
28230W        W94639  10.857   3.836  12.060
28231W        W94640  44.027  20.306   4.159
28232W        W94641   3.961  35.418  10.722
28233W        W94642  30.700  13.814   3.914
28234W        W94643   2.388  39.373   0.719
28235W        W94644  19.395   0.825   0.435
28236W        W94645  34.498  40.295  14.302
28237W        W94646  25.178  27.453   3.346
28238W        W94647   3.107  27.886   0.191
28239W        W94648  41.837  26.269   0.354
28240W        W94649  44.474  33.374   3.000
28241W        W94650  41.572  40.464  14.049
28242W        W94651  18.267  30.184  13.474
28243W        W94652  24.599  38.938  10.103
28244W        W94653  39.450   4.010   3.162
28245W        W94654  35.262  31.160  14.308
28246W        W94655  43.927  44.734  13.113
28247W        W94656  34.060  21.659   4.095
28248W        W94657  30.959  21.726  14.291
28249W        W94658   8.865   6.448   0.529
28250W        W94659  38.131  29.117  13.876
28251W        W94660  21.580  44.833   4.051
28252W        W94661   0.692   5.819  14.699
28253W        W94662  28.936  14.874  14.483
28254W        W94663  24.176  18.790   3.815
28255W        W94664   0.300  22.012   2.585
28256W        W94665  15.961  26.587   0.970
28257W        W94666  38.600  33.836  12.940
28258W        W94667   4.531  31.246  14.478
28259W        W94668  36.016  30.506  12.482
28260W        W94669  20.014  37.133   4.968
28261W        W94670  26.012  28.131  11.558
28262W        W94671  30.167  19.611  12.377
28263W        W94672  41.004  36.119  12.561
28264W        W94673  19.757  25.586  14.809
28265W        W94674  18.786  30.636   2.472
28266W        W94675   4.985  43.387   1.378
28267W        W94676  17.720  15.047   3.832
28268W        W94677  18.725  16.396  11.194
28269W        W94678  32.010  30.694  12.141
28270W        W94679  40.326  30.687   4.974
28271W        W94680  23.677  20.988  14.039
28272W        W94681  26.910  38.359   4.633
28273W        W94682  18.604   6.280   4.120
28274W        W94683  34.973  38.983  14.090
28275W        W94684  19.217   9.283   2.213
28276W        W94685  43.622  19.477   3.055
28277W        W94686   2.757  12.220  12.837
28278W        W94687   2.277  40.820   3.146
28279W        W94688   7.437  34.193   3.479
28280W        W94689  41.717  18.183  10.323
28281W        W94690  41.824  12.332   1.748
28282W        W94691  32.562  22.980   1.734
28283W        W94692  22.107  22.994   4.820
28284W        W94693  22.178   7.693  10.930
28285W        W94694  37.294  16.579  12.014
28286W        W94695   8.082   6.765  11.892
28287W        W94696  36.972  15.804  10.922
28288W        W94697  24.707   5.374  13.471
28289W        W94698  16.142  36.925   0.838
28290W        W94699  18.780  14.847   0.461
28291W        W94700  19.173  23.235   2.390
28292W        W94701  29.139  19.124  11.841
28293W        W94702  37.574   7.318  14.917
28294W        W94703  14.836  35.956  13.921
28295W        W94704  38.310  44.288  14.919
28296W        W94705  22.479  19.636   4.080
28297W        W94706  10.825  21.615  10.715
28298W        W94707  14.010  15.520  12.935
28299W        W94708  39.409  21.643  12.375
28300W        W94709  33.340  16.543   0.380
28301W        W94710  24.299   6.432  12.558
28302W        W94711  13.329  38.294  13.686
28303W        W94712  36.931   9.785   0.845
28304W        W94713  13.124  39.285   2.346
28305W        W94714  13.850  23.511  11.812
28306W        W94715   8.976  20.472  11.112
28307W        W94716  23.982  38.993   3.665
28308W        W94717  24.260  19.828   5.298
28309W        W94718  39.848  13.660   4.535
28310W        W94719   0.790   7.937   0.572
28311W        W94720  33.896  21.168  10.614
28312W        W94721  19.516  14.242   3.213
28313W        W94722   7.784  13.344  10.909
28314W        W94723   7.823  44.989   0.908
28315W        W94724   9.229  27.629   0.676
28316W        W94725   6.646  36.018   2.666
28317W        W94726   2.833   1.247   0.165
28318W        W94727  12.063  37.303  14.006
28319W        W94728   3.969  32.256  13.286
28320W        W94729   7.290  22.701   4.321
28321W        W94730  39.057  34.177   3.770
28322W        W94731  28.102   3.806   3.892
28323W        W94732   8.743  22.260   4.679
28324W        W94733  29.790  36.953   4.597
28325W        W94734  22.134  30.694   0.775
28326W        W94735   9.276  28.655  11.810
28327W        W94736   1.760  22.574   4.615
28328W        W94737  12.325  43.717  11.641
28329W        W94738  21.746   1.443  12.497
28330W        W94739  27.698  41.837   0.661
28331W        W94740  34.980  15.317   3.813
28332W        W94741  21.810  44.450   1.440
28333W        W94742  39.919   5.682   3.464
28334W        W94743  42.771  38.508   4.252
28335W        W94744  11.281   2.761  12.203
28336W        W94745   3.541  42.492   1.876
28337W        W94746  22.229  22.537  13.445
28338W        W94747  13.582  35.980   2.769
28339W        W94748   4.654   6.859  12.148
28340W        W94749  37.452  24.933  14.386
28341W        W94750  31.493  19.718   3.981
28342W        W94751  29.872  13.372   1.866
28343W        W94752  23.188   0.940   0.327
28344W        W94753  16.808  41.382  14.500
28345W        W94754  10.083   6.483  13.517
28346W        W94755   9.333   0.915   1.644
28347W        W94756  17.015  14.562   1.805
28348W        W94757  38.457  21.716   2.633
28349W        W94758  39.316  13.734   2.777
28350W        W94759   7.844  22.672  12.488
28351W        W94760  34.475  18.027   3.272
28352W        W94761  32.551  25.060   2.922
28353W        W94762  29.783  28.410   3.801
28354W        W94763   4.309  17.635   4.241
28355W        W94764  15.124  14.480   0.796
28356W        W94765  12.115   5.664  14.374
28357W        W94766   7.636  30.863   3.639
28358W        W94767   0.518  26.475  10.456
28359W        W94768  26.128  16.381  10.499
28360W        W94769  29.608  31.817   2.571
28361W        W94770   0.977  24.558  11.597
28362W        W94771  41.842  27.680  12.149
28363W        W94772   2.321   5.717   0.536
28364W        W94773  32.362  10.727  13.300
28365W        W94774  15.285  35.440   0.992
28366W        W94775  23.068  35.656  10.690
28367W        W94776  19.079  42.515  11.682
28368W        W94777  39.866  10.515   1.493
28369W        W94778  43.421   8.854   0.464
28370W        W94779  28.126  16.214   0.743
28371W        W94780  44.843  13.165   4.092
28372W        W94781   3.688   9.364   0.507
28373W        W94782   2.722  28.924  11.002
28374W        W94783   2.495  31.012  11.022
28375W        W94784   8.224   3.874   2.176
28376W        W94785  27.265  12.080  11.251
28377W        W94786  14.668  36.919  14.586
28378W        W94787  33.883   6.866   1.631
28379W        W94788  40.382   3.883   1.616
28380W        W94789  15.096  22.552   2.803
28381W        W94790  41.423  37.585  13.113
28382W        W94791   4.702  23.855  11.533
28383W        W94792  29.836  27.442  11.591
28384W        W94793  16.048  18.607   2.209
28385W        W94794  10.094  44.740  10.788
28386W        W94795  24.436  20.039   2.203
28387W        W94796  12.628  21.128  12.641
28388W        W94797  24.232  33.991  13.896
28389W        W94798  42.065  44.525   3.429
28390W        W94799  31.560   1.249  12.558
28391W        W94800  33.374  25.944  11.387
28392W        W94801   9.810  15.702   1.858
28393W        W94802  33.387   4.464  12.032
28394W        W94803  24.555  36.221   1.220
28395W        W94804  25.485   2.354  14.888
28396W        W94805  16.127  23.718  13.087
28397W        W94806  32.657  25.651   0.056
28398W        W94807   7.879   9.755   4.633
28399W        W94808  37.940  23.052   4.308
28400W        W94809  19.454  29.912  13.371
28401W        W94810  43.187   8.924  12.950
28402W        W94811  25.511   8.658   1.322
28403W        W94812  16.247  32.868   1.145
28404W        W94813  19.923   0.757   0.438
28405W        W94814  43.534   9.894  12.819
28406W        W94815  38.641  26.037   2.652
28407W        W94816  22.796  21.200  13.436
28408W        W94817  18.797   3.138   0.759
28409W        W94818  20.211   2.503   0.228
28410W        W94819  15.339  27.866  12.425
28411W        W94820  30.661   8.570   1.321
28412W        W94821  10.612   1.996   0.465
28413W        W94822  14.153  26.762   1.942
28414W        W94823  23.340   3.948  12.189
28415W        W94824  24.214  32.535   0.180
28416W        W94825  12.793  24.485   4.513
28417W        W94826  24.417  14.112  10.472
28418W        W94827  28.525  17.248   4.702
28419W        W94828  27.951  20.514   3.169
28420W        W94829   0.239  20.463  10.706
28421W        W94830   4.336   9.806  11.589
28422W        W94831   7.239  35.819   1.428
28423W        W94832  39.797  30.007  14.797
28424W        W94833  40.539  37.749  13.384
28425W        W94834  38.293  31.429   0.802
28426W        W94835  12.741   9.325  10.982
28427W        W94836   6.422  17.146  13.375
28428W        W94837  31.105  36.216  13.918
28429W        W94838  17.191  29.395   3.808
28430W        W94839  16.713  34.822   2.603
28431W        W94840  44.111  10.172  13.912
28432W        W94841  16.868  41.146   4.067
28433W        W94842  39.299   3.304   4.965
28434W        W94843  34.609  36.929  13.512
28435W        W94844  28.379   7.369  12.936
28436W        W94845   6.195  15.257   1.293
28437W        W94846  20.649  43.778  12.546
28438W        W94847  10.131  26.725   4.141
28439W        W94848   7.819   3.723   0.502
28440W        W94849  14.198  16.986  12.540
28441W        W94850  10.497  28.254   4.975
28442W        W94851  11.317  24.006  13.223
28443W        W94852  28.586  31.692  14.915
28444W        W94853  31.795  18.769   4.539
28445W        W94854  16.554  40.924  14.563
28446W        W94855  44.055   8.738   3.619
28447W        W94856  20.997  32.962   1.386
28448W        W94857  43.974   4.887  10.831
28449W        W94858   1.328  31.042   0.213
28450W        W94859  14.792  19.670  14.745
28451W        W94860   5.882  21.501   0.889
28452W        W94861  26.102  12.769  10.651
28453W        W94862  33.840  20.370   0.471
28454W        W94863  10.756  42.446   3.645
28455W        W94864  36.995   5.439   1.390
28456W        W94865  35.392   7.869  10.585
28457W        W94866   3.550  24.095   5.390
28458W        W94867  38.383  17.597   3.731
28459W        W94868  29.399  44.337   2.401
28460W        W94869  38.540  11.380   1.944
28461W        W94870  29.273  44.775   0.221
28462W        W94871  42.993  14.913  11.092
28463W        W94872  43.993  32.051  10.652
28464W        W94873  10.601  20.855  11.290
28465W        W94874  31.168  24.589   3.666
28466W        W94875   3.167   2.737  12.762
28467W        W94876  14.823   7.297  10.922
28468W        W94877  31.896  26.473  12.951
28469W        W94878   1.927  26.641   1.593
28470W        W94879  25.449  22.096   2.315
28471W        W94880  29.514   7.861   2.752
28472W        W94881  40.070  42.836  11.897
28473W        W94882  40.364  11.978   3.674
28474W        W94883  24.261  33.002   3.821
28475W        W94884   0.500  28.223   0.258
28476W        W94885  14.756  11.704  11.617
28477W        W94886  11.489  29.391   3.258
28478W        W94887  11.336  36.882   1.153
28479W        W94888  40.998  16.639  12.068
28480W        W94889  36.538   2.744  10.756
28481W        W94890  14.344  25.423  11.672
28482W        W94891  38.758  42.806  13.019
28483W        W94892  20.523  40.995  10.641
28484W        W94893  11.289   0.896  13.970
28485W        W94894  33.536  31.524  11.997
28486W        W94895  24.862   8.830  14.413
28487W        W94896  24.545   6.806  14.971
28488W        W94897  43.544  36.542   3.668
28489W        W94898  18.613   0.618  10.159
28490W        W94899   6.280  36.845   0.234
28491W        W94900  21.236  34.972   3.542
28492W        W94901  23.046  38.175   4.402
28493W        W94902   3.700  32.262  13.724
28494W        W94903  28.551  38.962  12.527
28495W        W94904   7.856  16.728  12.490
28496W        W94905  44.931  35.297   4.224
28497W        W94906   5.685  28.152   1.736
28498W        W94907  40.481   8.032  14.020
28499W        W94908  40.662  40.170   4.516
28500W        W94909  41.527  34.674   2.361
28501W        W94910  24.148  17.555   3.501
28502W        W94911  41.047  44.408   1.269
28503W        W94912  14.142  35.486  14.095
28504W        W94913  29.345  28.947   3.160
28505W        W94914  37.810   0.862   3.369
28506W        W94915  35.441  17.273  14.004
28507W        W94916  21.374  23.812  14.988
28508W        W94917   3.288  16.326  11.962
28509W        W94918  44.216  10.244   2.982
28510W        W94919  19.135  44.972   0.378
28511W        W94920   2.819   8.947  10.458
28512W        W94921   2.634  43.973  11.091
28513W        W94922  10.212  38.090  11.515
28514W        W94923   0.307  43.831  13.478
28515W        W94924   9.684   3.240   4.254
28516W        W94925  41.706  18.466   0.520
28517W        W94926   7.960   0.488   0.866
28518W        W94927  39.858  16.492   4.908
28519W        W94928  13.729   9.384  11.369
28520W        W94929  28.700  33.761  12.701
28521W        W94930  23.049  36.914  13.453
28522W        W94931   4.405  17.375   1.186
28523W        W94932  42.085   2.075  10.406
28524W        W94933  28.728   5.245  12.983
28525W        W94934  34.391  22.512   0.815
28526W        W94935  35.473   0.368   2.418
28527W        W94936  34.104  37.287  13.443
28528W        W94937   4.915  27.019   1.042
28529W        W94938  42.708   6.207   1.024
28530W        W94939  24.049  14.082   4.639
28531W        W94940  12.214  38.875   1.545
28532W        W94941  11.012  36.926  12.117
28533W        W94942  31.390  36.336   4.582
28534W        W94943  28.600  25.201   3.721
28535W        W94944  15.244  39.063  11.038
28536W        W94945  32.153  22.800  12.048
28537W        W94946  37.094  36.633   1.173
28538W        W94947  11.699  38.358  10.644
28539W        W94948  19.294   0.898  11.618
28540W        W94949  19.043  23.621  13.960
28541W        W94950  15.593   7.734  11.235
28542W        W94951  37.932  10.918  12.492
28543W        W94952   3.876  16.491   3.121
28544W        W94953  11.688  25.596   3.905
28545W        W94954  34.588  24.967   3.986
28546W        W94955  31.578  17.352  14.129
28547W        W94956  44.927  35.677   0.830
28548W        W94957  31.968  36.839   4.930
28549W        W94958  28.182   4.743  11.206
28550W        W94959  40.292  30.630  11.958
28551W        W94960  40.046  44.169  10.462
28552W        W94961   7.222  21.557   2.272
28553W        W94962  25.060  20.173   4.824
28554W        W94963  13.909  38.685  10.309
28555W        W94964  42.373  20.379   1.868
28556W        W94965  29.130  45.000   2.287
28557W        W94966  42.792  14.197   0.223
28558W        W94967  32.632  16.692  14.701
28559W        W94968   4.791   1.520  13.082
28560W        W94969   6.201  23.176   1.356
28561W        W94970  23.015   5.203  12.004
28562W        W94971   6.381  31.931  10.761
28563W        W94972  22.719  38.408  10.649
28564W        W94973   9.084  18.056   1.795
28565W        W94974  40.304  14.152   0.998
28566W        W94975  10.139  36.116  12.640
28567W        W94976  21.519  21.970   9.645
28568W        W94977   2.359  17.417  11.642
28569W        W94978  40.337  33.164  12.509
28570W        W94979  10.265  34.033   3.180
28571W        W94980  42.284  16.901  10.288
28572W        W94981  24.472  30.094   0.715
28573W        W94982  12.287  39.965  12.000
28574W        W94983  43.375   6.299   3.702
28575W        W94984   9.273   1.332   0.272
28576W        W94985  29.086  27.269  13.059
28577W        W94986  27.632  23.299  12.043
28578W        W94987  32.164  35.591  13.399
28579W        W94988  10.843  38.093   2.708
28580W        W94989  13.412  35.140  12.470
28581W        W94990   9.389  18.021  13.440
28582W        W94991  43.905  10.822  11.983
28583W        W94992  42.193   7.184  12.956
28584W        W94993   2.254  12.114  11.640
28585W        W94994  22.024  18.605   0.217
28586W        W94995   3.001   9.811   2.250
28587W        W94996  41.869   5.214   0.675
28588W        W94997  39.567  38.203  13.908
28589W        W94998   4.926  10.904  10.310
28590W        W94999  39.064  24.955   4.120
28591W        W95000  24.082  36.099   0.967
28592W        W95001  27.971  14.515  13.057
28593W        W95002  36.921  10.399  14.756
28594W        W95003  33.103  13.123   4.374
28595W        W95004  25.067  17.236  14.523
28596W        W95005  12.787  33.010   4.069
28597W        W95006   3.428  31.578  12.091
28598W        W95007  28.990  37.553  10.456
28599W        W95008  43.829  41.221  14.685
28600W        W95009  17.994  35.774  10.607
28601W        W95010  25.037  31.498  11.992
28602W        W95011  22.295  29.772  12.681
28603W        W95012  16.863  42.588   3.801
28604W        W95013   1.757  15.725  13.035
28605W        W95014  28.754  24.237  13.393
28606W        W95015  11.868   4.005   3.125
28607W        W95016  18.334  23.462   3.158
28608W        W95017  34.441  28.883  14.875
28609W        W95018  19.286   6.878   2.550
28610W        W95019  18.822  41.950   3.308
28611W        W95020   2.897  29.214   0.768
28612W        W95021   7.831  12.334  11.122
28613W        W95022   5.757  25.691  12.445
28614W        W95023  10.783  10.726  13.407
28615W        W95024  14.648   4.201  10.274
28616W        W95025   3.887  28.625  11.553
28617W        W95026   1.993  42.454   0.196
28618W        W95027  37.836  25.506   4.801
28619W        W95028  14.057  18.679  12.435
28620W        W95029  26.694  15.411   0.544
28621W        W95030   3.318  30.000  10.916
28622W        W95031   6.205   8.342  14.584
28623W        W95032  26.529   2.436  12.051
28624W        W95033  40.818  13.763  13.115
28625W        W95034  41.766  22.821   2.443
28626W        W95035  32.484  19.805   4.084
28627W        W95036  28.525  18.032  12.886
28628W        W95037  21.964   0.275   1.399
28629W        W95038   4.212   8.673  13.121
28630W        W95039  38.790   9.981  10.596
28631W        W95040  33.148  44.263   2.923
28632W        W95041  43.202   6.137  11.102
28633W        W95042  21.168  41.207   5.037
28634W        W95043  29.638  23.497   0.922
28635W        W95044  41.074  35.999  11.199
28636W        W95045  40.815  36.955   3.358
28637W        W95046   2.476  21.685  12.024
28638W        W95047  32.520   5.026  11.979
28639W        W95048  21.652  22.215   2.406
28640W        W95049  16.221  22.172  11.343
28641W        W95050  23.239  13.706   1.389
28642W        W95051  43.882  34.850  11.503
28643W        W95052  10.405  29.691  12.975
28644W        W95053   2.869  22.100  11.227
28645W        W95054  19.839   3.433  13.341
28646W        W95055  21.929  41.385  13.499
28647W        W95056  12.891  26.662  13.647
28648W        W95057  25.476  16.492   2.910
28649W        W95058  24.284  38.293  13.448
28650W        W95059  40.003   0.354   0.997
28651W        W95060  16.075  27.141  11.620
28652W        W95061  10.619  35.988  12.275
28653W        W95062   6.356  15.828  12.439
28654W        W95063  30.272  36.040  12.809
28655W        W95064  32.616  36.382  12.633
28656W        W95065  14.679  31.872  13.016
28657W        W95066  14.100  43.689  14.026
28658W        W95067  12.695  37.531   2.686
28659W        W95068  13.242   7.761   3.192
28660W        W95069  28.459  21.439   2.227
28661W        W95070  22.262  17.655   1.093
28662W        W95071  24.588  33.900  10.572
28663W        W95072  20.152  39.404  12.393
28664W        W95073  22.858  44.502  14.085
28665W        W95074  14.640  17.761  10.508
28666W        W95075  17.708  35.825  11.235
28667W        W95076  15.031  20.508  13.960
28668W        W95077  21.375  22.089   3.342
28669W        W95078   4.427  44.842  14.922
28670W        W95079   6.426   1.014  13.995
28671W        W95080  16.575  37.244   3.053
28672W        W95081  36.839  25.758   2.224
28673W        W95082  43.230  27.167   2.281
28674W        W95083   4.851  39.803   4.843
28675W        W95084  29.097  42.599  11.168
28676W        W95085   6.622  16.737  14.415
28677W        W95086  30.020  27.658  11.162
28678W        W95087  11.451  17.961   1.249
28679W        W95088  28.892  40.454   1.752
28680W        W95089  39.869  12.745  13.335
28681W        W95090   5.223  26.951  13.737
28682W        W95091   9.651  33.572   2.541
28683W        W95092  43.020   4.246  11.938
28684W        W95093  21.442  41.415  13.360
28685W        W95094  16.399  16.312   0.738
28686W        W95095  37.580  21.132  13.104
28687W        W95096   5.676  14.901  11.135
28688W        W95097  27.070  35.905   3.921
28689W        W95098  16.595  16.973  13.345
28690W        W95099  35.339  30.894  12.047
28691W        W95100  29.096  36.104   3.625
28692W        W95101  42.865  39.529  10.747
28693W        W95102  16.333  30.012  10.617
28694W        W95103  33.340  41.610  14.398
28695W        W95104   3.247   4.939   1.169
28696W        W95105  28.062  39.199   4.831
28697W        W95106   7.966  34.108   1.218
28698W        W95107  30.888  37.188  13.766
28699W        W95108  31.964  32.996  11.579
28700W        W95109   3.908   5.765   1.361
28701W        W95110  31.488  25.737   3.706
28702W        W95111  35.148  43.952  12.169
28703W        W95112  24.672  41.517   4.263
28704W        W95113  31.925  31.147   4.153
28705W        W95114  25.081  20.256  13.831
28706W        W95115  42.984  23.272  12.584
28707W        W95116  18.144  39.780  10.989
28708W        W95117   8.372  33.242  12.771
28709W        W95118   8.922  12.645  10.349
28710W        W95119  32.566  16.173   1.448
28711W        W95120   1.877  29.072   3.117
28712W        W95121  43.963  20.260   0.037
28713W        W95122   2.271   3.775  11.197
28714W        W95123  19.118  42.075   2.367
28715W        W95124  40.994   4.483   1.573
28716W        W95125   7.373  21.176  12.885
28717W        W95126  33.506   8.236  12.086
28718W        W95127  22.053  18.551   4.615
28719W        W95128  42.552  23.101  11.790
28720W        W95129   8.492  39.437  10.673
28721W        W95130  32.274  31.435   2.245
28722W        W95131  27.486  38.608   1.412
28723W        W95132  34.865  34.465   3.172
28724W        W95133  15.263   3.308  11.744
28725W        W95134  37.189  41.393   1.276
28726W        W95135  29.209  36.629   0.726
28727W        W95136   3.238  16.906  11.505
28728W        W95137   7.624  40.587   4.049
28729W        W95138  24.389  41.298  14.820
28730W        W95139  39.508  25.653   4.975
28731W        W95140  22.840  22.067  12.177
28732W        W95141  18.975  39.788   1.942
28733W        W95142  11.919  12.381   2.636
28734W        W95143  25.470  37.004   2.711
28735W        W95144   7.101  36.399  14.838
28736W        W95145  20.028  20.131  13.328
28737W        W95146  10.801  13.775   4.789
28738W        W95147  23.720   1.407   4.791
28739W        W95148   8.606  25.937   1.965
28740W        W95149   0.972  19.364   4.499
28741W        W95150  12.866  14.431   0.688
28742W        W95151   3.762   7.977   0.127
28743W        W95152  30.803  31.632   0.435
28744W        W95153  33.641  24.167  13.331
28745W        W95154   0.854  41.318  10.705
28746W        W95155   6.398   8.325   4.890
28747W        W95156  17.157  43.177   4.721
28748W        W95157  43.120  27.249  11.157
28749W        W95158  27.620  16.517   0.014
28750W        W95159  32.552  20.789  14.703
28751W        W95160  15.684  17.095  10.548
28752W        W95161   2.461  21.007  10.793
28753W        W95162  30.455  28.014   0.277
28754W        W95163  44.320  22.556  10.087
28755W        W95164  18.710  24.973   0.345
28756W        W95165  25.920  39.997   2.585
28757W        W95166  22.670  25.345  11.526
28758W        W95167  12.863  14.978   2.970
28759W        W95168  26.633  40.604   0.980
28760W        W95169  44.509   8.607   3.887
28761W        W95170  19.826  12.445   3.606
28762W        W95171  15.150  39.200  12.104
28763W        W95172  10.279  17.626  10.640
28764W        W95173  42.300  38.525  11.237
28765W        W95174   5.196  37.476  10.140
28766W        W95175  14.210  38.800   0.297
28767W        W95176  14.716  36.796  11.845
28768W        W95177   4.879   2.314  11.577
28769W        W95178  10.905  22.713  13.253
28770W        W95179  30.088  41.785  12.396
28771W        W95180  36.607  14.932   0.949
28772W        W95181  40.768   7.176  13.919
28773W        W95182   7.385  10.878  11.665
28774W        W95183  15.124   5.398  14.007
28775W        W95184  27.654  24.730   2.847
28776W        W95185  27.359  32.357  11.277
28777W        W95186   3.415  29.910   0.004
28778W        W95187  30.562  12.598   0.407
28779W        W95188  21.044  19.615   3.676
28780W        W95189  32.666   2.291  12.460
28781W        W95190  44.439  44.845   4.156
28782W        W95191   8.289  18.594   1.244
28783W        W95192   5.287  24.065   2.283
28784W        W95193  12.722  18.233  10.908
28785W        W95194  43.985  34.916  10.591
28786W        W95195  36.090  20.017   1.375
28787W        W95196  28.669   1.732  10.515
28788W        W95197  22.639  30.493   1.896
28789W        W95198  28.177  44.857  12.521
28790W        W95199  34.789  39.239  11.155
28791W        W95200  28.977  28.395   0.817
28792W        W95201  38.110  24.520   4.593
28793W        W95202  35.799  36.030  12.948
28794W        W95203   9.595  13.795   2.679
28795W        W95204  32.499  20.295  14.482
28796W        W95205  33.577   8.634   1.283
28797W        W95206   2.931  34.950  12.587
28798W        W95207  38.809   2.402   1.813
28799W        W95208  17.810   2.306   1.371
28800W        W95209  23.528   4.489   4.250
28801W        W95210   7.852   8.340  13.960
28802W        W95211  28.936  20.672   3.144
28803W        W95212  30.092   9.135  11.219
28804W        W95213  36.324  41.962   0.538
28805W        W95214  11.742  16.076   2.312
28806W        W95215  18.866  40.767   4.966
28807W        W95216  35.272  43.825   4.549
28808W        W95217  23.277  37.129  13.887
28809W        W95218  14.159   5.932   1.821
28810W        W95219  12.737  27.686   2.623
28811W        W95220  38.637   2.055  13.513
28812W        W95221  10.090   8.819   0.868
28813W        W95222   9.578  26.432   2.294
28814W        W95223  13.060  40.196  12.406
28815W        W95224  14.660  23.751  12.034
28816W        W95225  35.632  16.057   4.464
28817W        W95226  23.522  19.706  13.011
28818W        W95227  10.650  28.976  13.949
28819W        W95228  38.530   1.791  12.598
28820W        W95229   0.000   9.713  12.175
28821W        W95230  36.410  16.645  14.618
28822W        W95231  30.999  36.510   2.003
28823W        W95232  29.711  20.353   1.351
28824W        W95233  35.075  38.838  12.612
28825W        W95234  26.390  32.595  11.540
28826W        W95235  34.446  12.798   4.641
28827W        W95236  40.464   4.461  13.969
28828W        W95237  40.847  39.942   2.718
28829W        W95238  34.810  29.464  11.209
28830W        W95239  36.709  29.478   4.942
28831W        W95240   4.894   7.531   2.487
28832W        W95241  11.297   6.457  10.705
28833W        W95242  23.609  27.107  11.976
28834W        W95243  31.379  43.078  10.808
28835W        W95244  30.639  21.780  12.411
28836W        W95245   7.989  26.717  11.189
28837W        W95246   1.243  15.732   2.858
28838W        W95247   7.671   5.197  11.117
28839W        W95248  24.031   2.436  11.746
28840W        W95249  33.399  32.945   1.870
28841W        W95250   4.191   4.413   4.034
28842W        W95251  29.647   1.650   1.808
28843W        W95252  42.401  30.858   3.370
28844W        W95253  27.890  43.417  11.483
28845W        W95254  43.184   0.235  13.464
28846W        W95255  33.487  30.294   1.724
28847W        W95256  36.437  13.170  14.477
28848W        W95257  36.389  22.050  13.496
28849W        W95258   5.182  39.851  12.692
28850W        W95259  29.784  27.458  14.057
28851W        W95260  27.115  35.719   3.199
28852W        W95261  29.656  14.273  14.293
28853W        W95262  25.474   5.271  12.473
28854W        W95263  27.021  34.467   4.173
28855W        W95264  44.938  19.278  14.316
28856W        W95265  29.053  35.591   3.614
28857W        W95266  21.178  23.058   4.655
28858W        W95267  31.951  39.486   2.659
28859W        W95268  38.812  41.011  14.973
28860W        W95269  13.213  17.775   2.738
28861W        W95270  16.319  41.424  14.679
28862W        W95271  20.188  41.633  12.970
28863W        W95272  25.021   2.320   2.380
28864W        W95273  15.689  19.741  11.189
28865W        W95274   9.706  44.225  10.200
28866W        W95275  38.988  27.728  14.041
28867W        W95276  17.082  22.824   4.908
28868W        W95277  31.102  43.734  12.022
28869W        W95278  10.451  19.734  12.858
28870W        W95279   1.997   3.003   4.618
28871W        W95280  11.714  23.005   3.418
28872W        W95281  30.922  13.243  11.258
28873W        W95282  16.949   4.544   3.408
28874W        W95283   4.736   1.455   4.206
28875W        W95284  14.626  34.819   4.067
28876W        W95285  44.988   3.897   1.852
28877W        W95286  31.590  23.602  14.290
28878W        W95287  37.492  14.959   2.760
28879W        W95288  13.895  44.778   3.310
28880W        W95289  19.846  34.494  11.263
28881W        W95290  29.914  27.484   4.143
28882W        W95291  33.662  22.794   0.300
28883W        W95292  22.310   2.762  11.218
28884W        W95293   9.826  12.326   3.103
28885W        W95294  10.275  36.872  11.660
28886W        W95295  27.932  15.693   1.321
28887W        W95296  13.042  23.034  11.709
28888W        W95297  10.799  27.902  14.934
28889W        W95298  30.064  13.764   0.904
28890W        W95299  32.380  19.053  11.722
28891W        W95300  19.114  36.663   0.928
28892W        W95301  11.220  36.544   4.314
28893W        W95302   7.220   4.379   3.897
28894W        W95303  31.994  31.487   3.091
28895W        W95304  34.604  23.028   0.460
28896W        W95305  15.118  19.611   0.938
28897W        W95306  26.342  38.800   4.860
28898W        W95307  19.160   9.165   3.479
28899W        W95308  33.049   3.727  12.507
28900W        W95309  17.577  32.412  14.875
28901W        W95310  42.489  43.967   4.110
28902W        W95311  13.266   2.283  12.518
28903W        W95312  16.713   2.205   3.964
28904W        W95313  10.679  27.635   3.710
28905W        W95314  26.016   0.366  12.002
28906W        W95315   9.490  30.671  10.758
28907W        W95316  27.310  37.149   1.464
28908W        W95317  44.042  16.045   3.118
28909W        W95318  41.580  32.044  13.934
28910W        W95319   8.799   1.464   1.672
28911W        W95320  25.300  39.616  11.411
28912W        W95321  24.881  28.434   4.701
28913W        W95322  26.230  20.469  12.180
28914W        W95323  23.255  19.281   3.684
28915W        W95324  33.293  22.437   2.183
28916W        W95325   8.382   7.407   1.832
28917W        W95326  11.719  35.464   4.264
28918W        W95327   1.499  27.569  14.927
28919W        W95328  37.751  16.053  12.550
28920W        W95329  12.763  40.771  13.096
28921W        W95330  25.004   7.177   0.769
28922W        W95331  31.360  26.715   0.276
28923W        W95332   3.808  36.901   2.282
28924W        W95333  43.807  13.289   2.951
28925W        W95334  20.732  40.833   3.316
28926W        W95335  20.826  39.853   4.759
28927W        W95336  14.556   9.281   1.807
28928W        W95337   7.822   0.272   3.280
28929W        W95338  14.877   8.073   3.211
28930W        W95339  31.394  42.837   0.467
28931W        W95340  41.883  10.361  11.592
28932W        W95341  12.494  32.244  13.429
28933W        W95342  23.382  21.305   2.280
28934W        W95343  25.263   3.465  14.115
28935W        W95344  16.026  39.641   1.703
28936W        W95345  24.077  16.622  10.741
28937W        W95346  43.005  33.450  14.118
28938W        W95347  42.499  32.060   3.353
28939W        W95348  15.173  33.791   2.601
28940W        W95349  44.368  19.980   4.768
28941W        W95350  24.909   0.287   3.718
28942W        W95351  44.426  40.896   0.726
28943W        W95352  33.500   8.886  12.359
28944W        W95353  24.934  11.105   1.265
28945W        W95354  13.085  15.037  14.465
28946W        W95355  16.999   3.980  10.519
28947W        W95356  17.780   4.227   0.438
28948W        W95357  38.950  33.969   1.234
28949W        W95358   3.452  44.153   1.291
28950W        W95359  25.933  18.007   0.485
28951W        W95360   1.376   2.879   0.740
28952W        W95361  37.401  28.974  11.203
28953W        W95362   7.896   0.980   1.844
28954W        W95363  43.682  21.708  11.200
28955W        W95364   4.830  10.319  13.953
28956W        W95365  30.273   9.692   5.549
28957W        W95366  22.265  25.613   3.678
28958W        W95367  36.362  35.048  11.167
28959W        W95368  29.445  30.139   0.322
28960W        W95369  42.243  27.090   3.247
28961W        W95370  41.937  28.942   2.649
28962W        W95371   6.292   3.648  10.531
28963W        W95372  37.792  34.254   2.223
28964W        W95373  33.152  17.259  10.643
28965W        W95374  42.973  36.555  13.098
28966W        W95375   2.522  25.804  11.652
28967W        W95376  30.669  32.535   2.295
28968W        W95377  25.581  10.087   0.870
28969W        W95378  36.994   2.229  11.013
28970W        W95379  15.614  33.506  10.590
28971W        W95380  24.059  40.814   1.364
28972W        W95381  35.923  33.847   4.562
28973W        W95382   4.866  42.549   9.907
28974W        W95383  13.241   2.448   1.900
28975W        W95384  30.110  16.311   1.960
28976W        W95385  35.168  19.470  11.829
28977W        W95386  37.204  16.862  10.284
28978W        W95387   4.222  13.502  14.058
28979W        W95388  10.729   5.596  14.085
28980W        W95389  29.993  16.777  11.054
28981W        W95390  10.163  16.365  11.120
28982W        W95391  33.138  28.984   0.746
28983W        W95392  36.889  35.896  13.275
28984W        W95393  16.072  29.711   4.580
28985W        W95394   1.657  16.133  13.885
28986W        W95395  38.937  30.711  13.319
28987W        W95396  22.551  26.561   4.016
28988W        W95397  38.426  26.915  12.066
28989W        W95398  33.697  38.978   1.027
28990W        W95399  26.663  11.349  11.099
28991W        W95400  35.521  44.823  11.112
28992W        W95401  28.161  31.623  12.926
28993W        W95402  33.599  37.050   0.008
28994W        W95403  17.293  24.097   2.182
28995W        W95404  27.522  15.590   1.632
28996W        W95405  14.361  41.893  11.969
28997W        W95406  13.477  41.371  10.810
28998W        W95407  33.534  18.544  13.449
28999W        W95408  21.078  42.236  11.984
29000W        W95409  17.576  42.970  13.512
29001W        W95410  18.857  31.889  10.666
29002W        W95411  32.869  12.731   1.193
29003W        W95412  42.864  40.533   0.292
29004W        W95413  36.818  39.250   3.742
29005W        W95414  32.473  25.177  12.037
29006W        W95415  28.606  35.388  10.553
29007W        W95416  37.853  20.605   2.708
29008W        W95417   8.651  10.120  11.732
29009W        W95418  30.679  40.535   2.320
29010W        W95419  25.555  17.392  11.944
29011W        W95420  38.410  29.383  13.524
29012W        W95421  15.942  39.833  14.384
29013W        W95422  41.968  36.828  11.632
29014W        W95423  37.128  31.166   0.355
29015W        W95424  34.459  38.050  12.288
29016W        W95425  15.527  31.256  14.759
29017W        W95426  41.759  44.247   1.820
29018W        W95427  33.006   0.605   4.327
29019W        W95428  35.903  40.713   4.619
29020W        W95429   0.710  31.160  12.062
29021W        W95430  28.001  26.417  11.502
29022W        W95431  10.979  14.218  11.473
29023W        W95432  16.787   8.693  10.668
29024W        W95433  23.405  34.143   4.574
29025W        W95434  31.857  40.461   0.299
29026W        W95435  35.260  23.483   0.423
29027W        W95436  10.687  41.849  13.637
29028W        W95437  37.516  31.941  14.490
29029W        W95438  26.677  21.170   1.788
29030W        W95439  31.789  12.705  13.398
29031W        W95440   3.913   1.745  14.442
29032W        W95441  40.978  13.382   1.856
29033W        W95442  32.993  37.619  12.502
29034W        W95443  23.280  12.531   3.537
29035W        W95444  42.977  44.776   0.470
29036W        W95445  36.152   5.489   3.654
29037W        W95446  34.450  14.852  14.496
29038W        W95447  40.387  38.953   1.145
29039W        W95448   6.230  12.694   1.790
29040W        W95449   0.373  24.765  12.823
29041W        W95450   8.702  29.175  12.474
29042W        W95451   7.718  31.673   0.442
29043W        W95452  31.619  44.581   0.809
29044W        W95453  41.969   3.892   3.528
29045W        W95454  34.033  36.834   2.424
29046W        W95455  33.014  40.322   4.310
29047W        W95456  30.636  44.832  13.355
29048W        W95457  31.167  13.850   1.731
29049W        W95458   1.364  25.042   2.178
29050W        W95459  24.285  30.814  12.038
29051W        W95460  12.915  35.485  13.229
29052W        W95461   3.924  33.956  10.915
29053W        W95462  40.582  24.042   1.251
29054W        W95463  43.885   6.867  14.067
29055W        W95464  35.980  15.850  14.481
29056W        W95465  36.593  40.586  12.208
29057W        W95466  43.450  35.522  14.826
29058W        W95467   4.746  10.241   1.659
29059W        W95468  42.519  15.778   3.289
29060W        W95469  38.984  19.689  12.363
29061W        W95470  44.236   1.004  12.975
29062W        W95471   8.581  40.557  14.067
29063W        W95472  40.728   4.801   4.062
29064W        W95473  34.068  42.471   1.851
29065W        W95474   0.370  15.231   1.221
29066W        W95475   5.890  35.581   1.357
29067W        W95476  26.259  26.935  13.288
29068W        W95477  24.219  35.007   3.329
29069W        W95478  31.196  35.804   4.459
29070W        W95479  23.476  24.521   2.219
29071W        W95480  24.044  15.846  13.912
29072W        W95481  16.011  29.633   1.913
29073W        W95482  33.478   1.781   0.711
29074W        W95483   9.908  39.526  11.796
29075W        W95484  41.870   2.991  12.474
29076W        W95485  44.337  39.514   0.843
29077W        W95486   1.019  39.935  14.814
29078W        W95487  39.697  33.857   0.554
29079W        W95488  18.284  27.198   3.881
29080W        W95489  42.204  20.798  10.585
29081W        W95490  42.783   6.319   3.668
29082W        W95491  23.395   4.260  13.560
29083W        W95492  40.059  31.060   2.745
29084W        W95493   5.926  24.539  12.085
29085W        W95494  22.240   4.145  11.432
29086W        W95495  44.727  21.091  14.866
29087W        W95496  40.591  35.000  13.790
29088W        W95497  41.408   9.534   2.419
29089W        W95498  10.684  17.585  12.575
29090W        W95499  29.580  42.723   0.982
29091W        W95500  12.238  31.598   1.296
29092W        W95501  25.145  14.086  12.032
29093W        W95502   2.675   1.936   3.289
29094W        W95503  42.972  32.607   2.332
29095W        W95504  28.591  23.155  12.227
29096W        W95505  31.505  19.125   3.685
29097W        W95506   7.260   2.987  12.026
29098W        W95507  29.147   8.265  12.792
29099W        W95508   1.288  21.531  11.312
29100W        W95509  40.491  40.840   3.855
29101W        W95510  28.823   9.945  11.543
29102W        W95511  25.786  22.758   0.265
29103W        W95512  37.833  23.774  14.819
29104W        W95513  42.717  27.175   2.385
29105W        W95514  20.627   5.069  12.538
29106W        W95515  32.678   6.209   0.934
29107W        W95516  17.568  14.302  12.502
29108W        W95517  41.312  18.858  12.135
29109W        W95518  37.967  30.209   4.083
29110W        W95519   4.450   8.325  11.445
29111W        W95520  28.107  38.911   1.803
29112W        W95521  32.964  38.445  13.348
29113W        W95522  35.936   3.998   0.246
29114W        W95523  31.343  27.215   0.383
29115W        W95524  40.221  35.474   0.496
29116W        W95525  24.980  25.069  12.877
29117W        W95526  19.397  24.962   4.230
29118W        W95527  36.648   8.195  14.832
29119W        W95528   7.969  37.991  13.369
29120W        W95529   5.181  30.471   4.050
29121W        W95530  44.279  23.527   3.674
29122W        W95531  19.983  29.497   1.738
29123W        W95532   4.155  29.818   3.623
29124W        W95533  21.935   7.844  12.791
29125W        W95534  13.314  33.751  11.602
29126W        W95535  41.381  22.343  14.337
29127W        W95536  38.065  15.485   0.985
29128W        W95537  36.324  13.341  13.493
29129W        W95538  19.391  36.351   4.728
29130W        W95539   7.369  14.888   0.315
29131W        W95540  34.125  30.402  12.986
29132W        W95541  30.918  41.414  13.765
29133W        W95542  14.347  12.275   4.720
29134W        W95543  34.093  34.743   0.950
29135W        W95544  36.036  40.937   2.745
29136W        W95545  35.317  36.458   0.687
29137W        W95546  34.897  27.019  12.608
29138W        W95547  19.275  31.142  11.390
29139W        W95548  34.080   0.179   1.247
29140W        W95549  28.411  35.547   4.761
29141W        W95550   7.410  27.759  14.438
29142W        W95551  29.437  22.541   4.145
29143W        W95552  31.019  10.353  13.002
29144W        W95553  33.923  27.730  12.871
29145W        W95554   3.853  23.056   4.205
29146W        W95555  24.672  41.570  12.054
29147W        W95556  28.249  21.699  10.395
29148W        W95557  38.882  43.241  14.690
29149W        W95558  14.179  11.317  14.925
29150W        W95559  17.786   5.091  13.921
29151W        W95560  32.395  17.402  11.094
29152W        W95561  34.173   5.103   4.620
29153W        W95562   8.268   3.924  14.295
29154W        W95563   5.588  39.664  13.820
29155W        W95564  21.666  20.812   4.778
29156W        W95565  38.515   0.031  11.098
29157W        W95566  39.526  43.387   4.346
29158W        W95567  28.154   1.886  13.819
29159W        W95568  24.645   1.923  13.848
29160W        W95569   3.136  43.283  14.102
29161W        W95570  42.851   0.517  12.175
29162W        W95571  24.670  34.552   4.672
29163W        W95572  14.866   7.477  14.936
29164W        W95573  28.923  15.938  12.355
29165W        W95574  16.161   0.003   2.872
29166W        W95575  31.040  26.547   3.687
29167W        W95576   2.714  33.134  14.734
29168W        W95577  43.493  24.168   0.449
29169W        W95578   6.779   9.193  13.978
29170W        W95579  43.206  35.134   0.709
29171W        W95580  18.528  38.120   0.799
29172W        W95581  17.766  40.348  10.586
29173W        W95582  44.191   1.973  10.160
29174W        W95583  41.854  29.359  13.369
29175W        W95584  23.918   8.235   5.095
29176W        W95585   6.834  35.066  14.269
29177W        W95586   8.135  18.876  14.905
29178W        W95587  33.272  13.091  11.262
29179W        W95588  38.338  33.457   0.124
29180W        W95589  38.923  37.883  11.078
29181W        W95590  36.515  18.762   0.391
29182W        W95591  13.271  35.108  13.418
29183W        W95592  41.836  18.005  13.883
29184W        W95593  24.599   5.677  11.465
29185W        W95594  44.204  43.910  12.694
29186W        W95595   7.389  39.026  12.869
29187W        W95596   2.109  25.501  11.607
29188W        W95597  40.494  27.867   4.163
29189W        W95598  11.757   6.388  11.718
29190W        W95599  30.617  11.391  12.682
29191W        W95600  31.007  42.457  10.473
29192W        W95601  16.853   2.394   5.015
29193W        W95602  26.989  41.297   4.583
29194W        W95603   9.672  11.725  14.192
29195W        W95604   4.820  32.719   3.743
29196W        W95605  31.038  20.164  12.997
29197W        W95606  23.197  31.160  11.575
29198W        W95607  43.976  38.450   1.716
29199W        W95608  32.141  30.169  12.962
29200W        W95609  20.402   6.236  13.818
29201W        W95610  30.223  19.115   3.161
29202W        W95611  24.809  13.184  11.975
29203W        W95612  29.679   5.738  13.897
29204W        W95613  13.415  32.450  14.427
29205W        W95614  10.679  25.612  11.895
29206W        W95615  36.301  12.897   3.683
29207W        W95616  37.937  30.739   4.105
29208W        W95617  43.575  17.642   0.434
29209W        W95618  26.176  27.172  11.109
29210W        W95619   2.256  42.384   1.627
29211W        W95620  39.001   0.778  11.205
29212W        W95621   6.189   8.764  14.870
29213W        W95622  14.652  36.521  11.061
29214W        W95623  27.150  26.977  13.490
29215W        W95624  15.222   6.239  10.588
29216W        W95625  36.644   7.752   1.610
29217W        W95626   9.649  34.574  13.523
29218W        W95627  30.752  29.990   0.810
29219W        W95628  38.894  15.072   0.032
29220W        W95629   2.866  12.830  14.052
29221W        W95630  28.207  40.700   3.238
29222W        W95631  32.543  43.360  12.926
29223W        W95632  40.257   0.943   4.202
29224W        W95633  44.983  21.782   4.565
29225W        W95634   1.030  15.708   1.430
29226W        W95635  16.530   9.159  13.353
29227W        W95636  28.497  10.518  13.575
29228W        W95637  34.382   3.565   1.217
29229W        W95638  26.579  28.428   1.748
29230W        W95639  10.193  16.138   1.269
29231W        W95640  19.004  31.320   4.399
29232W        W95641  13.121  41.785  10.688
29233W        W95642  33.882  34.726  14.975
29234W        W95643   6.887  19.601   2.571
29235W        W95644   6.452   9.432  11.117
29236W        W95645  25.238  25.295  10.175
29237W        W95646  14.529  36.274   5.056
29238W        W95647  25.132  32.329  13.886
29239W        W95648  36.462  26.453  11.231
29240W        W95649   8.769  30.900  10.395
29241W        W95650  36.443  36.651   4.114
29242W        W95651  29.348  12.864   1.246
29243W        W95652   4.322  19.787  13.912
29244W        W95653   8.911  14.682  14.616
29245W        W95654   6.833   7.043   3.333
29246W        W95655  11.444  11.203  11.125
29247W        W95656  18.302  13.191   3.081
29248W        W95657  21.238  25.608   2.678
29249W        W95658  41.466  41.853  13.935
29250W        W95659  37.863   5.751  14.053
29251W        W95660  44.831   9.887  11.646
29252W        W95661  22.706  12.086   2.701
29253W        W95662  21.454  13.241  14.522
29254W        W95663  23.796  14.723   1.595
29255W        W95664   2.177  27.609   2.923
29256W        W95665  15.348  34.415  12.434
29257W        W95666  18.668  36.978  10.299
29258W        W95667  11.096   4.389   3.275
29259W        W95668  35.420  34.748  12.829
29260W        W95669  40.971   6.707   1.141
29261W        W95670  31.112  32.415   0.017
29262W        W95671  44.345  26.678   2.796
29263W        W95672   4.265   4.045  13.427
29264W        W95673   8.882  35.553   3.763
29265W        W95674  28.773  34.676   1.290
29266W        W95675  38.865  24.202   3.647
29267W        W95676  42.121  38.885   1.739
29268W        W95677  31.893  33.872  11.937
29269W        W95678  29.525   9.086   5.116
29270W        W95679  20.784  25.328   2.867
29271W        W95680  36.464  31.935   0.012
29272W        W95681   5.421  29.483   1.787
29273W        W95682  27.997  13.292  13.882
29274W        W95683  10.244  14.590  12.908
29275W        W95684  24.424  15.861   5.102
29276W        W95685  43.651  10.214   4.900
29277W        W95686  36.334  12.323   0.864
29278W        W95687  14.300  15.674   0.010
29279W        W95688   6.423  25.888  14.980
29280W        W95689  11.176   8.120  11.482
29281W        W95690  17.013  30.902  14.425
29282W        W95691   3.517  23.619   2.195
29283W        W95692  36.140  17.707  10.612
29284W        W95693  34.913  11.800   3.154
29285W        W95694  23.819  22.019  13.050
29286W        W95695  33.230  26.892   4.795
29287W        W95696   8.636  14.128  11.584
29288W        W95697  15.654  18.542  14.500
29289W        W95698  35.939  39.565   3.132
29290W        W95699   9.332   8.248  12.884
29291W        W95700   5.878  41.182   1.238
29292W        W95701   1.017   0.107  11.878
29293W        W95702  20.690  38.892   0.888
29294W        W95703  37.470   1.567  11.244
29295W        W95704  41.915  39.328  14.195
29296W        W95705  38.500  21.654  12.422
29297W        W95706  42.407   8.374  14.239
29298W        W95707  35.674  29.313  10.639
29299W        W95708  44.351  36.936   4.167
29300W        W95709  27.413   6.242   2.799
29301W        W95710  11.158  20.677  14.937
29302W        W95711  42.942  29.413  11.642
29303W        W95712  27.244   7.819  11.760
29304W        W95713  23.561   7.825  13.529
29305W        W95714   0.911  27.270   3.757
29306W        W95715  19.302   6.722  11.319
29307W        W95716  20.657  21.640  11.485
29308W        W95717  30.503  40.561   0.236
29309W        W95718  11.634  44.885  12.982
29310W        W95719  40.239  25.088  11.634
29311W        W95720  37.451  34.965  12.516
29312W        W95721  32.433  41.035   0.926
29313W        W95722  12.503  28.542   2.907
29314W        W95723  39.329  32.561  13.840
29315W        W95724  38.367  10.574   4.958
29316W        W95725  16.018  13.129  14.309
29317W        W95726  20.444  16.516   4.181
29318W        W95727  14.666   0.928  10.633
29319W        W95728  31.952  11.847   4.600
29320W        W95729  28.034  13.591  11.478
29321W        W95730  35.538  25.238   2.204
29322W        W95731  10.794   6.361  11.028
29323W        W95732  24.139  33.521   2.181
29324W        W95733   6.919   7.673   0.449
29325W        W95734   4.925  38.470   0.636
29326W        W95735  34.566   6.135   3.554
29327W        W95736  31.154  23.594  14.583
29328W        W95737  18.488  25.351   0.707
29329W        W95738  15.220  32.952  13.597
29330W        W95739  19.553   0.535   4.439
29331W        W95740  15.713   3.099   1.746
29332W        W95741  26.197  11.170  11.847
29333W        W95742  15.715  13.375   4.223
29334W        W95743   5.185   8.660  13.971
29335W        W95744   3.939  22.043   1.226
29336W        W95745   6.616   1.927   1.296
29337W        W95746   3.696  16.667  11.539
29338W        W95747   7.396   9.784   0.619
29339W        W95748  31.181  30.731  12.088
29340W        W95749  41.888  12.358  14.902
29341W        W95750  40.478  14.541   1.275
29342W        W95751  19.206  44.514   4.685
29343W        W95752  21.209   0.893   0.761
29344W        W95753  15.742  26.899   4.509
29345W        W95754  42.278  18.807  12.929
29346W        W95755  27.582  41.254  13.879
29347W        W95756  10.224  28.356  12.558
29348W        W95757   8.864   0.844  12.414
29349W        W95758  20.470  19.305  13.834
29350W        W95759  34.900  43.524  12.061
29351W        W95760  17.487   6.365  12.295
29352W        W95761  23.804  18.822   2.799
29353W        W95762   7.663   5.041  10.343
29354W        W95763  22.282   0.208   3.104
29355W        W95764  41.045  30.532   3.189
29356W        W95765  40.472  33.073   0.431
29357W        W95766   1.323  24.039   2.650
29358W        W95767  34.407  37.046   5.030
29359W        W95768   2.122  10.958   4.520
29360W        W95769  16.802  32.435   1.899
29361W        W95770  32.027  40.693   1.870
29362W        W95771  36.215  30.976  13.557
29363W        W95772  18.296  11.808  13.317
29364W        W95773  17.247   0.224  14.216
29365W        W95774   7.454  36.402   3.773
29366W        W95775  11.641  41.328  12.187
29367W        W95776  43.552   7.739  12.020
29368W        W95777   3.153   8.390  13.549
29369W        W95778  36.113  25.177   4.872
29370W        W95779  12.161  10.635   0.745
29371W        W95780  44.735   5.173   4.122
29372W        W95781   0.987  32.551   1.478
29373W        W95782  41.923  21.284   0.215
29374W        W95783  25.326  10.159   1.912
29375W        W95784  27.902  43.325   4.648
29376W        W95785  26.022  32.998   3.859
29377W        W95786  13.198  36.932   5.119
29378W        W95787  24.488  21.798  14.418
29379W        W95788  29.575  10.827   4.333
29380W        W95789  24.424  35.915  13.282
29381W        W95790   2.801  30.640  14.932
29382W        W95791   1.281   4.759   2.221
29383W        W95792  22.446  15.220  14.799
29384W        W95793  17.079  11.529  10.471
29385W        W95794  20.511   4.704   3.156
29386W        W95795   6.178  30.670   3.186
29387W        W95796  30.736   9.799   3.178
29388W        W95797  20.610  31.808   4.198
29389W        W95798  44.215  27.095  11.310
29390W        W95799  21.565  23.026  13.066
29391W        W95800  33.296   2.710  14.781
29392W        W95801  34.571  36.969   1.183
29393W        W95802  43.953  19.806  13.075
29394W        W95803   6.427   5.199  10.483
29395W        W95804   1.560  26.948  12.413
29396W        W95805  24.211  17.732   1.910
29397W        W95806  33.548   7.715   4.132
29398W        W95807   8.361  42.249  11.131
29399W        W95808  42.918  33.838  12.843
29400W        W95809  43.553  12.861   2.005
29401W        W95810  25.521  25.708   2.794
29402W        W95811  13.793   9.147  12.366
29403W        W95812  25.052  28.777   0.378
29404W        W95813  31.691  31.527   0.036
29405W        W95814   2.908   3.300   1.557
29406W        W95815   2.363  23.225  10.908
29407W        W95816  28.244  27.113  12.431
29408W        W95817  18.637  32.152  12.100
29409W        W95818  31.659  20.487  13.398
29410W        W95819  11.343  10.643  12.908
29411W        W95820  28.986  24.897   2.270
29412W        W95821   0.980  19.562  12.082
29413W        W95822  41.300  27.486   1.628
29414W        W95823  28.508  25.738  11.200
29415W        W95824   1.966  35.847  10.613
29416W        W95825  17.987   4.110  12.851
29417W        W95826  26.217   7.848  13.932
29418W        W95827  18.568   4.716   4.044
29419W        W95828  27.902  30.580  12.442
29420W        W95829  20.223  30.526   0.743
29421W        W95830  41.910  42.507   0.988
29422W        W95831  44.099  36.880   1.469
29423W        W95832  44.884  36.883  13.360
29424W        W95833   6.841  17.650   2.259
29425W        W95834  38.729  16.023   5.001
29426W        W95835  18.460  39.108   2.452
29427W        W95836  38.127  11.740  14.720
29428W        W95837  20.691  43.386   2.765
29429W        W95838  43.249  34.413   2.344
29430W        W95839  26.035   1.231   4.447
29431W        W95840  26.694   2.018  14.658
29432W        W95841  23.897  37.392   3.254
29433W        W95842  27.662  15.051   0.377
29434W        W95843  22.003  20.929   1.841
29435W        W95844   2.227   0.695  13.891
29436W        W95845  21.188  32.466  11.106
29437W        W95846  43.889  14.349  12.092
29438W        W95847   2.528  15.222   4.207
29439W        W95848  13.309  24.057   2.702
29440W        W95849  18.101   1.947   4.240
29441W        W95850  22.602   5.922  10.988
29442W        W95851  23.480   6.440  12.977
29443W        W95852   0.907   9.655   3.638
29444W        W95853  32.616   0.510   3.228
29445W        W95854   1.966  42.187   2.899
29446W        W95855  22.479  33.158  14.035
29447W        W95856  26.215  16.021   3.801
29448W        W95857  30.232  33.472   2.379
29449W        W95858  13.113  16.294   0.898
29450W        W95859   0.262  13.055   4.889
29451W        W95860  42.896   6.765  11.488
29452W        W95861  24.738  38.012   3.814
29453W        W95862   9.100  17.703   3.286
29454W        W95863  29.417  39.464  11.557
29455W        W95864  31.893  12.444  14.379
29456W        W95865  28.475  35.508   0.869
29457W        W95866  29.183  29.599  11.310
29458W        W95867  31.058  30.279   2.357
29459W        W95868  35.052  28.209  10.767
29460W        W95869   2.944  10.354   2.239
29461W        W95870  40.992  39.440   4.523
29462W        W95871   9.663  17.751   4.054
29463W        W95872  17.404   7.873  10.037
29464W        W95873  38.257  18.949  10.692
29465W        W95874  43.966  43.071   3.874
29466W        W95875   2.744   7.801  11.715
29467W        W95876  23.048  10.523  12.179
29468W        W95877  30.677   5.819  11.181
29469W        W95878  21.377   8.064   0.852
29470W        W95879  16.647  43.916   0.872
29471W        W95880  12.168  40.899  10.638
29472W        W95881  21.474  10.956  10.696
29473W        W95882  28.317  37.829   3.477
29474W        W95883  20.090  35.686  12.503
29475W        W95884  11.394  30.061  12.308
29476W        W95885  37.412  35.528  11.967
29477W        W95886   8.767  14.440   2.766
29478W        W95887  38.401  30.402  11.933
29479W        W95888  39.457  29.230  13.254
29480W        W95889  36.039  36.079   0.395
29481W        W95890  24.946  41.753  13.914
29482W        W95891  40.021  12.912  14.625
29483W        W95892  43.443   3.811  14.464
29484W        W95893  42.787  18.321   3.896
29485W        W95894  10.455  33.179  12.941
29486W        W95895   5.472   7.213  13.732
29487W        W95896  22.197  42.375   4.028
29488W        W95897  10.208  18.472   3.643
29489W        W95898  29.055  36.033   4.485
29490W        W95899   8.435  19.643   0.938
29491W        W95900   6.281   8.352  11.419
29492W        W95901  19.237  33.525   2.244
29493W        W95902   2.282  35.332   1.271
29494W        W95903  23.148   2.234  10.596
29495W        W95904   0.927  42.228   3.554
29496W        W95905   6.503  21.690   1.346
29497W        W95906  32.414  15.911  13.292
29498W        W95907  32.042  17.969   1.299
29499W        W95908   1.567   8.811   2.422
29500W        W95909   6.576  37.342  13.837
29501W        W95910   5.078  41.923  13.055
29502W        W95911  43.209  12.675   3.181
29503W        W95912  19.105   6.279   2.950
29504W        W95913  39.380  29.158  13.746
29505W        W95914  12.313  43.059  12.205
29506W        W95915  44.605   5.349  14.428
29507W        W95916   3.933  44.010  13.904
29508W        W95917  14.659  44.685  13.456
29509W        W95918  15.515  41.776   0.947
29510W        W95919   6.576  10.619   0.690
29511W        W95920   0.424  12.610   0.441
29512W        W95921  14.097  31.874   2.699
29513W        W95922   9.432   7.693   3.255
29514W        W95923  12.758   0.829  12.913
29515W        W95924   5.301  12.291   2.796
29516W        W95925  14.142  25.587   1.273
29517W        W95926   6.690  20.453   0.942
29518W        W95927  13.866  39.913  13.546
29519W        W95928  26.644  12.476  13.221
29520W        W95929  44.854  23.602  12.927
29521W        W95930   8.487   6.673  14.617
29522W        W95931  38.288  38.340   3.622
29523W        W95932  12.349   7.816  11.968
29524W        W95933  42.881   4.768   0.354
29525W        W95934  34.424  12.765   0.779
29526W        W95935  44.465  28.561  13.794
29527W        W95936  17.565   7.241   0.726
29528W        W95937  33.108  21.059   0.397
29529W        W95938   6.952  17.727   4.104
29530W        W95939   3.279  35.078  10.725
29531W        W95940  17.177  23.351   1.128
29532W        W95941  11.438  20.259   2.942
29533W        W95942  39.096  12.055   4.549
29534W        W95943  39.266  23.560   2.361
29535W        W95944  10.181  15.129   2.326
29536W        W95945  16.711  23.391  14.957
29537W        W95946  34.071   3.473  14.220
29538W        W95947  16.057  38.522   0.128
29539W        W95948  22.033  11.170   4.553
29540W        W95949  38.928  30.381   2.963
29541W        W95950  14.671  36.245   4.553
29542W        W95951  25.014  10.158  13.373
29543W        W95952  11.212   4.557   1.916
29544W        W95953  22.990  13.643   2.245
29545W        W95954  28.898  23.790   3.271
29546W        W95955  44.856  36.497   2.756
29547W        W95956  41.205  34.933  11.575
29548W        W95957  26.369  26.962   1.891
29549W        W95958  15.550  32.334  14.886
29550W        W95959  19.567   6.156   4.404
29551W        W95960  11.957  37.148  14.514
29552W        W95961  30.916   2.101  10.687
29553W        W95962  15.699  10.119   1.882
29554W        W95963  16.635  12.065   2.452
29555W        W95964  14.580  36.921  11.373
29556W        W95965  31.620  38.918  11.558
29557W        W95966  26.468   6.638  11.604
29558W        W95967  27.703   6.779  14.479
29559W        W95968  43.964  29.967  14.883
29560W        W95969   0.760  27.069   2.087
29561W        W95970  40.306  15.265  12.323
29562W        W95971  27.834   6.550   4.991
29563W        W95972  11.770  33.736  12.132
29564W        W95973  15.028  12.132  14.546
29565W        W95974  13.857   1.262   0.906
29566W        W95975  17.039  40.856  12.451
29567W        W95976  21.843  32.406  11.240
29568W        W95977  11.128   5.068  11.003
29569W        W95978  31.460  39.730   2.835
29570W        W95979  41.443   8.467   1.281
29571W        W95980   6.320  24.041  11.086
29572W        W95981  29.743  43.305  11.953
29573W        W95982  17.932   8.448   0.617
29574W        W95983  32.893  14.672  13.471
29575W        W95984  17.665   7.356  13.404
29576W        W95985  20.685  14.171   2.651
29577W        W95986  13.992  35.521  10.402
29578W        W95987  24.961  23.084   3.719
29579W        W95988   2.917  20.034  10.995
29580W        W95989  44.698  29.261  10.986
29581W        W95990  27.483  22.610  13.284
29582W        W95991  17.724  19.712   3.849
29583W        W95992  42.946  34.928   0.313
29584W        W95993  44.346  36.603  13.438
29585W        W95994  18.220  24.863  10.375
29586W        W95995  27.593   9.942  12.856
29587W        W95996  35.478  17.381   1.165
29588W        W95997   2.124  41.530  14.969
29589W        W95998  43.943  38.314  11.363
29590W        W95999  17.272  25.105  11.630
29591W        W96000   3.417  21.833  14.998
29592W        W96001   3.140  17.491   2.196
29593W        W96002  14.637  17.856  12.495
29594W        W96003  42.411   6.111  12.582
29595W        W96004  41.704  39.930  12.407
29596W        W96005  26.712  35.510   3.480
29597W        W96006  18.091  27.182   0.460
29598W        W96007  31.475  36.049  11.033
29599W        W96008  43.696   1.357   0.300
29600W        W96009  36.645  44.674  13.811
29601W        W96010  11.748  40.232   1.871
29602W        W96011   6.161  10.185  11.495
29603W        W96012  18.185  33.827  11.676
29604W        W96013  40.458  29.900   3.128
29605W        W96014  11.820  30.392  13.911
29606W        W96015  34.578  26.584  13.318
29607W        W96016  20.042  20.424  14.169
29608W        W96017  21.631   1.190  12.935
29609W        W96018  11.857  29.676  13.288
29610W        W96019   6.753  25.481   0.684
29611W        W96020  41.896   7.079  10.673
29612W        W96021  21.808  10.818  12.440
29613W        W96022  18.875  44.565   2.317
29614W        W96023  43.642  13.668  10.772
29615W        W96024  43.958  28.385  13.780
29616W        W96025   1.190  20.035  13.469
29617W        W96026  18.575   9.885  10.838
29618W        W96027  37.099  15.743   3.772
29619W        W96028  15.164   2.938   2.574
29620W        W96029  19.743  40.936   3.351
29621W        W96030  11.377  32.010   1.687
29622W        W96031   9.254  14.880  13.050
29623W        W96032  31.650  15.395  10.841
29624W        W96033  23.693  37.663   2.586
29625W        W96034  15.064  35.588   4.551
29626W        W96035   3.245   7.715   4.792
29627W        W96036  21.561   2.913  14.453
29628W        W96037  44.339   5.974  12.965
29629W        W96038   2.262  37.583  14.455
29630W        W96039  13.001  35.106  11.625
29631W        W96040  23.960  23.607  11.058
29632W        W96041  42.071  19.174  11.920
29633W        W96042  12.029  27.216   0.122
29634W        W96043   8.637  10.729   3.689
29635W        W96044  36.753   5.395   1.855
29636W        W96045  31.083  30.461  11.673
29637W        W96046  21.375   0.062   1.692
29638W        W96047  41.824  32.581  10.764
29639W        W96048  42.730   6.830   2.310
29640W        W96049  15.537   9.283   0.338
29641W        W96050  20.572  35.149  14.884
29642W        W96051   9.251   2.457  10.712
29643W        W96052  39.102  18.116   4.778
29644W        W96053  30.930  42.374   2.255
29645W        W96054   5.314   2.714  13.487
29646W        W96055   6.887  27.105   1.763
29647W        W96056  34.940   9.415   3.676
29648W        W96057  21.299  25.340  13.020
29649W        W96058  30.807  35.974  12.655
29650W        W96059  11.402  37.379   2.990
29651W        W96060  38.049  28.408  12.291
29652W        W96061  34.552   1.903   0.765
29653W        W96062  19.498  22.951   0.295
29654W        W96063  12.801   8.788   2.775
29655W        W96064  44.229  38.795  13.559
29656W        W96065  16.854  23.213   2.140
29657W        W96066  14.451   2.208   1.273
29658W        W96067  11.828   3.419   0.375
29659W        W96068  30.155  30.940  11.552
29660W        W96069  12.077  16.253  11.486
29661W        W96070  30.434  41.235   1.234
29662W        W96071   9.830  36.983   3.984
29663W        W96072  34.321  29.707   1.848
29664W        W96073   8.735  11.059  12.818
29665W        W96074   9.601  33.538   3.049
29666W        W96075   3.331  22.560   4.510
29667W        W96076  27.628  20.479  13.041
29668W        W96077  10.024  35.515  14.714
29669W        W96078  31.790  15.619  14.504
29670W        W96079  42.566  41.844  13.978
29671W        W96080   2.739  24.566   0.066
29672W        W96081  16.700  25.060   1.440
29673W        W96082   4.022  29.168   3.808
29674W        W96083  42.478  36.283   0.408
29675W        W96084  37.452  34.871  14.510
29676W        W96085  31.826  16.273   3.454
29677W        W96086  21.725  30.765   1.093
29678W        W96087  34.847  37.547   4.106
29679W        W96088  18.897  37.344   2.759
29680W        W96089  15.555  15.929  13.070
29681W        W96090  12.987  39.604   2.821
29682W        W96091  10.658  29.581  14.572
29683W        W96092   3.860   6.469   0.808
29684W        W96093   8.671  12.231   0.710
29685W        W96094  12.046  20.764  14.218
29686W        W96095  17.159  38.587   0.479
29687W        W96096  35.943   9.651   2.225
29688W        W96097  16.703   2.709  10.878
29689W        W96098  34.301   0.618   4.461
29690W        W96099  25.187  39.844   1.209
29691W        W96100   1.475  17.335   1.245
29692W        W96101   7.163  12.360   4.121
29693W        W96102   7.842  27.726   0.097
29694W        W96103  11.053   8.755  10.729
29695W        W96104  33.587  24.768   1.718
29696W        W96105  28.085  10.287   5.404
29697W        W96106  40.986  18.927   2.108
29698W        W96107   1.839   6.271   3.164
29699W        W96108  32.974   8.972   2.747
29700W        W96109  44.546  37.131   2.225
29701W        W96110  15.415  19.656   5.069
29702W        W96111  19.979  18.405  11.130
29703W        W96112  28.672  38.525  11.654
29704W        W96113  25.187  10.901   3.217
29705W        W96114  39.107  40.550  13.324
29706W        W96115  40.947  22.680  12.977
29707W        W96116  22.046  15.115  14.466
29708W        W96117  14.788   0.990   0.490
29709W        W96118  13.075  14.635   2.388
29710W        W96119  42.739  39.933  14.022
29711W        W96120  13.412  17.656   0.177
29712W        W96121  34.360  30.146  12.279
29713W        W96122  10.652  15.164  10.782
29714W        W96123  10.750  14.699  12.149
29715W        W96124  36.641  40.588   1.795
29716W        W96125  28.157  43.052  11.230
29717W        W96126  32.882   4.504  11.938
29718W        W96127  44.275  13.214   1.288
29719W        W96128  25.946   7.264  13.898
29720W        W96129  20.556  15.114  10.775
29721W        W96130  42.343  38.326  12.075
29722W        W96131   8.026  13.615  13.404
29723W        W96132   2.796  16.521   2.403
29724W        W96133   4.429  10.122  13.110
29725W        W96134  34.022  42.768  12.610
29726W        W96135  34.085  31.192  13.318
29727W        W96136   1.229  41.846   0.225
29728W        W96137  12.635  30.900  11.141
29729W        W96138  31.446  39.246  10.988
29730W        W96139   6.670  12.792   2.839
29731W        W96140  25.951  18.538  13.505
29732W        W96141   3.067  44.524   1.346
29733W        W96142  21.110  27.171  11.187
29734W        W96143  15.149  24.150  12.364
29735W        W96144  30.658  27.169  11.500
29736W        W96145  34.457  23.538   3.307
29737W        W96146  36.025  16.383   4.271
29738W        W96147  33.580  20.889  13.794
29739W        W96148  18.273  38.196  13.364
29740W        W96149  17.786  23.867   3.824
29741W        W96150  20.805  43.555  11.077
29742W        W96151  40.358  14.122   4.198
29743W        W96152  14.838  12.419   3.781
29744W        W96153  40.095   6.365   2.512
29745W        W96154  24.407  29.761   4.185
29746W        W96155  41.481  25.321   0.514
29747W        W96156  32.097  44.959   3.777
29748W        W96157  16.639  29.550  13.116
29749W        W96158  43.016   8.207   4.506
29750W        W96159  29.963   8.375  11.785
29751W        W96160  30.474  42.526   0.807
29752W        W96161  26.403   5.658   0.822
29753W        W96162   8.486  31.209   1.784
29754W        W96163  40.002   5.191  11.568
29755W        W96164  16.685  12.113   2.973
29756W        W96165   4.257  25.377   4.594
29757W        W96166  19.785   8.626  11.439
29758W        W96167  41.266  39.354  12.872
29759W        W96168  37.726  42.390   2.013
29760W        W96169  12.317  27.535   1.186
29761W        W96170  13.092  39.877  13.928
29762W        W96171  18.203  44.983  13.275
29763W        W96172  22.073  41.352  10.690
29764W        W96173  16.545   8.487   2.289
29765W        W96174  32.114  20.123   0.233
29766W        W96175  21.511  12.898   1.694
29767W        W96176  36.014  26.353   0.493
29768W        W96177   5.433   2.733   1.120
29769W        W96178  19.761  34.059  13.871
29770W        W96179  27.057  30.595  11.962
29771W        W96180  13.538   1.366  10.126
29772W        W96181  22.259  40.887   3.270
29773W        W96182  38.009  21.656  12.211
29774W        W96183   6.193  19.946   2.767
29775W        W96184  43.800   6.807   3.694
29776W        W96185  41.338  32.140   1.462
29777W        W96186  38.451  27.221   3.136
29778W        W96187  13.250  32.336  12.062
29779W        W96188  11.155  31.290   4.550
29780W        W96189  12.836  38.857   1.663
29781W        W96190  32.678  23.710   4.025
29782W        W96191  31.181  14.148  11.114
29783W        W96192  35.965   3.292  12.522
29784W        W96193  32.399   7.853   3.179
29785W        W96194  43.819  20.688   4.740
29786W        W96195   8.252   2.218   1.734
29787W        W96196  36.454  30.313  13.250
29788W        W96197  18.610  18.356   1.264
29789W        W96198  28.194   9.565  13.460
29790W        W96199   1.298   3.884   2.259
29791W        W96200  18.168   4.421  11.533
29792W        W96201  21.228  29.963   2.789
29793W        W96202  26.021  34.594  12.624
29794W        W96203   0.317   7.261   5.081
29795W        W96204  17.012  34.183  14.357
29796W        W96205  11.707   5.294  11.380
29797W        W96206  36.728  26.392   3.715
29798W        W96207   5.288  21.350   0.728
29799W        W96208  42.814  38.419  11.242
29800W        W96209  17.822  37.350  13.997
29801W        W96210  25.154  29.464  12.028
29802W        W96211  12.388  39.640  14.359
29803W        W96212  33.320   6.939  12.732
29804W        W96213   7.872  34.483   2.226
29805W        W96214   5.250  26.707   0.516
29806W        W96215  39.043   6.671   2.828
29807W        W96216  27.853   3.415   0.933
29808W        W96217  22.884  34.051   4.588
29809W        W96218  37.141  39.116   4.815
29810W        W96219  22.694  25.257   3.687
29811W        W96220  36.812  17.621  11.408
29812W        W96221  23.489  37.457   5.012
29813W        W96222  31.417  10.520   3.390
29814W        W96223  37.900  16.898   0.765
29815W        W96224  28.534  38.902   0.009
29816W        W96225   0.673  18.980   3.144
29817W        W96226  44.261  14.327  11.177
29818W        W96227  19.783   3.393  12.830
29819W        W96228   5.600  37.387   3.084
29820W        W96229  19.339  22.547  13.495
29821W        W96230  43.479  19.791   2.203
29822W        W96231  40.393  11.364  13.727
29823W        W96232   1.230  24.556  11.126
29824W        W96233  12.196   1.567   3.995
29825W        W96234   6.357  17.546  10.769
29826W        W96235  14.570  29.534   2.285
29827W        W96236  19.595  14.373   0.250
29828W        W96237  21.585  16.907  10.216
29829W        W96238  19.264   1.762  12.593
29830W        W96239   1.223  14.842   1.956
29831W        W96240  22.703  11.563   2.713
29832W        W96241  18.739  38.295   2.690
29833W        W96242  22.057   6.804   2.789
29834W        W96243  20.383   5.239   0.967
29835W        W96244   1.896  33.013  10.672
29836W        W96245  33.376  16.936   1.801
29837W        W96246  11.721   7.306  12.616
29838W        W96247  41.920  39.784  14.480
29839W        W96248  15.882  44.237  11.176
29840W        W96249   0.528  25.741   2.414
29841W        W96250  30.549  30.142   0.370
29842W        W96251  22.391  40.653   1.217
29843W        W96252  37.025  37.851   0.967
29844W        W96253  41.188  39.723   3.637
29845W        W96254  13.514  40.591   3.785
29846W        W96255  39.097   6.179  10.653
29847W        W96256  13.258  20.038   3.682
29848W        W96257  25.188  24.196  11.659
29849W        W96258  18.236  38.785   9.923
29850W        W96259   8.918  39.368  10.346
29851W        W96260  11.135  23.132  13.415
29852W        W96261   5.932  10.001  11.071
29853W        W96262  33.609  44.931   1.216
29854W        W96263   2.799  26.636   4.355
29855W        W96264  38.372  36.100   2.855
29856W        W96265   1.235  30.386   2.375
29857W        W96266  31.010  38.671  13.779
29858W        W96267  15.065  19.287   0.431
29859W        W96268  25.277  34.821  14.120
29860W        W96269   9.450   7.383   3.767
29861W        W96270  22.278  44.963  12.854
29862W        W96271  27.221  25.045   2.663
29863W        W96272   5.472   1.361  10.281
29864W        W96273   6.134  21.135  13.036
29865W        W96274  21.520  28.593   1.167
29866W        W96275  21.280  31.409   5.097
29867W        W96276   6.569  44.900   4.517
29868W        W96277  42.681  34.475  14.549
29869W        W96278   6.833  13.369   4.104
29870W        W96279   1.382  13.712   3.389
29871W        W96280  36.037  24.216  11.273
29872W        W96281  42.358  29.222   2.787
29873W        W96282  38.966  44.259  10.961
29874W        W96283  37.578  26.154  14.726
29875W        W96284   0.717  21.035   1.948
29876W        W96285   4.033  18.739   3.600
29877W        W96286   9.766  31.636   0.834
29878W        W96287  27.481  20.699   0.371
29879W        W96288  24.603  32.987  13.430
29880W        W96289  32.878  39.243   3.683
29881W        W96290   3.757  30.765  14.870
29882W        W96291   9.432   4.419  11.630
29883W        W96292  13.960  29.514   0.062
29884W        W96293   9.864  35.028   0.886
29885W        W96294  34.483  24.453   3.827
29886W        W96295  28.962  24.490  12.997
29887W        W96296  37.005  31.751   1.028
29888W        W96297  21.548  43.975   4.547
29889W        W96298  22.729  11.306  11.503
29890W        W96299  11.195  19.098  12.887
29891W        W96300  24.323   4.675  11.262
29892W        W96301  36.414  38.725   3.043
29893W        W96302  43.337  11.317  14.422
29894W        W96303  35.012  39.740   1.145
29895W        W96304   6.793  15.185   0.983
29896W        W96305  41.052   3.270   1.131
29897W        W96306  34.345   7.120   1.792
29898W        W96307  26.631   0.293   3.709
29899W        W96308  34.363   6.195  12.578
29900W        W96309   6.952  34.315  12.457
29901W        W96310   5.225   3.222   3.229
29902W        W96311  12.398   1.602  12.221
29903W        W96312  17.790  43.437  11.463
29904W        W96313  28.088   2.808   3.330
29905W        W96314   6.194  23.176   3.634
29906W        W96315  27.679  35.791  12.416
29907W        W96316   9.140  29.045   0.509
29908W        W96317  16.808  40.884   2.564
29909W        W96318  24.548  34.382  11.611
29910W        W96319  34.077  39.336   1.024
29911W        W96320   1.463  25.081   3.902
29912W        W96321   6.440  22.700   1.275
29913W        W96322  33.293  17.401  11.965
29914W        W96323  24.286  40.856  13.448
29915W        W96324  28.740  14.808  13.444
29916W        W96325  29.929  18.224   0.975
29917W        W96326  16.341  20.753  14.380
29918W        W96327  21.296  19.575  12.563
29919W        W96328  31.206  30.747   2.216
29920W        W96329  43.566  18.702   4.541
29921W        W96330  44.362  44.256   3.555
29922W        W96331  39.365   7.754  11.832
29923W        W96332  38.887  19.893   4.600
29924W        W96333  27.985  28.111  13.990
29925W        W96334  34.446  29.045   0.434
29926W        W96335   8.874   3.839   1.804
29927W        W96336  15.110  14.077  11.651
29928W        W96337  36.276  38.407  13.388
29929W        W96338   8.091  16.009   4.349
29930W        W96339  43.553  36.094  11.111
29931W        W96340  44.437   3.790  10.717
29932W        W96341  29.604   4.419  14.497
29933W        W96342   1.520  21.783   3.282
29934W        W96343  11.920  16.386  13.603
29935W        W96344   0.241  26.837   1.318
29936W        W96345  39.379  35.987   4.350
29937W        W96346   9.784  22.928  11.936
29938W        W96347  15.984  29.048   4.175
29939W        W96348   6.216   7.920   2.746
29940W        W96349  21.080  35.685  12.511
29941W        W96350  15.059  13.361  13.098
29942W        W96351  24.548   5.715  11.984
29943W        W96352  23.601  11.849  13.948
29944W        W96353  35.602  38.091  11.238
29945W        W96354  44.502   5.694   1.670
29946W        W96355   8.882   6.224   1.512
29947W        W96356  26.671   5.815   4.546
29948W        W96357   8.478   4.856  14.344
29949W        W96358  35.847  17.863   2.883
29950W        W96359  26.519  19.593   2.703
29951W        W96360  29.130   0.924  11.658
29952W        W96361   0.764  24.764  14.502
29953W        W96362  24.174  32.868  11.114
29954W        W96363  33.710  31.877   2.399
29955W        W96364  38.074  29.562   0.505
29956W        W96365  39.518  42.950   4.055
29957W        W96366  32.520  21.538   3.247
29958W        W96367   4.426  30.531  10.630
29959W        W96368  17.800   7.941   1.325
29960W        W96369  16.289  15.781   3.769
29961W        W96370  43.929  25.031  14.455
29962W        W96371  21.545  27.964   1.736
29963W        W96372  32.153   6.177   0.886
29964W        W96373  34.209   5.650  14.802
29965W        W96374  11.097  10.275  13.862
29966W        W96375  21.127  23.114  14.479
29967W        W96376  30.648  37.057  14.906
29968W        W96377  34.530   4.325   4.698
29969W        W96378  27.686  37.180  11.057
29970W        W96379  33.051   3.291   2.716
29971W        W96380  42.310  36.155  14.930
29972W        W96381  21.754  40.791   1.145
29973W        W96382  29.128  39.182  13.331
29974W        W96383  29.041  32.837  14.549
29975W        W96384  36.527  13.653   4.129
29976W        W96385   7.357  30.582   1.220
29977W        W96386   1.348  14.336  13.682
29978W        W96387  28.471  36.516  11.083
29979W        W96388  11.268  30.118  11.494
29980W        W96389  22.574  25.634  14.444
29981W        W96390   1.056  38.015  13.523
29982W        W96391  10.199   3.752   1.185
29983W        W96392   3.802   0.473  10.251
29984W        W96393  12.762  20.671  12.947
29985W        W96394  29.321  17.693   4.611
29986W        W96395   8.903   9.607   3.187
29987W        W96396   8.163   6.848   3.581
29988W        W96397  22.252  34.686  11.617
29989W        W96398  12.724  38.586   2.802
29990W        W96399  34.599  21.613   4.120
29991W        W96400  24.258  18.182  11.522
29992W        W96401  13.126  12.727  12.385
29993W        W96402  39.555  27.881  14.501
29994W        W96403  14.881  18.809   0.326
29995W        W96404  33.325  26.248  12.001
29996W        W96405  10.045  11.209  10.658
29997W        W96406  38.515  40.389   1.819
29998W        W96407  25.595  36.621  10.670
29999W        W96408  13.215  22.188   1.910
30000W        W96409  15.481   2.860   3.242
30001W        W96410  17.586  23.783  13.012
30002W        W96411  44.014  21.521   2.309
30003W        W96412   4.234  12.733   3.816
30004W        W96413  11.420   5.273   0.762
30005W        W96414  10.785  23.969  11.012
30006W        W96415  37.028  31.946  14.833
30007W        W96416  42.211  28.608  13.078
30008W        W96417   5.294  22.212   0.377
30009W        W96418   4.319  26.236   2.782
30010W        W96419  19.177   5.099   0.982
30011W        W96420  40.019  30.651   3.067
30012W        W96421  25.044  10.112   0.366
30013W        W96422   6.528   9.470   3.245
30014W        W96423  14.566  14.146   2.900
30015W        W96424  17.980   0.790  11.260
30016W        W96425  24.860   3.794  14.708
30017W        W96426  40.095  44.083   4.221
30018W        W96427   4.243   3.369   2.465
30019W        W96428  13.549  28.658  14.835
30020W        W96429  17.508   7.098  12.164
30021W        W96430  24.721  12.176  10.518
30022W        W96431  17.167  18.817   1.146
30023W        W96432  29.616  25.956   0.705
30024W        W96433   2.511  23.041   0.471
30025W        W96434  28.389  44.376  12.316
30026W        W96435  39.246  22.578   4.337
30027W        W96436  14.274  10.960  12.003
30028W        W96437  28.339   8.144   0.312
30029W        W96438  22.138  21.053  12.184
30030W        W96439   2.652  16.142   2.724
30031W        W96440  39.736  21.173  12.013
30032W        W96441  31.562  28.731   0.805
30033W        W96442   0.756  37.082   2.683
30034W        W96443  33.415  22.354   0.951
30035W        W96444  39.024  40.873   4.114
30036W        W96445  14.886   4.394   0.331
30037W        W96446  42.380  35.348  12.158
30038W        W96447  22.446  10.585   1.160
30039W        W96448  17.717  14.336   3.376
30040W        W96449  37.411  33.246   1.104
30041W        W96450  11.363  40.880  11.488
30042W        W96451  41.160  25.963   0.857
30043W        W96452  18.243  27.747  11.127
30044W        W96453   4.347  14.262  10.240
30045W        W96454  22.553   0.275  10.225
30046W        W96455  22.957  40.833   0.642
30047W        W96456  17.515  30.361  11.003
30048W        W96457  36.779  15.506   3.439
30049W        W96458  27.621  14.716   3.113
30050W        W96459   0.375   9.872  12.489
30051W        W96460  37.814  44.341  12.210
30052W        W96461   8.130  13.573  11.457
30053W        W96462  25.190  20.709   2.094
30054W        W96463  12.164  12.321   0.358
30055W        W96464   5.632  23.391   1.785
30056W        W96465  22.037  41.094  11.961
30057W        W96466  42.993  35.947  11.647
30058W        W96467  11.891  11.295   0.864
30059W        W96468  22.988   8.600   3.502
30060W        W96469   4.009  22.106  10.519
30061W        W96470  18.187  39.627   0.815
30062W        W96471  34.576   2.211  11.005
30063W        W96472  42.280  29.131  14.402
30064W        W96473  23.049   1.880  13.080
30065W        W96474  18.183  40.946  14.851
30066W        W96475  18.668   4.006  14.428
30067W        W96476  13.259  26.459  12.056
30068W        W96477   8.638  13.753   3.192
30069W        W96478  15.543  21.566  14.481
30070W        W96479  44.195  25.233  10.515
30071W        W96480  22.888  30.457   4.098
30072W        W96481   5.276  36.720  13.813
30073W        W96482  13.231  32.559   1.520
30074W        W96483  25.391  39.417   1.417
30075W        W96484  17.209  25.062   1.245
30076W        W96485  43.098  24.167   3.537
30077W        W96486  38.385   2.438  13.780
30078W        W96487   1.337  41.997  12.372
30079W        W96488  14.606  24.479  11.511
30080W        W96489  19.248  16.110   0.726
30081W        W96490  32.908  16.575  13.931
30082W        W96491  23.959  40.596  12.532
30083W        W96492   4.748  23.572   5.008
30084W        W96493  44.905  17.238   2.367
30085W        W96494  25.386  37.170  13.965
30086W        W96495  43.522  42.840   2.226
30087W        W96496  29.333  26.624  10.000
30088W        W96497  20.969  27.051   1.736
30089W        W96498   6.634  16.830  12.181
30090W        W96499   1.050  23.239  11.146
30091W        W96500  25.994   8.895   2.593
30092W        W96501  16.629   6.994  13.808
30093W        W96502  35.583  26.991   4.939
30094W        W96503   8.112   0.557   0.355
30095W        W96504   6.228  22.928   9.814
30096W        W96505  16.225   1.028  11.013
30097W        W96506  14.532  24.128  14.273
30098W        W96507  25.728  28.609  11.494
30099W        W96508  43.816  18.194  14.222
30100W        W96509  33.484  33.327  10.734
30101W        W96510  25.609  41.273  12.390
30102W        W96511   2.886  18.221  10.626
30103W        W96512  43.990  24.022  14.259
30104W        W96513  22.265  24.505   2.766
30105W        W96514  31.233  35.009  11.989
30106W        W96515  35.495  12.210   1.884
30107W        W96516  36.886  28.614   0.391
30108W        W96517  31.219   4.906  11.757
30109W        W96518  33.161   1.850   2.404
30110W        W96519   7.281  37.664   0.495
30111W        W96520  39.333  31.214   0.849
30112W        W96521  37.385  23.422  12.587
30113W        W96522  28.976  32.078   2.146
30114W        W96523  35.863   6.421   3.211
30115W        W96524  39.127  24.610   0.339
30116W        W96525  41.258  26.411   1.755
30117W        W96526   9.925  19.624  12.873
30118W        W96527   9.064  13.401   4.716
30119W        W96528  38.805  14.575  13.522
30120W        W96529  17.120  25.136   0.646
30121W        W96530  14.903   1.378   4.932
30122W        W96531  16.308  22.762  13.125
30123W        W96532  40.426  37.612  12.513
30124W        W96533  16.005  27.564  11.907
30125W        W96534  13.909  22.742   5.015
30126W        W96535  11.103  20.337   2.250
30127W        W96536  30.566  25.049  10.847
30128W        W96537  29.400  24.072  14.819
30129W        W96538  35.044  22.190  10.394
30130W        W96539  35.956   5.450   1.441
30131W        W96540  22.636  30.531  12.539
30132W        W96541   8.866  39.796  10.636
30133W        W96542  33.490   5.504   1.868
30134W        W96543   2.992  17.707  12.290
30135W        W96544  20.145  12.137   4.383
30136W        W96545  27.101   9.688  12.005
30137W        W96546  41.394  15.596   0.816
30138W        W96547  36.850  19.740  14.356
30139W        W96548   8.431   1.404   3.558
30140W        W96549  29.988   3.252  14.525
30141W        W96550  24.762  28.731  11.564
30142W        W96551  39.904  37.784  11.776
30143W        W96552  34.364  21.058   3.489
30144W        W96553  16.767  26.273   2.179
30145W        W96554  31.789  43.242  11.143
30146W        W96555  42.499  44.409   1.337
30147W        W96556   0.965   8.948   9.807
30148W        W96557  40.357   0.281   3.863
30149W        W96558  32.032  39.244  11.561
30150W        W96559  11.422   6.526  12.083
30151W        W96560  12.747  42.877   3.219
30152W        W96561  17.715  30.025  13.763
30153W        W96562  28.550  11.270   4.079
30154W        W96563   1.578  29.367  11.545
30155W        W96564  43.475  28.097   2.438
30156W        W96565  30.706  36.494   1.509
30157W        W96566  29.357  16.714   4.763
30158W        W96567  16.786   9.440   4.340
30159W        W96568  37.216  38.414   2.771
30160W        W96569  22.482  29.385   3.283
30161W        W96570  40.131   1.297   4.665
30162W        W96571  24.574  31.028  13.825
30163W        W96572   7.257   4.961  14.301
30164W        W96573  27.552  33.588  10.744
30165W        W96574  33.900  39.143  11.151
30166W        W96575  20.073  43.156  11.184
30167W        W96576  37.322  30.384   2.115
30168W        W96577   1.745   9.126  11.063
30169W        W96578   7.004   8.889  10.730
30170W        W96579  15.944  43.533   4.011
30171W        W96580  15.545  12.730  12.643
30172W        W96581  30.886  29.681  14.938
30173W        W96582  42.351  44.794  12.596
30174W        W96583   8.435  15.336  12.871
30175W        W96584   1.305   2.969  10.685
30176W        W96585  32.320  21.732  12.972
30177W        W96586   2.300  29.195   4.721
30178W        W96587  35.367  29.999  13.896
30179W        W96588  30.969  42.357  13.339
30180W        W96589  23.641   6.314  11.105
30181W        W96590  11.423  43.005   1.721
30182W        W96591  29.423  25.565   1.043
30183W        W96592  13.161  27.715   2.895
30184W        W96593   2.706  38.962  11.983
30185W        W96594  37.963  42.780  11.190
30186W        W96595  20.467  17.029   3.308
30187W        W96596   8.638   6.310  12.902
30188W        W96597   1.894  17.191  14.286
30189W        W96598   7.374  12.123  12.368
30190W        W96599   9.683  34.392  14.935
30191W        W96600  30.522  11.522   0.559
30192W        W96601  26.489   7.502  10.703
30193W        W96602  15.918   0.768  14.660
30194W        W96603  11.675  13.618  11.896
30195W        W96604  40.266  19.077   1.622
30196W        W96605  31.092  34.488  10.050
30197W        W96606   3.438  15.352  14.238
30198W        W96607  39.106  26.284  12.012
30199W        W96608  43.323  18.994  10.637
30200W        W96609  11.206   1.021   1.387
30201W        W96610  13.285   4.887  13.904
30202W        W96611  40.608  28.152  14.357
30203W        W96612  23.683  14.750  12.448
30204W        W96613  29.433  32.941  10.774
30205W        W96614  23.239  30.993  12.062
30206W        W96615  16.766  13.643  14.437
30207W        W96616  44.449   7.208  11.909
30208W        W96617  36.420  25.255   3.568
30209W        W96618  40.285  31.592   3.395
30210W        W96619   2.231  18.176  13.415
30211W        W96620  38.403   5.203   4.201
30212W        W96621  18.850  24.624   1.811
30213W        W96622  23.922   7.765   1.212
30214W        W96623  25.077  41.394  14.277
30215W        W96624  28.850   3.172  14.952
30216W        W96625   9.328   9.742  11.631
30217W        W96626  37.803  31.545   0.912
30218W        W96627  38.098  39.852  12.075
30219W        W96628   2.731  43.790   2.625
30220W        W96629  28.490  38.381  14.264
30221W        W96630  13.771  39.005   2.987
30222W        W96631   4.228  38.636  14.811
30223W        W96632  42.892  37.986  14.990
30224W        W96633  35.520  37.479  12.893
30225W        W96634   8.337   8.955   5.096
30226W        W96635  36.536  11.893   3.407
30227W        W96636  11.376  34.155  13.939
30228W        W96637  36.216   5.400   0.508
30229W        W96638  17.660   5.762   2.475
30230W        W96639  32.348  31.564  13.481
30231W        W96640  21.523  37.812   4.301
30232W        W96641   3.047  31.867  11.588
30233W        W96642   7.902  11.502   2.035
30234W        W96643  22.185   3.159  13.473
30235W        W96644  41.040  31.752   2.798
30236W        W96645  29.411  22.929  14.343
30237W        W96646  35.655  30.865   0.358
30238W        W96647   5.071  39.797  13.274
30239W        W96648   7.542  11.672   2.391
30240W        W96649   5.166  17.544  13.151
30241W        W96650  23.158  18.111   0.254
30242W        W96651  13.670   5.795  13.488
30243W        W96652  16.755  24.486  12.966
30244W        W96653   1.210  25.016  12.536
30245W        W96654  17.273  35.540  14.928
30246W        W96655  44.418   1.791  13.837
30247W        W96656   9.193  35.386   3.316
30248W        W96657  36.056  20.630   3.381
30249W        W96658  23.976  32.653   2.784
30250W        W96659  17.163  35.802   0.803
30251W        W96660  40.765   1.455   0.547
30252W        W96661  13.290  34.877  14.664
30253W        W96662  31.217  37.918   2.871
30254W        W96663  15.256  17.320  14.332
30255W        W96664  26.697  18.910   4.999
30256W        W96665  39.476  42.778   2.290
30257W        W96666  14.509   1.366  13.778
30258W        W96667  16.363  10.823  14.656
30259W        W96668  44.219  38.534  14.858
30260W        W96669  34.773   2.535   4.337
30261W        W96670  28.589  15.386  10.188
30262W        W96671  30.667   4.001   0.030
30263W        W96672   7.154  42.842   4.092
30264W        W96673   8.102  12.720   4.213
30265W        W96674   6.294   6.413  10.678
30266W        W96675  11.251  16.531   1.748
30267W        W96676   5.833  34.797  13.358
30268W        W96677   2.211  39.306   3.929
30269W        W96678  17.914   0.950   0.379
30270W        W96679  24.219  19.642   0.515
30271W        W96680  20.923  35.489  11.657
30272W        W96681  29.549  15.017   0.872
30273W        W96682  21.726   2.428  12.626
30274W        W96683  28.631   0.743  12.507
30275W        W96684  27.606  19.270   2.681
30276W        W96685  31.522  32.815  13.522
30277W        W96686  22.317  20.195  12.098
30278W        W96687  10.623  44.391  14.416
30279W        W96688  37.897  18.334  13.010
30280W        W96689   9.973  12.123  12.084
30281W        W96690  43.515  16.611   2.807
30282W        W96691   3.447  26.692   3.871
30283W        W96692   3.776   2.226  13.395
30284W        W96693  20.059  42.601  12.744
30285W        W96694  15.680  16.064   2.804
30286W        W96695  40.506  44.087  12.060
30287W        W96696  32.057  44.005  11.509
30288W        W96697  30.080  25.945  13.990
30289W        W96698  36.920  44.422   3.034
30290W        W96699  16.791  43.383  13.393
30291W        W96700   4.516  40.956   4.188
30292W        W96701  14.243  39.041   2.803
30293W        W96702   4.705   6.189  11.870
30294W        W96703  38.543   6.429   0.268
30295W        W96704  42.412  20.071   2.625
30296W        W96705  36.887  30.867   0.805
30297W        W96706  42.492  37.555  11.504
30298W        W96707  19.234   0.753   1.858
30299W        W96708  31.845  36.835  13.545
30300W        W96709   8.356  27.180   1.827
30301W        W96710   6.156  32.453  13.894
30302W        W96711  34.148  13.203   0.850
30303W        W96712  44.440  19.182  14.371
30304W        W96713  25.253  30.174   0.230
30305W        W96714  10.811   6.993  13.552
30306W        W96715  37.093   0.773   1.988
30307W        W96716  24.156  41.281  14.331
30308W        W96717   5.880  44.831  13.553
30309W        W96718  36.849   7.929   2.694
30310W        W96719  44.749   9.739  13.491
30311W        W96720   9.936  24.694   0.549
30312W        W96721  23.680  21.331  11.061
30313W        W96722  44.030   9.041  14.299
30314W        W96723  11.615  17.731   0.370
30315W        W96724  41.531  43.626  10.782
30316W        W96725  30.891  14.806  11.375
30317W        W96726  39.671   4.616  13.540
30318W        W96727   1.892   2.188  11.570
30319W        W96728  31.327  14.178  12.408
30320W        W96729  26.250  20.408  13.051
30321W        W96730  14.591  34.376   1.805
30322W        W96731   5.881  23.076   4.941
30323W        W96732  28.534  25.227  11.260
30324W        W96733  22.974  29.155  13.062
30325W        W96734  41.466  39.809  14.846
30326W        W96735  11.264  42.464  12.736
30327W        W96736  24.017  37.426   4.094
30328W        W96737  23.226  19.822  12.277
30329W        W96738  12.124  36.879  12.696
30330W        W96739  33.084  17.737   4.513
30331W        W96740  28.249   4.244   4.180
30332W        W96741  28.809  33.443  11.460
30333W        W96742  38.832   1.681   0.385
30334W        W96743  16.626  27.664  14.162
30335W        W96744  44.363   7.778  11.536
30336W        W96745   7.550  16.268  11.568
30337W        W96746   4.182  19.556   2.279
30338W        W96747  33.163  16.151  13.219
30339W        W96748  10.892   5.901   0.908
30340W        W96749  15.715  33.687   0.782
30341W        W96750  20.272  29.530   1.245
30342W        W96751  24.584  29.664   1.044
30343W        W96752  16.610  21.559   1.124
30344W        W96753   5.968  41.972   1.613
30345W        W96754  27.524  12.818  10.619
30346W        W96755  29.900  39.502   3.678
30347W        W96756  30.354  27.570  11.551
30348W        W96757  16.240  32.168  12.384
30349W        W96758  24.306  15.160  12.461
30350W        W96759  12.063  25.579  12.428
30351W        W96760  11.699  28.171   1.465
30352W        W96761  29.996  39.827   4.062
30353W        W96762  26.277  17.699   2.897
30354W        W96763  42.325  26.766  13.015
30355W        W96764  10.375  27.659   0.761
30356W        W96765  44.390  41.732   3.505
30357W        W96766  31.555  29.394  12.079
30358W        W96767  24.359  35.099  12.590
30359W        W96768  22.061  42.933   5.154
30360W        W96769   9.391   4.402   2.761
30361W        W96770  21.754   0.738  11.216
30362W        W96771  11.379  38.361   4.823
30363W        W96772  21.743  25.031  14.330
30364W        W96773  37.316  10.290   4.618
30365W        W96774   8.664  25.159   1.000
30366W        W96775  37.799   2.276   1.757
30367W        W96776   6.759  37.331   4.201
30368W        W96777  37.942  16.013   4.069
30369W        W96778   4.284  39.430   4.302
30370W        W96779  37.432  41.049  10.521
30371W        W96780  23.111  27.053  14.858
30372W        W96781  26.795  32.557   1.346
30373W        W96782   3.930  23.534  13.479
30374W        W96783  24.266  17.941   0.953
30375W        W96784  21.864  23.252  11.963
30376W        W96785  36.369   7.776   1.161
30377W        W96786   0.714  13.664  10.577
30378W        W96787   7.500  10.245  14.586
30379W        W96788  35.017   3.323   4.521
30380W        W96789   3.881  31.046   3.851
30381W        W96790  26.026  42.269  11.575
30382W        W96791   9.949  32.014   1.849
30383W        W96792  31.397   5.746   0.781
30384W        W96793   8.572  35.918   3.587
30385W        W96794   0.988  42.089  13.954
30386W        W96795  38.422  23.233   4.203
30387W        W96796  20.608  38.947  14.884
30388W        W96797   6.675  15.918   1.995
30389W        W96798   3.401  19.011   4.834
30390W        W96799   3.741   6.847  13.669
30391W        W96800  17.804  35.835   3.999
30392W        W96801  14.798  10.090  10.591
30393W        W96802  22.020  32.634  12.444
30394W        W96803  41.077  12.919   0.966
30395W        W96804   2.085  17.133   4.894
30396W        W96805  17.587   5.834   1.959
30397W        W96806   9.571   0.744  10.626
30398W        W96807  32.669  31.594  14.576
30399W        W96808   3.672  23.054  12.887
30400W        W96809   3.196  29.030  14.483
30401W        W96810   8.255  24.645   3.776
30402W        W96811   3.014  26.736  11.683
30403W        W96812   5.435  14.799  14.450
30404W        W96813  26.577  25.016   3.737
30405W        W96814   5.950  31.645  10.678
30406W        W96815  37.879  40.366   4.798
30407W        W96816  25.002   5.390  12.163
30408W        W96817  40.518  13.377  12.162
30409W        W96818   4.294  39.058   4.657
30410W        W96819  11.081  42.296  13.526
30411W        W96820   2.048  12.793   3.776
30412W        W96821  35.383   4.626   5.046
30413W        W96822  36.981  41.981   4.576
30414W        W96823  31.552  34.803  11.655
30415W        W96824  37.622  23.997  14.355
30416W        W96825  14.454  28.079  12.633
30417W        W96826  27.102  14.807  10.478
30418W        W96827   3.183  16.165  13.822
30419W        W96828  16.787  19.027  12.894
30420W        W96829  38.521  23.535  14.251
30421W        W96830  36.301   2.751   0.982
30422W        W96831  27.629   6.285   3.779
30423W        W96832  24.582  11.239  14.109
30424W        W96833  23.051  28.373  13.513
30425W        W96834   2.918  31.027   2.187
30426W        W96835  26.849   5.347  11.979
30427W        W96836  30.463  26.430   0.531
30428W        W96837   8.019  19.995   1.769
30429W        W96838  36.254   5.447  12.446
30430W        W96839  18.536  40.963  13.827
30431W        W96840  16.194  33.997  13.951
30432W        W96841  32.368   7.250  12.922
30433W        W96842   4.586   9.469   1.296
30434W        W96843  11.925  32.398   1.818
30435W        W96844  36.140  25.609   1.784
30436W        W96845  21.295  13.121  10.249
30437W        W96846  27.119  29.590   0.841
30438W        W96847  38.963  33.295  11.074
30439W        W96848  31.145  13.881  13.471
30440W        W96849  36.304  34.008  11.011
30441W        W96850  18.687   9.780   4.510
30442W        W96851  25.159   8.833  11.970
30443W        W96852   9.917  22.525   5.098
30444W        W96853  11.171  16.786  13.904
30445W        W96854  22.182  41.968  11.858
30446W        W96855   7.336  43.129   4.537
30447W        W96856   1.527  43.686  13.053
30448W        W96857  39.483  12.504  14.031
30449W        W96858  43.817  15.894  13.418
30450W        W96859  40.032  28.353   3.647
30451W        W96860  12.614  27.982  13.964
30452W        W96861   1.381  42.018  11.116
30453W        W96862   1.302  25.196   1.260
30454W        W96863  43.351  37.676   3.689
30455W        W96864  16.658  15.601   4.302
30456W        W96865  30.144  41.959   0.868
30457W        W96866  25.194   2.999  11.051
30458W        W96867  35.462  41.091   1.251
30459W        W96868  33.004  35.937  13.259
30460W        W96869  17.199  21.439  11.495
30461W        W96870   0.001   3.903  11.591
30462W        W96871  17.450  18.176   4.155
30463W        W96872   9.245  17.568   3.791
30464W        W96873   4.481  22.281  10.585
30465W        W96874  23.208  27.005   0.783
30466W        W96875  25.679  15.569  10.298
30467W        W96876  15.019   5.692   3.241
30468W        W96877  31.526  25.054  13.097
30469W        W96878   6.959  37.873  14.402
30470W        W96879  20.500   5.411  10.781
30471W        W96880   0.746  39.800  11.085
30472W        W96881  35.028  28.929   4.151
30473W        W96882  15.593  28.984  14.646
30474W        W96883  15.631  33.366  11.481
30475W        W96884   1.500  39.365  11.152
30476W        W96885  33.676  40.963  14.346
30477W        W96886  23.553   8.263   1.032
30478W        W96887  16.217  16.761   1.551
30479W        W96888   6.729  28.379  10.979
30480W        W96889  18.305  32.855  13.291
30481W        W96890  34.163   8.366   0.898
30482W        W96891   4.427   8.631   2.194
30483W        W96892  27.163  28.096   4.006
30484W        W96893  33.675  29.018  13.018
30485W        W96894  35.034   7.766  14.546
30486W        W96895  19.986  43.888   0.472
30487W        W96896   1.206  14.746   2.458
30488W        W96897  15.446  10.169   2.824
30489W        W96898   9.264   3.396   1.792
30490W        W96899  36.846  12.412  10.765
30491W        W96900  14.671   5.845   4.166
30492W        W96901  37.372  37.201   9.997
30493W        W96902  25.548   3.277   2.867
30494W        W96903  33.711  14.799   2.933
30495W        W96904   6.683   1.947  11.100
30496W        W96905   4.566  39.921   3.973
30497W        W96906  43.499  10.782  13.101
30498W        W96907  11.222  21.509   2.383
30499W        W96908  21.180  28.211   0.350
30500W        W96909  35.922  31.208  14.887
30501W        W96910  24.095  39.362   0.725
30502W        W96911  21.498  28.748   4.023
30503W        W96912   3.289   8.646  13.116
30504W        W96913  21.889  18.637   0.771
30505W        W96914  11.619  25.800  12.267
30506W        W96915   1.807  11.610   1.752
30507W        W96916   3.398   6.733  10.607
30508W        W96917   6.025   9.630  13.251
30509W        W96918  17.817  23.577   5.085
30510W        W96919  27.571  43.046  10.714
30511W        W96920  40.325  31.368   2.298
30512W        W96921  24.938  19.297   0.919
30513W        W96922   5.176  17.052  13.868
30514W        W96923  17.459   7.184  14.760
30515W        W96924  26.700   8.748   1.887
30516W        W96925   9.308  28.922  13.579
30517W        W96926  18.061  25.452  14.794
30518W        W96927  44.366  40.573  14.439
30519W        W96928  42.956  18.297   2.912
30520W        W96929  40.514  42.831  14.996
30521W        W96930   3.372  15.137   1.351
30522W        W96931  22.663  31.071   4.724
30523W        W96932  25.692  44.865   1.247
30524W        W96933  23.116  12.120   3.111
30525W        W96934  21.233  24.520  14.339
30526W        W96935  11.723  24.984  14.361
30527W        W96936  24.217  17.186   2.605
30528W        W96937  24.845  32.412  14.299
30529W        W96938  39.419   9.336   1.644
30530W        W96939  18.173  21.567   4.634
30531W        W96940  28.088  34.106  14.971
30532W        W96941   3.295  39.998   0.505
30533W        W96942  28.991  10.706   0.871
30534W        W96943   2.015  13.743   0.317
30535W        W96944  13.915  36.504   0.930
30536W        W96945  38.484  32.470   4.269
30537W        W96946  30.093  38.965  13.721
30538W        W96947  16.777  36.590  13.325
30539W        W96948  38.627   4.796  14.184
30540W        W96949  29.036  20.606   4.090
30541W        W96950  26.056  11.405   3.686
30542W        W96951  23.739  26.458   1.891
30543W        W96952  15.151   2.214  14.949
30544W        W96953  20.931  29.437   4.593
30545W        W96954   7.233  42.661  12.699
30546W        W96955  26.572  13.136  12.635
30547W        W96956  18.834  36.045   2.189
30548W        W96957  23.077  43.910   3.687
30549W        W96958  40.398  10.961  10.820
30550W        W96959   8.648  40.931   2.352
30551W        W96960  39.467  19.841   0.719
30552W        W96961   4.783  14.716  11.207
30553W        W96962  21.630  28.969   0.258
30554W        W96963  29.375   2.331   0.160
30555W        W96964  44.041  42.438   4.739
30556W        W96965   4.403  33.799   0.519
30557W        W96966  23.470  17.195   1.796
30558W        W96967  24.606  25.734   0.512
30559W        W96968   0.557  10.468   1.808
30560W        W96969  24.204  33.159  13.941
30561W        W96970  23.774  14.660  11.607
30562W        W96971  35.037   4.033   9.688
30563W        W96972  42.883  12.369  14.943
30564W        W96973  23.334  24.520  10.697
30565W        W96974  40.127  19.649  14.260
30566W        W96975  35.665  17.669   3.722
30567W        W96976  17.113  31.492   0.192
30568W        W96977  22.726  28.063   4.517
30569W        W96978   8.442   0.903   1.519
30570W        W96979  20.730   8.805  10.909
30571W        W96980  25.175  22.900   3.257
30572W        W96981  43.341   3.661  10.739
30573W        W96982  23.275   9.463  14.751
30574W        W96983  36.964  33.511   3.235
30575W        W96984   5.387   2.982   1.951
30576W        W96985  44.900  11.201  11.509
30577W        W96986  18.762  27.570   3.437
30578W        W96987   5.203  27.067  12.805
30579W        W96988  18.962   1.714  11.374
30580W        W96989  28.043  21.020   0.748
30581W        W96990   8.506  22.965  14.276
30582W        W96991  39.811  38.318   2.303
30583W        W96992   5.307  22.595   2.749
30584W        W96993  24.937  16.425   0.698
30585W        W96994   8.197   4.693   0.505
30586W        W96995  31.344  35.783  11.503
30587W        W96996  11.117   1.382   0.944
30588W        W96997   2.382  14.656  12.856
30589W        W96998  30.410  14.164   0.866
30590W        W96999  17.657   6.284   2.342
30591W        W97000  30.812  14.363  12.638
30592W        W97001  29.165  28.272  11.053
30593W        W97002  32.645  43.446   2.183
30594W        W97003  13.336  12.818  14.656
30595W        W97004  43.742  11.448   5.409
30596W        W97005   7.775  24.396   3.650
30597W        W97006   2.484  27.652  11.556
30598W        W97007  35.886  25.165   1.825
30599W        W97008  21.142  43.253  11.956
30600W        W97009   9.817   3.556  10.352
30601W        W97010  25.004  30.817   1.191
30602W        W97011  12.059  17.577   1.552
30603W        W97012  12.234  42.100  11.053
30604W        W97013  24.167  11.358  12.767
30605W        W97014  31.371   5.087  12.971
30606W        W97015  29.085  29.904   2.807
30607W        W97016  35.872   1.819   2.090
30608W        W97017  23.619  37.789   2.092
30609W        W97018  11.810  35.107   0.894
30610W        W97019  29.188   9.550   3.555
30611W        W97020  27.425  17.037  11.866
30612W        W97021  42.080  38.872  12.995
30613W        W97022   7.936   6.262  12.073
30614W        W97023   7.795  15.254   4.054
30615W        W97024  27.971  36.057   4.623
30616W        W97025  25.029   4.899  11.977
30617W        W97026  13.760   6.285  10.502
30618W        W97027  27.326  30.557   0.713
30619W        W97028  10.945   3.323   2.254
30620W        W97029  42.418   5.198   2.763
30621W        W97030   5.260   4.307  10.646
30622W        W97031  26.761  17.535   2.829
30623W        W97032  39.317  11.211  10.270
30624W        W97033  19.688  40.810  13.861
30625W        W97034  30.048  42.849   0.817
30626W        W97035  37.123  24.278  12.563
30627W        W97036  28.068  31.560  12.415
30628W        W97037   6.991  34.588  11.606
30629W        W97038   5.516   6.950  11.134
30630W        W97039  25.792  14.251   4.491
30631W        W97040   9.141  23.656  11.904
30632W        W97041   4.221   3.927   4.250
30633W        W97042  30.847  43.331  13.471
30634W        W97043  38.421  17.695  13.126
30635W        W97044   2.887  18.030   4.353
30636W        W97045  31.448  19.193  14.927
30637W        W97046  10.709   2.883  11.169
30638W        W97047   8.321  40.333   3.261
30639W        W97048   2.500  18.514   4.070
30640W        W97049  34.033  41.328   0.610
30641W        W97050   6.681  16.772   2.029
30642W        W97051  37.789  44.050  13.900
30643W        W97052  10.830  34.702   2.378
30644W        W97053   1.729  20.157  11.967
30645W        W97054  40.549  41.503  14.354
30646W        W97055  41.469   0.221   1.777
30647W        W97056  19.320  23.252   0.695
30648W        W97057  16.251  10.338  13.291
30649W        W97058  11.558  27.044  12.734
30650W        W97059  41.373  32.940  10.643
30651W        W97060   8.243  40.781  12.157
30652W        W97061  38.702  34.515  10.927
30653W        W97062  38.814  44.793   3.721
30654W        W97063  11.064  24.410   2.329
30655W        W97064   8.952  33.890   1.464
30656W        W97065   4.453  26.998   0.179
30657W        W97066   2.456  12.854   3.419
30658W        W97067  41.742  36.048  14.389
30659W        W97068  13.894  18.305   1.396
30660W        W97069  25.471  32.341  14.786
30661W        W97070  30.698  18.670  12.408
30662W        W97071  15.534  29.955   4.083
30663W        W97072  32.448  42.040   4.638
30664W        W97073  40.878  43.216  14.788
30665W        W97074  19.535  24.809  13.043
30666W        W97075  33.371  33.926  13.982
30667W        W97076   5.418  26.719  14.993
30668W        W97077  34.386  35.105   0.732
30669W        W97078  10.808  33.357   1.317
30670W        W97079  43.508  40.287   2.154
30671W        W97080  44.947  15.639   3.085
30672W        W97081  21.485  43.881  13.968
30673W        W97082  31.124  29.661   0.795
30674W        W97083  43.326   1.894  13.538
30675W        W97084  32.436   0.318   1.810
30676W        W97085  24.475  40.585  12.438
30677W        W97086  18.358   4.862   1.801
30678W        W97087  30.349  28.436  13.420
30679W        W97088   3.033  30.857  12.428
30680W        W97089  12.058  28.452  14.563
30681W        W97090  43.848  14.825   4.063
30682W        W97091   8.431   3.168  11.029
30683W        W97092  26.019  18.239   0.012
30684W        W97093  23.843   6.683  12.611
30685W        W97094  19.558  14.104  12.466
30686W        W97095   2.763  40.431  11.597
30687W        W97096  12.033  34.357   1.000
30688W        W97097  16.093  43.331   2.334
30689W        W97098   0.513  12.678   1.372
30690W        W97099  27.631  22.649   3.449
30691W        W97100  42.693  13.775   3.910
30692W        W97101  36.863  32.432   2.612
30693W        W97102  43.413  15.117   4.088
30694W        W97103  24.085  28.936   1.328
30695W        W97104  29.886  36.964  14.418
30696W        W97105  20.765  25.392   3.790
30697W        W97106   7.350  28.101   3.676
30698W        W97107   6.725  15.609  14.899
30699W        W97108  40.554  43.911   4.103
30700W        W97109  16.828  12.428  14.808
30701W        W97110  29.568   8.933  12.874
30702W        W97111  22.079  28.405  10.639
30703W        W97112  37.005   4.127  10.815
30704W        W97113  17.579  27.476  11.694
30705W        W97114  14.042   1.374  10.272
30706W        W97115   8.358   9.826   0.509
30707W        W97116  26.663  13.319  14.966
30708W        W97117  27.735  35.123   4.264
30709W        W97118  27.423  39.895   4.401
30710W        W97119  28.260  16.364  13.934
30711W        W97120  29.038  28.256   3.381
30712W        W97121  41.250  38.423  14.846
30713W        W97122  43.527  25.191   0.345
30714W        W97123  24.066  38.136   1.400
30715W        W97124  32.864  15.673  14.958
30716W        W97125  44.028  18.028  13.301
30717W        W97126  21.851   6.415  14.023
30718W        W97127  19.056  20.170   3.189
30719W        W97128  24.645  38.349  14.330
30720W        W97129   5.169   4.877  13.048
30721W        W97130  16.824  15.553  13.880
30722W        W97131   1.267  20.270   0.012
30723W        W97132  28.929  35.792  12.571
30724W        W97133  18.603  11.507  13.961
30725W        W97134  39.847  39.061   1.384
30726W        W97135  23.142  21.649  10.174
30727W        W97136   6.771  24.383  10.728
30728W        W97137  39.573  22.936   2.860
30729W        W97138  33.464  34.045   4.684
30730W        W97139  35.188  42.746   1.301
30731W        W97140   8.427   5.698   3.789
30732W        W97141   6.815   9.087   3.399
30733W        W97142   6.281  36.232  11.067
30734W        W97143  14.709   8.365   0.250
30735W        W97144  40.371  12.758  10.747
30736W        W97145  24.755  20.586   4.658
30737W        W97146  22.776  13.776   3.104
30738W        W97147  17.612  34.911  13.014
30739W        W97148  14.037  24.992  11.986
30740W        W97149  14.680  24.687  13.289
30741W        W97150   0.548  25.497   4.514
30742W        W97151  27.680  17.145   0.648
30743W        W97152  23.586  39.602   2.864
30744W        W97153   7.194  37.884   1.689
30745W        W97154  17.473   5.435  14.241
30746W        W97155  18.499  19.834   4.896
30747W        W97156  43.415  23.124  10.440
30748W        W97157   5.864   4.646  12.015
30749W        W97158  35.587  25.442  13.122
30750W        W97159  35.257  36.401  11.839
30751W        W97160  17.779  13.749   0.419
30752W        W97161  28.649  11.369   1.387
30753W        W97162  14.188  25.050   0.733
30754W        W97163  27.141   6.697   0.284
30755W        W97164  38.772  33.512   1.378
30756W        W97165   2.718  21.739   1.601
30757W        W97166  31.626   9.294  12.601
30758W        W97167  26.445  19.331   0.833
30759W        W97168  35.520  19.346  13.235
30760W        W97169   2.949  25.903  13.041
30761W        W97170  24.489  29.066   1.950
30762W        W97171  24.235  11.079  14.517
30763W        W97172   2.757  39.527  12.437
30764W        W97173  13.283  40.047   2.770
30765W        W97174   5.450  31.961   3.761
30766W        W97175  17.277   8.424   2.838
30767W        W97176   4.880   8.824   3.131
30768W        W97177  26.059  44.613   3.807
30769W        W97178  36.846  15.671   2.942
30770W        W97179  12.090   9.943  14.374
30771W        W97180  16.256  26.027  10.779
30772W        W97181  27.633  41.900  13.039
30773W        W97182  44.205  25.305   1.167
30774W        W97183  29.215  13.113   0.826
30775W        W97184   9.115   5.809   0.502
30776W        W97185  12.041  34.999  11.508
30777W        W97186  26.904  38.588  10.692
30778W        W97187   4.672  21.497   1.286
30779W        W97188  30.789   0.244   2.843
30780W        W97189  40.796  38.339  11.144
30781W        W97190   8.613   2.948  12.819
30782W        W97191  22.184  14.857   0.863
30783W        W97192  26.275  21.141   5.001
30784W        W97193  32.623   2.254  11.705
30785W        W97194  30.444  43.746  14.243
30786W        W97195  42.804  11.039   1.366
30787W        W97196  25.154  22.535   2.293
30788W        W97197  10.420  24.107  12.734
30789W        W97198  11.048  32.572  11.942
30790W        W97199  26.731  44.560   4.234
30791W        W97200  27.628   9.650  14.589
30792W        W97201  24.580  34.545   0.727
30793W        W97202  35.904  12.407   2.134
30794W        W97203   7.792  27.622  12.185
30795W        W97204  35.538   9.451   1.996
30796W        W97205  10.809  11.821   1.680
30797W        W97206  27.959  41.895  12.389
30798W        W97207  17.051  37.468   3.152
30799W        W97208  16.871  43.232   3.982
30800W        W97209  21.819   4.712  13.942
30801W        W97210   5.447   1.771   4.779
30802W        W97211  14.352   9.658   2.254
30803W        W97212  29.091  14.805   0.340
30804W        W97213  30.489   4.626   3.387
30805W        W97214  33.077  14.411  12.147
30806W        W97215  16.355   8.158  12.843
30807W        W97216  15.096  34.058   1.258
30808W        W97217  28.634  13.693  13.130
30809W        W97218  33.113   8.421   2.693
30810W        W97219   1.396  44.289  12.517
30811W        W97220   5.840  10.414   2.357
30812W        W97221  28.565   1.184  13.270
30813W        W97222  22.458  28.355   0.844
30814W        W97223  18.839  37.485   4.180
30815W        W97224  23.533  28.656  11.047
30816W        W97225  12.731   4.474  14.423
30817W        W97226  19.588   7.805  14.463
30818W        W97227   6.842   9.872   1.425
30819W        W97228  11.350  20.307  11.608
30820W        W97229  36.810  44.860  14.940
30821W        W97230  18.141  23.256  11.812
30822W        W97231  12.851  17.754   4.059
30823W        W97232  32.162   6.206  12.588
30824W        W97233   1.503   1.960   1.230
30825W        W97234   4.752  31.555  12.382
30826W        W97235  36.056  39.950   2.342
30827W        W97236  23.442  32.899  13.494
30828W        W97237  16.288  18.043  13.552
30829W        W97238   0.241  12.694   0.939
30830W        W97239  15.776  39.895   2.205
30831W        W97240  43.106  23.910  11.979
30832W        W97241  33.826  15.255   3.171
30833W        W97242  34.402   5.796   5.007
30834W        W97243  17.763  29.185  14.322
30835W        W97244   0.991   4.929  14.614
30836W        W97245  17.009   3.460  12.829
30837W        W97246  24.417   2.536  14.915
30838W        W97247  38.797  33.559   0.372
30839W        W97248  23.558  26.363  10.637
30840W        W97249  30.573  10.135   0.370
30841W        W97250  13.845   6.294   2.123
30842W        W97251  36.771  18.758   0.857
30843W        W97252   0.176   0.106  13.405
30844W        W97253  26.941  17.528  11.083
30845W        W97254  23.612  40.793   4.651
30846W        W97255   1.375  16.281  11.664
30847W        W97256  35.618  10.360   1.881
30848W        W97257   8.674  28.620   3.478
30849W        W97258  38.463  29.514  10.765
30850W        W97259  25.857  39.367   1.609
30851W        W97260  22.565  15.679  10.094
30852W        W97261  28.942  16.292  14.408
30853W        W97262  11.825   8.687  11.089
30854W        W97263  17.074  36.320   2.347
30855W        W97264  38.821  23.935   3.194
30856W        W97265  10.369  11.530   1.733
30857W        W97266  43.405  42.503  11.752
30858W        W97267   9.704  23.076   2.391
30859W        W97268  39.644  22.247   4.390
30860W        W97269  42.992   4.320   1.244
30861W        W97270  29.990  20.117   4.732
30862W        W97271  17.697   4.423  10.438
30863W        W97272  21.779  18.208   0.478
30864W        W97273  36.286  32.948  14.281
30865W        W97274  20.542  34.811  10.582
30866W        W97275  14.795   8.586  14.209
30867W        W97276  26.092  26.485  12.076
30868W        W97277   8.495  38.616   0.554
30869W        W97278  26.503  13.386  12.221
30870W        W97279  30.683  27.708   1.665
30871W        W97280  34.015   0.486  11.001
30872W        W97281  17.285  29.181   0.256
30873W        W97282  18.491  10.131  13.985
30874W        W97283  36.658  25.009   2.065
30875W        W97284   1.272  35.103   1.220
30876W        W97285  10.924  31.551   2.739
30877W        W97286  11.115  19.050   0.651
30878W        W97287  25.102  23.466   4.073
30879W        W97288  32.552  16.685   3.204
30880W        W97289   4.312   5.444  12.972
30881W        W97290  25.703  12.310   1.745
30882W        W97291  27.697  29.536   1.264
30883W        W97292   6.124   0.711  11.366
30884W        W97293  22.681   1.675   2.400
30885W        W97294  40.922  17.162  12.519
30886W        W97295  35.982  25.732  13.412
30887W        W97296  13.676  39.488   4.137
30888W        W97297  17.802  38.987  13.261
30889W        W97298  14.104  13.196   1.478
30890W        W97299  21.015   3.691  13.321
30891W        W97300  12.964   2.751   2.234
30892W        W97301  21.294  28.989   3.622
30893W        W97302  21.413   0.766  14.774
30894W        W97303  24.075   1.547  13.191
30895W        W97304  23.358  23.212   9.943
30896W        W97305   8.176  37.826   3.288
30897W        W97306  44.048   0.289  11.983
30898W        W97307   6.967   4.278  11.344
30899W        W97308  23.788  23.796   1.848
30900W        W97309  28.196   1.231   3.331
30901W        W97310  29.206  43.529   4.366
30902W        W97311  43.480  35.702   1.881
30903W        W97312   2.368  19.582   0.371
30904W        W97313  13.675  40.791   0.680
30905W        W97314  15.310  18.313  13.406
30906W        W97315  31.921  12.198  13.524
30907W        W97316   4.386  16.069  10.799
30908W        W97317  10.299  35.627  12.918
30909W        W97318  19.371  28.493  11.283
30910W        W97319   7.444  33.492   0.756
30911W        W97320  23.055  10.265   0.670
30912W        W97321  21.083   7.715   3.719
30913W        W97322  29.662  31.390  12.055
30914W        W97323  42.981  19.623   2.170
30915W        W97324  27.556   5.015   0.257
30916W        W97325   7.927  28.631  10.159
30917W        W97326  39.465  41.945  14.468
30918W        W97327  30.389  43.059   4.629
30919W        W97328  41.305  20.847   5.266
30920W        W97329  15.715  29.591   2.864
30921W        W97330  25.373  24.522   0.427
30922W        W97331  33.120  27.106  13.960
30923W        W97332  10.444  31.798  11.921
30924W        W97333   3.482  25.954   4.324
30925W        W97334  29.969  32.874   4.125
30926W        W97335   9.360  21.085  14.053
30927W        W97336   8.328   9.849   4.955
30928W        W97337   5.280   5.769  11.390
30929W        W97338  38.658  28.131  12.104
30930W        W97339  32.165  39.374  12.920
30931W        W97340  40.324  42.455   3.245
30932W        W97341  40.455  38.983   2.878
30933W        W97342  28.176  44.031   0.054
30934W        W97343  31.496  24.488  11.903
30935W        W97344  37.005   2.326  13.834
30936W        W97345  10.605   8.431   1.732
30937W        W97346  10.952  26.046  11.716
30938W        W97347  18.515  34.122  13.647
30939W        W97348  15.594  22.581  11.033
30940W        W97349  14.684   4.613   0.782
30941W        W97350  39.356  16.243   0.015
30942W        W97351  33.177  32.490  11.431
30943W        W97352  28.047  40.273  13.404
30944W        W97353   9.233  36.407   1.004
30945W        W97354   2.161  34.140  13.405
30946W        W97355  27.237   1.135  12.515
30947W        W97356  14.239  26.723   5.144
30948W        W97357  21.563   2.912  12.471
30949W        W97358  10.913  26.005  13.131
30950W        W97359  24.047  38.567  12.572
30951W        W97360   8.783  44.315   2.936
30952W        W97361   5.227  12.250  10.798
30953W        W97362   0.842   6.036   3.127
30954W        W97363  14.494   1.375  10.493
30955W        W97364  44.228  33.509  14.809
30956W        W97365  37.103  16.229   2.093
30957W        W97366  11.624   4.797  11.630
30958W        W97367   8.662  39.372  13.254
30959W        W97368   9.807  24.732   2.726
30960W        W97369  26.853  24.000   1.142
30961W        W97370  15.891  22.130   3.384
30962W        W97371  44.009   8.979  11.988
30963W        W97372  44.378   6.937  13.168
30964W        W97373  30.032  34.197   1.159
30965W        W97374   3.418  37.945  13.431
30966W        W97375  13.607  25.106  11.069
30967W        W97376   8.880  32.076   1.041
30968W        W97377  30.894  26.454  13.096
30969W        W97378  16.693  40.945   4.539
30970W        W97379  43.790  25.894  12.923
30971W        W97380  37.667  26.919  12.757
30972W        W97381  23.525  28.556   3.710
30973W        W97382   3.965   5.261  14.453
30974W        W97383   1.696  21.076  11.955
30975W        W97384  17.077  17.509   4.600
30976W        W97385  22.138  22.307   0.730
30977W        W97386  31.455  20.574   4.178
30978W        W97387  22.603   3.191   0.804
30979W        W97388   1.003  31.600   3.691
30980W        W97389  22.569  26.964  14.946
30981W        W97390  34.327  10.127  11.517
30982W        W97391  10.472  12.766   1.640
30983W        W97392  25.920  37.594  12.628
30984W        W97393  19.563   2.730   3.285
30985W        W97394  17.162   3.269   4.293
30986W        W97395  40.590  38.884  13.112
30987W        W97396  14.468  44.998  12.980
30988W        W97397  21.244  32.389   3.574
30989W        W97398  28.053  40.977   1.444
30990W        W97399  11.208  13.610  14.567
30991W        W97400   4.761  31.508   4.095
30992W        W97401  43.068  27.496  10.695
30993W        W97402   7.170  24.228   2.295
30994W        W97403   6.361  14.784  12.498
30995W        W97404  20.749  35.420   0.305
30996W        W97405  18.736   0.217   4.330
30997W        W97406   5.403  33.044   4.522
30998W        W97407  35.082  44.228   1.300
30999W        W97408  40.656   5.509  12.818
31000W        W97409  40.453  25.458   4.174
31001W        W97410  22.582  13.802  13.978
31002W        W97411  16.699   3.829   0.937
31003W        W97412  23.373  31.341   0.017
31004W        W97413  28.784  16.345  12.053
31005W        W97414  30.399   0.430   0.469
31006W        W97415  23.282  16.268   3.566
31007W        W97416  19.695  31.447  10.819
31008W        W97417  10.741  37.401   0.047
31009W        W97418  29.076  17.099   1.121
31010W        W97419  26.642  24.502  14.804
31011W        W97420  43.354  12.846  13.090
31012W        W97421  34.128  10.302  13.537
31013W        W97422  14.891  11.607   1.741
31014W        W97423  16.190   1.979  13.953
31015W        W97424  29.536  33.531   3.168
31016W        W97425  30.434   7.328  11.564
31017W        W97426  28.042  36.436  11.864
31018W        W97427  21.306  27.804  14.375
31019W        W97428  42.301  16.752  13.636
31020W        W97429   6.761  19.037   4.126
31021W        W97430   5.924  12.796   0.901
31022W        W97431   4.197  22.014   3.520
31023W        W97432  10.284  38.169  13.767
31024W        W97433  37.959  19.819  14.976
31025W        W97434  44.513   9.108   3.273
31026W        W97435  20.376   2.808   0.973
31027W        W97436  31.739  22.300  13.440
31028W        W97437   6.010  20.213   3.224
31029W        W97438   6.274  36.847   0.753
31030W        W97439  11.782  40.323  11.170
31031W        W97440  21.013  19.714  14.604
31032W        W97441  19.553  17.339  12.067
31033W        W97442   9.436  36.565   0.106
31034W        W97443  15.282  15.777  10.782
31035W        W97444  20.726   1.396   2.403
31036W        W97445   5.177  10.814  11.889
31037W        W97446  24.987  37.815  10.506
31038W        W97447  30.826  35.547  11.558
31039W        W97448   2.255  42.071  13.622
31040W        W97449  10.722  17.178  11.233
31041W        W97450  25.721   4.701   3.175
31042W        W97451  30.460  33.452   3.920
31043W        W97452  10.529  30.095   9.786
31044W        W97453  44.423  44.165   1.351
31045W        W97454  16.843  20.745  14.426
31046W        W97455  10.573  24.052  11.468
31047W        W97456  34.012  12.678  14.953
31048W        W97457  30.658  27.489   2.695
31049W        W97458  23.941   7.630  14.429
31050W        W97459   3.475  33.954  10.675
31051W        W97460  19.598  34.606   3.175
31052W        W97461  43.796   6.640  10.689
31053W        W97462   2.486  11.401  11.114
31054W        W97463  31.457  37.538   0.481
31055W        W97464   7.376  39.863   1.307
31056W        W97465  22.766  40.416   0.935
31057W        W97466  21.503   2.592   2.682
31058W        W97467  22.945  28.031   2.171
31059W        W97468   2.882  42.268   4.486
31060W        W97469  33.621  17.755   1.446
31061W        W97470  23.657  44.859  10.824
31062W        W97471   4.292  11.808   2.882
31063W        W97472  14.313  16.556  10.968
31064W        W97473  36.876   1.981  12.873
31065W        W97474   4.859  18.542  12.094
31066W        W97475  38.610   9.216  11.669
31067W        W97476   3.829  25.012  13.326
31068W        W97477  42.880  35.801  13.380
31069W        W97478  23.141  16.529  12.587
31070W        W97479  42.343  30.748  12.504
31071W        W97480   8.683  36.849   2.428
31072W        W97481  34.417  23.221  13.863
31073W        W97482  16.510  14.534   1.931
31074W        W97483  24.797  33.130  11.133
31075W        W97484  43.017   5.861  13.333
31076W        W97485   2.686  26.787   1.766
31077W        W97486  31.178  38.042   4.635
31078W        W97487  22.747   4.758  12.889
31079W        W97488  36.861   0.736   3.721
31080W        W97489  26.739  35.023  12.532
31081W        W97490   9.609  43.396  14.487
31082W        W97491  16.314  15.197   0.135
31083W        W97492   8.210  15.343  14.782
31084W        W97493   1.438  20.047   2.785
31085W        W97494  39.203  33.765  10.962
31086W        W97495   2.210  11.355   1.913
31087W        W97496  12.193  24.944  11.842
31088W        W97497  18.304  14.842   0.651
31089W        W97498  41.466   2.287   3.871
31090W        W97499   9.220   6.924  12.600
31091W        W97500  11.464  28.800   0.655
31092W        W97501  42.679  29.897   1.621
31093W        W97502   7.715  12.300  12.863
31094W        W97503  34.069  37.958   4.525
31095W        W97504  24.984  11.280  12.551
31096W        W97505  27.734   4.432  14.454
31097W        W97506  10.333   0.938  11.679
31098W        W97507   6.884  16.096   3.683
31099W        W97508  26.640  28.238  13.429
31100W        W97509  25.413  33.530   1.182
31101W        W97510  23.248  37.918  11.926
31102W        W97511  24.578   7.815   1.739
31103W        W97512  42.588  11.443  11.166
31104W        W97513  25.555   3.776   2.649
31105W        W97514  42.161  44.303  11.107
31106W        W97515  41.343  42.993   4.085
31107W        W97516  33.672  34.910   1.249
31108W        W97517  16.253   3.812   0.433
31109W        W97518   1.669  11.257  14.188
31110W        W97519   3.303  16.155  13.316
31111W        W97520  25.482  27.104  14.319
31112W        W97521  18.605  11.815   3.678
31113W        W97522  29.614  17.113  14.410
31114W        W97523  22.585   1.309   2.749
31115W        W97524  21.816  44.944  11.613
31116W        W97525  21.461  36.868   4.287
31117W        W97526  43.326  23.603  10.231
31118W        W97527  15.031   6.392   2.577
31119W        W97528  29.113  20.799   0.842
31120W        W97529  15.532  17.001  12.550
31121W        W97530  26.622  36.376   4.962
31122W        W97531  11.080   4.237   0.970
31123W        W97532  16.041  19.552   0.475
31124W        W97533  34.875  44.467  12.270
31125W        W97534   6.914  37.040   0.263
31126W        W97535   7.663   6.012   0.364
31127W        W97536  13.318  29.128  14.916
31128W        W97537  23.984  13.328  12.385
31129W        W97538  36.672  26.455  14.900
31130W        W97539  23.974  17.008   0.204
31131W        W97540  18.908  22.289  11.642
31132W        W97541  16.827  22.868  14.928
31133W        W97542  10.323  35.994   4.646
31134W        W97543  39.532  42.948  11.226
31135W        W97544  37.595  21.676  11.900
31136W        W97545  32.452  10.530  11.387
31137W        W97546  31.931  41.127   2.816
31138W        W97547   5.434  26.105  12.595
31139W        W97548  14.286   0.184   9.802
31140W        W97549  25.513  30.051   3.645
31141W        W97550   9.705   5.459   2.315
31142W        W97551  29.768  28.208  14.642
31143W        W97552   9.245  19.669  12.583
31144W        W97553  12.158  36.044   4.201
31145W        W97554  24.581   3.043   2.738
31146W        W97555  41.878  41.233   2.122
31147W        W97556  15.770  24.996   1.881
31148W        W97557  25.392  40.370  13.796
31149W        W97558  43.059  14.330   2.679
31150W        W97559  25.742  28.300   1.637
31151W        W97560  16.302  44.564  12.815
31152W        W97561  28.448  43.624  10.631
31153W        W97562  37.590  32.964  14.762
31154W        W97563  42.556  20.244   4.324
31155W        W97564  30.346  31.591   3.651
31156W        W97565  12.557  34.020   4.452
31157W        W97566  20.232   5.314   4.291
31158W        W97567  40.120  42.082   0.783
31159W        W97568  27.980  27.083   4.858
31160W        W97569  36.385  37.101   3.870
31161W        W97570  33.624  18.538   3.308
31162W        W97571  17.796  42.561   3.081
31163W        W97572  32.002   0.034  11.535
31164W        W97573  16.255  42.709   0.783
31165W        W97574  44.849  18.845  12.929
31166W        W97575  21.198  43.330   2.773
31167W        W97576  33.852   0.895  12.381
31168W        W97577  43.452  44.928   4.433
31169W        W97578  33.553  17.328   2.913
31170W        W97579  41.780  19.498   0.300
31171W        W97580  43.284  33.037   2.197
31172W        W97581  43.858  33.323   4.676
31173W        W97582  25.105   7.632  11.590
31174W        W97583  15.256  33.467   1.017
31175W        W97584  38.974  17.348  10.606
31176W        W97585  20.211  16.204   0.473
31177W        W97586  30.907  10.370   2.119
31178W        W97587  36.501  30.318  10.250
31179W        W97588  42.970  34.282  11.003
31180W        W97589  12.682   5.133  10.932
31181W        W97590   4.642   3.029  14.263
31182W        W97591   4.192  28.051   2.538
31183W        W97592  32.464  23.956   2.722
31184W        W97593   8.996  21.511   2.430
31185W        W97594  31.175  12.908   3.665
31186W        W97595  18.035  14.309  10.835
31187W        W97596  19.196  31.798   4.276
31188W        W97597  18.134  20.734  12.462
31189W        W97598  36.314   1.460  10.704
31190W        W97599  31.422  11.025   3.249
31191W        W97600  24.748   8.729   3.292
31192W        W97601  38.720  36.567  14.974
31193W        W97602  27.509  31.453  11.790
31194W        W97603  25.562   0.451   2.363
31195W        W97604  22.306  24.006  11.509
31196W        W97605  24.499   3.037  10.708
31197W        W97606   6.474  27.849   1.890
31198W        W97607  35.846  33.732   5.376
31199W        W97608   1.932  22.233  14.834
31200W        W97609  18.936  12.566   0.867
31201W        W97610  11.424  33.178  12.990
31202W        W97611  40.966  27.067   4.897
31203W        W97612  29.722   8.805   0.089
31204W        W97613  38.443  34.157  14.592
31205W        W97614  10.187  26.396  13.680
31206W        W97615  39.415  38.524  11.459
31207W        W97616  44.536   2.249   5.120
31208W        W97617  34.122   8.963  10.986
31209W        W97618  40.846  43.734   2.317
31210W        W97619  43.888  41.560   3.614
31211W        W97620   2.819  12.393   0.420
31212W        W97621  30.296  27.752   2.433
31213W        W97622  33.698   2.273  12.594
31214W        W97623  30.798  42.276  13.846
31215W        W97624  33.699  21.170   1.849
31216W        W97625  11.238  20.075   0.720
31217W        W97626  11.557  38.543   3.647
31218W        W97627  16.670  37.644  13.421
31219W        W97628  30.699   7.580   2.929
31220W        W97629   5.193  11.215   4.212
31221W        W97630  41.917  44.591   4.740
31222W        W97631  11.349  28.171   3.362
31223W        W97632  38.026  37.394  14.044
31224W        W97633   1.044   5.309  11.195
31225W        W97634  24.405  20.871   1.441
31226W        W97635  36.060  21.627   0.443
31227W        W97636  30.934  10.500   3.777
31228W        W97637   4.869  20.578   0.060
31229W        W97638  44.808  18.558  10.975
31230W        W97639   9.300  28.607   3.699
31231W        W97640  21.182  17.210  12.491
31232W        W97641  42.446  35.532  12.631
31233W        W97642  17.048  26.014   1.788
31234W        W97643  26.612   1.793   4.656
31235W        W97644  33.938   3.831   2.824
31236W        W97645  11.672  18.748   1.427
31237W        W97646  22.625  35.923  10.750
31238W        W97647   1.556  42.984   1.891
31239W        W97648  39.242  36.284   1.726
31240W        W97649  22.103  35.051   3.381
31241W        W97650  44.404  43.916  14.059
31242W        W97651  18.740  38.428  14.452
31243W        W97652  21.118   8.955   4.253
31244W        W97653  19.517  12.455  11.545
31245W        W97654  16.780  24.066  13.772
31246W        W97655  21.658   0.315  13.933
31247W        W97656  44.077   4.344   3.274
31248W        W97657  41.678  38.299   0.461
31249W        W97658  10.394  11.534  11.060
31250W        W97659  35.475   9.313  13.860
31251W        W97660  28.597  14.689   0.864
31252W        W97661  35.853  14.739  13.476
31253W        W97662   9.386   0.347  13.080
31254W        W97663  12.875   4.884   1.795
31255W        W97664  36.006  36.862  12.592
31256W        W97665  26.628  40.464   2.315
31257W        W97666  14.994  23.951   3.720
31258W        W97667  31.573  40.809   2.121
31259W        W97668  13.852  30.653  12.940
31260W        W97669  11.817  22.894   9.898
31261W        W97670  23.996  25.989   4.173
31262W        W97671  35.839  28.148   3.357
31263W        W97672  17.194  34.644  14.501
31264W        W97673  40.110   7.944   0.864
31265W        W97674   1.895  34.096  12.096
31266W        W97675  37.365  17.971  13.848
31267W        W97676  27.223  39.940   0.452
31268W        W97677  31.305  43.577  13.478
31269W        W97678   5.359  44.830  13.534
31270W        W97679  40.877  31.336   2.322
31271W        W97680  33.006   9.790   0.207
31272W        W97681  43.401   0.939   0.434
31273W        W97682  22.896  11.431   4.540
31274W        W97683   0.425  10.337   1.313
31275W        W97684  12.089  25.699   2.343
31276W        W97685  24.961  37.840   1.731
31277W        W97686  26.677  36.432   2.907
31278W        W97687  39.901   4.812   3.361
31279W        W97688  15.552  15.615  14.480
31280W        W97689  32.265  20.949  10.300
31281W        W97690  34.822  10.894  11.052
31282W        W97691  18.166  41.030  11.425
31283W        W97692  27.977   4.460   4.596
31284W        W97693   2.718  15.295   3.727
31285W        W97694  38.587   6.335   2.170
31286W        W97695   9.458  28.024   0.911
31287W        W97696  12.938   1.138   3.251
31288W        W97697  18.893   3.156  13.088
31289W        W97698  42.894  11.297   4.519
31290W        W97699   1.011  40.545   4.607
31291W        W97700  14.485  13.725  11.953
31292W        W97701  38.539  31.941   2.353
31293W        W97702  23.930  23.999  12.439
31294W        W97703  18.518   1.351   4.983
31295W        W97704  26.643  27.197   2.262
31296W        W97705  15.563   0.236   4.211
31297W        W97706  14.436  40.467  10.718
31298W        W97707   4.218  17.049   2.815
31299W        W97708  10.740  30.517   2.704
31300W        W97709   9.780  19.092  12.979
31301W        W97710  41.380   7.804   1.051
31302W        W97711   4.918  14.733  14.495
31303W        W97712  16.333  14.748   0.451
31304W        W97713  36.434  29.910  11.555
31305W        W97714  21.519   5.224   1.881
31306W        W97715  21.324  17.852   2.349
31307W        W97716  30.305  43.899  10.430
31308W        W97717  25.992  42.765  11.552
31309W        W97718  12.269   9.205  10.786
31310W        W97719  33.513  11.648   3.677
31311W        W97720  11.141   9.128   2.283
31312W        W97721  29.530  32.560   1.418
31313W        W97722  26.367  27.106  11.580
31314W        W97723  33.737  43.275  14.348
31315W        W97724  25.526  13.351  13.070
31316W        W97725  38.967  21.966   2.235
31317W        W97726  34.169  13.382   2.613
31318W        W97727  31.041  26.013   3.758
31319W        W97728  11.493  42.489   1.805
31320W        W97729  24.682  10.792  13.853
31321W        W97730  42.840  11.563   1.379
31322W        W97731   7.748  12.894   1.772
31323W        W97732  20.295   4.145  11.102
31324W        W97733  14.702  22.745  14.704
31325W        W97734   0.691  26.189  14.339
31326W        W97735  39.372  24.690   1.043
31327W        W97736  42.837  12.258  13.143
31328W        W97737   4.151   1.538   0.296
31329W        W97738   4.955   7.291  13.441
31330W        W97739   0.287   9.239  12.161
31331W        W97740  20.512  32.942   4.235
31332W        W97741   9.852  26.588   9.898
31333W        W97742  39.881  44.601   4.145
31334W        W97743  37.584   7.510  13.900
31335W        W97744  19.596  10.924  10.715
31336W        W97745   0.283   4.223  12.491
31337W        W97746   7.653   9.865   2.785
31338W        W97747  24.128  26.531  13.604
31339W        W97748  43.934  27.654   0.244
31340W        W97749  30.568  44.504   4.203
31341W        W97750  21.261  14.630  14.771
31342W        W97751   7.793  30.248  11.552
31343W        W97752  34.796  17.018  12.024
31344W        W97753  44.628  19.550  10.614
31345W        W97754  19.592  34.944   1.140
31346W        W97755  24.102  24.069  13.400
31347W        W97756  29.397  36.580   1.725
31348W        W97757  16.569  26.986  11.568
31349W        W97758  35.121  18.783   3.311
31350W        W97759  20.157  25.866  12.441
31351W        W97760  31.461  44.901   2.770
31352W        W97761  31.517  20.001  13.539
31353W        W97762   4.668  44.302   2.655
31354W        W97763  33.667  14.819   1.553
31355W        W97764  27.942  10.178  13.764
31356W        W97765   3.793  30.915   1.807
31357W        W97766   1.488   8.981  12.117
31358W        W97767  27.543  31.096  10.899
31359W        W97768  36.023  37.405  11.842
31360W        W97769  41.219  26.734   1.345
31361W        W97770  33.056   3.333   9.795
31362W        W97771  37.622   0.637  11.000
31363W        W97772  26.913  44.845  10.705
31364W        W97773  29.206  34.415   3.570
31365W        W97774  13.274  33.144   4.283
31366W        W97775  43.941  14.462  11.584
31367W        W97776   9.681  31.925   1.410
31368W        W97777  34.976  32.979   0.937
31369W        W97778  32.325  23.893   3.467
31370W        W97779  44.208  30.973  14.340
31371W        W97780  19.724  27.914   3.721
31372W        W97781  34.132  22.423   3.670
31373W        W97782  30.339  33.854   1.403
31374W        W97783  24.584   3.358   4.170
31375W        W97784  21.218  44.322  13.096
31376W        W97785  42.528  31.903   4.226
31377W        W97786  27.187  41.322   0.869
31378W        W97787  11.596  17.108   3.331
31379W        W97788  39.867   9.318   3.573
31380W        W97789   8.732   2.436  11.579
31381W        W97790  29.344   4.775  10.234
31382W        W97791  25.715   0.838   1.292
31383W        W97792  39.521  10.227   3.206
31384W        W97793  36.805  11.413  14.869
31385W        W97794  29.908   6.350   3.164
31386W        W97795  19.345  37.365   4.183
31387W        W97796  32.198  20.644  14.268
31388W        W97797  11.739   7.826  13.907
31389W        W97798  20.164  38.341  14.489
31390W        W97799  21.281  16.745  10.675
31391W        W97800  38.881  31.292  11.094
31392W        W97801  16.270  10.900   3.484
31393W        W97802   8.730  10.584   2.784
31394W        W97803  41.700   2.223  12.863
31395W        W97804  29.165  17.652  10.378
31396W        W97805  41.988  28.676   2.204
31397W        W97806  18.707  13.062   0.889
31398W        W97807  33.977   6.771   4.246
31399W        W97808  38.381  16.778   4.265
31400W        W97809  40.078  35.115  10.620
31401W        W97810   1.201  40.396  10.677
31402W        W97811   4.355  12.734   3.253
31403W        W97812  20.832  19.858   0.926
31404W        W97813  29.108  23.117  14.870
31405W        W97814   7.360  41.810   0.915
31406W        W97815   6.914  44.400  14.437
31407W        W97816   3.877  22.099   0.692
31408W        W97817  34.313  44.790   4.204
31409W        W97818  37.780  22.202   1.926
31410W        W97819  38.340  26.158   4.444
31411W        W97820  19.053  18.095   1.029
31412W        W97821  13.129  19.680  14.957
31413W        W97822   1.263   0.694  14.964
31414W        W97823  42.994   0.910   1.239
31415W        W97824  41.114  15.692  10.296
31416W        W97825   7.148  20.023   2.324
31417W        W97826  11.861  17.591  14.908
31418W        W97827  26.498  35.053   1.543
31419W        W97828  27.267  22.803  12.845
31420W        W97829  39.300  29.065   2.760
31421W        W97830  12.211  18.145  11.074
31422W        W97831  22.973  15.918  14.059
31423W        W97832   5.767   1.069  13.977
31424W        W97833  12.175  24.452  13.393
31425W        W97834  31.522  27.210   4.707
31426W        W97835   5.334   6.778  12.843
31427W        W97836   6.265  14.653  13.871
31428W        W97837   7.325  32.315  12.081
31429W        W97838   6.933  36.912  12.066
31430W        W97839  41.382   3.265   4.697
31431W        W97840  20.707   6.730  10.706
31432W        W97841  20.156  21.246   2.247
31433W        W97842   8.847  16.456  14.894
31434W        W97843  29.666  38.390   1.967
31435W        W97844  34.895  15.540  12.992
31436W        W97845  28.603  19.292   3.659
31437W        W97846  32.800  37.823  11.253
31438W        W97847  13.521  42.977  14.931
31439W        W97848  40.504  16.383   4.931
31440W        W97849   6.831   4.270   1.743
31441W        W97850  43.049  22.435  11.067
31442W        W97851  28.789  24.237  14.203
31443W        W97852  16.293  30.417   0.283
31444W        W97853   6.677  44.441  13.378
31445W        W97854   2.902  13.245   4.914
31446W        W97855  38.146  38.969   4.687
31447W        W97856  31.071   6.177  11.993
31448W        W97857   8.286  11.947  12.999
31449W        W97858   9.433   0.398  14.040
31450W        W97859  25.146  34.950   0.208
31451W        W97860  38.038  43.857  14.795
31452W        W97861  13.340  22.718   4.358
31453W        W97862  18.326  15.408  10.417
31454W        W97863  34.508  39.775   0.010
31455W        W97864   9.364  11.324   2.998
31456W        W97865  11.987  26.466  10.303
31457W        W97866  27.671  34.359  14.776
31458W        W97867   8.787  41.497  11.246
31459W        W97868  19.958  13.852   0.826
31460W        W97869  14.314   4.993  10.823
31461W        W97870  40.298   9.962  13.897
31462W        W97871  15.350   0.068   3.537
31463W        W97872   0.036  41.339  14.074
31464W        W97873  28.460  27.029   0.454
31465W        W97874  12.567  22.251  10.134
31466W        W97875  24.453   1.894   1.801
31467W        W97876  23.052  41.468   2.375
31468W        W97877   3.848  10.231   3.151
31469W        W97878  18.056  43.959  10.755
31470W        W97879   7.555   5.344  12.038
31471W        W97880  10.138  35.132  12.543
31472W        W97881  44.290  33.535  11.477
31473W        W97882   2.320   4.487   1.831
31474W        W97883  31.311  15.828   0.815
31475W        W97884   2.316  21.891  13.027
31476W        W97885  35.733  42.916   4.563
31477W        W97886   3.791   5.715   4.377
31478W        W97887  18.387   7.836  12.129
31479W        W97888  32.597  12.957  10.740
31480W        W97889  10.420  42.280   1.873
31481W        W97890  37.676  32.437  12.292
31482W        W97891  25.407   5.938  14.516
31483W        W97892  23.914  29.127  13.539
31484W        W97893  23.932  18.060   9.931
31485W        W97894  26.901  32.683  13.158
31486W        W97895   6.918  31.139   0.472
31487W        W97896  29.674  13.798   2.795
31488W        W97897  13.377  29.113   1.764
31489W        W97898   0.979  12.365  11.044
31490W        W97899   0.365  15.754   4.592
31491W        W97900  22.559  22.065   0.430
31492W        W97901  42.027  40.632   2.884
31493W        W97902  21.140  35.956   2.383
31494W        W97903  13.281  12.594  11.035
31495W        W97904  38.416  43.907   2.345
31496W        W97905  44.968  36.639  12.871
31497W        W97906  34.306  25.640   0.469
31498W        W97907  39.512  25.335  13.891
31499W        W97908  26.162  16.145   2.398
31500W        W97909  11.770  23.605   1.893
31501W        W97910  24.499   9.167   0.840
31502W        W97911  42.937  40.577   1.327
31503W        W97912  11.709  12.539  10.589
31504W        W97913  44.476  30.500   4.486
31505W        W97914  19.262   1.567  13.608
31506W        W97915  10.009  44.264  12.378
31507W        W97916  28.909  36.803   4.048
31508W        W97917  20.042  17.572   4.980
31509W        W97918  22.290  27.401  13.599
31510W        W97919  31.490   0.925   2.712
31511W        W97920  39.897   3.404  13.025
31512W        W97921  15.262  34.163  10.249
31513W        W97922  20.648  23.529  11.935
31514W        W97923  21.310  12.361   2.834
31515W        W97924   1.414  22.227  14.895
31516W        W97925  43.308  38.208   2.151
31517W        W97926   4.624   6.680  11.169
31518W        W97927  14.043  19.002  14.033
31519W        W97928  43.730  37.792  13.853
31520W        W97929   9.791  25.990   4.022
31521W        W97930  16.709   6.180   1.224
31522W        W97931  22.462  24.577   9.812
31523W        W97932  28.214  12.267  14.507
31524W        W97933  24.162  20.061   2.653
31525W        W97934  12.740  22.427   2.281
31526W        W97935  38.899  33.072   3.401
31527W        W97936   4.762  23.283   0.904
31528W        W97937   8.637  30.387   4.107
31529W        W97938   8.880  35.135  14.374
31530W        W97939   4.246  13.212  11.871
31531W        W97940  28.931  19.792   0.961
31532W        W97941  21.666  29.315  14.324
31533W        W97942  29.161  28.567   2.389
31534W        W97943  14.231  21.718  12.559
31535W        W97944  12.302   3.462  14.808
31536W        W97945  44.363  37.803   1.708
31537W        W97946  17.175  19.331  12.548
31538W        W97947  25.152   0.958  12.873
31539W        W97948  22.616  20.694  11.583
31540W        W97949  41.658  11.781   1.391
31541W        W97950  30.968   4.910  12.214
31542W        W97951  18.520  10.086   0.810
31543W        W97952  20.561  31.568   1.223
31544W        W97953  39.705  17.665  14.663
31545W        W97954  33.612  26.421  12.440
31546W        W97955  40.396   7.802   1.298
31547W        W97956  40.171  13.008  12.971
31548W        W97957  43.821  20.546  11.158
31549W        W97958  28.893   0.929  12.918
31550W        W97959  16.696  24.417   4.635
31551W        W97960  10.638   6.726   4.774
31552W        W97961  41.953  18.009   5.074
31553W        W97962   6.657  19.523   0.896
31554W        W97963  27.003  28.486   0.204
31555W        W97964  34.891  12.444  10.815
31556W        W97965  41.264  15.364  12.532
31557W        W97966  29.558  37.047  13.477
31558W        W97967  24.011  10.620   4.747
31559W        W97968  17.224   1.592  10.434
31560W        W97969  25.557  35.054  10.919
31561W        W97970  41.792  44.255   0.783
31562W        W97971   3.035   7.497   1.008
31563W        W97972  24.668  44.930   2.401
31564W        W97973  23.757   8.914  11.127
31565W        W97974  33.191  39.452   0.780
31566W        W97975  29.207  11.991   2.303
31567W        W97976  43.787  32.675   3.901
31568W        W97977  24.988  23.124   4.571
31569W        W97978  39.056  12.115   1.454
31570W        W97979  17.267  39.019   0.797
31571W        W97980   0.508   9.689  12.039
31572W        W97981  13.936   1.471   9.778
31573W        W97982  12.181  27.526  14.285
31574W        W97983   4.226  31.558  14.757
31575W        W97984  43.311  36.685   2.095
31576W        W97985  39.838  14.744   2.876
31577W        W97986  22.526  16.715   2.830
31578W        W97987  41.238  30.042   3.131
31579W        W97988  32.999  36.871   0.256
31580W        W97989  11.515  41.337  11.135
31581W        W97990  27.517  30.026   2.624
31582W        W97991  24.063   1.456  11.718
31583W        W97992   2.280   4.384   3.871
31584W        W97993  12.778  22.137   0.086
31585W        W97994  38.805  26.238  11.587
31586W        W97995  30.572  15.095  13.554
31587W        W97996  44.606  41.360   0.498
31588W        W97997  12.504  36.986  14.797
31589W        W97998   7.327   1.673   4.871
31590W        W97999   2.355  13.195   1.688
31591W        W98000   1.054  40.750  11.247
31592W        W98001  34.815  42.077   3.661
31593W        W98002  17.250  37.509  12.019
31594W        W98003  36.387  44.490   1.042
31595W        W98004  11.254  24.008  12.733
31596W        W98005  31.131  35.995   2.732
31597W        W98006  38.274  24.181  11.199
31598W        W98007   7.793   4.791  12.177
31599W        W98008  41.852  33.057  10.529
31600W        W98009   0.930  41.546  14.000
31601W        W98010  30.991  42.334  12.377
31602W        W98011  19.894  43.908   1.805
31603W        W98012  36.109  28.152  12.172
31604W        W98013  28.149  31.738   1.849
31605W        W98014  20.634   9.547   2.353
31606W        W98015  36.166  34.751   5.198
31607W        W98016  19.230   8.720  13.084
31608W        W98017  36.774  42.532  12.174
31609W        W98018  23.890  13.621  14.457
31610W        W98019  26.198   6.865   4.597
31611W        W98020  40.765  30.047  10.557
31612W        W98021  25.090  12.199  10.883
31613W        W98022  12.252  43.780  14.500
31614W        W98023   9.201  19.628  11.570
31615W        W98024  22.035  32.577  10.784
31616W        W98025  13.224   2.077  14.404
31617W        W98026  11.969   7.822  13.454
31618W        W98027  15.134  11.346   0.675
31619W        W98028   2.881  32.361   1.438
31620W        W98029  33.114  29.867  11.564
31621W        W98030  14.478   5.514   1.181
31622W        W98031  34.607  30.357   3.875
31623W        W98032  32.564  13.775  11.452
31624W        W98033  44.821  43.949  11.527
31625W        W98034  19.068   7.291   3.964
31626W        W98035  12.813  19.053   5.328
31627W        W98036  40.469   0.076  12.015
31628W        W98037  21.440   7.101   1.600
31629W        W98038  41.731  42.787  11.012
31630W        W98039  12.551  27.422   0.283
31631W        W98040  21.247   1.548   3.881
31632W        W98041  30.606   8.430   4.215
31633W        W98042  14.731  15.142   3.855
31634W        W98043  13.601  41.323   1.846
31635W        W98044   6.310  12.323   0.482
31636W        W98045  40.552   6.391   3.339
31637W        W98046  40.100  42.499  14.914
31638W        W98047  12.947  44.351  12.506
31639W        W98048   0.221  40.347   0.011
31640W        W98049  34.537  31.851   2.833
31641W        W98050  38.132  12.225   0.757
31642W        W98051  31.399   5.718   3.700
31643W        W98052   9.569  20.822  10.372
31644W        W98053  13.941   4.185   0.699
31645W        W98054  31.166  14.604   2.394
31646W        W98055  12.224   5.259  11.160
31647W        W98056   2.617   5.862   4.600
31648W        W98057   9.677  25.522   3.776
31649W        W98058   7.727  26.149  13.324
31650W        W98059  34.804  37.631   3.615
31651W        W98060   6.869   8.616   1.713
31652W        W98061  32.016  25.176   1.183
31653W        W98062  22.743   0.431   2.201
31654W        W98063  23.128  43.467  13.923
31655W        W98064  12.089  37.623   0.275
31656W        W98065  16.167   2.485  12.168
31657W        W98066  35.667  15.102   4.347
31658W        W98067  41.910   6.628   2.241
31659W        W98068  37.568   1.865  12.731
31660W        W98069  43.936  26.381  12.930
31661W        W98070  34.538  11.624  14.339
31662W        W98071   6.857  35.345  12.033
31663W        W98072   7.086  20.741   4.062
31664W        W98073  29.006  20.877  11.356
31665W        W98074  39.556  30.448  10.451
31666W        W98075  35.824   1.885   3.095
31667W        W98076   7.452   0.842   1.242
31668W        W98077  15.477  15.583  13.951
31669W        W98078  42.261  42.021  14.365
31670W        W98079  38.391  27.458  12.923
31671W        W98080  44.279  32.275   1.864
31672W        W98081  25.457  17.144   2.136
31673W        W98082   4.483  12.791  11.190
31674W        W98083   2.762  35.138   0.796
31675W        W98084   8.256  42.454   0.183
31676W        W98085  31.940  33.034   2.176
31677W        W98086  19.793  10.190  14.868
31678W        W98087   6.979  29.665  14.454
31679W        W98088  23.367  37.952   3.765
31680W        W98089  26.402   6.685  10.319
31681W        W98090  29.939  28.664  14.435
31682W        W98091   0.917  25.303  14.421
31683W        W98092   7.293  17.281   0.253
31684W        W98093  10.180  13.135   1.395
31685W        W98094  37.343   4.130   2.660
31686W        W98095  10.266  12.827  10.473
31687W        W98096  28.997  42.003   0.996
31688W        W98097  15.574  18.555   0.012
31689W        W98098  29.192   6.946   2.098
31690W        W98099   0.744  11.308   1.847
31691W        W98100   1.921  10.602  14.956
31692W        W98101  38.859  20.893   3.085
31693W        W98102  40.556  42.462   1.716
31694W        W98103   0.012  13.563   4.828
31695W        W98104  14.548  10.994   0.069
31696W        W98105   8.891  18.349   1.380
31697W        W98106  25.722  37.961   0.272
31698W        W98107  17.961  31.502  12.054
31699W        W98108  11.966   6.382  10.213
31700W        W98109   1.895  39.292   3.085
31701W        W98110   7.854   9.768   4.120
31702W        W98111  32.402  41.098  12.535
31703W        W98112  18.514  35.036   5.025
31704W        W98113  28.400  17.540  14.396
31705W        W98114   6.986  19.361  14.316
31706W        W98115   7.451  38.116   0.313
31707W        W98116  24.924  43.060  14.432
31708W        W98117  10.744   6.830   4.086
31709W        W98118  32.695  43.734   4.067
31710W        W98119   3.001  18.634   2.694
31711W        W98120  36.379  10.436  10.711
31712W        W98121  16.884  29.114  12.969
31713W        W98122  24.006  43.320   3.357
31714W        W98123  12.510  27.592   1.702
31715W        W98124  16.179  41.660  10.979
31716W        W98125   8.429  20.544   1.044
31717W        W98126  33.528  11.126  11.208
31718W        W98127  37.295  10.844   3.684
31719W        W98128   8.648  43.111   1.868
31720W        W98129  11.822  35.314   3.543
31721W        W98130  34.922  32.584  10.326
31722W        W98131  40.295  38.342  11.230
31723W        W98132   2.381  26.164  14.098
31724W        W98133   8.624  22.154  10.691
31725W        W98134  16.989  35.857  10.662
31726W        W98135   3.797  29.247   0.809
31727W        W98136  19.275  41.869   4.126
31728W        W98137   6.311  19.330  12.155
31729W        W98138  16.132  15.622   1.936
31730W        W98139  17.271  37.290  13.939
31731W        W98140  13.291   5.417   1.052
31732W        W98141   2.163  36.470   2.762
31733W        W98142  40.168  35.347  11.988
31734W        W98143  41.301  25.294  13.898
31735W        W98144  18.096   1.353  14.450
31736W        W98145  21.381  18.679   0.927
31737W        W98146  34.286   8.961   2.467
31738W        W98147  29.063  12.097   4.573
31739W        W98148  35.793  35.119   0.545
31740W        W98149  29.487  15.705  10.663
31741W        W98150  36.137   3.673   0.641
31742W        W98151  30.824  15.001   0.517
31743W        W98152  17.660  21.386   5.253
31744W        W98153  34.659  25.656  11.672
31745W        W98154  10.779  35.598   1.692
31746W        W98155  34.569  38.288  11.435
31747W        W98156  19.296  20.033   3.619
31748W        W98157   2.072  30.109   4.212
31749W        W98158   7.194   0.199  14.350
31750W        W98159   0.124  24.708   2.289
31751W        W98160  18.676  18.693   3.656
31752W        W98161   9.358  12.140   2.871
31753W        W98162   7.398   6.248  13.900
31754W        W98163  13.636  14.285   4.250
31755W        W98164  15.210   5.411  14.526
31756W        W98165  17.304  23.320   4.597
31757W        W98166  12.607  42.916   2.368
31758W        W98167  41.601  18.691  10.299
31759W        W98168  12.307  44.306   2.208
31760W        W98169   1.454  32.482   1.189
31761W        W98170  28.969  31.834  14.458
31762W        W98171  43.867  17.547  12.505
31763W        W98172   9.090  32.619  12.432
31764W        W98173  18.225  16.784  12.102
31765W        W98174  19.329   4.215   1.496
31766W        W98175  33.880  29.337  11.530
31767W        W98176  43.705  35.548   3.693
31768W        W98177   4.228  19.826  10.713
31769W        W98178  41.994  26.682   2.346
31770W        W98179  15.256  18.549   4.529
31771W        W98180   1.652  31.444   0.233
31772W        W98181  29.857  15.827  11.971
31773W        W98182  14.809  38.560  14.008
31774W        W98183  24.101  44.044   2.884
31775W        W98184  11.272  25.781   1.390
31776W        W98185  40.330  11.197   4.661
31777W        W98186  31.251  26.187  13.408
31778W        W98187  36.951  17.044   2.163
31779W        W98188  42.791   9.270   1.427
31780W        W98189  15.066  39.824  14.966
31781W        W98190   5.860  31.081  11.866
31782W        W98191  32.135  25.158  14.893
31783W        W98192  15.182  22.822   9.878
31784W        W98193  35.092  30.155  13.114
31785W        W98194  16.322  44.798   4.568
31786W        W98195  26.156  22.484  14.363
31787W        W98196  32.011  36.452  11.933
31788W        W98197  39.668  15.691  13.174
31789W        W98198   5.348   5.737  13.811
31790W        W98199  27.121  10.120   0.897
31791W        W98200  44.271  18.249  12.111
31792W        W98201  25.680  25.246  11.877
31793W        W98202  37.276  43.862   1.782
31794W        W98203   3.933  38.854  12.616
31795W        W98204  38.872  37.436   0.677
31796W        W98205  16.352   3.722   2.952
31797W        W98206  27.078   3.008   1.014
31798W        W98207  27.451  40.807   2.681
31799W        W98208  22.039  35.614  13.370
31800W        W98209   6.643  43.502  11.686
31801W        W98210  34.117  39.457  10.567
31802W        W98211   9.738   9.310  13.323
31803W        W98212   6.824  24.396  12.444
31804W        W98213  15.806  19.892   9.753
31805W        W98214  23.011  15.222   1.638
31806W        W98215  28.397  27.211  13.960
31807W        W98216   1.046  30.646  14.444
31808W        W98217   9.631   4.783   4.429
31809W        W98218  35.468  34.547   2.556
31810W        W98219   3.218  37.481   1.797
31811W        W98220  41.438  10.008   3.170
31812W        W98221  23.104  42.209   0.767
31813W        W98222  26.638  39.578   3.251
31814W        W98223  41.405  42.588   2.663
31815W        W98224   5.884  23.013  10.703
31816W        W98225  44.334  31.698   2.861
31817W        W98226  41.844  33.976   4.276
31818W        W98227  23.183   7.157  10.943
31819W        W98228  22.681  19.147  13.857
31820W        W98229   9.622  26.057   1.667
31821W        W98230   1.268   3.314  14.429
31822W        W98231  39.844   5.249  10.724
31823W        W98232  33.017  12.103  12.487
31824W        W98233  23.744  37.174   1.470
31825W        W98234   0.800   6.596   4.059
31826W        W98235   4.513   2.457   0.488
31827W        W98236   1.774  40.122   1.492
31828W        W98237  17.653  22.265  13.917
31829W        W98238  23.758  32.538   0.530
31830W        W98239  20.168  12.098   0.974
31831W        W98240  18.208  43.804   0.457
31832W        W98241   3.291  40.418  11.676
31833W        W98242  11.568  18.252   1.672
31834W        W98243  43.408  12.898   0.039
31835W        W98244  26.480  14.301   2.103
31836W        W98245  31.461   8.874  11.532
31837W        W98246   5.924  36.880  11.649
31838W        W98247  21.764  25.263   2.751
31839W        W98248  26.557   0.002  14.700
31840W        W98249  26.276  43.724   1.174
31841W        W98250  43.302  17.986  10.427
31842W        W98251  40.573  25.012   3.905
31843W        W98252   6.659  40.497   2.332
31844W        W98253  14.655  21.600  11.784
31845W        W98254  44.750  19.035   0.763
31846W        W98255  33.633  15.215  10.656
31847W        W98256  16.562  27.024   4.899
31848W        W98257   0.402  16.144  11.972
31849W        W98258  42.481   4.325   1.336
31850W        W98259  10.941  44.838  11.033
31851W        W98260  32.626  13.871   2.065
31852W        W98261  23.104  31.867  13.469
31853W        W98262  27.002  24.937   1.224
31854W        W98263   5.438   1.802  10.554
31855W        W98264  32.264  36.299   3.348
31856W        W98265  18.698  22.541   5.493
31857W        W98266  18.298   4.243  12.464
31858W        W98267   8.423  24.815  13.412
31859W        W98268  30.444  18.214   2.374
31860W        W98269  34.966  38.539  11.671
31861W        W98270  42.520  23.693   3.367
31862W        W98271  19.873  10.635   2.738
31863W        W98272  37.970  41.402  10.303
31864W        W98273   4.497  39.884   0.876
31865W        W98274   0.009  20.188   3.597
31866W        W98275  13.737  13.563  12.198
31867W        W98276  13.317   1.291  12.526
31868W        W98277   3.023   0.019   3.905
31869W        W98278  37.565  16.753  11.178
31870W        W98279  17.912  26.577   0.047
31871W        W98280  16.279  29.625   0.111
31872W        W98281  12.485  24.404  12.984
31873W        W98282  19.971   3.926   0.135
31874W        W98283  18.887  11.201  12.522
31875W        W98284  25.109  14.149   3.723
31876W        W98285   9.829  24.234  13.564
31877W        W98286  31.979  34.333   0.466
31878W        W98287  32.746   3.582  13.406
31879W        W98288  35.588  26.955  11.599
31880W        W98289  35.502  25.954   3.742
31881W        W98290  37.706   3.378  12.073
31882W        W98291   8.382  35.454   1.781
31883W        W98292   1.064   6.407  10.801
31884W        W98293  34.992  27.959  11.210
31885W        W98294  29.091  37.709  13.588
31886W        W98295  43.135  11.103   4.925
31887W        W98296  43.904  29.726  13.533
31888W        W98297  40.451  15.836  12.426
31889W        W98298  39.618  27.977  11.783
31890W        W98299  16.006  42.797  14.767
31891W        W98300  16.618  27.578   0.740
31892W        W98301  24.603  23.683   4.071
31893W        W98302  17.343  35.976  12.950
31894W        W98303  44.275   4.410   1.955
31895W        W98304   3.731  31.305  13.315
31896W        W98305  13.778  15.186   4.710
31897W        W98306  18.167  19.511   4.651
31898W        W98307   0.399   9.395  13.501
31899W        W98308  26.424  38.977   4.101
31900W        W98309  15.350  34.477  14.905
31901W        W98310  30.519  43.837   0.271
31902W        W98311  24.086   8.358   0.205
31903W        W98312  43.512  18.532  11.815
31904W        W98313  19.266  27.039  12.048
31905W        W98314  18.988  16.390  13.426
31906W        W98315  32.883  11.792  11.091
31907W        W98316  32.550  17.108   1.874
31908W        W98317  43.931  20.230   2.780
31909W        W98318  26.940  31.436   4.633
31910W        W98319  37.065  39.882   2.132
31911W        W98320  22.204  44.380  13.452
31912W        W98321   3.368   9.639  12.659
31913W        W98322  33.072  30.912  11.544
31914W        W98323  18.694   8.933   3.312
31915W        W98324  31.128  38.144  13.611
31916W        W98325  12.383  42.648   4.351
31917W        W98326  19.264  25.550   4.591
31918W        W98327  14.016   8.294  10.726
31919W        W98328  31.566  41.553  14.995
31920W        W98329  13.886   7.718   3.628
31921W        W98330  13.871  14.120   2.317
31922W        W98331  18.790  27.162   3.749
31923W        W98332  26.536  44.386  11.292
31924W        W98333  18.837   4.948  12.076
31925W        W98334  44.969  23.532   0.251
31926W        W98335   0.987  14.382  12.436
31927W        W98336  19.921   0.321  10.937
31928W        W98337  19.303   8.300  12.289
31929W        W98338  22.723   9.627  12.039
31930W        W98339  27.093  36.997  11.979
31931W        W98340  42.607  24.202   3.344
31932W        W98341  25.869  27.794   2.140
31933W        W98342  22.839  23.003   2.359
31934W        W98343  33.341  25.535   3.323
31935W        W98344  31.455  41.564  12.510
31936W        W98345  14.199  33.508   2.521
31937W        W98346  11.281  22.130  14.904
31938W        W98347  33.073  25.735  12.607
31939W        W98348   5.250  15.776   4.591
31940W        W98349   2.274  35.526   0.306
31941W        W98350  28.697  25.095   2.712
31942W        W98351  15.617  37.927   2.577
31943W        W98352   3.783  44.435   4.368
31944W        W98353   2.869  43.793   3.548
31945W        W98354  43.943  34.931  12.765
31946W        W98355  37.122  15.143   9.750
31947W        W98356  32.788  35.382  11.144
31948W        W98357   7.326  12.489  11.068
31949W        W98358   1.459  38.928  12.648
31950W        W98359  34.833  27.241   2.235
31951W        W98360  15.823   7.017   9.955
31952W        W98361   5.501  14.663  12.084
31953W        W98362  20.296  42.459   0.211
31954W        W98363  43.482  23.369   4.011
31955W        W98364  36.810  38.373   3.748
31956W        W98365  24.649  34.243  12.864
31957W        W98366   3.294   0.540   4.753
31958W        W98367  29.936   6.273  11.408
31959W        W98368  44.422  39.830  10.786
31960W        W98369   1.384  27.625   2.492
31961W        W98370  37.453  27.952  12.949
31962W        W98371  33.021  14.736  14.411
31963W        W98372  21.122  43.412  10.518
31964W        W98373  11.369  39.902  14.972
31965W        W98374   5.353  27.158   0.775
31966W        W98375  42.040  16.896   2.678
31967W        W98376  16.644  33.367  12.280
31968W        W98377  11.860  43.777   1.858
31969W        W98378  20.876  32.149   3.850
31970W        W98379  42.384  28.099  12.370
31971W        W98380  19.126  38.808  14.458
31972W        W98381  14.764  37.566  14.268
31973W        W98382   3.481  41.058   1.809
31974W        W98383   8.605  43.538  11.868
31975W        W98384  35.226  44.498   0.888
31976W        W98385  30.063   8.927   2.405
31977W        W98386  33.872  42.115  11.933
31978W        W98387   1.185  32.162   1.780
31979W        W98388   3.643  28.138  14.309
31980W        W98389  17.104   3.809  14.972
31981W        W98390   0.025   8.772   0.830
31982W        W98391  15.858  31.024   0.103
31983W        W98392  31.500   3.013   3.055
31984W        W98393   0.248   6.654  12.426
31985W        W98394  15.247  13.214   2.281
31986W        W98395  30.461   1.721  11.600
31987W        W98396  38.259  33.349   0.627
31988W        W98397  41.879   3.938   4.028
31989W        W98398  44.226  22.465  13.031
31990W        W98399   8.616  28.726   1.953
31991W        W98400  22.621  26.154  14.302
31992W        W98401  35.550  38.861  12.846
31993W        W98402  41.900   3.460   3.782
31994W        W98403   8.378   0.170   2.091
31995W        W98404   3.161  30.451  11.109
31996W        W98405  42.223   4.454  10.493
31997W        W98406  16.534  14.558  11.965
31998W        W98407  23.070  35.108  13.949
31999W        W98408  15.472  26.001  12.410
32000W        W98409  37.310  18.421   2.837
32001W        W98410  10.752  31.692  13.979
32002W        W98411  14.894  32.573   4.294
32003W        W98412  26.548  44.801   3.821
32004W        W98413  10.875  34.120   5.306
32005W        W98414  16.215  30.927   1.420
32006W        W98415  41.343   7.887   0.035
32007W        W98416  13.180  37.377   3.614
32008W        W98417  42.513   2.941  11.696
32009W        W98418   6.760   0.885  13.110
32010W        W98419  20.871  10.333   2.662
32011W        W98420  18.793  31.192  13.716
32012W        W98421  13.804  14.182   0.949
32013W        W98422  25.858  34.138  14.392
32014W        W98423  34.190  35.097  14.746
32015W        W98424  20.471   8.816  14.764
32016W        W98425  17.807   2.752  12.836
32017W        W98426  16.294  14.227  13.548
32018W        W98427  44.784  15.717   1.658
32019W        W98428  37.597  29.368   0.673
32020W        W98429  19.350  12.210  13.973
32021W        W98430   2.577   0.182  12.401
32022W        W98431  23.642   6.786  14.879
32023W        W98432  15.704  29.379   5.179
32024W        W98433  17.290  32.337   2.026
32025W        W98434  30.255   3.260   1.045
32026W        W98435  34.021  37.457   0.749
32027W        W98436  24.232  44.289   4.283
32028W        W98437  19.525  32.107   1.832
32029W        W98438  19.065  41.502   3.179
32030W        W98439   7.243  11.024   4.463
32031W        W98440  33.936  27.120   0.444
32032W        W98441  19.513   3.061   2.794
32033W        W98442  21.056   1.792  13.819
32034W        W98443  12.730   9.655  13.381
32035W        W98444   1.426  36.060   4.091
32036W        W98445  15.582  23.628  12.039
32037W        W98446   7.630   1.981   5.120
32038W        W98447  31.318  21.616  13.889
32039W        W98448  17.726  29.949  11.180
32040W        W98449  27.630   0.797  12.539
32041W        W98450  20.022  22.665  11.127
32042W        W98451  14.613  34.554   0.378
32043W        W98452  23.701  43.972  12.801
32044W        W98453  28.767  14.778   4.147
32045W        W98454   9.797  40.264  11.365
32046W        W98455   8.436  28.306  12.636
32047W        W98456  36.993  40.304   0.240
32048W        W98457   2.938   1.850   0.393
32049W        W98458  11.271  22.555  14.594
32050W        W98459  38.468  28.971  10.946
32051W        W98460  21.241   7.735   0.002
32052W        W98461  16.687  13.030   3.106
32053W        W98462   0.996   4.298   2.405
32054W        W98463  27.950  26.996   0.457
32055W        W98464  27.295  18.850  13.356
32056W        W98465  17.583  23.616  11.247
32057W        W98466  12.779  19.045   0.688
32058W        W98467  32.846  26.361   0.398
32059W        W98468  35.942  27.825   1.538
32060W        W98469   1.047   3.928  11.616
32061W        W98470  32.936  21.750  13.776
32062W        W98471  20.736  21.185  13.110
32063W        W98472  29.921  38.824   2.159
32064W        W98473  29.101  32.435   0.839
32065W        W98474  40.545  38.649   4.822
32066W        W98475  37.852  14.617   2.854
32067W        W98476  28.847  43.939  10.509
32068W        W98477  21.416  15.800  11.477
32069W        W98478  38.828  42.370   1.190
32070W        W98479  35.687  44.910  13.716
32071W        W98480  39.903  11.914  11.578
32072W        W98481  40.505   1.358   1.611
32073W        W98482  11.357  42.704   0.787
32074W        W98483   8.764   9.308  13.973
32075W        W98484  19.564  28.976   1.156
32076W        W98485  10.962  31.369  13.605
32077W        W98486  25.667  39.631  14.482
32078W        W98487  17.614  36.925  13.782
32079W        W98488   1.900   0.175  11.383
32080W        W98489   9.263  38.011   4.682
32081W        W98490  32.315   1.991   3.342
32082W        W98491  25.258  28.143   1.439
32083W        W98492  25.513  22.549  14.860
32084W        W98493  34.229  17.488  14.853
32085W        W98494  26.030  14.357  12.425
32086W        W98495  25.628  40.331  13.338
32087W        W98496   0.524  42.704  10.549
32088W        W98497   5.443  42.705   3.270
32089W        W98498  11.251  22.125   3.892
32090W        W98499  41.428  25.726  12.161
32091W        W98500  28.041  35.897   1.500
32092W        W98501   4.255   2.911   0.474
32093W        W98502  41.068  13.876   0.973
32094W        W98503  17.563  21.545  13.475
32095W        W98504  34.177  19.207   3.195
32096W        W98505  34.451  36.479   0.750
32097W        W98506   2.445  37.936  13.358
32098W        W98507  16.976  26.490   3.727
32099W        W98508  29.055  27.621   3.105
32100W        W98509  30.332   3.402  13.894
32101W        W98510  13.119  38.784  14.043
32102W        W98511  35.830   5.221   4.580
32103W        W98512  22.454   8.742   4.528
32104W        W98513  27.779  38.484   4.581
32105W        W98514  23.796   0.562   1.496
32106W        W98515  30.706   9.579   1.907
32107W        W98516  18.878  29.374  13.622
32108W        W98517  32.429  29.107   4.549
32109W        W98518   2.054   3.855   1.270
32110W        W98519  41.655  29.696  10.996
32111W        W98520   5.314  27.772   3.686
32112W        W98521  39.931  42.872  10.926
32113W        W98522   0.571  32.891   0.751
32114W        W98523  12.740  14.438  11.217
32115W        W98524   5.364   8.641   2.322
32116W        W98525   4.509  28.621   5.076
32117W        W98526   5.866  39.744  12.146
32118W        W98527  32.880  25.437   3.117
32119W        W98528   9.877  13.823  14.799
32120W        W98529  33.382  18.803  13.021
32121W        W98530  29.986  13.535  13.869
32122W        W98531  43.949   0.717  10.365
32123W        W98532  26.184  16.693   1.176
32124W        W98533  13.860  40.931   2.077
32125W        W98534  34.919  22.474  13.836
32126W        W98535  28.072  25.109   4.614
32127W        W98536  18.263   5.313  14.862
32128W        W98537  34.440  22.060  11.608
32129W        W98538  38.668  37.488   1.184
32130W        W98539  11.132  19.489  12.261
32131W        W98540  31.481   7.332   1.836
32132W        W98541  41.473   1.808  12.617
32133W        W98542   9.828  30.278  13.955
32134W        W98543   9.432  31.887  12.984
32135W        W98544   5.881  20.899   1.440
32136W        W98545   8.495  20.192   1.798
32137W        W98546   3.960  44.048  12.829
32138W        W98547  15.530  10.208  13.098
32139W        W98548  44.472   1.476  12.622
32140W        W98549   9.639   8.619   1.731
32141W        W98550  23.016  29.392  13.559
32142W        W98551  38.170  41.125   0.398
32143W        W98552  15.651  39.547   5.439
32144W        W98553   1.288  33.957   2.472
32145W        W98554  26.075  38.123   0.996
32146W        W98555  30.943  44.151   0.259
32147W        W98556   0.844  20.244   0.854
32148W        W98557  34.154  22.513  13.432
32149W        W98558  32.350   8.094  14.340
32150W        W98559  17.329   7.314  13.787
32151W        W98560   8.756  27.206  13.560
32152W        W98561  39.517  44.847   0.123
32153W        W98562  16.677  41.893  14.499
32154W        W98563   9.915  23.172  14.564
32155W        W98564  21.198  14.190   3.062
32156W        W98565  43.860  21.644  12.109
32157W        W98566   6.692  38.320   3.321
32158W        W98567  37.267  37.423   3.783
32159W        W98568  10.298   3.523  14.853
32160W        W98569  29.451  18.272  14.745
32161W        W98570  15.369  36.915   2.143
32162W        W98571  34.797  21.666  11.606
32163W        W98572   3.642  24.203   3.702
32164W        W98573   4.939  19.556  14.438
32165W        W98574  25.980  11.022  14.859
32166W        W98575   1.260   8.569   4.038
32167W        W98576  13.782  12.394   0.912
32168W        W98577  21.167  18.625  12.701
32169W        W98578  40.960  35.145  10.634
32170W        W98579  19.438  42.829   0.945
32171W        W98580  42.390  17.326   0.991
32172W        W98581  14.271  34.586  13.975
32173W        W98582  12.638  30.900   1.757
32174W        W98583  35.783   4.868  11.900
32175W        W98584  24.682  10.834   4.133
32176W        W98585  36.516  33.376   1.459
32177W        W98586  10.926  22.100  10.551
32178W        W98587   2.465  33.069   4.502
32179W        W98588  44.556   4.822   3.614
32180W        W98589  28.960  13.280  12.609
32181W        W98590  38.879   3.243  11.127
32182W        W98591  11.268  27.048   2.438
32183W        W98592   2.375   2.888   2.145
32184W        W98593  32.527  37.348   3.665
32185W        W98594  30.396   0.962  12.905
32186W        W98595   8.117  12.835   1.334
32187W        W98596   6.625  37.102  10.746
32188W        W98597   4.769  29.527  14.561
32189W        W98598   5.900  17.302  13.340
32190W        W98599  16.578  24.467  12.482
32191W        W98600  29.509  15.259  12.919
32192W        W98601  39.489  34.024   1.914
32193W        W98602  25.891  36.187  12.505
32194W        W98603  43.706  21.797  13.000
32195W        W98604  29.189  32.602   4.789
32196W        W98605  14.036  16.677  14.985
32197W        W98606   0.398  38.613  13.936
32198W        W98607  39.362  34.570  14.434
32199W        W98608  18.364  28.891  12.866
32200W        W98609  37.119   7.272   2.162
32201W        W98610  32.078   4.661   3.191
32202W        W98611  42.486  40.984   2.782
32203W        W98612   3.252  34.868  14.049
32204W        W98613  25.397  22.301  11.232
32205W        W98614  16.241  44.429  14.692
32206W        W98615   1.701  10.358  13.845
32207W        W98616  15.241  12.379  14.944
32208W        W98617  30.601  17.220   4.515
32209W        W98618   6.885   6.846  12.563
32210W        W98619  33.383   3.351  11.691
32211W        W98620  17.026  22.986  11.029
32212W        W98621   0.311  13.015  13.617
32213W        W98622  43.873  40.744  14.519
32214W        W98623  44.393  32.623  12.640
32215W        W98624  37.342  22.011  14.025
32216W        W98625  29.908  18.496   2.669
32217W        W98626  10.630  11.253   3.960
32218W        W98627  38.987  17.557  11.188
32219W        W98628  18.840   2.132   4.378
32220W        W98629   7.193  20.124  14.879
32221W        W98630   4.303   3.892  14.828
32222W        W98631  24.562   6.326   3.199
32223W        W98632  27.524  10.126   1.845
32224W        W98633  26.428  26.060   0.288
32225W        W98634  41.816  17.846  14.444
32226W        W98635  33.128  13.124   1.401
32227W        W98636  33.782   5.860   2.191
32228W        W98637  10.182   4.342   3.276
32229W        W98638  23.400   4.357  11.728
32230W        W98639  19.317  13.670  11.121
32231W        W98640  17.017   5.011   3.157
32232W        W98641   5.841  20.773  11.021
32233W        W98642  16.639  24.102  13.285
32234W        W98643  12.846  26.157  14.519
32235W        W98644  19.187  38.547   2.628
32236W        W98645  21.055  41.002   4.179
32237W        W98646  36.486  25.040  12.161
32238W        W98647  23.602  22.506   2.128
32239W        W98648   0.425   3.436  12.955
32240W        W98649  43.419   3.711   3.172
32241W        W98650  23.508   5.001   4.150
32242W        W98651  19.338  44.709   0.880
32243W        W98652  40.492  26.153  11.029
32244W        W98653   1.458  39.280  13.978
32245W        W98654  29.058  25.604   1.899
32246W        W98655   6.128   1.444  13.998
32247W        W98656  22.763   8.126   3.723
32248W        W98657  28.822  10.630  13.042
32249W        W98658  43.305   3.112   4.923
32250W        W98659  21.219  31.999  10.738
32251W        W98660  11.117  12.589   3.712
32252W        W98661  29.610  37.466   4.087
32253W        W98662   8.581  17.661   1.406
32254W        W98663  16.081  11.058   4.201
32255W        W98664  35.480  17.844   2.012
32256W        W98665  33.005  26.309   4.091
32257W        W98666  22.299   3.227  10.592
32258W        W98667   8.938  38.018  13.612
32259W        W98668  22.551  29.390   0.715
32260W        W98669  30.594  27.015  12.405
32261W        W98670   8.666  31.693   1.912
32262W        W98671   6.455   4.349  13.163
32263W        W98672  15.251  22.695   2.328
32264W        W98673   6.231  42.541  11.200
32265W        W98674  37.648  18.857  12.501
32266W        W98675  18.749  17.787  11.164
32267W        W98676  43.030   5.679  13.831
32268W        W98677  31.019  29.956   3.330
32269W        W98678   5.485   3.882   1.957
32270W        W98679  11.898  37.347   1.614
32271W        W98680  12.777  16.223  13.356
32272W        W98681  11.918  31.534   2.881
32273W        W98682  42.704   5.145  12.261
32274W        W98683  12.391  32.440   0.908
32275W        W98684  32.861  35.600   1.830
32276W        W98685  38.782  25.049  11.842
32277W        W98686  24.819  15.233  12.326
32278W        W98687  18.187  41.312  10.553
32279W        W98688   0.403  21.155   1.547
32280W        W98689  28.470   1.954  14.975
32281W        W98690   7.853  36.857   1.944
32282W        W98691  16.475   1.644   4.855
32283W        W98692   8.576  25.339  14.848
32284W        W98693  39.047  38.887  12.531
32285W        W98694  15.156  20.653   1.745
32286W        W98695  20.103  40.719  11.989
32287W        W98696   4.725  37.872  11.565
32288W        W98697  18.139   2.470   4.025
32289W        W98698  25.134  31.028   4.985
32290W        W98699  39.148   1.002   1.740
32291W        W98700  16.046  42.312   0.545
32292W        W98701   2.982   4.078  12.844
32293W        W98702  14.167   3.295   2.812
32294W        W98703  34.401  13.537   4.368
32295W        W98704  34.316  42.737  13.193
32296W        W98705  32.510   7.208  13.952
32297W        W98706  39.823  24.180   2.726
32298W        W98707  13.034  13.761   3.257
32299W        W98708  12.814  16.900   1.929
32300W        W98709  35.198  33.697  10.295
32301W        W98710  12.866  34.348   1.138
32302W        W98711  17.242   2.856   3.941
32303W        W98712  18.623   5.284   2.193
32304W        W98713  18.339   4.250   4.635
32305W        W98714  15.244  12.472  12.987
32306W        W98715  13.636  33.998  13.963
32307W        W98716  19.572  37.855  13.114
32308W        W98717   4.411   4.397  11.155
32309W        W98718  22.626  17.884   0.828
32310W        W98719  41.939  10.187   1.427
32311W        W98720  31.858  20.709   1.481
32312W        W98721  11.768  19.505  10.161
32313W        W98722  15.830  30.591  14.323
32314W        W98723  16.654  14.550  14.226
32315W        W98724  16.684  27.374  13.729
32316W        W98725  39.078  19.075   5.383
32317W        W98726   8.832  26.684  13.527
32318W        W98727  11.251   5.376   1.261
32319W        W98728   6.748   8.233   3.550
32320W        W98729  29.151  11.621  14.082
32321W        W98730  32.334  42.758  14.494
32322W        W98731  14.178  35.944  13.288
32323W        W98732   0.547  23.771  14.419
32324W        W98733  19.064  22.020  12.891
32325W        W98734  38.351  21.949   3.658
32326W        W98735  14.426  33.450   4.277
32327W        W98736   3.663  15.259  11.937
32328W        W98737  17.791  16.874  12.909
32329W        W98738  22.896   2.441   1.303
32330W        W98739  23.402   7.669  14.457
32331W        W98740   5.573  25.517  11.988
32332W        W98741  21.259   5.623  11.167
32333W        W98742   4.001  10.861  13.698
32334W        W98743  13.259  22.580   3.887
32335W        W98744  33.445  23.732  14.934
32336W        W98745  19.627  38.119  13.574
32337W        W98746  25.083  43.707  10.843
32338W        W98747  31.806   0.256  13.889
32339W        W98748  17.269  14.065   2.120
32340W        W98749  14.668  37.943   2.658
32341W        W98750  41.950  19.464  13.455
32342W        W98751  10.868  15.956  14.230
32343W        W98752  29.576  41.488   3.209
32344W        W98753   2.898  32.697  13.518
32345W        W98754  24.488  18.831   0.450
32346W        W98755  39.798   3.164  11.885
32347W        W98756  38.831  33.561   4.939
32348W        W98757  32.831   5.776  14.535
32349W        W98758  31.154  21.772   2.680
32350W        W98759  40.318  25.875  14.270
32351W        W98760  16.771  37.437   3.996
32352W        W98761  24.572   1.503  13.432
32353W        W98762  19.015  16.378   2.103
32354W        W98763   5.200  25.195   3.632
32355W        W98764   3.513  41.552   1.963
32356W        W98765  18.169  21.749  12.381
32357W        W98766   6.077  36.359   4.320
32358W        W98767  30.010  42.173  11.073
32359W        W98768  11.238  43.734   4.000
32360W        W98769  25.769  11.229  12.205
32361W        W98770  44.360  13.685  13.244
32362W        W98771  40.685  26.170   0.941
32363W        W98772  30.040  26.461  13.987
32364W        W98773  12.805  44.239  10.910
32365W        W98774  13.692  28.161   0.753
32366W        W98775  41.459  44.764   2.727
32367W        W98776  38.261  19.266   3.269
32368W        W98777  14.144  18.440   3.304
32369W        W98778  13.341  15.314  14.839
32370W        W98779  25.569  25.540  13.372
32371W        W98780  21.730  38.405   2.774
32372W        W98781  23.618  44.020   1.129
32373W        W98782  25.525  27.530  14.999
32374W        W98783  41.842   7.152   3.166
32375W        W98784  28.197  30.957  12.211
32376W        W98785   3.686   6.787  11.430
32377W        W98786  37.452  19.287   3.221
32378W        W98787   3.261  15.687   3.207
32379W        W98788  26.164  18.339   0.821
32380W        W98789  22.121   6.671   3.831
32381W        W98790  44.964  40.723  13.362
32382W        W98791  39.974   3.883  10.946
32383W        W98792  20.759  33.730   1.101
32384W        W98793  10.668  38.288   4.019
32385W        W98794   2.690  14.194   1.669
32386W        W98795  30.139  39.915   2.637
32387W        W98796  22.538  15.721  14.856
32388W        W98797  22.544   8.154   1.222
32389W        W98798   9.705  25.584   1.918
32390W        W98799  34.591  23.260   1.389
32391W        W98800  23.633  29.967  10.932
32392W        W98801  21.756   2.809   0.826
32393W        W98802   8.452  14.364  13.072
32394W        W98803  26.335   3.863  13.531
32395W        W98804   1.853   9.443   3.431
32396W        W98805  33.689   0.597   5.023
32397W        W98806   1.991  34.894   0.322
32398W        W98807  19.516  20.202  13.358
32399W        W98808  40.776  38.682   4.136
32400W        W98809  33.399   7.303   4.557
32401W        W98810  38.334   7.008  11.214
32402W        W98811  41.798   2.545   0.741
32403W        W98812  22.597   6.933  11.190
32404W        W98813   7.733  12.632  13.268
32405W        W98814  16.095   3.825  10.539
32406W        W98815  25.529   9.280   2.654
32407W        W98816  14.355  39.119  12.079
32408W        W98817   1.059  28.355  12.363
32409W        W98818  20.688  10.207  13.636
32410W        W98819  21.527   1.965   4.062
32411W        W98820  12.799  32.787   4.542
32412W        W98821  28.115  18.529  12.161
32413W        W98822  19.221  29.052  12.927
32414W        W98823  37.439  26.526  11.028
32415W        W98824  26.982  33.847   2.848
32416W        W98825   6.192   9.590  14.955
32417W        W98826  17.685  43.314  13.929
32418W        W98827  29.151  24.589  13.496
32419W        W98828  25.854  32.105  12.042
32420W        W98829  33.575  35.545   2.406
32421W        W98830  11.702  31.979  14.826
32422W        W98831  17.246   4.405  10.695
32423W        W98832  22.602  30.123   4.617
32424W        W98833  11.716  36.576  12.579
32425W        W98834  25.099  18.674  11.532
32426W        W98835  35.173   0.173   4.049
32427W        W98836  35.637  41.699  13.857
32428W        W98837  27.413  27.169   2.666
32429W        W98838  43.590  33.011   0.097
32430W        W98839  28.698  36.540  10.615
32431W        W98840  40.924  37.838  11.102
32432W        W98841  24.340  25.295  12.102
32433W        W98842  26.566  43.980   1.652
32434W        W98843  30.835  10.334   3.058
32435W        W98844  40.611  39.773   1.406
32436W        W98845   9.096  32.082  13.346
32437W        W98846  38.577   9.154  12.545
32438W        W98847  35.228  14.577   0.698
32439W        W98848  32.615  17.536   1.548
32440W        W98849   1.373  30.078  13.562
32441W        W98850   3.725  30.410  11.984
32442W        W98851  33.875  20.949  13.328
32443W        W98852  33.128  14.704   0.316
32444W        W98853  20.811  18.777  11.441
32445W        W98854   9.635  35.792  13.943
32446W        W98855  20.059  31.452   3.294
32447W        W98856   1.844  18.006  13.012
32448W        W98857  42.400   8.015   1.759
32449W        W98858  20.992  19.442  13.871
32450W        W98859   2.725  19.447   4.110
32451W        W98860  21.699  43.654   1.878
32452W        W98861  13.552  44.446   0.771
32453W        W98862   2.059   7.930   5.066
32454W        W98863  17.584  36.821   3.710
32455W        W98864  43.758  44.094   2.407
32456W        W98865  19.322  29.676   0.398
32457W        W98866  13.148  10.853  11.722
32458W        W98867   5.278  19.594   1.664
32459W        W98868   3.181  37.906  11.529
32460W        W98869  15.642  35.489  11.413
32461W        W98870  10.082  18.814  12.420
32462W        W98871  16.072  25.632  11.102
32463W        W98872  29.533  19.994  14.413
32464W        W98873  26.873  34.414   0.896
32465W        W98874  14.193   4.968  12.077
32466W        W98875  41.829  21.177   0.780
32467W        W98876  39.347  43.789  13.810
32468W        W98877  36.517  32.556   0.302
32469W        W98878  28.653   5.662  11.012
32470W        W98879   1.036  18.837   0.860
32471W        W98880  22.143  17.096  11.656
32472W        W98881  34.389  13.826  14.300
32473W        W98882  23.573  24.754   0.844
32474W        W98883   1.775  15.360   4.614
32475W        W98884   2.619  25.188   2.848
32476W        W98885   7.832  26.980   0.791
32477W        W98886  26.638  26.552  14.421
32478W        W98887  15.043   0.920  10.969
32479W        W98888  37.844  38.606   1.613
32480W        W98889  24.214  35.886   1.430
32481W        W98890  33.605  21.120   0.187
32482W        W98891   4.369  41.159  12.377
32483W        W98892  25.148  16.246   1.405
32484W        W98893  23.089  30.907   3.952
32485W        W98894  27.329  15.613  14.856
32486W        W98895  35.574  36.228   1.944
32487W        W98896  44.583   1.911   4.282
32488W        W98897   2.621  13.848   1.147
32489W        W98898  14.639  19.215  11.463
32490W        W98899  16.753  15.374   3.847
32491W        W98900  33.030  43.415   3.679
32492W        W98901  23.556  16.623  14.491
32493W        W98902   4.014  10.239   2.309
32494W        W98903  39.561   2.175   2.942
32495W        W98904  25.516  28.544  12.935
32496W        W98905  11.273  15.621   1.628
32497W        W98906   3.183  44.727  12.896
32498W        W98907  12.406  33.515   1.510
32499W        W98908  29.821  16.612  14.454
32500W        W98909  28.459  29.885   0.462
32501W        W98910  38.798  40.460   2.250
32502W        W98911  34.596  14.167  10.621
32503W        W98912  33.777  14.686  12.552
32504W        W98913   1.512  26.725   3.564
32505W        W98914  24.534  18.333   0.727
32506W        W98915  20.240  14.307   1.931
32507W        W98916  43.439   3.888   1.828
32508W        W98917   8.399  23.962  14.414
32509W        W98918   7.287   4.369   3.386
32510W        W98919  21.125  25.446  10.731
32511W        W98920  14.795   0.988   0.994
32512W        W98921  42.060   2.453  11.635
32513W        W98922  18.189  18.799  10.393
32514W        W98923  23.680   0.337  14.763
32515W        W98924   2.648  31.882  12.929
32516W        W98925  21.627  22.876  13.553
32517W        W98926   8.776  29.808  14.307
32518W        W98927  14.446  28.404   3.422
32519W        W98928  37.897  22.239   0.519
32520W        W98929  18.297  42.455   1.138
32521W        W98930  31.368  28.419   1.423
32522W        W98931  30.399  40.131   4.059
32523W        W98932  17.102  41.523   0.812
32524W        W98933  39.760  39.782  11.082
32525W        W98934  30.913  15.042   2.505
32526W        W98935  28.093   6.659   0.297
32527W        W98936  21.734   5.869  11.012
32528W        W98937   0.372  18.506   2.360
32529W        W98938  32.574   1.708   3.706
32530W        W98939  28.188  17.577  12.620
32531W        W98940  25.671  17.597   4.608
32532W        W98941  24.167  34.126   4.114
32533W        W98942   9.489  16.166   0.525
32534W        W98943  39.879  36.825   3.588
32535W        W98944  32.500  30.341  13.965
32536W        W98945  30.385  10.747   3.980
32537W        W98946  43.269  34.414  10.603
32538W        W98947   8.731  44.343  10.616
32539W        W98948  37.795  44.761  11.481
32540W        W98949  26.087  36.546   1.344
32541W        W98950  44.744  11.853   3.303
32542W        W98951   4.071   7.167   5.054
32543W        W98952   9.829  25.069   4.073
32544W        W98953  44.297  24.210   0.329
32545W        W98954  11.399   8.216   0.936
32546W        W98955  37.744  39.519   3.200
32547W        W98956  20.289  41.714  12.192
32548W        W98957  36.131  26.659  14.485
32549W        W98958  37.133  36.814   1.659
32550W        W98959  29.097   7.888  12.039
32551W        W98960  25.195  25.599   4.399
32552W        W98961  34.640  28.533   2.742
32553W        W98962  34.798   9.951  13.967
32554W        W98963  14.540  37.282   0.571
32555W        W98964  42.345  27.652  12.672
32556W        W98965   1.499  37.493   0.454
32557W        W98966  36.918   3.164  13.571
32558W        W98967  39.322  14.306   3.253
32559W        W98968  40.215  25.276  13.403
32560W        W98969   9.402  31.992   0.979
32561W        W98970  39.833   0.302  14.216
32562W        W98971  28.958  27.099   1.988
32563W        W98972   0.982   0.371  12.972
32564W        W98973  22.772  26.097   3.302
32565W        W98974  20.763  22.669  10.614
32566W        W98975   0.182  16.576   1.668
32567W        W98976  41.953  15.133   3.246
32568W        W98977  12.580  40.827  14.017
32569W        W98978  28.451   2.353   2.280
32570W        W98979   5.349   9.666   2.203
32571W        W98980  36.393  26.056  11.535
32572W        W98981  40.265  18.114  13.929
32573W        W98982  21.271  22.214  11.916
32574W        W98983  43.989  37.213   5.098
32575W        W98984  35.488   6.845  12.471
32576W        W98985  35.474  39.382  13.035
32577W        W98986  40.597  19.177   2.586
32578W        W98987  27.635  17.988   1.476
32579W        W98988  38.938   1.557   4.957
32580W        W98989  33.026  31.751  14.219
32581W        W98990   1.007  42.523   1.249
32582W        W98991  24.584  42.911   3.058
32583W        W98992  39.302   0.718   0.376
32584W        W98993  22.983  40.358   1.413
32585W        W98994  14.711  20.654  11.784
32586W        W98995  41.746  15.637   1.213
32587W        W98996   2.335  32.770  14.799
32588W        W98997   0.431  22.426   0.695
32589W        W98998   9.326  18.844  13.011
32590W        W98999  26.694  25.680   0.486
32591W        W99000  14.693  28.036   0.180
32592W        W99001   0.013  33.312  11.686
32593W        W99002   4.622  41.828  12.849
32594W        W99003  16.411   6.978   1.750
32595W        W99004  33.849   6.041  14.881
32596W        W99005  40.988  37.821   2.794
32597W        W99006   1.703  22.669  13.970
32598W        W99007   6.218  24.990   2.322
32599W        W99008  10.613  41.812   2.723
32600W        W99009   6.324  18.686   0.663
32601W        W99010  11.715  16.718  12.377
32602W        W99011   5.920  15.091  12.458
32603W        W99012  22.322  31.509   3.182
32604W        W99013  22.844  30.987   2.765
32605W        W99014  13.738  35.922  12.413
32606W        W99015  32.394  27.016   1.334
32607W        W99016  28.176  15.629  13.637
32608W        W99017  41.619  32.460  11.498
32609W        W99018  20.916  24.836  11.998
32610W        W99019  30.823  13.357  13.851
32611W        W99020  23.345   1.449  13.974
32612W        W99021  19.830   2.436   1.773
32613W        W99022  30.735  43.284   9.954
32614W        W99023  38.122  34.561   0.005
32615W        W99024   1.948  16.225  14.328
32616W        W99025   2.210  23.017   3.146
32617W        W99026  30.779  22.596   2.505
32618W        W99027  23.672  38.614   1.541
32619W        W99028  27.411   2.322   0.349
32620W        W99029   0.019   0.005   3.068
32621W        W99030   7.744   4.107  14.165
32622W        W99031  15.336  31.574  13.454
32623W        W99032   8.119  40.824   3.263
32624W        W99033   3.175   9.383  14.433
32625W        W99034  11.919  37.912  11.415
32626W        W99035  13.843  41.065  13.482
32627W        W99036  36.314  23.161  12.434
32628W        W99037   2.404  35.314   1.778
32629W        W99038  15.659  30.865  13.034
32630W        W99039  34.857  40.160  12.085
32631W        W99040  21.254  44.648  14.391
32632W        W99041  30.976  24.466   4.669
32633W        W99042   2.832   7.991  13.111
32634W        W99043  16.641  10.114  14.535
32635W        W99044   0.240  14.718  14.360
32636W        W99045   4.970  18.680  14.955
32637W        W99046  23.992  28.672  13.832
32638W        W99047  16.119   7.593  12.044
32639W        W99048  23.758  34.774   3.313
32640W        W99049   9.685  12.237   4.710
32641W        W99050  28.885   9.439   0.264
32642W        W99051   4.983  33.095  11.471
32643W        W99052  40.168  37.625   3.102
32644W        W99053   8.764   3.808   0.456
32645W        W99054   5.598  43.963   0.775
32646W        W99055   5.289  30.146   3.211
32647W        W99056  15.234  13.646   0.524
32648W        W99057  26.874  40.334   1.865
32649W        W99058  38.422  20.141   4.621
32650W        W99059  26.279   9.045   2.004
32651W        W99060   4.857  13.727  12.911
32652W        W99061  24.042  38.492   0.412
32653W        W99062  42.790  11.573   2.782
32654W        W99063  26.392  13.197  14.523
32655W        W99064  38.735  19.074   3.201
32656W        W99065  13.444  25.978   3.720
32657W        W99066  24.256   8.422   3.675
32658W        W99067  10.711  25.410  10.427
32659W        W99068  22.347  33.020  12.553
32660W        W99069  43.554  42.223   0.317
32661W        W99070  38.709  18.207  10.283
32662W        W99071   5.934  44.261  11.145
32663W        W99072  26.452  34.097  14.931
32664W        W99073  40.680  38.020  13.810
32665W        W99074   5.002   4.377  14.700
32666W        W99075  29.881  27.914   2.819
32667W        W99076  12.224  21.224  10.571
32668W        W99077  19.845  31.113   4.169
32669W        W99078  14.853  15.793  11.077
32670W        W99079  34.050   9.369   2.713
32671W        W99080   4.054  33.358  14.301
32672W        W99081   6.166   7.874  14.819
32673W        W99082   5.981  38.827   4.087
32674W        W99083  13.717  11.874   2.842
32675W        W99084  12.593  24.112  14.462
32676W        W99085  30.106  22.146  14.294
32677W        W99086  30.699  37.957   4.676
32678W        W99087  34.096  24.761   0.338
32679W        W99088   1.959  28.960   3.650
32680W        W99089  39.736  30.146  12.886
32681W        W99090  10.102  31.007  12.045
32682W        W99091  29.015  19.518  11.147
32683W        W99092  17.412   2.285  11.212
32684W        W99093  27.713  12.333  14.420
32685W        W99094  18.555  40.421   0.263
32686W        W99095  38.624   4.814   1.901
32687W        W99096   4.358  11.185  13.009
32688W        W99097  36.444   9.740   3.889
32689W        W99098  24.991  19.288   1.439
32690W        W99099   2.386  29.026   4.236
32691W        W99100  20.600   0.666  12.030
32692W        W99101  38.721  13.251  11.139
32693W        W99102   7.779  17.080   2.419
32694W        W99103  23.823   5.415   4.107
32695W        W99104  29.621   0.796   2.241
32696W        W99105   5.402  39.523  10.677
32697W        W99106  12.657  36.675   0.801
32698W        W99107  35.086  23.931   4.216
32699W        W99108   8.380  42.894   5.006
32700W        W99109  43.171  21.089  12.876
32701W        W99110  27.749  25.735   2.793
32702W        W99111   2.392  21.991   1.296
32703W        W99112  16.078  32.932   0.661
32704W        W99113  14.332  33.517  12.926
32705W        W99114  19.569   0.094   4.165
32706W        W99115  43.932  18.318   3.289
32707W        W99116  35.977  19.110   4.624
32708W        W99117   1.839  15.528   1.117
32709W        W99118  37.966  16.467   3.310
32710W        W99119  35.497   3.172  10.805
32711W        W99120  29.649  34.490  11.666
32712W        W99121  36.678  21.214  14.815
32713W        W99122  44.862  43.252  11.368
32714W        W99123  27.374  10.183   1.351
32715W        W99124   0.073  16.533   4.179
32716W        W99125  27.027   4.961   2.746
32717W        W99126  44.206  44.262   2.625
32718W        W99127  27.420  39.361  11.830
32719W        W99128   5.970  16.851   1.721
32720W        W99129   3.969  29.500  12.920
32721W        W99130   9.346  20.221  14.041
32722W        W99131  10.396  13.555   3.570
32723W        W99132  34.551  42.299   4.063
32724W        W99133  38.927  42.336  11.707
32725W        W99134  44.425  24.772  10.601
32726W        W99135  36.000  39.514  10.678
32727W        W99136  16.089  38.279  11.158
32728W        W99137  28.553  43.928   1.263
32729W        W99138   9.193  15.650   2.269
32730W        W99139  29.541  42.969  14.880
32731W        W99140  44.645  17.599  12.093
32732W        W99141   9.637  10.700   2.819
32733W        W99142  38.075   9.615  11.168
32734W        W99143  14.072  18.250   0.740
32735W        W99144  26.901  38.479  12.009
32736W        W99145  26.243  33.587   4.733
32737W        W99146  38.055  10.762   2.380
32738W        W99147   7.893  38.225   2.604
32739W        W99148  23.157  25.495   2.848
32740W        W99149   8.948  27.956   1.772
32741W        W99150   4.375  29.353  12.633
32742W        W99151  13.653  43.636  11.155
32743W        W99152   7.668  18.210   2.216
32744W        W99153   7.882  11.243  11.848
32745W        W99154  31.123   9.204   0.298
32746W        W99155  29.534   0.197   3.588
32747W        W99156  30.844  25.456   3.082
32748W        W99157   9.200  33.438   3.592
32749W        W99158  15.189   1.466  14.501
32750W        W99159   1.767  39.059  13.031
32751W        W99160   5.316  38.624   3.320
32752W        W99161  23.663   7.832  14.041
32753W        W99162  33.011  28.081   3.008
32754W        W99163   2.885   5.202   0.370
32755W        W99164  30.027  26.643   0.330
32756W        W99165  18.638  15.380   2.978
32757W        W99166  36.137  29.146  13.931
32758W        W99167  14.055  12.190  12.542
32759W        W99168   4.250  44.380  14.240
32760W        W99169   0.712  16.645   1.757
32761W        W99170  34.357  12.109  12.565
32762W        W99171   4.629  18.455  12.620
32763W        W99172   9.089  25.151  11.728
32764W        W99173   7.030   2.684  14.016
32765W        W99174  36.299   6.716  11.114
32766W        W99175  18.762  26.578  12.965
32767W        W99176  30.282  28.450  12.899
32768W        W99177  16.490  29.394   4.563
32769W        W99178  31.948  22.632  12.985
32770W        W99179  32.616   5.965   0.476
32771W        W99180  41.887   7.358   1.774
32772W        W99181  13.274  42.166   2.284
32773W        W99182  25.058  23.648   4.574
32774W        W99183   3.076  18.668   3.229
32775W        W99184  31.069   1.299   3.165
32776W        W99185   4.425  29.514  10.661
32777W        W99186   6.677  10.454   1.398
32778W        W99187  29.169  27.586   0.751
32779W        W99188  26.115  31.915  11.652
32780W        W99189   7.746  35.825  12.158
32781W        W99190  43.098  33.615  14.594
32782W        W99191  43.902  13.096  14.874
32783W        W99192  38.267  18.078   0.298
32784W        W99193   9.669   4.669  12.036
32785W        W99194  25.595  12.754  14.857
32786W        W99195   4.941   1.284   1.828
32787W        W99196  14.900   3.054   2.160
32788W        W99197  28.201  38.521   0.944
32789W        W99198   4.361  23.139  13.406
32790W        W99199  28.549  38.508   1.410
32791W        W99200  35.578  28.393  12.905
32792W        W99201   0.809  23.993   0.326
32793W        W99202  40.021  32.228  14.885
32794W        W99203  18.588   8.930  11.945
32795W        W99204  25.543  38.519   3.926
32796W        W99205  39.975  14.926   0.903
32797W        W99206  31.433  10.815   4.174
32798W        W99207  20.902   0.481   5.108
32799W        W99208  29.152  44.222  14.081
32800W        W99209  15.304  14.183  12.113
32801W        W99210  32.437   9.431   3.758
32802W        W99211   3.539  40.434  11.206
32803W        W99212  31.612  26.495  11.626
32804W        W99213   9.936  35.528   9.804
32805W        W99214  13.532  44.986  10.194
32806W        W99215  29.585  32.005   3.570
32807W        W99216  41.075  27.516  14.517
32808W        W99217  41.304   6.067  13.061
32809W        W99218  26.448  42.250   1.218
32810W        W99219  42.876   0.015  14.398
32811W        W99220  17.826  15.728  12.578
32812W        W99221   9.504   8.258   3.659
32813W        W99222  16.122   2.054  11.220
32814W        W99223   4.855  25.457  12.976
32815W        W99224  26.236  32.531   4.767
32816W        W99225  10.973   7.262  14.508
32817W        W99226  37.801  22.715  11.161
32818W        W99227  12.414  42.294  14.250
32819W        W99228  30.059  10.935   2.198
32820W        W99229  40.072   9.148   2.730
32821W        W99230  31.617  24.499  14.217
32822W        W99231  30.578  36.955  10.577
32823W        W99232   4.261  33.059   1.916
32824W        W99233   4.617  22.897  13.798
32825W        W99234  35.384  19.194   2.366
32826W        W99235  38.072  42.223  14.449
32827W        W99236  36.735  16.053   3.551
32828W        W99237  27.817   2.208  10.655
32829W        W99238  24.265  35.813   0.239
32830W        W99239  37.595  16.096  14.972
32831W        W99240  39.579  38.308   4.029
32832W        W99241  29.527  28.574  11.227
32833W        W99242   8.237  20.648  14.043
32834W        W99243  24.150  42.267  11.175
32835W        W99244  29.040  23.279  14.382
32836W        W99245  23.645  19.581   1.744
32837W        W99246  14.105  31.113  13.028
32838W        W99247  20.022   6.752   3.733
32839W        W99248  16.830  39.576  10.740
32840W        W99249  20.803  42.981  10.703
32841W        W99250  29.593  30.568  10.275
32842W        W99251  36.632  18.504  14.972
32843W        W99252   5.614  21.083   1.035
32844W        W99253  23.272  14.798  13.370
32845W        W99254   6.154  29.943  12.903
32846W        W99255  11.535   7.143   4.495
32847W        W99256  18.343  12.990   4.459
32848W        W99257   1.898  23.164  10.669
32849W        W99258  32.532  32.167  10.675
32850W        W99259  24.170  34.929  10.487
32851W        W99260  42.890  22.193  14.932
32852W        W99261   3.224   8.624   1.725
32853W        W99262   5.283  16.263  11.258
32854W        W99263  24.903  40.708   4.112
32855W        W99264  12.355  15.017  14.867
32856W        W99265  43.967   4.769  13.536
32857W        W99266   2.017  11.613   0.180
32858W        W99267   0.035  40.667   3.079
32859W        W99268  28.079  37.360  11.950
32860W        W99269  10.291   0.534   1.316
32861W        W99270  35.602   7.327   2.131
32862W        W99271   8.208  22.683  11.893
32863W        W99272   3.173  10.797   0.327
32864W        W99273  14.184   2.727   3.140
32865W        W99274   9.300  42.284  10.753
32866W        W99275  34.976  22.936   1.294
32867W        W99276  11.824   7.308  13.996
32868W        W99277  31.914  10.994  14.612
32869W        W99278  44.260  14.039  13.603
32870W        W99279  12.545   4.215   3.899
32871W        W99280  11.761  34.430   4.352
32872W        W99281  18.625  14.907   2.775
32873W        W99282   8.805  11.369  11.893
32874W        W99283  43.879  28.276   2.152
32875W        W99284  39.090  10.700  12.630
32876W        W99285   4.700   5.959   4.159
32877W        W99286  10.726  24.235   0.381
32878W        W99287  18.405  17.472  14.856
32879W        W99288   7.431  25.608   3.398
32880W        W99289  32.544  20.651   1.829
32881W        W99290  38.907   5.310  14.786
32882W        W99291   6.244  33.681  14.477
32883W        W99292  16.074  39.227  14.467
32884W        W99293   6.324  30.128   4.428
32885W        W99294  26.477   2.345   0.772
32886W        W99295  13.154   4.380  14.737
32887W        W99296  19.028  10.206  12.012
32888W        W99297   2.222  29.567   4.332
32889W        W99298  14.122  39.248   2.325
32890W        W99299   7.262  42.321   4.103
32891W        W99300   6.338  26.916  11.524
32892W        W99301  15.369  20.025  12.004
32893W        W99302  41.260   0.905   4.133
32894W        W99303  40.901  33.862   2.252
32895W        W99304  36.343  38.431  11.617
32896W        W99305   8.769  15.960   0.004
32897W        W99306  27.790  27.077  14.577
32898W        W99307  27.169   8.432  11.197
32899W        W99308  38.127  43.322  13.950
32900W        W99309   4.692  21.089  12.883
32901W        W99310   8.247  37.622  13.838
32902W        W99311  34.459  34.366   2.705
32903W        W99312  13.617  25.523  13.787
32904W        W99313  22.036  33.080  10.788
32905W        W99314  40.716  12.367  12.087
32906W        W99315   6.488   9.450  14.563
32907W        W99316   8.817  14.122   0.664
32908W        W99317  39.232  44.992   2.458
32909W        W99318  36.116   3.795   3.605
32910W        W99319   8.432   0.953   3.273
32911W        W99320  11.160   2.722   0.327
32912W        W99321  32.451   6.094   1.546
32913W        W99322   1.784  11.802   2.692
32914W        W99323  24.143  23.035  12.483
32915W        W99324  41.547  35.120  11.190
32916W        W99325   2.466  37.369  11.089
32917W        W99326  35.642   0.800  13.926
32918W        W99327   2.371  33.933   4.625
32919W        W99328  16.257  22.009   1.659
32920W        W99329  25.083  33.558   3.152
32921W        W99330   1.014  17.664  13.482
32922W        W99331  14.800  14.785   1.199
32923W        W99332  11.577  15.718  11.756
32924W        W99333  22.609   7.728  14.014
32925W        W99334  38.854  38.981  14.967
32926W        W99335  30.738  10.567   0.142
32927W        W99336  44.041  33.253   0.294
32928W        W99337   7.823  28.890   2.697
32929W        W99338  28.319  11.380  10.267
32930W        W99339  22.712  11.679   9.949
32931W        W99340  28.088   2.851  12.706
32932W        W99341  41.669   3.772  11.206
32933W        W99342  43.461  26.456  12.694
32934W        W99343   1.966  18.962  14.823
32935W        W99344  26.182  38.088   0.476
32936W        W99345   1.229  23.748   0.060
32937W        W99346  41.941  31.150   1.860
32938W        W99347  44.968   2.254  12.474
32939W        W99348  27.087  11.173  12.812
32940W        W99349  21.077  26.444  11.602
32941W        W99350  44.431   1.418  14.203
32942W        W99351  29.331   3.238   4.305
32943W        W99352   6.336  37.680   2.399
32944W        W99353  32.585  12.341  12.615
32945W        W99354  20.076   1.053  14.990
32946W        W99355  25.925  34.137  11.867
32947W        W99356  18.083  42.875  12.802
32948W        W99357  35.923   1.927   4.630
32949W        W99358   7.767   8.775  14.746
32950W        W99359  20.257  40.769   0.860
32951W        W99360  33.145  35.052  12.379
32952W        W99361  18.234  38.572  14.520
32953W        W99362  43.393  34.755   3.194
32954W        W99363  23.469  11.865   1.978
32955W        W99364  43.862  23.209   3.692
32956W        W99365  42.708   4.728   1.076
32957W        W99366  26.304  38.140  12.766
32958W        W99367  39.020   5.413  11.558
32959W        W99368  37.653  30.872  14.444
32960W        W99369  16.915  36.047   3.617
32961W        W99370  26.731  13.086   1.846
32962W        W99371  16.243   3.296   0.417
32963W        W99372  19.139   9.217   0.354
32964W        W99373  35.533  21.169  11.777
32965W        W99374  44.608  37.880   2.809
32966W        W99375  10.835  38.363   3.544
32967W        W99376  12.849  16.676   4.693
32968W        W99377  36.999  28.916   2.205
32969W        W99378  44.297   5.476  11.494
32970W        W99379  22.582  14.455  12.615
32971W        W99380   1.521  27.448  14.407
32972W        W99381  31.136  43.296  13.921
32973W        W99382  25.970   4.816  12.423
32974W        W99383  24.231   7.264  10.671
32975W        W99384  28.028   8.321   1.868
32976W        W99385   1.343  13.298   4.741
32977W        W99386   0.500  43.381  13.998
32978W        W99387  39.592  20.085  11.614
32979W        W99388   8.257  14.212   1.357
32980W        W99389   8.114  17.797   3.622
32981W        W99390  28.890  36.117  12.955
32982W        W99391  43.820  44.814   4.805
32983W        W99392  10.216  13.736  13.493
32984W        W99393  25.931   4.729  13.389
32985W        W99394  10.698  35.797   3.382
32986W        W99395  14.059  15.764   1.890
32987W        W99396  11.128  11.306   4.163
32988W        W99397  18.068  16.088   2.193
32989W        W99398   6.239  25.182   1.446
32990W        W99399   4.913  30.744   2.697
32991W        W99400  10.114   0.539   5.310
32992W        W99401  11.417   2.175   1.886
32993W        W99402  37.906  14.104  11.522
32994W        W99403   3.236  12.668   1.831
32995W        W99404  40.829  27.674   1.420
32996W        W99405  25.676   0.052  12.881
32997W        W99406  13.323  40.876  14.466
32998W        W99407  13.107  32.633   2.375
32999W        W99408  20.382  44.090   1.735
33000W        W99409  32.925  10.049  14.537
33001W        W99410   0.724  12.460   4.103
33002W        W99411  34.763  19.770  13.582
33003W        W99412  44.854   0.031   4.649
33004W        W99413  36.840  10.152   2.932
33005W        W99414  21.546   5.746  14.376
33006W        W99415  33.927   2.298   1.786
33007W        W99416  27.036  13.569  10.677
33008W        W99417   5.921  41.139   0.408
33009W        W99418  30.974  35.303  11.123
33010W        W99419   4.255  14.028  14.976
33011W        W99420  20.478   4.426   0.070
33012W        W99421  37.462  26.716  13.860
33013W        W99422  29.911   0.915   3.585
33014W        W99423  39.570  15.973  12.381
33015W        W99424  12.597  20.022   3.242
33016W        W99425  33.020  24.552   2.947
33017W        W99426  25.412  36.947  14.418
33018W        W99427  31.345  43.015   0.992
33019W        W99428  25.005   6.919  10.752
33020W        W99429  10.183  31.105   0.129
33021W        W99430  15.126  39.600   0.953
33022W        W99431  24.176  15.271   2.921
33023W        W99432  27.573  36.765  13.915
33024W        W99433  35.959   0.870   0.742
33025W        W99434  31.882  24.525   4.550
33026W        W99435  27.105  11.366  14.239
33027W        W99436  24.598  41.449  12.553
33028W        W99437   1.821  13.731   4.688
33029W        W99438  30.136  24.107  14.193
33030W        W99439   5.414   5.323  11.132
33031W        W99440  39.038  44.897   4.181
33032W        W99441  30.579  32.966   1.453
33033W        W99442   5.655  12.304  13.827
33034W        W99443  13.217   2.471  14.752
33035W        W99444   0.079  29.566   0.302
33036W        W99445  13.163  27.699  10.683
33037W        W99446  11.094   2.846  11.715
33038W        W99447   6.218   4.744   0.319
33039W        W99448   0.608  42.229   2.694
33040W        W99449  32.428  44.619  13.695
33041W        W99450  28.929  40.501  14.768
33042W        W99451  12.149  25.932   0.837
33043W        W99452   4.355  12.627  14.934
33044W        W99453  21.240  43.912  12.784
33045W        W99454  37.968  43.153   4.763
33046W        W99455   2.096  14.214  12.324
33047W        W99456   5.893  25.886  10.795
33048W        W99457   2.977  31.148   1.143
33049W        W99458   2.136  35.084  13.395
33050W        W99459  13.224  16.635   3.181
33051W        W99460   4.712  25.965   0.419
33052W        W99461  15.007  23.024   0.517
33053W        W99462  37.525  42.976  14.181
33054W        W99463  29.229  18.952  13.683
33055W        W99464  25.036  24.169  10.768
33056W        W99465  11.721  21.106   3.094
33057W        W99466  17.692  22.058  11.654
33058W        W99467  22.204  44.405   0.324
33059W        W99468  42.945  15.669  11.601
33060W        W99469  41.920  23.049   1.968
33061W        W99470  37.366   9.717   2.562
33062W        W99471  36.891  21.723   3.582
33063W        W99472  38.890   4.934  11.327
33064W        W99473  39.117  13.292  12.034
33065W        W99474  30.128  33.507  13.742
33066W        W99475   1.181  37.969  11.036
33067W        W99476  40.616   4.723  14.427
33068W        W99477  25.886  17.019   0.294
33069W        W99478  31.755   4.672  14.718
33070W        W99479  29.434  32.119  12.892
33071W        W99480  29.214  44.816   4.094
33072W        W99481   8.569  32.144   2.802
33073W        W99482  15.911  27.173  13.119
33074W        W99483  10.850  10.603   0.257
33075W        W99484  21.692  25.891  11.568
33076W        W99485  39.585  17.914   0.137
33077W        W99486  35.011  13.306   4.006
33078W        W99487  29.931   0.330   2.386
33079W        W99488  43.970   5.825  13.783
33080W        W99489   7.658  26.487  14.987
33081W        W99490  35.186  43.808   3.559
33082W        W99491  41.294  33.501   1.869
33083W        W99492  14.858   1.703   2.742
33084W        W99493  24.069  44.821  12.159
33085W        W99494   2.029  35.428   4.603
33086W        W99495   9.409  27.972  12.876
33087W        W99496   7.682  20.641   2.872
33088W        W99497   7.899  44.268   3.751
33089W        W99498  38.537  10.620  13.403
33090W        W99499   5.701  31.960  11.805
33091W        W99500  27.882  29.623  13.485
33092W        W99501   0.811  12.665   1.909
33093W        W99502  11.452  29.495   4.982
33094W        W99503  17.372  39.830   0.043
33095W        W99504  28.111  44.051  12.888
33096W        W99505  35.793   1.423  10.637
33097W        W99506  35.903  43.898   0.826
33098W        W99507  43.414  16.224  13.500
33099W        W99508  43.105  34.995   1.195
33100W        W99509   0.907  33.598  13.582
33101W        W99510  19.190  23.104  13.892
33102W        W99511   2.710  37.538   4.144
33103W        W99512  38.946  21.201  12.924
33104W        W99513  26.721  26.466   0.531
33105W        W99514  31.097  44.220  11.823
33106W        W99515  33.059  15.253   3.867
33107W        W99516  25.715  35.567   3.216
33108W        W99517  38.069  35.057   4.529
33109W        W99518  26.208  33.573  12.053
33110W        W99519  17.686  29.959   3.312
33111W        W99520  26.450  41.779  10.591
33112W        W99521   3.033  40.800   1.893
33113W        W99522  15.308  25.455   4.060
33114W        W99523  10.172  31.411   9.609
33115W        W99524  16.252   1.972  14.894
33116W        W99525   9.163   2.348   2.651
33117W        W99526   6.432   0.740   3.728
33118W        W99527  30.918  24.415  12.898
33119W        W99528   5.759  32.263   0.548
33120W        W99529  24.973  23.964  14.845
33121W        W99530  20.713  17.241  12.326
33122W        W99531  14.419  37.056   2.828
33123W        W99532   9.221  31.469  14.002
33124W        W99533  36.596  29.164   1.259
33125W        W99534   5.189  33.452  14.842
33126W        W99535  11.311  30.950  13.374
33127W        W99536   1.197  23.498   2.723
33128W        W99537  35.947   2.916  14.480
33129W        W99538  27.207  20.411  10.748
33130W        W99539  19.613   6.999  12.605
33131W        W99540   3.308  11.197  13.556
33132W        W99541   8.383  34.056  14.808
33133W        W99542   3.257  19.290  11.896
33134W        W99543  39.381  18.316  11.042
33135W        W99544  15.160  10.402   0.830
33136W        W99545   6.182   8.048   0.931
33137W        W99546  15.301  24.265   2.389
33138W        W99547  30.876  26.090  12.364
33139W        W99548  35.868  19.003  12.269
33140W        W99549  26.457  42.937  13.456
33141W        W99550  16.595  13.743  12.463
33142W        W99551  29.571  20.583   3.941
33143W        W99552  41.428  34.566   1.321
33144W        W99553  44.525   1.911  14.369
33145W        W99554  40.139  21.559  13.867
33146W        W99555  25.371  23.120  11.110
33147W        W99556   3.016  11.761  10.684
33148W        W99557  23.187  17.817  11.996
33149W        W99558  40.543  12.222   4.100
33150W        W99559   6.701  14.249  11.076
33151W        W99560  12.640  39.394   2.508
33152W        W99561  18.228  15.204  12.049
33153W        W99562  10.099  33.660  11.290
33154W        W99563  36.968  11.909   2.261
33155W        W99564  12.463  37.417  12.569
33156W        W99565  19.361  24.513  12.606
33157W        W99566  13.636  26.647  11.721
33158W        W99567   5.722   9.258  14.192
33159W        W99568  31.833   4.246   0.988
33160W        W99569   2.015   8.239   1.142
33161W        W99570  19.539  44.298  11.531
33162W        W99571  13.950   6.891   4.447
33163W        W99572  28.991  11.149  11.864
33164W        W99573  19.667  26.156   2.474
33165W        W99574  35.824  10.233   3.192
33166W        W99575  38.970   7.137   1.340
33167W        W99576  35.533  32.569  11.011
33168W        W99577  23.416   7.768   1.191
33169W        W99578   7.477   1.347  13.969
33170W        W99579   9.056  40.804  12.271
33171W        W99580  14.344  25.440   5.041
33172W        W99581  25.635  21.740  14.377
33173W        W99582  38.830  10.620   1.124
33174W        W99583   6.358   8.297   0.097
33175W        W99584  25.629  10.183   2.426
33176W        W99585  32.465  21.245  12.645
33177W        W99586  31.472  38.545   3.912
33178W        W99587  14.276  11.260  12.461
33179W        W99588   8.750  34.193   3.446
33180W        W99589  18.208  21.606  11.415
33181W        W99590  14.163  36.021   2.809
33182W        W99591  37.590  21.999  10.704
33183W        W99592  13.905  22.000   1.294
33184W        W99593  14.630   2.200   4.071
33185W        W99594  20.701   3.960  13.638
33186W        W99595   5.271  10.376   9.955
33187W        W99596  44.218  31.609   2.362
33188W        W99597  38.351  37.417  11.051
33189W        W99598   1.253  13.706  11.449
33190W        W99599  19.203  32.354   1.509
33191W        W99600   2.340  38.876  13.459
33192W        W99601  18.494  27.579   4.487
33193W        W99602   1.083  10.182  11.814
33194W        W99603  12.788   2.863   4.027
33195W        W99604  17.942  18.066   2.638
33196W        W99605  11.245  24.130  14.738
33197W        W99606   6.381  23.129   2.743
33198W        W99607  40.387  42.046  12.005
33199W        W99608  25.246  31.195  12.692
33200W        W99609   5.494  29.578  13.291
33201W        W99610   5.195  15.888  12.567
33202W        W99611  13.787  26.481   2.226
33203W        W99612  26.799  31.805   1.841
33204W        W99613  21.134  29.996   3.695
33205W        W99614  26.491  37.867   0.065
33206W        W99615  22.253  31.137  12.477
33207W        W99616  24.520   7.311  12.819
33208W        W99617  40.385  10.095  13.411
33209W        W99618  42.329  44.347   4.477
33210W        W99619  29.016   2.653   9.803
33211W        W99620  32.905   2.130  14.313
33212W        W99621  26.894  15.192   2.340
33213W        W99622  14.143  12.213  12.036
33214W        W99623  25.067  10.219  12.459
33215W        W99624  20.622   1.509  12.985
33216W        W99625  31.087  42.882   2.262
33217W        W99626  30.899  29.670  13.051
33218W        W99627  15.210  23.465  13.952
33219W        W99628  24.712  12.260   3.119
33220W        W99629   5.207   6.400   4.585
33221W        W99630   0.576  29.447  11.664
33222W        W99631  31.476  12.002   2.908
33223W        W99632   7.452  32.954  12.940
33224W        W99633  40.626  20.150  11.724
33225W        W99634  34.402  29.434  14.572
33226W        W99635  22.963  23.774  11.074
33227W        W99636   6.905  21.147   3.270
33228W        W99637  28.732  30.995  12.926
33229W        W99638  16.175  22.332   2.641
33230W        W99639  39.882  13.949  11.617
33231W        W99640  34.377  25.496   3.370
33232W        W99641  44.153  38.321  13.342
33233W        W99642  11.273  21.145  12.030
33234W        W99643   1.937  10.196   3.216
33235W        W99644  39.292  13.434   4.660
33236W        W99645  15.526  22.567   4.154
33237W        W99646  11.253   9.388   0.859
33238W        W99647  21.575  23.627   4.127
33239W        W99648   7.659  19.679   1.602
33240W        W99649  17.731  22.447   2.922
33241W        W99650  29.051  30.408  14.013
33242W        W99651  28.686   3.399  12.804
33243W        W99652  12.148  12.750  14.336
33244W        W99653  28.406  33.347  12.667
33245W        W99654  20.665  38.081   2.028
33246W        W99655  29.486   0.002   4.519
33247W        W99656  30.031  18.120  10.649
33248W        W99657  10.298  27.279  12.849
33249W        W99658  36.983  30.279  13.237
33250W        W99659  29.483   1.842  11.108
33251W        W99660  23.704  24.122  10.983
33252W        W99661  10.323   5.791   1.676
33253W        W99662  37.018  12.786   0.368
33254W        W99663  21.011   5.908   4.146
33255W        W99664  25.185  41.367   1.804
33256W        W99665  23.251   7.504   2.038
33257W        W99666  18.143  32.343   2.889
33258W        W99667  34.947  19.025  11.964
33259W        W99668  24.218   1.978  12.532
33260W        W99669  25.136   3.948  11.146
33261W        W99670  23.691  42.930   2.149
33262W        W99671  28.677  22.969   2.317
33263W        W99672  30.868  40.934  13.942
33264W        W99673  25.422  13.579  14.449
33265W        W99674  33.655  35.569  14.497
33266W        W99675  19.087  19.259   3.195
33267W        W99676  27.636  33.551  12.128
33268W        W99677  27.170  18.348  13.398
33269W        W99678  21.203  16.850   0.319
33270W        W99679  31.531  10.491  11.039
33271W        W99680  29.951   5.232   3.178
33272W        W99681  28.179  43.539  11.076
33273W        W99682  10.204  26.884  13.789
33274W        W99683  28.247  20.467  11.921
33275W        W99684  25.582   3.460   4.208
33276W        W99685  17.643  41.235   3.159
33277W        W99686  42.026  32.058  13.638
33278W        W99687  16.453   5.376  12.847
33279W        W99688  13.177  40.921   0.781
33280W        W99689   9.334   3.199   3.182
33281W        W99690  15.138  12.034  10.709
33282W        W99691  26.203  31.287  13.861
33283W        W99692  21.662   8.559  11.089
33284W        W99693  31.198   2.477   2.707
33285W        W99694  11.801  36.355   0.355
33286W        W99695  29.551  34.375  10.791
33287W        W99696  38.365   3.608  12.038
33288W        W99697   1.768  24.716   3.730
33289W        W99698  24.533   8.114  14.409
33290W        W99699  11.672  34.331   0.221
33291W        W99700  30.017  33.429   0.408
33292W        W99701   2.528  36.698   0.743
33293W        W99702  32.335  41.819  13.024
33294W        W99703  13.541  27.164  14.936
33295W        W99704  14.736  44.491  12.972
33296W        W99705  34.580  32.124   1.448
33297W        W99706  19.787  35.773  13.086
33298W        W99707  14.831   5.884   3.691
33299W        W99708  42.353   8.052   4.944
33300W        W99709   4.781  21.902  11.333
33301W        W99710  13.879  26.068  10.667
33302W        W99711  38.024   3.111   1.652
33303W        W99712  24.513  16.159  14.779
33304W        W99713   8.477  44.964   1.594
33305W        W99714  43.262  14.773  13.919
33306W        W99715  20.805  14.130  14.430
33307W        W99716   7.569  33.386   2.893
33308W        W99717  25.924  32.037   1.178
33309W        W99718  17.637   6.344  13.490
33310W        W99719  19.301  11.833  14.326
33311W        W99720  31.929  30.508  10.382
33312W        W99721   8.339  34.597  11.028
33313W        W99722  30.856  25.078   0.639
33314W        W99723  18.154  20.631   3.044
33315W        W99724   2.526  37.664   2.210
33316W        W99725  18.363  14.700   4.331
33317W        W99726  44.692  14.836  13.183
33318W        W99727  14.103  38.799  13.444
33319W        W99728   0.297   6.662  10.750
33320W        W99729  23.859  26.288   3.285
33321W        W99730  32.510  20.734   2.659
33322W        W99731  14.084  25.918  13.038
33323W        W99732  41.360  33.631   4.884
33324W        W99733  34.482  14.573  11.542
33325W        W99734  38.250  12.338  13.757
33326W        W99735  26.055  34.111   4.764
33327W        W99736  19.783  18.777  12.605
33328W        W99737  25.030  22.081  13.436
33329W        W99738  14.235  28.594   0.706
33330W        W99739  17.276  42.980  14.018
33331W        W99740  22.408   7.704   0.933
33332W        W99741   4.442  22.802  13.004
33333W        W99742   8.887  36.414   2.192
33334W        W99743   7.744  10.809  13.571
33335W        W99744  25.462  11.930   4.198
33336W        W99745   3.467  38.105   0.277
33337W        W99746  10.325  18.311  13.086
33338W        W99747  41.540  12.828  11.113
33339W        W99748  29.381  21.239   3.721
33340W        W99749  16.884  32.607   3.567
33341W        W99750   1.656   7.502  14.587
33342W        W99751  27.679   3.016   3.583
33343W        W99752   8.095  32.822  12.531
33344W        W99753  27.172  24.749  12.095
33345W        W99754  35.684  24.217   4.806
33346W        W99755   5.827  16.364  12.912
33347W        W99756  14.314  36.284  10.764
33348W        W99757  16.118  11.686  14.990
33349W        W99758  22.189  16.615  13.033
33350W        W99759  16.583  39.826  12.553
33351W        W99760   0.891  23.464   1.263
33352W        W99761  12.816  19.251   3.676
33353W        W99762   4.457  10.802  10.531
33354W        W99763  32.590  20.385  12.805
33355W        W99764  34.612   3.421  13.006
33356W        W99765   4.433  13.559  14.872
33357W        W99766  19.557   5.540  12.786
33358W        W99767  34.599  12.816  11.015
33359W        W99768  15.320  11.409   4.730
33360W        W99769   4.509  15.295   4.184
33361W        W99770  13.110   2.881   0.529
33362W        W99771  21.412   4.501   1.272
33363W        W99772  24.646  23.356   0.116
33364W        W99773  29.744   6.630   1.840
33365W        W99774  25.236  10.296   1.185
33366W        W99775  32.460  18.336  10.412
33367W        W99776  34.585  16.655  12.593
33368W        W99777  29.430  23.105   1.349
33369W        W99778   8.619  36.628  11.646
33370W        W99779  23.985  19.207   2.492
33371W        W99780   9.815  40.423  14.718
33372W        W99781  19.741  20.210  14.744
33373W        W99782  13.720  33.119  14.930
33374W        W99783  33.305   4.853   0.495
33375W        W99784  29.159  35.411   2.377
33376W        W99785  20.638  25.884   0.285
33377W        W99786  44.035  40.273   2.001
33378W        W99787  14.704  42.574  10.965
33379W        W99788  19.729  37.334   1.933
33380W        W99789   9.335   7.296  12.039
33381W        W99790  13.594  25.678   4.255
33382W        W99791   8.408  23.461   4.250
33383W        W99792  26.518  13.673  10.570
33384W        W99793   8.805  29.972  10.791
33385W        W99794   1.513   7.690   9.548
33386W        W99795  12.559  19.550  12.050
33387W        W99796   4.646  20.591   4.212
33388W        W99797  25.954  34.972  13.003
33389W        W99798   9.053  36.041  12.421
33390W        W99799  25.526  39.490  10.414
33391W        W99800  11.708  32.877   2.104
33392W        W99801   2.347  42.002   0.861
33393W        W99802  36.158  34.577  13.175
33394W        W99803   1.390   3.909   3.695
33395W        W99804  18.755  35.436   0.818
33396W        W99805  25.284  18.514  14.318
33397W        W99806  18.116  30.707  13.349
33398W        W99807   2.450   9.381   4.096
33399W        W99808  37.007   4.951  13.267
33400W        W99809   1.820   1.688   4.167
33401W        W99810  12.462  13.176   2.894
33402W        W99811  10.830   9.936   1.256
33403W        W99812  33.580  18.734   1.351
33404W        W99813  13.889  26.744  14.807
33405W        W99814  40.253   8.241  11.601
33406W        W99815  23.766  23.845  11.473
33407W        W99816  22.065  24.090   3.688
33408W        W99817  17.058  40.946  10.623
33409W        W99818  23.665  39.425   4.390
33410W        W99819  44.271  32.938  10.342
33411W        W99820  27.175   8.737   3.822
33412W        W99821  44.801  33.488  13.938
33413W        W99822  29.895  11.176  13.944
33414W        W99823   5.221  37.989  10.389
33415W        W99824  40.976  29.479   3.965
33416W        W99825  37.424  35.261   3.130
33417W        W99826  14.745  25.503   2.834
33418W        W99827  26.500   6.682   2.890
33419W        W99828  12.192  20.860   4.841
33420W        W99829  37.271  11.072   2.324
33421W        W99830  28.861   0.699  12.051
33422W        W99831  39.907  42.947  12.422
33423W        W99832  16.393  38.871  13.477
33424W        W99833  40.257  10.140  11.210
33425W        W99834  29.213   9.718   2.688
33426W        W99835  18.446  40.600  11.433
33427W        W99836   3.768  11.640   1.158
33428W        W99837  37.136  24.440   4.206
33429W        W99838  42.886  28.853   0.072
33430W        W99839   4.694  14.670  10.180
33431W        W99840   4.422   0.486   3.355
33432W        W99841  30.386   0.075  12.946
33433W        W99842  42.881  30.893  14.925
33434W        W99843   3.366  37.378  12.638
33435W        W99844  39.015  38.027   2.500
33436W        W99845  14.197  22.570   4.559
33437W        W99846  39.301   7.833   1.244
33438W        W99847   4.089   1.799  11.721
33439W        W99848  35.296  20.631   4.496
33440W        W99849   4.314   4.627  12.448
33441W        W99850   1.191   5.726  14.730
33442W        W99851  35.304  24.959  13.971
33443W        W99852  19.806  22.581  14.288
33444W        W99853  22.008  34.061  12.471
33445W        W99854   8.219   8.901  14.487
33446W        W99855   7.730   2.756   1.442
33447W        W99856  24.683  17.198  13.993
33448W        W99857  23.151  24.244   3.491
33449W        W99858   3.231  32.119  13.502
33450W        W99859  35.832  39.843  12.020
33451W        W99860  34.590   5.723  13.341
33452W        W99861  22.157  41.103   1.712
33453W        W99862  12.171   2.785   0.387
33454W        W99863  28.659  22.853  14.952
33455W        W99864   4.697  23.001  11.224
33456W        W99865  28.038  16.598  11.306
33457W        W99866  38.959  21.680  12.643
33458W        W99867  30.079  32.090  13.492
33459W        W99868  13.016   0.462   0.302
33460W        W99869  43.501  16.306  14.506
33461W        W99870  36.842  15.800  12.572
33462W        W99871  18.531   6.678  11.326
33463W        W99872  42.157  18.673   3.363
33464W        W99873   4.837  16.439   4.969
33465W        W99874  14.501  14.235   4.361
33466W        W99875  19.755  39.086   2.427
33467W        W99876   2.816  44.307   0.543
33468W        W99877   0.234  23.785  13.972
33469W        W99878  19.596  15.733   0.952
33470W        W99879  14.056  23.082  11.597
33471W        W99880  30.009  44.268   1.201
33472W        W99881   3.338  10.228  12.192
33473W        W99882  13.909  24.777  10.804
33474W        W99883  20.575   9.713  13.502
33475W        W99884  20.732  27.605   2.412
33476W        W99885  41.171  43.478   2.636
33477W        W99886  37.860  14.210   1.032
33478W        W99887  30.897  34.111  11.952
33479W        W99888  39.511   6.085  12.020
33480W        W99889  17.561  16.279  10.709
33481W        W99890   4.638  12.262  13.732
33482W        W99891  29.583  44.082  14.468
33483W        W99892  12.675   3.815   2.180
33484W        W99893  21.128  35.029   4.049
33485W        W99894  13.280  23.129  10.675
33486W        W99895  35.155   5.347  11.073
33487W        W99896   7.305  21.280   2.723
33488W        W99897  22.031   3.743  11.148
33489W        W99898  25.214  24.555   1.351
33490W        W99899  36.497   3.935   0.907
33491W        W99900   6.805  25.542  14.322
33492W        W99901  22.593  14.324  13.234
33493W        W99902  32.017  21.508  10.814
33494W        W99903  18.073  24.382  14.371
33495W        W99904  39.306   9.699  10.538
33496W        W99905  44.402  26.684  11.580
33497W        W99906  14.624  23.452   0.808
33498W        W99907  16.744   8.468   4.535
33499W        W99908  33.425   1.833  12.613
33500W        W99909  43.078  22.134   1.122
33501W        W99910  44.671   0.416   3.213
33502W        W99911  35.457   3.711   2.739
33503W        W99912   9.857  25.557   1.039
33504W        W99913  14.319  28.642  11.162
33505W        W99914  12.248   2.270   1.888
33506W        W99915  27.094  36.671   3.654
33507W        W99916  29.452  27.675  13.077
33508W        W99917  43.709  18.051   0.747
33509W        W99918  36.447  12.835  14.014
33510W        W99919  24.962  33.836  12.684
33511W        W99920  43.049  19.679   0.848
33512W        W99921   2.892  33.341   0.432
33513W        W99922  26.093  33.428   1.958
33514W        W99923   6.993  25.880  12.561
33515W        W99924  38.107   4.770   1.745
33516W        W99925   7.038   8.208  14.275
33517W        W99926  10.468   0.083  12.537
33518W        W99927  19.978  27.547   0.256
33519W        W99928  25.122  28.013  14.066
33520W        W99929  12.650  17.191  13.806
33521W        W99930  15.407   7.893   2.713
33522W        W99931  36.657  44.317  10.818
33523W        W99932  24.972  41.781   1.517
33524W        W99933  27.625   7.763  13.106
33525W        W99934  37.903   8.375  13.375
33526W        W99935  21.054  33.835   0.016
33527W        W99936  35.392  34.470   3.069
33528W        W99937   3.964  36.101  10.287
33529W        W99938   5.487   3.194  12.457
33530W        W99939  16.700  29.593   3.278
33531W        W99940   3.287  30.922  12.880
33532W        W99941   9.341  26.990  14.336
33533W        W99942   6.234  40.343   3.112
33534W        W99943   7.903   5.249  12.434
33535W        W99944  28.567   6.490  11.317
33536W        W99945  12.546   4.725  11.678
33537W        W99946  40.128   6.736   2.889
33538W        W99947  11.817  24.465  14.239
33539W        W99948  31.132  12.743  11.638
33540W        W99949  28.236  20.971  14.353
33541W        W99950  28.360  34.378   0.458
33542W        W99951  25.518   3.305   0.970
33543W        W99952  18.795   2.549  11.164
33544W        W99953  40.441  22.990   3.206
33545W        W99954  10.221  36.971   0.374
33546W        W99955  14.935  27.445   4.104
33547W        W99956  33.968  40.846   4.571
33548W        W99957  26.829   4.342   0.850
33549W        W99958  38.339  14.641  11.013
33550W        W99959  41.108  16.927   3.265
33551W        W99960   4.909  31.624   2.289
33552W        W99961  20.628  27.406  10.741
33553W        W99962   2.444  30.125  11.400
33554W        W99963   1.171  11.146  11.529
33555W        W99964  16.094  24.980  10.626
33556W        W99965  21.706  35.358  10.812
33557W        W99966  44.817  40.260  11.007
33558W        W99967   6.011   7.134  12.307
33559W        W99968  27.121  38.798  13.281
33560W        W99969  21.663  26.632   1.392
33561W        W99970   2.262  24.267  11.048
33562W        W99971  10.748  28.197   1.896
33563W        W99972   3.989  31.063   1.354
33564W        W99973   3.260   7.186   2.255
33565W        W99974   6.790  12.115   0.422
33566W        W99975  19.121  30.471  12.610
33567W        W99976  31.254  34.434   3.098
33568W        W99977   7.366  24.282   0.940
33569W        W99978  30.153  15.073  14.749
33570W        W99979  34.501  43.789  14.229
33571W        W99980  14.811  40.363  13.713
33572W        W99981   8.730  15.571   0.935
33573W        W99982  43.031   6.240   3.191
33574W        W99983   1.775  35.571  11.608
33575W        W99984  18.086   0.898  12.104
33576W        W99985   7.792  39.563  12.101
33577W        W99986  38.380  30.647   1.625
33578W        W99987  37.898  38.550  14.363
33579W        W99988  17.625  32.098  13.837
33580W        W99989  32.563  30.078  10.734
33581W        W99990  16.184  35.653  11.234
33582W        W99991  13.224   1.956   2.099
33583W        W99992  42.717  19.528   1.713
33584W        W99993  36.052  41.343  13.820
33585W        W99994  15.488  36.468  13.129
33586W        W99995  43.605  42.708   3.631
33587W        W99996  21.066  26.218   1.439
33588W        W99997  32.401  36.771  11.913
33589W        W99998  38.487   6.360  13.392
33590W        W99999  14.779  41.538   3.175
33591W        W    0  23.485  42.502  13.995
33592W        W    1  30.826   6.484   4.523
33593W        W    2   5.864   8.365  13.590
33594W        W    3  30.871   0.348   1.211
33595W        W    4  11.203  30.050  13.880
33596W        W    5  43.871  32.949  11.189
33597W        W    6   7.886   4.384  13.385
33598W        W    7  32.522  15.798  11.435
33599W        W    8  40.456  41.663   4.970
33600W        W    9  14.578  30.411  14.987
33601W        W   10  35.133  42.548  11.170
33602W        W   11  27.242  10.741  11.539
33603W        W   12   3.523  18.364  14.851
33604W        W   13  20.762  42.773  11.540
33605W        W   14  36.846   9.478   3.693
33606W        W   15  33.703  18.228  10.959
33607W        W   16  16.991  15.178   3.438
33608W        W   17  41.917   9.633   2.309
33609W        W   18  22.660  35.583  13.228
33610W        W   19   7.997  38.904   4.516
33611W        W   20  34.332  10.091  10.125
33612W        W   21  22.970  39.361  10.654
33613W        W   22   1.547  43.444  11.723
33614W        W   23  21.066  23.821  12.092
33615W        W   24  34.990   5.640  11.512
33616W        W   25  40.447  42.549  12.070
33617W        W   26   9.798  38.915   4.896
33618W        W   27   7.670  25.982   3.148
33619W        W   28  43.982  37.793  12.493
33620W        W   29  24.904  28.950  13.648
33621W        W   30  10.268  32.884   0.752
33622W        W   31   5.283   8.172   2.464
33623W        W   32  15.724  41.805  12.632
33624W        W   33   6.823   7.403  11.689
33625W        W   34   5.576  21.585  10.410
33626W        W   35  22.144   3.030   2.955
33627W        W   36  24.284  39.276   3.349
33628W        W   37  12.911   1.309  14.898
33629W        W   38  41.250   2.489  12.950
33630W        W   39  41.123  18.674   4.234
33631W        W   40   4.118   9.317   0.828
33632W        W   41  29.263  25.852   4.918
33633W        W   42  37.911  40.521  12.467
33634W        W   43  19.082   0.594   4.614
33635W        W   44   5.119   7.713  10.729
33636W        W   45   0.261  36.387   3.721
33637W        W   46  18.063  33.169   0.300
33638W        W   47  22.700  19.724   0.535
33639W        W   48  29.882  42.629   2.345
33640W        W   49  21.322  34.953  13.520
33641W        W   50  34.614  41.690  14.947
33642W        W   51  22.630  27.611   3.081
33643W        W   52  36.476  28.901  12.811
33644W        W   53  37.304  16.478   1.386
33645W        W   54  21.083   9.626  10.680
33646W        W   55  44.214  26.191  14.286
33647W        W   56  34.781   6.788   1.815
33648W        W   57  33.378   3.614  14.410
33649W        W   58  18.289  42.287  14.171
33650W        W   59  37.012  22.545  12.245
33651W        W   60  38.653  22.792  11.979
33652W        W   61  14.799   5.666  14.328
33653W        W   62   6.151  29.992   3.489
33654W        W   63  29.974  43.013   2.701
33655W        W   64  38.218  38.619  12.098
33656W        W   65   6.665   2.805   4.644
33657W        W   66  26.059  26.766   4.526
33658W        W   67  43.554  38.138  13.408
33659W        W   68  20.694  20.092   4.946
33660W        W   69   4.819  24.235  13.766
33661W        W   70  23.936  25.048  11.206
33662W        W   71   6.420   5.720  14.902
33663W        W   72  22.906   6.727   2.358
33664W        W   73  39.510  18.227   2.684
33665W        W   74  44.833  15.752   4.550
33666W        W   75   2.180  37.421   1.895
33667W        W   76  12.852  19.675  11.133
33668W        W   77  22.221  41.768  13.306
33669W        W   78  33.598  10.722  13.097
33670W        W   79  12.877   7.841  12.013
33671W        W   80   6.576  39.926  14.924
33672W        W   81  22.668  32.749  14.304
33673W        W   82  37.081  41.966   0.057
33674W        W   83  25.631  11.313  14.547
33675W        W   84  22.082  37.620  12.499
33676W        W   85  34.813  25.466   4.727
33677W        W   86  25.666  39.913  11.192
33678W        W   87  24.121   9.685   4.309
33679W        W   88  40.464  25.006   3.408
33680W        W   89   0.127   0.713   3.111
33681W        W   90  14.576  20.276  13.915
33682W        W   91  20.741   8.711  11.411
33683W        W   92  26.526  20.189  13.834
33684W        W   93  29.993  42.728  14.855
33685W        W   94  14.588  26.067   4.419
33686W        W   95  19.685  10.714  14.936
33687W        W   96   6.453  36.732  11.060
33688W        W   97  33.122   6.787  14.537
33689W        W   98  31.548  33.998   3.243
33690W        W   99  32.073  19.201  10.660
33691W        W  100  17.720  15.044   1.404
33692W        W  101  28.039  39.571   4.360
33693W        W  102  21.154   1.793  12.601
33694W        W  103   0.742  18.636  14.561
33695W        W  104  17.980   7.227  14.907
33696W        W  105  11.159  17.405  12.426
33697W        W  106  18.677  26.296   4.150
33698W        W  107  18.616   0.250  11.113
33699W        W  108  39.045  16.757  13.832
33700W        W  109  18.869  24.479  12.729
33701W        W  110  19.777  41.868   4.639
33702W        W  111  35.494  44.614   2.184
33703W        W  112   4.610  20.491  14.209
33704W        W  113  14.874  10.749   2.262
33705W        W  114   2.419   1.481   3.312
33706W        W  115   2.429  40.509   2.235
33707W        W  116  41.008  42.557  10.660
33708W        W  117   8.292  30.698   1.675
33709W        W  118   1.265  29.092  11.848
33710W        W  119  44.966  39.203  11.845
33711W        W  120  30.095  33.318  13.247
33712W        W  121  31.142  15.587  10.788
33713W        W  122   4.505   8.913   0.438
33714W        W  123  27.972   0.699   1.211
33715W        W  124   4.802  11.741   2.136
33716W        W  125  12.231  37.366  13.462
33717W        W  126  41.056  21.206   0.001
33718W        W  127  40.954  23.323   2.479
33719W        W  128  23.950  24.281  12.895
33720W        W  129  41.887  39.506  14.910
33721W        W  130  34.549  15.655   4.072
33722W        W  131  14.753  33.334   0.815
33723W        W  132  39.827  26.969  12.012
33724W        W  133  41.516  23.466  12.591
33725W        W  134  36.098  23.814   2.333
33726W        W  135  43.483  30.936   3.080
33727W        W  136  31.109  25.968  12.941
33728W        W  137  15.290  42.957   3.212
33729W        W  138  11.315  21.552  12.747
33730W        W  139  19.104  11.696   0.251
33731W        W  140  11.150   7.874  12.198
33732W        W  141  41.568  35.242   3.216
33733W        W  142   8.080  18.297   4.692
33734W        W  143  26.438  31.705   4.816
33735W        W  144  29.739  17.237  11.117
33736W        W  145   4.847   0.943  10.673
33737W        W  146  23.965   2.769   3.225
33738W        W  147   4.382  42.750   0.830
33739W        W  148  40.963  42.780  13.397
33740W        W  149  39.748  15.584  12.670
33741W        W  150  32.022  21.518  12.592
33742W        W  151  21.886   4.684  14.470
33743W        W  152  11.672  30.058  13.565
33744W        W  153   4.285  15.745   3.406
33745W        W  154  43.695  27.631  12.486
33746W        W  155   0.372  31.928   5.079
33747W        W  156  36.443  39.801   3.303
33748W        W  157  43.695  37.088   1.913
33749W        W  158  27.568  20.731   3.967
33750W        W  159  22.116  42.065  11.367
33751W        W  160  11.198   1.961  13.089
33752W        W  161  15.292   4.118   2.301
33753W        W  162  13.078   6.700  12.462
33754W        W  163  36.452  37.701   1.134
33755W        W  164  23.610  19.685  11.964
33756W        W  165  37.118  28.670   0.859
33757W        W  166  40.264  22.933  14.331
33758W        W  167  34.327  15.076   2.682
33759W        W  168  28.122  41.510   4.077
33760W        W  169  14.109   2.710   4.567
33761W        W  170  35.556  37.206  11.451
33762W        W  171  44.547  17.196  14.267
33763W        W  172  22.962   4.256  11.454
33764W        W  173  17.306  15.475  13.723
33765W        W  174   2.553  15.134  13.995
33766W        W  175   8.690  33.459   1.297
33767W        W  176  14.900  42.516  12.474
33768W        W  177  34.994  44.091  12.935
33769W        W  178  42.289  16.077  11.934
33770W        W  179  28.569   0.851  13.694
33771W        W  180  42.908  37.031   4.587
33772W        W  181  38.468  39.702   3.717
33773W        W  182  14.260  33.545  10.485
33774W        W  183  19.277  30.000  12.490
33775W        W  184   6.349  37.484   1.537
33776W        W  185   7.427  11.608   1.749
33777W        W  186   1.420  27.542   1.953
33778W        W  187   6.005  25.648   0.335
33779W        W  188  11.123  25.921   4.572
33780W        W  189  28.951  24.854   4.650
33781W        W  190  25.511  26.655  12.239
33782W        W  191   1.313  44.069   1.406
33783W        W  192   5.146   1.384   1.347
33784W        W  193  17.290  40.757  11.029
33785W        W  194  18.076  24.014  14.747
33786W        W  195  16.244  32.156   4.620
33787W        W  196   9.072  15.807  12.934
33788W        W  197  14.301  13.869  12.992
33789W        W  198   9.634   8.249  12.473
33790W        W  199  18.685  37.448  14.398
33791W        W  200  13.304   6.194   2.076
33792W        W  201  21.493  34.610   4.676
33793W        W  202  29.517   6.727   0.236
33794W        W  203  23.162  36.048   3.350
33795W        W  204  30.137  16.322   4.947
33796W        W  205  30.882  35.393  12.876
33797W        W  206  13.167  42.331  11.050
33798W        W  207  27.767  35.993  14.199
33799W        W  208   3.983  20.828  13.451
33800W        W  209  10.143  35.531  13.400
33801W        W  210  32.462  23.564  12.987
33802W        W  211   4.236  29.024   0.914
33803W        W  212  38.823  19.653   2.665
33804W        W  213  35.556  30.005  11.497
33805W        W  214  35.121  41.287  11.117
33806W        W  215   7.095  24.375  12.900
33807W        W  216   6.124  26.097   4.944
33808W        W  217  36.326  42.861  11.546
33809W        W  218  17.102   5.530   3.189
33810W        W  219  34.247  33.574   3.335
33811W        W  220  28.822   9.663  12.616
33812W        W  221  32.533  26.953   2.830
33813W        W  222   8.409  25.488   9.948
33814W        W  223  28.903  36.202   3.097
33815W        W  224   0.380  23.464   4.472
33816W        W  225  36.795  35.847   1.376
33817W        W  226  10.370  21.913  10.668
33818W        W  227  42.912  18.730   0.030
33819W        W  228  16.167  38.369  13.471
33820W        W  229  38.573  16.026  12.335
33821W        W  230  10.109  22.969  10.971
33822W        W  231   1.400  42.491   3.630
33823W        W  232   4.754  10.722   1.198
33824W        W  233  24.675  37.079  11.996
33825W        W  234  28.089  40.348  11.005
33826W        W  235  37.366  27.156  14.826
33827W        W  236  20.564  20.051  12.537
33828W        W  237  44.781  22.907   4.395
33829W        W  238   9.330  38.229  11.272
33830W        W  239  17.416  36.885  10.667
33831W        W  240  35.347  32.599   2.437
33832W        W  241  44.469  37.471  14.995
33833W        W  242  27.556   5.207   2.658
33834W        W  243  30.092  16.151  13.769
33835W        W  244  10.061  35.187   4.851
33836W        W  245  20.155  36.971   1.696
33837W        W  246  36.929   3.336  14.064
33838W        W  247  17.501  17.699   1.750
33839W        W  248  24.235  17.684   2.451
33840W        W  249   4.753  19.683  14.895
33841W        W  250   2.480  23.733   4.576
33842W        W  251  29.041   9.212   0.844
33843W        W  252   3.976  42.495  11.459
33844W        W  253   7.091  42.809   3.225
33845W        W  254  16.076  35.634   4.647
33846W        W  255   5.425   9.538   3.163
33847W        W  256   1.943  14.867   0.448
33848W        W  257  17.640  39.745  13.968
33849W        W  258   1.692  23.347  11.566
33850W        W  259  35.960  41.419   3.777
33851W        W  260  31.186   8.855   2.816
33852W        W  261  34.713  24.097   1.734
33853W        W  262  10.167  23.958  12.302
33854W        W  263  25.682  29.268   4.417
33855W        W  264  15.420   5.627   1.287
33856W        W  265  12.633  21.303  14.983
33857W        W  266   9.557   9.959  13.954
33858W        W  267  32.960   6.554   3.600
33859W        W  268  43.848  33.808   2.504
33860W        W  269   2.153  23.207   4.003
33861W        W  270  25.700  36.902   2.212
33862W        W  271  25.664  32.017  10.121
33863W        W  272  20.886   0.420   2.307
33864W        W  273  24.145  37.587   2.292
33865W        W  274  22.317  36.896   4.664
33866W        W  275  42.126  37.635  14.692
33867W        W  276   1.525  23.716   0.507
33868W        W  277  14.622  23.705  12.845
33869W        W  278  31.610  11.037  12.909
33870W        W  279  38.398  38.622  14.503
33871W        W  280  24.222   1.957  11.131
33872W        W  281  30.693   9.012   1.569
33873W        W  282  35.724  39.463   1.120
33874W        W  283  39.913   3.527   1.516
33875W        W  284  30.915  44.221  13.870
33876W        W  285  17.165  12.919   3.253
33877W        W  286   7.294  35.181   3.654
33878W        W  287  43.598  25.040  12.595
33879W        W  288  38.830  26.920  10.362
33880W        W  289  30.380   4.520   2.893
33881W        W  290   8.046   4.765  14.648
33882W        W  291  19.779   3.992   1.297
33883W        W  292   8.505  29.504   0.347
33884W        W  293  15.268   6.350  14.533
33885W        W  294  18.720  13.874   1.774
33886W        W  295  40.808   2.502  11.007
33887W        W  296   4.150  12.317   4.110
33888W        W  297  40.961  13.460  10.919
33889W        W  298  10.617  14.337   4.279
33890W        W  299   3.753  23.659   3.660
33891W        W  300   2.839  29.141   3.319
33892W        W  301  32.005  21.338  13.548
33893W        W  302   2.207   4.515   4.875
33894W        W  303  44.610  24.599   4.555
33895W        W  304  30.903  12.536  14.382
33896W        W  305  40.464  25.983   1.947
33897W        W  306  31.051  30.007   0.373
33898W        W  307  12.590  29.969  11.200
33899W        W  308  21.129  39.443   4.614
33900W        W  309  39.214  32.070  12.160
33901W        W  310  20.086  14.070  12.722
33902W        W  311  14.760  34.092   3.391
33903W        W  312   1.526   6.919   0.847
33904W        W  313  11.809  31.306  13.909
33905W        W  314   4.746  39.782  14.157
33906W        W  315  10.890   5.669   2.900
33907W        W  316  28.049  23.342   9.707
33908W        W  317  37.478   8.653   2.474
33909W        W  318   4.976  16.725   0.768
33910W        W  319  32.488   7.175  11.702
33911W        W  320  11.780  23.142   4.900
33912W        W  321  19.068  35.184  14.046
33913W        W  322  11.811   5.040  13.451
33914W        W  323   7.640  20.031  13.517
33915W        W  324  22.626   7.683   4.004
33916W        W  325  17.208  33.897  10.838
33917W        W  326  11.234  44.159  11.053
33918W        W  327   8.808  21.199   1.067
33919W        W  328  31.917  35.997  13.571
33920W        W  329  23.075  17.122  10.686
33921W        W  330  44.785  22.359   1.824
33922W        W  331  11.297  37.558  10.432
33923W        W  332  19.052  32.121  13.424
33924W        W  333  44.331  22.780  10.607
33925W        W  334   6.004  35.469   0.441
33926W        W  335  21.106  20.253   2.078
33927W        W  336  16.391  29.874   2.203
33928W        W  337  40.996  40.603   1.212
33929W        W  338  24.397  40.838  11.546
33930W        W  339  36.642   2.333  14.848
33931W        W  340   2.011  27.617  14.780
33932W        W  341   0.511  40.564   2.906
33933W        W  342  15.630  25.495   3.601
33934W        W  343  39.951  41.412  14.041
33935W        W  344  42.871  12.628  14.467
33936W        W  345  10.151  27.141   1.927
33937W        W  346  43.555   8.302   2.751
33938W        W  347   9.223  34.172  14.813
33939W        W  348   2.239   2.814   4.214
33940W        W  349  26.738  21.719   3.266
33941W        W  350   0.878  14.120  10.336
33942W        W  351  18.889  28.268   4.567
33943W        W  352   5.919  21.386  12.397
33944W        W  353  14.143   9.142   1.338
33945W        W  354  38.088  30.360  14.498
33946W        W  355  14.782  12.715   1.189
33947W        W  356   8.044  30.606  12.912
33948W        W  357  15.507  28.379   0.882
33949W        W  358  12.550   9.148   3.599
33950W        W  359   4.857  30.237   2.553
33951W        W  360  35.194  42.985   2.681
33952W        W  361  30.620  19.149  10.712
33953W        W  362  38.521   8.980   2.809
33954W        W  363   6.460  25.015   0.545
33955W        W  364   0.609  28.186  11.093
33956W        W  365  18.543  29.662   3.738
33957W        W  366  31.902  16.722  13.019
33958W        W  367   3.438  12.966  10.274
33959W        W  368  44.965  39.032   0.476
33960W        W  369  15.565  36.388  11.473
33961W        W  370  43.368  16.550   1.262
33962W        W  371   8.240  41.505  10.524
33963W        W  372  32.078   5.978   4.475
33964W        W  373  40.133  25.966   2.904
33965W        W  374   9.349   3.718  11.133
33966W        W  375   1.884  38.669  13.399
33967W        W  376   4.895   4.844   4.559
33968W        W  377  29.123  18.451  13.493
33969W        W  378   8.257  41.827   4.055
33970W        W  379   3.417  38.126  11.115
33971W        W  380  14.693  33.347   1.812
33972W        W  381  33.948  13.343  11.825
33973W        W  382  18.456   1.925   3.208
33974W        W  383  32.732   5.601  11.168
33975W        W  384  44.968  20.133  12.426
33976W        W  385  33.122  21.649   4.356
33977W        W  386   8.246   5.243  12.821
33978W        W  387  39.973  44.384   4.600
33979W        W  388  21.142  31.023  12.584
33980W        W  389  21.602  11.718   0.766
33981W        W  390   9.943  27.155  11.121
33982W        W  391  35.708   4.497   5.452
33983W        W  392  42.249   6.909   3.529
33984W        W  393   9.959  27.967   0.806
33985W        W  394  13.411  19.661   4.942
33986W        W  395   0.841  19.723   4.848
33987W        W  396  12.640  31.111   1.237
33988W        W  397  23.924  13.371   2.323
33989W        W  398  12.187  11.093   4.526
33990W        W  399   2.796  42.252   0.728
33991W        W  400  38.932  12.493  11.616
33992W        W  401  36.362  22.867   3.447
33993W        W  402  27.009  39.479   1.342
33994W        W  403   2.781  32.561   0.953
33995W        W  404  18.024  27.584  13.438
33996W        W  405   2.210  28.724   2.804
33997W        W  406   3.778   3.209   2.145
33998W        W  407  17.324  43.698   0.409
33999W        W  408   6.657  33.438  14.268
34000W        W  409  25.689  27.449   3.319
34001W        W  410  34.042  21.830   0.390
34002W        W  411  41.489  15.861  13.401
34003W        W  412  34.611  14.548  12.984
34004W        W  413   0.706   6.213  11.102
34005W        W  414  22.185  44.894   1.673
34006W        W  415  22.657  13.980  12.871
34007W        W  416   7.461  21.094   4.099
34008W        W  417  29.381  10.476   3.547
34009W        W  418  31.495  22.001   4.191
34010W        W  419  17.461   1.947  14.397
34011W        W  420  22.254  10.873   2.341
34012W        W  421  21.159  40.859   2.374
34013W        W  422  32.518   1.395  13.943
34014W        W  423  29.011  20.391  11.499
34015W        W  424  10.157  14.236   4.111
34016W        W  425  25.218  43.472  14.523
34017W        W  426  17.211  40.466   4.054
34018W        W  427  41.378   0.725  14.421
34019W        W  428  25.997  29.017   2.360
34020W        W  429   2.190   2.352  11.188
34021W        W  430  31.079   5.554  11.405
34022W        W  431   1.898   2.789   2.357
34023W        W  432  28.738  19.316   3.166
34024W        W  433   8.869  42.893   0.432
34025W        W  434  40.375  42.941   3.108
34026W        W  435  21.691  31.714  10.830
34027W        W  436   9.566  11.258  11.525
34028W        W  437   4.146   7.566  11.598
34029W        W  438  29.954  24.339  10.688
34030W        W  439  12.797  14.142  10.762
34031W        W  440  20.683  34.140  13.799
34032W        W  441   6.474   1.866   4.622
34033W        W  442  35.131  12.655  12.037
34034W        W  443  13.141  19.333  14.080
34035W        W  444  10.511  39.238   4.931
34036W        W  445  31.009  31.550   3.091
34037W        W  446  36.420  16.049  14.205
34038W        W  447  38.643  18.065  12.358
34039W        W  448   7.270  30.685   2.776
34040W        W  449  29.970  37.796  13.791
34041W        W  450  32.088  14.608  12.518
34042W        W  451  34.185   6.716  12.628
34043W        W  452   9.177  37.843   4.141
34044W        W  453  22.580  36.696  13.466
34045W        W  454  36.841   3.394   3.769
34046W        W  455  32.800  16.634   4.601
34047W        W  456  25.099  32.133  12.616
34048W        W  457  41.493  10.494   0.244
34049W        W  458  34.696  34.077   2.317
34050W        W  459  11.519  19.179   4.691
34051W        W  460  42.033  30.602   1.348
34052W        W  461  34.561   9.870  14.494
34053W        W  462  16.852  35.392   4.618
34054W        W  463  19.116  31.590  13.888
34055W        W  464   7.236   9.962  13.741
34056W        W  465  39.606  32.406   1.883
34057W        W  466  42.039   9.716   3.500
34058W        W  467  28.001  31.575   1.320
34059W        W  468  37.380  33.869  14.425
34060W        W  469  33.013   3.475  14.819
34061W        W  470  11.514  24.518  12.960
34062W        W  471  20.915  27.591   3.794
34063W        W  472  24.781  24.771   1.476
34064W        W  473  24.996  26.768   2.701
34065W        W  474   1.913  32.469   1.875
34066W        W  475  31.910  35.897   3.202
34067W        W  476   4.346  24.924  14.551
34068W        W  477  36.327   0.130   4.242
34069W        W  478  30.375  21.971   1.327
34070W        W  479  32.124  43.279   2.425
34071W        W  480  12.826  43.982   3.814
34072W        W  481  20.486  14.652  11.063
34073W        W  482   1.953  32.488   2.825
34074W        W  483  44.300  40.974  11.536
34075W        W  484  43.293   7.621   0.751
34076W        W  485  36.012  39.315  14.837
34077W        W  486  13.089  32.355   4.582
34078W        W  487  42.285  19.590  13.834
34079W        W  488   1.951  24.165  14.923
34080W        W  489  35.894   3.394   3.374
34081W        W  490  16.312   5.927  14.782
34082W        W  491  16.721  24.031   2.941
34083W        W  492  14.790  27.231  11.982
34084W        W  493  15.766  27.479   1.873
34085W        W  494  38.984  24.039   2.299
34086W        W  495   3.211  43.009   3.788
34087W        W  496  25.929  34.140  12.387
34088W        W  497  24.572   8.156  10.463
34089W        W  498  13.405  12.720  12.833
34090W        W  499  14.615  41.404   0.667
34091W        W  500  11.003  18.620   4.149
34092W        W  501   5.818  33.995  13.043
34093W        W  502   2.767  39.569   3.286
34094W        W  503  36.342  14.741  11.074
34095W        W  504  20.523  26.730   3.359
34096W        W  505  28.909  34.708  11.075
34097W        W  506  16.094  10.921  11.577
34098W        W  507  22.303  21.805   5.020
34099W        W  508  26.455   2.774   3.956
34100W        W  509  18.220  15.943  12.368
34101W        W  510  23.730  28.975  11.935
34102W        W  511   3.694  33.557  13.019
34103W        W  512   3.056   8.957  11.978
34104W        W  513  22.286  33.908  14.476
34105W        W  514  33.494  32.917  14.095
34106W        W  515  34.645  39.308   3.927
34107W        W  516  20.165  37.006  14.840
34108W        W  517  24.312  15.347  11.451
34109W        W  518   1.274   3.549   3.234
34110W        W  519  30.176  18.745  14.490
34111W        W  520  23.213  35.925   1.241
34112W        W  521  11.893  29.943  12.054
34113W        W  522  26.562  40.809  10.580
34114W        W  523  39.043  35.431  10.676
34115W        W  524  13.716  13.439  11.167
34116W        W  525  41.864   1.964   3.865
34117W        W  526  23.674  30.105  13.388
34118W        W  527  15.983   4.632  13.643
34119W        W  528  41.421  26.459   0.956
34120W        W  529  35.317   1.611   5.208
34121W        W  530   6.073   1.965   0.493
34122W        W  531  40.995  26.082  14.961
34123W        W  532   7.803  28.261  11.495
34124W        W  533  16.838  41.383  10.501
34125W        W  534  14.291  14.781  14.438
34126W        W  535  23.000  30.035   3.827
34127W        W  536  10.216   5.344   0.404
34128W        W  537  20.784  35.050  13.988
34129W        W  538   0.777  15.604   3.639
34130W        W  539   0.483   4.483  13.037
34131W        W  540  39.428  11.030   0.365
34132W        W  541  28.107  31.931   2.818
34133W        W  542  13.625  31.543   4.843
34134W        W  543  16.306   0.254   4.853
34135W        W  544  16.206  19.796  14.444
34136W        W  545  31.098  39.326   0.370
34137W        W  546  14.191  42.296   4.948
34138W        W  547  43.408  18.118   0.286
34139W        W  548  12.685  16.756  14.090
34140W        W  549  20.661  24.999   3.341
34141W        W  550  15.600  13.760  13.370
34142W        W  551  35.707  39.717  11.074
34143W        W  552  25.652  31.605   1.286
34144W        W  553  22.055  38.407  13.888
34145W        W  554  25.728  34.335   1.297
34146W        W  555  39.469  38.624  14.347
34147W        W  556  18.133   7.371  13.796
34148W        W  557  15.773  36.380   2.618
34149W        W  558  24.486  28.514  13.860
34150W        W  559   0.371   8.212   3.455
34151W        W  560  37.635  11.778  14.939
34152W        W  561   9.174   8.305   1.852
34153W        W  562  15.091  44.893   1.029
34154W        W  563  21.116  25.908  14.225
34155W        W  564   5.216  24.518  13.944
34156W        W  565  22.230   4.879  11.997
34157W        W  566  26.629   1.720   2.273
34158W        W  567   0.039  28.866   1.937
34159W        W  568  28.970  17.668  12.846
34160W        W  569  21.470  17.689  11.626
34161W        W  570  32.168   3.810   0.865
34162W        W  571  10.306  11.928  12.480
34163W        W  572  22.940  42.842   4.040
34164W        W  573  32.364  24.015   1.789
34165W        W  574  35.782  19.721  13.497
34166W        W  575  17.983   0.222   1.864
34167W        W  576  39.318  13.841  13.982
34168W        W  577   5.790  42.336   3.389
34169W        W  578  26.441  30.318   2.893
34170W        W  579  30.755  30.319   1.211
34171W        W  580   4.483   4.337  14.693
34172W        W  581  11.148   1.352  14.301
34173W        W  582  36.033   6.919  13.899
34174W        W  583  25.414  14.724   2.746
34175W        W  584  26.078   0.371   2.500
34176W        W  585  36.185  33.036   1.229
34177W        W  586  28.855  15.216  14.072
34178W        W  587   4.849  36.613   3.369
34179W        W  588   3.394  22.084   0.472
34180W        W  589   6.357  37.933  13.004
34181W        W  590  41.026  44.267   0.379
34182W        W  591   1.899  12.039  12.337
34183W        W  592  19.819  38.283   0.280
34184W        W  593   7.656  42.537   0.284
34185W        W  594   4.765  39.355  11.405
34186W        W  595   0.678  35.660  13.399
34187W        W  596  14.411  26.771  14.773
34188W        W  597  33.690  38.589   1.640
34189W        W  598  44.360  30.081   4.771
34190W        W  599  28.266  37.424  10.242
34191W        W  600  38.613  19.091  10.223
34192W        W  601  26.495  28.600   0.239
34193W        W  602  41.520  36.154  13.928
34194W        W  603  33.043  34.161  12.544
34195W        W  604  44.733  12.713   4.323
34196W        W  605  41.630  29.523  13.805
34197W        W  606  43.885  29.369  13.934
34198W        W  607  27.627  17.827   2.777
34199W        W  608  37.400   5.227  12.307
34200W        W  609  20.131   9.096   4.861
34201W        W  610  29.869  19.202   0.022
34202W        W  611  37.470  42.395   4.873
34203W        W  612  16.714  42.315   3.343
34204W        W  613   3.217  36.121  10.814
34205W        W  614  25.563  25.731  10.095
34206W        W  615  14.798  40.589  14.212
34207W        W  616   2.893  24.775   3.960
34208W        W  617  17.615  23.061  13.485
34209W        W  618  23.490  20.303   2.207
34210W        W  619  41.605   4.707  14.967
34211W        W  620  15.432  25.405   0.547
34212W        W  621  41.773  24.873   0.632
34213W        W  622   6.063  18.652  13.625
34214W        W  623  23.714  25.603  12.652
34215W        W  624  16.729  21.639   2.522
34216W        W  625  16.729  40.086  12.109
34217W        W  626  29.331  34.410   4.073
34218W        W  627   7.714  42.267  10.815
34219W        W  628   1.259  40.240  12.985
34220W        W  629  41.514  19.103  10.650
34221W        W  630  11.707  24.765  13.390
34222W        W  631  40.241  22.193   2.718
34223W        W  632  10.190   2.902   1.223
34224W        W  633  35.321  17.058   4.107
34225W        W  634  17.624  12.684   3.967
34226W        W  635  13.883  19.272  10.296
34227W        W  636  35.011  12.739   2.388
34228W        W  637   6.425  22.359   5.388
34229W        W  638  25.469  32.068  10.631
34230W        W  639   3.468  15.621   4.657
34231W        W  640  34.510   3.224  14.412
34232W        W  641  36.585  17.157  12.115
34233W        W  642  32.418  33.509  13.330
34234W        W  643  30.625  10.546   0.672
34235W        W  644  38.109   0.071   1.520
34236W        W  645  23.161  16.370  13.087
34237W        W  646  26.010  34.144  11.362
34238W        W  647  31.132  17.001   0.437
34239W        W  648  23.203  36.396  14.997
34240W        W  649  20.318   7.928  12.065
34241W        W  650  31.462  11.656   0.951
34242W        W  651  10.929  12.862  14.922
34243W        W  652  11.569   6.390   2.683
34244W        W  653   9.496  16.253  10.377
34245W        W  654  14.679  26.597  10.628
34246W        W  655  34.929  32.986  11.150
34247W        W  656  43.083  10.201  11.128
34248W        W  657  38.923   5.305   3.221
34249W        W  658  16.625  39.063   5.038
34250W        W  659  35.846  11.782  13.468
34251W        W  660  12.289   2.914   0.939
34252W        W  661   0.538  33.291  11.656
34253W        W  662  36.882   2.623   0.791
34254W        W  663  17.929  11.176  11.668
34255W        W  664  16.025   9.380   1.468
34256W        W  665  23.786  23.043  12.880
34257W        W  666   1.036  33.486   2.907
34258W        W  667  44.985  16.675   1.206
34259W        W  668  26.702   6.487  13.539
34260W        W  669  18.989  15.881   2.348
34261W        W  670   1.774  32.077  11.437
34262W        W  671  18.083  41.787   0.513
34263W        W  672  33.607   0.111  12.161
34264W        W  673  28.404  34.476   0.963
34265W        W  674   3.524  27.077   0.712
34266W        W  675  34.022  40.149  11.144
34267W        W  676  29.797   9.692   9.988
34268W        W  677  29.612   0.585  14.308
34269W        W  678  34.990  17.350  12.394
34270W        W  679  30.276  37.935  14.953
34271W        W  680  16.650  31.755   0.370
34272W        W  681  10.159  43.467  12.832
34273W        W  682   9.337   3.470   3.624
34274W        W  683   4.610   7.734   4.445
34275W        W  684  36.755  11.118   3.086
34276W        W  685  34.050   7.693   4.735
34277W        W  686  20.240  13.535  12.862
34278W        W  687  26.949  30.397  13.996
34279W        W  688  44.499  36.051  13.710
34280W        W  689  30.962  22.888   4.474
34281W        W  690  11.416  12.412   2.738
34282W        W  691  23.163  32.802   2.357
34283W        W  692   4.447  31.452   2.122
34284W        W  693  21.115  36.487   2.628
34285W        W  694  25.886  31.195  13.228
34286W        W  695  23.127  23.297   0.813
34287W        W  696  11.096  37.500  11.408
34288W        W  697  31.580  11.145   0.860
34289W        W  698  15.343  18.125  10.298
34290W        W  699  42.419  29.603   4.382
34291W        W  700  35.508  19.638  11.474
34292W        W  701  39.156  22.207  14.444
34293W        W  702  19.891   5.119   0.968
34294W        W  703  14.565  18.823  12.784
34295W        W  704  20.648  13.456  11.810
34296W        W  705  14.643  39.061   0.318
34297W        W  706  18.510  40.645   3.223
34298W        W  707  41.649   5.815   3.677
34299W        W  708  42.959   9.411  11.679
34300W        W  709  35.587  17.200  10.723
34301W        W  710  24.108  30.378   0.962
34302W        W  711  17.951  16.568   0.502
34303W        W  712  44.795  41.443   1.875
34304W        W  713  24.539  22.047  13.910
34305W        W  714   9.933  32.556  12.035
34306W        W  715  43.355  34.158  13.834
34307W        W  716  25.941  38.652   0.876
34308W        W  717  16.848  23.527  12.601
34309W        W  718   6.301   1.342  10.295
34310W        W  719  32.389   6.445   4.315
34311W        W  720   7.063  44.935   2.760
34312W        W  721  35.634  30.178   4.738
34313W        W  722  25.649  41.351  11.908
34314W        W  723  24.251  24.025   1.280
34315W        W  724  10.702  33.322  13.352
34316W        W  725  35.005  12.377  13.269
34317W        W  726  34.591   1.846  10.585
34318W        W  727   9.712  26.587   3.181
34319W        W  728  27.001  43.496   4.738
34320W        W  729  32.630  13.801   4.663
34321W        W  730   3.651   7.801   3.228
34322W        W  731  44.210  24.694  13.739
34323W        W  732  43.370  36.030   0.496
34324W        W  733  36.353  10.312   3.117
34325W        W  734  16.797  36.825  11.469
34326W        W  735   2.975   6.794  13.826
34327W        W  736  25.430  29.077   1.667
34328W        W  737  35.424  44.360  12.863
34329W        W  738  16.699  38.014   2.071
34330W        W  739   6.163  17.136  12.084
34331W        W  740  31.463  10.982   0.303
34332W        W  741  37.540  18.301  11.631
34333W        W  742  19.709   6.857   1.610
34334W        W  743  19.788   0.949   4.234
34335W        W  744  12.519   0.323   0.358
34336W        W  745  41.540  30.675   0.013
34337W        W  746  37.461   2.559  13.946
34338W        W  747  41.184   2.295   1.502
34339W        W  748  14.207  43.713  12.692
34340W        W  749   6.174   7.862  11.552
34341W        W  750   6.397  25.553  13.928
34342W        W  751  28.718  40.002   2.702
34343W        W  752  26.962   0.972  14.387
34344W        W  753  38.381  29.706   1.255
34345W        W  754  43.497   7.625   4.114
34346W        W  755   5.881  42.995  12.396
34347W        W  756  43.765  14.702   1.731
34348W        W  757   3.958  35.332   1.268
34349W        W  758  41.001  41.825  13.110
34350W        W  759  29.749  34.516   3.681
34351W        W  760  41.297  21.747   2.255
34352W        W  761  14.490  14.256  10.667
34353W        W  762   3.382  16.504   1.314
34354W        W  763  24.897  14.722   2.807
34355W        W  764  41.935   4.893   2.853
34356W        W  765  39.387  24.445   2.848
34357W        W  766  18.715   5.953   0.272
34358W        W  767  27.223  12.422  14.472
34359W        W  768   0.727   4.446   4.795
34360W        W  769   4.273   1.992   4.527
34361W        W  770  32.555   5.260   3.866
34362W        W  771  21.653   9.322   2.302
34363W        W  772  22.203  12.277   0.819
34364W        W  773   5.387  36.144  14.566
34365W        W  774   8.849   2.397  14.945
34366W        W  775  38.402   4.326   1.387
34367W        W  776   0.125  44.159   0.771
34368W        W  777  26.713   4.392  12.987
34369W        W  778  32.824  31.494   4.044
34370W        W  779  37.330  36.402   3.707
34371W        W  780   6.576  24.643   1.887
34372W        W  781   0.330  41.811  12.492
34373W        W  782   8.812  19.345   0.239
34374W        W  783   9.254  40.822   2.185
34375W        W  784  29.277  30.088   2.343
34376W        W  785  34.761  10.320  14.333
34377W        W  786  38.968  39.508   1.212
34378W        W  787  37.036  20.401   3.685
34379W        W  788   1.894  14.330  10.553
34380W        W  789  18.939  11.786   0.976
34381W        W  790  35.437  35.383  14.019
34382W        W  791  22.131   7.820  13.283
34383W        W  792  21.290  44.699  14.947
34384W        W  793  40.076  19.799   1.357
34385W        W  794   9.958   5.723  14.383
34386W        W  795   5.559  20.889  10.601
34387W        W  796  19.556  20.632  11.990
34388W        W  797  37.636   9.844  12.501
34389W        W  798  27.179  27.680   0.809
34390W        W  799   7.759  12.477  12.387
34391W        W  800  37.399  37.028   2.900
34392W        W  801   6.479  26.414   1.489
34393W        W  802   5.406  11.253  13.794
34394W        W  803   0.862  34.585   4.586
34395W        W  804  35.380  38.640   0.874
34396W        W  805  22.144  37.535  11.542
34397W        W  806   1.268  35.826  11.080
34398W        W  807  43.956  33.960  14.801
34399W        W  808  24.179  17.717   4.885
34400W        W  809  33.418  43.318  14.775
34401W        W  810  43.532  15.864  12.258
34402W        W  811  38.454  21.236   2.387
34403W        W  812  44.673   6.868   1.847
34404W        W  813   2.648   4.429   0.799
34405W        W  814  18.890  34.531   1.765
34406W        W  815   4.671  26.659  11.509
34407W        W  816  17.836  36.071   2.998
34408W        W  817  33.567  18.700   5.009
34409W        W  818   7.824   3.895  11.585
34410W        W  819  18.003  17.705  12.534
34411W        W  820   6.926  36.896  14.762
34412W        W  821   3.779  20.236   1.065
34413W        W  822  15.249  22.797   4.565
34414W        W  823  42.908   0.326  12.635
34415W        W  824  34.227   0.144  11.919
34416W        W  825   9.243  42.087   2.130
34417W        W  826  27.088  11.071   1.734
34418W        W  827  16.762  27.194   4.461
34419W        W  828  31.135  37.950  12.497
34420W        W  829   5.083  11.330  12.868
34421W        W  830  25.246  29.248   4.127
34422W        W  831  11.754  26.172  13.760
34423W        W  832  39.048  36.872   4.699
34424W        W  833  12.152  25.766   1.410
34425W        W  834   4.955  17.381  11.569
34426W        W  835  30.564  32.650  12.675
34427W        W  836   9.750  25.321  11.136
34428W        W  837   1.832  10.166   1.588
34429W        W  838   4.833  44.717  10.767
34430W        W  839  20.543   0.067   0.396
34431W        W  840  41.375  38.032  12.852
34432W        W  841   9.627  29.930   0.364
34433W        W  842  19.188  25.181   3.233
34434W        W  843   1.627  27.136  11.474
34435W        W  844   6.888  25.461   1.631
34436W        W  845  39.287  34.433   4.672
34437W        W  846   3.957  40.466  13.104
34438W        W  847  44.881  40.327   2.686
34439W        W  848  20.067   2.410  12.908
34440W        W  849  21.971   6.884  11.752
34441W        W  850  44.456  22.833   2.111
34442W        W  851  34.131  23.082   0.703
34443W        W  852   3.315  10.211   0.712
34444W        W  853  18.748   5.166  14.793
34445W        W  854   6.925  22.035   4.110
34446W        W  855   7.423  38.887  12.383
34447W        W  856  37.932  39.993  12.550
34448W        W  857  22.419  29.618   4.413
34449W        W  858  19.209  27.161  13.401
34450W        W  859  22.554  36.043   4.083
34451W        W  860  24.353  44.118   5.067
34452W        W  861  40.966  32.860   0.888
34453W        W  862  12.935  18.265   2.357
34454W        W  863  31.079  26.919  12.901
34455W        W  864  15.087   9.917  11.073
34456W        W  865  28.734  22.648  11.536
34457W        W  866  24.587   9.247  12.958
34458W        W  867  26.997  34.183   3.301
34459W        W  868   1.249  39.471   2.853
34460W        W  869  17.669   3.721   3.729
34461W        W  870  32.449  21.356  11.640
34462W        W  871  40.511  24.977   4.403
34463W        W  872  29.671  11.190   0.764
34464W        W  873  33.044  36.514   4.421
34465W        W  874  29.949  31.843  12.057
34466W        W  875  28.375   1.320   4.197
34467W        W  876  21.158  32.548  10.584
34468W        W  877  42.356  24.725   2.414
34469W        W  878  40.862  22.524  10.594
34470W        W  879   4.795  15.029   1.264
34471W        W  880  32.870  27.561  13.934
34472W        W  881  31.948  25.449   0.761
34473W        W  882  39.653  21.690  13.726
34474W        W  883  21.970  19.034   3.163
34475W        W  884  39.853  10.192  14.944
34476W        W  885  42.778   4.477  13.260
34477W        W  886  32.180   5.686   1.298
34478W        W  887   0.527  38.903  14.356
34479W        W  888   5.764  19.563   4.901
34480W        W  889  28.079  24.114   3.328
34481W        W  890  30.465  28.263   3.245
34482W        W  891  15.254   2.210  12.710
34483W        W  892  44.996  34.634   3.563
34484W        W  893   3.591  36.227   2.673
34485W        W  894  10.099  44.741   2.613
34486W        W  895  17.615  34.046   4.680
34487W        W  896   9.318  42.072  12.559
34488W        W  897  22.026  43.137  13.450
34489W        W  898  21.959  11.651  14.278
34490W        W  899  44.858  20.677  12.552
34491W        W  900  39.793  32.016   4.676
34492W        W  901  29.697  19.145  13.874
34493W        W  902  41.768  34.186   3.797
34494W        W  903  20.032  42.233   0.633
34495W        W  904  23.609  44.721  11.302
34496W        W  905  17.864  16.099   3.814
34497W        W  906  29.539   4.315   0.940
34498W        W  907   2.273  12.315   3.787
34499W        W  908  40.477   0.937  10.815
34500W        W  909  19.935   6.439   4.167
34501W        W  910  32.071  31.979   4.920
34502W        W  911  19.812   4.946   2.835
34503W        W  912  18.201  14.568  13.793
34504W        W  913   0.314  44.903   3.816
34505W        W  914  35.367  40.294   1.900
34506W        W  915  32.461  37.102  13.006
34507W        W  916   8.295  29.964   2.097
34508W        W  917  19.653  26.565   0.512
34509W        W  918  33.902  23.110   2.078
34510W        W  919   1.929  25.550  14.564
34511W        W  920   0.327  16.361   4.592
34512W        W  921  33.524  44.270  13.814
34513W        W  922   1.127  43.495  10.913
34514W        W  923  25.502  24.554  12.612
34515W        W  924   4.441  19.865   3.711
34516W        W  925  31.155  35.042  10.713
34517W        W  926  26.967  44.991   4.912
34518W        W  927  21.240   5.162  12.094
34519W        W  928  25.005   4.831  14.391
34520W        W  929  12.291  24.650  14.325
34521W        W  930   6.975  27.145  13.782
34522W        W  931  19.178   5.649   1.171
34523W        W  932  34.435   3.894   2.621
34524W        W  933  11.851   4.370  10.198
34525W        W  934   6.919  26.420  12.502
34526W        W  935  22.927  26.759  11.164
34527W        W  936  23.188   9.309  12.768
34528W        W  937  21.542  18.040   1.693
34529W        W  938  43.765  12.286  14.022
34530W        W  939  16.034  42.244   2.327
34531W        W  940  44.768  17.761   1.878
34532W        W  941   2.420  11.706  13.918
34533W        W  942  42.267   2.795   3.283
34534W        W  943  19.599  17.107   0.741
34535W        W  944  36.839  21.279   4.118
34536W        W  945  14.265  12.422  14.961
34537W        W  946  20.286   9.601  10.954
34538W        W  947  10.861  17.475  10.774
34539W        W  948  43.567  36.854  13.823
34540W        W  949  27.954  43.839  10.676
34541W        W  950   4.320  34.557   2.767
34542W        W  951  29.116  10.798   4.088
34543W        W  952  41.301  32.477  12.147
34544W        W  953  20.825  29.413   0.327
34545W        W  954  43.950  19.434   1.245
34546W        W  955  44.958  15.637  12.407
34547W        W  956  10.885  26.546   2.864
34548W        W  957  35.139  33.899   4.164
34549W        W  958   8.108   3.015   2.333
34550W        W  959   4.164  36.809  13.428
34551W        W  960  19.814  14.848   0.147
34552W        W  961  22.077  23.920   1.950
34553W        W  962   5.554  10.165   4.212
34554W        W  963  13.081  15.779  13.419
34555W        W  964  44.805  17.213  11.368
34556W        W  965  30.509  29.600   3.438
34557W        W  966  19.717   0.874   2.804
34558W        W  967  34.657  13.082  14.119
34559W        W  968  32.045  28.724   4.593
34560W        W  969  28.565  16.821  11.984
34561W        W  970   1.085   2.525   3.996
34562W        W  971  28.142  10.883   1.973
34563W        W  972  12.764  41.314   3.146
34564W        W  973  20.276  25.439   4.532
34565W        W  974   7.215  13.277  11.586
34566W        W  975  18.502   3.676  14.818
34567W        W  976  29.799  28.452   2.902
34568W        W  977  24.802  42.877   3.508
34569W        W  978  39.459   5.164   4.090
34570W        W  979  25.566  31.436  11.372
34571W        W  980  30.121   5.957  11.772
34572W        W  981  25.536   8.144   4.678
34573W        W  982  14.310  31.634   2.277
34574W        W  983   8.932  29.957  12.125
34575W        W  984  28.216  13.753  14.038
34576W        W  985  14.051  17.765   0.925
34577W        W  986  12.331  26.739   3.707
34578W        W  987  20.727  39.148  10.427
34579W        W  988  36.040  40.727   0.267
34580W        W  989   9.596   9.649  12.949
34581W        W  990  14.094  39.125  14.837
34582W        W  991  24.073  38.851   3.141
34583W        W  992  27.291  11.618  10.597
34584W        W  993   9.675  21.326   0.818
34585W        W  994  12.884  16.595  10.872
34586W        W  995  13.233  32.760  10.039
34587W        W  996  41.370  33.971  12.174
34588W        W  997  20.393   4.494  14.300
34589W        W  998  32.005   5.435   1.734
34590W        W  999   8.937  40.240   4.647
34591W        W 1000  35.262  44.344   1.775
34592W        W 1001  43.850  36.024   3.103
34593W        W 1002  44.698   5.312   4.635
34594W        W 1003  13.015  44.213  14.919
34595W        W 1004  42.800  19.603   4.180
34596W        W 1005  33.822   1.514  11.953
34597W        W 1006  34.179  27.556   3.282
34598W        W 1007  20.368  37.883   0.777
34599W        W 1008  24.268  33.096  13.030
34600W        W 1009  27.933  36.604   1.856
34601W        W 1010  18.566   7.437  13.538
34602W        W 1011  10.709  30.545  13.323
34603W        W 1012  25.433  24.824  10.220
34604W        W 1013  15.587  30.814  10.283
34605W        W 1014  29.386  37.063  14.357
34606W        W 1015  36.512   4.445   1.821
34607W        W 1016  44.396   5.827  10.585
34608W        W 1017  42.166  39.579   2.621
34609W        W 1018  39.686   4.386   4.585
34610W        W 1019   4.227  12.703   2.738
34611W        W 1020   2.422   4.008   1.687
34612W        W 1021  33.063  44.119   4.135
34613W        W 1022   5.021  42.387   4.612
34614W        W 1023  12.391  35.013  10.970
34615W        W 1024  29.906  11.148  11.063
34616W        W 1025  35.952  32.125  11.959
34617W        W 1026  41.979  19.663   4.801
34618W        W 1027   3.028  12.413   2.246
34619W        W 1028  12.692  42.988   1.392
34620W        W 1029  10.210  22.067  12.025
34621W        W 1030  14.934  40.338   4.100
34622W        W 1031  27.952  42.397  12.521
34623W        W 1032   6.456  33.193   0.638
34624W        W 1033   2.328  35.367  14.810
34625W        W 1034   1.477  35.180  14.363
34626W        W 1035  41.950  37.843  12.546
34627W        W 1036  29.135  31.338   1.755
34628W        W 1037  13.893  25.445   0.859
34629W        W 1038   7.839   0.808  10.631
34630W        W 1039  37.372   3.752  11.932
34631W        W 1040  27.391  15.238   2.350
34632W        W 1041  35.866  11.934   0.340
34633W        W 1042  12.273  36.610   0.356
34634W        W 1043  20.506   0.986   1.323
34635W        W 1044   5.748  12.885   1.911
34636W        W 1045  25.911  14.245  11.533
34637W        W 1046  40.885   9.231   3.083
34638W        W 1047  17.372  42.323  12.081
34639W        W 1048   9.464  32.580  14.441
34640W        W 1049  13.690   3.631  14.747
34641W        W 1050  15.351  17.174  10.931
34642W        W 1051  21.548  14.831   1.990
34643W        W 1052  29.517   3.820  11.472
34644W        W 1053  12.626  31.993  12.997
34645W        W 1054  42.311  33.484  13.400
34646W        W 1055  17.465   5.743  13.454
34647W        W 1056  20.257  31.393  13.003
34648W        W 1057  29.451  37.767   3.191
34649W        W 1058  29.072  35.087   2.767
34650W        W 1059   8.678  38.033   4.135
34651W        W 1060  26.205  19.391  10.304
34652W        W 1061   9.248   8.149   4.099
34653W        W 1062  11.182  40.411  13.464
34654W        W 1063  18.542   6.818  13.102
34655W        W 1064  31.412  31.210   0.368
34656W        W 1065  27.071  42.617   2.844
34657W        W 1066  34.319   4.731  14.431
34658W        W 1067  24.032   6.029   4.525
34659W        W 1068  39.699  34.475   1.743
34660W        W 1069   1.985   6.915  12.881
34661W        W 1070  41.447   8.358  11.874
34662W        W 1071  25.490  32.095   0.384
34663W        W 1072  15.286  20.460   4.550
34664W        W 1073  14.223  23.407   2.048
34665W        W 1074  24.233  38.784  10.465
34666W        W 1075  13.568  42.468  13.933
34667W        W 1076   2.700   2.400  14.819
34668W        W 1077  32.910  27.219  10.437
34669W        W 1078   7.739  38.539   2.218
34670W        W 1079  28.131  41.845  14.282
34671W        W 1080  28.294   3.304   3.142
34672W        W 1081   6.736  38.548   0.925
34673W        W 1082  10.171  18.191  12.189
34674W        W 1083   5.966  37.648   1.220
34675W        W 1084  41.055  32.486  14.489
34676W        W 1085  29.125   1.944  11.645
34677W        W 1086  24.630  19.608   1.307
34678W        W 1087  30.489  13.320  14.665
34679W        W 1088  37.783  35.381  12.436
34680W        W 1089  26.833  12.859   4.699
34681W        W 1090  23.468  42.741   0.320
34682W        W 1091   3.716  19.770   0.821
34683W        W 1092   4.632  22.513   2.238
34684W        W 1093  28.104   6.877   1.667
34685W        W 1094  17.713  35.053   0.564
34686W        W 1095  27.733  35.341   1.563
34687W        W 1096  30.625  40.900  11.646
34688W        W 1097  23.176  32.537  12.351
34689W        W 1098  27.817  23.159   2.345
34690W        W 1099  44.849  26.996  10.464
34691W        W 1100  42.764  41.321   4.874
34692W        W 1101  11.746  12.460   9.853
34693W        W 1102  39.008  15.082   3.099
34694W        W 1103  22.716  26.465  12.129
34695W        W 1104  39.689  19.089   0.838
34696W        W 1105  37.114  26.156   2.425
34697W        W 1106  29.640  13.268   2.324
34698W        W 1107  33.568  17.381   4.728
34699W        W 1108   2.780  36.898   2.191
34700W        W 1109  15.262   4.057  13.446
34701W        W 1110  36.439   4.934  10.062
34702W        W 1111   5.110  22.268  13.838
34703W        W 1112  39.064  30.574  10.667
34704W        W 1113   6.330  14.109  13.835
34705W        W 1114  44.894  42.463   1.712
34706W        W 1115  31.688  17.042   0.484
34707W        W 1116  28.950  20.603   4.615
34708W        W 1117  41.344  19.913  14.627
34709W        W 1118   5.803   9.324   3.808
34710W        W 1119  32.183  28.775   1.290
34711W        W 1120  10.617  24.239  13.996
34712W        W 1121  35.463  13.355  11.860
34713W        W 1122  27.399  16.884   2.782
34714W        W 1123   7.313  36.264  11.510
34715W        W 1124   2.978  34.104  11.225
34716W        W 1125  44.492   6.336  11.410
34717W        W 1126  27.551  22.819   4.470
34718W        W 1127   8.887  36.855  12.973
34719W        W 1128  20.719   4.369  13.304
34720W        W 1129  18.786  17.710  12.154
34721W        W 1130   6.030  37.248   2.462
34722W        W 1131  29.018  14.005   3.097
34723W        W 1132  12.706  31.383   0.359
34724W        W 1133  28.535  40.130   0.524
34725W        W 1134   9.340  19.048   1.898
34726W        W 1135  11.857  19.151  14.909
34727W        W 1136   6.160  36.363  14.957
34728W        W 1137  13.602  25.704  10.449
34729W        W 1138   4.893  16.230  12.877
34730W        W 1139  44.816  22.549   4.017
34731W        W 1140  16.677   7.696  10.720
34732W        W 1141  31.077   4.221   1.471
34733W        W 1142  43.266   2.783   2.399
34734W        W 1143   1.278   6.668  14.512
34735W        W 1144   2.005   3.814  10.753
34736W        W 1145  14.538  17.947  11.951
34737W        W 1146  13.137   0.239   3.308
34738W        W 1147  27.838  39.970  13.011
34739W        W 1148  40.211   4.609   4.117
34740W        W 1149  34.068  19.827   4.013
34741W        W 1150  40.465   2.193   2.755
34742W        W 1151   7.977  18.229  10.337
34743W        W 1152  14.646  44.340  13.860
34744W        W 1153  19.621  36.374   1.813
34745W        W 1154  18.020  37.395  12.992
34746W        W 1155  35.001  19.754   1.399
34747W        W 1156  25.134  35.932   1.841
34748W        W 1157   8.283  21.039   2.814
34749W        W 1158  10.414   6.874  10.997
34750W        W 1159  32.630  28.605  13.372
34751W        W 1160  40.019   9.781   2.179
34752W        W 1161  24.308  34.574   2.117
34753W        W 1162  40.278  15.221  14.293
34754W        W 1163   6.275  10.353   4.666
34755W        W 1164  33.525  14.877  14.295
34756W        W 1165  16.222  41.849   9.974
34757W        W 1166  44.834  35.167  10.684
34758W        W 1167  42.592  10.637  14.666
34759W        W 1168   7.456  31.605  10.849
34760W        W 1169   6.393  19.625  13.522
34761W        W 1170  15.654  16.229  12.636
34762W        W 1171  36.270  11.669   1.499
34763W        W 1172  20.056   7.143   3.352
34764W        W 1173  38.382  15.587   4.905
34765W        W 1174  42.211   4.837   2.410
34766W        W 1175  34.438  17.424   1.183
34767W        W 1176   3.813  11.340   4.164
34768W        W 1177  13.382  39.242  14.024
34769W        W 1178  40.820  18.778   2.807
34770W        W 1179   4.588  34.869  13.713
34771W        W 1180  30.540   6.819  14.658
34772W        W 1181  21.823   9.375  13.762
34773W        W 1182   5.457  22.161  13.475
34774W        W 1183  38.287  33.684  14.659
34775W        W 1184  38.278  34.923  13.580
34776W        W 1185  43.731   4.762   3.202
34777W        W 1186  41.134  37.155   4.155
34778W        W 1187  33.173  19.061  11.431
34779W        W 1188  22.624  43.670   1.872
34780W        W 1189  17.276  44.272   3.255
34781W        W 1190  43.261  21.647   0.986
34782W        W 1191  38.348   4.375   3.704
34783W        W 1192   4.773   5.257  12.864
34784W        W 1193  28.528  19.362  12.055
34785W        W 1194  23.660  18.751   1.298
34786W        W 1195  34.458  10.893   3.131
34787W        W 1196  14.948  33.095   3.591
34788W        W 1197   7.890  39.324  11.419
34789W        W 1198  29.171   8.721   2.671
34790W        W 1199  18.074  32.527  10.681
34791W        W 1200  28.018  31.092   4.398
34792W        W 1201  19.301  27.677  11.228
34793W        W 1202  22.241  38.514   0.998
34794W        W 1203  29.051  20.258   5.005
34795W        W 1204  41.898  28.195  13.079
34796W        W 1205  11.368  41.150   4.229
34797W        W 1206  29.346  33.945  10.955
34798W        W 1207  39.834  43.374   4.775
34799W        W 1208  21.985  37.816   4.095
34800W        W 1209  37.985  32.422  11.496
34801W        W 1210  12.407  38.178   0.763
34802W        W 1211  11.078   7.367   1.279
34803W        W 1212  15.766   5.013   4.590
34804W        W 1213  20.692   5.469  13.471
34805W        W 1214   7.276  17.062   4.481
34806W        W 1215  15.131  21.723   3.573
34807W        W 1216  28.642  12.291   1.314
34808W        W 1217   2.776  41.740   0.888
34809W        W 1218  36.862  25.146   4.886
34810W        W 1219  39.891  11.352  11.582
34811W        W 1220  12.166  25.055  14.627
34812W        W 1221   0.908   1.214  12.408
34813W        W 1222   7.308  21.894  12.408
34814W        W 1223  38.101  29.165  10.629
34815W        W 1224  26.056  17.530  14.518
34816W        W 1225   8.514  28.350   4.032
34817W        W 1226  25.091  31.828  13.995
34818W        W 1227  26.053  13.512  11.979
34819W        W 1228   6.849  21.992   0.386
34820W        W 1229   2.853  26.070   0.530
34821W        W 1230  25.995   1.987  11.546
34822W        W 1231  27.474  42.709   3.923
34823W        W 1232   0.825  40.970   0.140
34824W        W 1233  31.092   1.816   1.278
34825W        W 1234  12.898  43.692   4.761
34826W        W 1235  44.250   7.777  12.585
34827W        W 1236  13.266  42.099   3.604
34828W        W 1237  26.625  43.118  12.132
34829W        W 1238  17.181  10.945   1.722
34830W        W 1239  44.938  32.440   1.111
34831W        W 1240   6.293  38.898   2.774
34832W        W 1241  24.672  16.149  14.006
34833W        W 1242  19.999  12.704   4.006
34834W        W 1243  39.311  27.026  11.899
34835W        W 1244  26.677  34.364  13.047
34836W        W 1245  38.933  39.034   3.030
34837W        W 1246  12.618  10.802  11.130
34838W        W 1247  12.621   2.386  13.464
34839W        W 1248  36.385  41.358  11.624
34840W        W 1249  34.631  24.752  11.167
34841W        W 1250  18.437  25.858   4.334
34842W        W 1251   1.463  35.240  11.926
34843W        W 1252   1.784  26.128  14.761
34844W        W 1253  42.316  35.635  14.867
34845W        W 1254   0.817   9.577   1.860
34846W        W 1255  33.948  38.331   2.676
34847W        W 1256   0.958   2.834  14.945
34848W        W 1257   7.795   2.995   1.904
34849W        W 1258   2.444  16.193   3.782
34850W        W 1259  26.562  22.696  14.792
34851W        W 1260  18.276  25.691  10.476
34852W        W 1261  40.767  10.597   0.832
34853W        W 1262  44.923  12.407   2.108
34854W        W 1263  36.581  35.074   1.753
34855W        W 1264   0.716  38.933   0.006
34856W        W 1265  29.033  20.532  11.007
34857W        W 1266  36.040   6.422  10.758
34858W        W 1267  14.163  10.124   0.436
34859W        W 1268   4.227  40.361  11.402
34860W        W 1269   1.712  36.620   3.990
34861W        W 1270  38.256  26.668   1.831
34862W        W 1271  28.643   7.679   0.870
34863W        W 1272   3.651   1.349  12.551
34864W        W 1273   1.279  23.738   1.570
34865W        W 1274  27.731  36.495   4.412
34866W        W 1275  23.240  23.046  14.868
34867W        W 1276  31.308  23.411   0.065
34868W        W 1277  22.151  23.454  12.357
34869W        W 1278  40.082  25.096   4.112
34870W        W 1279  17.641  36.413  12.954
34871W        W 1280  31.602  17.920  14.081
34872W        W 1281   9.295   9.976  10.055
34873W        W 1282  36.005  12.963   0.809
34874W        W 1283  14.036  17.042  12.022
34875W        W 1284  11.145   3.753   0.247
34876W        W 1285  13.881  29.933  11.934
34877W        W 1286  31.956  38.283   0.267
34878W        W 1287  28.205  35.585  11.270
34879W        W 1288  33.667  41.976   1.150
34880W        W 1289  16.649  39.001   2.445
34881W        W 1290   1.933  27.917  11.562
34882W        W 1291  41.955  13.037   0.922
34883W        W 1292  13.578  15.246   2.663
34884W        W 1293  22.561  28.630  13.580
34885W        W 1294  22.765  18.370   0.918
34886W        W 1295  33.942  24.528  13.049
34887W        W 1296  22.030  16.590  11.692
34888W        W 1297  27.833   8.622   2.267
34889W        W 1298   6.740   3.952   3.412
34890W        W 1299  19.332  33.881   1.285
34891W        W 1300  43.453   9.839  11.250
34892W        W 1301  27.301  26.148   3.912
34893W        W 1302  39.232   2.182  11.549
34894W        W 1303  14.559  21.168   0.762
34895W        W 1304  24.438  26.944  13.390
34896W        W 1305   5.173  23.170  12.997
34897W        W 1306  14.547   6.408  11.677
34898W        W 1307  32.651  27.060   0.698
34899W        W 1308   1.131  19.642   2.741
34900W        W 1309   5.696  14.567  14.836
34901W        W 1310  27.501  29.630  14.897
34902W        W 1311  35.873  10.305  10.659
34903W        W 1312  40.376   3.936   3.353
34904W        W 1313  25.157  41.338  12.113
34905W        W 1314  30.425  32.106   0.333
34906W        W 1315   7.317  13.178   0.002
34907W        W 1316   6.173  43.322  10.720
34908W        W 1317   4.994  29.237  11.817
34909W        W 1318  17.810  33.408   0.726
34910W        W 1319  13.354  30.074   0.243
34911W        W 1320  12.626  23.674   0.337
34912W        W 1321   2.340  38.145   3.067
34913W        W 1322   9.960  19.784   0.583
34914W        W 1323  22.054  34.089  14.040
34915W        W 1324  14.990  28.213  12.592
34916W        W 1325  19.464  29.026   2.113
34917W        W 1326  13.529  34.977   2.557
34918W        W 1327   8.333  39.803  12.035
34919W        W 1328  28.970  31.447   2.917
34920W        W 1329  29.409   9.955  10.214
34921W        W 1330  18.475  31.005  12.453
34922W        W 1331  40.764  38.374   0.626
34923W        W 1332  18.822  23.948   4.878
34924W        W 1333  19.795  18.853  11.411
34925W        W 1334  26.835  21.429  12.027
34926W        W 1335  33.866  42.861   5.093
34927W        W 1336  43.015   2.259   2.370
34928W        W 1337   3.272  32.241   5.067
34929W        W 1338   0.186  19.477   2.359
34930W        W 1339  33.439  21.654   4.778
34931W        W 1340  32.891  44.053   1.728
34932W        W 1341  23.291   8.155  10.735
34933W        W 1342   0.939   9.254  14.734
34934W        W 1343  33.920  44.282   0.505
34935W        W 1344  17.358   5.878  13.943
34936W        W 1345  10.911   3.919  12.947
34937W        W 1346   5.857  34.484  14.397
34938W        W 1347  13.748   3.043  13.615
34939W        W 1348   1.310  12.434  13.621
34940W        W 1349   2.282  15.857  10.406
34941W        W 1350  37.455  10.304  14.798
34942W        W 1351  16.747  10.998  14.977
34943W        W 1352  30.987  41.898   2.453
34944W        W 1353  34.965  41.777   1.302
34945W        W 1354  35.200  26.587  12.479
34946W        W 1355  42.552  18.065   4.279
34947W        W 1356  37.057  21.354   4.999
34948W        W 1357  16.174   5.559   2.909
34949W        W 1358   3.888   8.123   3.553
34950W        W 1359  32.394  40.768  10.887
34951W        W 1360  39.008  41.629   4.401
34952W        W 1361  11.648  13.883  12.382
34953W        W 1362   1.876  32.604   0.882
34954W        W 1363  11.026   5.573   2.310
34955W        W 1364  20.234  37.872  11.537
34956W        W 1365  43.232  18.818  14.396
34957W        W 1366  35.642   9.321   3.372
34958W        W 1367  34.846   5.251  14.469
34959W        W 1368  35.164  31.140   4.576
34960W        W 1369  31.052  43.952   2.620
34961W        W 1370  31.933  33.256  11.132
34962W        W 1371  32.330  20.052   4.878
34963W        W 1372  43.128  27.031  13.464
34964W        W 1373  15.766  20.783   3.701
34965W        W 1374  28.823  21.106  10.934
34966W        W 1375  35.532  34.383  14.559
34967W        W 1376  15.225  28.195  12.039
34968W        W 1377  39.141   1.905  13.504
34969W        W 1378   2.684  19.862   3.181
34970W        W 1379  34.092  18.759   2.210
34971W        W 1380  38.331   4.703   4.141
34972W        W 1381  15.222  17.673   3.985
34973W        W 1382  23.495  28.549  12.073
34974W        W 1383  20.670  10.376  10.804
34975W        W 1384  35.445   9.313   3.850
34976W        W 1385  29.846  27.985  12.282
34977W        W 1386  22.235  41.565   2.484
34978W        W 1387  21.743  18.548  14.769
34979W        W 1388  18.596  18.747  14.928
34980W        W 1389  13.093  37.237  11.570
34981W        W 1390  13.055  34.150  11.042
34982W        W 1391  21.769  26.164  13.754
34983W        W 1392  25.979  41.794   2.617
34984W        W 1393  25.624  23.061   0.807
34985W        W 1394  18.429  27.716  11.966
34986W        W 1395  10.846   2.886  13.113
34987W        W 1396  17.818  41.767  12.031
34988W        W 1397  17.196  29.817   5.099
34989W        W 1398  13.692  42.784   4.503
34990W        W 1399  35.788  30.517   4.365
34991W        W 1400  18.921  26.737   4.036
34992W        W 1401  18.628  42.877   1.776
34993W        W 1402  16.969  33.421  11.579
34994W        W 1403  15.682  41.488  11.152
34995W        W 1404  29.728   3.274   0.923
34996W        W 1405  14.362  35.075  11.188
34997W        W 1406   8.189  21.293   0.390
34998W        W 1407  39.806  20.319  10.728
34999W        W 1408   3.895  25.981   1.468
35000W        W 1409  41.987  28.498  12.580
35001W        W 1410   3.283  10.177  12.904
35002W        W 1411  27.584   2.944  14.068
35003W        W 1412  36.646  13.933  10.592
35004W        W 1413  29.771  37.293  13.087
35005W        W 1414  33.187   8.292  12.782
35006W        W 1415  26.490   4.339   3.792
35007W        W 1416   4.415   7.134  11.758
35008W        W 1417  24.134   8.199  10.208
35009W        W 1418  12.269  12.182  11.901
35010W        W 1419  24.279   0.359   0.315
35011W        W 1420  38.794  25.090  14.378
35012W        W 1421  11.833  33.252  12.312
35013W        W 1422  11.217  24.136  14.220
35014W        W 1423   3.852   6.203   4.130
35015W        W 1424  12.251  14.631   4.679
35016W        W 1425  19.761  22.470  12.541
35017W        W 1426   4.820   6.771   4.641
35018W        W 1427  42.805  10.655   3.161
35019W        W 1428  23.998  38.454   2.776
35020W        W 1429  13.088  15.091   0.240
35021W        W 1430  21.260  33.132   4.070
35022W        W 1431  12.165  33.097   2.256
35023W        W 1432  30.896   1.782   5.259
35024W        W 1433   1.789   2.777  10.768
35025W        W 1434   3.779  34.852  12.502
35026W        W 1435  15.226  20.750   3.735
35027W        W 1436  30.567   5.796  14.603
35028W        W 1437  27.606   6.193  13.924
35029W        W 1438  28.843  14.359   2.099
35030W        W 1439   8.339  34.452  11.521
35031W        W 1440  18.267   0.447  12.326
35032W        W 1441  20.157  31.614  10.586
35033W        W 1442   0.231  37.859   1.391
35034W        W 1443  10.176  11.596  11.534
35035W        W 1444  31.048  41.764   0.717
35036W        W 1445  12.911   6.242   0.015
35037W        W 1446  32.735  31.126   4.493
35038W        W 1447  12.262  19.175   0.880
35039W        W 1448   5.314   4.396  14.290
35040W        W 1449  24.624  18.799   4.117
35041W        W 1450   5.709  14.780  12.908
35042W        W 1451  42.792  11.239  13.176
35043W        W 1452  36.167  33.581  11.274
35044W        W 1453  39.375  30.405   2.372
35045W        W 1454  21.261  11.850   2.696
35046W        W 1455  41.494   8.574   2.259
35047W        W 1456  44.085  11.761  11.018
35048W        W 1457  16.074  39.765  12.087
35049W        W 1458  20.462  13.885   2.259
35050W        W 1459   2.024   0.176   2.157
35051W        W 1460  28.694   4.792  12.277
35052W        W 1461   6.909  24.620  14.246
35053W        W 1462   0.883  41.022   2.706
35054W        W 1463   0.681  23.137  11.502
35055W        W 1464  42.676  36.253   5.123
35056W        W 1465  35.492  28.377   3.814
35057W        W 1466  34.507  42.267   1.685
35058W        W 1467  26.114   5.261  12.630
35059W        W 1468  17.071  36.008  12.458
35060W        W 1469  41.854  26.313   4.998
35061W        W 1470  34.091   1.164  12.785
35062W        W 1471   6.900  11.649  10.693
35063W        W 1472  13.367  40.868  10.945
35064W        W 1473  37.064  29.227   4.592
35065W        W 1474  32.712   2.795  10.720
35066W        W 1475  16.786   1.281  14.798
35067W        W 1476  44.736   1.727  14.832
35068W        W 1477  10.387  31.033   5.004
35069W        W 1478  10.955   3.282  13.436
35070W        W 1479  32.215  19.043   3.245
35071W        W 1480  40.346   4.172  13.541
35072W        W 1481  23.587  43.499  14.868
35073W        W 1482  32.344  36.707   4.526
35074W        W 1483  27.018  19.520  14.848
35075W        W 1484  21.032  16.144  14.872
35076W        W 1485  41.005  25.633  10.603
35077W        W 1486   4.182  30.967   2.822
35078W        W 1487  19.192  34.948   1.896
35079W        W 1488  37.182  32.867  13.053
35080W        W 1489   0.489  24.821  11.980
35081W        W 1490  43.501  38.516  13.039
35082W        W 1491  24.637   5.851   2.945
35083W        W 1492   3.853  30.873  11.110
35084W        W 1493   2.436  17.147   0.506
35085W        W 1494  19.252  12.539   4.644
35086W        W 1495   9.166  30.634  13.592
35087W        W 1496  42.770   4.957   4.143
35088W        W 1497  16.136  18.257   5.343
35089W        W 1498  37.040  17.316   4.066
35090W        W 1499  41.315   2.774  13.500
35091W        W 1500  43.987  18.617  11.560
35092W        W 1501  31.213  33.372  10.257
35093W        W 1502  20.454  28.018   0.885
35094W        W 1503  11.241  40.711   3.310
35095W        W 1504  38.542  25.626   3.745
35096W        W 1505  39.827  18.353   1.447
35097W        W 1506  36.278  26.386   1.895
35098W        W 1507  37.041  26.544  10.705
35099W        W 1508  25.489  25.538   1.913
35100W        W 1509  11.778  24.540   4.929
35101W        W 1510   4.358  23.568  10.274
35102W        W 1511  24.955   4.211   0.020
35103W        W 1512  39.973   5.411   0.748
35104W        W 1513  32.365  18.822   0.685
35105W        W 1514  17.572   1.453  14.387
35106W        W 1515  29.983  42.893  14.024
35107W        W 1516  33.454  16.906  11.843
35108W        W 1517  43.518   4.697   4.429
35109W        W 1518  39.287  38.573  13.397
35110W        W 1519  40.020   2.442  13.480
35111W        W 1520  18.655  31.059   3.771
35112W        W 1521   8.782  33.934   2.993
35113W        W 1522  36.681  33.005  11.650
35114W        W 1523   8.840  22.231   3.271
35115W        W 1524   6.148   8.610  11.987
35116W        W 1525  20.448  30.615  14.880
35117W        W 1526  32.003  42.075   3.928
35118W        W 1527  15.405  23.454  11.603
35119W        W 1528  34.546  40.276   3.664
35120W        W 1529   1.821  32.988   1.865
35121W        W 1530  42.486  36.604   4.752
35122W        W 1531  12.037  43.006  11.003
35123W        W 1532  16.580   8.916  11.079
35124W        W 1533  22.068  26.258  12.241
35125W        W 1534  28.884   5.004  10.427
35126W        W 1535   0.748  29.694  12.890
35127W        W 1536  30.635   6.269   0.019
35128W        W 1537  42.295  10.683  12.112
35129W        W 1538  17.189  44.256   4.130
35130W        W 1539  28.914  37.555   0.063
35131W        W 1540  36.796  35.048   3.627
35132W        W 1541  25.210  27.289  13.348
35133W        W 1542   7.353   8.703   1.911
35134W        W 1543   5.836  14.423  11.094
35135W        W 1544  15.798  19.240  13.290
35136W        W 1545  25.927   1.700  10.679
35137W        W 1546  12.017  36.820  12.193
35138W        W 1547  30.500   0.873   4.545
35139W        W 1548   3.413  13.663  14.803
35140W        W 1549  27.976  18.259   2.747
35141W        W 1550  42.925  24.228  10.777
35142W        W 1551  33.418  22.048   0.539
35143W        W 1552  37.066  12.750  11.720
35144W        W 1553  31.394  19.259   1.353
35145W        W 1554  20.622   8.662   3.613
35146W        W 1555  22.646   0.974   4.303
35147W        W 1556   5.978   7.418  13.830
35148W        W 1557  20.126   5.385   0.517
35149W        W 1558  41.527  11.103   2.346
35150W        W 1559  37.042  33.642  13.496
35151W        W 1560  42.059  38.857   3.148
35152W        W 1561  11.197  20.150  11.140
35153W        W 1562   7.918  15.287  12.927
35154W        W 1563   7.201   7.143   1.269
35155W        W 1564  39.993  13.763   0.255
35156W        W 1565  36.794   1.244  10.804
35157W        W 1566  28.478   0.266   0.862
35158W        W 1567  29.418  42.167  14.235
35159W        W 1568  43.541   4.885  10.541
35160W        W 1569   6.371   7.386  10.449
35161W        W 1570   4.666  15.974   0.302
35162W        W 1571  37.019  10.181  14.269
35163W        W 1572  19.557  19.305   0.808
35164W        W 1573   5.761  34.573  11.973
35165W        W 1574  17.174  44.906  12.194
35166W        W 1575   8.210  21.160  14.886
35167W        W 1576  33.494  16.134   3.400
35168W        W 1577  42.418   6.032  12.031
35169W        W 1578  18.708  27.811  12.817
35170W        W 1579  18.993  11.627   2.889
35171W        W 1580  35.445  17.206   3.636
35172W        W 1581  39.908   6.476  14.714
35173W        W 1582  16.674  16.819  11.564
35174W        W 1583  20.778  40.526  10.625
35175W        W 1584  32.386   6.686   5.193
35176W        W 1585  12.636   0.165   3.229
35177W        W 1586  41.266   7.540  12.994
35178W        W 1587  25.260  10.374  12.007
35179W        W 1588  14.050   0.824  14.470
35180W        W 1589  25.117  25.663   0.386
35181W        W 1590  10.057  13.215   0.911
35182W        W 1591  31.280  22.839  11.906
35183W        W 1592  18.134  32.158   4.168
35184W        W 1593  15.580  34.587  11.077
35185W        W 1594  33.072  40.262   0.707
35186W        W 1595   6.427   7.294  14.762
35187W        W 1596  43.111  36.953   3.131
35188W        W 1597  44.475  36.177  14.203
35189W        W 1598   7.737  24.060  13.080
35190W        W 1599   1.107  42.895  10.241
35191W        W 1600  25.129  11.200   3.619
35192W        W 1601  17.135   6.175  13.487
35193W        W 1602  11.660   5.870  11.731
35194W        W 1603  37.253  14.058  10.754
35195W        W 1604   7.474  10.112  10.980
35196W        W 1605   4.683  28.359  10.220
35197W        W 1606   2.300  34.921  10.622
35198W        W 1607   5.786   3.889   2.370
35199W        W 1608   9.087   9.389   2.717
35200W        W 1609  22.016  25.476   0.869
35201W        W 1610  22.930  24.024  13.524
35202W        W 1611  27.268   9.935  10.931
35203W        W 1612  15.174  26.545  14.063
35204W        W 1613   4.065  30.115  13.916
35205W        W 1614   4.179   1.451   1.112
35206W        W 1615  25.291  22.640   0.347
35207W        W 1616  11.631  13.496   4.155
35208W        W 1617  31.546  11.331  14.462
35209W        W 1618   7.259   0.855   2.582
35210W        W 1619   3.938  42.496   3.618
35211W        W 1620   8.200  39.067   5.038
35212W        W 1621  22.956  14.361  11.458
35213W        W 1622  40.546   0.867   0.422
35214W        W 1623   8.485  11.136   3.126
35215W        W 1624  17.917  24.409   2.688
35216W        W 1625  28.679  15.857   0.879
35217W        W 1626  11.130   1.261  12.391
35218W        W 1627  24.220  38.984   0.371
35219W        W 1628  15.806   3.578   0.521
35220W        W 1629  26.115   9.167   0.468
35221W        W 1630  15.868   2.757   2.110
35222W        W 1631  22.014  32.944   3.100
35223W        W 1632   9.277   9.848   0.560
35224W        W 1633  30.343  17.204   0.623
35225W        W 1634  36.127  39.456  12.272
35226W        W 1635  40.521  36.560   0.903
35227W        W 1636   5.758  36.881   0.949
35228W        W 1637  14.343  40.153  13.544
35229W        W 1638  33.092   7.780   4.382
35230W        W 1639  41.428   9.905  14.382
35231W        W 1640   7.231  34.419   4.438
35232W        W 1641  40.132  16.638  10.438
35233W        W 1642  30.567  28.695   2.461
35234W        W 1643  32.901  25.581   1.972
35235W        W 1644  35.203   4.460  13.586
35236W        W 1645  30.043  21.418  13.942
35237W        W 1646  31.599  10.255   1.682
35238W        W 1647  13.400  35.461   2.694
35239W        W 1648  42.485  25.399   0.465
35240W        W 1649  15.768  20.255  11.085
35241W        W 1650  27.115  43.050  14.978
35242W        W 1651  28.883  30.890   4.902
35243W        W 1652  43.286   4.699  11.856
35244W        W 1653  43.013  40.076   3.918
35245W        W 1654  34.586  13.408  14.538
35246W        W 1655   8.308  36.280   3.826
35247W        W 1656   5.905  39.883  11.661
35248W        W 1657  42.452  37.142  11.157
35249W        W 1658  29.727  44.217   1.645
35250W        W 1659  22.039  24.973  12.505
35251W        W 1660  27.554  27.633   2.437
35252W        W 1661  22.018  29.916   2.398
35253W        W 1662  34.902  32.539   1.224
35254W        W 1663  16.680  26.588  13.360
35255W        W 1664   2.763  44.356  14.524
35256W        W 1665  21.876  44.755  10.654
35257W        W 1666   7.954   3.525  11.922
35258W        W 1667  18.506   2.574  14.164
35259W        W 1668  17.738  33.869  11.393
35260W        W 1669  43.239  29.923   3.395
35261W        W 1670  27.298  28.783   2.188
35262W        W 1671   7.105  34.307  13.584
35263W        W 1672  44.489  19.002  14.861
35264W        W 1673  32.719  18.077   2.911
35265W        W 1674  28.691  16.191  11.562
35266W        W 1675  39.288  22.605  11.151
35267W        W 1676   8.190  15.226  14.265
35268W        W 1677   1.245  21.174   0.057
35269W        W 1678  13.568  19.619  14.022
35270W        W 1679  33.349   4.385  14.904
35271W        W 1680  25.536  10.387  11.577
35272W        W 1681  35.524  31.444   4.358
35273W        W 1682  41.899  44.629  12.882
35274W        W 1683  19.179  12.654   0.029
35275W        W 1684  24.567  43.846   2.799
35276W        W 1685   5.327  30.052   4.637
35277W        W 1686   5.294  23.943   1.327
35278W        W 1687   0.717   5.146   3.453
35279W        W 1688  14.708  14.529   2.108
35280W        W 1689   2.200  32.043   1.784
35281W        W 1690   2.425  16.724  10.914
35282W        W 1691  35.060  39.675  11.999
35283W        W 1692  18.243   0.891  10.751
35284W        W 1693  39.287  21.204   0.419
35285W        W 1694   5.245  24.567   3.033
35286W        W 1695   4.200  43.736  12.040
35287W        W 1696  23.999  15.872  12.089
35288W        W 1697  29.566  38.899   4.749
35289W        W 1698  25.196  35.876   4.328
35290W        W 1699  12.256  24.488   1.886
35291W        W 1700  13.201  23.742   4.103
35292W        W 1701  15.231  28.199   1.382
35293W        W 1702  37.341   2.499   0.503
35294W        W 1703  26.194  24.811   4.021
35295W        W 1704  16.071   1.874   3.013
35296W        W 1705   5.604  20.532  12.824
35297W        W 1706  42.459  17.390   5.156
35298W        W 1707  26.097   1.056  13.270
35299W        W 1708  37.852   9.638   0.736
35300W        W 1709  30.621  10.894  14.318
35301W        W 1710  23.579  17.727   3.579
35302W        W 1711   6.882  31.960   0.831
35303W        W 1712   1.443  18.266   1.119
35304W        W 1713  13.881   3.066   1.359
35305W        W 1714  14.586  31.581  12.110
35306W        W 1715  28.658  20.072   4.709
35307W        W 1716  37.965   1.207  14.567
35308W        W 1717  29.798  36.039  10.292
35309W        W 1718  33.938  34.853   3.756
35310W        W 1719  19.543  14.588  13.858
35311W        W 1720  36.661   7.056   0.837
35312W        W 1721  10.310  41.532  13.399
35313W        W 1722  20.981  19.124  10.653
35314W        W 1723   0.108  29.575  11.146
35315W        W 1724  22.136  32.435   3.217
35316W        W 1725  20.522  16.579   0.239
35317W        W 1726  31.309  32.403  11.719
35318W        W 1727  10.215   8.760  13.595
35319W        W 1728  23.686  22.492   0.298
35320W        W 1729  39.251  36.028   4.847
35321W        W 1730  27.055  15.189  14.725
35322W        W 1731  16.242   2.375   3.202
35323W        W 1732  43.824  22.839  12.893
35324W        W 1733   2.292  44.791  12.672
35325W        W 1734  32.616  38.777  14.623
35326W        W 1735  16.799  33.750  14.544
35327W        W 1736  30.624  14.874  12.657
35328W        W 1737  16.302   8.727   4.577
35329W        W 1738  11.539  33.235   0.253
35330W        W 1739  31.384   9.753  12.453
35331W        W 1740  42.770   8.325   3.238
35332W        W 1741   0.938  14.502   3.909
35333W        W 1742  11.835  20.663  12.479
35334W        W 1743  44.089  28.012  10.993
35335W        W 1744  14.591  13.538  11.128
35336W        W 1745  44.775  20.758   1.838
35337W        W 1746  39.291  32.994  12.463
35338W        W 1747  26.090  41.859  12.920
35339W        W 1748  43.220  34.558  14.839
35340W        W 1749  17.453   1.691   3.894
35341W        W 1750  35.405   9.859  12.008
35342W        W 1751  14.369  38.691  13.031
35343W        W 1752   5.681  43.448  12.557
35344W        W 1753  44.391  43.744   1.674
35345W        W 1754   7.386  30.541   0.703
35346W        W 1755   9.909  35.636   4.637
35347W        W 1756  36.497   0.918  13.388
35348W        W 1757  32.132  34.270   4.263
35349W        W 1758   5.922   0.304  14.470
35350W        W 1759  19.958   2.464  14.764
35351W        W 1760  26.757   4.745   3.934
35352W        W 1761  23.979  13.663  13.396
35353W        W 1762  43.909  31.386  14.879
35354W        W 1763  21.531  31.026   3.072
35355W        W 1764  39.946  24.799   5.017
35356W        W 1765  25.195  25.055  10.642
35357W        W 1766  23.520  24.429   3.170
35358W        W 1767  41.090  13.803   2.304
35359W        W 1768  18.583  30.045   0.225
35360W        W 1769   9.605   0.556   5.447
35361W        W 1770  16.104  43.195   0.648
35362W        W 1771  38.194  16.381  13.826
35363W        W 1772  43.661   3.030   2.678
35364W        W 1773  20.919  44.974   3.228
35365W        W 1774  19.517  18.150  14.301
35366W        W 1775  24.253  33.402  13.499
35367W        W 1776  21.085  31.667   4.023
35368W        W 1777  20.750  14.555  11.546
35369W        W 1778  25.183  10.959   4.052
35370W        W 1779  38.525  31.635   2.798
35371W        W 1780  21.720  21.254   3.883
35372W        W 1781  21.575  10.747  11.455
35373W        W 1782  37.831  20.184   0.321
35374W        W 1783  27.087  25.995  13.437
35375W        W 1784  36.846   3.843   4.027
35376W        W 1785  14.016  20.017   5.082
35377W        W 1786  15.346  34.533  12.974
35378W        W 1787  14.591  30.375   2.385
35379W        W 1788   9.796  19.162   3.321
35380W        W 1789   2.777   2.336   1.140
35381W        W 1790   0.801  26.222   2.232
35382W        W 1791  30.935  12.743   4.647
35383W        W 1792  35.955   5.783   2.665
35384W        W 1793   9.754  10.384  14.950
35385W        W 1794  42.735  16.505  14.382
35386W        W 1795   9.379  23.259   1.947
35387W        W 1796  39.191  28.881  12.974
35388W        W 1797  29.976  34.348  13.369
35389W        W 1798   4.917  35.353   4.615
35390W        W 1799  10.354  34.525   4.688
35391W        W 1800  29.008  11.342  11.371
35392W        W 1801  27.877  30.383  10.494
35393W        W 1802  31.079  41.486   0.265
35394W        W 1803   7.168   6.357  14.355
35395W        W 1804  26.951   9.697  13.419
35396W        W 1805  14.181   4.224   4.582
35397W        W 1806   3.954  33.971   1.386
35398W        W 1807  36.485  10.838  12.068
35399W        W 1808  41.593  30.809   2.769
35400W        W 1809  26.124  29.457  13.580
35401W        W 1810  42.792   8.491  11.610
35402W        W 1811  33.007  14.344  14.781
35403W        W 1812   8.459   4.645   3.618
35404W        W 1813  15.738  44.684   2.103
35405W        W 1814   6.863  33.791   2.260
35406W        W 1815  35.153  39.045  14.564
35407W        W 1816  11.290  44.346  13.146
35408W        W 1817   8.734  19.534   4.922
35409W        W 1818  13.744  36.911   1.201
35410W        W 1819  43.411  41.533   2.698
35411W        W 1820  31.450  12.371   0.202
35412W        W 1821   1.380  41.835   3.043
35413W        W 1822  28.720  30.164   3.079
35414W        W 1823   9.097   8.891  13.328
35415W        W 1824  38.396  16.269   4.126
35416W        W 1825  25.317   7.620  12.447
35417W        W 1826  11.679  38.447  12.987
35418W        W 1827   4.273  18.635   4.509
35419W        W 1828  27.603   3.716   2.451
35420W        W 1829   0.760  33.579   0.872
35421W        W 1830  38.057  32.500   3.376
35422W        W 1831   8.799  40.009   3.759
35423W        W 1832  19.572  28.115   4.169
35424W        W 1833  22.851  44.813   4.203
35425W        W 1834  29.501  32.125   4.953
35426W        W 1835   5.896  40.286  12.904
35427W        W 1836   4.852  35.962  11.275
35428W        W 1837  11.759  11.166  14.027
35429W        W 1838  39.768  10.227  11.263
35430W        W 1839  16.599   3.871   0.040
35431W        W 1840  27.201  19.788  12.398
35432W        W 1841   6.537  10.932  13.905
35433W        W 1842  34.354  35.326   4.281
35434W        W 1843  30.671  20.995   3.251
35435W        W 1844  22.296  20.801  12.995
35436W        W 1845  32.558  13.656  13.277
35437W        W 1846  24.343  28.454   1.131
35438W        W 1847   0.514  32.415   2.386
35439W        W 1848  18.851  16.189   3.385
35440W        W 1849  30.504  41.049   3.209
35441W        W 1850  25.725   6.042  13.536
35442W        W 1851   0.493  27.450  11.707
35443W        W 1852  27.074  32.188   4.853
35444W        W 1853  22.006  26.689   4.493
35445W        W 1854  14.149  15.331  13.726
35446W        W 1855  29.081  33.020  14.065
35447W        W 1856  30.459  12.054  11.318
35448W        W 1857  15.223  30.540  11.963
35449W        W 1858  19.195  15.279  13.560
35450W        W 1859  43.331  11.083  14.896
35451W        W 1860  37.360  42.286  14.743
35452W        W 1861   2.027  17.810  12.547
35453W        W 1862  12.701   3.289  12.223
35454W        W 1863   7.408   5.323   4.296
35455W        W 1864  39.470  43.844  10.778
35456W        W 1865  22.546  25.396   0.998
35457W        W 1866  37.431  30.886   4.091
35458W        W 1867  33.363   2.640   0.717
35459W        W 1868  34.200  26.003   3.621
35460W        W 1869  25.402   4.272   0.302
35461W        W 1870  24.884   1.710   3.624
35462W        W 1871   0.446   9.941   1.758
35463W        W 1872  41.505  36.943  10.846
35464W        W 1873  25.692  10.696   0.150
35465W        W 1874   5.905  29.429   0.293
35466W        W 1875   3.570  27.534   4.488
35467W        W 1876  20.780  26.591   2.920
35468W        W 1877  13.484  38.299   3.988
35469W        W 1878   5.798  39.993   3.197
35470W        W 1879   0.717  10.164  12.190
35471W        W 1880  18.622  12.771  12.431
35472W        W 1881  31.522   2.840   2.546
35473W        W 1882  32.112  21.410   2.109
35474W        W 1883   1.023  19.265  10.740
35475W        W 1884   6.189  34.632   2.858
35476W        W 1885  42.879   2.712   2.080
35477W        W 1886  28.601   5.456  11.532
35478W        W 1887   9.990   5.868  11.564
35479W        W 1888  19.598  23.029   3.156
35480W        W 1889  10.359   7.354   0.228
35481W        W 1890  10.637  39.198   4.099
35482W        W 1891  25.220  41.591   0.176
35483W        W 1892  24.653   0.298  11.657
35484W        W 1893  28.070  34.970  12.394
35485W        W 1894   0.694  29.081  14.928
35486W        W 1895  29.650  21.032  12.917
35487W        W 1896  40.785   6.003   1.661
35488W        W 1897   4.233  31.137  11.643
35489W        W 1898  38.541  12.049  11.061
35490W        W 1899  29.369  43.545   2.206
35491W        W 1900  40.833  31.096   1.813
35492W        W 1901  27.411  26.994  11.507
35493W        W 1902  16.412  24.890   2.406
35494W        W 1903   1.813  30.947   1.973
35495W        W 1904   1.734   6.408   4.193
35496W        W 1905  11.285  11.895   4.783
35497W        W 1906  27.668  25.256   2.111
35498W        W 1907   1.673  34.299  13.380
35499W        W 1908  22.094   8.440  14.416
35500W        W 1909  39.796  15.294  10.484
35501W        W 1910  44.795  41.935  11.623
35502W        W 1911   2.262   9.657  14.297
35503W        W 1912  37.677  34.206  13.006
35504W        W 1913  30.384  38.571   2.924
35505W        W 1914  44.771  35.782  12.452
35506W        W 1915  20.190  30.650  10.369
35507W        W 1916  23.127  23.598   3.132
35508W        W 1917  42.465  18.343  10.735
35509W        W 1918   5.699  19.302  14.720
35510W        W 1919  17.961  40.462  11.522
35511W        W 1920  11.279   3.688  11.093
35512W        W 1921  37.672  22.011  13.132
35513W        W 1922  41.866  39.218   1.203
35514W        W 1923  11.757  17.714  12.109
35515W        W 1924   6.359   7.694   1.322
35516W        W 1925  43.075  18.594  12.578
35517W        W 1926  38.112  25.581   0.266
35518W        W 1927   1.923   9.939   2.760
35519W        W 1928  20.580  25.507   3.311
35520W        W 1929  25.484  14.148  11.253
35521W        W 1930  41.240   2.545  13.952
35522W        W 1931   1.614   5.786  10.894
35523W        W 1932  29.339   2.171  14.264
35524W        W 1933  16.137   7.218  13.894
35525W        W 1934   0.367  44.819  11.980
35526W        W 1935   7.700  21.242   0.067
35527W        W 1936  32.193  10.319  10.534
35528W        W 1937  27.170   6.315  10.275
35529W        W 1938  39.895  21.810   2.647
35530W        W 1939  32.895  21.675  11.043
35531W        W 1940   2.760  11.808  12.491
35532W        W 1941  34.277  32.227  14.173
35533W        W 1942   9.770  37.356  12.670
35534W        W 1943  21.244  42.523  12.440
35535W        W 1944   1.115   0.022   4.272
35536W        W 1945  10.622   4.846  11.955
35537W        W 1946  44.328  25.250   3.216
35538W        W 1947  20.770  42.242  11.559
35539W        W 1948   1.278  34.802  11.125
35540W        W 1949  16.404  16.910  11.982
35541W        W 1950   9.631  31.050  11.129
35542W        W 1951  38.148  37.001  11.913
35543W        W 1952  10.871   8.343   0.213
35544W        W 1953  11.442   3.855   2.867
35545W        W 1954  36.624  39.621  14.749
35546W        W 1955   6.612  24.264  13.101
35547W        W 1956  33.172  30.553  13.351
35548W        W 1957  13.846   9.781   0.200
35549W        W 1958   7.921  29.864   1.721
35550W        W 1959  10.611  15.673  10.636
35551W        W 1960  14.581  28.532   2.008
35552W        W 1961  16.457  28.159   4.407
35553W        W 1962  30.085  22.004  11.629
35554W        W 1963  31.162  27.592   1.862
35555W        W 1964  26.018  22.785  10.777
35556W        W 1965  29.178  16.314   1.702
35557W        W 1966  21.453  32.651   2.391
35558W        W 1967   5.175  19.069   3.448
35559W        W 1968  30.907   6.779  13.125
35560W        W 1969  40.516  25.661  10.839
35561W        W 1970  22.219  12.316   2.804
35562W        W 1971   2.460  32.552   3.857
35563W        W 1972  37.427  41.118  11.887
35564W        W 1973  13.054  43.547   2.939
35565W        W 1974  22.077  42.523  10.460
35566W        W 1975  12.335  44.185   3.864
35567W        W 1976  19.938   2.102  12.003
35568W        W 1977  41.366  27.035  13.298
35569W        W 1978  36.019   1.760   0.767
35570W        W 1979  36.794  39.774  11.618
35571W        W 1980  41.358  27.722   4.437
35572W        W 1981  14.640  10.121   4.385
35573W        W 1982   1.177  30.941   2.372
35574W        W 1983  21.715  34.295  10.702
35575W        W 1984  30.762   3.298   2.444
35576W        W 1985  26.604  43.191   4.917
35577W        W 1986  18.212  44.982  10.624
35578W        W 1987  26.524  13.596   2.679
35579W        W 1988  41.626  35.087  13.032
35580W        W 1989  28.357  39.678  11.911
35581W        W 1990  36.741   5.359   0.449
35582W        W 1991  17.339  36.793  14.952
35583W        W 1992  43.309  33.543   2.439
35584W        W 1993  16.579  11.615   2.741
35585W        W 1994   4.729   6.197  10.976
35586W        W 1995  14.117  23.611  14.529
35587W        W 1996  23.530   7.206  12.687
35588W        W 1997   2.703  26.555   2.232
35589W        W 1998  11.324   5.448  10.415
35590W        W 1999   1.641  40.884   4.170
35591W        W 2000   4.438  11.910  11.269
35592W        W 2001   5.194  41.144   0.756
35593W        W 2002  38.963  12.313   3.600
35594W        W 2003  39.878  14.408   0.788
35595W        W 2004  10.784  23.971   1.718
35596W        W 2005   5.323  44.393   3.620
35597W        W 2006   6.752  44.281   9.916
35598W        W 2007  26.248  43.545   1.713
35599W        W 2008  22.575   6.163   3.134
35600W        W 2009  24.255  26.047  10.602
35601W        W 2010  33.212  39.844  13.040
35602W        W 2011  16.581  13.720   3.820
35603W        W 2012   8.741  32.916  12.911
35604W        W 2013  22.728  21.147   0.726
35605W        W 2014  13.349  16.410  14.084
35606W        W 2015  44.171   2.160  14.083
35607W        W 2016  30.899  40.969  10.803
35608W        W 2017   5.289  24.666  11.407
35609W        W 2018  10.810   6.190   9.969
35610W        W 2019  34.518  22.422   1.909
35611W        W 2020  21.165  22.740  14.857
35612W        W 2021  18.635  36.514   2.922
35613W        W 2022  19.708  16.320  12.301
35614W        W 2023  42.080  24.732  11.893
35615W        W 2024  42.300  40.348  10.905
35616W        W 2025  40.339  40.494   2.380
35617W        W 2026  20.498   0.946   4.860
35618W        W 2027  13.872  26.257  12.701
35619W        W 2028  13.844   7.831  10.445
35620W        W 2029  42.120  16.643   1.818
35621W        W 2030  31.151  39.780   3.281
35622W        W 2031  36.046  27.622   0.983
35623W        W 2032  17.814  26.993   1.334
35624W        W 2033  16.061  16.175  14.761
35625W        W 2034  36.791  38.335  12.445
35626W        W 2035  31.228  34.357   1.602
35627W        W 2036  32.947  15.015  12.604
35628W        W 2037  30.873  14.178   2.299
35629W        W 2038  42.086  32.620   3.760
35630W        W 2039   3.295   3.391  11.881
35631W        W 2040  27.479  19.648   0.048
35632W        W 2041  15.088   3.788  13.892
35633W        W 2042  20.708  41.472  10.524
35634W        W 2043   7.143   4.860   0.635
35635W        W 2044  43.887  24.978   4.936
35636W        W 2045  38.829  21.402  13.926
35637W        W 2046   9.645   9.444  13.839
35638W        W 2047   2.516   2.800  12.069
35639W        W 2048  43.020  22.682  14.729
35640W        W 2049  40.828  38.528  13.380
35641W        W 2050  20.785   5.740  12.925
35642W        W 2051  26.404  22.591  12.459
35643W        W 2052   1.044  18.998  14.791
35644W        W 2053  44.557  18.897   1.227
35645W        W 2054  41.665  17.353   4.135
35646W        W 2055  23.570   8.821  14.886
35647W        W 2056  44.802  11.477   2.347
35648W        W 2057   5.770  44.495  11.644
35649W        W 2058  35.347  34.375   4.246
35650W        W 2059  20.670  15.809  10.788
35651W        W 2060  44.315  12.137   2.191
35652W        W 2061  23.718  44.932   4.122
35653W        W 2062   2.040   1.455  14.786
35654W        W 2063  38.896  21.283  10.329
35655W        W 2064  40.405  27.171  11.059
35656W        W 2065  28.092  34.622  10.669
35657W        W 2066  28.556  34.512   0.009
35658W        W 2067  18.140  30.158   3.412
35659W        W 2068  15.792  44.439  12.901
35660W        W 2069  38.151   3.390   3.236
35661W        W 2070   4.210   9.903  13.516
35662W        W 2071  25.561  43.931  10.821
35663W        W 2072  37.824  25.143  12.899
35664W        W 2073  30.547  37.212  12.080
35665W        W 2074   4.301   6.974  13.833
35666W        W 2075   5.167  12.794   0.332
35667W        W 2076  24.722  16.560   1.466
35668W        W 2077  33.932  41.450   1.706
35669W        W 2078  33.840  16.820  11.098
35670W        W 2079  27.630  42.969  14.978
35671W        W 2080  41.399  14.645  10.900
35672W        W 2081  42.089  11.468  11.113
35673W        W 2082  31.644  23.003   4.073
35674W        W 2083  43.796  14.128   1.358
35675W        W 2084  16.012  24.536   3.296
35676W        W 2085  33.433   4.939  11.144
35677W        W 2086  11.869  17.566   2.487
35678W        W 2087  20.175  27.141   1.294
35679W        W 2088  43.551  37.448   4.976
35680W        W 2089   5.190  23.505   3.682
35681W        W 2090   8.207   2.712  12.618
35682W        W 2091   4.869   8.130  11.655
35683W        W 2092  13.905   6.388   4.556
35684W        W 2093  35.514   9.957   2.195
35685W        W 2094  12.072   4.756  11.921
35686W        W 2095   3.196  39.305  14.464
35687W        W 2096  18.339  27.680   2.271
35688W        W 2097  13.870  26.991   0.299
35689W        W 2098  18.235   1.693   1.834
35690W        W 2099  11.066  26.835  13.931
35691W        W 2100   4.664  15.862  12.568
35692W        W 2101  15.803  19.323   1.756
35693W        W 2102   9.411  27.119  14.847
35694W        W 2103  21.155  10.692   1.729
35695W        W 2104  27.064  43.410  12.591
35696W        W 2105  41.127  36.569  12.882
35697W        W 2106   6.152  44.456  14.938
35698W        W 2107  21.105  40.399  13.507
35699W        W 2108   5.373  14.276  10.695
35700W        W 2109  17.772  37.051   2.217
35701W        W 2110   1.940  28.640   2.250
35702W        W 2111  37.905  28.940  13.436
35703W        W 2112  39.984  35.556   4.217
35704W        W 2113  44.362  33.189  13.931
35705W        W 2114  21.554  26.224  12.853
35706W        W 2115   9.149   0.712  12.830
35707W        W 2116  43.316  33.599  12.598
35708W        W 2117  14.365  37.527   1.846
35709W        W 2118   7.949  30.720  11.675
35710W        W 2119  42.317   4.830   1.407
35711W        W 2120   1.789  38.763   0.786
35712W        W 2121   4.382   6.680   1.705
35713W        W 2122   2.674  24.205   2.484
35714W        W 2123  39.807  11.106  13.007
35715W        W 2124  10.060  27.542   0.358
35716W        W 2125   7.053  23.574  11.104
35717W        W 2126   0.304   1.974  12.814
35718W        W 2127   9.103  30.957  14.768
35719W        W 2128  44.336   7.742   0.395
35720W        W 2129   9.081   9.337   3.779
35721W        W 2130  27.974  32.205   4.991
35722W        W 2131  18.307  31.477  11.659
35723W        W 2132  24.961  11.616   0.422
35724W        W 2133  40.900  30.696   2.734
35725W        W 2134  29.695  22.639   1.345
35726W        W 2135  35.430  33.640  10.778
35727W        W 2136  39.068  38.666  12.049
35728W        W 2137   0.345   9.078  10.283
35729W        W 2138  27.630  28.477   1.861
35730W        W 2139  12.298  38.675  11.662
35731W        W 2140  18.096  42.331   1.939
35732W        W 2141  12.374  39.683   2.176
35733W        W 2142   7.236  30.142   4.122
35734W        W 2143  21.046   9.643   1.142
35735W        W 2144  19.197  22.767   2.182
35736W        W 2145  40.621  29.094  10.721
35737W        W 2146   5.895  25.306  11.637
35738W        W 2147  44.935  35.287  12.505
35739W        W 2148  13.661   4.625  14.979
35740W        W 2149  35.397  15.559  13.179
35741W        W 2150  17.838  32.644   3.798
35742W        W 2151   0.333  43.252  14.877
35743W        W 2152   4.747  34.998  14.227
35744W        W 2153  39.954  15.790   0.687
35745W        W 2154   3.889  22.188  11.403
35746W        W 2155  25.513  43.517   3.081
35747W        W 2156   2.876  36.041  13.092
35748W        W 2157  31.418  17.282   0.108
35749W        W 2158  37.942  36.969  14.948
35750W        W 2159  25.695  13.334   0.826
35751W        W 2160  36.177  28.993   0.911
35752W        W 2161  33.337  38.410  14.968
35753W        W 2162  44.262   5.656   2.233
35754W        W 2163  20.176  37.928   1.917
35755W        W 2164  25.065  11.995   5.125
35756W        W 2165   4.199  20.227  14.431
35757W        W 2166  35.317  43.819  12.637
35758W        W 2167   7.232  16.128  12.933
35759W        W 2168  25.551   8.311   2.255
35760W        W 2169  13.127  11.524   4.049
35761W        W 2170  28.031  23.561   4.808
35762W        W 2171  38.317  14.647  14.465
35763W        W 2172  44.161  13.178   2.590
35764W        W 2173  39.430  41.611   3.708
35765W        W 2174  12.095   6.739   0.686
35766W        W 2175   0.537  37.332   0.458
35767W        W 2176  12.122  41.061  13.953
35768W        W 2177  40.855  29.369   1.941
35769W        W 2178  16.597  18.204  10.460
35770W        W 2179  12.653  39.311   4.096
35771W        W 2180  31.978  10.829  12.077
35772W        W 2181  13.249  12.239  12.177
35773W        W 2182  26.975  11.320   3.639
35774W        W 2183   3.256  44.500  14.789
35775W        W 2184  27.712   4.818  13.923
35776W        W 2185  30.908   9.086  12.405
35777W        W 2186  32.400  38.017   0.368
35778W        W 2187  41.981  14.410  14.822
35779W        W 2188  44.509  34.141   1.823
35780W        W 2189  24.509   9.902  10.736
35781W        W 2190   4.970  44.030   2.286
35782W        W 2191  20.512   2.083   4.006
35783W        W 2192  37.079  14.790  11.575
35784W        W 2193  13.252  22.479   0.671
35785W        W 2194  20.373  24.726   0.980
35786W        W 2195  10.916  31.808   1.598
35787W        W 2196  14.711  12.669  13.418
35788W        W 2197  32.572  40.107   3.523
35789W        W 2198  23.011   5.468  14.770
35790W        W 2199  16.544  12.332   4.355
35791W        W 2200  10.135  21.020  12.298
35792W        W 2201   1.329  12.795  11.544
35793W        W 2202  23.800  19.158   4.030
35794W        W 2203   0.768   2.898   4.220
35795W        W 2204   5.188  14.292  12.228
35796W        W 2205  27.951  15.924   2.831
35797W        W 2206  25.463   9.869  12.433
35798W        W 2207  39.838  37.537   1.425
35799W        W 2208   0.532   0.268  10.741
35800W        W 2209  25.760  30.968  12.318
35801W        W 2210  36.593  35.618   1.830
35802W        W 2211   9.396  41.743  13.969
35803W        W 2212  22.941   3.303   4.403
35804W        W 2213  33.115  38.799   4.589
35805W        W 2214  35.478  30.836  13.976
35806W        W 2215  39.719   5.880   0.782
35807W        W 2216  29.937   7.262  11.633
35808W        W 2217  20.583  14.145  12.520
35809W        W 2218   3.488  29.446  12.678
35810W        W 2219  25.637  36.144  12.975
35811W        W 2220  19.692   1.673   3.045
35812W        W 2221   5.592  30.876   3.874
35813W        W 2222   0.379  28.366   4.977
35814W        W 2223  11.816   6.738  14.458
35815W        W 2224  42.030   6.446  13.517
35816W        W 2225  36.762   6.342   1.863
35817W        W 2226   6.838  21.477   5.095
35818W        W 2227  14.492  32.676  13.418
35819W        W 2228  17.681  25.651  14.473
35820W        W 2229  17.463  40.237   4.815
35821W        W 2230  13.793  19.112   1.790
35822W        W 2231  40.372  34.043  11.970
35823W        W 2232  26.493  12.159  14.565
35824W        W 2233  30.946   1.040   0.009
35825W        W 2234  30.140  20.856   1.883
35826W        W 2235  33.542  16.983   3.333
35827W        W 2236   7.457  15.607  11.170
35828W        W 2237  44.053  13.707   0.522
35829W        W 2238  11.349   4.713   2.900
35830W        W 2239  17.774  30.576   3.440
35831W        W 2240  37.636  13.990   4.616
35832W        W 2241  32.431  36.604  10.624
35833W        W 2242  31.988  20.781  11.205
35834W        W 2243  44.017  34.597   3.745
35835W        W 2244  40.445   3.876   2.130
35836W        W 2245  23.407  30.360   3.973
35837W        W 2246  42.390  20.016   3.126
35838W        W 2247   9.121  20.131   2.384
35839W        W 2248  42.243   8.605  12.876
35840W        W 2249  14.921   8.616  10.862
35841W        W 2250  35.565  19.098  10.623
35842W        W 2251  33.710  27.960  14.850
35843W        W 2252  13.129  19.288  12.604
35844W        W 2253  17.803  11.667  11.483
35845W        W 2254   3.426  24.684   0.370
35846W        W 2255  15.520  13.365  10.789
35847W        W 2256  23.980   4.364   4.511
35848W        W 2257   1.964  40.036  11.627
35849W        W 2258   6.938  22.032  11.555
35850W        W 2259  25.272  34.072  13.007
35851W        W 2260  33.022  15.296   1.137
35852W        W 2261   4.203   0.842   0.898
35853W        W 2262  10.222   8.351  13.259
35854W        W 2263  38.496  15.089  13.258
35855W        W 2264   3.415  33.653   0.569
35856W        W 2265   4.935   5.902   4.623
35857W        W 2266  18.794  10.370   1.157
35858W        W 2267  37.988  16.535   3.972
35859W        W 2268  21.845   9.176  12.613
35860W        W 2269   5.756  22.146   0.933
35861W        W 2270   3.502  22.142  12.495
35862W        W 2271  34.076  32.667   4.624
35863W        W 2272  15.566  43.856   4.230
35864W        W 2273   9.737  43.666  14.963
35865W        W 2274   0.582  27.107  10.999
35866W        W 2275  42.300  24.733   4.518
35867W        W 2276   6.260   4.927   2.068
35868W        W 2277  44.696  15.356  13.345
35869W        W 2278  41.541   5.293   2.864
35870W        W 2279   9.241  40.565   0.306
35871W        W 2280  38.487   6.425   1.361
35872W        W 2281   1.359  23.223   3.655
35873W        W 2282  12.913  24.673  14.769
35874W        W 2283  26.053   2.843  11.035
35875W        W 2284  12.359   6.176   4.092
35876W        W 2285  20.727  37.069   0.204
35877W        W 2286  33.905   7.455  13.298
35878W        W 2287  35.415  27.063  12.545
35879W        W 2288  43.500  11.600   1.588
35880W        W 2289   6.958  24.910   0.451
35881W        W 2290  15.140  13.971   0.923
35882W        W 2291  21.110   6.750   1.893
35883W        W 2292  32.376  42.210   1.759
35884W        W 2293  19.596  23.625   4.014
35885W        W 2294  37.561  42.908   3.341
35886W        W 2295  42.082  13.898  12.648
35887W        W 2296   8.789  36.311   0.176
35888W        W 2297   5.122  32.366  13.079
35889W        W 2298  15.843  27.194   4.063
35890W        W 2299  24.552  20.741   0.450
35891W        W 2300  19.177  19.237   4.599
35892W        W 2301  11.846   1.860   1.257
35893W        W 2302   8.634  39.151   2.387
35894W        W 2303  20.244  39.516  13.810
35895W        W 2304  26.343  16.805  10.047
35896W        W 2305  15.339   2.441   3.819
35897W        W 2306  38.327  42.326   4.881
35898W        W 2307   7.909  37.534  10.746
35899W        W 2308  23.167  10.587  13.572
35900W        W 2309   1.813   2.838   1.366
35901W        W 2310  33.392   7.416  14.039
35902W        W 2311  37.601  15.617   3.843
35903W        W 2312   2.297  31.130   0.293
35904W        W 2313   8.638  35.306  12.027
35905W        W 2314  19.700  36.737  14.850
35906W        W 2315   8.515  39.462   0.561
35907W        W 2316  42.507  34.369   2.761
35908W        W 2317  14.387  23.279  13.033
35909W        W 2318  33.060  24.262   1.243
35910W        W 2319  15.323  19.014  12.026
35911W        W 2320  15.625  39.325  12.642
35912W        W 2321  13.559  34.494   2.339
35913W        W 2322  30.660  34.184  13.995
35914W        W 2323  18.783  13.221   1.878
35915W        W 2324  31.476  43.836  12.428
35916W        W 2325   8.325  14.567  12.591
35917W        W 2326  25.495  11.109   2.851
35918W        W 2327  10.769  15.960  12.689
35919W        W 2328  41.942  25.126   2.231
35920W        W 2329  30.961  17.616  12.957
35921W        W 2330  17.904   7.234   4.328
35922W        W 2331   3.189  41.806  12.345
35923W        W 2332  16.666  25.363  14.975
35924W        W 2333  31.539   5.909  11.502
35925W        W 2334  33.953  21.049  14.298
35926W        W 2335  15.591  41.288   0.831
35927W        W 2336  32.482   1.829  10.857
35928W        W 2337  14.804  18.190   3.719
35929W        W 2338   5.196  23.186  12.085
35930W        W 2339   9.416   9.354   0.691
35931W        W 2340  24.625  36.951  11.495
35932W        W 2341  28.072  24.957   3.655
35933W        W 2342   9.440   1.713  12.939
35934W        W 2343  37.941   6.492   4.172
35935W        W 2344  42.439  37.374   3.745
35936W        W 2345  16.083  10.908   0.731
35937W        W 2346  14.220  25.845   0.798
35938W        W 2347  17.956  11.034   0.558
35939W        W 2348  16.872  10.335   4.814
35940W        W 2349   3.942  30.708   0.971
35941W        W 2350  32.315  36.902  11.081
35942W        W 2351   2.966  10.761   4.948
35943W        W 2352  14.042  22.986   0.288
35944W        W 2353  27.130  19.095   2.632
35945W        W 2354  28.119   4.964   4.681
35946W        W 2355   3.925  41.579   3.676
35947W        W 2356  33.175  38.943   0.959
35948W        W 2357  13.133  27.760  13.865
35949W        W 2358  33.128  26.225  12.495
35950W        W 2359  22.657  20.582  10.592
35951W        W 2360  43.875  12.131   4.218
35952W        W 2361  31.822  21.108  10.519
35953W        W 2362  33.071  39.085  11.092
35954W        W 2363   1.889  32.829   0.396
35955W        W 2364  16.266  29.951   3.643
35956W        W 2365  25.218  42.693  12.381
35957W        W 2366  22.614  34.476   1.842
35958W        W 2367  30.437   6.295  14.506
35959W        W 2368   7.366  35.082  12.368
35960W        W 2369  21.240  35.471  12.962
35961W        W 2370  40.511  27.101   4.637
35962W        W 2371  44.320  23.610  11.196
35963W        W 2372  33.634  28.915   0.901
35964W        W 2373  36.589  39.123   4.708
35965W        W 2374  30.054   5.764   4.607
35966W        W 2375  22.814  37.936   1.275
35967W        W 2376  22.086  40.729   0.262
35968W        W 2377  11.363   3.194  11.048
35969W        W 2378  36.278  32.112   0.485
35970W        W 2379   9.605  11.323   1.247
35971W        W 2380  28.871  27.065   4.904
35972W        W 2381  24.040  15.132   4.686
35973W        W 2382  35.788  15.269  14.852
35974W        W 2383  36.070  23.516  13.820
35975W        W 2384  32.549  31.481  11.984
35976W        W 2385  21.283  13.532   1.892
35977W        W 2386  41.978  21.484  11.182
35978W        W 2387  17.776  14.299  13.645
35979W        W 2388   8.895  32.894  13.950
35980W        W 2389  13.213  19.467  10.229
35981W        W 2390  20.199   2.630  13.372
35982W        W 2391  24.157  17.903  11.105
35983W        W 2392  23.213  21.562   4.920
35984W        W 2393  24.548   6.480  13.313
35985W        W 2394   5.280  11.382   0.217
35986W        W 2395  15.378  23.455  12.493
35987W        W 2396  24.182  12.688   3.672
35988W        W 2397  17.090  41.482  11.562
35989W        W 2398  27.634  16.196   0.470
35990W        W 2399  14.149  12.040   1.210
35991W        W 2400  18.943  24.121  13.858
35992W        W 2401  41.598  20.077   4.097
35993W        W 2402   7.159   4.339  10.857
35994W        W 2403  33.946  11.606   2.263
35995W        W 2404  42.418  28.369  14.557
35996W        W 2405   4.780  41.707  10.190
35997W        W 2406  19.328   7.885   4.697
35998W        W 2407  24.749  23.915  10.147
35999W        W 2408  14.623   4.178  13.450
36000W        W 2409  24.921  28.965   1.689
36001W        W 2410  23.010  34.771  12.031
36002W        W 2411  23.667  26.568   1.362
36003W        W 2412  24.951   7.780  14.425
36004W        W 2413  14.486  37.115  12.623
36005W        W 2414  37.662   9.861  13.386
36006W        W 2415   3.955   1.008   1.786
36007W        W 2416  34.816   0.692   2.947
36008W        W 2417  24.079  42.423   4.263
36009W        W 2418  26.120  40.210  11.312
36010W        W 2419  43.862  36.939   3.661
36011W        W 2420  36.944  28.772   2.704
36012W        W 2421   0.929  13.162  12.995
36013W        W 2422  29.653  42.420   3.853
36014W        W 2423  11.278  28.962   1.133
36015W        W 2424  42.902  32.820  11.189
36016W        W 2425  15.613  28.118   2.572
36017W        W 2426  10.669  23.470   1.743
36018W        W 2427  42.804  27.388  12.796
36019W        W 2428  41.971  19.124  10.954
36020W        W 2429  19.308  26.903  11.547
36021W        W 2430  34.272  29.932   3.714
36022W        W 2431  16.522  32.482  10.522
36023W        W 2432  12.440   0.721  12.505
36024W        W 2433  11.391  18.179   0.320
36025W        W 2434  34.047  41.893  14.276
36026W        W 2435  15.179   5.738  10.434
36027W        W 2436   2.243  23.761   2.761
36028W        W 2437   9.733  33.429   1.660
36029W        W 2438   2.514  33.677  14.702
36030W        W 2439  11.929   3.408  14.454
36031W        W 2440  33.509  40.280  14.767
36032W        W 2441  13.628  20.496  10.715
36033W        W 2442  14.420   8.734   1.102
36034W        W 2443  25.208   5.449  14.623
36035W        W 2444  13.283  26.264  11.575
36036W        W 2445  16.528  11.198   0.531
36037W        W 2446  42.369  13.630  13.962
36038W        W 2447   6.392  41.016  12.039
36039W        W 2448  11.932  32.092   0.275
36040W        W 2449  32.488  26.127  14.712
36041W        W 2450  24.080  43.260   0.493
36042W        W 2451  39.786  14.777   4.674
36043W        W 2452  36.353  21.729   2.734
36044W        W 2453  18.301  28.553   0.736
36045W        W 2454  30.974  40.729  12.517
36046W        W 2455   6.185  12.415  12.880
36047W        W 2456   7.220  14.753  10.649
36048W        W 2457  41.096  12.252   2.804
36049W        W 2458  12.424  40.190   2.406
36050W        W 2459  25.093  37.793  14.456
36051W        W 2460  26.114   5.195  10.660
36052W        W 2461   3.201   9.359   1.294
36053W        W 2462  30.023  33.652  12.857
36054W        W 2463  18.187  30.889  14.231
36055W        W 2464  29.240  37.938  12.198
36056W        W 2465  18.135   9.184  10.428
36057W        W 2466  36.007   5.124  13.183
36058W        W 2467  23.056  26.257  12.854
36059W        W 2468  22.026  16.385  14.904
36060W        W 2469  15.522  36.913  12.845
36061W        W 2470  23.993  28.229   4.098
36062W        W 2471  35.596  44.673   1.212
36063W        W 2472  37.249  11.388  10.197
36064W        W 2473  29.087   5.999   2.279
36065W        W 2474  28.457  36.560   3.935
36066W        W 2475  42.790  35.475  11.503
36067W        W 2476  26.551  32.097  14.788
36068W        W 2477   9.399   3.197  11.212
36069W        W 2478  20.100  42.905   1.690
36070W        W 2479  22.486  19.509   1.000
36071W        W 2480  13.316  24.752  11.426
36072W        W 2481   4.239  22.566   0.826
36073W        W 2482  42.784  24.200  11.611
36074W        W 2483  41.050  28.192   3.537
36075W        W 2484   0.886   0.886   2.598
36076W        W 2485  16.240  26.249  11.769
36077W        W 2486  28.873  32.901   0.568
36078W        W 2487  44.030   3.392  13.431
36079W        W 2488  34.853  44.958  12.470
36080W        W 2489  31.384  40.858  13.896
36081W        W 2490  25.169  28.336  12.594
36082W        W 2491  23.529  22.931   3.122
36083W        W 2492  39.512  24.947   2.772
36084W        W 2493  26.210   6.407   0.972
36085W        W 2494  27.173  42.237  12.157
36086W        W 2495  31.985   7.300   1.697
36087W        W 2496  12.174  35.857  10.715
36088W        W 2497  20.166  37.484   1.646
36089W        W 2498  31.107  40.329   3.398
36090W        W 2499   6.123  34.098  13.432
36091W        W 2500  39.674   1.055   0.947
36092W        W 2501   1.848  39.238  12.042
36093W        W 2502  21.058  35.354  14.858
36094W        W 2503  14.703  24.687   4.142
36095W        W 2504  28.816  21.561   5.090
36096W        W 2505  15.220   5.333   4.551
36097W        W 2506  17.118   6.476  10.668
36098W        W 2507  11.713   8.214  10.971
36099W        W 2508  27.686  41.302   0.631
36100W        W 2509  31.564  44.225  11.467
36101W        W 2510  41.500  16.726   2.576
36102W        W 2511  16.651  20.112  12.590
36103W        W 2512  43.703  21.116   0.389
36104W        W 2513  26.185  30.563   4.791
36105W        W 2514   6.731  26.994  11.135
36106W        W 2515  11.662  36.457  14.864
36107W        W 2516  38.771  21.084   0.475
36108W        W 2517   7.906  37.877   0.176
36109W        W 2518  11.961  22.533   4.409
36110W        W 2519  12.596  36.940   3.220
36111W        W 2520  15.416  27.428  13.971
36112W        W 2521  12.217  30.222   0.976
36113W        W 2522  17.358  17.576   3.016
36114W        W 2523  30.604  41.549   0.492
36115W        W 2524  33.925  40.815  10.617
36116W        W 2525  42.061   1.787   0.839
36117W        W 2526  14.142  38.609  14.822
36118W        W 2527  33.703  29.566  12.465
36119W        W 2528  42.900  40.389  10.577
36120W        W 2529  29.679   8.222  14.521
36121W        W 2530  33.931  14.291   0.327
36122W        W 2531  40.579   1.811   4.055
36123W        W 2532  43.981  36.536  14.382
36124W        W 2533  18.140  22.505   0.682
36125W        W 2534  19.614  43.621  14.378
36126W        W 2535   5.114  32.849  12.772
36127W        W 2536  32.020   1.129  14.811
36128W        W 2537  24.177  35.458   1.127
36129W        W 2538   3.828   6.383   2.153
36130W        W 2539  30.911  39.167  13.914
36131W        W 2540   7.753   9.687  11.523
36132W        W 2541  14.301   4.795  13.934
36133W        W 2542  16.317  31.708  12.599
36134W        W 2543  34.873  43.477  11.128
36135W        W 2544  33.067  35.796  11.918
36136W        W 2545  35.815  35.538  10.745
36137W        W 2546  29.458  25.976   2.352
36138W        W 2547  31.705  23.514  11.842
36139W        W 2548   6.585  18.574   0.223
36140W        W 2549  27.041   4.663   1.781
36141W        W 2550   6.565  27.688  13.988
36142W        W 2551   1.775  36.833   0.132
36143W        W 2552  32.389   9.891   2.254
36144W        W 2553  34.934  17.177  14.330
36145W        W 2554   2.612  29.055   2.831
36146W        W 2555  26.352  12.280  13.601
36147W        W 2556   6.259  33.992   3.639
36148W        W 2557  31.051   8.543   3.266
36149W        W 2558  44.920  13.630   2.451
36150W        W 2559   0.441   9.143  14.583
36151W        W 2560   6.663  37.363  11.193
36152W        W 2561  27.122  44.309  10.698
36153W        W 2562  17.603  39.809  12.998
36154W        W 2563  25.001  27.358  14.410
36155W        W 2564   1.339  25.504   2.969
36156W        W 2565  30.991   6.692   0.957
36157W        W 2566  15.223   2.888   4.066
36158W        W 2567  41.983  11.665   3.434
36159W        W 2568  39.608   3.641  12.652
36160W        W 2569  17.141  31.440   1.744
36161W        W 2570   0.943  30.836  13.549
36162W        W 2571  25.012  12.259   1.241
36163W        W 2572  35.901   2.444   1.314
36164W        W 2573  17.552   5.992  14.767
36165W        W 2574  28.660  13.695  12.584
36166W        W 2575   8.410   5.709  11.112
36167W        W 2576  39.166   0.326   2.980
36168W        W 2577  35.474  32.683  13.489
36169W        W 2578  24.961   1.293  11.981
36170W        W 2579  15.815  43.964   3.105
36171W        W 2580  10.157  26.474   0.399
36172W        W 2581   4.250  21.003   2.294
36173W        W 2582  16.605  17.109  14.362
36174W        W 2583  13.813   5.253   4.668
36175W        W 2584   9.307  12.772  12.156
36176W        W 2585   8.176  27.948   4.088
36177W        W 2586  18.300  12.260  14.015
36178W        W 2587  22.600  38.051  11.158
36179W        W 2588  13.343  23.345   3.299
36180W        W 2589  19.170  21.077  13.316
36181W        W 2590  19.885  19.451   2.556
36182W        W 2591  40.794  43.540   1.359
36183W        W 2592  38.508  41.334   3.308
36184W        W 2593  17.178  38.137   0.235
36185W        W 2594   3.787  34.958  11.605
36186W        W 2595  29.254  17.001   2.591
36187W        W 2596  34.542  17.053  13.498
36188W        W 2597  27.049  15.777   1.410
36189W        W 2598   5.802  27.243  11.264
36190W        W 2599  27.943  13.172  10.584
36191W        W 2600   3.340  39.682   3.270
36192W        W 2601  33.591  22.304  10.209
36193W        W 2602  42.802  15.364   2.243
36194W        W 2603  16.989  10.273  11.045
36195W        W 2604   1.556   4.769   2.676
36196W        W 2605  43.989  33.360   2.764
36197W        W 2606  13.901  34.075  11.165
36198W        W 2607   1.197  42.381   4.492
36199W        W 2608   1.900  29.498   0.805
36200W        W 2609   7.191   6.269   4.063
36201W        W 2610  38.932   5.407   0.306
36202W        W 2611   0.270  34.590   1.344
36203W        W 2612   6.113  35.039  13.708
36204W        W 2613   3.254  33.456  13.888
36205W        W 2614  30.265   8.052  10.081
36206W        W 2615  19.116  15.149   3.051
36207W        W 2616  22.957   4.384   0.427
36208W        W 2617  42.686   9.881  11.685
36209W        W 2618   7.367  28.275  14.493
36210W        W 2619  14.644   2.657  11.233
36211W        W 2620  42.837  44.171  14.150
36212W        W 2621   3.291  10.150   4.541
36213W        W 2622  25.055  22.845  11.862
36214W        W 2623  29.188   3.513   4.733
36215W        W 2624   2.750  18.165  13.551
36216W        W 2625  12.831  44.582  14.503
36217W        W 2626  10.668  21.077   4.533
36218W        W 2627  33.999  14.083   4.591
36219W        W 2628   3.620  44.432  12.959
36220W        W 2629  23.076  32.053   1.718
36221W        W 2630  25.466  35.280  13.937
36222W        W 2631  23.364  18.438  11.045
36223W        W 2632  41.149   5.672   3.056
36224W        W 2633  14.166  12.879   0.706
36225W        W 2634  44.467  13.215  13.410
36226W        W 2635  14.064   0.169   4.201
36227W        W 2636  18.504  44.518  14.943
36228W        W 2637  10.767  37.829   3.700
36229W        W 2638   8.924  29.015   4.763
36230W        W 2639   1.923   7.568  12.056
36231W        W 2640  35.003  33.770   5.128
36232W        W 2641   2.220  34.855   1.609
36233W        W 2642  18.319  13.162   2.148
36234W        W 2643  13.210   3.807   0.562
36235W        W 2644   8.395  17.011  13.425
36236W        W 2645  42.778  37.034  12.073
36237W        W 2646  42.084  39.996   3.557
36238W        W 2647  27.628  29.536   2.810
36239W        W 2648  20.672  21.699   0.673
36240W        W 2649  30.761   4.525  10.563
36241W        W 2650   5.933  27.127   2.496
36242W        W 2651   3.534  31.979  11.687
36243W        W 2652  40.502  12.201  13.061
36244W        W 2653  37.081   4.000  13.405
36245W        W 2654  26.096  18.044   1.233
36246W        W 2655  11.853  17.293   0.356
36247W        W 2656  33.151  18.303   3.193
36248W        W 2657  44.398   4.844  12.883
36249W        W 2658   8.454  16.417  11.714
36250W        W 2659  37.311  11.810   1.445
36251W        W 2660  11.262  37.073  10.661
36252W        W 2661  33.063  23.301   2.252
36253W        W 2662  26.443  14.858   4.603
36254W        W 2663  17.806  33.456   2.250
36255W        W 2664  36.424  17.658  11.995
36256W        W 2665   1.559  33.391   1.341
36257W        W 2666  28.521  12.234   2.637
36258W        W 2667  39.808  20.618  12.772
36259W        W 2668  34.887  43.134   0.234
36260W        W 2669   6.318  15.065   0.815
36261W        W 2670  36.560  39.984   0.113
36262W        W 2671  42.026  37.333   0.106
36263W        W 2672  38.324  26.850  11.164
36264W        W 2673  28.816  33.464   2.697
36265W        W 2674   5.037  37.442   1.322
36266W        W 2675  33.280  19.825   4.593
36267W        W 2676  18.568  30.244   3.126
36268W        W 2677  17.550  29.196   2.278
36269W        W 2678  15.201   8.868   4.061
36270W        W 2679   8.781  16.144  10.624
36271W        W 2680  16.310  27.145  11.147
36272W        W 2681  43.483  42.333  14.434
36273W        W 2682  29.692  19.169  11.650
36274W        W 2683  41.051   6.118   2.282
36275W        W 2684  36.348  12.283   1.788
36276W        W 2685  10.358  16.975   4.080
36277W        W 2686  41.851   2.097   0.453
36278W        W 2687  18.799  29.926   1.052
36279W        W 2688   0.687  25.232   2.835
36280W        W 2689   2.294   7.879   3.069
36281W        W 2690  23.254  19.197   1.405
36282W        W 2691   9.303  22.213  14.389
36283W        W 2692  13.302   2.431   0.298
36284W        W 2693  41.300  36.700   2.718
36285W        W 2694  27.953   3.344  12.386
36286W        W 2695  22.007  37.152  10.768
36287W        W 2696  17.585  17.315  13.971
36288W        W 2697  12.141  12.299   3.622
36289W        W 2698  41.732  15.592  13.038
36290W        W 2699  42.435  30.931   3.886
36291W        W 2700  36.914  17.527  11.924
36292W        W 2701  42.202   1.367   2.529
36293W        W 2702  12.295  22.544  11.230
36294W        W 2703  27.120  37.582   1.698
36295W        W 2704   2.259  27.988   4.387
36296W        W 2705  32.151  13.769  11.744
36297W        W 2706   6.146  22.424   0.736
36298W        W 2707  11.051   3.191  13.992
36299W        W 2708  10.232   0.434   3.138
36300W        W 2709  42.491  11.081  13.900
36301W        W 2710  21.325  38.265   4.483
36302W        W 2711   6.721  18.811   2.111
36303W        W 2712  34.831  10.302   1.185
36304W        W 2713  28.593  26.181  12.513
36305W        W 2714  18.727  16.310  14.369
36306W        W 2715   9.855  24.006   2.178
36307W        W 2716  18.525  15.523   4.064
36308W        W 2717  22.969   2.413   0.241
36309W        W 2718  22.477  13.436  10.651
36310W        W 2719  12.104  16.838   2.658
36311W        W 2720  38.360  13.253   2.092
36312W        W 2721  39.583  25.170  12.562
36313W        W 2722  34.110  30.061   4.699
36314W        W 2723  14.120  34.830  10.804
36315W        W 2724  11.828  36.869   0.411
36316W        W 2725  18.369  44.728   2.291
36317W        W 2726  19.647   3.259  10.844
36318W        W 2727  36.528  16.759  11.554
36319W        W 2728   8.287   0.702   2.018
36320W        W 2729  38.335  12.550  11.889
36321W        W 2730   3.345   5.021   2.884
36322W        W 2731  41.813   5.313  10.573
36323W        W 2732  30.133   6.299   2.714
36324W        W 2733  30.000  38.072   3.247
36325W        W 2734  39.292  39.666  12.259
36326W        W 2735  14.611   0.883   1.967
36327W        W 2736   0.371  24.005   2.349
36328W        W 2737  38.494  26.666  10.677
36329W        W 2738   5.262  37.571   0.872
36330W        W 2739  37.990  20.851  12.977
36331W        W 2740  14.301  35.591  12.930
36332W        W 2741  40.735  25.201  10.602
36333W        W 2742   9.144  29.418  13.687
36334W        W 2743  21.919  40.099  13.116
36335W        W 2744   0.986   3.680  13.932
36336W        W 2745  41.667  31.029   1.416
36337W        W 2746  30.930  28.877   4.132
36338W        W 2747  27.990  33.918  11.937
36339W        W 2748  34.357  41.961  11.051
36340W        W 2749  25.355  33.697  11.821
36341W        W 2750  19.151  36.451  10.652
36342W        W 2751  28.178  40.400  12.920
36343W        W 2752   5.384  34.223   2.429
36344W        W 2753   0.837  18.611   0.072
36345W        W 2754   0.017   7.427  12.556
36346W        W 2755  30.679  23.061  10.883
36347W        W 2756  44.822  37.883   0.742
36348W        W 2757   2.904  12.774   0.056
36349W        W 2758   1.742  20.109  14.812
36350W        W 2759   4.241  23.933  13.376
36351W        W 2760  34.588  15.846   0.398
36352W        W 2761  20.755  40.344  12.461
36353W        W 2762  31.956  34.994   0.603
36354W        W 2763  21.589  22.236  14.125
36355W        W 2764  26.728  23.164  14.644
36356W        W 2765  15.058  40.671   1.546
36357W        W 2766  16.698  29.157  13.439
36358W        W 2767   1.932   5.436   4.283
36359W        W 2768  21.614   4.836  14.865
36360W        W 2769   6.314  39.007   4.509
36361W        W 2770   8.418  15.632  11.048
36362W        W 2771  27.993  25.738  11.016
36363W        W 2772  44.708  43.829  12.826
36364W        W 2773   7.286  13.408   0.460
36365W        W 2774  13.276   9.708   2.445
36366W        W 2775  23.566  34.584   4.806
36367W        W 2776  30.043  12.574   4.119
36368W        W 2777  39.603  28.616  14.769
36369W        W 2778  34.163  30.473   3.036
36370W        W 2779  37.528   1.020  13.708
36371W        W 2780  20.634  32.047   4.673
36372W        W 2781   2.890  16.823   2.856
36373W        W 2782  23.228  27.968   4.477
36374W        W 2783  22.940  21.283  12.671
36375W        W 2784  18.597  15.551  11.656
36376W        W 2785  42.218   3.843   2.606
36377W        W 2786  33.599  20.242   4.609
36378W        W 2787  29.255  30.452   1.524
36379W        W 2788  33.971  28.015  12.356
36380W        W 2789   1.041  15.828   4.069
36381W        W 2790  24.017  42.494  10.717
36382W        W 2791  15.699   3.287  14.374
36383W        W 2792  28.090  33.820  13.179
36384W        W 2793  36.611  11.576  12.555
36385W        W 2794  38.043  23.950  11.598
36386W        W 2795   5.347  12.170   4.718
36387W        W 2796  28.168  12.120   4.550
36388W        W 2797   7.425  28.672  11.116
36389W        W 2798   0.057  15.045  11.968
36390W        W 2799  30.367   8.853   3.336
36391W        W 2800  39.976  42.993   1.231
36392W        W 2801  10.104   9.325   2.716
36393W        W 2802   1.833  10.861   2.402
36394W        W 2803  38.007  10.849  11.513
36395W        W 2804  18.229  44.431   4.143
36396W        W 2805  34.988  11.115  11.476
36397W        W 2806   7.946  23.405   3.338
36398W        W 2807   5.473  12.379   0.231
36399W        W 2808  20.276   4.175  13.473
36400W        W 2809  27.190  29.066  10.687
36401W        W 2810  17.542  12.154  13.463
36402W        W 2811   1.406  27.142   0.234
36403W        W 2812   0.352  20.489  12.499
36404W        W 2813  39.109  15.229   2.630
36405W        W 2814  13.879   7.881   4.167
36406W        W 2815  24.837   8.799   0.688
36407W        W 2816   6.837  32.511  12.213
36408W        W 2817  34.003  22.617   1.673
36409W        W 2818  21.715  40.844   1.659
36410W        W 2819  41.331  25.758   1.428
36411W        W 2820  31.774  18.698   5.088
36412W        W 2821  34.392  18.867   2.826
36413W        W 2822   2.015  26.455  13.400
36414W        W 2823  25.349  24.703   4.447
36415W        W 2824  41.405   3.271  12.034
36416W        W 2825  39.992   6.612  11.733
36417W        W 2826   6.166  31.647  14.349
36418W        W 2827  10.586   0.633   3.593
36419W        W 2828  37.905  17.292  13.469
36420W        W 2829  24.925   7.487   4.480
36421W        W 2830  44.144  17.720  12.112
36422W        W 2831  23.007  41.275   0.018
36423W        W 2832   7.266   9.780  13.266
36424W        W 2833   5.945  42.870   1.744
36425W        W 2834  42.050  10.226  12.056
36426W        W 2835  21.000  11.707  11.859
36427W        W 2836  12.590  13.145   1.077
36428W        W 2837  38.532  33.924  11.553
36429W        W 2838  14.626   4.693   3.274
36430W        W 2839   8.788   7.586  14.240
36431W        W 2840  21.260  20.503  11.228
36432W        W 2841  13.002  30.410   3.878
36433W        W 2842   5.469  41.329   0.257
36434W        W 2843  21.672   0.680  12.966
36435W        W 2844  37.333  29.381   0.229
36436W        W 2845  42.346  35.356  10.718
36437W        W 2846   0.521  42.311  12.658
36438W        W 2847  26.254  35.846  13.470
36439W        W 2848  26.119  25.140  12.604
36440W        W 2849  35.952  11.510  13.903
36441W        W 2850  15.636  39.268   1.696
36442W        W 2851  40.487  34.685   2.816
36443W        W 2852  24.937  16.616  12.544
36444W        W 2853  12.877  39.331   3.247
36445W        W 2854   7.497   4.355   0.969
36446W        W 2855   3.417   7.210   0.774
36447W        W 2856  29.666   4.282   2.350
36448W        W 2857   5.241  29.931   2.739
36449W        W 2858   0.006   1.480  13.530
36450W        W 2859  14.202  16.288  11.393
36451W        W 2860  40.448  19.476   4.693
36452W        W 2861  25.787  24.097  14.415
36453W        W 2862  16.470  30.645  11.558
36454W        W 2863   4.167  24.611   2.643
36455W        W 2864   6.606  18.723  11.196
36456W        W 2865  30.415  36.012   0.402
36457W        W 2866  23.639  36.221   1.206
36458W        W 2867  10.710  11.263   2.947
36459W        W 2868  44.696  24.568   1.949
36460W        W 2869  42.914  35.016  13.838
36461W        W 2870   8.743  25.939   3.674
36462W        W 2871  30.233  27.150  14.087
36463W        W 2872  25.728  35.445   2.538
36464W        W 2873   7.353  36.077   4.186
36465W        W 2874  21.611  15.792  12.798
36466W        W 2875  25.229  28.123   5.015
36467W        W 2876  29.011   2.751   1.254
36468W        W 2877  27.958  21.746   1.447
36469W        W 2878  33.527  19.761  11.188
36470W        W 2879  25.420  32.558  14.294
36471W        W 2880  15.207  30.233   1.710
36472W        W 2881  20.066  41.886  14.296
36473W        W 2882   4.239   7.565  14.400
36474W        W 2883  34.281  16.127   0.768
36475W        W 2884  30.431   8.277   0.256
36476W        W 2885  31.484  14.345  10.718
36477W        W 2886  15.000  42.455   4.156
36478W        W 2887  24.998  18.148   0.576
36479W        W 2888   0.533   9.304  11.670
36480W        W 2889  33.380  25.588   2.200
36481W        W 2890  40.839  41.244   3.649
36482W        W 2891   7.590   0.040   2.770
36483W        W 2892  18.646  39.134   4.976
36484W        W 2893  27.510  38.475  12.903
36485W        W 2894  24.235   7.160   2.436
36486W        W 2895  22.991  31.928  10.852
36487W        W 2896   6.338   6.336  11.577
36488W        W 2897   3.908   1.487   3.192
36489W        W 2898   6.347  44.145   1.396
36490W        W 2899  38.385  20.997   1.439
36491W        W 2900  16.592  34.570   1.777
36492W        W 2901  43.166  19.768  13.919
36493W        W 2902  27.620   9.629   1.965
36494W        W 2903  42.304  10.225  12.943
36495W        W 2904  35.251   5.585   4.047
36496W        W 2905  24.696  27.057  14.726
36497W        W 2906  25.357   7.451   4.142
36498W        W 2907  21.892   6.190   3.903
36499W        W 2908  11.698  27.477  13.881
36500W        W 2909  13.849   2.426  12.977
36501W        W 2910  36.047  44.098   4.173
36502W        W 2911  12.240   2.053   2.368
36503W        W 2912  41.607   4.151   0.887
36504W        W 2913  18.351  35.885  13.075
36505W        W 2914  35.897  18.242  11.707
36506W        W 2915  24.342  12.166   0.895
36507W        W 2916  38.769  32.799  12.067
36508W        W 2917  32.277   5.824   5.037
36509W        W 2918   0.429  20.043  10.458
36510W        W 2919   1.018  24.755   4.355
36511W        W 2920   8.906  39.023   1.256
36512W        W 2921  31.124  36.803  14.027
36513W        W 2922  39.803  15.494  14.057
36514W        W 2923   0.674   8.358   0.261
36515W        W 2924  40.487  31.594   3.878
36516W        W 2925  43.276  41.171  11.067
36517W        W 2926  42.840  19.663  11.716
36518W        W 2927  17.725  17.571  11.149
36519W        W 2928  40.338  22.288   1.376
36520W        W 2929  38.069  34.372   9.811
36521W        W 2930   1.255  34.319   0.778
36522W        W 2931  21.452  40.431   2.470
36523W        W 2932  43.548   9.823   1.813
36524W        W 2933  17.946  24.826  11.232
36525W        W 2934  31.434  17.587   2.711
36526W        W 2935  44.818  40.512  14.211
36527W        W 2936  25.222  22.095  10.793
36528W        W 2937  38.963  32.446  13.315
36529W        W 2938   4.408  43.349  12.912
36530W        W 2939   1.335  32.277   0.736
36531W        W 2940   7.493  41.397  10.756
36532W        W 2941  28.507  26.449  12.070
36533W        W 2942  35.376  27.492  13.893
36534W        W 2943   7.420  35.038  14.698
36535W        W 2944   1.766  41.388  11.580
36536W        W 2945  15.242  18.849  14.464
36537W        W 2946  25.125  10.883  12.875
36538W        W 2947   9.357  21.161  12.083
36539W        W 2948   1.745  36.568   1.424
36540W        W 2949   5.535  20.051  13.770
36541W        W 2950   8.335  24.058  14.929
36542W        W 2951  23.654  23.049   1.292
36543W        W 2952  20.051  12.681  12.009
36544W        W 2953   4.933   3.227   2.000
36545W        W 2954  29.402  26.050   0.216
36546W        W 2955   2.964   3.773   3.783
36547W        W 2956  27.942  41.826   0.202
36548W        W 2957   7.179  43.719  14.331
36549W        W 2958   2.981  31.909   0.373
36550W        W 2959  20.258  41.686   3.391
36551W        W 2960   9.214   1.663   4.254
36552W        W 2961   3.627  22.432   1.915
36553W        W 2962  36.206   6.697  13.439
36554W        W 2963  32.547  12.783  13.876
36555W        W 2964  27.842  40.090  14.897
36556W        W 2965  38.426   0.758   0.155
36557W        W 2966  33.178  36.396  13.431
36558W        W 2967  42.503  16.305   1.982
36559W        W 2968   3.705  29.021  14.492
36560W        W 2969  15.845  40.473  13.330
36561W        W 2970  29.152  39.923   0.464
36562W        W 2971   5.787   0.468   2.366
36563W        W 2972   5.316   4.466  12.043
36564W        W 2973  21.575  37.101   0.218
36565W        W 2974   6.762  17.069  11.499
36566W        W 2975   5.952  26.765  11.195
36567W        W 2976  30.395   6.727  13.334
36568W        W 2977  27.638   4.002  10.838
36569W        W 2978   2.298  21.538   4.621
36570W        W 2979   5.789  28.988  14.701
36571W        W 2980   5.601  38.643  14.890
36572W        W 2981   9.017  24.142   2.648
36573W        W 2982  34.953  19.316   4.255
36574W        W 2983  22.519  24.511   0.957
36575W        W 2984  14.604  15.278   1.370
36576W        W 2985  44.195  37.962  12.939
36577W        W 2986   7.847   3.295  12.419
36578W        W 2987  41.975  36.345   0.268
36579W        W 2988  23.553  27.833  12.999
36580W        W 2989  19.601  25.435   4.180
36581W        W 2990  11.661  42.619   3.272
36582W        W 2991  20.388  41.259   0.804
36583W        W 2992  24.622  41.564   4.802
36584W        W 2993  11.731   2.383  10.357
36585W        W 2994   0.548  15.206   3.345
36586W        W 2995   6.838  12.713  12.725
36587W        W 2996  23.894  28.108   3.219
36588W        W 2997  19.611  35.649   0.127
36589W        W 2998  19.251   7.924   2.132
36590W        W 2999  15.806   8.497  11.911
36591W        W 3000  38.377  37.507   3.679
36592W        W 3001  23.026  42.359  12.752
36593W        W 3002  14.182  13.785   2.866
36594W        W 3003  42.344  15.079   2.287
36595W        W 3004  20.793   6.570  12.426
36596W        W 3005   4.005  20.219   1.920
36597W        W 3006  31.368  10.941  11.378
36598W        W 3007  19.221   5.155  14.591
36599W        W 3008  27.257  29.828   1.262
36600W        W 3009  26.579  21.103  12.325
36601W        W 3010  25.558  28.807   2.539
36602W        W 3011   7.461  31.100   4.045
36603W        W 3012   8.164  38.899  11.580
36604W        W 3013  25.786  19.728  11.110
36605W        W 3014  25.240  40.191  12.944
36606W        W 3015  44.357  22.057   1.708
36607W        W 3016   7.969  42.799  13.828
36608W        W 3017   9.572  40.459  12.849
36609W        W 3018   4.435   6.974  12.964
36610W        W 3019   1.155  26.069   4.251
36611W        W 3020  33.533  13.285  12.576
36612W        W 3021  28.686  15.177  10.684
36613W        W 3022  21.463  33.834  11.948
36614W        W 3023  18.369  25.937   1.946
36615W        W 3024   7.251  37.540  13.562
36616W        W 3025  10.417   9.913   4.048
36617W        W 3026  42.226  22.670   5.077
36618W        W 3027  11.385  44.089  11.533
36619W        W 3028   2.987   5.603  11.085
36620W        W 3029   0.737  44.469   1.312
36621W        W 3030  28.348  39.444  11.443
36622W        W 3031  34.987   1.137  14.917
36623W        W 3032  16.730  38.465  10.311
36624W        W 3033  38.425  30.531  11.437
36625W        W 3034  21.711  16.392   0.307
36626W        W 3035  26.635  11.145  13.070
36627W        W 3036  22.527  35.655   0.977
36628W        W 3037  13.891  14.772  10.721
36629W        W 3038  14.404   2.860   2.172
36630W        W 3039  32.636  44.497   4.822
36631W        W 3040  23.148   9.219   1.308
36632W        W 3041   8.832  42.398   0.793
36633W        W 3042   0.866  33.406   2.424
36634W        W 3043  30.464   2.573   2.264
36635W        W 3044  12.318   6.265   0.860
36636W        W 3045  30.721  32.276   4.374
36637W        W 3046   3.382  15.768   0.764
36638W        W 3047  17.625  43.186  10.604
36639W        W 3048  10.167  17.691  12.383
36640W        W 3049  33.299  41.013   3.785
36641W        W 3050  21.566   2.872   1.680
36642W        W 3051  23.450  14.534   2.355
36643W        W 3052  28.247   1.963  11.556
36644W        W 3053  29.479   0.209   0.053
36645W        W 3054   8.885  41.858   0.437
36646W        W 3055  14.219  21.269  11.649
36647W        W 3056  16.694   1.070   4.903
36648W        W 3057  35.549  21.716  12.550
36649W        W 3058   3.742  32.493   4.858
36650W        W 3059  30.383  38.448  14.904
36651W        W 3060  10.132  10.533   4.799
36652W        W 3061   8.020  41.804  13.991
36653W        W 3062   8.087  22.535  14.542
36654W        W 3063  17.546  42.967   3.304
36655W        W 3064   2.236  26.698  12.943
36656W        W 3065  22.710  41.998   1.714
36657W        W 3066  25.353  43.214   2.700
36658W        W 3067  12.198  39.196   4.631
36659W        W 3068   3.305   8.721  12.596
36660W        W 3069   3.007  33.802  10.804
36661W        W 3070  35.496  40.844   2.789
36662W        W 3071   1.468  40.530   0.360
36663W        W 3072  28.261  28.616   2.403
36664W        W 3073  14.364  28.601  13.414
36665W        W 3074  14.393  11.279  11.601
36666W        W 3075  44.347   0.677  12.126
36667W        W 3076  21.011  40.048   0.712
36668W        W 3077  16.438  12.606   3.219
36669W        W 3078  44.539  20.800   0.277
36670W        W 3079  24.226   6.014   0.010
36671W        W 3080  44.757  27.034   4.635
36672W        W 3081  40.789  10.952  12.115
36673W        W 3082  31.267   9.722  14.201
36674W        W 3083  12.328  43.674   4.088
36675W        W 3084   1.885  36.445   0.483
36676W        W 3085  20.085  28.256   4.125
36677W        W 3086  34.614  39.494  13.344
36678W        W 3087  43.366   0.720  11.006
36679W        W 3088  28.162  24.996  13.417
36680W        W 3089  25.143  39.229  12.116
36681W        W 3090   2.329   0.442  11.556
36682W        W 3091  16.721   2.311  12.429
36683W        W 3092  15.647  28.473  14.753
36684W        W 3093  10.787   5.463   3.850
36685W        W 3094  19.567  18.534   0.344
36686W        W 3095  19.062  10.784  14.029
36687W        W 3096  21.439  37.330  11.987
36688W        W 3097  19.187  35.995  14.854
36689W        W 3098  24.216  32.825   1.703
36690W        W 3099  22.457  40.463   0.524
36691W        W 3100  25.034  43.994   0.831
36692W        W 3101  35.668  26.635   0.748
36693W        W 3102  10.435  17.640  13.986
36694W        W 3103  20.202  23.679  13.073
36695W        W 3104  43.700  16.142  11.502
36696W        W 3105  42.551  41.333  14.200
36697W        W 3106   3.312  42.536   4.551
36698W        W 3107  38.880  27.528  12.704
36699W        W 3108  38.424  20.549  13.065
36700W        W 3109   6.361   6.627   9.534
36701W        W 3110  37.497  38.992  13.758
36702W        W 3111  41.762  34.435  10.851
36703W        W 3112  29.729  16.938  13.895
36704W        W 3113   6.492  11.116  11.721
36705W        W 3114  12.277  29.027  12.490
36706W        W 3115  30.010  25.999   1.441
36707W        W 3116  22.967  12.863  12.045
36708W        W 3117  37.880  42.548   3.080
36709W        W 3118  21.184  37.499  14.144
36710W        W 3119  37.992  11.274   4.166
36711W        W 3120  36.809  37.396   0.244
36712W        W 3121  10.384  23.524  12.453
36713W        W 3122  14.003  36.039  12.827
36714W        W 3123   9.912   3.300  13.395
36715W        W 3124  32.039   1.556  11.548
36716W        W 3125  13.015   1.256   1.449
36717W        W 3126  23.595   7.925   3.373
36718W        W 3127   2.080   5.077   1.988
36719W        W 3128   8.137   9.790   1.934
36720W        W 3129  35.776  20.118  13.830
36721W        W 3130  44.828  41.182   2.341
36722W        W 3131  33.635   5.296   2.447
36723W        W 3132  15.230   5.669   2.246
36724W        W 3133  12.599  37.328   5.627
36725W        W 3134  12.411  35.475   3.694
36726W        W 3135  13.545  26.170   1.405
36727W        W 3136  19.646  44.291   0.891
36728W        W 3137   4.140  27.454  11.108
36729W        W 3138  28.412  11.797   4.129
36730W        W 3139  36.165  14.805   1.900
36731W        W 3140  17.434  28.220   0.920
36732W        W 3141   1.953   6.259   1.766
36733W        W 3142  36.537  11.750   1.952
36734W        W 3143  12.453   0.416  12.954
36735W        W 3144  44.452   1.997  11.633
36736W        W 3145  42.971   8.196   3.676
36737W        W 3146  36.043   7.346   4.605
36738W        W 3147  36.334  39.506   0.190
36739W        W 3148  40.853  19.106  14.826
36740W        W 3149  43.832  29.158   3.971
36741W        W 3150  44.075  20.761   0.529
36742W        W 3151  39.824  23.916  11.154
36743W        W 3152  22.105  29.789  13.688
36744W        W 3153   3.455  14.752  10.565
36745W        W 3154  16.711  15.446   2.078
36746W        W 3155  17.966  26.106  13.175
36747W        W 3156  21.455  13.839  10.991
36748W        W 3157  36.495  30.357   1.362
36749W        W 3158   3.762   5.703   3.834
36750W        W 3159  17.295  43.681  11.393
36751W        W 3160  37.946  17.024   2.977
36752W        W 3161  43.006  25.784   2.117
36753W        W 3162  20.884   8.278   0.854
36754W        W 3163  15.156  23.701  12.898
36755W        W 3164  34.549  10.706  10.660
36756W        W 3165   7.001  23.948   0.751
36757W        W 3166  28.913  31.217  13.423
36758W        W 3167  16.540  36.430   3.295
36759W        W 3168   5.695   7.905   1.836
36760W        W 3169  34.486  38.531   2.799
36761W        W 3170   5.344   1.734  11.055
36762W        W 3171  30.242  27.406  14.863
36763W        W 3172   5.744  13.835  14.414
36764W        W 3173  12.123  37.796  12.588
36765W        W 3174  33.918   5.777  12.503
36766W        W 3175  35.914  44.410   4.578
36767W        W 3176  11.872  10.670  11.804
36768W        W 3177  42.797  31.625  14.452
36769W        W 3178  42.855  44.313   1.896
36770W        W 3179   1.376  24.482  12.150
36771W        W 3180  44.158   3.072   2.837
36772W        W 3181  36.993  23.499   3.140
36773W        W 3182  14.891  41.959  12.338
36774W        W 3183   6.294  32.177  13.320
36775W        W 3184   6.234  39.987   4.936
36776W        W 3185   2.026  37.680  12.352
36777W        W 3186  24.160   7.794   3.189
36778W        W 3187  43.880  32.873  12.506
36779W        W 3188  13.987  32.745  12.035
36780W        W 3189   8.950   0.328  12.542
36781W        W 3190  19.508  21.344  12.676
36782W        W 3191  44.977  44.887   2.197
36783W        W 3192  42.682  31.159   1.352
36784W        W 3193  29.593  26.690   3.675
36785W        W 3194   3.411  26.336   3.146
36786W        W 3195  36.747  28.517  12.581
36787W        W 3196   5.611  32.566  14.943
36788W        W 3197   2.013   6.246  14.900
36789W        W 3198  22.355  14.290   3.302
36790W        W 3199  13.786   5.256   4.152
36791W        W 3200  42.129  33.091  14.895
36792W        W 3201  42.814  41.064   1.263
36793W        W 3202  33.229   7.333  10.551
36794W        W 3203  31.551  21.065   4.717
36795W        W 3204  22.161  44.678  14.797
36796W        W 3205  15.908   6.021  13.920
36797W        W 3206   3.399  26.233   0.343
36798W        W 3207  23.229  24.751   3.600
36799W        W 3208  24.891  17.123   3.778
36800W        W 3209   5.577  39.418   3.156
36801W        W 3210   6.723  11.679   4.684
36802W        W 3211   9.427  19.507   3.688
36803W        W 3212  20.122  22.688   2.137
36804W        W 3213  31.548  38.407  10.616
36805W        W 3214   3.247  12.692   3.815
36806W        W 3215  43.903  30.040   5.053
36807W        W 3216  16.026   7.322   2.312
36808W        W 3217  25.440  10.749   3.627
36809W        W 3218  10.677  32.023   3.708
36810W        W 3219  39.495  41.791  11.148
36811W        W 3220  26.247  30.647   3.721
36812W        W 3221  40.741  42.178   3.307
36813W        W 3222  17.719  29.682  14.986
36814W        W 3223   6.913   0.296   3.302
36815W        W 3224  40.455  37.008  12.589
36816W        W 3225  40.925  30.496  14.367
36817W        W 3226  16.710  11.805  11.234
36818W        W 3227  33.394  37.142   0.466
36819W        W 3228  34.515   7.120   0.414
36820W        W 3229  17.652   0.968  13.560
36821W        W 3230  44.867  23.887  13.622
36822W        W 3231  33.014  42.663  11.893
36823W        W 3232  15.405   8.844  14.529
36824W        W 3233  14.287   4.961  14.428
36825W        W 3234  22.630  24.617  11.577
36826W        W 3235  36.643  29.626  10.274
36827W        W 3236   2.527   6.366   3.698
36828W        W 3237  12.360  44.828   0.415
36829W        W 3238  35.732  15.424   0.802
36830W        W 3239   3.682   0.946   0.782
36831W        W 3240   4.785  22.059   0.543
36832W        W 3241  16.717  36.539   3.769
36833W        W 3242  28.797   3.742   3.608
36834W        W 3243  43.366  40.958   2.933
36835W        W 3244  42.915  26.503   4.231
36836W        W 3245  20.053  41.275  14.925
36837W        W 3246  29.080  23.058  12.368
36838W        W 3247  28.608  14.615   0.320
36839W        W 3248  25.785  27.143  13.358
36840W        W 3249  24.548  35.481  10.700
36841W        W 3250  10.149  30.466  12.097
36842W        W 3251  12.516  23.564   3.646
36843W        W 3252  25.004   1.043  13.923
36844W        W 3253  32.306  32.833  13.996
36845W        W 3254  38.635  14.377  10.191
36846W        W 3255   2.159  16.711   0.868
36847W        W 3256  27.472   7.738   3.154
36848W        W 3257  26.681  32.493   3.377
36849W        W 3258  19.791  16.296  11.801
36850W        W 3259  37.369  23.678  13.412
36851W        W 3260  34.461  35.133  12.879
36852W        W 3261  39.139   1.702  14.833
36853W        W 3262  35.297   9.805  13.918
36854W        W 3263  24.539  36.741   2.467
36855W        W 3264  43.314  35.047  14.974
36856W        W 3265  42.405   7.454  14.344
36857W        W 3266   8.461   6.911   2.128
36858W        W 3267   8.912  41.821   3.875
36859W        W 3268  33.741  16.876   4.673
36860W        W 3269  32.811  10.189   2.325
36861W        W 3270  26.283  41.374   2.722
36862W        W 3271  29.941  24.194  11.580
36863W        W 3272  25.314  13.721   4.362
36864W        W 3273  27.129  39.360   3.930
36865W        W 3274  29.018  23.386  13.134
36866W        W 3275  12.831  23.490   2.238
36867W        W 3276   5.386  29.121  14.996
36868W        W 3277  41.068  37.915  14.888
36869W        W 3278   4.951  24.201   0.616
36870W        W 3279   8.832  38.827   2.721
36871W        W 3280  13.129   6.710   4.097
36872W        W 3281   9.453  25.858   5.018
36873W        W 3282  30.954  41.900   2.969
36874W        W 3283  21.444  43.758  14.450
36875W        W 3284  21.916  20.773   0.881
36876W        W 3285  27.003  19.291  12.440
36877W        W 3286  36.683  38.033   2.465
36878W        W 3287  18.990  43.385  11.677
36879W        W 3288  19.244   4.858  13.862
36880W        W 3289  39.550  10.186  14.019
36881W        W 3290  14.617  35.564  11.212
36882W        W 3291   0.104  38.443  10.478
36883W        W 3292   5.443  12.295  14.304
36884W        W 3293  38.157  17.797   1.192
36885W        W 3294  19.629  19.253   4.332
36886W        W 3295  38.779  28.919   0.540
36887W        W 3296  39.981   9.267   2.231
36888W        W 3297  41.221  40.481   1.696
36889W        W 3298  36.862  35.535   4.768
36890W        W 3299  17.048   1.339  14.340
36891W        W 3300   7.354  19.574  13.547
36892W        W 3301  13.832  43.277  13.119
36893W        W 3302  31.094  42.441   4.874
36894W        W 3303  19.851  23.228   0.700
36895W        W 3304   2.498  20.776   0.011
36896W        W 3305  24.186  20.616  10.928
36897W        W 3306   6.181   5.102   9.978
36898W        W 3307   8.754  29.698  13.436
36899W        W 3308  31.000  16.210   4.945
36900W        W 3309  24.568  22.315  13.453
36901W        W 3310  32.966   0.808   3.472
36902W        W 3311  23.347   6.729  12.539
36903W        W 3312   9.636  36.795  13.962
36904W        W 3313   1.484  31.674  10.432
36905W        W 3314  13.757  28.896   3.703
36906W        W 3315  39.253  35.908   2.865
36907W        W 3316   7.813  21.161  12.617
36908W        W 3317  10.903  28.823   2.302
36909W        W 3318  44.213   2.964   3.383
36910W        W 3319  23.125  21.767  12.509
36911W        W 3320  33.840  13.578   1.546
36912W        W 3321   0.212  35.943   4.637
36913W        W 3322  12.954  16.112  12.707
36914W        W 3323  30.641  41.570   2.253
36915W        W 3324  14.971  26.092   2.284
36916W        W 3325  10.561  38.007   1.851
36917W        W 3326  35.190  14.691  12.219
36918W        W 3327   1.788  18.569   3.703
36919W        W 3328   6.364  19.553  11.635
36920W        W 3329  24.131  20.438  14.295
36921W        W 3330  27.647  22.163   3.820
36922W        W 3331  21.205   6.823  13.654
36923W        W 3332   2.471  35.098  12.392
36924W        W 3333   6.216  42.426   1.707
36925W        W 3334  42.739  10.238   3.448
36926W        W 3335  30.151  26.539  11.516
36927W        W 3336  22.572   5.359  11.734
36928W        W 3337  10.423   6.584   2.277
36929W        W 3338  18.732  18.860   3.160
36930W        W 3339  28.611  34.165   2.301
36931W        W 3340  16.986  20.509   9.889
36932W        W 3341  20.289  20.638   1.287
36933W        W 3342  16.322  39.798  10.862
36934W        W 3343   7.005  37.435  14.103
36935W        W 3344  20.420  25.502   1.587
36936W        W 3345  40.037  24.454   1.770
36937W        W 3346  10.847  10.879  10.624
36938W        W 3347   7.766  14.515   3.833
36939W        W 3348  25.677  11.751  11.446
36940W        W 3349  22.676  34.661   1.315
36941W        W 3350  21.259  11.816   0.344
36942W        W 3351  26.915  34.027  12.581
36943W        W 3352   9.829  27.925   2.320
36944W        W 3353  40.852  12.914  11.609
36945W        W 3354  31.583  37.402   2.476
36946W        W 3355  20.550  21.116   4.615
36947W        W 3356   9.317  41.429  13.104
36948W        W 3357  44.502  16.061  10.397
36949W        W 3358  14.333  36.326   1.181
36950W        W 3359  19.068  37.625  12.224
36951W        W 3360  40.137  26.370  13.476
36952W        W 3361   2.404   0.536   2.176
36953W        W 3362  29.808   8.915   5.528
36954W        W 3363   3.393  40.469  14.744
36955W        W 3364   2.964   4.840   3.763
36956W        W 3365   3.672  35.478  12.943
36957W        W 3366   3.424  29.201  11.874
36958W        W 3367  21.790  21.093  11.783
36959W        W 3368   8.870  41.258  12.442
36960W        W 3369  15.753   1.721  13.819
36961W        W 3370   4.163  37.147  11.077
36962W        W 3371  11.618  21.724   2.812
36963W        W 3372  41.520  20.921  12.293
36964W        W 3373  12.775   1.262  11.946
36965W        W 3374  13.632  31.066  12.770
36966W        W 3375  12.829  33.769   2.704
36967W        W 3376  40.115  12.510  12.903
36968W        W 3377  15.973  16.075  12.271
36969W        W 3378  20.270  42.789  10.872
36970W        W 3379  26.946  13.165  12.032
36971W        W 3380  11.304  13.187  11.058
36972W        W 3381  28.110  31.873  11.616
36973W        W 3382  37.468  29.843   0.445
36974W        W 3383  11.416  36.456  14.361
36975W        W 3384   6.962  38.088  13.608
36976W        W 3385  21.116  17.733  12.442
36977W        W 3386  16.605  37.290   0.829
36978W        W 3387  23.540  15.825   0.425
36979W        W 3388  10.339   0.342   0.811
36980W        W 3389  25.228  30.891   4.517
36981W        W 3390  21.152  27.762   2.146
36982W        W 3391  15.506  21.480   1.830
36983W        W 3392  34.552  42.026   0.350
36984W        W 3393  21.160   1.373   4.800
36985W        W 3394  30.842   9.157  12.932
36986W        W 3395   0.322  43.532   2.162
36987W        W 3396  17.389  15.442  10.377
36988W        W 3397  24.504  30.042   2.598
36989W        W 3398  13.928   8.852  13.194
36990W        W 3399  18.235  13.635  14.104
36991W        W 3400   0.023  39.529   3.761
36992W        W 3401  42.396  17.608   1.426
36993W        W 3402  23.035  34.449   0.061
36994W        W 3403  26.809   6.168  12.492
36995W        W 3404  34.343  29.493   2.722
36996W        W 3405  42.247   5.711   2.840
36997W        W 3406  34.099  33.576  14.322
36998W        W 3407  22.585  37.348   2.846
36999W        W 3408  23.394  21.261  12.402
37000W        W 3409   7.383   0.816   4.096
37001W        W 3410  28.253   6.868  12.598
37002W        W 3411  29.282  25.449  10.602
37003W        W 3412   2.536  26.940   3.532
37004W        W 3413  12.437  34.209   4.928
37005W        W 3414  40.842   7.914   2.718
37006W        W 3415  24.961   4.657  12.898
37007W        W 3416  14.769  41.817  10.230
37008W        W 3417  10.703  41.021  13.091
37009W        W 3418  33.151  39.352   3.232
37010W        W 3419  16.675  25.862   0.834
37011W        W 3420  43.544  21.756   2.321
37012W        W 3421  32.588  31.192  11.557
37013W        W 3422  15.086   0.945   4.169
37014W        W 3423  42.907   1.794   3.145
37015W        W 3424  30.178  27.052  11.536
37016W        W 3425  28.071  24.614  14.554
37017W        W 3426  28.339  14.997  11.058
37018W        W 3427  38.640  26.662   0.921
37019W        W 3428  42.974  23.463   1.400
37020W        W 3429  35.460   7.669   4.692
37021W        W 3430  16.802  30.440  14.409
37022W        W 3431  44.555  21.994  13.541
37023W        W 3432   7.269  17.411   1.216
37024W        W 3433  20.220   9.645  12.748
37025W        W 3434  28.312  36.441   0.924
37026W        W 3435   1.942  31.190  13.033
37027W        W 3436  25.639  10.577   0.719
37028W        W 3437  34.422  32.159  12.908
37029W        W 3438  43.416  10.964   5.380
37030W        W 3439   9.357  37.760  13.830
37031W        W 3440  10.219   2.263   3.020
37032W        W 3441  16.710  32.890  11.984
37033W        W 3442  41.897  40.087  11.953
37034W        W 3443  44.297   9.686   3.637
37035W        W 3444  11.022   3.836  10.264
37036W        W 3445  26.216   6.800   3.316
37037W        W 3446  36.543   5.834   0.448
37038W        W 3447   0.556  30.579   0.324
37039W        W 3448  44.994  14.292  14.477
37040W        W 3449  44.233  37.289   3.576
37041W        W 3450  42.325  44.838   1.021
37042W        W 3451  17.322  37.621   1.345
37043W        W 3452   8.452  42.937  14.993
37044W        W 3453  13.839  30.240   1.747
37045W        W 3454  13.781  17.216  10.681
37046W        W 3455  20.965  21.523   0.260
37047W        W 3456  37.332  27.522  11.960
37048W        W 3457   1.830   7.833  13.481
37049W        W 3458  25.559  15.758   4.155
37050W        W 3459  20.919  14.544  13.902
37051W        W 3460  21.646  23.663  10.393
37052W        W 3461  17.525  33.717   2.619
37053W        W 3462  30.055   4.850   4.318
37054W        W 3463  39.076  18.031   4.246
37055W        W 3464  28.421   4.155  14.024
37056W        W 3465  16.903  11.046  14.038
37057W        W 3466   1.289  10.692  12.896
37058W        W 3467  13.192  33.530   0.845
37059W        W 3468   2.148  30.415  12.664
37060W        W 3469  12.866  43.395  13.759
37061W        W 3470  41.392  43.747  12.635
37062W        W 3471  33.865   3.986   0.415
37063W        W 3472  18.206   9.685   0.747
37064W        W 3473   2.465  21.520   0.092
37065W        W 3474  33.580  21.191   4.577
37066W        W 3475  40.546  25.634  10.339
37067W        W 3476  28.985  24.719   0.906
37068W        W 3477   0.965  38.995  12.508
37069W        W 3478   8.920  44.336  13.930
37070W        W 3479  21.713  20.713  11.471
37071W        W 3480  42.994  13.335   0.749
37072W        W 3481  20.196  34.165  12.555
37073W        W 3482  28.409  36.280  12.953
37074W        W 3483   6.975  29.999  13.624
37075W        W 3484  11.897  30.962  14.262
37076W        W 3485  21.149  14.587  13.414
37077W        W 3486   3.718  25.515  13.285
37078W        W 3487   4.143  44.323   2.439
37079W        W 3488   5.000  22.037  10.423
37080W        W 3489   2.472  34.502  11.594
37081W        W 3490  42.502  14.585   4.902
37082W        W 3491  18.981   1.941   3.205
37083W        W 3492  41.778   2.201  11.992
37084W        W 3493  19.489  16.748   0.359
37085W        W 3494   0.909  21.260  11.565
37086W        W 3495  31.944  40.181   1.941
37087W        W 3496  34.956   3.952   1.273
37088W        W 3497  23.982  10.079  14.255
37089W        W 3498  26.620  11.174  10.601
37090W        W 3499  10.804  23.046  11.432
37091W        W 3500  38.528  16.784  13.708
37092W        W 3501  29.814  19.253  12.477
37093W        W 3502  27.032   6.945   0.762
37094W        W 3503  11.513  10.038   0.501
37095W        W 3504  30.478  26.958   1.845
37096W        W 3505  21.046   4.840   1.394
37097W        W 3506  11.276  26.106  13.525
37098W        W 3507   5.640  23.056   4.500
37099W        W 3508   6.474  34.876  11.279
37100W        W 3509  22.715  11.550  13.987
37101W        W 3510  25.198  17.831   4.595
37102W        W 3511   6.431   3.197  13.647
37103W        W 3512   4.940  27.531   1.141
37104W        W 3513  31.023  17.148   3.590
37105W        W 3514  35.387  17.059   4.604
37106W        W 3515  19.989   7.188  13.973
37107W        W 3516  19.054  28.580  12.258
37108W        W 3517  42.990  39.292  11.452
37109W        W 3518  12.184  40.516   2.061
37110W        W 3519  21.003   3.503  14.968
37111W        W 3520   6.424   2.382  10.986
37112W        W 3521  36.556  41.063   2.656
37113W        W 3522  25.737  35.336  14.837
37114W        W 3523   9.632   1.709  10.581
37115W        W 3524  21.569  37.560  12.426
37116W        W 3525  23.607  21.069   5.274
37117W        W 3526  33.020   0.398   5.742
37118W        W 3527  18.602  35.362   3.611
37119W        W 3528   7.921  38.471  10.798
37120W        W 3529   6.739   9.831  13.279
37121W        W 3530  15.135  30.448   2.666
37122W        W 3531  35.064  40.871  11.417
37123W        W 3532  43.780   7.276   4.964
37124W        W 3533   8.273  15.110   0.325
37125W        W 3534  12.880  10.432   4.570
37126W        W 3535  44.861  18.550  10.470
37127W        W 3536  41.769  26.667  12.122
37128W        W 3537   0.975  32.587   0.032
37129W        W 3538   5.161  23.963   9.805
37130W        W 3539   6.753  19.597   1.579
37131W        W 3540  17.596  37.508  13.564
37132W        W 3541   7.896  42.307  13.992
37133W        W 3542  18.064   5.340  13.032
37134W        W 3543  24.052  40.460  11.554
37135W        W 3544  28.976  16.233   3.207
37136W        W 3545  36.918  22.169  13.629
37137W        W 3546  15.206   8.285  13.947
37138W        W 3547  22.915  35.654   4.279
37139W        W 3548  22.362  43.532  12.757
37140W        W 3549   7.184   3.728   3.166
37141W        W 3550  22.598   5.840  10.476
37142W        W 3551  37.799  43.003   1.715
37143W        W 3552  39.126  37.604  11.477
37144W        W 3553  26.231  31.013   3.327
37145W        W 3554   1.908  44.300   2.016
37146W        W 3555   5.193  24.004   0.054
37147W        W 3556   3.737  42.375   3.105
37148W        W 3557  16.134  18.035   3.296
37149W        W 3558  27.891  12.320  14.936
37150W        W 3559  11.112  33.797  11.064
37151W        W 3560  40.048  35.840   1.975
37152W        W 3561  28.194  18.113  11.521
37153W        W 3562  15.625   8.762  13.146
37154W        W 3563  35.828  36.891  12.105
37155W        W 3564  10.590  14.206  12.839
37156W        W 3565  37.237  33.635   2.817
37157W        W 3566  28.578  18.665   0.412
37158W        W 3567  40.292  12.683  12.427
37159W        W 3568   0.037  26.540  10.593
37160W        W 3569  21.632  44.465  11.525
37161W        W 3570  40.964  14.708   2.122
37162W        W 3571  29.079   0.147   0.502
37163W        W 3572   1.548  44.917   3.345
37164W        W 3573  18.346  33.454  13.953
37165W        W 3574  39.548  43.723   0.140
37166W        W 3575  18.279   3.324  11.462
37167W        W 3576   0.918  29.485   4.941
37168W        W 3577  41.773  17.334  14.393
37169W        W 3578  26.532   3.386  13.511
37170W        W 3579  32.673   1.461   4.168
37171W        W 3580  33.061  31.938   3.208
37172W        W 3581   6.417   9.304   1.773
37173W        W 3582  20.941  33.959   4.541
37174W        W 3583  42.032  36.430   3.704
37175W        W 3584  14.421   5.583   2.112
37176W        W 3585  29.111   3.517   3.925
37177W        W 3586  40.796  27.345   1.821
37178W        W 3587   0.802  32.825  10.715
37179W        W 3588  30.113  12.168   1.167
37180W        W 3589  40.351   7.818  14.480
37181W        W 3590   2.766  36.975  12.149
37182W        W 3591  10.604   6.926   1.855
37183W        W 3592  25.824   3.702  13.479
37184W        W 3593  37.427  36.095  10.494
37185W        W 3594   0.416  20.113   4.111
37186W        W 3595  31.993  14.126   2.475
37187W        W 3596  10.345  28.190   4.480
37188W        W 3597  34.929  10.374   4.605
37189W        W 3598  20.944  35.851  12.008
37190W        W 3599  40.439  34.920   4.561
37191W        W 3600  38.942  25.466  10.693
37192W        W 3601  14.549  20.811  14.837
37193W        W 3602  27.107  21.045   4.550
37194W        W 3603  28.666  28.012  14.544
37195W        W 3604   1.562  13.897  14.588
37196W        W 3605  18.588  27.948  10.772
37197W        W 3606  26.351  21.256   1.018
37198W        W 3607  15.916  16.114   0.837
37199W        W 3608  39.340   9.702   3.365
37200W        W 3609  41.334   6.805  13.471
37201W        W 3610  11.192  43.982   3.161
37202W        W 3611  13.679  22.202   0.425
37203W        W 3612  39.547   2.939  10.724
37204W        W 3613  10.196  28.904   3.281
37205W        W 3614  39.512   0.051   0.952
37206W        W 3615  23.185  38.828   0.487
37207W        W 3616  43.432  41.284   3.617
37208W        W 3617  29.958  21.316   4.551
37209W        W 3618  41.804  19.111  11.447
37210W        W 3619  44.650  37.970   5.003
37211W        W 3620  10.072  14.508   3.656
37212W        W 3621  14.352   2.390  12.858
37213W        W 3622  18.144  30.015   2.472
37214W        W 3623  44.696  39.581  12.105
37215W        W 3624  27.620   1.528  14.741
37216W        W 3625   6.681  42.495   3.798
37217W        W 3626  10.091   8.895  10.319
37218W        W 3627  12.903  30.205  12.069
37219W        W 3628  20.088  33.272   0.765
37220W        W 3629  21.807   3.399  11.503
37221W        W 3630  39.670  30.699   0.805
37222W        W 3631  26.484   4.419   1.788
37223W        W 3632   8.968  31.978  13.843
37224W        W 3633  32.284  27.981   3.720
37225W        W 3634  31.565  35.872   2.281
37226W        W 3635  32.519  13.369   2.770
37227W        W 3636  15.607  34.481   1.850
37228W        W 3637  33.394  34.766  11.216
37229W        W 3638  19.296   4.199  11.046
37230W        W 3639   3.351  18.336  12.929
37231W        W 3640  40.205  31.499   1.407
37232W        W 3641  14.770  36.933  13.604
37233W        W 3642   8.119  41.232   0.653
37234W        W 3643  29.031  13.267   1.309
37235W        W 3644   2.814  40.989   0.437
37236W        W 3645  27.420  19.549  11.486
37237W        W 3646  35.019  23.194   3.656
37238W        W 3647  37.326   7.819  11.619
37239W        W 3648  41.050   7.409   0.006
37240W        W 3649  22.208  32.971   2.599
37241W        W 3650   1.763  22.135   4.989
37242W        W 3651  21.562  16.125   4.529
37243W        W 3652   5.644   8.227   1.016
37244W        W 3653   8.405  29.130   1.681
37245W        W 3654  35.966  37.590  13.177
37246W        W 3655   6.019  15.125  13.835
37247W        W 3656  21.561   3.820  13.530
37248W        W 3657   6.175  14.571   0.865
37249W        W 3658  39.849  25.375  11.126
37250W        W 3659  32.621  21.361   2.300
37251W        W 3660  29.355  12.333   0.254
37252W        W 3661  35.078  37.690  13.547
37253W        W 3662  21.530  32.061  12.983
37254W        W 3663   4.362  42.867  12.555
37255W        W 3664  19.948  10.957  11.562
37256W        W 3665  16.683  11.192  13.058
37257W        W 3666  42.375  13.877  13.507
37258W        W 3667   9.425  21.791   4.147
37259W        W 3668   5.878  36.023  11.507
37260W        W 3669   6.352  18.098  14.424
37261W        W 3670   4.296  17.726   0.231
37262W        W 3671  28.003  10.264  12.753
37263W        W 3672  17.827  40.525  14.192
37264W        W 3673  32.146  42.771   3.307
37265W        W 3674   5.968  26.016  14.761
37266W        W 3675  19.120  35.087   0.957
37267W        W 3676   5.820  38.465  14.428
37268W        W 3677  30.210  17.041   2.430
37269W        W 3678  22.185  32.891  14.419
37270W        W 3679   7.400   3.515   4.493
37271W        W 3680  10.655  12.290  11.540
37272W        W 3681  33.749  21.588  11.672
37273W        W 3682  25.976  28.529   9.727
37274W        W 3683  13.065   9.831  14.762
37275W        W 3684   6.838  34.113   0.327
37276W        W 3685  41.536   4.065  14.460
37277W        W 3686  41.856  38.852  12.514
37278W        W 3687  43.749  27.223   2.253
37279W        W 3688  34.583  39.253   0.662
37280W        W 3689  43.442  11.399   9.691
37281W        W 3690  36.369  36.097   2.753
37282W        W 3691  37.897  33.649  10.555
37283W        W 3692  39.460  27.596   1.699
37284W        W 3693  37.535  34.696  12.972
37285W        W 3694  11.409  39.416  14.256
37286W        W 3695   9.212  38.901  14.393
37287W        W 3696  23.553   3.427   4.398
37288W        W 3697   9.114  15.111  11.569
37289W        W 3698  17.647  28.502  14.035
37290W        W 3699  24.458   0.543  12.517
37291W        W 3700  29.718  29.817   2.324
37292W        W 3701  35.593   0.408   3.865
37293W        W 3702  24.994  38.213   0.749
37294W        W 3703   3.544  28.701   3.240
37295W        W 3704   3.479  33.678  13.467
37296W        W 3705  14.799   1.333  14.175
37297W        W 3706  34.311  12.721   2.812
37298W        W 3707  25.686   1.955  12.862
37299W        W 3708  36.327   2.322  10.489
37300W        W 3709  40.099  28.003  11.957
37301W        W 3710   8.732   8.400  13.994
37302W        W 3711  12.245   9.437   0.198
37303W        W 3712  29.993   3.101  12.440
37304W        W 3713   6.141  22.595  12.491
37305W        W 3714  23.857  35.316  11.216
37306W        W 3715  19.145   5.884  11.674
37307W        W 3716  12.606  41.876  10.704
37308W        W 3717  29.656  18.367  11.430
37309W        W 3718  36.299  39.927  12.419
37310W        W 3719  24.101  33.927  12.169
37311W        W 3720  16.724  17.741  13.929
37312W        W 3721  27.001  34.372   2.829
37313W        W 3722   8.339  30.418   4.628
37314W        W 3723  16.020  14.604  12.105
37315W        W 3724  37.997   6.212   1.362
37316W        W 3725   1.156  43.152  11.906
37317W        W 3726  35.375  20.359  11.069
37318W        W 3727  26.985  33.911   3.749
37319W        W 3728   9.952  30.051  11.234
37320W        W 3729  17.534  40.329   1.185
37321W        W 3730  14.849   8.530   3.404
37322W        W 3731  35.085  28.167  13.830
37323W        W 3732  10.609  35.917  14.057
37324W        W 3733  31.381  35.469  10.496
37325W        W 3734  17.749  39.575   2.257
37326W        W 3735  31.442  34.038   2.219
37327W        W 3736  18.499  28.021  10.274
37328W        W 3737   3.224   0.198  13.144
37329W        W 3738  13.042  38.360   3.227
37330W        W 3739   1.504   6.221   4.610
37331W        W 3740  39.482  27.684   0.653
37332W        W 3741  15.265   9.868   1.661
37333W        W 3742  13.413   5.925  10.261
37334W        W 3743  18.411  27.978  13.226
37335W        W 3744  29.706   4.654   4.028
37336W        W 3745  20.104  28.119  13.937
37337W        W 3746  23.528   3.756   4.844
37338W        W 3747  36.513   3.070  13.877
37339W        W 3748   1.267  32.049  12.102
37340W        W 3749  43.077  26.725   0.847
37341W        W 3750   7.741   5.209  12.947
37342W        W 3751   0.865  37.166  11.005
37343W        W 3752  31.554  15.349   0.865
37344W        W 3753   9.345   8.436  13.381
37345W        W 3754  21.007  20.111  10.975
37346W        W 3755   7.503   1.310   3.923
37347W        W 3756  36.230  15.562  14.929
37348W        W 3757  39.839  34.004   2.301
37349W        W 3758  12.027  43.667   4.537
37350W        W 3759  17.806  38.680   3.655
37351W        W 3760  42.441  44.847  13.109
37352W        W 3761   0.320  13.382  12.381
37353W        W 3762  13.346   5.468  11.985
37354W        W 3763  13.189  30.543  10.255
37355W        W 3764  26.158  34.918   4.245
37356W        W 3765  24.168  38.175  11.448
37357W        W 3766   5.627  25.188  13.339
37358W        W 3767   1.533  35.475  10.649
37359W        W 3768  10.156  39.859  12.558
37360W        W 3769  40.545  28.144   1.503
37361W        W 3770  35.603   3.107   0.598
37362W        W 3771   3.407  17.604  12.596
37363W        W 3772   8.860  21.256  11.905
37364W        W 3773  37.638  43.860  12.067
37365W        W 3774  44.725   0.822  12.992
37366W        W 3775  22.514  15.673  12.817
37367W        W 3776  44.475  35.839  11.232
37368W        W 3777   6.352   0.319  11.635
37369W        W 3778   9.231  43.278  13.470
37370W        W 3779  34.894   7.951  13.587
37371W        W 3780   0.314  39.917   4.722
37372W        W 3781  13.250   9.785   1.933
37373W        W 3782  12.545  19.340  11.377
37374W        W 3783  18.693   6.254   2.093
37375W        W 3784  38.025  37.912   3.760
37376W        W 3785   4.726  31.272   4.578
37377W        W 3786   9.132  41.297  14.038
37378W        W 3787  24.446  12.573  10.686
37379W        W 3788  26.451   1.296   4.725
37380W        W 3789  27.815  34.626  11.095
37381W        W 3790  13.540   9.600  14.813
37382W        W 3791   0.800  12.181   3.671
37383W        W 3792  36.823  38.351  10.707
37384W        W 3793  24.036  28.099   2.258
37385W        W 3794  29.801  41.429  14.845
37386W        W 3795  41.820  26.018  10.527
37387W        W 3796  29.361  32.180   0.315
37388W        W 3797  34.275  27.653   0.249
37389W        W 3798   7.868   1.503   0.951
37390W        W 3799  15.045   5.357  12.578
37391W        W 3800  12.704  40.360  11.123
37392W        W 3801  44.647  10.206  13.887
37393W        W 3802  16.578  20.159  10.629
37394W        W 3803  44.751  28.011  12.551
37395W        W 3804  32.015   5.694   2.206
37396W        W 3805  38.841  38.682   5.008
37397W        W 3806  40.832  36.448   2.646
37398W        W 3807  40.051  21.958  10.701
37399W        W 3808  41.684   2.890   4.974
37400W        W 3809   6.591  11.600   4.192
37401W        W 3810  39.088  20.826  13.314
37402W        W 3811  12.111  21.787   3.757
37403W        W 3812  15.767   6.713  14.081
37404W        W 3813  32.858  31.555  12.623
37405W        W 3814   3.435  14.369   2.874
37406W        W 3815  27.765  24.862  10.363
37407W        W 3816  23.216  22.333   1.831
37408W        W 3817   2.173  20.422  14.781
37409W        W 3818  30.169  11.657   1.799
37410W        W 3819  13.065  35.384   0.651
37411W        W 3820  12.116   1.217  14.295
37412W        W 3821   7.397   7.328  12.435
37413W        W 3822  13.142   5.263   1.507
37414W        W 3823  10.332  14.049   3.649
37415W        W 3824  34.913  29.608   4.619
37416W        W 3825   2.148  16.142   2.683
37417W        W 3826   3.731  31.621  10.945
37418W        W 3827  42.363  40.423   3.637
37419W        W 3828  15.607  25.495  12.506
37420W        W 3829   9.139  42.994   1.380
37421W        W 3830  24.859  40.419  13.834
37422W        W 3831  28.912  22.059  10.990
37423W        W 3832  30.592   5.656   3.231
37424W        W 3833  30.971  36.581  11.590
37425W        W 3834  13.389  38.049  11.979
37426W        W 3835   7.465  34.705   3.616
37427W        W 3836  23.702  31.491   3.583
37428W        W 3837   8.865  44.221   3.955
37429W        W 3838   4.789  44.071  13.160
37430W        W 3839  22.112  28.543   2.760
37431W        W 3840   5.348  32.522   4.559
37432W        W 3841  20.697  40.152  13.251
37433W        W 3842  32.132  23.195   4.703
37434W        W 3843  36.492  41.584  11.174
37435W        W 3844  26.815   8.779   0.943
37436W        W 3845  42.415  22.283   1.835
37437W        W 3846  18.509  21.598   0.321
37438W        W 3847  13.660  14.282  10.691
37439W        W 3848  33.390  21.107  13.336
37440W        W 3849  39.965  15.062   4.298
37441W        W 3850  33.132  44.990  12.366
37442W        W 3851  27.552  41.578   1.624
37443W        W 3852  17.867  11.339  12.611
37444W        W 3853  17.138   5.360  12.637
37445W        W 3854  22.989  27.583   4.792
37446W        W 3855   4.950  21.499  14.690
37447W        W 3856  19.198  39.875   3.342
37448W        W 3857  36.953   4.183   0.938
37449W        W 3858   8.884  11.214  14.817
37450W        W 3859  33.412  16.013   0.951
37451W        W 3860   3.706  12.377   3.199
37452W        W 3861  20.967  29.855  11.191
37453W        W 3862  22.699  40.695  12.041
37454W        W 3863  25.722   4.935   0.288
37455W        W 3864  39.358  17.136  14.531
37456W        W 3865  30.472   1.778   4.520
37457W        W 3866  23.741  30.872  10.995
37458W        W 3867  21.443  43.474   3.201
37459W        W 3868  27.297   9.364   1.651
37460W        W 3869  39.005  33.076   4.814
37461W        W 3870   7.312  21.264   1.833
37462W        W 3871   9.326  15.354  10.651
37463W        W 3872  19.773  14.330   3.667
37464W        W 3873  40.484  36.622  14.498
37465W        W 3874  27.231  13.024   2.047
37466W        W 3875  10.911  21.519   4.567
37467W        W 3876  17.815  33.344  14.863
37468W        W 3877  21.674  13.078  11.104
37469W        W 3878  40.000   6.501   0.211
37470W        W 3879  34.358   4.789  12.578
37471W        W 3880  13.209  37.438   9.770
37472W        W 3881   1.196  40.897  11.713
37473W        W 3882  20.311   0.415  12.784
37474W        W 3883  24.255   6.852  12.883
37475W        W 3884  35.448  31.461   2.502
37476W        W 3885  15.644  41.552   2.711
37477W        W 3886   9.650   7.827  12.769
37478W        W 3887  40.682   5.990  11.552
37479W        W 3888  37.312   3.294   3.620
37480W        W 3889  10.936  27.692   2.873
37481W        W 3890   1.271   7.407  11.464
37482W        W 3891   1.990  30.553  11.789
37483W        W 3892  11.833  10.488  10.621
37484W        W 3893   2.327  27.929  10.744
37485W        W 3894  22.189  24.998  13.970
37486W        W 3895  33.454  31.153   5.092
37487W        W 3896  16.394  15.111  11.137
37488W        W 3897   9.370  23.789   1.905
37489W        W 3898  41.412  31.070   1.890
37490W        W 3899  32.337  31.953  11.117
37491W        W 3900  11.780  28.575   0.272
37492W        W 3901  21.308  31.894  12.530
37493W        W 3902  41.271   4.693   3.322
37494W        W 3903  25.713  27.110   3.737
37495W        W 3904  36.259  15.392   3.306
37496W        W 3905  13.214  16.168   3.402
37497W        W 3906   8.680   6.820   2.616
37498W        W 3907  31.922  23.623   1.863
37499W        W 3908  12.137  24.311   0.432
37500W        W 3909  39.072   7.834   0.783
37501W        W 3910  31.124  31.177   1.320
37502W        W 3911  38.405  21.270  11.903
37503W        W 3912   6.654  28.834   2.932
37504W        W 3913  43.222   8.391  13.789
37505W        W 3914  10.456  39.807   2.286
37506W        W 3915  32.597  36.464   0.877
37507W        W 3916   0.921  20.121   2.898
37508W        W 3917   1.834  44.249   4.718
37509W        W 3918   8.622  34.462  13.386
37510W        W 3919  35.960  34.496  14.837
37511W        W 3920  36.862  28.425   2.116
37512W        W 3921  11.136  35.589  13.375
37513W        W 3922  12.011   4.917   4.498
37514W        W 3923  38.815  40.834   2.778
37515W        W 3924  15.113  41.179   1.476
37516W        W 3925   0.956   6.356  13.566
37517W        W 3926   7.310   1.029   0.253
37518W        W 3927   9.237   6.694   0.832
37519W        W 3928  27.993  12.723  14.610
37520W        W 3929  36.008  25.306   3.886
37521W        W 3930  26.142   7.535  14.334
37522W        W 3931  19.771   4.806  13.899
37523W        W 3932  25.044  24.628   2.783
37524W        W 3933  43.902  15.240   1.657
37525W        W 3934  43.019   0.900  13.465
37526W        W 3935   2.611   9.686   3.404
37527W        W 3936  44.262  41.064  12.541
37528W        W 3937  42.862  38.552  12.086
37529W        W 3938  35.992  22.927   0.038
37530W        W 3939  18.057  22.101   3.793
37531W        W 3940  18.284  11.100   0.967
37532W        W 3941  21.698  10.949   1.877
37533W        W 3942   2.050   5.057  13.428
37534W        W 3943  31.230   2.856   1.286
37535W        W 3944  19.810  16.755  14.891
37536W        W 3945  37.519   2.909  14.735
37537W        W 3946  25.227  23.057   2.243
37538W        W 3947  13.868  28.786   2.835
37539W        W 3948   9.813  34.584  11.227
37540W        W 3949  23.050  20.306   2.859
37541W        W 3950  16.543  15.632  12.987
37542W        W 3951   3.897  28.348   0.289
37543W        W 3952  42.925  24.238  14.417
37544W        W 3953  33.581  22.249  12.010
37545W        W 3954   8.759   4.363  12.830
37546W        W 3955  20.929  17.910  13.116
37547W        W 3956  44.695  30.865  14.248
37548W        W 3957  21.463  32.713  12.509
37549W        W 3958  21.885  37.524   3.471
37550W        W 3959  34.205  28.970  12.928
37551W        W 3960  23.795  13.079  11.960
37552W        W 3961  31.128  18.026   1.256
37553W        W 3962  13.736  24.049  13.745
37554W        W 3963  14.575  11.528  13.895
37555W        W 3964  32.654  25.794  11.363
37556W        W 3965  21.107  40.921  11.674
37557W        W 3966  16.487  41.337  12.857
37558W        W 3967  14.155  13.717  13.463
37559W        W 3968  28.009  24.665  10.784
37560W        W 3969  17.135  26.265  11.718
37561W        W 3970  11.116  13.408  12.395
37562W        W 3971  31.428  22.305  11.708
37563W        W 3972  40.365  16.028   2.160
37564W        W 3973  40.406  17.526   0.615
37565W        W 3974   7.069   1.853  12.042
37566W        W 3975   8.709  13.069   4.210
37567W        W 3976   1.755  20.289  14.170
37568W        W 3977  29.004  36.555   2.724
37569W        W 3978  25.984  35.936  12.044
37570W        W 3979   3.522   3.293  14.968
37571W        W 3980  34.521  21.748  14.453
37572W        W 3981   3.473  37.385   1.328
37573W        W 3982  21.320   3.348  14.566
37574W        W 3983  16.966  28.812   3.177
37575W        W 3984  31.374   1.177  11.111
37576W        W 3985  31.508  33.730  10.562
37577W        W 3986  37.431  14.305   2.888
37578W        W 3987   0.340  36.247   2.782
37579W        W 3988  41.428  16.254   0.770
37580W        W 3989   6.790   8.443  11.549
37581W        W 3990  16.288   9.579  12.564
37582W        W 3991  38.523  34.446  12.985
37583W        W 3992   0.934  29.545  13.769
37584W        W 3993  24.628  30.034  12.988
37585W        W 3994  22.274  10.356   2.376
37586W        W 3995  33.598   2.681   0.217
37587W        W 3996  10.634  11.799  13.894
37588W        W 3997  40.624  13.854   0.736
37589W        W 3998  15.224  16.632   2.599
37590W        W 3999  33.593  23.993  12.429
37591W        W 4000  44.320  42.078  13.348
37592W        W 4001  34.029   0.257  11.459
37593W        W 4002  28.187  42.630  12.922
37594W        W 4003   9.762  29.590  10.996
37595W        W 4004  31.650  16.140  11.437
37596W        W 4005  18.603   9.239  10.643
37597W        W 4006  35.021  29.690  10.710
37598W        W 4007  35.630  10.852   4.922
37599W        W 4008  28.158   5.824   4.470
37600W        W 4009   8.419  14.024  13.988
37601W        W 4010  39.859  37.968  14.387
37602W        W 4011  38.040  19.493  13.316
37603W        W 4012  16.747  34.269  12.397
37604W        W 4013  16.027  17.562  14.972
37605W        W 4014  33.411   9.728   4.098
37606W        W 4015  28.346  17.229  12.183
37607W        W 4016  36.177  15.927   1.651
37608W        W 4017   9.378  35.849  10.420
37609W        W 4018  35.936  18.190   1.615
37610W        W 4019  26.567  37.879   3.629
37611W        W 4020  15.103   1.989   4.038
37612W        W 4021  36.328  18.230   4.593
37613W        W 4022  34.248   8.785  13.048
37614W        W 4023  42.360  31.363  14.353
37615W        W 4024  37.880   3.753  13.959
37616W        W 4025  28.374  11.415  10.767
37617W        W 4026  16.186  25.190   4.620
37618W        W 4027   4.445   1.448  13.441
37619W        W 4028  34.286  41.837   0.762
37620W        W 4029   1.381  17.824   1.474
37621W        W 4030  35.244   8.157  11.000
37622W        W 4031   6.836   9.053   3.930
37623W        W 4032  21.405  35.687  11.705
37624W        W 4033   6.935  15.720   0.516
37625W        W 4034  27.859   2.493   2.944
37626W        W 4035   8.771   5.216   4.115
37627W        W 4036  14.102  35.540  11.213
37628W        W 4037  16.816   1.949   1.322
37629W        W 4038  30.878  10.006   5.102
37630W        W 4039  41.471  25.006  12.586
37631W        W 4040   3.540  28.161   5.127
37632W        W 4041  39.496   2.331   1.022
37633W        W 4042  23.806   4.490   1.475
37634W        W 4043   8.530  36.380  14.717
37635W        W 4044   4.433  39.850   2.419
37636W        W 4045   9.402  16.807  11.643
37637W        W 4046  26.836  31.707  12.523
37638W        W 4047  41.703  21.166  12.952
37639W        W 4048   3.403   7.199  14.741
37640W        W 4049  36.247  30.279   4.299
37641W        W 4050  30.456   4.438  14.844
37642W        W 4051  29.955   2.929   5.492
37643W        W 4052  39.244  31.154   4.493
37644W        W 4053  22.669  21.510   1.569
37645W        W 4054  35.996  10.184   2.258
37646W        W 4055  13.674   2.338  11.103
37647W        W 4056  28.450  11.993   5.321
37648W        W 4057   5.195  25.830   4.558
37649W        W 4058  38.890  16.289  12.015
37650W        W 4059  28.359  42.475   2.273
37651W        W 4060  38.254  36.423  12.602
37652W        W 4061  16.696  35.941  11.504
37653W        W 4062   4.631   5.299  13.799
37654W        W 4063  42.444  23.940  10.710
37655W        W 4064  26.092  30.473   1.230
37656W        W 4065   9.394  16.682  13.380
37657W        W 4066  12.141   4.251  13.233
37658W        W 4067  13.087  44.888   4.005
37659W        W 4068   2.935  40.331   1.669
37660W        W 4069  30.575  34.710  14.839
37661W        W 4070  18.308  40.037   1.646
37662W        W 4071   7.912   8.304   0.369
37663W        W 4072  31.885  33.012   2.850
37664W        W 4073  28.514  36.533   3.287
37665W        W 4074   9.274  38.588   2.814
37666W        W 4075  40.327  39.763  13.491
37667W        W 4076  28.684  39.699  11.107
37668W        W 4077  25.595  10.434  14.298
37669W        W 4078  42.026  15.070  12.063
37670W        W 4079  44.742   7.840  11.152
37671W        W 4080  37.562   0.992   2.171
37672W        W 4081  15.534   1.091  14.552
37673W        W 4082  44.360  27.754  14.566
37674W        W 4083  14.003  22.201  12.484
37675W        W 4084  24.328  18.034  14.404
37676W        W 4085  19.636  19.135   2.233
37677W        W 4086  16.462  25.025  13.911
37678W        W 4087  21.231  27.690  13.415
37679W        W 4088  33.526  26.057   1.424
37680W        W 4089   2.552   8.622   2.428
37681W        W 4090  23.998  12.642   2.942
37682W        W 4091   9.605   1.367  13.327
37683W        W 4092  17.088  25.696  14.926
37684W        W 4093  39.156  30.696   0.955
37685W        W 4094  30.055  22.558  10.423
37686W        W 4095  27.158  20.749  11.351
37687W        W 4096  39.428   3.246  12.351
37688W        W 4097   0.482  42.441   0.375
37689W        W 4098  33.845  42.689  10.808
37690W        W 4099   3.154  37.804   4.177
37691W        W 4100   9.712  18.220   0.791
37692W        W 4101   5.470  32.136  10.777
37693W        W 4102   6.203   1.176  11.528
37694W        W 4103  10.304   0.203   2.687
37695W        W 4104  27.040  19.624  11.134
37696W        W 4105  17.064  39.341   3.181
37697W        W 4106  32.178   0.704   0.917
37698W        W 4107  27.442  31.604   2.203
37699W        W 4108  20.028  30.455   0.235
37700W        W 4109  27.705  14.255   1.732
37701W        W 4110  17.231  18.830   3.655
37702W        W 4111  26.724  22.109  13.302
37703W        W 4112  43.444  28.614   3.824
37704W        W 4113  20.824   8.054  12.034
37705W        W 4114  38.664  25.984  12.060
37706W        W 4115   7.117   3.095   4.551
37707W        W 4116   7.605  12.635   4.168
37708W        W 4117  20.809  11.612  13.250
37709W        W 4118   8.194  44.486  10.547
37710W        W 4119  31.437  29.887   1.443
37711W        W 4120  20.703   3.752   3.872
37712W        W 4121  19.339  23.725  11.592
37713W        W 4122  31.877  22.034  11.669
37714W        W 4123  26.490  18.556   1.285
37715W        W 4124  18.529  28.966   4.139
37716W        W 4125   4.932  12.071  11.706
37717W        W 4126  20.053   4.399   0.323
37718W        W 4127  10.432  17.351   2.303
37719W        W 4128   8.340  34.421   4.581
37720W        W 4129  43.291  37.141  11.995
37721W        W 4130  20.182  19.522  11.064
37722W        W 4131   6.807  37.833   4.102
37723W        W 4132   5.899   9.176   0.078
37724W        W 4133   9.748  44.003  13.021
37725W        W 4134  11.251  15.360  13.705
37726W        W 4135  35.113  14.015  10.124
37727W        W 4136  35.956  38.391  14.701
37728W        W 4137  22.131  22.567   4.537
37729W        W 4138  28.022  25.205  13.898
37730W        W 4139  15.245  33.298   2.410
37731W        W 4140  21.055  13.217   2.636
37732W        W 4141   2.853  30.879  11.953
37733W        W 4142  36.542  24.046   4.232
37734W        W 4143   9.776  13.065  10.457
37735W        W 4144  40.326   9.811  12.149
37736W        W 4145  13.562  15.513  11.017
37737W        W 4146  41.735  38.659   2.790
37738W        W 4147  33.616  37.368  11.201
37739W        W 4148  23.173  19.365   1.885
37740W        W 4149  33.263   0.313   1.423
37741W        W 4150  33.927  43.025  11.798
37742W        W 4151  20.873  38.061  12.318
37743W        W 4152  12.677  42.477  13.335
37744W        W 4153  22.868   0.520   1.325
37745W        W 4154  41.842  41.328  12.785
37746W        W 4155   6.569  12.630  14.059
37747W        W 4156  19.041  27.149  11.097
37748W        W 4157   9.351  39.125   3.709
37749W        W 4158  39.014  35.027   4.102
37750W        W 4159   3.714   7.681   4.546
37751W        W 4160  12.602  33.100   0.832
37752W        W 4161  27.335   2.813   4.950
37753W        W 4162  33.172  35.353   1.501
37754W        W 4163  27.517  21.713  13.552
37755W        W 4164  44.958  40.186   2.132
37756W        W 4165  22.007  26.819   1.022
37757W        W 4166  41.378  22.780  12.020
37758W        W 4167  12.406  32.055   3.254
37759W        W 4168  32.637  34.370   3.634
37760W        W 4169  14.824  36.355   0.985
37761W        W 4170  38.288  42.460   4.359
37762W        W 4171   9.479  37.448  14.544
37763W        W 4172  21.746  21.843  10.191
37764W        W 4173   2.401  31.416  10.661
37765W        W 4174  26.835   1.273  10.820
37766W        W 4175  30.426   2.769   1.098
37767W        W 4176  38.033  29.071   0.711
37768W        W 4177  24.260  28.029   4.956
37769W        W 4178  30.496  14.172  11.852
37770W        W 4179  10.306  40.955  14.492
37771W        W 4180  42.404  40.522  13.588
37772W        W 4181  15.612  10.136  10.969
37773W        W 4182   6.046   6.697  11.993
37774W        W 4183  24.571  33.680   3.294
37775W        W 4184  11.062  26.586  13.481
37776W        W 4185  12.599  24.287  12.433
37777W        W 4186  16.081  30.597   4.408
37778W        W 4187  13.697  44.218  11.991
37779W        W 4188   9.826  35.218   1.826
37780W        W 4189  13.428  18.233   2.684
37781W        W 4190  31.306  18.495   2.823
37782W        W 4191  17.239   5.633  14.963
37783W        W 4192  39.029  44.506  14.316
37784W        W 4193  25.465  37.472  12.403
37785W        W 4194  14.631  26.552   2.080
37786W        W 4195  39.476  10.348   0.836
37787W        W 4196  35.068  10.481  13.166
37788W        W 4197  39.810  40.000   4.074
37789W        W 4198  26.937  26.712  14.014
37790W        W 4199  13.424  28.563   2.973
37791W        W 4200  25.962  18.809  13.976
37792W        W 4201  34.172   6.023  10.618
37793W        W 4202  44.972  17.727  10.686
37794W        W 4203  14.808   8.172  11.238
37795W        W 4204  40.857  20.089  13.079
37796W        W 4205  20.562  11.233   1.110
37797W        W 4206   5.229  31.654  14.502
37798W        W 4207   0.763  23.638   3.660
37799W        W 4208   0.418  18.154   4.921
37800W        W 4209  40.328  27.906   0.641
37801W        W 4210  25.070  28.453   3.189
37802W        W 4211  11.159  15.601  12.822
37803W        W 4212  25.221  35.617   1.447
37804W        W 4213  44.027  17.861   3.068
37805W        W 4214   9.959  30.582   2.363
37806W        W 4215  39.468   3.711  12.148
37807W        W 4216  42.758  40.545   4.399
37808W        W 4217  10.617  29.112   3.074
37809W        W 4218  37.750  38.282   2.394
37810W        W 4219  35.334   2.881  12.913
37811W        W 4220  42.381  19.133   3.128
37812W        W 4221  35.621  18.378   1.250
37813W        W 4222  13.943  25.243   4.758
37814W        W 4223   2.759  19.294  14.537
37815W        W 4224  38.241  10.116   4.727
37816W        W 4225   4.245   3.010   4.316
37817W        W 4226  28.041  31.578   4.117
37818W        W 4227   9.376  17.837  12.926
37819W        W 4228  23.041  11.585   2.199
37820W        W 4229  29.521  31.448   4.307
37821W        W 4230   2.419   9.989  10.260
37822W        W 4231  33.412  30.185  11.894
37823W        W 4232  31.316  10.635   1.969
37824W        W 4233  13.372  23.576   4.551
37825W        W 4234  28.334  33.593   0.954
37826W        W 4235   1.415  34.077  12.997
37827W        W 4236   1.274  22.022  14.408
37828W        W 4237  37.077  42.473   0.282
37829W        W 4238  17.262   9.788   1.213
37830W        W 4239  16.046  24.460  10.695
37831W        W 4240  33.281  37.055   1.932
37832W        W 4241   0.831  17.169   2.487
37833W        W 4242  42.470  13.851   2.842
37834W        W 4243   5.871  14.025   3.674
37835W        W 4244  22.636  19.248  12.876
37836W        W 4245   0.634  31.877  10.621
37837W        W 4246  22.497  29.987   3.190
37838W        W 4247  13.856  31.969   4.596
37839W        W 4248  31.009  20.838   1.815
37840W        W 4249  16.688  23.060   3.616
37841W        W 4250  27.017   8.661   3.330
37842W        W 4251  43.497  11.556   2.114
37843W        W 4252  26.070   7.891  13.063
37844W        W 4253   6.724  22.657   0.339
37845W        W 4254  12.386  37.556   1.475
37846W        W 4255  36.569  34.549  13.487
37847W        W 4256  20.608  16.134   0.857
37848W        W 4257  34.382   8.426   2.380
37849W        W 4258  19.179  23.267   1.293
37850W        W 4259   5.837  23.246   2.482
37851W        W 4260  30.529  20.120  14.765
37852W        W 4261  20.572  12.375   3.210
37853W        W 4262  11.206  25.662  11.973
37854W        W 4263  29.194  15.143  11.370
37855W        W 4264  42.886  11.796  14.057
37856W        W 4265  20.512   7.784  11.181
37857W        W 4266  18.277  29.944   4.401
37858W        W 4267   8.604  43.329  14.192
37859W        W 4268  37.007  15.246   4.498
37860W        W 4269  38.546  16.596  14.528
37861W        W 4270  29.312  12.778  11.120
37862W        W 4271   4.539   1.213   0.168
37863W        W 4272  36.807   6.743  11.214
37864W        W 4273  29.863   9.374  14.726
37865W        W 4274  13.134  31.514   0.077
37866W        W 4275  22.948  35.588   9.888
37867W        W 4276  24.268  15.915   4.618
37868W        W 4277  19.091  36.332   1.815
37869W        W 4278  26.910   2.318   0.482
37870W        W 4279   8.731   5.832  13.809
37871W        W 4280  30.408  40.007  12.841
37872W        W 4281  30.926  32.458   1.837
37873W        W 4282  18.388   5.433   4.700
37874W        W 4283   0.669  35.926  12.087
37875W        W 4284   3.393   4.305  13.068
37876W        W 4285  15.269  15.154   1.924
37877W        W 4286  12.929  44.822  12.293
37878W        W 4287  38.609  32.762   4.677
37879W        W 4288  38.748   0.704   4.006
37880W        W 4289  19.221  38.555  12.692
37881W        W 4290   0.519  17.190  12.009
37882W        W 4291   8.571  23.819   2.642
37883W        W 4292   1.859  36.287   3.142
37884W        W 4293  33.864  33.778  13.889
37885W        W 4294  17.299   3.163  13.351
37886W        W 4295  44.533   4.929   2.741
37887W        W 4296  30.706  11.651   1.802
37888W        W 4297   0.099  28.151  11.117
37889W        W 4298  30.017  25.501   4.614
37890W        W 4299   0.908  20.499  13.493
37891W        W 4300  10.941  42.442  10.685
37892W        W 4301  40.565  11.321   4.219
37893W        W 4302  32.641  37.603  12.994
37894W        W 4303  41.271   7.263   4.524
37895W        W 4304  13.166  10.827  14.761
37896W        W 4305  39.482  43.670  11.641
37897W        W 4306  20.320  32.101  10.749
37898W        W 4307  38.721   2.769  11.032
37899W        W 4308  34.033  24.271   0.454
37900W        W 4309  25.602  16.054   4.885
37901W        W 4310  36.550  37.349  12.461
37902W        W 4311   3.299  17.019  14.320
37903W        W 4312  32.107  24.285  12.426
37904W        W 4313   7.879  28.178   3.505
37905W        W 4314  24.663  44.238  11.599
37906W        W 4315   6.950  18.555  13.852
37907W        W 4316  25.927   5.723  12.488
37908W        W 4317   4.500  37.844   2.856
37909W        W 4318  40.011  12.129   0.819
37910W        W 4319  23.996   8.970  13.646
37911W        W 4320  22.030  26.441   0.341
37912W        W 4321  35.069  18.220  11.107
37913W        W 4322  12.570  20.497  13.549
37914W        W 4323  38.134   6.350  12.025
37915W        W 4324   1.323   6.552   2.589
37916W        W 4325  21.721  35.715  12.118
37917W        W 4326   4.420   1.230  13.901
37918W        W 4327  18.402  40.534   2.725
37919W        W 4328   9.257  36.119   0.328
37920W        W 4329  16.836   1.430   1.184
37921W        W 4330   3.272  42.063  12.798
37922W        W 4331   0.764   3.578  10.911
37923W        W 4332   5.664  34.322  13.424
37924W        W 4333  33.127  19.181  13.298
37925W        W 4334   6.802   1.745  11.587
37926W        W 4335  35.103  43.281  10.709
37927W        W 4336  17.236  30.859   3.787
37928W        W 4337  11.230  23.724   2.620
37929W        W 4338  10.841   2.111   2.750
37930W        W 4339  13.903  26.558   4.761
37931W        W 4340  29.712  43.463  10.479
37932W        W 4341  37.873  40.254  12.984
37933W        W 4342  36.877  23.683  10.957
37934W        W 4343  13.032  24.985   4.602
37935W        W 4344  16.254  43.315  13.284
37936W        W 4345  34.479  34.118  12.803
37937W        W 4346  27.480  25.005  14.855
37938W        W 4347  22.431  23.723   3.734
37939W        W 4348  39.096  11.703  12.975
37940W        W 4349  39.875  34.346   0.808
37941W        W 4350  10.878  18.753  11.121
37942W        W 4351   3.198  13.997  11.731
37943W        W 4352  39.393  13.188  11.563
37944W        W 4353  41.879  22.544  14.399
37945W        W 4354  38.634  15.102   1.731
37946W        W 4355  40.958  25.238   1.240
37947W        W 4356   5.786  13.771   4.250
37948W        W 4357   4.286  19.940  12.527
37949W        W 4358  32.729  21.142   1.820
37950W        W 4359  39.594  25.185   0.859
37951W        W 4360  14.244  40.919  10.535
37952W        W 4361  29.682  32.961  13.321
37953W        W 4362  24.275  44.562  11.462
37954W        W 4363  22.908  35.096  13.432
37955W        W 4364  31.529  35.638   2.793
37956W        W 4365  34.600  23.696  11.243
37957W        W 4366  33.944  24.204   1.018
37958W        W 4367  23.949   5.179   3.222
37959W        W 4368  40.755  15.909   1.237
37960W        W 4369  13.598  14.573   2.325
37961W        W 4370   8.318  25.190   3.260
37962W        W 4371  27.627  43.912   1.291
37963W        W 4372  40.694  43.750  14.019
37964W        W 4373  18.207   4.525  10.507
37965W        W 4374  41.587  31.523  11.553
37966W        W 4375  44.817  41.027  11.618
37967W        W 4376  17.831  16.307   0.935
37968W        W 4377  27.300   8.472  12.926
37969W        W 4378  38.818  16.880   3.282
37970W        W 4379  10.723   1.263  12.058
37971W        W 4380  10.328  41.882   2.238
37972W        W 4381  34.936  11.202  10.637
37973W        W 4382  31.044   6.052  11.469
37974W        W 4383  29.349  20.750  12.588
37975W        W 4384  34.081   2.539   2.292
37976W        W 4385  24.405  33.929   3.710
37977W        W 4386  13.219  37.170   4.194
37978W        W 4387  35.198   9.709   0.319
37979W        W 4388  18.306   4.947   2.696
37980W        W 4389  31.270  27.254  14.472
37981W        W 4390  43.822  39.486   0.716
37982W        W 4391  28.087  21.502   1.884
37983W        W 4392   8.889  24.565   1.702
37984W        W 4393  29.045  27.512   4.640
37985W        W 4394   5.730  44.726  11.154
37986W        W 4395  19.822  29.709   0.439
37987W        W 4396  43.896  33.409  13.961
37988W        W 4397   0.038  21.736  11.611
37989W        W 4398  16.305  38.003  13.116
37990W        W 4399  39.753  38.698   0.999
37991W        W 4400  23.538  30.897  14.831
37992W        W 4401  10.361  25.603  14.013
37993W        W 4402   0.136  10.849   3.722
37994W        W 4403  34.033  24.103  14.300
37995W        W 4404   7.627  29.772  11.648
37996W        W 4405   1.653  27.606   4.776
37997W        W 4406  16.483   4.897  14.907
37998W        W 4407  19.747  11.404   3.812
37999W        W 4408  42.851  42.400   4.037
38000W        W 4409  15.086  15.320  11.026
38001W        W 4410  40.759  24.743   1.265
38002W        W 4411  31.864  37.129  14.415
38003W        W 4412   9.867  18.238   0.298
38004W        W 4413  39.159  39.020  10.715
38005W        W 4414   1.362  37.527   4.512
38006W        W 4415  11.086  42.474  11.981
38007W        W 4416  31.318  27.583   2.371
38008W        W 4417  22.613  28.213  13.267
38009W        W 4418  26.805  39.061   2.268
38010W        W 4419  44.444  10.888  12.091
38011W        W 4420  20.032   2.897   1.881
38012W        W 4421  26.402  27.696   2.156
38013W        W 4422   1.315   1.510  12.285
38014W        W 4423  14.303   3.735  13.495
38015W        W 4424  17.125  27.522   1.804
38016W        W 4425  42.514  16.782  12.982
38017W        W 4426  14.467  16.101  12.347
38018W        W 4427  38.165  16.753  14.169
38019W        W 4428  33.621  17.463  11.532
38020W        W 4429  27.393   1.373   4.455
38021W        W 4430  36.494  20.628  11.984
38022W        W 4431  15.592  16.094  10.268
38023W        W 4432  36.888  35.681   2.294
38024W        W 4433  26.983  15.518  11.174
38025W        W 4434   9.932  14.760   1.483
38026W        W 4435   1.593   1.559   0.922
38027W        W 4436   2.173   7.503  11.612
38028W        W 4437  27.292  44.353   3.330
38029W        W 4438  17.088  28.682   0.227
38030W        W 4439  23.201  29.969   1.462
38031W        W 4440  16.985  28.876  13.766
38032W        W 4441  31.362  18.244  14.922
38033W        W 4442  29.382  42.668  10.734
38034W        W 4443   5.408  44.291   2.392
38035W        W 4444   6.465   1.895   2.722
38036W        W 4445  31.828  43.975   0.300
38037W        W 4446   2.960   8.184  14.029
38038W        W 4447  33.880  34.969  11.194
38039W        W 4448  28.644  36.919  11.392
38040W        W 4449  43.416  43.647   1.985
38041W        W 4450  22.703  28.710  13.089
38042W        W 4451  13.672  31.581   2.742
38043W        W 4452  38.777  36.475  12.585
38044W        W 4453  40.956  32.089  12.930
38045W        W 4454   6.681  42.689   0.294
38046W        W 4455  28.491  26.983   1.770
38047W        W 4456  35.511   1.749  11.098
38048W        W 4457  32.370   0.283   4.135
38049W        W 4458  20.209   0.469  13.794
38050W        W 4459  17.059  39.031  14.463
38051W        W 4460  27.530  15.838  14.431
38052W        W 4461  32.891  16.772  11.489
38053W        W 4462  38.603   2.435   4.046
38054W        W 4463  16.681   0.513   3.420
38055W        W 4464  39.321   9.952   3.830
38056W        W 4465  34.125  20.248   4.736
38057W        W 4466   7.089   1.480  12.436
38058W        W 4467  28.569   2.575  12.878
38059W        W 4468  26.736   0.829   3.796
38060W        W 4469   7.260  40.475   3.057
38061W        W 4470   4.852  41.033   0.377
38062W        W 4471   2.198  19.146  11.472
38063W        W 4472  34.146  29.834   1.362
38064W        W 4473  31.614   7.104  11.379
38065W        W 4474  16.292   3.809  13.818
38066W        W 4475  28.728  19.195   1.527
38067W        W 4476  42.351  32.628  13.139
38068W        W 4477  14.628  30.047   4.175
38069W        W 4478  37.490  20.162  12.793
38070W        W 4479  31.007  39.052   4.465
38071W        W 4480  32.637  30.398   2.382
38072W        W 4481  34.560  41.417   4.448
38073W        W 4482  34.440   5.706  12.371
38074W        W 4483  22.261   6.770   3.323
38075W        W 4484  31.080  17.727  14.917
38076W        W 4485  27.131  41.797   4.647
38077W        W 4486  20.007  19.294  11.506
38078W        W 4487  21.714  30.143  11.640
38079W        W 4488  23.825  36.435  11.872
38080W        W 4489  27.958  11.842   0.486
38081W        W 4490  30.526  25.259   4.689
38082W        W 4491  22.492  31.407   4.326
38083W        W 4492  16.233  32.686   0.247
38084W        W 4493   6.620  12.671   1.387
38085W        W 4494  28.990   7.831  11.145
38086W        W 4495  11.328  32.165   2.409
38087W        W 4496  17.020   0.621   1.712
38088W        W 4497  19.646  18.725   2.591
38089W        W 4498  35.549  32.828  11.987
38090W        W 4499  29.539   7.357   2.862
38091W        W 4500  39.815  26.170   3.258
38092W        W 4501  43.740   1.018  13.932
38093W        W 4502  21.092  32.153   0.828
38094W        W 4503  23.739  15.179   4.052
38095W        W 4504  39.605  34.935  10.753
38096W        W 4505  41.510  29.127   4.190
38097W        W 4506  36.316  38.577   0.767
38098W        W 4507   6.748  38.366  12.632
38099W        W 4508   9.608   0.476   9.844
38100W        W 4509  19.770  12.302   2.870
38101W        W 4510  37.945  37.332   1.163
38102W        W 4511  23.755   2.482   4.072
38103W        W 4512   7.985  11.214   3.131
38104W        W 4513  39.367   2.792  13.572
38105W        W 4514  38.044  44.856  11.060
38106W        W 4515  40.759  18.666  10.719
38107W        W 4516  36.037  28.979  10.811
38108W        W 4517  19.111  16.053  10.572
38109W        W 4518  18.134  24.515  13.290
38110W        W 4519   8.289  21.615  11.081
38111W        W 4520  22.298  17.719   0.003
38112W        W 4521  43.889  13.417   3.950
38113W        W 4522  12.580   3.496  12.673
38114W        W 4523  29.909   5.427   2.697
38115W        W 4524  32.677  38.031   0.843
38116W        W 4525  41.809  17.207   4.617
38117W        W 4526  25.959  43.060  13.368
38118W        W 4527  37.998  26.373   1.427
38119W        W 4528  31.461  14.671  13.300
38120W        W 4529  26.611  12.447   5.460
38121W        W 4530  22.048  10.399   4.113
38122W        W 4531  14.624  34.898  10.767
38123W        W 4532   1.898  44.419  14.040
38124W        W 4533  13.472   4.303   2.311
38125W        W 4534  27.290   1.652  13.892
38126W        W 4535   8.594  13.072  13.929
38127W        W 4536  24.414   8.642  10.325
38128W        W 4537  10.515  41.374  11.438
38129W        W 4538  31.592  35.399   3.283
38130W        W 4539   5.164  22.683   0.203
38131W        W 4540  12.653  17.725  14.423
38132W        W 4541  22.512   5.419  13.472
38133W        W 4542  12.996  44.807   2.339
38134W        W 4543  30.877  20.354  14.325
38135W        W 4544  10.175  25.118   0.770
38136W        W 4545   7.285  28.825   0.393
38137W        W 4546  24.081   8.883  14.997
38138W        W 4547  41.816   6.592   1.300
38139W        W 4548  28.414   6.967   1.243
38140W        W 4549   9.525  17.058  13.047
38141W        W 4550  13.316  42.601   3.617
38142W        W 4551  28.237  19.283  13.446
38143W        W 4552  33.789  42.842   2.701
38144W        W 4553  21.015  35.497   2.115
38145W        W 4554  22.553   2.736   3.737
38146W        W 4555  13.177  32.013   1.417
38147W        W 4556  40.906  38.065  13.111
38148W        W 4557  15.053  14.335   1.286
38149W        W 4558  22.711  27.679  11.145
38150W        W 4559   2.922  35.265   3.031
38151W        W 4560   5.380  39.198  13.895
38152W        W 4561   2.313  25.080  13.687
38153W        W 4562  41.899  33.266  13.150
38154W        W 4563  17.333  23.663  12.565
38155W        W 4564  23.590  40.821   3.936
38156W        W 4565  32.437   2.658   2.800
38157W        W 4566  38.108  44.447  12.629
38158W        W 4567  22.509  33.450   4.216
38159W        W 4568  22.529  20.329  13.008
38160W        W 4569  32.196  24.231   3.099
38161W        W 4570  41.970  11.868   0.026
38162W        W 4571  35.295  33.898  13.093
38163W        W 4572  24.036   7.959   3.667
38164W        W 4573  36.916  42.419  13.852
38165W        W 4574  44.818  26.041   0.329
38166W        W 4575   2.777  29.509  13.963
38167W        W 4576   8.319   6.876   1.104
38168W        W 4577  40.495  12.523   5.035
38169W        W 4578   5.799  19.172  10.499
38170W        W 4579  12.747  10.640   2.880
38171W        W 4580  18.339   8.898   4.536
38172W        W 4581  12.560  39.349  11.167
38173W        W 4582  27.024  31.364  14.816
38174W        W 4583  23.209   7.258   0.285
38175W        W 4584  31.578  11.807   1.980
38176W        W 4585   9.697   6.688  10.485
38177W        W 4586  42.202  24.238   1.219
38178W        W 4587  33.473  12.791  14.757
38179W        W 4588  24.986   4.175  10.699
38180W        W 4589   7.456   4.777   3.632
38181W        W 4590   5.203  43.050   1.038
38182W        W 4591   0.987  40.488   1.288
38183W        W 4592  10.544  17.522  11.587
38184W        W 4593  37.797   3.487  14.987
38185W        W 4594  23.604  41.450   1.257
38186W        W 4595   2.160  17.807   3.628
38187W        W 4596  11.738  35.832   0.342
38188W        W 4597   7.112  37.128   2.407
38189W        W 4598  20.465  29.617   4.863
38190W        W 4599  32.668  41.600   2.620
38191W        W 4600  42.239   3.326   0.842
38192W        W 4601  29.500  17.360  11.590
38193W        W 4602  14.437  34.397  12.139
38194W        W 4603   1.768  22.176  12.863
38195W        W 4604   1.670  33.758  11.190
38196W        W 4605  37.299   9.395   0.855
38197W        W 4606   6.915   3.488   3.630
38198W        W 4607  41.491   1.787  13.498
38199W        W 4608  15.045  32.143   5.230
38200W        W 4609   9.920  36.895   0.820
38201W        W 4610  15.191  25.323   2.657
38202W        W 4611  17.730  42.954   4.982
38203W        W 4612  28.395  10.028  13.561
38204W        W 4613   4.177  42.336  11.917
38205W        W 4614   0.396  11.850  12.049
38206W        W 4615   8.876  19.617   4.456
38207W        W 4616  41.548   8.802  14.575
38208W        W 4617  12.965  30.717   1.382
38209W        W 4618   6.894  18.591  12.098
38210W        W 4619   6.079  19.245  12.624
38211W        W 4620  28.763  18.767  10.555
38212W        W 4621  17.977  20.159   4.029
38213W        W 4622   6.395  40.646  11.527
38214W        W 4623   3.545  10.766  11.515
38215W        W 4624  37.899   4.636   3.870
38216W        W 4625  19.788  37.378   4.434
38217W        W 4626  13.178  12.906   1.011
38218W        W 4627  22.728   8.091   1.719
38219W        W 4628  40.051  41.629   1.083
38220W        W 4629  13.964  40.197  14.349
38221W        W 4630  42.725  33.127   0.630
38222W        W 4631  17.558  23.802  12.103
38223W        W 4632   8.322   0.451   3.112
38224W        W 4633  44.828  22.649  10.884
38225W        W 4634  32.316  29.134  11.616
38226W        W 4635  42.374  37.019  13.871
38227W        W 4636  28.046  36.948   4.588
38228W        W 4637  44.346  39.349  14.484
38229W        W 4638  37.539  10.856  14.818
38230W        W 4639  11.193  28.460   1.072
38231W        W 4640  21.422  36.845  13.107
38232W        W 4641  28.528  44.290   0.844
38233W        W 4642   6.960   1.732   4.547
38234W        W 4643  43.830   1.940   4.662
38235W        W 4644  42.262   4.337  11.479
38236W        W 4645  39.175  14.751  13.177
38237W        W 4646  43.341  36.906   0.276
38238W        W 4647  23.236  17.338   2.648
38239W        W 4648  34.946  30.385   3.075
38240W        W 4649  29.106   0.522   2.408
38241W        W 4650  18.212  22.624  13.111
38242W        W 4651  36.286  20.915   3.750
38243W        W 4652  39.440  21.968  12.969
38244W        W 4653   2.929  41.170   3.455
38245W        W 4654  31.587  34.656  12.180
38246W        W 4655  14.258  43.527  14.975
38247W        W 4656  33.276  27.206  12.336
38248W        W 4657   0.311  10.656   4.956
38249W        W 4658  14.707  18.994  13.241
38250W        W 4659  35.105   6.500  12.457
38251W        W 4660  30.074   3.021  10.243
38252W        W 4661  24.054  31.940   3.298
38253W        W 4662  15.648  16.223   4.837
38254W        W 4663  15.296   4.893  12.624
38255W        W 4664  36.626  37.488   4.628
38256W        W 4665  22.032  35.115   4.246
38257W        W 4666  29.578  39.886  14.755
38258W        W 4667  25.280  42.634  10.421
38259W        W 4668  22.458   2.354  11.545
38260W        W 4669   3.275  15.819  12.868
38261W        W 4670   8.144  10.755   0.923
38262W        W 4671  27.997  10.128   4.526
38263W        W 4672  17.819  24.006   2.346
38264W        W 4673   1.044   4.893   1.772
38265W        W 4674   7.121  44.062   3.551
38266W        W 4675  12.062   7.154  10.677
38267W        W 4676   4.187  10.173  12.425
38268W        W 4677  15.583  32.892  13.987
38269W        W 4678  44.351  31.852   1.556
38270W        W 4679   7.744  33.087   4.093
38271W        W 4680  31.436  43.483   0.768
38272W        W 4681  37.618   4.011   2.235
38273W        W 4682  32.811  43.800  14.203
38274W        W 4683  37.979  32.111   0.247
38275W        W 4684   1.075  42.958   0.985
38276W        W 4685  23.569  10.294   5.239
38277W        W 4686   5.428  23.591  12.863
38278W        W 4687  11.786  26.718   1.336
38279W        W 4688  20.778  29.122   1.888
38280W        W 4689  32.559  38.543  11.517
38281W        W 4690   6.329  12.545   0.023
38282W        W 4691  15.322  33.416   3.885
38283W        W 4692   9.301  44.889   1.252
38284W        W 4693  38.864  13.359   0.259
38285W        W 4694   6.702  43.259  14.028
38286W        W 4695  30.984  19.797   4.540
38287W        W 4696  35.041  24.158  10.600
38288W        W 4697  37.068   4.658  14.929
38289W        W 4698  19.999  14.267  13.818
38290W        W 4699  25.995  28.530  14.980
38291W        W 4700  23.037  38.092  14.518
38292W        W 4701  24.695  43.049  13.612
38293W        W 4702  44.517  21.647  12.595
38294W        W 4703  33.477  40.448   1.908
38295W        W 4704  21.270  42.761   0.314
38296W        W 4705   7.149  15.551  14.610
38297W        W 4706  16.737  16.245   2.245
38298W        W 4707  29.616   1.262   0.033
38299W        W 4708  13.097  21.788   2.833
38300W        W 4709  28.501  15.124   2.785
38301W        W 4710  17.130  42.044   0.814
38302W        W 4711   3.412  13.957   1.945
38303W        W 4712  27.953  30.025   0.847
38304W        W 4713  11.505  16.860  11.921
38305W        W 4714   6.275  23.471   3.214
38306W        W 4715  32.937   0.057   0.675
38307W        W 4716   7.186   5.203  11.217
38308W        W 4717  37.904   2.243   2.279
38309W        W 4718  12.499   8.007  11.498
38310W        W 4719  10.449  44.670  11.161
38311W        W 4720  12.591  31.428   1.668
38312W        W 4721  23.377  22.103  12.165
38313W        W 4722  12.245  38.666   4.732
38314W        W 4723  25.467  36.293  13.901
38315W        W 4724  21.472  28.116   0.769
38316W        W 4725  28.497  34.632   4.299
38317W        W 4726  35.103  18.674   0.392
38318W        W 4727  38.062  33.225  14.734
38319W        W 4728   1.892  29.127  13.792
38320W        W 4729  31.967  38.519   3.211
38321W        W 4730  39.313   8.338  14.028
38322W        W 4731  11.293  20.615   3.619
38323W        W 4732   5.838  20.986   4.290
38324W        W 4733  43.055  28.287   0.203
38325W        W 4734  32.623  36.713   3.334
38326W        W 4735   9.642  28.868   0.621
38327W        W 4736  44.536   1.252  14.697
38328W        W 4737  33.653  24.480  11.614
38329W        W 4738  41.779  44.051  10.594
38330W        W 4739  11.319  40.339  12.971
38331W        W 4740  22.601  25.558   2.384
38332W        W 4741   9.391  31.271   4.922
38333W        W 4742   5.471  41.529  10.877
38334W        W 4743  37.739  15.680  14.697
38335W        W 4744  17.230  20.364   4.479
38336W        W 4745  32.048  30.942   3.137
38337W        W 4746  37.294   2.253  12.971
38338W        W 4747  14.695  39.806  11.562
38339W        W 4748  22.094  30.631  12.448
38340W        W 4749  15.584  15.628   4.172
38341W        W 4750  44.921  33.465   2.740
38342W        W 4751  22.735  19.637  10.791
38343W        W 4752  43.912  26.077  10.290
38344W        W 4753  11.082   7.760   0.856
38345W        W 4754   3.737  18.316   2.678
38346W        W 4755  20.371   0.340   2.270
38347W        W 4756  39.024  23.077   2.400
38348W        W 4757   2.645  26.202   4.598
38349W        W 4758  12.549  12.603  11.565
38350W        W 4759   1.979   5.748  14.042
38351W        W 4760  15.911  12.113   0.788
38352W        W 4761  25.385  38.118   1.785
38353W        W 4762  18.743  22.232   4.211
38354W        W 4763  13.676  15.659   4.480
38355W        W 4764  27.680  14.023  12.368
38356W        W 4765   6.549  19.095  10.515
38357W        W 4766  12.629   1.380  13.458
38358W        W 4767  11.872  32.193  10.299
38359W        W 4768  39.886  16.395  12.335
38360W        W 4769  33.708  19.991  14.343
38361W        W 4770   8.171   6.945   0.248
38362W        W 4771  35.933  27.982   0.618
38363W        W 4772   6.400  44.366   4.553
38364W        W 4773  23.143   4.831   2.081
38365W        W 4774  39.807  35.412  13.390
38366W        W 4775  30.321   2.561   5.418
38367W        W 4776   7.929   3.209  11.038
38368W        W 4777  31.476  39.893  13.775
38369W        W 4778  19.660   5.535   3.687
38370W        W 4779  40.102   7.744   4.027
38371W        W 4780   5.318  19.994  11.104
38372W        W 4781  18.014  10.652  11.554
38373W        W 4782  43.868  15.586   2.211
38374W        W 4783  28.960  29.600  13.305
38375W        W 4784  16.782   9.115  14.643
38376W        W 4785  12.887   2.941  14.445
38377W        W 4786   0.760  11.069  14.410
38378W        W 4787  23.715  36.916  10.678
38379W        W 4788  24.579  35.343  11.947
38380W        W 4789  26.873  18.093  13.752
38381W        W 4790  10.625  23.228   4.135
38382W        W 4791  35.925  37.561  13.930
38383W        W 4792  28.093  15.128  11.590
38384W        W 4793  24.054  17.633  12.478
38385W        W 4794  19.750   6.984  14.785
38386W        W 4795   8.299   1.779   3.915
38387W        W 4796  17.217  16.224  13.027
38388W        W 4797  32.184  38.542  10.998
38389W        W 4798  41.079  21.516  12.151
38390W        W 4799  21.660   7.554   1.341
38391W        W 4800  25.888  39.410   0.862
38392W        W 4801  24.302  36.166   4.660
38393W        W 4802  32.401  18.033   0.905
38394W        W 4803  37.356  35.120  11.181
38395W        W 4804  30.371   9.707  13.866
38396W        W 4805  27.220   4.780   2.270
38397W        W 4806  15.189  30.211  14.782
38398W        W 4807  24.790  11.196   1.782
38399W        W 4808   5.127  41.670   3.774
38400W        W 4809  44.821  31.095   2.188
38401W        W 4810  35.003  39.938  14.880
38402W        W 4811  27.011  34.981  11.950
38403W        W 4812  35.711  11.156   3.901
38404W        W 4813  16.816   3.415  11.526
38405W        W 4814  28.669  14.792   2.339
38406W        W 4815   5.720  11.448   2.294
38407W        W 4816  21.059  35.986   3.892
38408W        W 4817  37.742  28.771  12.521
38409W        W 4818  39.382   9.216  14.455
38410W        W 4819  31.679  21.124  11.008
38411W        W 4820  10.596   8.698   0.867
38412W        W 4821  26.475  37.619  11.847
38413W        W 4822  26.415  26.200   2.737
38414W        W 4823  35.313  12.204  10.937
38415W        W 4824  30.160  16.305   0.694
38416W        W 4825  17.960   7.870  11.251
38417W        W 4826  28.928  17.209  11.952
38418W        W 4827   3.199  19.981   1.689
38419W        W 4828  20.770  23.131  14.862
38420W        W 4829  30.014  37.203  11.481
38421W        W 4830  15.767  22.048   2.390
38422W        W 4831  31.619  43.489  13.942
38423W        W 4832  35.837  29.435   1.819
38424W        W 4833  19.764  15.826  12.141
38425W        W 4834  44.970  38.635  12.001
38426W        W 4835  35.537  14.363  13.690
38427W        W 4836   9.854  24.506  14.475
38428W        W 4837  43.071  31.965   0.762
38429W        W 4838  42.816  15.289  10.720
38430W        W 4839   6.128  30.892   3.736
38431W        W 4840  16.777  15.886   3.892
38432W        W 4841  44.545  13.412  12.851
38433W        W 4842   3.739  16.508  13.136
38434W        W 4843  43.364  27.510  13.555
38435W        W 4844  35.450  19.817  13.057
38436W        W 4845  21.514  33.487   0.844
38437W        W 4846  43.681  24.747   1.111
38438W        W 4847   3.315  33.879  13.004
38439W        W 4848  11.056  12.291   1.116
38440W        W 4849  21.521  39.625   0.303
38441W        W 4850  10.191  15.476   3.807
38442W        W 4851  21.825  29.101  13.058
38443W        W 4852  31.217   5.009   0.282
38444W        W 4853  33.085   7.834  13.988
38445W        W 4854  42.721  35.143   3.708
38446W        W 4855   3.843  21.053   2.652
38447W        W 4856  30.053  39.068  11.196
38448W        W 4857  44.052   8.207   3.674
38449W        W 4858  10.335  40.419  14.776
38450W        W 4859  17.678   9.293  11.599
38451W        W 4860   2.037   4.907  11.703
38452W        W 4861  36.898   3.919  12.919
38453W        W 4862   1.717  22.285   0.772
38454W        W 4863  40.025  11.134  11.130
38455W        W 4864  40.563  36.470  10.705
38456W        W 4865  13.977  32.559  12.738
38457W        W 4866  25.107  31.321  13.935
38458W        W 4867  43.931  11.420   1.837
38459W        W 4868  32.549  25.011  10.670
38460W        W 4869  16.788   3.156   3.974
38461W        W 4870  19.111  40.095   4.916
38462W        W 4871  41.012   1.798  14.010
38463W        W 4872  20.056   4.312  10.653
38464W        W 4873  16.598  14.743  11.466
38465W        W 4874  42.875  28.036   4.197
38466W        W 4875  35.472   1.320  12.347
38467W        W 4876  28.846  26.514   4.196
38468W        W 4877  35.166  41.516  14.027
38469W        W 4878   4.286   4.033   4.781
38470W        W 4879  13.883   6.650   2.990
38471W        W 4880   8.675  30.540   0.448
38472W        W 4881  10.713  27.959   4.115
38473W        W 4882  25.035  31.601   2.820
38474W        W 4883  27.128  10.177  12.202
38475W        W 4884  17.503   6.191  10.971
38476W        W 4885  39.411  39.653   2.469
38477W        W 4886  22.441   2.058   2.726
38478W        W 4887  12.097  12.755  13.338
38479W        W 4888  30.011  32.951  14.162
38480W        W 4889  36.523  32.584  11.347
38481W        W 4890  13.017   9.608  11.655
38482W        W 4891  33.599  34.142  12.945
38483W        W 4892   2.266  18.275   2.760
38484W        W 4893   5.972  24.495  14.509
38485W        W 4894   8.882   1.330   2.171
38486W        W 4895  34.623  10.741  11.552
38487W        W 4896  16.875   1.943   4.758
38488W        W 4897  23.502  10.493   2.789
38489W        W 4898  14.716  33.893   2.356
38490W        W 4899  30.451   0.409   3.179
38491W        W 4900  29.382  34.079  11.882
38492W        W 4901  23.220  13.629   3.276
38493W        W 4902  28.213   2.273   4.051
38494W        W 4903   0.395  28.873   2.324
38495W        W 4904  37.066  43.518   2.872
38496W        W 4905  16.238  35.921  14.372
38497W        W 4906   6.881  40.565   0.425
38498W        W 4907  34.773  17.618   3.262
38499W        W 4908   5.071  26.670  11.844
38500W        W 4909  25.484   5.846   0.841
38501W        W 4910  27.519  36.695  11.977
38502W        W 4911  21.114  22.096   3.779
38503W        W 4912  44.180  44.527   3.131
38504W        W 4913  43.643  12.943   3.284
38505W        W 4914  32.455  10.804   3.259
38506W        W 4915  16.401  41.252  14.206
38507W        W 4916  36.674  32.989   1.098
38508W        W 4917  24.483  20.327  12.106
38509W        W 4918  10.129  17.879   4.585
38510W        W 4919  13.854  36.591  14.858
38511W        W 4920   1.907   0.773  14.320
38512W        W 4921  36.381  28.932  14.954
38513W        W 4922   0.315  16.887   0.808
38514W        W 4923  42.626  20.340  10.678
38515W        W 4924  37.337  30.087   1.279
38516W        W 4925  42.896  41.701   0.944
38517W        W 4926  34.623  11.972   0.176
38518W        W 4927  20.930  16.794   1.542
38519W        W 4928  27.604  24.605  14.336
38520W        W 4929  25.004  19.298  10.911
38521W        W 4930  33.860  10.191  10.365
38522W        W 4931  11.260  19.854   2.640
38523W        W 4932  29.260   9.143   3.885
38524W        W 4933  19.325  42.101   4.587
38525W        W 4934   8.768  12.851   1.952
38526W        W 4935  43.501   3.432  12.024
38527W        W 4936  11.637  23.605  10.581
38528W        W 4937  29.868   6.074  13.221
38529W        W 4938  16.288   4.444   3.677
38530W        W 4939   4.754  35.444   1.759
38531W        W 4940  10.837  38.486  13.602
38532W        W 4941  14.780  14.130   3.358
38533W        W 4942  41.504  12.350  14.516
38534W        W 4943   6.762  39.507  14.704
38535W        W 4944  18.068   4.897   2.231
38536W        W 4945   2.791  16.140  11.534
38537W        W 4946  32.279  39.220   0.681
38538W        W 4947  21.760  25.965   4.503
38539W        W 4948   6.128  10.102  14.835
38540W        W 4949   7.927  10.395  13.844
38541W        W 4950  25.061  26.893  13.016
38542W        W 4951  17.644  31.447   2.697
38543W        W 4952  15.662   6.277  11.783
38544W        W 4953  14.244  26.485  12.330
38545W        W 4954  43.433  35.448  14.300
38546W        W 4955  21.132  25.940   0.505
38547W        W 4956  35.975  42.519  12.947
38548W        W 4957  31.064  22.993  13.780
38549W        W 4958  40.545  28.602   0.146
38550W        W 4959  41.360  23.212  14.617
38551W        W 4960   9.582  40.786  14.998
38552W        W 4961  25.293  15.137   0.498
38553W        W 4962  27.181  40.507   2.279
38554W        W 4963   2.852  18.774   1.314
38555W        W 4964  42.187   5.208  12.327
38556W        W 4965  17.291  13.652  14.399
38557W        W 4966  23.782   0.203   0.281
38558W        W 4967  15.555   1.294  12.378
38559W        W 4968  35.414  16.520   0.003
38560W        W 4969   0.413  16.855   4.411
38561W        W 4970  44.740  19.929  13.293
38562W        W 4971  43.332  15.678   2.869
38563W        W 4972   4.240   4.812   0.315
38564W        W 4973   0.939   4.416   4.109
38565W        W 4974  27.963  12.593   0.994
38566W        W 4975   0.491  16.674  12.074
38567W        W 4976  32.905  36.845  13.356
38568W        W 4977  10.353  35.950  14.503
38569W        W 4978  43.362   9.607  13.796
38570W        W 4979   4.766  35.124  10.708
38571W        W 4980  38.631   7.167   3.416
38572W        W 4981  36.854  43.543   0.320
38573W        W 4982  14.421  25.328   2.217
38574W        W 4983  26.023   6.072  11.048
38575W        W 4984  24.986  36.817   2.833
38576W        W 4985  17.464  39.286  13.016
38577W        W 4986  19.577   5.161   2.315
38578W        W 4987  31.671   3.351   2.717
38579W        W 4988  21.580  12.159   0.031
38580W        W 4989  14.010   9.824  14.707
38581W        W 4990  40.039  44.792   1.019
38582W        W 4991  36.552   6.221  11.456
38583W        W 4992  13.845   5.447  14.476
38584W        W 4993   0.276   9.349   0.499
38585W        W 4994  35.831   8.963  14.049
38586W        W 4995   8.121  38.565  12.413
38587W        W 4996  35.640  41.014   0.477
38588W        W 4997  21.994   1.902  14.326
38589W        W 4998  43.066   8.795   0.844
38590W        W 4999  26.463  20.806   3.743
38591W        W 5000  33.393  41.513  14.950
38592W        W 5001  11.879   8.788  13.062
38593W        W 5002   0.251   0.827   4.501
38594W        W 5003   4.231   8.732  13.646
38595W        W 5004  32.355   7.879   4.047
38596W        W 5005  39.263  17.258  13.507
38597W        W 5006   7.682  17.851   1.844
38598W        W 5007   6.025   4.341   0.565
38599W        W 5008   0.078  23.286   1.442
38600W        W 5009  40.380  31.638   0.521
38601W        W 5010  35.052   8.952  13.021
38602W        W 5011   1.052   5.421   3.161
38603W        W 5012  25.220  21.270   4.072
38604W        W 5013   1.795  33.383   4.570
38605W        W 5014  42.741  29.547   1.200
38606W        W 5015  28.570   9.669  14.420
38607W        W 5016  28.945   1.206  12.050
38608W        W 5017  12.695  30.429  10.964
38609W        W 5018  26.019  27.224  12.906
38610W        W 5019  20.978  20.732   1.831
38611W        W 5020  40.871   0.521  12.811
38612W        W 5021  25.173   3.249  12.831
38613W        W 5022  16.163  27.572  14.511
38614W        W 5023  15.262  32.469  14.463
38615W        W 5024   9.240  13.520   1.407
38616W        W 5025  18.111   4.918  13.505
38617W        W 5026  19.913   1.965   3.433
38618W        W 5027  18.119  18.355  13.676
38619W        W 5028  38.755   4.087  10.784
38620W        W 5029  38.597  13.787   1.494
38621W        W 5030  19.359  35.321  10.773
38622W        W 5031  13.695  34.969  14.323
38623W        W 5032   5.878  28.271   9.874
38624W        W 5033  22.643   6.433  11.136
38625W        W 5034  13.053  11.096   1.936
38626W        W 5035  30.648  35.152  10.737
38627W        W 5036  11.683  15.745  12.770
38628W        W 5037  12.338  42.518  12.351
38629W        W 5038  14.722  23.960  11.132
38630W        W 5039  43.118  31.387  11.534
38631W        W 5040  36.927  17.079  11.661
38632W        W 5041  14.577  27.582  14.368
38633W        W 5042  25.100  19.483   0.432
38634W        W 5043  23.651  42.333  11.046
38635W        W 5044  10.289  30.468  12.586
38636W        W 5045  38.248  11.153   3.712
38637W        W 5046  19.837  31.514   0.714
38638W        W 5047   6.302  43.236   4.458
38639W        W 5048  41.376  42.255   2.258
38640W        W 5049   2.800   9.804   2.856
38641W        W 5050   4.587  44.340  14.921
38642W        W 5051  38.764  32.152   2.782
38643W        W 5052   5.837  18.911   2.294
38644W        W 5053  32.491  13.426  10.892
38645W        W 5054  26.864  38.739   4.977
38646W        W 5055   0.405  41.792  10.678
38647W        W 5056   4.709  39.822  12.882
38648W        W 5057  28.019  20.370  10.663
38649W        W 5058  16.029  20.279  14.399
38650W        W 5059  13.115  30.446   2.909
38651W        W 5060  21.118   7.263   2.625
38652W        W 5061  34.552   3.083   1.192
38653W        W 5062  11.318  37.094  11.714
38654W        W 5063   6.933   3.930   3.893
38655W        W 5064  31.167   7.351   0.267
38656W        W 5065  11.534  29.687  11.365
38657W        W 5066  43.124  31.467   0.715
38658W        W 5067   4.388  24.189   1.811
38659W        W 5068  36.248  43.724  13.885
38660W        W 5069  12.141  30.625   4.279
38661W        W 5070  26.680  31.664   0.073
38662W        W 5071   9.876  19.544  10.791
38663W        W 5072  31.610   5.359   4.252
38664W        W 5073  21.700  13.124  10.589
38665W        W 5074  14.200  35.830   0.209
38666W        W 5075  38.540  44.238  10.630
38667W        W 5076   8.402  38.994   4.189
38668W        W 5077  21.297   9.663  11.140
38669W        W 5078   3.918  10.743   3.142
38670W        W 5079  16.659  12.601   2.378
38671W        W 5080  26.925  43.886  13.431
38672W        W 5081  10.086  21.869   4.466
38673W        W 5082  10.280  37.584  13.760
38674W        W 5083  23.992  15.199  14.800
38675W        W 5084  11.364  32.176  13.788
38676W        W 5085  15.727  43.280  13.879
38677W        W 5086  26.781   9.858   3.281
38678W        W 5087  20.373  33.953   3.365
38679W        W 5088   6.024   0.474   3.211
38680W        W 5089  12.273  19.212  13.974
38681W        W 5090  13.385  10.682   4.334
38682W        W 5091  18.706   7.687  14.797
38683W        W 5092  39.985  20.606   1.924
38684W        W 5093  20.178  23.537  14.423
38685W        W 5094  12.278   5.159  11.657
38686W        W 5095  12.622  21.161   0.509
38687W        W 5096  12.037   6.513  12.579
38688W        W 5097  16.539  27.564  11.915
38689W        W 5098  35.892  22.589   3.579
38690W        W 5099   8.035  41.597   2.229
38691W        W 5100  11.055  36.350   2.519
38692W        W 5101   2.025  22.522   2.430
38693W        W 5102  39.248  15.461   0.006
38694W        W 5103  14.509  21.802  14.366
38695W        W 5104   8.340  13.630   2.794
38696W        W 5105  42.281  27.969   1.799
38697W        W 5106  31.775   1.819   0.507
38698W        W 5107  35.827   0.468  13.570
38699W        W 5108  16.656   5.105   0.357
38700W        W 5109  13.599  27.659   0.847
38701W        W 5110   3.878   3.213  13.640
38702W        W 5111  31.934   2.413  12.050
38703W        W 5112  16.776   3.856  14.080
38704W        W 5113  11.324  27.669  12.625
38705W        W 5114  42.099   1.950  11.634
38706W        W 5115  33.636  36.834  14.044
38707W        W 5116  18.236  10.754   1.882
38708W        W 5117  19.233  13.586   4.441
38709W        W 5118  28.240  35.032  14.894
38710W        W 5119  12.283   2.893  13.028
38711W        W 5120  31.895  23.307  13.523
38712W        W 5121   0.679  14.698  12.683
38713W        W 5122  18.966  31.101   2.753
38714W        W 5123  29.268  12.867  10.620
38715W        W 5124  22.934   2.982  13.914
38716W        W 5125  12.875   4.322   1.360
38717W        W 5126  38.478  17.603  14.583
38718W        W 5127  31.486   5.751  14.945
38719W        W 5128  25.717  12.929   3.613
38720W        W 5129   3.679   2.761  11.390
38721W        W 5130  26.472  11.222   0.425
38722W        W 5131  30.839   7.954  10.055
38723W        W 5132  29.388  36.963  12.940
38724W        W 5133  37.960  42.210  11.676
38725W        W 5134  31.287  35.153   2.756
38726W        W 5135   2.368   1.469  11.685
38727W        W 5136  32.127  32.866   4.249
38728W        W 5137   7.421  14.076  11.928
38729W        W 5138  44.303   2.379   1.862
38730W        W 5139   6.898  10.398  12.449
38731W        W 5140   5.521  11.831  14.905
38732W        W 5141  11.649  18.081   0.773
38733W        W 5142  33.964  12.050   3.181
38734W        W 5143  25.469   7.818   5.102
38735W        W 5144  39.849   8.768   2.404
38736W        W 5145  17.254  40.068   0.508
38737W        W 5146  18.693  14.793   4.764
38738W        W 5147   4.249   3.217   2.981
38739W        W 5148  10.411  29.495  14.127
38740W        W 5149  44.872  30.423  13.954
38741W        W 5150   8.101   7.404  13.502
38742W        W 5151  12.228   0.411   2.322
38743W        W 5152  32.065   9.972   4.657
38744W        W 5153  17.216  36.809  14.099
38745W        W 5154  44.854  33.452   2.219
38746W        W 5155  39.134   9.093  11.685
38747W        W 5156   0.895  27.524   1.249
38748W        W 5157   4.536  31.155  13.152
38749W        W 5158  33.677  26.319   1.874
38750W        W 5159  43.450  14.075  12.050
38751W        W 5160  44.948  13.632   4.294
38752W        W 5161  19.631  11.420  12.166
38753W        W 5162  18.547  19.636  14.972
38754W        W 5163  25.418  35.025   0.775
38755W        W 5164  10.634  23.634  10.677
38756W        W 5165  22.762  16.692   2.349
38757W        W 5166  25.319  15.330  12.169
38758W        W 5167  40.850  10.191  10.594
38759W        W 5168  39.863  30.393   0.444
38760W        W 5169  40.471  31.185  11.151
38761W        W 5170  21.308  43.065  13.027
38762W        W 5171  28.092  20.513   0.771
38763W        W 5172  29.105   2.758  12.060
38764W        W 5173  36.719   4.908  11.045
38765W        W 5174  21.062  14.220  12.306
38766W        W 5175  23.574   3.537  11.236
38767W        W 5176  12.761  32.899  12.582
38768W        W 5177  44.007  42.346  14.385
38769W        W 5178  10.222  44.460  14.774
38770W        W 5179  16.290  31.207  12.464
38771W        W 5180  44.478  40.371   2.336
38772W        W 5181  25.557   7.712  13.126
38773W        W 5182  42.000  28.229   3.681
38774W        W 5183  36.757  26.448   2.677
38775W        W 5184  23.493  34.555   1.970
38776W        W 5185  41.671  21.659   2.587
38777W        W 5186  18.210  16.697   3.674
38778W        W 5187  27.435  26.864   3.074
38779W        W 5188   2.404   3.490   0.038
38780W        W 5189  13.408   9.806   4.939
38781W        W 5190   5.753   2.230  12.167
38782W        W 5191  33.442  12.591  12.927
38783W        W 5192   7.325  43.159   1.660
38784W        W 5193  22.481  22.232   4.740
38785W        W 5194  24.485  14.700  12.056
38786W        W 5195  17.063  26.591   1.847
38787W        W 5196  20.195   9.767   1.467
38788W        W 5197  24.621  40.264   0.507
38789W        W 5198  11.441  36.021   1.187
38790W        W 5199  28.683  39.034  13.545
38791W        W 5200  26.425  40.879   4.384
38792W        W 5201  44.156  12.767   3.366
38793W        W 5202  11.658   1.615  11.177
38794W        W 5203  37.500  13.842   0.945
38795W        W 5204   6.644  34.552   2.665
38796W        W 5205  13.293  34.656   4.571
38797W        W 5206  11.147  30.832   0.039
38798W        W 5207  19.509  41.285  12.527
38799W        W 5208   8.194  20.558   2.944
38800W        W 5209  36.002   3.912   1.107
38801W        W 5210  35.663  16.458   3.138
38802W        W 5211  15.594  41.431   3.398
38803W        W 5212  32.399   3.982  13.417
38804W        W 5213  20.643  22.046  12.617
38805W        W 5214   6.669   4.756   2.346
38806W        W 5215  28.657  11.533  13.557
38807W        W 5216  18.261   0.851  14.403
38808W        W 5217   5.955  38.146  14.006
38809W        W 5218   1.273  18.105  13.351
38810W        W 5219  16.532  30.661  11.043
38811W        W 5220  23.416  26.623  14.956
38812W        W 5221   7.500  35.611   0.641
38813W        W 5222   1.592  38.856  11.268
38814W        W 5223   3.006  28.408   1.937
38815W        W 5224  25.739  26.283  13.542
38816W        W 5225   7.183   9.883  10.627
38817W        W 5226  34.661  26.614  14.542
38818W        W 5227  28.702  22.980  12.705
38819W        W 5228   3.827  14.512   4.692
38820W        W 5229  15.048   0.170   0.415
38821W        W 5230  38.997  18.293   3.787
38822W        W 5231  20.559  32.064  14.747
38823W        W 5232  39.894   9.208  14.826
38824W        W 5233   0.454  37.996   0.890
38825W        W 5234  19.819  42.711  11.174
38826W        W 5235  12.796  23.049  10.498
38827W        W 5236  36.920  40.982   1.532
38828W        W 5237  22.611   5.186   0.718
38829W        W 5238  44.410  29.700  10.657
38830W        W 5239  40.880  34.297   4.811
38831W        W 5240   4.008  15.060   0.932
38832W        W 5241  18.054  39.284   0.431
38833W        W 5242   0.000  25.206  13.546
38834W        W 5243  14.058  30.815  12.010
38835W        W 5244  44.494  38.404  12.927
38836W        W 5245  33.823  20.752  12.166
38837W        W 5246  10.403  37.043  10.306
38838W        W 5247  42.324  27.009  14.358
38839W        W 5248  38.872  16.964  13.336
38840W        W 5249  23.583  15.326  14.474
38841W        W 5250  22.428  34.300  12.647
38842W        W 5251  37.914  29.262   4.280
38843W        W 5252  40.762   9.311  11.021
38844W        W 5253   0.026   8.352  12.528
38845W        W 5254  31.474  41.312  12.991
38846W        W 5255  10.699  12.325   1.491
38847W        W 5256  24.190   9.903   0.468
38848W        W 5257  13.382  20.716   2.444
38849W        W 5258  44.179  37.933  12.040
38850W        W 5259   7.565  27.637  10.249
38851W        W 5260  10.180  31.339  10.618
38852W        W 5261  25.779  19.654  11.981
38853W        W 5262  25.074  25.763   0.890
38854W        W 5263   4.404  31.150   3.243
38855W        W 5264  32.482  38.520   1.203
38856W        W 5265  22.511   0.891  11.603
38857W        W 5266  23.510  20.557  11.714
38858W        W 5267  44.014   6.948  11.980
38859W        W 5268  33.671  44.282  11.960
38860W        W 5269  17.651   6.200   3.886
38861W        W 5270  14.841  11.885  14.132
38862W        W 5271   4.901   5.371   1.363
38863W        W 5272  42.086  31.944  14.923
38864W        W 5273  36.051  30.716   2.638
38865W        W 5274  18.125  24.397   3.162
38866W        W 5275  23.945   2.915  14.099
38867W        W 5276  30.543  42.555   4.595
38868W        W 5277  10.224  23.471   1.486
38869W        W 5278  32.371  41.073  14.894
38870W        W 5279  29.334   4.278  14.005
38871W        W 5280  26.593  40.481   5.118
38872W        W 5281  37.263  12.136   0.353
38873W        W 5282  23.259  15.362   4.133
38874W        W 5283  34.398  38.934   4.174
38875W        W 5284  26.366  43.790  13.574
38876W        W 5285  11.536  36.036   2.638
38877W        W 5286   8.337  41.588   4.508
38878W        W 5287  16.580  36.962  11.917
38879W        W 5288   5.999  11.694   3.142
38880W        W 5289  20.805  30.087  12.559
38881W        W 5290   0.002   9.268   2.522
38882W        W 5291  40.752  16.671  12.523
38883W        W 5292  14.261  19.454   4.754
38884W        W 5293   8.282  41.663   2.686
38885W        W 5294  35.096  33.102  12.669
38886W        W 5295  40.548   3.764   0.378
38887W        W 5296  43.366  27.842   4.286
38888W        W 5297  39.181  21.449   9.681
38889W        W 5298  22.808  24.688  10.606
38890W        W 5299  43.667   6.892  14.942
38891W        W 5300  24.154   4.172  11.179
38892W        W 5301  35.171   1.674   1.541
38893W        W 5302  40.460  33.904  11.500
38894W        W 5303  20.773  16.150   1.362
38895W        W 5304  23.275  24.003  10.702
38896W        W 5305  38.243  10.928  11.060
38897W        W 5306  15.298   9.750  14.418
38898W        W 5307  22.146  15.172   3.138
38899W        W 5308  20.590  35.105  11.010
38900W        W 5309  25.141  31.171  11.588
38901W        W 5310  26.472  24.939   0.051
38902W        W 5311   1.267  17.693  13.013
38903W        W 5312   2.467   5.306  14.296
38904W        W 5313   5.781  23.471   3.035
38905W        W 5314  27.536  18.669   3.091
38906W        W 5315  26.333  13.712   1.277
38907W        W 5316  14.049  43.473   3.218
38908W        W 5317  17.532   2.144  12.144
38909W        W 5318   7.938   7.555  11.203
38910W        W 5319  32.603  42.708   3.118
38911W        W 5320  28.570   2.461  14.239
38912W        W 5321  36.373  19.792  10.719
38913W        W 5322   6.699  26.885   4.167
38914W        W 5323  35.476   1.878   3.873
38915W        W 5324  26.379   3.599  12.660
38916W        W 5325  24.026  44.094  11.590
38917W        W 5326  27.442  26.152   0.319
38918W        W 5327   6.404  37.582  10.818
38919W        W 5328   0.448  16.828   3.618
38920W        W 5329   8.278  38.268  11.143
38921W        W 5330  10.834   0.736   3.144
38922W        W 5331  18.796   2.426   1.534
38923W        W 5332  29.545  30.146   4.239
38924W        W 5333   2.949  44.161   1.008
38925W        W 5334  19.536   7.477  14.872
38926W        W 5335  34.954  23.761   2.590
38927W        W 5336   5.336   4.239   3.275
38928W        W 5337  35.835  16.341   0.769
38929W        W 5338   0.390  44.408  12.760
38930W        W 5339   2.803  13.201  11.517
38931W        W 5340  21.235  24.937  11.597
38932W        W 5341  18.212   3.034   1.254
38933W        W 5342  36.036  18.616   2.453
38934W        W 5343  33.105  35.552   3.668
38935W        W 5344  21.750   6.895  13.285
38936W        W 5345  34.036  14.710  11.756
38937W        W 5346  28.980  18.089  13.905
38938W        W 5347  37.533  43.787   0.779
38939W        W 5348   6.976  22.764   4.737
38940W        W 5349  16.709   1.351  12.964
38941W        W 5350   5.298   5.379   2.738
38942W        W 5351  12.452  23.366  10.289
38943W        W 5352  10.099  33.884  12.545
38944W        W 5353  39.492  35.096  12.603
38945W        W 5354  23.504  19.509  13.894
38946W        W 5355  38.543  38.118   0.794
38947W        W 5356  16.887  20.763   3.703
38948W        W 5357  42.926   8.186   5.387
38949W        W 5358  12.165  37.592   9.714
38950W        W 5359  38.366  22.545   2.865
38951W        W 5360  11.897  29.699   3.206
38952W        W 5361  29.892  43.515   2.271
38953W        W 5362   9.262  16.106   0.074
38954W        W 5363  19.235  22.560   0.082
38955W        W 5364  17.622   5.202  10.396
38956W        W 5365  35.913  23.291  13.362
38957W        W 5366  31.698  42.552   2.730
38958W        W 5367  42.791  13.670  14.296
38959W        W 5368   2.707  32.234  11.584
38960W        W 5369   5.476   9.170   4.176
38961W        W 5370  24.227  33.597  14.276
38962W        W 5371  24.309   4.258  11.778
38963W        W 5372  32.524  32.626   2.629
38964W        W 5373  14.868   4.913   0.399
38965W        W 5374  37.268  11.542   4.132
38966W        W 5375  31.044  32.894   2.741
38967W        W 5376  16.166  10.406  11.573
38968W        W 5377  44.167  30.451   0.852
38969W        W 5378  20.720  15.195   1.477
38970W        W 5379  28.961  43.331   1.713
38971W        W 5380  41.481  18.119   3.517
38972W        W 5381  42.543  35.695   3.320
38973W        W 5382   2.391  15.261  12.137
38974W        W 5383   7.821  42.956   1.785
38975W        W 5384  14.351  44.030  10.357
38976W        W 5385   8.645  19.758   1.543
38977W        W 5386  10.934   1.422  14.800
38978W        W 5387  23.116   6.625  10.963
38979W        W 5388  37.907  26.021   3.004
38980W        W 5389  13.767  14.812   1.885
38981W        W 5390  36.280  24.630   2.048
38982W        W 5391  16.615  35.274  12.672
38983W        W 5392  29.226   1.415   4.710
38984W        W 5393  43.877  19.861  14.727
38985W        W 5394   2.730   5.219  13.870
38986W        W 5395  42.557  36.501   3.905
38987W        W 5396   5.394   0.350  14.539
38988W        W 5397  11.831  18.624  13.261
38989W        W 5398  25.111   9.178   3.996
38990W        W 5399  37.092  18.544   5.034
38991W        W 5400  33.816  32.643   1.965
38992W        W 5401  39.373  12.986  14.195
38993W        W 5402  11.340  29.977   2.943
38994W        W 5403  18.124  15.824  13.370
38995W        W 5404  38.086   8.353   3.726
38996W        W 5405  11.100  22.245  13.921
38997W        W 5406  12.208  40.694  14.350
38998W        W 5407   5.328   4.172   2.364
38999W        W 5408  31.422  33.540  14.112
39000W        W 5409  37.098  19.093  10.601
39001W        W 5410  24.337  28.525  12.416
39002W        W 5411  42.103  41.468  12.361
39003W        W 5412  37.969   5.831  13.133
39004W        W 5413   1.866  42.857  14.506
39005W        W 5414   0.514   6.584   4.515
39006W        W 5415  13.213  43.662  12.941
39007W        W 5416  17.752  14.501  11.218
39008W        W 5417  35.975   0.424  14.052
39009W        W 5418  10.263  28.009   0.357
39010W        W 5419  32.711  37.326  13.439
39011W        W 5420  24.997  40.835   2.809
39012W        W 5421  13.729  40.287   0.734
39013W        W 5422  42.831  44.562  12.013
39014W        W 5423   7.091  30.464   2.115
39015W        W 5424  12.104  34.804   3.191
39016W        W 5425  30.839  36.912   0.384
39017W        W 5426  14.874  32.038   4.728
39018W        W 5427  35.075  38.237  11.283
39019W        W 5428  10.839  32.907   3.594
39020W        W 5429  34.396  22.567   2.406
39021W        W 5430  33.015  35.527   4.216
39022W        W 5431   3.208  43.491  12.451
39023W        W 5432  36.037  43.271   1.931
39024W        W 5433  26.545  34.130  13.940
39025W        W 5434   3.784  40.988   1.367
39026W        W 5435  43.024  23.657   3.437
39027W        W 5436   0.743   5.904   1.186
39028W        W 5437  43.374  36.020  12.034
39029W        W 5438  12.511  33.943   3.113
39030W        W 5439  34.891  35.622  11.228
39031W        W 5440  16.339  14.628  10.932
39032W        W 5441   9.012   7.282   0.181
39033W        W 5442  32.452  39.339  12.460
39034W        W 5443  41.086  32.297  13.980
39035W        W 5444  10.332  21.855   0.787
39036W        W 5445   8.480  16.303   0.473
39037W        W 5446  33.210  13.683  12.555
39038W        W 5447   6.931  29.840   3.786
39039W        W 5448  11.885   1.066  14.719
39040W        W 5449  17.074  27.733  13.021
39041W        W 5450   4.276  23.703   4.538
39042W        W 5451  17.639  20.788  14.781
39043W        W 5452  43.060  37.965  13.312
39044W        W 5453  16.542  24.487   2.747
39045W        W 5454  39.152  42.299  13.141
39046W        W 5455  17.968   1.988   2.196
39047W        W 5456  44.732   4.293  14.595
39048W        W 5457   2.861  17.328  14.302
39049W        W 5458  28.040  40.762  10.723
39050W        W 5459  26.891   7.697   1.241
39051W        W 5460  26.278  37.080   0.648
39052W        W 5461  21.261   6.708  14.938
39053W        W 5462  11.360  40.357  14.731
39054W        W 5463  16.285  14.125  13.031
39055W        W 5464  27.190  30.072   4.231
39056W        W 5465   1.371  18.006  14.245
39057W        W 5466  19.730  19.280   4.835
39058W        W 5467  10.545  35.111   2.280
39059W        W 5468  21.576   0.173  10.673
39060W        W 5469  22.182  31.999  14.260
39061W        W 5470   6.808  34.858  10.224
39062W        W 5471   1.874  32.700   2.341
39063W        W 5472  36.791   2.017  14.481
39064W        W 5473   1.972  33.990  10.828
39065W        W 5474  42.025  12.343   3.184
39066W        W 5475  42.770  23.177   3.348
39067W        W 5476  33.094  24.611  14.396
39068W        W 5477  17.978   6.234  10.766
39069W        W 5478  38.655  13.259  12.834
39070W        W 5479  40.091  22.652   5.049
39071W        W 5480  25.244  28.010  14.963
39072W        W 5481  34.182  15.684  12.030
39073W        W 5482  25.705  17.881  14.750
39074W        W 5483  37.080  35.358  11.599
39075W        W 5484  18.113  41.909  11.221
39076W        W 5485   2.660  11.135   3.195
39077W        W 5486  29.542   4.737  13.806
39078W        W 5487  37.813  12.477   2.199
39079W        W 5488   0.706   5.778  13.336
39080W        W 5489  35.076   9.781  10.737
39081W        W 5490  15.759   3.099   0.376
39082W        W 5491  19.495  12.931  13.338
39083W        W 5492  14.582  24.012  10.643
39084W        W 5493  22.907  21.529   3.214
39085W        W 5494   4.361  43.374   2.198
39086W        W 5495   7.161  27.819   2.303
39087W        W 5496  33.006   6.367   2.891
39088W        W 5497  10.728  28.930  11.090
39089W        W 5498  13.845   3.254  14.457
39090W        W 5499  21.182  34.322  14.996
39091W        W 5500  25.827  21.325   0.278
39092W        W 5501  25.638  17.080   4.782
39093W        W 5502   0.781  11.331   1.320
39094W        W 5503  27.686  11.948   4.591
39095W        W 5504  43.650  28.099   0.194
39096W        W 5505   2.724  38.414  12.443
39097W        W 5506  42.414  20.541   4.933
39098W        W 5507  18.624   6.880  12.243
39099W        W 5508  33.587  28.484  13.163
39100W        W 5509  39.344  12.190   0.378
39101W        W 5510  30.881   8.774  13.870
39102W        W 5511  24.028  24.949  14.410
39103W        W 5512   9.708  35.857  12.503
39104W        W 5513  24.652  35.513  12.430
39105W        W 5514  35.894   9.796  13.326
39106W        W 5515  34.110  11.611  10.662
39107W        W 5516  20.697  14.635   2.858
39108W        W 5517   6.283   5.999   0.341
39109W        W 5518   6.471  36.889  12.806
39110W        W 5519  33.475  44.291   0.846
39111W        W 5520  23.040   5.087   1.635
39112W        W 5521  18.705  25.973   1.536
39113W        W 5522   4.699  25.970  12.080
39114W        W 5523   5.169  37.908   4.253
39115W        W 5524  43.279  40.438   3.653
39116W        W 5525  30.592  24.725  13.127
39117W        W 5526  11.179  39.156   3.190
39118W        W 5527  16.283  13.361  11.567
39119W        W 5528   9.962  28.961   4.448
39120W        W 5529  36.067  42.635  14.329
39121W        W 5530   7.993  42.462   0.668
39122W        W 5531  36.964   7.234  14.858
39123W        W 5532  35.556  10.226   3.640
39124W        W 5533  16.745  23.904  10.839
39125W        W 5534  43.024  37.454  13.511
39126W        W 5535  14.926  19.699  12.453
39127W        W 5536  10.964  26.538  10.495
39128W        W 5537  13.385  38.974   2.667
39129W        W 5538  20.570  21.257   0.904
39130W        W 5539   9.883  10.324   3.436
39131W        W 5540  41.566   9.800   1.960
39132W        W 5541   7.449   0.291  13.047
39133W        W 5542  21.431  31.536  13.746
39134W        W 5543  14.214  40.839   3.283
39135W        W 5544  22.139   5.961   4.334
39136W        W 5545  11.741  37.208  13.343
39137W        W 5546  12.719  37.618  13.445
39138W        W 5547  17.850  22.659  14.864
39139W        W 5548  29.426  22.151  10.432
39140W        W 5549  44.102  36.597   0.277
39141W        W 5550   9.651  37.954   4.345
39142W        W 5551  12.952   1.926   2.799
39143W        W 5552  31.546  44.323   3.979
39144W        W 5553   5.745  40.489  13.510
39145W        W 5554   8.833  40.308  10.626
39146W        W 5555  30.374   8.737  13.951
39147W        W 5556  42.576  34.398   4.382
39148W        W 5557  37.566  21.083  10.698
39149W        W 5558  25.110  32.423   0.697
39150W        W 5559  32.416  20.992  13.589
39151W        W 5560   3.927   7.889   2.755
39152W        W 5561  37.917   1.739   2.394
39153W        W 5562  41.776   6.066  13.864
39154W        W 5563  40.614  18.306  11.885
39155W        W 5564  40.835  20.458   2.032
39156W        W 5565  40.047   5.281  13.316
39157W        W 5566  34.385  38.027   2.637
39158W        W 5567  26.682  19.572  13.091
39159W        W 5568  21.233   5.226   0.531
39160W        W 5569  24.620  19.200  12.235
39161W        W 5570  12.248   0.231  14.914
39162W        W 5571  13.877  43.614  13.552
39163W        W 5572  35.499  11.292  12.997
39164W        W 5573  42.295   1.692   3.799
39165W        W 5574  34.119  22.898  12.037
39166W        W 5575  25.426  12.185  12.592
39167W        W 5576  21.009   5.912  11.533
39168W        W 5577  22.437  39.609  13.360
39169W        W 5578  25.182  32.912   1.926
39170W        W 5579  26.656  35.464  13.529
39171W        W 5580  31.400  31.687   1.808
39172W        W 5581  15.852  23.717  13.535
39173W        W 5582   0.927  23.994  12.012
39174W        W 5583  12.690   4.439  13.503
39175W        W 5584  31.048  24.413  13.838
39176W        W 5585  40.343  13.833   2.788
39177W        W 5586  40.010  30.148   3.213
39178W        W 5587  13.054  20.686  13.924
39179W        W 5588  16.788  17.852  14.947
39180W        W 5589  12.959   0.335  12.885
39181W        W 5590  35.602   2.511   4.708
39182W        W 5591   9.944  38.544   0.203
39183W        W 5592  39.071   1.998  12.466
39184W        W 5593  31.499  41.270   4.886
39185W        W 5594  25.616  44.534  12.873
39186W        W 5595  44.357  42.065  12.497
39187W        W 5596  19.577  32.358   2.806
39188W        W 5597  27.761  42.734   3.435
39189W        W 5598  17.287  37.154  12.413
39190W        W 5599  12.276  36.977  11.344
39191W        W 5600  22.351  26.892  12.793
39192W        W 5601   7.306  40.250   0.194
39193W        W 5602  32.790  42.477  11.448
39194W        W 5603  34.526  16.050  11.941
39195W        W 5604  20.727  17.755  14.715
39196W        W 5605   1.684  27.214  10.974
39197W        W 5606  12.234  40.499  10.243
39198W        W 5607  28.524   8.653  14.382
39199W        W 5608  21.242  23.709   2.333
39200W        W 5609  24.818   6.329  12.579
39201W        W 5610  24.173  43.510   2.900
39202W        W 5611   4.894  22.559  13.009
39203W        W 5612  29.922  27.852   3.752
39204W        W 5613  18.846   1.558  10.896
39205W        W 5614   1.710  20.916   4.108
39206W        W 5615  24.131  33.470   3.103
39207W        W 5616   8.360  29.478  12.738
39208W        W 5617   6.668  43.470   4.737
39209W        W 5618  27.758   5.939   2.521
39210W        W 5619  39.831  39.435  10.427
39211W        W 5620  17.313  14.770   0.868
39212W        W 5621  41.941  13.399  14.846
39213W        W 5622  11.683  34.551   3.356
39214W        W 5623   4.792  16.762  14.050
39215W        W 5624  32.450   2.053  13.485
39216W        W 5625  18.636  13.417  14.967
39217W        W 5626  23.528   9.856  12.033
39218W        W 5627  17.732  25.024   1.353
39219W        W 5628  36.890   8.137  13.522
39220W        W 5629   1.128  18.656   1.864
39221W        W 5630  18.104  26.132   0.247
39222W        W 5631  13.800  29.577   3.159
39223W        W 5632   3.898  41.786  11.667
39224W        W 5633  26.915  16.938  13.118
39225W        W 5634  18.669  14.579   3.718
39226W        W 5635  30.069  23.995  13.680
39227W        W 5636  12.113   7.662   4.595
39228W        W 5637  26.801  16.329  11.659
39229W        W 5638  16.659  18.329  14.770
39230W        W 5639  17.189  16.856   0.056
39231W        W 5640  38.446   5.184  12.396
39232W        W 5641  11.552   5.944  13.555
39233W        W 5642  29.145  37.770   0.480
39234W        W 5643  20.537  15.134   0.977
39235W        W 5644  18.061  26.563  12.000
39236W        W 5645  39.381  31.234  14.359
39237W        W 5646  24.546  19.079   1.272
39238W        W 5647  26.852  12.260   4.667
39239W        W 5648  33.218  13.291   0.903
39240W        W 5649  24.054  33.615   1.256
39241W        W 5650  16.025  36.374  13.353
39242W        W 5651  21.610  13.468  13.082
39243W        W 5652   3.520  25.202  10.748
39244W        W 5653  30.620  14.736  13.155
39245W        W 5654  39.306  11.188   4.736
39246W        W 5655  35.932  44.976   3.970
39247W        W 5656   9.891  14.179   2.868
39248W        W 5657  41.371   8.526   9.929
39249W        W 5658  17.998  30.513   2.315
39250W        W 5659  43.855  42.028  12.721
39251W        W 5660  20.130   3.344  11.013
39252W        W 5661  15.498   1.847   2.135
39253W        W 5662  44.030   3.221   1.433
39254W        W 5663   1.362  34.819  13.946
39255W        W 5664  22.667   4.294   4.335
39256W        W 5665   4.252  18.123   2.781
39257W        W 5666  41.838  22.507  12.043
39258W        W 5667  41.992  31.923   3.206
39259W        W 5668  20.877  24.444  13.803
39260W        W 5669  37.006  31.638  14.403
39261W        W 5670  32.558  41.391  12.124
39262W        W 5671  43.023  33.645  11.571
39263W        W 5672  34.095   0.547   0.850
39264W        W 5673  28.449  41.462   1.853
39265W        W 5674  25.522  18.379  14.887
39266W        W 5675   5.200  42.397   1.420
39267W        W 5676  39.301  26.380   1.421
39268W        W 5677   6.907  34.414   1.728
39269W        W 5678  40.490  16.257   3.036
39270W        W 5679   1.137   5.401   3.659
39271W        W 5680  24.031  33.015   2.155
39272W        W 5681  32.859  42.001  13.515
39273W        W 5682  32.667   0.952   1.272
39274W        W 5683  20.633  44.398  10.721
39275W        W 5684  42.771  22.460  11.884
39276W        W 5685  43.115  42.273   1.705
39277W        W 5686   9.509  29.645   2.324
39278W        W 5687  18.894  32.054  13.920
39279W        W 5688  38.322   7.367  12.986
39280W        W 5689  23.646   0.878   4.704
39281W        W 5690  29.346  29.118  10.895
39282W        W 5691  18.268  32.691   0.400
39283W        W 5692  31.496  22.980   3.172
39284W        W 5693   7.887  11.423   1.516
39285W        W 5694  16.261  16.978   4.762
39286W        W 5695   3.381  21.875  14.061
39287W        W 5696  42.351  18.754  13.807
39288W        W 5697   1.176  24.316  12.985
39289W        W 5698   6.229  25.279  10.924
39290W        W 5699   1.459  12.242   2.291
39291W        W 5700  14.710  40.509   1.168
39292W        W 5701  42.931  22.930   4.594
39293W        W 5702   9.608   8.595  12.063
39294W        W 5703   2.241   9.923  11.188
39295W        W 5704  33.328  36.770  13.048
39296W        W 5705   3.195  10.735   4.486
39297W        W 5706  32.028  22.706   2.607
39298W        W 5707   4.274  39.313  11.620
39299W        W 5708   3.801   6.929   0.021
39300W        W 5709  41.988   5.013   4.612
39301W        W 5710  34.495  18.522   4.065
39302W        W 5711   1.503  14.995   3.239
39303W        W 5712  38.635  13.846  10.708
39304W        W 5713   0.735   5.417  11.611
39305W        W 5714  23.776   8.612   2.851
39306W        W 5715  43.541  33.524   1.354
39307W        W 5716  10.766  10.921   1.276
39308W        W 5717  13.109  24.597   2.821
39309W        W 5718  44.831   8.477  14.408
39310W        W 5719  15.681  14.935  14.552
39311W        W 5720  15.747   6.500   1.241
39312W        W 5721  19.037  23.159  11.419
39313W        W 5722  12.677  31.853   2.201
39314W        W 5723  27.842  39.026   1.358
39315W        W 5724  15.548  11.604  12.038
39316W        W 5725  15.785  20.734   3.168
39317W        W 5726  27.211  11.600   1.712
39318W        W 5727  29.035  12.157  11.619
39319W        W 5728  36.882  27.704   1.645
39320W        W 5729   0.960  15.257   2.205
39321W        W 5730  29.653  14.653   0.532
39322W        W 5731   3.001  11.183  11.912
39323W        W 5732  29.725  36.562  13.509
39324W        W 5733  10.410  43.506   3.236
39325W        W 5734   6.833   0.323  12.421
39326W        W 5735  24.240  31.630   0.284
39327W        W 5736   4.883  26.208  11.664
39328W        W 5737  15.249  10.439  13.470
39329W        W 5738  32.133  13.753   2.825
39330W        W 5739  13.839  28.602  13.392
39331W        W 5740  44.978  34.340   3.971
39332W        W 5741  32.976   1.999  10.904
39333W        W 5742  15.192  40.985   1.952
39334W        W 5743  20.310  22.146   3.347
39335W        W 5744   5.924   0.449  10.997
39336W        W 5745  25.707  34.228   3.553
39337W        W 5746  42.971  37.984  14.472
39338W        W 5747  27.688  41.583  14.743
39339W        W 5748  20.949  33.588   4.135
39340W        W 5749  18.512  41.289   4.639
39341W        W 5750  12.849  17.594   1.296
39342W        W 5751  21.726   7.723  13.568
39343W        W 5752   7.539  43.801   0.886
39344W        W 5753  22.830  42.444  12.165
39345W        W 5754  16.007   2.413  10.826
39346W        W 5755  20.064   9.233  11.382
39347W        W 5756  16.604  28.629  14.006
39348W        W 5757  31.835  25.064  13.520
39349W        W 5758   4.162   5.450   1.034
39350W        W 5759  28.424  26.693  13.881
39351W        W 5760  39.194  39.465  13.032
39352W        W 5761  44.879  29.902   2.804
39353W        W 5762   1.636  22.704  10.734
39354W        W 5763   2.299  28.560  12.890
39355W        W 5764  33.021  44.943   1.708
39356W        W 5765  27.665  15.507  13.513
39357W        W 5766  24.745  15.351   0.725
39358W        W 5767  25.573   6.048   3.156
39359W        W 5768   3.297   8.257  10.571
39360W        W 5769  41.934  27.984  12.606
39361W        W 5770   9.681  10.087  12.536
39362W        W 5771   3.710  22.504  13.523
39363W        W 5772  16.017  38.400   1.149
39364W        W 5773   4.741  13.136   4.422
39365W        W 5774   2.968  25.085  14.991
39366W        W 5775  38.066  20.755  13.940
39367W        W 5776  18.362  16.287  12.014
39368W        W 5777   3.957  11.086  14.376
39369W        W 5778  12.058   3.987   4.863
39370W        W 5779   0.082  19.566  13.898
39371W        W 5780  37.222   5.008  10.972
39372W        W 5781  23.212   6.904  12.994
39373W        W 5782  37.860  14.677   4.843
39374W        W 5783  33.009  32.451  13.347
39375W        W 5784  29.376  36.491   1.204
39376W        W 5785   8.126  37.619   1.843
39377W        W 5786   0.798   9.139  11.151
39378W        W 5787   8.306  39.277  12.905
39379W        W 5788  17.597   4.267  13.500
39380W        W 5789  35.424  17.050  14.461
39381W        W 5790  20.509  43.844   2.621
39382W        W 5791  28.601   1.353   0.699
39383W        W 5792  44.549   5.284   3.232
39384W        W 5793  39.003  19.253   0.008
39385W        W 5794  12.057  36.123  14.918
39386W        W 5795  35.470  36.076   3.741
39387W        W 5796  16.197  30.459   3.930
39388W        W 5797  29.389  23.340  11.713
39389W        W 5798   7.288   9.918  14.245
39390W        W 5799  33.959  29.504  12.007
39391W        W 5800  37.657  35.078  12.033
39392W        W 5801  34.927   9.577  12.133
39393W        W 5802  16.532  28.465   2.285
39394W        W 5803  10.384  24.579  14.451
39395W        W 5804  16.337  31.056  14.918
39396W        W 5805  15.017   8.937  11.544
39397W        W 5806  32.081  16.826   1.806
39398W        W 5807  39.948  33.585   1.382
39399W        W 5808  20.644  22.164  11.580
39400W        W 5809  19.612  39.252   1.314
39401W        W 5810   2.811  30.182   0.829
39402W        W 5811  29.484   1.255  11.976
39403W        W 5812  22.685  21.293   2.819
39404W        W 5813  29.405  38.859   2.216
39405W        W 5814  15.257  26.582  11.598
39406W        W 5815  35.112   4.957  13.694
39407W        W 5816   2.187  25.809  12.050
39408W        W 5817  42.894  10.836   0.902
39409W        W 5818  14.926   9.839  12.611
39410W        W 5819   4.358  21.127   4.108
39411W        W 5820  33.316  35.444  14.918
39412W        W 5821  34.194  32.638  12.797
39413W        W 5822  19.782  12.286   1.904
39414W        W 5823   5.803   3.978   1.310
39415W        W 5824  10.878  44.391   3.084
39416W        W 5825   5.942  38.382   4.359
39417W        W 5826   9.906   7.955  10.322
39418W        W 5827   1.785  18.118   2.829
39419W        W 5828  32.323   0.364  13.875
39420W        W 5829  19.172  27.378  11.617
39421W        W 5830  43.858   3.320   3.219
39422W        W 5831   7.184  32.123   0.440
39423W        W 5832   6.229  37.175  14.205
39424W        W 5833  40.310  36.464   2.594
39425W        W 5834  32.644  42.006  14.920
39426W        W 5835  22.538  40.249  10.397
39427W        W 5836  40.298  24.463  11.022
39428W        W 5837   7.829  41.235   4.616
39429W        W 5838  22.335   8.330  13.932
39430W        W 5839  42.132  25.494   1.880
39431W        W 5840  14.354  18.295  13.825
39432W        W 5841  35.961  37.907  14.881
39433W        W 5842  37.468  17.020  13.466
39434W        W 5843   6.385  13.117  14.956
39435W        W 5844  13.120   2.456   4.654
39436W        W 5845  25.050  26.827  14.407
39437W        W 5846  27.284  20.606   4.781
39438W        W 5847   0.963  32.065  14.828
39439W        W 5848  38.615  44.847  12.021
39440W        W 5849  22.510  15.230  11.866
39441W        W 5850  36.667  32.968  13.048
39442W        W 5851  42.067  39.252  13.350
39443W        W 5852  21.522   1.224  12.079
39444W        W 5853  30.263   5.879   5.075
39445W        W 5854   2.468   0.690  10.715
39446W        W 5855   8.543  11.635   4.146
39447W        W 5856  32.142  21.249  13.044
39448W        W 5857   2.397   1.860   3.725
39449W        W 5858  35.353  11.597  13.446
39450W        W 5859  15.639  39.139  11.356
39451W        W 5860   1.805  30.221   1.189
39452W        W 5861   0.962  42.783  13.520
39453W        W 5862  39.900  14.200  14.771
39454W        W 5863   9.314  30.283  13.957
39455W        W 5864  38.839   2.488  11.451
39456W        W 5865   8.467  18.961   0.300
39457W        W 5866  35.124  15.724  11.135
39458W        W 5867  11.806  10.850  13.077
39459W        W 5868  37.957  22.040   3.346
39460W        W 5869  10.603  15.081   2.669
39461W        W 5870  41.489  28.679   4.445
39462W        W 5871   5.058   2.895   4.138
39463W        W 5872  21.089  12.397   1.305
39464W        W 5873  26.761  22.774  12.078
39465W        W 5874   3.947  38.297   1.482
39466W        W 5875  20.121   7.876   1.285
39467W        W 5876  26.178  44.585  13.550
39468W        W 5877  38.725  42.414   4.076
39469W        W 5878  38.613  23.642   1.293
39470W        W 5879  17.544  43.728  12.931
39471W        W 5880  11.784  30.049   1.697
39472W        W 5881  39.502  16.079  14.518
39473W        W 5882  23.631  17.833   0.271
39474W        W 5883  13.603  41.315  11.614
39475W        W 5884  15.041  33.744  11.966
39476W        W 5885  25.279  37.886  11.348
39477W        W 5886   0.838   7.490  13.322
39478W        W 5887   7.953  38.770   1.787
39479W        W 5888  16.620  41.796  10.715
39480W        W 5889  11.240  11.209   1.332
39481W        W 5890  38.892  12.751  11.178
39482W        W 5891  13.322  44.596  14.326
39483W        W 5892   1.755  30.390   1.962
39484W        W 5893  35.973   8.909   1.815
39485W        W 5894  22.012  28.172   4.059
39486W        W 5895  19.644  30.860   3.769
39487W        W 5896  28.489   4.116   3.729
39488W        W 5897  27.994  17.344  13.899
39489W        W 5898   3.702  33.982   0.867
39490W        W 5899  26.166  40.469  12.954
39491W        W 5900  34.907  20.048  11.138
39492W        W 5901  40.546  22.522   0.962
39493W        W 5902  17.526   8.605   4.157
39494W        W 5903  38.104  27.630  11.616
39495W        W 5904  40.937   0.776  13.289
39496W        W 5905  21.485  27.687   1.247
39497W        W 5906  15.951  24.748   4.953
39498W        W 5907  36.540  10.336  14.079
39499W        W 5908  18.514  35.669  14.569
39500W        W 5909  31.974  20.775  13.797
39501W        W 5910  22.620  14.853  10.381
39502W        W 5911  38.025   8.826   2.690
39503W        W 5912  21.944  32.000   4.106
39504W        W 5913   0.018  42.096   3.649
39505W        W 5914   5.413  28.610  13.079
39506W        W 5915  34.504   5.419  13.823
39507W        W 5916  24.528  31.103   3.373
39508W        W 5917  21.261  23.310  14.962
39509W        W 5918  33.680  14.562  13.906
39510W        W 5919  37.057  30.670   4.850
39511W        W 5920  26.184   0.952   3.746
39512W        W 5921  36.468  12.631   4.116
39513W        W 5922  43.935  23.684  14.653
39514W        W 5923  35.575  39.653  13.643
39515W        W 5924  22.962  11.822   0.841
39516W        W 5925  11.053  39.045   2.247
39517W        W 5926  42.464  43.565   3.760
39518W        W 5927  24.720  39.089   2.544
39519W        W 5928  14.638  32.300   0.662
39520W        W 5929  18.714  10.543   1.955
39521W        W 5930   9.671  35.124   3.215
39522W        W 5931  18.210   7.144   1.998
39523W        W 5932  14.578   6.265   1.704
39524W        W 5933  20.639   1.432   4.700
39525W        W 5934  12.799   6.222  14.002
39526W        W 5935  33.653   8.954  14.870
39527W        W 5936  39.414   1.869  10.705
39528W        W 5937  38.431   4.439  14.939
39529W        W 5938  39.555   0.916  13.701
39530W        W 5939   8.324  34.608  10.516
39531W        W 5940  19.458  27.958   0.943
39532W        W 5941  14.141  19.921   4.586
39533W        W 5942  31.303  18.687   1.050
39534W        W 5943  28.613  38.470   0.266
39535W        W 5944  32.293  22.855  11.573
39536W        W 5945   8.573  34.947   0.323
39537W        W 5946  19.360  23.583  12.629
39538W        W 5947  43.204  41.866  10.572
39539W        W 5948   9.872  35.589  10.676
39540W        W 5949  30.831  17.936  11.080
39541W        W 5950  29.709  26.016  14.788
39542W        W 5951  11.861  14.930  13.918
39543W        W 5952  39.305   5.876  11.574
39544W        W 5953  29.218  37.379   2.390
39545W        W 5954  26.650   3.706  14.327
39546W        W 5955  10.159  43.976   3.258
39547W        W 5956  26.383  26.908  14.690
39548W        W 5957  16.603   5.289   2.976
39549W        W 5958   7.167  18.644   1.760
39550W        W 5959  30.068  27.343   3.679
39551W        W 5960   5.760  15.365   4.051
39552W        W 5961  27.222   9.741   2.983
39553W        W 5962  15.170  19.559   3.221
39554W        W 5963   9.684  28.982   1.120
39555W        W 5964  37.910  35.375   4.905
39556W        W 5965  22.106   9.910  14.278
39557W        W 5966  19.327  28.688   1.687
39558W        W 5967  25.176  32.424   4.630
39559W        W 5968  19.157  20.551   0.721
39560W        W 5969  10.081   3.315   0.922
39561W        W 5970  23.753   0.473   2.008
39562W        W 5971   9.259  43.817   1.860
39563W        W 5972  28.584  12.305  14.129
39564W        W 5973  30.098  23.955   1.632
39565W        W 5974   8.112  29.953   4.809
39566W        W 5975   5.690  13.651   4.774
39567W        W 5976  40.905  19.442   2.184
39568W        W 5977  43.702   1.965  13.954
39569W        W 5978  29.424  29.655   3.310
39570W        W 5979  19.798  25.614   4.627
39571W        W 5980  14.625  44.061   2.774
39572W        W 5981  24.214  21.711   2.470
39573W        W 5982   7.430  11.931  14.980
39574W        W 5983   3.897  27.813   4.794
39575W        W 5984  41.514  17.631   2.288
39576W        W 5985  33.090  41.648   1.749
39577W        W 5986  15.634  15.096  13.819
39578W        W 5987  17.571  40.719   3.090
39579W        W 5988  41.823  11.023  12.359
39580W        W 5989  32.566  26.443   2.817
39581W        W 5990  31.254  24.195  12.531
39582W        W 5991  17.690  15.313   4.834
39583W        W 5992   1.237  12.139   1.465
39584W        W 5993  22.010  17.615  14.314
39585W        W 5994  34.179  23.665  10.976
39586W        W 5995   5.445  19.715  11.610
39587W        W 5996  24.587  34.974  13.431
39588W        W 5997  28.499  31.588   1.488
39589W        W 5998  43.824  38.903  14.918
39590W        W 5999   3.849  41.746   4.172
39591W        W 6000  21.276  17.067  14.706
39592W        W 6001  12.760  13.160   2.465
39593W        W 6002  10.936  25.310  14.387
39594W        W 6003  14.545  12.539  11.184
39595W        W 6004  12.062  40.550   2.741
39596W        W 6005  28.492  35.988  12.413
39597W        W 6006   5.897  10.365   3.721
39598W        W 6007  18.458  25.565   1.208
39599W        W 6008  37.019  26.091  13.409
39600W        W 6009  36.964   6.712   3.623
39601W        W 6010  44.734  37.677  11.067
39602W        W 6011  22.190  40.540  13.045
39603W        W 6012   2.839  19.099   2.499
39604W        W 6013   9.818  27.156  12.152
39605W        W 6014  11.695   1.601  13.492
39606W        W 6015  36.577  21.396   4.796
39607W        W 6016  10.494  24.244   1.130
39608W        W 6017  43.918  32.895  13.965
39609W        W 6018  26.159  34.106   3.868
39610W        W 6019  19.290  39.314   2.428
39611W        W 6020  21.533  14.216   0.817
39612W        W 6021   7.167  33.566  12.694
39613W        W 6022  29.416  19.712   1.211
39614W        W 6023   0.329   3.960   3.036
39615W        W 6024  21.547  31.607   1.327
39616W        W 6025  27.982  16.531  13.484
39617W        W 6026  20.790  11.096  13.260
39618W        W 6027  15.998  31.470  14.854
39619W        W 6028  31.044  36.350  11.101
39620W        W 6029  19.492  30.079   3.290
39621W        W 6030  21.171   4.454  12.983
39622W        W 6031  18.066  36.116  10.996
39623W        W 6032  19.132  34.862  13.421
39624W        W 6033  22.264  13.830   2.999
39625W        W 6034  13.329  44.835  13.834
39626W        W 6035  22.995  40.604   4.807
39627W        W 6036  44.934  40.881  13.846
39628W        W 6037  21.625  15.038  14.773
39629W        W 6038  31.029   7.950  11.617
39630W        W 6039  33.312  30.742  14.547
39631W        W 6040  16.112  42.776   1.611
39632W        W 6041  37.045  40.427   0.787
39633W        W 6042  40.373  19.999  13.589
39634W        W 6043  40.494  14.243  12.151
39635W        W 6044  36.369  15.673   3.711
39636W        W 6045  29.853  43.023  10.750
39637W        W 6046  12.417  17.749  14.882
39638W        W 6047  13.040  33.099   2.116
39639W        W 6048  26.043  22.428  13.148
39640W        W 6049  42.445  19.874  10.462
39641W        W 6050  43.582  10.190  14.823
39642W        W 6051  20.966   1.152   3.029
39643W        W 6052  21.322  33.933  10.769
39644W        W 6053  35.567  13.352   1.360
39645W        W 6054  16.039  35.456   0.531
39646W        W 6055  26.757  41.585  14.911
39647W        W 6056  43.512   1.836   1.875
39648W        W 6057  40.902   0.260   4.610
39649W        W 6058  38.781  42.882   3.807
39650W        W 6059   8.900  28.471   0.022
39651W        W 6060  38.913   9.044  10.053
39652W        W 6061   4.062  25.026  12.860
39653W        W 6062   9.407  40.446   4.087
39654W        W 6063  25.752  43.846   3.398
39655W        W 6064  41.716  18.029   1.343
39656W        W 6065  32.153   5.791   3.211
39657W        W 6066   6.155   9.145  10.824
39658W        W 6067   5.041  19.245  12.565
39659W        W 6068  36.035  36.437   4.345
39660W        W 6069  27.459  33.221  12.481
39661W        W 6070   8.224  25.069   0.665
39662W        W 6071  43.743   1.533  14.803
39663W        W 6072  43.662  10.686   0.001
39664W        W 6073   6.314  24.580   1.447
39665W        W 6074  40.845  30.908   0.882
39666W        W 6075   6.494  13.842   0.530
39667W        W 6076  31.202  35.632  13.209
39668W        W 6077  42.909  42.811  11.936
39669W        W 6078  31.146  14.215  11.632
39670W        W 6079  22.413  27.311  10.120
39671W        W 6080   6.828  27.808   4.506
39672W        W 6081  34.938  14.210  11.991
39673W        W 6082  41.502  26.295  14.044
39674W        W 6083  33.568  20.736   3.660
39675W        W 6084  27.673  14.820   2.250
39676W        W 6085  22.341  37.232  12.703
39677W        W 6086  32.775  33.071  13.893
39678W        W 6087  44.720  37.484   1.892
39679W        W 6088  38.833   6.200  13.862
39680W        W 6089  29.307  17.258  13.918
39681W        W 6090  39.918  31.893   0.276
39682W        W 6091  33.486  10.900  14.112
39683W        W 6092  35.976  39.056  12.586
39684W        W 6093  27.421  24.670  11.640
39685W        W 6094   0.046  39.535  13.931
39686W        W 6095   5.929  32.103  10.978
39687W        W 6096  14.402  27.094   1.648
39688W        W 6097  33.061  32.267  14.075
39689W        W 6098   2.767  21.198  10.223
39690W        W 6099  44.951  19.744  12.861
39691W        W 6100   1.021  21.823  11.612
39692W        W 6101  18.880  14.330   1.945
39693W        W 6102   5.039   7.856   3.701
39694W        W 6103  44.988  39.724  13.417
39695W        W 6104   5.012  11.788  14.990
39696W        W 6105   4.239  11.333  10.473
39697W        W 6106  12.168  20.263  13.309
39698W        W 6107  25.570   4.650  10.000
39699W        W 6108  12.325  40.033  10.552
39700W        W 6109  36.462  40.468   9.550
39701W        W 6110  38.117  22.487   3.603
39702W        W 6111  13.248  32.672   3.316
39703W        W 6112   8.218  35.863   4.226
39704W        W 6113   1.052   4.852   0.417
39705W        W 6114  19.235  10.095  10.505
39706W        W 6115   4.344  11.830  14.464
39707W        W 6116  31.361  40.353  13.401
39708W        W 6117  38.624   8.136  12.636
39709W        W 6118  26.659  10.071   5.024
39710W        W 6119  11.054  10.899   0.850
39711W        W 6120  18.809  43.812   4.848
39712W        W 6121  17.371  24.253  12.957
39713W        W 6122   8.183  41.170   2.483
39714W        W 6123  22.545  10.904  13.354
39715W        W 6124  33.877   2.014  14.909
39716W        W 6125  35.217   6.754  12.909
39717W        W 6126  21.693  11.374  11.490
39718W        W 6127  25.124  12.334   4.302
39719W        W 6128   9.939  43.535   0.778
39720W        W 6129  36.283  18.322  11.383
39721W        W 6130   3.507  39.955  13.434
39722W        W 6131  22.675  30.964  11.893
39723W        W 6132   3.867  10.302   1.006
39724W        W 6133  26.499  44.523  13.947
39725W        W 6134  28.865  44.762   3.219
39726W        W 6135  38.103   8.067  12.598
39727W        W 6136   1.992  23.452   0.429
39728W        W 6137  43.416   6.372   2.846
39729W        W 6138  32.439   3.938   4.825
39730W        W 6139  31.160  38.916   2.336
39731W        W 6140  17.888  13.200  11.615
39732W        W 6141  26.245  21.582  11.622
39733W        W 6142   7.716   5.288   2.453
39734W        W 6143  36.555  38.740   0.341
39735W        W 6144  16.277  22.250  14.353
39736W        W 6145  23.521  11.334  11.075
39737W        W 6146  16.646  39.983  14.408
39738W        W 6147  40.020  18.675  12.588
39739W        W 6148  32.951   7.804   1.893
39740W        W 6149  43.159  12.701  10.126
39741W        W 6150   4.646  30.571   2.197
39742W        W 6151  17.130  37.097  11.089
39743W        W 6152   3.928  20.971  11.630
39744W        W 6153  37.358  28.915  13.388
39745W        W 6154  13.865  41.455  10.440
39746W        W 6155  34.669  22.269  11.168
39747W        W 6156   5.391  27.010   3.312
39748W        W 6157  14.673  13.761  12.419
39749W        W 6158  26.485  23.109   3.597
39750W        W 6159  38.115  34.778   4.102
39751W        W 6160  10.249  41.051   2.757
39752W        W 6161  11.419  14.187  11.216
39753W        W 6162  10.866   5.374  10.671
39754W        W 6163  10.163  16.819  12.146
39755W        W 6164  28.035  17.084   4.862
39756W        W 6165  12.756   3.203  14.871
39757W        W 6166  21.634  17.610   1.443
39758W        W 6167   4.450   2.000   3.627
39759W        W 6168  12.538  35.090  12.968
39760W        W 6169   9.744  18.237  14.792
39761W        W 6170  22.687  20.229   2.192
39762W        W 6171  27.077  14.104  14.015
39763W        W 6172  44.841  30.196   4.224
39764W        W 6173  16.051  14.559   3.606
39765W        W 6174   7.972  16.211  12.368
39766W        W 6175  31.321  24.486  11.418
39767W        W 6176   2.379  17.994   1.234
39768W        W 6177  43.470  39.601   1.745
39769W        W 6178  30.651  10.492   2.588
39770W        W 6179  26.652  28.154   2.187
39771W        W 6180  31.873  30.983   0.464
39772W        W 6181  36.313  32.128  11.172
39773W        W 6182  20.822   4.959  13.849
39774W        W 6183  11.725  19.532  10.707
39775W        W 6184  37.836  17.373   2.033
39776W        W 6185  36.402  28.617   4.416
39777W        W 6186  23.081  12.062   3.629
39778W        W 6187  21.659  33.419   4.787
39779W        W 6188  13.814  11.409   0.709
39780W        W 6189  21.515  12.264   3.300
39781W        W 6190   1.946  12.035  14.911
39782W        W 6191  21.103   9.665   3.375
39783W        W 6192  20.409  26.183  12.103
39784W        W 6193  11.383  15.088  11.095
39785W        W 6194   4.888  40.053   2.263
39786W        W 6195  17.128  23.615   1.938
39787W        W 6196  44.599   1.774  13.349
39788W        W 6197  41.229  26.573   0.110
39789W        W 6198  10.337   4.957  13.314
39790W        W 6199  25.396  23.769  13.296
39791W        W 6200   0.874  19.151   0.274
39792W        W 6201  15.234   9.848   0.757
39793W        W 6202  25.687  40.859  13.387
39794W        W 6203  37.457  42.356  11.542
39795W        W 6204  42.270  42.602  11.200
39796W        W 6205  39.489  17.621  12.800
39797W        W 6206  32.600  42.849  11.164
39798W        W 6207  21.216  11.276  13.039
39799W        W 6208  36.309  27.691   0.389
39800W        W 6209  37.247  43.320  14.896
39801W        W 6210   9.939  40.332  12.419
39802W        W 6211  21.726  22.732  14.032
39803W        W 6212  31.092  22.720   3.457
39804W        W 6213   3.705  34.188  13.435
39805W        W 6214  36.610  42.223  12.876
39806W        W 6215  14.052   9.365  13.501
39807W        W 6216  35.764  11.246   3.022
39808W        W 6217  41.310  35.886  11.653
39809W        W 6218   7.139  12.827  11.824
39810W        W 6219  18.702  15.852   3.723
39811W        W 6220  41.813  35.151   5.062
39812W        W 6221  34.155   4.181  13.327
39813W        W 6222  38.573  31.873  10.378
39814W        W 6223   3.298  31.037   4.546
39815W        W 6224   3.838  37.585  12.646
39816W        W 6225  27.683  23.183   4.132
39817W        W 6226   4.859  15.553   1.275
39818W        W 6227  15.952  10.621  14.926
39819W        W 6228  17.866  36.413  12.063
39820W        W 6229  23.986   4.029  13.998
39821W        W 6230  15.360   4.177   0.308
39822W        W 6231   6.352  38.036  14.359
39823W        W 6232  21.836   2.483  14.510
39824W        W 6233  36.030  35.418  11.705
39825W        W 6234  11.152  37.701  13.912
39826W        W 6235  39.829   5.799  11.634
39827W        W 6236  38.574  35.905   0.352
39828W        W 6237  19.160  16.346   0.262
39829W        W 6238  16.083  26.671   2.445
39830W        W 6239  21.488  11.873  14.287
39831W        W 6240  30.956  36.422   3.832
39832W        W 6241   4.020  29.408   2.899
39833W        W 6242  38.477  32.470  11.642
39834W        W 6243  28.536  19.300  11.152
39835W        W 6244   1.324  29.908  13.028
39836W        W 6245  10.196   6.379   3.037
39837W        W 6246  29.219  26.561  11.321
39838W        W 6247  35.912  25.032   3.414
39839W        W 6248  32.363  33.748   4.713
39840W        W 6249  24.052  29.693  10.755
39841W        W 6250  36.160  10.217   1.298
39842W        W 6251  43.013   1.819   1.732
39843W        W 6252  33.600   6.826  14.274
39844W        W 6253   5.517   5.442   1.292
39845W        W 6254   1.343  32.587  12.687
39846W        W 6255   0.254  32.402   1.936
39847W        W 6256  36.410  37.760  12.895
39848W        W 6257  19.582  21.637  10.712
39849W        W 6258  26.891  25.223  11.238
39850W        W 6259   4.756  28.873   2.808
39851W        W 6260  41.516   8.275  12.365
39852W        W 6261  34.850  40.627  14.015
39853W        W 6262  40.046  27.092   3.793
39854W        W 6263  41.745  35.381   4.597
39855W        W 6264   7.638  44.322   4.181
39856W        W 6265  42.900   7.288   3.300
39857W        W 6266   4.714   0.519  14.939
39858W        W 6267   6.341  42.153  14.506
39859W        W 6268   1.274  32.944   1.296
39860W        W 6269   9.778  13.588  10.469
39861W        W 6270  26.599  21.207  14.608
39862W        W 6271  32.419  40.289  12.891
39863W        W 6272  17.275  37.980  12.223
39864W        W 6273  43.466  14.801  14.861
39865W        W 6274   4.482  36.774   0.157
39866W        W 6275   3.662  28.993   2.807
39867W        W 6276  29.584  10.287  12.578
39868W        W 6277  10.895  20.239  13.898
39869W        W 6278  39.849  10.913   3.316
39870W        W 6279  42.393   3.722  14.921
39871W        W 6280  44.031  29.294   2.180
39872W        W 6281   0.172   5.920  11.990
39873W        W 6282  19.671  17.758  14.610
39874W        W 6283  29.346  27.136  14.116
39875W        W 6284  28.665  25.603   2.739
39876W        W 6285  10.137  26.070  10.498
39877W        W 6286   8.245  12.871  14.654
39878W        W 6287  41.408   0.177  14.466
39879W        W 6288  23.219  18.263   4.742
39880W        W 6289   9.722  23.681  12.433
39881W        W 6290   8.483  38.607  14.091
39882W        W 6291  36.587  20.580   4.105
39883W        W 6292  14.439   9.146  11.212
39884W        W 6293  30.110  25.411  14.026
39885W        W 6294  43.330  30.985   4.334
39886W        W 6295  42.958  30.850   4.970
39887W        W 6296   0.561   3.186  11.166
39888W        W 6297   0.895  23.240   2.217
39889W        W 6298  37.046  20.265   4.162
39890W        W 6299  15.386   7.695  10.761
39891W        W 6300  31.750  33.595  14.513
39892W        W 6301  37.819  25.207  14.601
39893W        W 6302  36.053   4.508   3.179
39894W        W 6303  41.817  44.669   3.858
39895W        W 6304  24.494  18.370  14.762
39896W        W 6305  14.398  19.288   2.805
39897W        W 6306  22.282  16.840  14.933
39898W        W 6307  23.517   8.204  14.479
39899W        W 6308  18.419  33.628  10.439
39900W        W 6309  27.052  44.838  13.060
39901W        W 6310  36.475   2.883  14.362
39902W        W 6311  29.314  42.209  14.748
39903W        W 6312  32.892  24.511  13.009
39904W        W 6313  33.433   9.113   4.659
39905W        W 6314  32.079  37.875  11.883
39906W        W 6315   8.121  44.573   0.860
39907W        W 6316  13.967  33.955   0.324
39908W        W 6317  40.946  44.882  14.507
39909W        W 6318   9.956  17.031  14.343
39910W        W 6319  35.067  15.638   2.240
39911W        W 6320  15.785  18.074   0.065
39912W        W 6321  10.780  12.118  13.483
39913W        W 6322  15.256  42.223  13.877
39914W        W 6323  42.461  35.405  14.435
39915W        W 6324   7.151  31.796  11.222
39916W        W 6325  23.700  28.026   3.709
39917W        W 6326   8.381  38.987  12.493
39918W        W 6327  22.002  17.754   2.807
39919W        W 6328  33.405  41.815  13.033
39920W        W 6329  44.463   7.775  14.030
39921W        W 6330  11.204   6.597  13.024
39922W        W 6331  39.316  39.345   3.325
39923W        W 6332  21.241  25.332  10.242
39924W        W 6333  36.063  35.008  14.982
39925W        W 6334   2.545  32.958   4.998
39926W        W 6335  44.301   8.199   4.143
39927W        W 6336  16.182  26.310   2.074
39928W        W 6337  16.720  30.955  12.327
39929W        W 6338  31.548  23.791   3.524
39930W        W 6339  12.341  32.571   0.006
39931W        W 6340   6.219  34.387  11.114
39932W        W 6341  44.989  27.631   3.540
39933W        W 6342  25.494   4.743   3.638
39934W        W 6343  27.356   0.263  11.618
39935W        W 6344  31.668  13.727   2.597
39936W        W 6345   0.876  13.597   2.676
39937W        W 6346  30.970  44.466  14.423
39938W        W 6347  37.478  40.886  13.308
39939W        W 6348  26.035  18.535   2.110
39940W        W 6349  18.052   2.153  14.960
39941W        W 6350  20.456  33.941   4.778
39942W        W 6351  41.210  33.225  10.213
39943W        W 6352   2.249  23.982   3.300
39944W        W 6353  25.453  31.783   2.568
39945W        W 6354  17.323  27.486  12.641
39946W        W 6355  35.166  12.621   1.905
39947W        W 6356  44.176  12.798  10.362
39948W        W 6357  22.677  24.767   4.541
39949W        W 6358  19.166  14.658  10.457
39950W        W 6359   9.839  21.496   4.203
39951W        W 6360  37.248   6.746   4.561
39952W        W 6361  34.896  30.315   5.018
39953W        W 6362  10.287  29.436   0.392
39954W        W 6363   6.200   6.145   2.598
39955W        W 6364  27.966  35.140   3.092
39956W        W 6365   2.223  42.478  14.658
39957W        W 6366  40.506  44.173   2.590
39958W        W 6367  42.233  15.633  13.006
39959W        W 6368  23.492  14.710   0.114
39960W        W 6369  22.552  14.605  11.244
39961W        W 6370   2.456   1.973  13.789
39962W        W 6371  21.782  20.175  10.668
39963W        W 6372  44.364  29.901  11.131
39964W        W 6373  39.009  43.979  13.410
39965W        W 6374  34.271  32.271  14.968
39966W        W 6375  16.173   4.085  14.814
39967W        W 6376  27.129  14.428   2.890
39968W        W 6377  44.566  33.468   1.178
39969W        W 6378  28.268  29.199  13.858
39970W        W 6379  14.254  24.795   3.654
39971W        W 6380  44.409  37.476  12.939
39972W        W 6381  26.494   5.384   1.698
39973W        W 6382  39.441   5.770  12.859
39974W        W 6383  26.599  40.758  11.851
39975W        W 6384  32.717   5.419  10.263
39976W        W 6385  24.216  17.161  11.602
39977W        W 6386   4.343  12.749  11.702
39978W        W 6387  29.003  38.033  14.020
39979W        W 6388  13.169  31.147   0.445
39980W        W 6389   5.507   3.571  11.002
39981W        W 6390  38.520  25.848  14.897
39982W        W 6391   8.570   3.468   0.810
39983W        W 6392  17.033  22.081   2.714
39984W        W 6393  34.553  44.973   3.758
39985W        W 6394  10.227   2.604  13.787
39986W        W 6395  34.838  10.910   2.760
39987W        W 6396   1.261  43.065  14.276
39988W        W 6397  19.905   3.403   3.845
39989W        W 6398   0.249  39.446   1.560
39990W        W 6399  12.778  42.036   4.848
39991W        W 6400  25.808  20.566   4.789
39992W        W 6401  41.523   0.326   3.922
39993W        W 6402  32.716   9.519  12.889
39994W        W 6403  38.969  38.372   1.176
39995W        W 6404  23.853  15.342   3.364
39996W        W 6405  16.638  23.682   4.165
39997W        W 6406  12.579  38.489   1.403
39998W        W 6407  30.160  41.417   2.199
39999W        W 6408  42.752   1.144  13.852
40000W        W 6409  11.531   9.060   3.558
40001W        W 6410  23.518  11.958   3.899
40002W        W 6411  11.567  20.234   2.422
40003W        W 6412   0.706  14.726   3.527
40004W        W 6413   2.918  19.720   4.827
40005W        W 6414  12.745  29.465   4.586
40006W        W 6415   8.831  30.408  12.492
40007W        W 6416  41.813  41.349   3.909
40008W        W 6417  26.241  14.088   4.335
40009W        W 6418  36.219  43.512   2.907
40010W        W 6419   5.646  43.584   2.767
40011W        W 6420  42.322   1.866  10.812
40012W        W 6421  41.875  42.966   0.733
40013W        W 6422  27.567  32.395   3.323
40014W        W 6423  26.522  31.505  12.139
40015W        W 6424  34.188  23.103   3.095
40016W        W 6425  14.088   8.171   3.798
40017W        W 6426  42.963   4.994  14.904
40018W        W 6427  35.072  32.612   2.875
40019W        W 6428  15.550  26.432   3.216
40020W        W 6429  44.679  37.793   4.113
40021W        W 6430  34.709   4.413   1.441
40022W        W 6431  27.044   0.360   2.676
40023W        W 6432  19.445   7.797  11.125
40024W        W 6433  14.828  32.675   1.292
40025W        W 6434  21.252  21.442  10.809
40026W        W 6435  41.291  22.132   3.705
40027W        W 6436  31.020  23.161   3.165
40028W        W 6437  15.671  21.990  13.499
40029W        W 6438  23.030   1.211  12.257
40030W        W 6439  29.876   8.770   9.979
40031W        W 6440  29.163   6.203   2.732
40032W        W 6441  18.695  19.546  11.518
40033W        W 6442   5.170   4.317   0.184
40034W        W 6443  28.623  12.874  12.615
40035W        W 6444  42.880  18.650  10.811
40036W        W 6445  12.651  24.001   4.356
40037W        W 6446   3.852  18.000   4.082
40038W        W 6447  34.659  40.374   1.410
40039W        W 6448  30.809  43.694  13.873
40040W        W 6449  24.276  22.640  14.314
40041W        W 6450  10.724  26.584   0.748
40042W        W 6451  23.159  15.117  12.978
40043W        W 6452   9.132   7.189  14.373
40044W        W 6453   4.343  39.021   1.968
40045W        W 6454   5.872  43.300   3.159
40046W        W 6455  29.673  30.049  12.343
40047W        W 6456  16.124  29.333   2.310
40048W        W 6457  37.486  24.996   1.580
40049W        W 6458  44.300  32.635   2.244
40050W        W 6459  15.190  12.683   2.151
40051W        W 6460   9.805  15.443  11.101
40052W        W 6461  28.683  28.011  11.864
40053W        W 6462  11.799   3.718   3.553
40054W        W 6463  31.889   2.079  11.389
40055W        W 6464  14.297  14.375  12.033
40056W        W 6465   2.488  24.217  13.389
40057W        W 6466  36.889  15.544  13.034
40058W        W 6467  28.000  17.182  14.383
40059W        W 6468   3.420  12.108  14.502
40060W        W 6469   4.299  15.798  13.469
40061W        W 6470  21.428  44.235  11.956
40062W        W 6471  25.900  23.701  13.314
40063W        W 6472   7.275  22.468  13.291
40064W        W 6473  27.246  11.665  12.475
40065W        W 6474  14.100  41.986   3.277
40066W        W 6475  24.450   2.743  11.998
40067W        W 6476  44.064  21.756   1.329
40068W        W 6477  44.739  37.058   4.825
40069W        W 6478  25.200  37.772   0.909
40070W        W 6479   8.322   9.210  13.194
40071W        W 6480  27.581  28.318  11.617
40072W        W 6481  34.081  37.145   1.190
40073W        W 6482  41.545  38.051   0.038
40074W        W 6483  14.759  32.928  11.880
40075W        W 6484  36.640   7.269  10.444
40076W        W 6485  25.977  19.595   2.025
40077W        W 6486  38.622  39.120   4.835
40078W        W 6487   6.421   3.597  13.284
40079W        W 6488  37.941   1.499  11.469
40080W        W 6489  25.645  25.657   4.150
40081W        W 6490  33.589  22.995   4.511
40082W        W 6491  24.094  44.309  10.247
40083W        W 6492  11.902  36.484   2.725
40084W        W 6493   4.811  11.394   4.806
40085W        W 6494  11.406  39.764   1.310
40086W        W 6495  25.988  44.413  14.945
40087W        W 6496   0.344  34.548  12.361
40088W        W 6497  29.008  23.031   1.655
40089W        W 6498   7.475  32.859   3.692
40090W        W 6499  17.145  27.966   2.652
40091W        W 6500  21.055   2.964  10.759
40092W        W 6501   5.357  22.615  11.417
40093W        W 6502  10.689  36.902   0.126
40094W        W 6503  29.202  12.585   3.152
40095W        W 6504   7.959  24.279   1.807
40096W        W 6505  32.406   4.214  13.892
40097W        W 6506   2.998  20.717   1.322
40098W        W 6507   3.021   2.670  12.172
40099W        W 6508  37.506  36.509   1.455
40100W        W 6509  25.008  37.201  11.182
40101W        W 6510  12.851  12.766  11.947
40102W        W 6511  34.114   0.763   3.690
40103W        W 6512   9.660  38.336   2.204
40104W        W 6513  13.222  17.523  12.049
40105W        W 6514  41.022   2.469   3.694
40106W        W 6515  19.497  18.817   3.121
40107W        W 6516  28.942  42.851  11.606
40108W        W 6517  30.759  39.942   4.998
40109W        W 6518  20.981   1.485   4.312
40110W        W 6519  13.327  44.339   1.207
40111W        W 6520  43.776  37.002  12.886
40112W        W 6521  43.809  36.668   4.915
40113W        W 6522  10.881  41.952   3.688
40114W        W 6523   0.689  11.212  10.888
40115W        W 6524  29.138  16.685   3.473
40116W        W 6525  39.644  18.252  13.337
40117W        W 6526   4.990   8.887   4.468
40118W        W 6527  33.919  11.741   0.762
40119W        W 6528  25.521  15.656   0.443
40120W        W 6529   1.299  44.561   2.311
40121W        W 6530  17.589   2.373   2.366
40122W        W 6531  12.434   3.385   2.379
40123W        W 6532  27.345  35.519  11.339
40124W        W 6533   2.190   6.849  13.353
40125W        W 6534  32.632  16.341  11.443
40126W        W 6535  26.968  22.023  12.597
40127W        W 6536  34.135  36.826  14.351
40128W        W 6537  13.786   1.789  11.061
40129W        W 6538  23.960  32.957  13.438
40130W        W 6539  25.924  10.216  13.517
40131W        W 6540  15.757  30.509  13.404
40132W        W 6541  30.336  29.242  14.419
40133W        W 6542  14.372   6.148  11.072
40134W        W 6543  31.881  31.177  11.981
40135W        W 6544   9.886  21.211  10.481
40136W        W 6545   7.729  28.687   1.193
40137W        W 6546  17.328  26.178  13.970
40138W        W 6547  13.687  29.519   1.943
40139W        W 6548  44.677  27.445  10.643
40140W        W 6549  22.182  15.841   2.941
40141W        W 6550  15.272   9.255  14.182
40142W        W 6551  34.090  29.424   3.808
40143W        W 6552  21.489  42.667   1.872
40144W        W 6553  28.162  41.206   3.224
40145W        W 6554  38.304  42.413  11.071
40146W        W 6555  15.426   9.797  12.471
40147W        W 6556  38.997  18.848   2.281
40148W        W 6557  27.675  29.011  10.528
40149W        W 6558  19.312  42.525   1.351
40150W        W 6559  36.994  41.925  13.626
40151W        W 6560  44.325  38.807  10.551
40152W        W 6561  27.602   5.603   5.078
40153W        W 6562  20.923  28.205   3.286
40154W        W 6563  32.990   6.662  13.032
40155W        W 6564  24.812   4.397   3.362
40156W        W 6565  25.996  22.833  13.446
40157W        W 6566   7.237   8.221  11.448
40158W        W 6567  12.316  28.564   0.398
40159W        W 6568  15.301  26.135  13.676
40160W        W 6569   0.067   3.538   4.314
40161W        W 6570  12.821   4.596   9.686
40162W        W 6571  35.359  31.321   3.005
40163W        W 6572  26.094   8.662  13.510
40164W        W 6573  11.697  25.102  13.850
40165W        W 6574  37.331   7.968  13.814
40166W        W 6575  10.426  43.645  10.692
40167W        W 6576  17.703  40.989   0.498
40168W        W 6577  19.245  33.365   2.767
40169W        W 6578   9.608  13.072   2.114
40170W        W 6579  16.067  27.816  10.257
40171W        W 6580   0.789   3.500   1.808
40172W        W 6581  28.301  18.046  10.334
40173W        W 6582  11.401   2.263  14.406
40174W        W 6583   4.620  42.000  13.354
40175W        W 6584  36.170   7.363   2.029
40176W        W 6585  23.387  19.651   0.885
40177W        W 6586  28.111  21.644  10.877
40178W        W 6587   9.686  15.210   3.830
40179W        W 6588  43.929   3.336   4.740
40180W        W 6589  43.580  24.586  12.870
40181W        W 6590  43.930   3.835   3.165
40182W        W 6591  34.947   6.724  14.311
40183W        W 6592  24.763   5.135  12.966
40184W        W 6593  44.905  20.404   4.047
40185W        W 6594  15.255  42.843  12.037
40186W        W 6595   4.062  38.520  13.005
40187W        W 6596  24.928  29.285   0.395
40188W        W 6597  37.310  14.661   5.473
40189W        W 6598  33.586  29.691  10.729
40190W        W 6599  43.027  40.175   2.444
40191W        W 6600  28.143  29.494  10.589
40192W        W 6601  23.753   6.365  11.641
40193W        W 6602  29.188  28.219  11.970
40194W        W 6603  35.699  25.938  10.934
40195W        W 6604  33.238  42.462   0.195
40196W        W 6605  44.401  39.426   1.726
40197W        W 6606   0.415  16.480   0.012
40198W        W 6607  14.143   3.838   3.727
40199W        W 6608  34.010  17.202   3.121
40200W        W 6609  17.544   6.616  11.439
40201W        W 6610  43.223  27.614  10.216
40202W        W 6611  26.180  44.921  12.503
40203W        W 6612   0.537  12.330  14.201
40204W        W 6613   9.814  34.342  13.055
40205W        W 6614  36.937  20.745  10.707
40206W        W 6615  15.550  28.560   2.287
40207W        W 6616   6.227  30.311  14.332
40208W        W 6617  15.307  20.651  12.493
40209W        W 6618  38.460  25.249   1.449
40210W        W 6619  44.423  16.011  13.560
40211W        W 6620  10.685  39.703   4.061
40212W        W 6621  30.412  22.731   4.519
40213W        W 6622  25.897  42.027  12.467
40214W        W 6623  38.390  44.375  13.065
40215W        W 6624  21.695  14.911  12.391
40216W        W 6625  24.204  28.495   3.119
40217W        W 6626  26.914  19.211   3.112
40218W        W 6627  31.006  12.655   1.272
40219W        W 6628  40.617  40.168  12.590
40220W        W 6629  17.740  28.501  10.809
40221W        W 6630  39.076   3.047   2.400
40222W        W 6631  28.221  12.389   4.112
40223W        W 6632  29.075  20.239   3.370
40224W        W 6633   6.663  33.908   0.796
40225W        W 6634  16.646  30.748   1.215
40226W        W 6635  23.022  15.617  13.070
40227W        W 6636   8.079   8.757   3.678
40228W        W 6637  24.391  39.906   0.190
40229W        W 6638  12.507  29.009   3.213
40230W        W 6639  12.876  10.111   2.787
40231W        W 6640  33.935   9.576   4.636
40232W        W 6641  23.485  37.018  14.399
40233W        W 6642  22.880  20.819   1.988
40234W        W 6643   1.923  38.520   4.514
40235W        W 6644  10.382   8.093   2.225
40236W        W 6645  10.516   5.697  11.606
40237W        W 6646  37.981  32.195  11.981
40238W        W 6647  36.274   4.148   2.194
40239W        W 6648   2.870  36.339   1.490
40240W        W 6649  30.422   2.785  12.506
40241W        W 6650  11.420  14.014  11.704
40242W        W 6651  15.743  39.429   3.926
40243W        W 6652  35.123  25.021  11.993
40244W        W 6653  28.017  21.127  12.604
40245W        W 6654   9.384  22.849   4.212
40246W        W 6655  34.285  18.318  13.924
40247W        W 6656   8.341  42.484   2.332
40248W        W 6657  18.240   5.858  13.941
40249W        W 6658   3.669   4.244  14.315
40250W        W 6659  28.346  15.766   4.130
40251W        W 6660   1.836  17.756   0.379
40252W        W 6661  28.391  14.435  11.099
40253W        W 6662  32.627  15.348   2.476
40254W        W 6663  40.287  26.922   0.937
40255W        W 6664  11.378  25.636  10.963
40256W        W 6665  21.285  29.584   2.193
40257W        W 6666  33.024   2.254   2.716
40258W        W 6667  36.457  27.672   2.232
40259W        W 6668   5.525  21.669  12.593
40260W        W 6669  15.219   5.196   3.203
40261W        W 6670  44.789  34.812  12.438
40262W        W 6671  17.593   9.948  13.949
40263W        W 6672   9.793  28.587  12.416
40264W        W 6673  28.871  23.065   1.173
40265W        W 6674  23.580  16.666  12.893
40266W        W 6675   0.882  18.785  11.620
40267W        W 6676  12.776  44.255  13.475
40268W        W 6677  12.825  25.506   0.072
40269W        W 6678  10.723   9.459   2.464
40270W        W 6679  28.482  44.340   2.161
40271W        W 6680  38.347  18.104  12.819
40272W        W 6681   7.795  38.436  11.306
40273W        W 6682   2.940  16.735  12.713
40274W        W 6683  39.065  25.761   2.688
40275W        W 6684  38.372  36.608   1.886
40276W        W 6685  31.871  36.367  11.419
40277W        W 6686  17.031  32.832  13.357
40278W        W 6687   5.370  37.669  14.161
40279W        W 6688  18.179  17.383  14.391
40280W        W 6689  26.482   6.188   2.796
40281W        W 6690   2.984   4.169  12.035
40282W        W 6691  24.992  39.080  14.851
40283W        W 6692   1.403   9.004   4.728
40284W        W 6693   4.729  16.625   3.216
40285W        W 6694   8.968  18.845   4.127
40286W        W 6695  24.880  25.960  11.740
40287W        W 6696  18.317   6.235  11.165
40288W        W 6697  10.156  43.132  13.272
40289W        W 6698   9.175  33.605  13.399
40290W        W 6699   1.393   7.814  13.722
40291W        W 6700   1.376  35.329   2.730
40292W        W 6701  12.705  15.627   1.296
40293W        W 6702  12.476  27.928  13.149
40294W        W 6703  44.025  14.387   4.253
40295W        W 6704  29.585  36.412   4.495
40296W        W 6705   0.274   5.395   1.875
40297W        W 6706  25.288  15.248  14.981
40298W        W 6707  16.753   8.693   3.648
40299W        W 6708  30.131  31.028  14.566
40300W        W 6709  30.574  15.372  14.767
40301W        W 6710  27.588  21.420  13.978
40302W        W 6711  41.985  20.123   0.336
40303W        W 6712  41.182  41.953   4.235
40304W        W 6713  41.735   4.415  12.449
40305W        W 6714  21.730  39.111   0.043
40306W        W 6715  27.707   9.087  11.625
40307W        W 6716   1.720  22.276  14.321
40308W        W 6717   7.869  39.067   3.058
40309W        W 6718  14.780  40.593  12.119
40310W        W 6719   5.289  21.341  12.087
40311W        W 6720  29.131   4.808   1.261
40312W        W 6721  38.792  30.189   4.556
40313W        W 6722  28.947  36.777   0.284
40314W        W 6723  23.082  20.015   2.431
40315W        W 6724  38.331  32.627   1.191
40316W        W 6725  35.533  37.096   1.835
40317W        W 6726   8.339  16.297  14.950
40318W        W 6727   4.385  14.825  14.754
40319W        W 6728  23.048  22.101   9.868
40320W        W 6729  11.627  11.046   4.582
40321W        W 6730  32.220   1.473  10.253
40322W        W 6731  34.075  11.597   1.733
40323W        W 6732   1.793  15.853   4.368
40324W        W 6733  32.213   5.191   2.160
40325W        W 6734  30.512  36.402   4.925
40326W        W 6735  23.562  25.355  10.644
40327W        W 6736  32.874  21.130   3.805
40328W        W 6737  23.913   9.350   1.752
40329W        W 6738   1.918  40.539   1.908
40330W        W 6739  36.335  40.311   1.465
40331W        W 6740   3.988   8.017  12.345
40332W        W 6741  10.649   9.786  12.072
40333W        W 6742   8.064  23.129  13.387
40334W        W 6743  26.215  13.851   2.127
40335W        W 6744  19.344  20.779  14.936
40336W        W 6745  39.311  41.642   1.214
40337W        W 6746   1.606  30.005  14.843
40338W        W 6747  23.917  10.623  12.070
40339W        W 6748  34.872   3.011   4.089
40340W        W 6749  34.695   5.087  11.021
40341W        W 6750   6.337  13.577  13.836
40342W        W 6751  14.645  25.622   1.308
40343W        W 6752   6.729  18.580   4.555
40344W        W 6753   2.131   1.672  13.534
40345W        W 6754   7.002  34.474   3.449
40346W        W 6755  17.625  43.983   4.985
40347W        W 6756   8.326  24.582  14.756
40348W        W 6757   5.106  44.857   3.647
40349W        W 6758  26.021   2.368   4.789
40350W        W 6759  44.760  35.433   3.746
40351W        W 6760  32.063  31.130   2.640
40352W        W 6761  26.540   3.997  10.976
40353W        W 6762  20.486  21.573  12.425
40354W        W 6763  44.053  25.909   9.742
40355W        W 6764  36.844  37.241   5.073
40356W        W 6765   4.968  44.550   2.307
40357W        W 6766  29.084  42.011  12.475
40358W        W 6767  42.060  15.807  14.297
40359W        W 6768  14.867  34.899   3.601
40360W        W 6769  41.422  15.751   2.609
40361W        W 6770   3.161   1.682  14.417
40362W        W 6771  42.787  11.688  12.459
40363W        W 6772  44.444   8.676  11.894
40364W        W 6773  44.061  18.937   1.282
40365W        W 6774   4.898  28.989   0.280
40366W        W 6775   7.439  44.593   4.575
40367W        W 6776  39.343  41.817  13.051
40368W        W 6777  12.257   8.873  12.672
40369W        W 6778  31.452  32.529   2.696
40370W        W 6779  40.337  11.120   2.154
40371W        W 6780  14.187  19.490   0.371
40372W        W 6781  30.566  25.957   0.317
40373W        W 6782  30.021   1.251  12.110
40374W        W 6783  14.683   5.218   3.350
40375W        W 6784  37.430   3.381   0.973
40376W        W 6785  30.387   0.415   4.134
40377W        W 6786  25.022  33.780   1.755
40378W        W 6787   8.207   4.453   3.177
40379W        W 6788  20.556  43.113   1.881
40380W        W 6789  39.971   7.717   2.607
40381W        W 6790  35.144  21.144  10.702
40382W        W 6791  34.717   3.481   1.969
40383W        W 6792  28.790  17.347  14.725
40384W        W 6793  30.120  15.684  14.002
40385W        W 6794  26.161   7.231   1.630
40386W        W 6795  42.256  14.810   1.813
40387W        W 6796  29.998  26.899   2.745
40388W        W 6797  41.486  11.189  10.739
40389W        W 6798   2.953   3.729  10.650
40390W        W 6799  14.292  17.530  14.517
40391W        W 6800  34.503  12.288   1.584
40392W        W 6801   6.976   1.643   1.032
40393W        W 6802  34.738   7.304  10.468
40394W        W 6803  30.157   6.683   0.905
40395W        W 6804  17.665  27.032  14.449
40396W        W 6805  37.752  37.264   2.303
40397W        W 6806   5.844  31.458  14.744
40398W        W 6807  37.977  39.986   1.492
40399W        W 6808  24.336  41.420  10.909
40400W        W 6809  11.811   9.899  12.869
40401W        W 6810  44.709  39.793  12.948
40402W        W 6811   8.831  14.507   4.686
40403W        W 6812  12.900  32.502   4.122
40404W        W 6813  22.658  43.788  11.012
40405W        W 6814   6.529  28.648  12.981
40406W        W 6815  35.121  42.046  12.050
40407W        W 6816  39.416  15.992  12.848
40408W        W 6817  13.867  11.330   2.789
40409W        W 6818  41.455  15.806  11.682
40410W        W 6819  14.151  10.713  12.466
40411W        W 6820  23.622  35.633  12.149
40412W        W 6821  12.763  28.354   0.253
40413W        W 6822   1.074   8.153  13.956
40414W        W 6823  25.348   1.479  10.629
40415W        W 6824  24.644  31.387  14.506
40416W        W 6825  42.025  23.358  12.468
40417W        W 6826  19.160  36.737   4.988
40418W        W 6827  33.975   8.868  12.604
40419W        W 6828  19.943  22.274   4.487
40420W        W 6829  12.002   9.687   1.975
40421W        W 6830   0.670   7.236   2.808
40422W        W 6831   3.257  22.585   0.476
40423W        W 6832  24.243  15.886   1.744
40424W        W 6833  16.704   9.405  12.026
40425W        W 6834   6.287  24.465  12.452
40426W        W 6835  31.407  13.174  13.033
40427W        W 6836  23.569  27.879  11.614
40428W        W 6837   5.064   5.112  14.868
40429W        W 6838  19.999  18.129  13.523
40430W        W 6839  36.497  40.370   5.036
40431W        W 6840   7.877  13.820   2.149
40432W        W 6841  35.004  18.628  14.847
40433W        W 6842   4.250  34.377   4.101
40434W        W 6843  16.268  24.189   1.012
40435W        W 6844  38.392  25.479  12.484
40436W        W 6845   1.016   6.700  13.127
40437W        W 6846  14.659  12.175  10.860
40438W        W 6847  35.580  15.882   2.362
40439W        W 6848   9.216  39.628  14.987
40440W        W 6849   2.037  12.870   4.594
40441W        W 6850  24.768  18.718  14.401
40442W        W 6851   2.496  10.830  13.992
40443W        W 6852  29.175  42.467  12.045
40444W        W 6853   6.183  39.729   0.886
40445W        W 6854  21.153  16.264   2.694
40446W        W 6855  38.002  25.277  11.614
40447W        W 6856  32.171  35.769  10.458
40448W        W 6857   3.262   2.173  11.149
40449W        W 6858  44.530  26.883  14.865
40450W        W 6859  10.324  21.580   2.341
40451W        W 6860  14.693  42.553   2.329
40452W        W 6861  34.044   6.344  10.988
40453W        W 6862  32.742  19.187   1.828
40454W        W 6863  26.153  10.080  10.313
40455W        W 6864  44.787  32.573   2.113
40456W        W 6865   2.190  33.467  10.749
40457W        W 6866  25.314  34.029   1.392
40458W        W 6867   0.970  41.799   3.876
40459W        W 6868   4.400  24.382  14.390
40460W        W 6869  35.387  41.384   2.019
40461W        W 6870  44.687   0.019  13.440
40462W        W 6871  24.801  26.729   4.137
40463W        W 6872  20.009   8.152   4.113
40464W        W 6873  29.589   0.030  10.884
40465W        W 6874  38.443  18.206   1.342
40466W        W 6875  23.129  15.843   3.912
40467W        W 6876  19.744   7.943  10.732
40468W        W 6877  32.221  28.401  10.825
40469W        W 6878   6.368  17.858   2.856
40470W        W 6879  24.598   4.511  14.253
40471W        W 6880  10.426  25.435   2.473
40472W        W 6881  15.342  17.030  11.436
40473W        W 6882  10.335  11.029  11.044
40474W        W 6883  29.354   5.147   9.828
40475W        W 6884  35.314   2.220   0.451
40476W        W 6885  35.376  23.561   0.916
40477W        W 6886  12.470  17.283   1.455
40478W        W 6887  26.761  26.041   3.727
40479W        W 6888  17.572  23.132  11.036
40480W        W 6889  19.321  11.671   3.323
40481W        W 6890  31.009  33.851  14.152
40482W        W 6891  35.983  13.409  14.393
40483W        W 6892  26.830  35.448   3.983
40484W        W 6893   6.278  20.664   3.213
40485W        W 6894  14.767  30.194  11.625
40486W        W 6895  31.886   9.957   2.308
40487W        W 6896  38.564  36.889  14.256
40488W        W 6897  24.956  34.848   0.982
40489W        W 6898  27.622  21.800   4.242
40490W        W 6899  18.729  28.406  10.557
40491W        W 6900  23.766  16.172   2.830
40492W        W 6901  27.479  13.187   4.037
40493W        W 6902  27.089  28.497  13.426
40494W        W 6903   2.245  41.422  12.439
40495W        W 6904  11.248  26.010   0.478
40496W        W 6905  11.426   8.574  13.016
40497W        W 6906  31.593  30.405   2.318
40498W        W 6907  33.553  11.724   3.175
40499W        W 6908  11.399  17.627   0.832
40500W        W 6909   4.362  44.929  10.738
40501W        W 6910   0.014  28.182  12.001
40502W        W 6911  11.196  28.525  10.716
40503W        W 6912  25.212  28.953   3.117
40504W        W 6913  39.398  35.613   0.231
40505W        W 6914  37.826  23.567   2.631
40506W        W 6915  18.867   7.653   2.397
40507W        W 6916  10.014  28.426   3.170
40508W        W 6917  23.501  28.397   0.714
40509W        W 6918  28.539  16.393   2.329
40510W        W 6919  36.880   3.809  11.790
40511W        W 6920  11.657  32.313   1.376
40512W        W 6921   7.563  37.309  14.578
40513W        W 6922  26.066  43.973  10.724
40514W        W 6923  37.120  29.062  13.983
40515W        W 6924  14.334  44.284   1.245
40516W        W 6925  18.225  32.000  13.102
40517W        W 6926  38.947  16.480  14.829
40518W        W 6927  40.706  31.447   3.130
40519W        W 6928  41.906  28.350  13.560
40520W        W 6929  39.351  20.391  12.915
40521W        W 6930   6.856  32.471  11.688
40522W        W 6931   6.192  31.629   2.858
40523W        W 6932  37.958  13.911   0.290
40524W        W 6933  40.574  16.497   2.115
40525W        W 6934   7.919  10.067   0.753
40526W        W 6935  13.801   5.275  13.602
40527W        W 6936  15.772   3.884   2.268
40528W        W 6937  39.096  42.872  13.426
40529W        W 6938  37.135  29.346  13.544
40530W        W 6939  18.784  19.201   3.630
40531W        W 6940  44.155  11.777  12.342
40532W        W 6941  11.126  18.335   3.232
40533W        W 6942   9.203  21.567  13.873
40534W        W 6943   4.013   7.471   0.900
40535W        W 6944  12.165   4.815  13.959
40536W        W 6945   3.848  38.015   4.105
40537W        W 6946  44.769  23.540  14.787
40538W        W 6947  13.261  19.365  11.095
40539W        W 6948  20.154  11.859  11.514
40540W        W 6949  18.048  14.305   4.163
40541W        W 6950  13.213  32.515  10.663
40542W        W 6951  19.260  30.696   2.309
40543W        W 6952  25.968  29.684   4.331
40544W        W 6953  22.104  20.493   4.866
40545W        W 6954  35.007  23.022  10.848
40546W        W 6955  44.787  41.550   1.355
40547W        W 6956  11.473  36.896   4.633
40548W        W 6957   3.273  42.019  13.338
40549W        W 6958  38.531  33.259   4.636
40550W        W 6959  12.310   7.898   4.144
40551W        W 6960  10.702  32.461   2.309
40552W        W 6961  30.490  30.640   1.790
40553W        W 6962  29.097   7.428  14.396
40554W        W 6963  12.364  22.930   1.049
40555W        W 6964  23.220  11.650   0.408
40556W        W 6965  28.444  21.544   1.292
40557W        W 6966  20.521  43.869   0.344
40558W        W 6967  24.494  25.004  11.650
40559W        W 6968  29.225  17.075  14.795
40560W        W 6969  16.042  33.533   1.671
40561W        W 6970  38.396   5.374  14.630
40562W        W 6971  16.891  39.133  13.191
40563W        W 6972  22.031  34.833  11.175
40564W        W 6973  39.613   1.712   4.152
40565W        W 6974  38.563  27.479   4.056
40566W        W 6975  22.051   9.995   0.974
40567W        W 6976  10.280  13.120   4.099
40568W        W 6977  14.564  14.564   2.612
40569W        W 6978  36.012   1.541   3.432
40570W        W 6979  13.759  16.626   4.098
40571W        W 6980  32.181  43.836   1.329
40572W        W 6981  28.312  27.021  14.452
40573W        W 6982   7.960  20.053  13.909
40574W        W 6983  44.947   8.857  12.031
40575W        W 6984  13.552  11.467  12.115
40576W        W 6985   5.828  16.850   4.043
40577W        W 6986   2.332  31.024  13.313
40578W        W 6987   2.232   0.829   4.118
40579W        W 6988  11.422  23.061  14.544
40580W        W 6989  31.828  10.903  11.174
40581W        W 6990  34.986  26.680  14.971
40582W        W 6991  10.586  21.565  14.787
40583W        W 6992  36.199  38.134  12.566
40584W        W 6993  39.417  31.441  12.002
40585W        W 6994  19.676  28.345  13.149
40586W        W 6995   9.124  43.535   3.687
40587W        W 6996  26.780  25.125   1.824
40588W        W 6997  44.927  10.141  12.486
40589W        W 6998  30.185  39.600  11.137
40590W        W 6999  25.439  32.346  11.866
40591W        W 7000  17.869  35.971   3.510
40592W        W 7001   7.773  11.734   3.712
40593W        W 7002  18.123  34.005   4.530
40594W        W 7003  29.361  18.256  11.003
40595W        W 7004   5.081   1.433  10.645
40596W        W 7005  40.936  36.677  14.261
40597W        W 7006  12.267  35.366   0.919
40598W        W 7007   0.862  13.225  11.087
40599W        W 7008   2.389   4.453  10.762
40600W        W 7009  31.051  29.407  11.695
40601W        W 7010  21.054  14.192  10.795
40602W        W 7011  39.589  42.608   1.375
40603W        W 7012  31.674  40.237  11.027
40604W        W 7013  35.039  23.018   2.240
40605W        W 7014  32.670  10.057  10.546
40606W        W 7015   3.335  38.016   2.796
40607W        W 7016  32.894  44.674  11.087
40608W        W 7017   7.123   8.863   1.312
40609W        W 7018  22.559  26.759   3.045
40610W        W 7019  44.643  23.229   2.906
40611W        W 7020   1.522  18.992  14.427
40612W        W 7021  40.816   5.449  11.449
40613W        W 7022  40.346  13.718  11.470
40614W        W 7023   0.852  10.886   3.173
40615W        W 7024   5.711  19.671   4.400
40616W        W 7025   3.439  27.010  10.693
40617W        W 7026   9.521   6.592  12.380
40618W        W 7027   2.309  19.278   3.771
40619W        W 7028  11.584  13.195   0.942
40620W        W 7029  24.589  16.797  10.675
40621W        W 7030  33.636   3.456  11.228
40622W        W 7031   9.244  17.188   1.531
40623W        W 7032  12.082  42.948  14.031
40624W        W 7033  17.174  16.089   1.268
40625W        W 7034  41.368  39.227   4.249
40626W        W 7035  22.819   7.277   3.207
40627W        W 7036  19.139  43.685   3.788
40628W        W 7037  39.914  29.535  13.484
40629W        W 7038   3.530   0.312   4.325
40630W        W 7039  20.083  30.243  14.752
40631W        W 7040  37.012  32.107   4.912
40632W        W 7041   2.296  12.376   3.267
40633W        W 7042  25.867  37.952   1.815
40634W        W 7043  20.871  26.949  10.773
40635W        W 7044   4.923  19.725  13.054
40636W        W 7045  35.087  28.225  12.914
40637W        W 7046  32.696   8.633  10.714
40638W        W 7047  30.187  14.770  13.472
40639W        W 7048  23.208  25.166   4.523
40640W        W 7049  16.273  44.571  12.019
40641W        W 7050   5.955  16.078   3.771
40642W        W 7051  11.242   3.254   0.330
40643W        W 7052   5.241  16.226  13.480
40644W        W 7053  34.956  28.845  14.154
40645W        W 7054  44.719  28.208  11.555
40646W        W 7055  19.325  16.579  13.823
40647W        W 7056  27.017  29.568  13.779
40648W        W 7057  15.546  27.226   3.608
40649W        W 7058  37.398   7.802  10.700
40650W        W 7059   1.388   3.488  10.766
40651W        W 7060   6.003  29.621   0.792
40652W        W 7061  18.277  12.875  11.499
40653W        W 7062  12.490  41.092  13.509
40654W        W 7063  27.551  33.190  11.722
40655W        W 7064  10.893  21.812   4.141
40656W        W 7065  40.953  30.133  11.406
40657W        W 7066  38.859  41.405  12.106
40658W        W 7067   9.267  31.620  14.505
40659W        W 7068  11.919  23.155  10.669
40660W        W 7069  41.007  13.108  12.836
40661W        W 7070  24.996  17.689  11.585
40662W        W 7071  38.893  36.361   4.661
40663W        W 7072  23.253  41.215   0.883
40664W        W 7073  35.634  41.501  14.924
40665W        W 7074  22.080  21.147   1.365
40666W        W 7075   4.741  36.496   1.200
40667W        W 7076  26.699  40.895   2.002
40668W        W 7077  32.542  30.075  14.459
40669W        W 7078  22.573  33.538   4.733
40670W        W 7079  36.229  14.359   4.223
40671W        W 7080  19.485  34.471  11.646
40672W        W 7081  24.849   5.183   4.026
40673W        W 7082  19.102  12.438   3.272
40674W        W 7083  27.141  15.726   2.351
40675W        W 7084  33.784  43.891  10.688
40676W        W 7085  41.384   4.786   1.825
40677W        W 7086  40.445  28.046  10.652
40678W        W 7087  42.228  12.371   0.285
40679W        W 7088  35.123  30.438  12.139
40680W        W 7089   6.632  32.677   4.559
40681W        W 7090  17.438  26.112  13.027
40682W        W 7091  43.341  14.252  13.853
40683W        W 7092  11.275  27.390  13.063
40684W        W 7093  21.222  35.130   0.336
40685W        W 7094  18.988  23.873  14.617
40686W        W 7095   7.345  10.781   3.522
40687W        W 7096  44.391  23.558  11.728
40688W        W 7097   7.577  22.512  14.617
40689W        W 7098  27.383  42.906  14.540
40690W        W 7099  21.876  16.340   1.653
40691W        W 7100  12.721  32.592   2.763
40692W        W 7101  16.209  28.787  13.055
40693W        W 7102  21.463  19.335  10.660
40694W        W 7103   2.841  20.874   1.794
40695W        W 7104  29.972  33.943   2.157
40696W        W 7105  24.038  13.110  12.857
40697W        W 7106  11.876  21.076  11.588
40698W        W 7107  10.496  36.894  12.130
40699W        W 7108   0.443  38.983  12.019
40700W        W 7109  43.815   7.955   1.887
40701W        W 7110   5.898   8.731  10.676
40702W        W 7111  39.929  17.270   1.245
40703W        W 7112  24.043   7.726   4.126
40704W        W 7113  32.375  38.661  14.103
40705W        W 7114  24.017  21.071  10.733
40706W        W 7115  33.423  38.106   2.288
40707W        W 7116  17.483  33.558   1.363
40708W        W 7117  16.633  25.955  14.957
40709W        W 7118   8.272  40.002   3.740
40710W        W 7119  21.808  36.097   0.287
40711W        W 7120   0.366   2.239   4.520
40712W        W 7121  10.779  35.468  11.586
40713W        W 7122  25.463  44.799   0.763
40714W        W 7123  10.621   6.660   3.114
40715W        W 7124  12.756  40.331   0.448
40716W        W 7125  16.891   0.923  11.555
40717W        W 7126   5.254  44.534  13.959
40718W        W 7127   9.645  16.526   4.039
40719W        W 7128  40.110  32.516  12.349
40720W        W 7129  28.276   4.466  14.429
40721W        W 7130  14.303  29.506  13.321
40722W        W 7131  29.492  13.272   2.832
40723W        W 7132   8.441  15.580   0.183
40724W        W 7133   0.901   0.379  10.366
40725W        W 7134   9.677  12.174  10.844
40726W        W 7135   6.573  20.874  12.960
40727W        W 7136  44.741  23.111  10.602
40728W        W 7137  38.278  13.284  13.873
40729W        W 7138  10.916  39.191   2.739
40730W        W 7139   6.219  24.913   1.001
40731W        W 7140  14.110  15.221  14.231
40732W        W 7141  40.820  33.793   0.708
40733W        W 7142  39.918  37.012   4.136
40734W        W 7143  25.640  39.828  13.153
40735W        W 7144  40.239   2.925   0.742
40736W        W 7145  39.116  19.850   5.064
40737W        W 7146   5.724  24.669  14.049
40738W        W 7147  13.590  37.092   9.872
40739W        W 7148   9.321  21.032   5.304
40740W        W 7149   8.723   2.509   2.874
40741W        W 7150  23.484  16.118  11.141
40742W        W 7151  28.973  17.636  11.379
40743W        W 7152   9.401   9.907  11.148
40744W        W 7153  22.066   2.829   3.983
40745W        W 7154  31.186  22.315   3.853
40746W        W 7155  38.433  23.123  13.849
40747W        W 7156  17.736   3.876   2.419
40748W        W 7157   5.205   8.437  14.418
40749W        W 7158  42.383  11.373   4.613
40750W        W 7159  20.463  13.737   3.176
40751W        W 7160  38.147  40.260  11.518
40752W        W 7161  29.022  43.824  11.853
40753W        W 7162  18.174  29.552  12.108
40754W        W 7163  33.768   5.220  13.505
40755W        W 7164  11.265  11.334  14.940
40756W        W 7165  35.842   9.576  11.884
40757W        W 7166  14.322  35.765   2.380
40758W        W 7167   5.018  14.828   3.678
40759W        W 7168  13.277  18.864   0.991
40760W        W 7169  41.925  18.819  14.114
40761W        W 7170  28.876  25.513  14.842
40762W        W 7171  21.764  22.644   2.658
40763W        W 7172  40.117  20.793   2.880
40764W        W 7173  40.956   1.999   2.772
40765W        W 7174  30.841  29.303  14.476
40766W        W 7175  41.487  37.855  10.831
40767W        W 7176   3.149   4.881  10.804
40768W        W 7177  31.903  31.389   3.636
40769W        W 7178  12.128  18.271   3.330
40770W        W 7179  41.353   3.218   0.725
40771W        W 7180  16.383   2.171   4.750
40772W        W 7181  14.587  39.945   4.167
40773W        W 7182  14.722  14.723   4.532
40774W        W 7183  20.730  24.004   3.225
40775W        W 7184  31.018   2.667   0.396
40776W        W 7185  33.817   1.253   2.727
40777W        W 7186  42.840  41.713   2.948
40778W        W 7187  44.425  28.493   2.311
40779W        W 7188  42.863  17.837  13.801
40780W        W 7189  13.056  27.046  11.233
40781W        W 7190   8.442  35.613  10.690
40782W        W 7191  10.894  42.961  11.969
40783W        W 7192   6.382  37.359   4.675
40784W        W 7193  42.908  43.631  14.305
40785W        W 7194   9.751   2.334   0.928
40786W        W 7195   0.348   7.095  14.629
40787W        W 7196  23.199  40.594   3.366
40788W        W 7197  21.925   6.404   2.167
40789W        W 7198  22.308   2.175  13.316
40790W        W 7199  42.117  19.564   3.318
40791W        W 7200  31.904  11.652   0.687
40792W        W 7201   7.009   7.737   2.195
40793W        W 7202   4.450   2.901  12.947
40794W        W 7203  37.737   8.414  12.404
40795W        W 7204   0.431  24.522  12.392
40796W        W 7205  24.930  16.250  12.998
40797W        W 7206   5.804  38.423  12.558
40798W        W 7207  24.204   9.106  12.604
40799W        W 7208  34.491  36.781   2.730
40800W        W 7209  28.585  37.961  12.383
40801W        W 7210  10.219   8.579  12.322
40802W        W 7211  25.723  31.033   1.979
40803W        W 7212  40.977  39.599  11.959
40804W        W 7213  11.077  18.741   0.235
40805W        W 7214  16.154  36.607  11.180
40806W        W 7215   0.264  16.752  10.772
40807W        W 7216  38.051  12.534   2.840
40808W        W 7217  34.430   6.402  14.078
40809W        W 7218  18.558   9.400  12.148
40810W        W 7219   3.740  27.122   2.804
40811W        W 7220  21.494   4.278  11.599
40812W        W 7221  27.518  11.426  11.052
40813W        W 7222  34.618  39.786   2.413
40814W        W 7223  34.612  34.163  11.911
40815W        W 7224   8.317  10.300   2.642
40816W        W 7225  36.466  14.181   0.428
40817W        W 7226  15.078  10.758  11.569
40818W        W 7227  29.024  14.216  12.471
40819W        W 7228  41.797   4.508   4.561
40820W        W 7229  43.252   7.755   4.599
40821W        W 7230  44.841  35.110  12.978
40822W        W 7231  24.519  19.987  14.851
40823W        W 7232  20.317  18.231   4.743
40824W        W 7233  28.147  33.904   0.438
40825W        W 7234   5.900  18.761   3.245
40826W        W 7235   5.892  16.283  14.797
40827W        W 7236  27.448  36.841  13.059
40828W        W 7237  44.318  15.026  13.499
40829W        W 7238  10.967  35.629  12.040
40830W        W 7239  34.809   8.646   1.086
40831W        W 7240  24.610  12.376   3.600
40832W        W 7241  19.227   7.275  11.204
40833W        W 7242   2.680  13.614  12.462
40834W        W 7243  44.284  30.043  12.596
40835W        W 7244  28.279   2.368  10.811
40836W        W 7245  37.856  37.417  13.562
40837W        W 7246  22.261  19.514   3.628
40838W        W 7247   3.911  41.944  14.475
40839W        W 7248  14.272  26.606  11.395
40840W        W 7249  35.750   4.657  12.752
40841W        W 7250  17.870  17.621  14.825
40842W        W 7251   8.300  40.525  10.670
40843W        W 7252  29.500  19.196   3.727
40844W        W 7253   1.943  11.615  10.765
40845W        W 7254   2.179  41.064   1.339
40846W        W 7255  15.979  34.075  11.946
40847W        W 7256   4.967  33.478   2.229
40848W        W 7257  37.940  16.667   2.116
40849W        W 7258  17.468   1.956  10.800
40850W        W 7259   8.189   3.490  11.441
40851W        W 7260  20.266  36.865   2.824
40852W        W 7261  27.892  13.859  11.909
40853W        W 7262  30.511   5.395  13.317
40854W        W 7263  20.541  37.853   3.978
40855W        W 7264   0.884   3.698  12.840
40856W        W 7265  31.908   9.103   1.848
40857W        W 7266  44.724   2.860   3.529
40858W        W 7267  33.688  21.765   2.836
40859W        W 7268  35.895   4.363  13.971
40860W        W 7269   2.383  44.548  14.808
40861W        W 7270  37.455  26.377   4.581
40862W        W 7271   9.566  39.526  10.945
40863W        W 7272  10.836  20.523  12.547
40864W        W 7273  23.316  27.923   0.880
40865W        W 7274  27.434  17.991   1.943
40866W        W 7275  34.401  20.238  11.172
40867W        W 7276   6.514  10.236  13.524
40868W        W 7277   7.830  36.409  13.896
40869W        W 7278  17.352  10.283  12.317
40870W        W 7279  41.133   7.011   0.663
40871W        W 7280  16.308  19.338   2.664
40872W        W 7281  17.611  44.001   2.337
40873W        W 7282   5.915  44.950  12.388
40874W        W 7283  18.551   8.448  11.098
40875W        W 7284  38.932  16.834  12.794
40876W        W 7285  22.145   1.145  12.660
40877W        W 7286  12.811   3.224  11.245
40878W        W 7287   1.146  43.356   4.061
40879W        W 7288  37.869  25.478   1.348
40880W        W 7289  35.443  29.680   4.530
40881W        W 7290  15.607  34.389  11.569
40882W        W 7291  24.390  19.375   3.236
40883W        W 7292  16.004  36.563  11.677
40884W        W 7293  36.903  27.919   2.125
40885W        W 7294  11.703  25.081  14.888
40886W        W 7295  14.176   7.058  13.292
40887W        W 7296  22.294   7.564   4.886
40888W        W 7297   5.350  11.895   0.385
40889W        W 7298  39.376  19.518   0.299
40890W        W 7299  18.704  22.064   0.158
40891W        W 7300  23.685   7.380  11.097
40892W        W 7301  32.353  15.104  11.964
40893W        W 7302  31.517  15.023   2.679
40894W        W 7303   5.115   1.294  14.527
40895W        W 7304  21.391   3.821  11.833
40896W        W 7305  16.549  42.187   2.323
40897W        W 7306  43.802  35.410  10.649
40898W        W 7307  44.081   1.699   0.434
40899W        W 7308  24.165  21.465   0.762
40900W        W 7309   5.915  31.855  12.722
40901W        W 7310  28.238  24.695  12.976
40902W        W 7311   7.430  39.269   2.862
40903W        W 7312  40.470   2.812   1.718
40904W        W 7313   3.211  13.601   3.844
40905W        W 7314  35.600  10.624  14.330
40906W        W 7315   4.936   2.349  13.435
40907W        W 7316  21.689   2.236   3.429
40908W        W 7317  26.595   4.102  13.996
40909W        W 7318  20.477  30.433   1.809
40910W        W 7319  26.686   5.087  13.922
40911W        W 7320  29.278  14.795   4.238
40912W        W 7321   7.469   1.823  13.198
40913W        W 7322   3.272  10.739  12.072
40914W        W 7323  36.476   3.603  13.971
40915W        W 7324  31.656  36.311  12.272
40916W        W 7325  35.774   7.722   2.852
40917W        W 7326  36.342  29.937  14.956
40918W        W 7327   0.385  39.073  13.039
40919W        W 7328  14.752  20.137   5.367
40920W        W 7329   8.092   5.717   0.340
40921W        W 7330   6.179   1.996  11.224
40922W        W 7331  41.289  38.196  11.197
40923W        W 7332   6.164  43.996  14.488
40924W        W 7333  22.738  21.557  10.544
40925W        W 7334   4.919   0.184  11.051
40926W        W 7335   9.760  15.054  10.756
40927W        W 7336  37.370  40.906   0.684
40928W        W 7337  35.928  26.457  12.003
40929W        W 7338  33.576  31.019  10.732
40930W        W 7339  13.845  39.281   0.897
40931W        W 7340   5.907  42.665   1.260
40932W        W 7341  42.871   3.691   1.741
40933W        W 7342  20.832  29.665  11.919
40934W        W 7343  13.390  40.141   1.376
40935W        W 7344  22.739   9.383  12.501
40936W        W 7345   1.755  24.411   3.239
40937W        W 7346   3.611  16.438  13.639
40938W        W 7347  44.929  42.664   2.203
40939W        W 7348  13.028  17.783   1.792
40940W        W 7349  22.053  44.155  12.513
40941W        W 7350  30.457   0.665   3.627
40942W        W 7351  25.582  16.226   4.399
40943W        W 7352  16.438  17.920   4.041
40944W        W 7353  43.485  42.288   3.303
40945W        W 7354  40.928  30.944   0.242
40946W        W 7355   4.872   2.552  10.148
40947W        W 7356  38.259  38.350  13.367
40948W        W 7357  27.836  15.475  10.667
40949W        W 7358  25.300  12.347  14.993
40950W        W 7359  25.961  25.244   4.153
40951W        W 7360  28.390  11.796  11.971
40952W        W 7361  14.265  12.164  14.515
40953W        W 7362  16.387  35.030  14.400
40954W        W 7363   5.790  10.719  13.135
40955W        W 7364  20.209   1.990   0.041
40956W        W 7365  36.049  44.532   1.452
40957W        W 7366  38.039  43.035   3.209
40958W        W 7367  15.759   9.196  13.967
40959W        W 7368   4.719  31.098   5.104
40960W        W 7369  13.381  16.237   1.417
40961W        W 7370  20.263  15.707   0.300
40962W        W 7371   1.993  42.678   0.963
40963W        W 7372  14.744   4.891   2.371
40964W        W 7373  36.059  18.088  12.700
40965W        W 7374  17.580  20.735  12.945
40966W        W 7375  29.675   3.055   0.468
40967W        W 7376  30.600  37.123   2.572
40968W        W 7377   8.318  28.714   4.320
40969W        W 7378  28.538  13.332   3.348
40970W        W 7379  17.370  41.067  12.930
40971W        W 7380  13.908  12.783   0.261
40972W        W 7381  40.174  35.200  13.047
40973W        W 7382   5.887  20.522  14.243
40974W        W 7383  40.194  32.253   4.427
40975W        W 7384  38.043  26.054   0.052
40976W        W 7385   9.351  23.546   3.746
40977W        W 7386  13.485  29.432  11.193
40978W        W 7387   3.352  17.610   2.662
40979W        W 7388  23.752  39.928   1.352
40980W        W 7389  14.547  30.076  12.470
40981W        W 7390  31.860  17.673   3.015
40982W        W 7391   8.607  39.038  13.818
40983W        W 7392   2.686  30.543  11.220
40984W        W 7393  11.250  35.660   1.895
40985W        W 7394   4.224  37.461   0.813
40986W        W 7395  18.159  18.158  11.156
40987W        W 7396   5.815   4.765   4.861
40988W        W 7397  27.718  43.165   2.753
40989W        W 7398   6.790  12.551   3.814
40990W        W 7399   5.018  13.654  11.177
40991W        W 7400  16.034  32.696  10.241
40992W        W 7401  17.131   7.541  13.381
40993W        W 7402  14.088  43.086  10.538
40994W        W 7403  28.442  19.191   1.016
40995W        W 7404   9.163  36.183  14.807
40996W        W 7405  15.597  24.276   4.143
40997W        W 7406  34.596  23.888   2.212
40998W        W 7407   0.533  37.953  13.475
40999W        W 7408  12.104  27.665   3.864
41000W        W 7409  35.662  24.574   2.600
41001W        W 7410   9.433  34.073   1.283
41002W        W 7411  36.922  39.964  10.670
41003W        W 7412  11.214   7.986   3.243
41004W        W 7413  25.440  40.070  11.622
41005W        W 7414  35.146  36.065  14.294
41006W        W 7415  40.963  39.676  11.056
41007W        W 7416  11.783  20.298  12.855
41008W        W 7417  44.365   1.245   4.290
41009W        W 7418  19.731  38.745  14.956
41010W        W 7419   9.061  27.760  11.582
41011W        W 7420   3.896  33.316   1.651
41012W        W 7421  22.460  40.023   0.241
41013W        W 7422  15.079  18.602  14.896
41014W        W 7423  26.559  40.544  12.642
41015W        W 7424  14.217  29.028   0.117
41016W        W 7425  34.953  16.548  13.936
41017W        W 7426  33.475  27.799   3.080
41018W        W 7427  36.060  20.487   3.877
41019W        W 7428   3.623  23.444  12.544
41020W        W 7429   8.996   9.192   4.347
41021W        W 7430  15.884   4.902   1.880
41022W        W 7431  13.107  11.574  10.319
41023W        W 7432  11.866  31.905   4.548
41024W        W 7433  14.666  19.808   2.186
41025W        W 7434  17.255  43.388  13.660
41026W        W 7435  14.021  28.043   4.970
41027W        W 7436  17.899  34.499   4.503
41028W        W 7437  38.940  22.576   1.655
41029W        W 7438   9.268   1.224  12.931
41030W        W 7439  18.733  10.637   4.155
41031W        W 7440  29.410  13.355   4.528
41032W        W 7441   2.033   0.358  10.588
41033W        W 7442   0.488  43.247   2.640
41034W        W 7443  22.117  42.245  12.719
41035W        W 7444   3.852  28.402  12.919
41036W        W 7445   9.283  32.734   2.430
41037W        W 7446  24.505   9.377  10.732
41038W        W 7447   7.602   2.918   3.662
41039W        W 7448  12.365  20.738   0.886
41040W        W 7449  40.391   8.912   1.443
41041W        W 7450  18.763  13.176   2.864
41042W        W 7451  11.327  22.054  12.925
41043W        W 7452   1.285   7.144   0.448
41044W        W 7453  35.993  41.832   2.398
41045W        W 7454  38.969  15.326  10.140
41046W        W 7455  36.840  27.746   4.606
41047W        W 7456  17.712  23.206  13.986
41048W        W 7457  30.656  17.237   0.210
41049W        W 7458   3.853   3.893  12.111
41050W        W 7459  27.251  12.643  13.847
41051W        W 7460   7.776  10.889   2.803
41052W        W 7461  29.405  41.340   1.472
41053W        W 7462  13.607   1.355   0.475
41054W        W 7463  19.221   4.398  12.842
41055W        W 7464  27.166  22.733   0.370
41056W        W 7465  32.175  14.745   0.713
41057W        W 7466  19.816  32.557   4.001
41058W        W 7467  28.873  10.200  13.358
41059W        W 7468   0.674   9.085   1.917
41060W        W 7469  43.943  38.932   1.916
41061W        W 7470  20.133  36.484  14.932
41062W        W 7471  29.961  29.665   1.108
41063W        W 7472   9.811  22.238  14.524
41064W        W 7473  18.263   5.363   3.313
41065W        W 7474  37.942  40.114   1.986
41066W        W 7475  19.288   1.281  14.428
41067W        W 7476   9.160  37.484  11.993
41068W        W 7477  37.185  26.022   1.290
41069W        W 7478  38.932  43.374  12.319
41070W        W 7479  14.074   1.429   5.346
41071W        W 7480  33.772  26.687   3.231
41072W        W 7481  34.876  24.075  11.999
41073W        W 7482  15.180  42.961  14.330
41074W        W 7483   5.191  33.279   1.783
41075W        W 7484  41.391  28.402   1.090
41076W        W 7485  10.556  44.457   0.745
41077W        W 7486  31.322  15.142   2.197
41078W        W 7487  15.268  20.052  12.911
41079W        W 7488  20.591   1.779   2.892
41080W        W 7489  29.603  42.980   3.152
41081W        W 7490  37.916  25.789   4.365
41082W        W 7491  24.682  18.606  10.706
41083W        W 7492  40.947  41.604  11.566
41084W        W 7493  10.442  28.644  13.263
41085W        W 7494  33.006  11.264   0.505
41086W        W 7495   0.945  39.604   4.621
41087W        W 7496  34.843  37.851   1.290
41088W        W 7497  21.761  25.032   2.022
41089W        W 7498  35.645   4.268  11.601
41090W        W 7499  32.661  38.868   0.828
41091W        W 7500  15.183   7.430  12.447
41092W        W 7501   6.510  23.986  12.404
41093W        W 7502  26.398  42.914   0.657
41094W        W 7503  15.260  35.170  11.536
41095W        W 7504  27.343  10.316  12.639
41096W        W 7505  35.188  14.327   3.832
41097W        W 7506  13.635  12.146   1.332
41098W        W 7507  41.565  39.428   1.569
41099W        W 7508  21.481  36.806  10.592
41100W        W 7509  31.511  42.323  12.159
41101W        W 7510  22.572   9.760   3.936
41102W        W 7511  35.806   7.055   3.638
41103W        W 7512  14.351   9.666   0.640
41104W        W 7513  44.811   6.154   3.132
41105W        W 7514   6.875  40.414  12.412
41106W        W 7515   9.376   3.340  13.380
41107W        W 7516  44.836  37.409  11.546
41108W        W 7517   5.197  21.216   4.747
41109W        W 7518   5.287  20.240  12.059
41110W        W 7519  40.466   5.405  12.341
41111W        W 7520  35.077  32.913   0.045
41112W        W 7521   7.243  35.155   0.629
41113W        W 7522  40.598   8.256   3.480
41114W        W 7523   5.810  42.350   4.245
41115W        W 7524  14.354  43.370  13.648
41116W        W 7525   6.271  10.128   2.265
41117W        W 7526   4.660  10.230  12.670
41118W        W 7527  31.230  37.856  14.904
41119W        W 7528  13.187  11.165   4.429
41120W        W 7529  10.368   4.943   4.534
41121W        W 7530  43.867  34.352  12.423
41122W        W 7531   8.194  27.008  12.949
41123W        W 7532  31.899  11.402   1.910
41124W        W 7533   9.745  16.842   0.328
41125W        W 7534  41.889  24.322   4.697
41126W        W 7535  20.349  26.974  10.731
41127W        W 7536  41.530   4.739   3.749
41128W        W 7537   8.136  30.500   4.152
41129W        W 7538  18.077  20.843   9.780
41130W        W 7539   5.421  15.854   2.369
41131W        W 7540   7.841  36.119   4.530
41132W        W 7541  25.494  10.451  10.717
41133W        W 7542  33.980  16.482  11.639
41134W        W 7543  32.630  21.227  11.154
41135W        W 7544  44.058  22.086   0.435
41136W        W 7545  19.214  29.507  10.655
41137W        W 7546  17.845  41.424  12.387
41138W        W 7547   4.657  38.915  13.592
41139W        W 7548  14.393  27.943  10.723
41140W        W 7549   1.776  20.155   0.807
41141W        W 7550  43.097  40.171  10.981
41142W        W 7551  39.219  34.469   1.967
41143W        W 7552  13.317   5.398   0.557
41144W        W 7553  30.527  43.807   2.786
41145W        W 7554   0.777  40.964   4.408
41146W        W 7555  20.986  26.460   0.950
41147W        W 7556  20.461  25.395   0.393
41148W        W 7557  18.653  10.969  13.277
41149W        W 7558  30.570  33.666  13.949
41150W        W 7559  11.280  28.649   0.181
41151W        W 7560  41.651  39.956   2.280
41152W        W 7561  19.619  44.769  12.901
41153W        W 7562  14.786   9.402   3.417
41154W        W 7563  33.934   8.685   2.168
41155W        W 7564  24.532   6.649  14.458
41156W        W 7565  12.619  29.191  11.258
41157W        W 7566  24.675  20.286  13.523
41158W        W 7567  17.539  40.835  14.523
41159W        W 7568  20.792  33.459  14.249
41160W        W 7569  43.783  40.729   2.214
41161W        W 7570  18.901  39.965   0.944
41162W        W 7571   1.046  33.033  11.114
41163W        W 7572  41.459  39.837  11.076
41164W        W 7573  30.793  15.623  14.385
41165W        W 7574  43.319   7.650   1.695
41166W        W 7575  40.346   6.710   1.832
41167W        W 7576   8.442  17.131   0.297
41168W        W 7577  14.862  41.457  14.296
41169W        W 7578   3.387  17.183  10.767
41170W        W 7579  17.511   8.952   3.323
41171W        W 7580   8.681  30.726  13.411
41172W        W 7581  13.624  39.604  11.129
41173W        W 7582  22.759  44.965  10.651
41174W        W 7583  26.785  26.201  12.509
41175W        W 7584  37.973  24.789   4.150
41176W        W 7585  25.249  24.988  12.007
41177W        W 7586   0.082  27.572   4.034
41178W        W 7587  36.059  42.013   4.243
41179W        W 7588   5.927  19.577   0.981
41180W        W 7589  32.921  24.701  13.915
41181W        W 7590  23.271  31.339   1.326
41182W        W 7591   3.282  27.172   2.545
41183W        W 7592  28.915   7.291   3.460
41184W        W 7593   2.495  38.101   0.906
41185W        W 7594  22.729  37.048   1.180
41186W        W 7595  30.935  16.548   0.288
41187W        W 7596  12.237   2.299   3.406
41188W        W 7597  24.771   5.962  13.342
41189W        W 7598  36.953  21.521   1.469
41190W        W 7599  42.823  28.384  12.961
41191W        W 7600  11.816  40.281   0.488
41192W        W 7601   1.795  21.129   0.301
41193W        W 7602  28.196  27.414  10.394
41194W        W 7603  12.315  10.849  11.652
41195W        W 7604  29.530  38.375  13.022
41196W        W 7605  43.444  20.698  13.448
41197W        W 7606   0.640   3.441   0.319
41198W        W 7607  23.405  29.504  12.159
41199W        W 7608  10.360  42.072  12.707
41200W        W 7609  29.610  39.488   4.111
41201W        W 7610  28.686  34.506   3.340
41202W        W 7611  31.430  34.802   1.758
41203W        W 7612  33.114  16.641  14.921
41204W        W 7613  20.785  43.938   0.782
41205W        W 7614  32.043  10.396  11.073
41206W        W 7615  25.708  21.628  12.998
41207W        W 7616  37.059  28.520   3.146
41208W        W 7617   2.808  21.718  12.894
41209W        W 7618  13.212  25.640   1.456
41210W        W 7619  16.571  38.534  12.426
41211W        W 7620  32.557  38.080  11.721
41212W        W 7621   8.934  30.488   2.347
41213W        W 7622  28.335  15.617  12.962
41214W        W 7623  37.331  27.707  10.593
41215W        W 7624  29.770  31.596   2.992
41216W        W 7625  21.046  39.137  12.855
41217W        W 7626  34.635  41.588  14.040
41218W        W 7627  12.249   1.100   0.276
41219W        W 7628  12.435  31.086   3.314
41220W        W 7629  36.060  25.713  14.933
41221W        W 7630  15.867   7.723   1.944
41222W        W 7631  34.168  37.029  12.547
41223W        W 7632   7.384  28.181   5.127
41224W        W 7633  35.565  35.144   0.058
41225W        W 7634  38.131   4.780   4.803
41226W        W 7635  12.261  36.134   4.745
41227W        W 7636  36.598   7.205   2.869
41228W        W 7637  26.593  10.287  11.586
41229W        W 7638  41.483  12.382  12.626
41230W        W 7639  13.645  41.913  13.906
41231W        W 7640  13.446  40.428   2.115
41232W        W 7641   2.963   7.360   0.502
41233W        W 7642  16.589  26.690  12.049
41234W        W 7643  40.392  32.508  11.359
41235W        W 7644   1.717  37.950   1.310
41236W        W 7645  22.660  30.056  11.982
41237W        W 7646   0.858  31.795   3.169
41238W        W 7647   6.695  24.178   2.532
41239W        W 7648  12.363  19.268   1.954
41240W        W 7649  40.094  10.360  12.637
41241W        W 7650  18.489   0.059   1.904
41242W        W 7651  44.311  41.876   0.130
41243W        W 7652  17.988  13.569  11.983
41244W        W 7653  31.884  24.470  10.751
41245W        W 7654  12.117   2.443   1.202
41246W        W 7655  26.278  20.526   4.546
41247W        W 7656  13.719  36.971   2.219
41248W        W 7657  29.380  12.314  13.456
41249W        W 7658  31.175   8.233   3.784
41250W        W 7659   9.804  34.165  10.399
41251W        W 7660  37.373  32.470  14.870
41252W        W 7661  35.385   4.487  14.076
41253W        W 7662   6.221  32.284   0.316
41254W        W 7663  41.077  31.439   1.003
41255W        W 7664  39.876  25.625  14.143
41256W        W 7665  23.021  12.843   3.936
41257W        W 7666  36.988  16.802  13.450
41258W        W 7667  14.533   6.240   2.873
41259W        W 7668  22.571  20.235   1.194
41260W        W 7669   8.925   7.371   3.737
41261W        W 7670   9.884   4.080   2.076
41262W        W 7671  25.702  10.663  13.776
41263W        W 7672  37.989  14.004   2.906
41264W        W 7673  30.589   3.441   0.676
41265W        W 7674  31.574  33.675   2.843
41266W        W 7675  23.288  39.341   3.389
41267W        W 7676  40.303  28.385   1.116
41268W        W 7677  43.432  22.983  14.711
41269W        W 7678  32.128  21.217   3.321
41270W        W 7679  32.155  17.068   4.884
41271W        W 7680  30.116  36.401  13.182
41272W        W 7681  31.641   7.135   2.284
41273W        W 7682  21.690  17.713   3.301
41274W        W 7683  38.347   4.827   1.263
41275W        W 7684  28.188  38.031   3.020
41276W        W 7685   8.658  17.597   0.313
41277W        W 7686  22.029  12.389  14.887
41278W        W 7687   2.286   0.168  14.052
41279W        W 7688  21.884  22.911  10.171
41280W        W 7689  37.414  32.157   2.813
41281W        W 7690  21.208   6.630   4.643
41282W        W 7691  43.230  30.448  13.479
41283W        W 7692  22.690  29.511   4.856
41284W        W 7693  12.743   2.477   3.329
41285W        W 7694   9.315  38.040   0.562
41286W        W 7695  13.859  39.713  14.466
41287W        W 7696  39.418  33.621  13.624
41288W        W 7697  43.308  11.738  11.525
41289W        W 7698  42.388  43.708   3.258
41290W        W 7699   0.727  12.559   0.846
41291W        W 7700  42.471   3.462  10.785
41292W        W 7701  33.202  12.147  10.788
41293W        W 7702   4.738  23.013   1.375
41294W        W 7703  34.604  25.462   3.826
41295W        W 7704  35.983   9.085  11.982
41296W        W 7705  28.660   9.505   1.824
41297W        W 7706  10.082  19.689  14.925
41298W        W 7707  35.963   6.459   2.314
41299W        W 7708  26.967  36.164   2.340
41300W        W 7709  43.760  44.820  12.579
41301W        W 7710  29.469   8.819   0.948
41302W        W 7711  34.937  30.866   1.051
41303W        W 7712  37.091  33.400  13.028
41304W        W 7713  35.039   9.611   0.810
41305W        W 7714  22.233  20.702  10.309
41306W        W 7715  34.641  33.687   4.164
41307W        W 7716  37.758  10.004   4.534
41308W        W 7717   8.206  25.559   0.850
41309W        W 7718  17.634  20.168   3.604
41310W        W 7719  14.120  23.606  12.741
41311W        W 7720  32.829  35.643   1.253
41312W        W 7721  18.859  18.108   1.631
41313W        W 7722  14.729  33.862   0.865
41314W        W 7723  13.613  40.970  14.860
41315W        W 7724  27.697   7.518   3.560
41316W        W 7725   7.563  20.628   3.902
41317W        W 7726  14.714  28.660   3.968
41318W        W 7727   0.208  21.154   2.014
41319W        W 7728  16.377  10.797  12.882
41320W        W 7729  21.559   9.376   4.889
41321W        W 7730  33.724  18.269   3.768
41322W        W 7731  44.344  31.614   0.020
41323W        W 7732  15.422  23.228  12.954
41324W        W 7733  25.794   9.326  13.810
41325W        W 7734  28.858  13.200   1.792
41326W        W 7735  15.663   0.697  12.105
41327W        W 7736  14.211   0.526  11.912
41328W        W 7737  16.300  23.603   3.756
41329W        W 7738   6.754  27.502  11.228
41330W        W 7739  26.761   5.217   0.701
41331W        W 7740  17.198  22.980  12.822
41332W        W 7741  35.624  11.564   4.200
41333W        W 7742  11.623  39.369  12.037
41334W        W 7743  19.476   1.377   3.978
41335W        W 7744  28.603  32.626   0.951
41336W        W 7745  12.172  42.751   0.304
41337W        W 7746  22.977  21.332   1.932
41338W        W 7747  28.715  40.837   4.020
41339W        W 7748  18.368  32.575   0.915
41340W        W 7749  36.023   6.233  12.263
41341W        W 7750   5.273  11.669  10.032
41342W        W 7751  33.497  14.703  12.099
41343W        W 7752  14.079  28.680  13.843
41344W        W 7753  27.694  27.604  10.497
41345W        W 7754  31.338  39.691   0.813
41346W        W 7755  26.006  16.485   0.144
41347W        W 7756   1.444  30.880  14.706
41348W        W 7757   1.514   6.391  14.965
41349W        W 7758  18.644   1.259  12.048
41350W        W 7759   2.303  25.855   1.007
41351W        W 7760   5.432  24.137  11.549
41352W        W 7761   6.418  17.038  10.833
41353W        W 7762  43.565  35.003  14.089
41354W        W 7763  37.868   4.252   2.617
41355W        W 7764  28.672   8.366  13.018
41356W        W 7765  25.760   3.447  13.972
41357W        W 7766  30.390  42.048  14.280
41358W        W 7767  23.722  15.731   1.761
41359W        W 7768  14.869  15.205  11.889
41360W        W 7769  35.165  23.427  13.990
41361W        W 7770   8.317   9.942   3.866
41362W        W 7771  17.622  21.048  13.458
41363W        W 7772  38.319  25.043   3.836
41364W        W 7773   7.757   4.289   1.415
41365W        W 7774  27.692  10.080   0.505
41366W        W 7775  32.271  17.879   1.787
41367W        W 7776  17.064   6.039   3.281
41368W        W 7777  24.669   0.541   2.364
41369W        W 7778   0.434  34.050   3.060
41370W        W 7779  41.290  28.797  11.857
41371W        W 7780  15.258   8.488  11.591
41372W        W 7781  30.052  24.173  14.687
41373W        W 7782  11.812  41.410   1.362
41374W        W 7783  31.562  22.241   1.338
41375W        W 7784   3.386  16.053  12.403
41376W        W 7785  33.909  19.779   4.508
41377W        W 7786  25.656   1.787  14.741
41378W        W 7787  17.181  13.585  11.353
41379W        W 7788  25.622  31.704   2.101
41380W        W 7789  30.207  39.540  12.009
41381W        W 7790  41.905  17.812   4.207
41382W        W 7791  30.361  18.327  14.990
41383W        W 7792  15.197  41.712  13.929
41384W        W 7793  24.784  38.071   0.269
41385W        W 7794  38.972  22.380  13.965
41386W        W 7795  11.297  16.762  11.355
41387W        W 7796   3.884  35.962   2.319
41388W        W 7797   1.836  27.893   2.681
41389W        W 7798  33.016  37.745  13.369
41390W        W 7799  38.014   3.029  11.474
41391W        W 7800  28.246   0.375  10.623
41392W        W 7801   1.043  12.845   4.574
41393W        W 7802  38.434  12.108  10.552
41394W        W 7803  41.555  13.570   4.605
41395W        W 7804  33.499  41.918   3.662
41396W        W 7805  20.136  24.976  14.685
41397W        W 7806  21.476  25.218   5.112
41398W        W 7807   8.310   5.415   4.234
41399W        W 7808  23.487  24.574  13.998
41400W        W 7809  18.383   2.711   0.790
41401W        W 7810   2.243  41.694  14.026
41402W        W 7811  26.029  29.226   0.936
41403W        W 7812  10.226  26.412  12.632
41404W        W 7813  31.896  28.827  11.710
41405W        W 7814  19.237   7.727   1.624
41406W        W 7815  14.204  13.963  12.350
41407W        W 7816  17.866   2.743  12.013
41408W        W 7817   6.189  27.806  14.313
41409W        W 7818  31.582  43.926   2.896
41410W        W 7819   5.431  30.477   3.595
41411W        W 7820   8.157  14.839   0.795
41412W        W 7821  20.148  42.987  12.125
41413W        W 7822   3.580   9.794   4.227
41414W        W 7823  18.323   1.531  13.290
41415W        W 7824  42.494  44.953   1.497
41416W        W 7825  18.723  43.725   1.305
41417W        W 7826   9.216   7.370   2.406
41418W        W 7827  35.150   4.873  10.856
41419W        W 7828  31.009  38.027   3.339
41420W        W 7829   9.746  39.865  10.351
41421W        W 7830   2.043  17.643  13.324
41422W        W 7831  42.488  15.237   3.337
41423W        W 7832   9.188  26.141   1.352
41424W        W 7833   1.418   5.174   1.314
41425W        W 7834  33.863  37.535  14.239
41426W        W 7835  31.606  38.517  11.898
41427W        W 7836  38.240  39.975  11.080
41428W        W 7837  23.831   8.568   5.491
41429W        W 7838  22.130  33.629   0.852
41430W        W 7839  10.652  35.634  11.106
41431W        W 7840  25.135  13.885  11.535
41432W        W 7841  36.950   3.418  12.722
41433W        W 7842  30.131   9.205  13.891
41434W        W 7843  40.411  12.468   3.550
41435W        W 7844  40.787  10.242   3.712
41436W        W 7845  43.037  28.161   2.198
41437W        W 7846  39.133  32.533  12.324
41438W        W 7847  43.757  11.578  10.665
41439W        W 7848  31.444   9.277   0.690
41440W        W 7849  30.053  44.763  10.733
41441W        W 7850   7.809   5.708   2.792
41442W        W 7851  23.530   0.927   1.211
41443W        W 7852  27.349  39.108   1.405
41444W        W 7853  28.384   5.556   2.632
41445W        W 7854  25.009  31.383   4.640
41446W        W 7855  14.054  29.110   3.206
41447W        W 7856  11.728  22.717   0.820
41448W        W 7857  28.125  27.269  11.948
41449W        W 7858  16.595   4.778   2.162
41450W        W 7859   3.084  33.092  12.603
41451W        W 7860  44.361  31.321   1.449
41452W        W 7861  32.219  25.128   3.317
41453W        W 7862   6.359  19.010  13.068
41454W        W 7863   8.283   3.887   4.151
41455W        W 7864  39.106   2.162   4.791
41456W        W 7865   6.749   6.661  10.858
41457W        W 7866  20.026  18.145  14.555
41458W        W 7867  15.688  31.964   3.183
41459W        W 7868  41.094  40.094  11.332
41460W        W 7869   6.182  34.603   0.402
41461W        W 7870  11.742  12.921  10.943
41462W        W 7871  44.706  15.634  10.193
41463W        W 7872  22.486   6.019   2.234
41464W        W 7873  38.036  27.882  13.806
41465W        W 7874   4.819  23.660   2.001
41466W        W 7875  14.682  24.169   4.108
41467W        W 7876  11.155  25.376  12.898
41468W        W 7877  22.610   2.922  12.543
41469W        W 7878  30.974  36.599   4.761
41470W        W 7879   8.857  23.626  13.611
41471W        W 7880  16.330   3.009   0.849
41472W        W 7881  23.864  39.947   0.313
41473W        W 7882  13.960  25.979   3.660
41474W        W 7883  11.823  40.359  14.472
41475W        W 7884  11.346  18.833  10.268
41476W        W 7885  22.848  21.071  14.243
41477W        W 7886  30.094  37.816   2.808
41478W        W 7887   1.468  28.207  10.717
41479W        W 7888   9.404  25.201   1.136
41480W        W 7889  44.267  40.332   4.150
41481W        W 7890  33.373  32.963  14.618
41482W        W 7891  26.918   7.233   3.076
41483W        W 7892  29.938  20.746   3.208
41484W        W 7893  25.934  40.917   4.499
41485W        W 7894  28.392   0.666  13.228
41486W        W 7895  26.626   9.368   0.705
41487W        W 7896  16.081  33.093  11.584
41488W        W 7897  27.128  42.248  10.682
41489W        W 7898   1.460  13.194   2.211
41490W        W 7899  38.984  42.956   0.386
41491W        W 7900  14.676  26.021  14.795
41492W        W 7901   4.704  10.320   4.399
41493W        W 7902  19.201   9.404   0.839
41494W        W 7903  27.652  27.099  11.988
41495W        W 7904   9.979  29.505  12.384
41496W        W 7905   0.755  18.234  13.372
41497W        W 7906  40.300  30.885  11.526
41498W        W 7907  43.706  41.872  14.471
41499W        W 7908  43.801  15.331  10.576
41500W        W 7909   0.517  13.540   4.802
41501W        W 7910   6.435   9.891  12.434
41502W        W 7911  44.891   9.760  13.992
41503W        W 7912  14.109  27.751   0.823
41504W        W 7913  44.691   1.738  11.242
41505W        W 7914  27.265  21.769   3.355
41506W        W 7915  34.423  35.346  11.191
41507W        W 7916  23.509  14.271  10.698
41508W        W 7917  21.028   3.844  11.379
41509W        W 7918  35.465  20.679  11.597
41510W        W 7919  27.467  11.533   0.421
41511W        W 7920   2.379  25.250   0.476
41512W        W 7921   0.436  20.260   4.614
41513W        W 7922  23.469   2.516   3.248
41514W        W 7923  33.482  33.978   1.400
41515W        W 7924   8.369  30.125  14.857
41516W        W 7925   1.503  36.971   2.463
41517W        W 7926   2.424   8.453   5.191
41518W        W 7927  29.431  12.478  12.604
41519W        W 7928  14.698  33.066   3.105
41520W        W 7929  17.555   4.070  14.990
41521W        W 7930   3.328  11.215   0.043
41522W        W 7931  36.967  32.550   4.112
41523W        W 7932  16.831  43.794  12.615
41524W        W 7933  28.527  23.258  14.400
41525W        W 7934  40.211  40.143   5.003
41526W        W 7935  21.140   8.750   0.863
41527W        W 7936   7.713  34.813  12.093
41528W        W 7937  33.146  17.133   2.241
41529W        W 7938   9.315   7.951  13.522
41530W        W 7939   0.589  30.572  10.343
41531W        W 7940   1.351   3.049   3.154
41532W        W 7941  44.910  20.940  10.699
41533W        W 7942  44.587  29.110   9.831
41534W        W 7943  27.216  39.052  14.307
41535W        W 7944  21.936   8.716  13.031
41536W        W 7945  29.053   2.838   4.502
41537W        W 7946  36.237   1.809   1.645
41538W        W 7947  16.584  28.165  14.897
41539W        W 7948  19.449  14.018  10.718
41540W        W 7949  25.562  34.392  13.992
41541W        W 7950  36.329  19.006   0.807
41542W        W 7951  16.259  16.668   2.894
41543W        W 7952  33.473  35.937  13.516
41544W        W 7953  32.857   6.274   1.978
41545W        W 7954  37.488   7.248   4.030
41546W        W 7955   4.090  12.189   0.788
41547W        W 7956  29.615  10.715  12.318
41548W        W 7957  24.601  12.277  11.072
41549W        W 7958  30.535  25.454   0.183
41550W        W 7959  15.152   8.733  12.043
41551W        W 7960  25.743   7.488  10.246
41552W        W 7961  35.547  11.822  13.914
41553W        W 7962  41.005  35.514   2.320
41554W        W 7963  32.302   6.906   3.306
41555W        W 7964  27.321   9.845  11.439
41556W        W 7965  40.597  35.585   0.830
41557W        W 7966  26.212  13.184   1.785
41558W        W 7967  34.536   7.905  11.982
41559W        W 7968  41.728  29.099   4.646
41560W        W 7969   2.275  29.768   0.168
41561W        W 7970  44.465   3.657   0.710
41562W        W 7971   4.805  23.991  13.306
41563W        W 7972  12.872  11.657  14.308
41564W        W 7973  15.019   1.104   2.254
41565W        W 7974  18.627  14.370   0.638
41566W        W 7975  26.012  28.328  12.066
41567W        W 7976  27.767   3.895   3.456
41568W        W 7977  22.687  43.623   0.916
41569W        W 7978  30.975   0.891  14.511
41570W        W 7979  25.138   6.230   1.486
41571W        W 7980  19.479  44.352  13.781
41572W        W 7981  44.831  39.711   1.692
41573W        W 7982  35.814   0.901  10.712
41574W        W 7983  32.801  42.073   2.426
41575W        W 7984  42.952  12.722   4.297
41576W        W 7985  27.012   1.336   3.977
41577W        W 7986  18.167   5.815   2.695
41578W        W 7987  39.214   5.258  12.021
41579W        W 7988  35.726  22.853  13.596
41580W        W 7989  27.592  43.450   4.004
41581W        W 7990  42.062  26.729   0.479
41582W        W 7991  32.124   2.955   1.837
41583W        W 7992  31.055  16.275   0.797
41584W        W 7993   5.836  27.650  10.423
41585W        W 7994  10.824  32.410  12.997
41586W        W 7995  18.687   5.636  13.913
41587W        W 7996  25.204  36.309   5.097
41588W        W 7997  22.491  37.148  14.420
41589W        W 7998  42.302   2.890  12.203
41590W        W 7999   3.203   5.313  14.802
41591W        W 8000  11.212  18.723  10.745
41592W        W 8001   8.152  34.497  12.045
41593W        W 8002  18.471  41.064  14.341
41594W        W 8003  11.429  21.274   4.664
41595W        W 8004  22.018  35.674  14.831
41596W        W 8005  34.354  20.700   4.847
41597W        W 8006  31.973  19.291  13.476
41598W        W 8007  24.559  10.803   2.160
41599W        W 8008  10.322  20.098   3.723
41600W        W 8009  32.894  13.176  14.023
41601W        W 8010  12.359  19.987   2.780
41602W        W 8011  41.071  39.176  10.989
41603W        W 8012  29.052  12.248   2.735
41604W        W 8013  38.304  36.475  12.078
41605W        W 8014  10.741  30.523   4.809
41606W        W 8015  15.681  25.805   9.659
41607W        W 8016  39.581  29.927  12.014
41608W        W 8017  31.663  23.983  10.792
41609W        W 8018   6.434  23.237   4.080
41610W        W 8019  38.474  35.222   4.068
41611W        W 8020   9.339  12.649   0.644
41612W        W 8021  33.052  29.429   2.970
41613W        W 8022  12.114   4.381   1.816
41614W        W 8023   0.786  41.928   4.420
41615W        W 8024  33.689  17.710  10.787
41616W        W 8025  40.788  17.188   2.426
41617W        W 8026  10.250  41.863   1.208
41618W        W 8027  22.108  28.700   4.039
41619W        W 8028   6.333  27.144  12.001
41620W        W 8029  44.927   3.846   3.861
41621W        W 8030  20.100  26.457  13.609
41622W        W 8031  35.821  42.174  12.582
41623W        W 8032  39.817  44.935  12.391
41624W        W 8033   1.068  23.134  14.474
41625W        W 8034  38.605  19.350  10.661
41626W        W 8035  18.599  28.871  11.143
41627W        W 8036  38.894  42.904  12.500
41628W        W 8037  18.512  19.777  11.933
41629W        W 8038  32.982  42.888   0.353
41630W        W 8039  24.004  26.105  12.934
41631W        W 8040  18.591  13.887  14.777
41632W        W 8041  34.584   6.425   2.214
41633W        W 8042  17.574  14.382   4.325
41634W        W 8043  19.124   3.491   3.435
41635W        W 8044   5.334   0.306   2.199
41636W        W 8045  33.715  27.586   4.003
41637W        W 8046  20.141   6.917   0.100
41638W        W 8047  37.317   1.249  13.303
41639W        W 8048   5.344  40.743   2.170
41640W        W 8049  38.883   4.291   1.226
41641W        W 8050   9.621   4.486  12.923
41642W        W 8051  14.756  19.634  13.347
41643W        W 8052   3.932  32.399   4.391
41644W        W 8053   4.776  34.919  11.657
41645W        W 8054  34.425   9.115  11.398
41646W        W 8055  35.937   2.926  11.037
41647W        W 8056   8.879   8.160   2.830
41648W        W 8057  27.851  15.517  12.834
41649W        W 8058   2.858  29.691   0.950
41650W        W 8059  27.394   6.657   4.088
41651W        W 8060   2.731  44.178   4.884
41652W        W 8061  21.915   0.279  14.460
41653W        W 8062  23.190  41.456   3.988
41654W        W 8063  18.594   4.268  10.763
41655W        W 8064  29.159  10.743  14.039
41656W        W 8065  27.676  28.522  14.033
41657W        W 8066  39.822   4.030   1.423
41658W        W 8067  34.039  43.975  11.136
41659W        W 8068  12.706  35.356   4.500
41660W        W 8069  44.252  13.807  14.739
41661W        W 8070   1.034  32.515  12.173
41662W        W 8071  19.157  37.943  11.841
41663W        W 8072  30.457  44.832   2.721
41664W        W 8073   7.307  17.439  12.619
41665W        W 8074  36.362  26.125   0.200
41666W        W 8075  26.390  38.517  12.017
41667W        W 8076  19.082  10.832   3.820
41668W        W 8077  10.765   8.366   1.226
41669W        W 8078   7.697  15.193  14.446
41670W        W 8079   1.741  17.258   3.169
41671W        W 8080  15.867  23.401  12.571
41672W        W 8081  36.263  22.153   4.084
41673W        W 8082  38.315  44.473  12.159
41674W        W 8083  26.097  16.350  12.328
41675W        W 8084  40.896  24.062  14.979
41676W        W 8085  23.274  12.798   1.337
41677W        W 8086  38.632  30.816   2.999
41678W        W 8087   4.440   7.344   3.304
41679W        W 8088   7.412  20.905  13.344
41680W        W 8089   2.373  42.450   2.687
41681W        W 8090  35.051  16.275  11.620
41682W        W 8091  21.715  35.368   1.462
41683W        W 8092  30.591  15.628   9.811
41684W        W 8093  13.454  25.247   3.280
41685W        W 8094   0.970  28.648   4.390
41686W        W 8095  26.252   1.864  11.101
41687W        W 8096  34.957  26.935   2.627
41688W        W 8097  18.752  15.790   5.059
41689W        W 8098  16.586  19.176   1.316
41690W        W 8099  44.912   8.918  14.143
41691W        W 8100  42.701  38.425  13.426
41692W        W 8101   8.240  34.394  14.391
41693W        W 8102  22.353  36.928   2.412
41694W        W 8103  26.280  24.581   5.410
41695W        W 8104  14.148  15.740   1.386
41696W        W 8105  27.460  18.292  11.119
41697W        W 8106  28.661  18.531  12.927
41698W        W 8107  14.344   4.932   2.905
41699W        W 8108   9.123  12.147  11.617
41700W        W 8109  30.926  29.123  13.046
41701W        W 8110  10.895  29.636  12.824
41702W        W 8111  20.408  36.950  10.541
41703W        W 8112  30.503   4.943  11.127
41704W        W 8113  29.313  22.667   0.024
41705W        W 8114  41.760  44.455   3.004
41706W        W 8115  30.981  20.967  12.375
41707W        W 8116   2.393  21.215   0.974
41708W        W 8117  17.817  23.510  12.545
41709W        W 8118  11.291  39.427   3.635
41710W        W 8119  27.258  22.638   1.190
41711W        W 8120   9.817  19.663   3.161
41712W        W 8121  38.459  12.245  14.206
41713W        W 8122   1.827  16.854  12.180
41714W        W 8123  35.371  20.684   1.105
41715W        W 8124  33.509  31.120  14.851
41716W        W 8125  44.043  26.542  10.508
41717W        W 8126  41.261  27.046  10.659
41718W        W 8127  35.920   1.301  11.546
41719W        W 8128   7.472  42.263   0.683
41720W        W 8129   7.787  41.509  11.197
41721W        W 8130   9.746  35.358  12.871
41722W        W 8131   2.246  17.520   0.186
41723W        W 8132   3.700  37.880  11.467
41724W        W 8133  14.825  33.462  14.389
41725W        W 8134  35.342  20.776   2.282
41726W        W 8135  28.692  20.127  12.788
41727W        W 8136  25.617  17.239   0.683
41728W        W 8137  38.120  20.372  10.717
41729W        W 8138   6.259   0.294  10.640
41730W        W 8139  17.519  29.612   4.675
41731W        W 8140  18.989  25.485  13.208
41732W        W 8141  36.763   2.895  11.636
41733W        W 8142  38.818   3.153  13.902
41734W        W 8143   0.761  34.936   3.314
41735W        W 8144   5.418   8.888  14.372
41736W        W 8145  14.526   8.778   4.638
41737W        W 8146   8.782  33.071   3.112
41738W        W 8147  24.491  29.908  12.500
41739W        W 8148  24.178  31.458   4.254
41740W        W 8149  19.661  16.824   1.820
41741W        W 8150  15.745  20.610  11.549
41742W        W 8151   2.740   4.391   3.647
41743W        W 8152  25.189   2.912  11.564
41744W        W 8153  16.240  12.715   3.707
41745W        W 8154  17.799  25.457   0.487
41746W        W 8155  14.887   8.106  11.992
41747W        W 8156  37.072  27.665   0.834
41748W        W 8157  26.946   0.470  12.332
41749W        W 8158  21.704  30.436   1.484
41750W        W 8159   1.292  24.211   4.176
41751W        W 8160  18.541  21.139  13.065
41752W        W 8161  29.128  34.938  11.995
41753W        W 8162   5.221  25.259   1.989
41754W        W 8163   8.671  22.184  12.129
41755W        W 8164   4.463  35.564  10.642
41756W        W 8165  24.770  42.789  14.832
41757W        W 8166  37.419   7.491   0.804
41758W        W 8167   1.246  35.039   1.775
41759W        W 8168  14.931  32.136   0.259
41760W        W 8169  31.902   8.069  13.395
41761W        W 8170   8.849  35.684   1.621
41762W        W 8171  32.997   5.315   4.119
41763W        W 8172  21.340  15.037  11.067
41764W        W 8173  17.801  10.585   4.546
41765W        W 8174  24.869  28.673  12.341
41766W        W 8175  25.235  30.520   4.911
41767W        W 8176  22.494  44.817   0.185
41768W        W 8177  31.920  26.885  13.637
41769W        W 8178   2.072   3.377   0.468
41770W        W 8179  27.906  31.985   1.038
41771W        W 8180  35.811  29.474   2.868
41772W        W 8181  28.183  13.065   1.001
41773W        W 8182  22.264  18.733   1.959
41774W        W 8183  37.854  33.882  13.407
41775W        W 8184  24.982  21.070  12.586
41776W        W 8185   3.034  10.762  11.626
41777W        W 8186   7.758  37.032  11.469
41778W        W 8187  25.300  40.064   2.373
41779W        W 8188   1.545  40.705  13.875
41780W        W 8189  21.991  44.594  11.177
41781W        W 8190  18.018  27.434   1.870
41782W        W 8191   2.810  42.504   3.173
41783W        W 8192  43.779   5.065   4.064
41784W        W 8193  20.294  38.095  11.085
41785W        W 8194   0.688  18.232   0.918
41786W        W 8195   8.837   7.567  11.103
41787W        W 8196  29.855  42.908  13.210
41788W        W 8197  14.807  33.674  12.586
41789W        W 8198   7.676  44.862   3.633
41790W        W 8199  33.666  15.825   1.396
41791W        W 8200  25.267  37.755   2.784
41792W        W 8201  31.629  16.283   1.744
41793W        W 8202  37.287  44.621  12.363
41794W        W 8203   6.789  18.322   1.949
41795W        W 8204  21.729  14.826  11.373
41796W        W 8205  32.711  26.638  11.637
41797W        W 8206  22.472  39.949   4.962
41798W        W 8207  34.291  26.212   1.776
41799W        W 8208  16.151  15.342   3.203
41800W        W 8209  11.932   0.649  12.383
41801W        W 8210  42.203  38.140   1.290
41802W        W 8211  38.695  21.057   3.774
41803W        W 8212   1.734  17.556   0.857
41804W        W 8213  39.991   3.966  12.838
41805W        W 8214  28.465  14.624   1.861
41806W        W 8215  29.350  26.415  14.761
41807W        W 8216   4.437  41.004  14.586
41808W        W 8217   7.037  12.305  12.006
41809W        W 8218  24.582   2.260   0.317
41810W        W 8219  27.450  17.756  11.983
41811W        W 8220   6.943   6.194   4.531
41812W        W 8221  12.956  39.923   4.653
41813W        W 8222  17.809  10.847  13.858
41814W        W 8223   0.060  43.493  10.546
41815W        W 8224  36.483  32.916  14.767
41816W        W 8225  19.440  28.915   4.532
41817W        W 8226  29.520  16.591  10.912
41818W        W 8227  44.021  14.839  11.965
41819W        W 8228   4.901   5.674  14.039
41820W        W 8229  33.712  13.768  12.570
41821W        W 8230  25.016  15.414   4.679
41822W        W 8231  15.848  16.697   3.839
41823W        W 8232   1.740   2.221   3.118
41824W        W 8233   0.790  33.870  14.416
41825W        W 8234  21.107  37.953  14.417
41826W        W 8235  44.298  27.125  12.823
41827W        W 8236   1.996  38.016  14.303
41828W        W 8237  26.992  21.579   1.827
41829W        W 8238  28.987  40.849   0.431
41830W        W 8239  40.965  23.925  10.901
41831W        W 8240  29.434  24.120  11.807
41832W        W 8241   6.283  26.626  10.334
41833W        W 8242   1.404  41.820   1.775
41834W        W 8243  41.108  19.149   2.563
41835W        W 8244  26.259   5.160   0.707
41836W        W 8245   3.453  30.997   3.582
41837W        W 8246  17.237   0.758  14.323
41838W        W 8247   5.327  34.135  14.320
41839W        W 8248   7.803  35.328  12.176
41840W        W 8249  32.651   8.605  12.922
41841W        W 8250  15.155  26.948   3.783
41842W        W 8251   2.867  16.340  10.454
41843W        W 8252   6.572  41.935   3.391
41844W        W 8253  10.734  17.545   3.150
41845W        W 8254  36.208  14.877   2.811
41846W        W 8255  22.462  21.125  10.482
41847W        W 8256  18.116   2.936   0.376
41848W        W 8257  19.026  12.870  13.086
41849W        W 8258  44.780   2.246  14.742
41850W        W 8259  24.117  31.457  14.405
41851W        W 8260  28.428  39.581   0.805
41852W        W 8261  26.222  39.270   3.269
41853W        W 8262  40.853  42.077   1.533
41854W        W 8263  22.603  21.143  11.878
41855W        W 8264  32.906   4.074  14.027
41856W        W 8265  36.940  18.135  13.029
41857W        W 8266  19.306  34.962   2.899
41858W        W 8267   4.360  41.075  14.100
41859W        W 8268  30.362   9.195   1.964
41860W        W 8269   3.468  13.177   3.679
41861W        W 8270  42.284   1.653  11.271
41862W        W 8271   5.331  28.995   4.143
41863W        W 8272   9.126  43.908   0.982
41864W        W 8273  12.586   1.280  11.126
41865W        W 8274  23.157  29.863   2.376
41866W        W 8275  26.747  22.780  12.951
41867W        W 8276  21.070  36.890   1.904
41868W        W 8277  43.574   9.660  14.881
41869W        W 8278  36.278   1.020   2.406
41870W        W 8279  39.410  40.971   2.900
41871W        W 8280  22.529  40.955  14.325
41872W        W 8281  18.665  37.093  11.216
41873W        W 8282  42.497  32.585  14.071
41874W        W 8283  36.068  29.166  12.993
41875W        W 8284  18.648  26.075  12.440
41876W        W 8285  43.406   2.439  12.862
41877W        W 8286  27.855   2.370  12.464
41878W        W 8287  18.250  19.085  12.007
41879W        W 8288   1.167   5.655   2.168
41880W        W 8289  26.450  26.405  10.167
41881W        W 8290  31.994   0.387   2.416
41882W        W 8291   2.513  34.642   0.479
41883W        W 8292  34.607   9.727  13.137
41884W        W 8293  15.789  19.727  13.471
41885W        W 8294  24.155  27.043  14.339
41886W        W 8295  10.601   7.631  13.089
41887W        W 8296  42.588   5.739   3.695
41888W        W 8297   3.647  30.622   2.208
41889W        W 8298  38.902  43.007   2.292
41890W        W 8299   3.380  26.142  12.901
41891W        W 8300  30.219  41.825   4.960
41892W        W 8301   9.846   3.288   0.460
41893W        W 8302  31.098  21.163   0.366
41894W        W 8303  21.978  11.866  11.551
41895W        W 8304   7.945  37.993   1.208
41896W        W 8305  21.626   0.031  13.492
41897W        W 8306  27.431  31.654  14.304
41898W        W 8307  34.537  16.909   1.212
41899W        W 8308   4.370   2.221   2.730
41900W        W 8309  43.950  19.813   0.291
41901W        W 8310  19.738   3.139  14.662
41902W        W 8311  22.335  25.145   0.244
41903W        W 8312  41.659  30.278   2.362
41904W        W 8313  21.211  42.113   1.266
41905W        W 8314  14.865  37.400  14.739
41906W        W 8315  39.973  40.432  13.729
41907W        W 8316  34.095  20.902  13.821
41908W        W 8317   2.817   8.510  12.537
41909W        W 8318  28.393  25.178  12.545
41910W        W 8319  22.029  43.056   3.706
41911W        W 8320  17.252   1.416   3.443
41912W        W 8321   4.870  11.956  13.283
41913W        W 8322  28.192  21.454   5.012
41914W        W 8323   8.298  44.100  14.320
41915W        W 8324   3.791  26.966  12.178
41916W        W 8325  14.515  36.100  14.877
41917W        W 8326  30.279   7.772   0.095
41918W        W 8327  38.954   3.923  12.951
41919W        W 8328  26.439  10.910  14.186
41920W        W 8329  41.455  10.236  10.503
41921W        W 8330  36.939  21.264   1.015
41922W        W 8331   7.701  17.482   1.485
41923W        W 8332  39.435  18.164  14.265
41924W        W 8333  39.513  13.833   3.229
41925W        W 8334  31.435  24.046  14.035
41926W        W 8335  24.378  31.392   0.795
41927W        W 8336  12.602  13.332  14.749
41928W        W 8337  17.404  24.670  10.535
41929W        W 8338  27.094  21.268   1.380
41930W        W 8339  15.656   0.736   4.089
41931W        W 8340  32.885  14.735  10.856
41932W        W 8341  27.423  32.068   0.901
41933W        W 8342  27.989  36.991   2.201
41934W        W 8343  12.363  30.761  11.553
41935W        W 8344  43.070  31.066  13.520
41936W        W 8345  13.201  37.807  13.520
41937W        W 8346  35.455   0.808   1.401
41938W        W 8347  28.628   5.395  13.893
41939W        W 8348  38.452  24.555   2.812
41940W        W 8349  26.581   9.655  12.846
41941W        W 8350   0.237   2.896   3.676
41942W        W 8351  34.996  43.824  14.432
41943W        W 8352  10.811  42.312  11.575
41944W        W 8353  11.286  44.437   9.841
41945W        W 8354  20.531  17.301  14.891
41946W        W 8355   7.251  38.642  11.917
41947W        W 8356  18.268   9.313  12.568
41948W        W 8357  26.032  15.667   0.502
41949W        W 8358   2.455  21.139  11.539
41950W        W 8359   8.935   1.736   0.327
41951W        W 8360   7.267  28.804  14.500
41952W        W 8361  44.956   6.789  14.792
41953W        W 8362  14.219  44.813   0.282
41954W        W 8363  17.371   7.730   0.540
41955W        W 8364  26.929  28.573  12.934
41956W        W 8365  36.634  42.735   3.756
41957W        W 8366  19.187  18.559  12.529
41958W        W 8367  16.324  23.170   2.114
41959W        W 8368   8.354  14.825  12.109
41960W        W 8369   3.316  13.745   2.454
41961W        W 8370  28.581  34.201   1.399
41962W        W 8371  20.171  31.268  12.219
41963W        W 8372  12.248  32.619   2.539
41964W        W 8373  35.863  44.952  10.721
41965W        W 8374  27.737  13.147  14.711
41966W        W 8375  35.411  32.651  10.509
41967W        W 8376  27.488  25.118  12.855
41968W        W 8377  26.989  10.719   2.118
41969W        W 8378  26.817  31.555   5.124
41970W        W 8379  28.461  30.969   3.569
41971W        W 8380  16.774  22.565   0.367
41972W        W 8381   0.130  16.556  11.239
41973W        W 8382  39.846  30.476  12.228
41974W        W 8383  40.373  35.404  14.988
41975W        W 8384  36.681  32.154   0.808
41976W        W 8385  16.570   1.428   2.754
41977W        W 8386  17.154  33.618  12.990
41978W        W 8387   1.383  40.011   1.156
41979W        W 8388  25.968  42.748   0.425
41980W        W 8389  16.744  13.325   0.723
41981W        W 8390   5.809  17.716  13.065
41982W        W 8391  17.238  27.051   4.130
41983W        W 8392  40.557  12.741   1.797
41984W        W 8393  10.135  14.718  13.399
41985W        W 8394  39.607   0.114   2.801
41986W        W 8395  11.045  16.978  12.088
41987W        W 8396  41.497  11.807   3.348
41988W        W 8397  29.187  28.919   4.457
41989W        W 8398  16.483  29.014   4.141
41990W        W 8399  21.624   3.646  13.041
41991W        W 8400  11.863  25.466  10.801
41992W        W 8401  17.818  13.194   2.282
41993W        W 8402   9.336   4.605  13.378
41994W        W 8403  10.372  21.044   1.006
41995W        W 8404  44.017  17.171   4.259
41996W        W 8405  44.552   8.125   3.681
41997W        W 8406  30.471   8.602   2.523
41998W        W 8407  32.884  41.544  14.829
41999W        W 8408   2.859  16.183   4.084
42000W        W 8409  36.807  39.754  13.384
42001W        W 8410  29.199  16.567  14.929
42002W        W 8411  38.917   1.198   3.183
42003W        W 8412  25.468  11.713  14.868
42004W        W 8413  10.356  42.949   3.530
42005W        W 8414   1.003  22.236   2.387
42006W        W 8415  38.654  32.522  12.508
42007W        W 8416  35.055  40.490  13.507
42008W        W 8417  16.174  31.436   2.480
42009W        W 8418  21.453  25.152   4.221
42010W        W 8419  36.137   1.887  13.343
42011W        W 8420  22.774  29.985   1.784
42012W        W 8421  24.154  32.331  10.259
42013W        W 8422  29.027   9.365  12.027
42014W        W 8423  31.780  37.352  13.904
42015W        W 8424  41.403  42.045  14.807
42016W        W 8425  32.138   8.622   3.783
42017W        W 8426  35.507  36.911   0.510
42018W        W 8427  18.823  24.533  14.710
42019W        W 8428  26.550  30.489  11.930
42020W        W 8429  14.557  20.023  10.645
42021W        W 8430   6.921  32.541   0.282
42022W        W 8431  28.997  24.326   4.768
42023W        W 8432  36.401  33.583   4.509
42024W        W 8433  11.914  28.166  11.731
42025W        W 8434   7.992  21.739   4.294
42026W        W 8435  36.049  12.700   3.264
42027W        W 8436  34.901  14.089  12.945
42028W        W 8437  24.430  22.577   0.800
42029W        W 8438  27.805  16.154  11.693
42030W        W 8439  15.049  29.376   9.893
42031W        W 8440   4.851  27.206   1.535
42032W        W 8441  16.867  26.643   5.065
42033W        W 8442  26.305   9.792   2.682
42034W        W 8443  33.808  44.913   4.910
42035W        W 8444  43.193  40.371   0.708
42036W        W 8445  38.789  29.412  12.024
42037W        W 8446   7.245  28.503  14.044
42038W        W 8447  17.984  38.998  11.489
42039W        W 8448  23.491   9.157   0.461
42040W        W 8449  11.903  38.491  10.196
42041W        W 8450   9.845  32.507  13.516
42042W        W 8451  40.748  22.071  12.877
42043W        W 8452  24.906  24.680  13.535
42044W        W 8453  25.328  13.119  11.962
42045W        W 8454  35.529  29.801  10.712
42046W        W 8455  17.044  35.611  12.779
42047W        W 8456  21.689  42.783  13.570
42048W        W 8457  19.970   4.251   0.804
42049W        W 8458  27.598   2.625  12.833
42050W        W 8459  19.610  36.247   0.033
42051W        W 8460  23.708  17.993  12.811
42052W        W 8461  42.745  10.789  11.511
42053W        W 8462  33.969  14.524  11.276
42054W        W 8463  25.600  17.870   1.889
42055W        W 8464  32.216  44.282   5.054
42056W        W 8465  31.659  19.133  13.990
42057W        W 8466  21.808  40.763  10.623
42058W        W 8467  15.759  11.903  11.603
42059W        W 8468  44.175   8.356  13.209
42060W        W 8469  23.259  42.964   1.236
42061W        W 8470  37.904  25.589   3.290
42062W        W 8471  23.055   2.696  10.343
42063W        W 8472  24.706  16.597  14.941
42064W        W 8473  26.912  16.399   1.882
42065W        W 8474  31.455  21.324  13.471
42066W        W 8475  23.511  20.804   2.340
42067W        W 8476  21.187  16.741   1.111
42068W        W 8477  42.754  10.879  10.063
42069W        W 8478  19.755   7.350  12.986
42070W        W 8479   1.015  10.647   0.319
42071W        W 8480  29.169  26.231  13.008
42072W        W 8481  28.501  14.629   3.714
42073W        W 8482  33.414  10.723  11.548
42074W        W 8483   3.262   9.690  10.516
42075W        W 8484  29.881  36.372   1.738
42076W        W 8485  25.676  38.341  11.161
42077W        W 8486   9.303  43.345  10.716
42078W        W 8487  33.337  38.914   4.141
42079W        W 8488   5.652  42.336  14.404
42080W        W 8489  38.886  14.862   3.546
42081W        W 8490  30.051   6.666  11.101
42082W        W 8491  12.680  12.114   2.905
42083W        W 8492  36.638  17.482  14.228
42084W        W 8493  41.007  29.712  11.693
42085W        W 8494  39.067  10.085   0.302
42086W        W 8495  16.817  23.026  11.506
42087W        W 8496  43.752  10.354  12.184
42088W        W 8497  14.225  23.553  12.213
42089W        W 8498  10.501  19.664  14.256
42090W        W 8499  23.182  24.422   3.975
42091W        W 8500  20.838  32.337  13.297
42092W        W 8501  17.627  37.419   4.152
42093W        W 8502  30.104   1.301   1.739
42094W        W 8503  31.896   0.294  10.716
42095W        W 8504  22.375   7.295  13.867
42096W        W 8505  36.936  39.908  12.442
42097W        W 8506  23.137  42.279  13.702
42098W        W 8507  21.220   4.975  13.012
42099W        W 8508  30.005  23.548   2.787
42100W        W 8509  43.269  35.024   2.632
42101W        W 8510  42.765  44.960   3.657
42102W        W 8511  11.785  36.126   0.820
42103W        W 8512  41.680  13.812  12.967
42104W        W 8513  20.363  34.017   1.297
42105W        W 8514  14.764  26.498   0.029
42106W        W 8515   6.770  33.862  10.566
42107W        W 8516  12.655  23.209  11.386
42108W        W 8517   3.127  39.016  11.062
42109W        W 8518  39.835  17.139  14.769
42110W        W 8519   2.880  30.606   3.791
42111W        W 8520  29.484  25.250  12.883
42112W        W 8521  37.305  11.623  11.606
42113W        W 8522  41.001  17.234  13.454
42114W        W 8523  26.435  42.026   0.722
42115W        W 8524  26.572  39.374   3.711
42116W        W 8525  44.700  23.712   2.731
42117W        W 8526  10.763  12.834  11.187
42118W        W 8527  10.671  37.169   9.859
42119W        W 8528  27.415  44.851   3.293
42120W        W 8529  26.821   6.260   5.045
42121W        W 8530  42.193  14.194   0.293
42122W        W 8531   2.802  32.725  11.640
42123W        W 8532   6.900  12.063  13.412
42124W        W 8533  20.158  29.125  13.927
42125W        W 8534   8.788   4.666  11.097
42126W        W 8535  38.332  34.104  13.379
42127W        W 8536  15.850  35.042   0.286
42128W        W 8537  43.826   2.207  13.111
42129W        W 8538  37.358  22.982   3.729
42130W        W 8539  43.240   2.742   2.903
42131W        W 8540  29.151  39.907  11.574
42132W        W 8541   7.206   4.083  12.517
42133W        W 8542   1.839  44.556  12.534
42134W        W 8543  23.217  17.621   1.669
42135W        W 8544  35.788  37.972   1.452
42136W        W 8545  36.622  13.313  13.951
42137W        W 8546  42.004  37.854   0.865
42138W        W 8547  37.444  25.299  13.971
42139W        W 8548  43.723  40.397  11.189
42140W        W 8549  30.664   0.043   0.739
42141W        W 8550  23.986  40.387   2.134
42142W        W 8551   2.246  22.654  13.687
42143W        W 8552  12.615  13.682   2.440
42144W        W 8553   8.912  28.455   1.619
42145W        W 8554  12.098  19.639  14.887
42146W        W 8555  15.671  18.303   1.407
42147W        W 8556   2.769  24.099   4.274
42148W        W 8557   6.970  41.838  12.515
42149W        W 8558  26.982  15.272   4.083
42150W        W 8559  15.147   6.114   4.062
42151W        W 8560  35.016   2.523  12.682
42152W        W 8561  32.507   3.349  14.701
42153W        W 8562  34.622  32.356   2.828
42154W        W 8563  37.037  38.553  12.013
42155W        W 8564  43.959  34.855   2.415
42156W        W 8565  39.033  20.704   0.709
42157W        W 8566  31.153  28.811   1.121
42158W        W 8567  19.581   2.556  12.781
42159W        W 8568   2.715  21.105  12.017
42160W        W 8569  39.854  27.590  14.839
42161W        W 8570  27.404  31.889   3.220
42162W        W 8571   3.897  37.865   0.183
42163W        W 8572  26.188  14.430   4.741
42164W        W 8573  31.874  42.111  12.919
42165W        W 8574  36.533  39.808  13.866
42166W        W 8575   4.812  40.289   3.730
42167W        W 8576  44.925  22.620  11.392
42168W        W 8577   4.246   2.214  14.775
42169W        W 8578  35.544  32.353  12.149
42170W        W 8579  34.533  22.720   1.470
42171W        W 8580  24.734  35.810   1.505
42172W        W 8581  32.667  17.723  10.755
42173W        W 8582  15.077  12.269   3.338
42174W        W 8583  44.910   4.202   0.910
42175W        W 8584  28.383  41.026   2.226
42176W        W 8585  23.786  14.860  13.325
42177W        W 8586  13.104   7.115   2.468
42178W        W 8587   4.697  19.099   2.781
42179W        W 8588  10.929  19.503  14.517
42180W        W 8589  41.464  32.352   2.875
42181W        W 8590   8.314  18.795   4.620
42182W        W 8591  19.034  21.701   3.089
42183W        W 8592  38.278  28.880   4.205
42184W        W 8593  44.820   3.881  14.295
42185W        W 8594  35.010  30.269  10.678
42186W        W 8595  31.900  16.491  12.568
42187W        W 8596  17.586   0.750  12.090
42188W        W 8597  29.479  11.805   4.828
42189W        W 8598  28.670  38.016   4.770
42190W        W 8599  29.493  18.285   1.809
42191W        W 8600  11.525   7.624  14.358
42192W        W 8601  25.257  42.821   4.198
42193W        W 8602  16.833  33.621  11.105
42194W        W 8603  23.947  38.070  13.093
42195W        W 8604  40.456  28.410  11.760
42196W        W 8605  18.636  29.976  10.674
42197W        W 8606  19.668  17.417   4.245
42198W        W 8607  10.414  19.721   1.334
42199W        W 8608   5.357  39.930   2.641
42200W        W 8609  29.686  30.485   4.596
42201W        W 8610  35.395  28.258  11.184
42202W        W 8611  35.981   3.908   1.632
42203W        W 8612  37.883   9.252   0.342
42204W        W 8613  44.784   8.810   2.690
42205W        W 8614  40.135   7.008  11.452
42206W        W 8615   2.314   4.894   1.496
42207W        W 8616  15.731   1.459   4.626
42208W        W 8617  14.602  25.951  12.994
42209W        W 8618  28.705  13.070   0.908
42210W        W 8619  16.707  11.246   4.917
42211W        W 8620  20.124  25.195   1.165
42212W        W 8621   1.866  37.381   3.240
42213W        W 8622   4.392   2.360  12.315
42214W        W 8623   2.551  16.957   5.121
42215W        W 8624   1.462   3.014  14.832
42216W        W 8625  36.917  14.609   0.708
42217W        W 8626   2.421   2.708   1.189
42218W        W 8627  37.195   7.964   4.000
42219W        W 8628  16.738  43.289  14.389
42220W        W 8629   0.846  43.158   3.702
42221W        W 8630  44.288   1.642   4.618
42222W        W 8631  18.198  40.270  11.117
42223W        W 8632  40.978  22.806   0.328
42224W        W 8633  18.274   5.766   3.650
42225W        W 8634  29.190   8.901   1.364
42226W        W 8635  24.491  15.078  14.282
42227W        W 8636  33.889  31.474   0.394
42228W        W 8637  12.275  25.971   1.868
42229W        W 8638   3.897  13.266  14.381
42230W        W 8639  11.151  11.905  12.445
42231W        W 8640  29.035  40.517   1.258
42232W        W 8641  37.279   7.716   2.378
42233W        W 8642   4.217  17.116   0.284
42234W        W 8643  21.055  36.101   4.419
42235W        W 8644  17.063  20.472  12.017
42236W        W 8645  37.884  40.985   0.851
42237W        W 8646   9.167  35.566  14.081
42238W        W 8647  38.546   3.041   3.208
42239W        W 8648   5.834  16.247  14.245
42240W        W 8649  12.426  25.261  11.516
42241W        W 8650  42.465  43.922  13.132
42242W        W 8651  28.435   8.405  14.847
42243W        W 8652  41.727   2.804  14.406
42244W        W 8653  10.260  43.804  14.069
42245W        W 8654  18.564  34.185   1.571
42246W        W 8655  15.843  21.647   3.122
42247W        W 8656  33.558  13.871  14.897
42248W        W 8657  27.826  33.527   4.629
42249W        W 8658  14.923  22.721   3.257
42250W        W 8659  37.411   8.289   1.471
42251W        W 8660  11.134   9.586  14.427
42252W        W 8661  31.569  27.616  14.253
42253W        W 8662  10.812   4.265   1.416
42254W        W 8663  36.376  29.093   3.399
42255W        W 8664  19.959  43.091  12.585
42256W        W 8665  31.916  41.937   0.479
42257W        W 8666  18.878  36.308   4.779
42258W        W 8667  43.123  42.753  14.419
42259W        W 8668   4.399  38.910  11.900
42260W        W 8669  16.196  19.142  14.031
42261W        W 8670  10.572  38.635  14.022
42262W        W 8671  41.934  30.133  11.147
42263W        W 8672   2.869  25.422   0.477
42264W        W 8673   7.583  40.774  14.850
42265W        W 8674  42.274  44.446  14.802
42266W        W 8675  30.105   3.365  12.881
42267W        W 8676  19.286  39.046  14.899
42268W        W 8677  31.836  16.695   3.792
42269W        W 8678  24.941   1.536   3.157
42270W        W 8679   7.581  17.979  11.076
42271W        W 8680  25.597  29.559   1.795
42272W        W 8681  16.700  41.269   3.344
42273W        W 8682   3.616   3.945   2.660
42274W        W 8683  17.737  16.419  14.503
42275W        W 8684  29.706   2.825  11.157
42276W        W 8685  10.320   7.872  10.639
42277W        W 8686  21.978  12.699   1.668
42278W        W 8687  23.915  16.286  12.958
42279W        W 8688   4.905  32.267   4.622
42280W        W 8689   1.409  19.297  13.006
42281W        W 8690   9.859  36.971   3.166
42282W        W 8691   2.229  40.480  11.624
42283W        W 8692   0.358   5.154  12.574
42284W        W 8693  25.975  41.546   0.565
42285W        W 8694  31.477   6.839   5.016
42286W        W 8695  16.743  12.107  10.739
42287W        W 8696   1.880   8.659  10.823
42288W        W 8697  25.267   5.618   3.152
42289W        W 8698  22.846  31.365   0.031
42290W        W 8699  38.908  10.443  10.784
42291W        W 8700  26.236  29.406   0.489
42292W        W 8701  35.119  42.307  10.727
42293W        W 8702  39.961  32.476   3.853
42294W        W 8703   4.485   9.937   0.337
42295W        W 8704  10.172  25.712  13.084
42296W        W 8705  22.721  39.809  10.595
42297W        W 8706  39.009  43.305  14.206
42298W        W 8707  10.948   5.676  12.273
42299W        W 8708   5.321  16.313   0.989
42300W        W 8709  32.221  13.256   1.077
42301W        W 8710  12.953   4.827   4.614
42302W        W 8711  22.531  11.069   4.448
42303W        W 8712  10.740   7.937   1.879
42304W        W 8713  10.675  39.860   0.738
42305W        W 8714  36.987   3.624   1.783
42306W        W 8715  14.670  11.188   4.109
42307W        W 8716  11.071  19.382   2.808
42308W        W 8717  21.187  27.727  12.044
42309W        W 8718  42.891  38.891  13.663
42310W        W 8719  30.030  10.573   4.309
42311W        W 8720  35.648  35.927  13.438
42312W        W 8721   9.444   6.921   2.543
42313W        W 8722  36.452  22.789   1.312
42314W        W 8723   8.519  38.602   0.015
42315W        W 8724  36.605  37.081   3.406
42316W        W 8725  43.418  26.117  10.499
42317W        W 8726   0.498  39.554  14.231
42318W        W 8727  12.034  40.017  11.538
42319W        W 8728  19.129  34.316  10.766
42320W        W 8729   7.354  33.299   5.342
42321W        W 8730  39.883  25.168   3.636
42322W        W 8731  26.652  14.340   4.523
42323W        W 8732   5.408  38.188  14.251
42324W        W 8733  13.131  15.745  11.882
42325W        W 8734  27.886  18.704   2.136
42326W        W 8735  30.123  17.725  13.387
42327W        W 8736   2.115   1.385  11.236
42328W        W 8737  30.543   7.619   3.692
42329W        W 8738  33.063  24.714   0.356
42330W        W 8739   0.968  36.025   3.806
42331W        W 8740  14.995   1.833  14.130
42332W        W 8741  17.697  21.002  12.526
42333W        W 8742  10.335  30.647   3.540
42334W        W 8743  12.653   6.823   1.940
42335W        W 8744  18.218  35.075   4.577
42336W        W 8745  24.077  30.024   4.554
42337W        W 8746  24.946  25.709  10.073
42338W        W 8747  25.809  36.476   2.860
42339W        W 8748   3.669  31.512   3.736
42340W        W 8749  25.949  32.327   4.234
42341W        W 8750  33.448  21.759  13.981
42342W        W 8751  39.488  24.709   4.817
42343W        W 8752   8.236   4.531   1.373
42344W        W 8753   0.543  22.618  11.519
42345W        W 8754  37.750   8.706   1.312
42346W        W 8755  43.428  16.829  10.363
42347W        W 8756  43.938   5.722  10.840
42348W        W 8757  21.852  11.654   4.642
42349W        W 8758  36.911  44.427  13.359
42350W        W 8759  10.870  14.872   0.823
42351W        W 8760  19.227  11.329   3.713
42352W        W 8761  18.092  24.219   0.221
42353W        W 8762  38.962  34.077   3.240
42354W        W 8763  27.723  16.363   3.682
42355W        W 8764  25.013  44.244   1.342
42356W        W 8765   8.176  35.874  13.447
42357W        W 8766  28.157  17.563  13.452
42358W        W 8767  16.797   2.490   1.418
42359W        W 8768   5.220  40.025   1.702
42360W        W 8769   8.803   0.238   0.379
42361W        W 8770  15.091  21.021   0.724
42362W        W 8771  41.046   9.570  14.356
42363W        W 8772  19.265   2.882   0.950
42364W        W 8773  17.191  10.288   1.204
42365W        W 8774   8.764  12.552   3.268
42366W        W 8775   5.400  42.396  11.472
42367W        W 8776   9.441  30.501   3.638
42368W        W 8777  36.674  34.425  12.995
42369W        W 8778   8.641  21.558   2.811
42370W        W 8779  16.656  38.287   3.052
42371W        W 8780  26.728   0.921   4.982
42372W        W 8781   9.348  21.184  13.040
42373W        W 8782   9.273  13.237  11.889
42374W        W 8783   2.887   8.938   4.670
42375W        W 8784  15.562  30.658   2.835
42376W        W 8785   1.458   5.792  14.214
42377W        W 8786   8.183  33.318   1.858
42378W        W 8787  36.433  18.887  13.999
42379W        W 8788  35.491  25.635  12.622
42380W        W 8789   4.328   5.482  12.028
42381W        W 8790  30.968  29.920   1.800
42382W        W 8791   8.362  22.145  14.749
42383W        W 8792  27.918   7.884   0.553
42384W        W 8793  37.340  15.555  10.527
42385W        W 8794  24.637  23.625  12.859
42386W        W 8795  14.729  13.696   0.664
42387W        W 8796   3.608  11.123   3.245
42388W        W 8797  22.332  22.652   3.134
42389W        W 8798  25.765  25.591   2.349
42390W        W 8799   1.768  35.222   1.330
42391W        W 8800  31.097  34.938  14.198
42392W        W 8801  37.593  13.314   2.669
42393W        W 8802  37.027   1.217  14.034
42394W        W 8803  20.443   1.963   3.353
42395W        W 8804   4.690   8.879   1.796
42396W        W 8805  40.518  19.031  13.710
42397W        W 8806   4.018  13.167   0.806
42398W        W 8807  37.437  20.066  14.995
42399W        W 8808  11.725  34.525  12.940
42400W        W 8809  26.897   9.222   4.040
42401W        W 8810  20.998  30.053   2.268
42402W        W 8811  43.371  25.197  13.985
42403W        W 8812  20.650  26.598  11.867
42404W        W 8813  39.575  44.468  14.367
42405W        W 8814  37.669  16.850   1.711
42406W        W 8815   6.706  37.039  14.313
42407W        W 8816  27.380  13.817  13.573
42408W        W 8817  29.684  23.933  14.410
42409W        W 8818   1.324   9.937  11.001
42410W        W 8819   6.153   4.274  14.589
42411W        W 8820  10.028  41.275   3.172
42412W        W 8821  40.505   5.717  11.092
42413W        W 8822  10.740   2.433  13.773
42414W        W 8823   7.682  13.692  12.145
42415W        W 8824  22.071  34.971   2.362
42416W        W 8825  15.892  16.132   4.169
42417W        W 8826  32.189  44.049  10.276
42418W        W 8827  29.625   9.530   3.866
42419W        W 8828  40.555  33.928  12.959
42420W        W 8829  25.047  11.091   0.338
42421W        W 8830   6.217  40.435  14.273
42422W        W 8831   3.437  24.196  10.548
42423W        W 8832  16.454  11.749   1.810
42424W        W 8833  11.348  31.866   4.552
42425W        W 8834  39.560  28.045   2.432
42426W        W 8835  18.238  39.753  13.345
42427W        W 8836  43.921   3.644   4.099
42428W        W 8837  34.917  11.121   1.801
42429W        W 8838   1.883  16.146   1.377
42430W        W 8839  22.977  37.502  12.109
42431W        W 8840  10.338  24.488   1.566
42432W        W 8841  19.144  12.860   2.153
42433W        W 8842  12.599  23.530  13.051
42434W        W 8843  28.690  39.305   2.188
42435W        W 8844  14.680  24.411   0.757
42436W        W 8845  15.877  12.423  12.393
42437W        W 8846   0.247   8.726  11.131
42438W        W 8847  14.093   1.075  11.097
42439W        W 8848  18.485   4.462  13.434
42440W        W 8849  28.422   2.485   3.599
42441W        W 8850   0.355  38.029   3.776
42442W        W 8851  19.107  30.225  11.080
42443W        W 8852  33.852  28.064   4.169
42444W        W 8853  38.398  27.110   4.381
42445W        W 8854  38.885  33.200   2.368
42446W        W 8855  15.707  37.413   3.671
42447W        W 8856   1.662   2.695   3.363
42448W        W 8857  33.440  21.001  12.465
42449W        W 8858  24.644  33.404   2.883
42450W        W 8859   1.970  26.438  14.271
42451W        W 8860  42.424  42.529   1.230
42452W        W 8861   4.800   3.408   1.026
42453W        W 8862  16.824   8.656   2.741
42454W        W 8863   0.705  28.053   2.115
42455W        W 8864   4.377  26.326   0.890
42456W        W 8865  24.647  15.222   4.210
42457W        W 8866  36.998   2.575   1.879
42458W        W 8867  15.762   6.458   2.076
42459W        W 8868  33.158  20.024  10.667
42460W        W 8869  27.607  18.684  14.004
42461W        W 8870  15.113  24.646   0.920
42462W        W 8871  31.375  25.156   0.535
42463W        W 8872   5.253  24.059  13.030
42464W        W 8873  17.331  17.315  12.004
42465W        W 8874  13.200  21.917  14.368
42466W        W 8875  42.447  11.836  14.383
42467W        W 8876  27.794  19.531   4.171
42468W        W 8877  29.689  26.182  13.024
42469W        W 8878  20.828  44.331  13.452
42470W        W 8879  27.953  34.269   0.742
42471W        W 8880   3.718  40.204   0.739
42472W        W 8881   5.745   1.717  13.502
42473W        W 8882  35.181  42.904   1.811
42474W        W 8883   5.367  11.674   4.440
42475W        W 8884  35.862  16.265  14.865
42476W        W 8885   7.898  20.461   0.481
42477W        W 8886  42.177  36.939   5.033
42478W        W 8887  29.370  18.976  12.433
42479W        W 8888  11.340   5.476  11.948
42480W        W 8889  10.877  32.082  12.003
42481W        W 8890  25.655  22.129  13.043
42482W        W 8891  14.106   0.713  11.453
42483W        W 8892  33.649  17.559  12.690
42484W        W 8893  31.072  37.365  12.009
42485W        W 8894  28.987  19.657   1.466
42486W        W 8895   6.903  24.029   3.529
42487W        W 8896  37.517  24.540   5.094
42488W        W 8897  43.294  35.595  12.405
42489W        W 8898  34.066  35.256  11.580
42490W        W 8899  40.296  35.679  12.944
42491W        W 8900  42.758  28.598   0.524
42492W        W 8901  11.798   6.916  13.541
42493W        W 8902  25.587  24.213   5.197
42494W        W 8903  26.440  14.927   0.699
42495W        W 8904   7.413  17.506  11.194
42496W        W 8905  37.526  11.022   2.797
42497W        W 8906  28.056  30.512  11.942
42498W        W 8907  24.712  33.588   4.585
42499W        W 8908   6.380  26.377  11.598
42500W        W 8909  30.683   3.433   4.147
42501W        W 8910  36.273  21.128   3.267
42502W        W 8911  14.575  24.046   2.602
42503W        W 8912  24.773  32.942   3.798
42504W        W 8913  13.080  30.605   4.782
42505W        W 8914  19.778  30.866   2.300
42506W        W 8915  29.442  22.267   1.667
42507W        W 8916   8.808  37.045  12.485
42508W        W 8917   1.861   8.480   2.103
42509W        W 8918   0.413   6.719   1.349
42510W        W 8919  34.433   8.693   0.251
42511W        W 8920  41.371  18.335  11.384
42512W        W 8921   4.501  18.319  13.988
42513W        W 8922  30.843  18.360   0.953
42514W        W 8923   7.300  31.554  10.347
42515W        W 8924  32.115   7.343  12.492
42516W        W 8925  23.041  33.404   0.912
42517W        W 8926  22.465  24.980   4.087
42518W        W 8927  35.026   8.394   3.663
42519W        W 8928  19.299  35.857   0.493
42520W        W 8929  12.038  34.253   3.118
42521W        W 8930   6.852  25.840   0.269
42522W        W 8931  44.781   4.896  10.157
42523W        W 8932  20.620  19.965   2.148
42524W        W 8933  35.076  25.523  13.852
42525W        W 8934  33.625   5.313   1.357
42526W        W 8935   8.631  30.395  11.063
42527W        W 8936  40.037   3.868   3.734
42528W        W 8937  36.426  38.956   1.157
42529W        W 8938  29.595  35.827   0.820
42530W        W 8939  13.781  24.655   0.298
42531W        W 8940   3.189  37.307   0.896
42532W        W 8941   6.383   4.039   3.839
42533W        W 8942   5.707   5.635   1.732
42534W        W 8943  19.684  12.940  11.643
42535W        W 8944  32.116  39.370   1.134
42536W        W 8945  22.270   9.384  11.110
42537W        W 8946  29.700  42.883   4.109
42538W        W 8947  11.334   9.944  13.544
42539W        W 8948  19.608  40.019  11.965
42540W        W 8949  43.216  37.559   2.662
42541W        W 8950  25.707  28.146   0.217
42542W        W 8951   6.775  40.264  13.880
42543W        W 8952  27.974  23.598   2.120
42544W        W 8953   0.267  40.992  11.891
42545W        W 8954  19.732  24.966  14.362
42546W        W 8955   3.175  41.783  13.799
42547W        W 8956   6.575   9.621   2.761
42548W        W 8957  34.667  44.419   2.776
42549W        W 8958  26.675  41.408  12.503
42550W        W 8959  32.423   5.762  12.599
42551W        W 8960  17.587  41.296  14.038
42552W        W 8961   8.314  43.995  11.843
42553W        W 8962   3.707  32.752  13.917
42554W        W 8963  15.905  37.398  14.043
42555W        W 8964   1.425   6.377  13.012
42556W        W 8965  13.448  10.335   5.119
42557W        W 8966  37.126  35.117   4.603
42558W        W 8967   9.402  31.350   4.080
42559W        W 8968  44.064   1.939   4.219
42560W        W 8969   0.301  18.029  13.055
42561W        W 8970   3.399  33.904   2.271
42562W        W 8971   0.486  22.539  14.778
42563W        W 8972   6.849  13.392   2.223
42564W        W 8973  20.659  14.405  12.048
42565W        W 8974  20.695  10.416   1.647
42566W        W 8975  11.783  12.751  11.952
42567W        W 8976  31.937  11.078   2.934
42568W        W 8977  44.610   4.398   3.313
42569W        W 8978  44.798  41.803  13.388
42570W        W 8979   7.508  21.206  10.698
42571W        W 8980   9.921  35.735   1.806
42572W        W 8981  23.263  24.972  11.960
42573W        W 8982  35.958   3.907  10.840
42574W        W 8983   5.415  17.309   3.820
42575W        W 8984  17.333  15.744  11.954
42576W        W 8985   8.354  34.504   3.659
42577W        W 8986   5.269  20.048   2.652
42578W        W 8987  37.343   6.879  14.797
42579W        W 8988  39.769   4.485   2.566
42580W        W 8989   1.404  30.817   4.952
42581W        W 8990  13.684   1.512  11.503
42582W        W 8991   5.673  10.376   1.146
42583W        W 8992  12.652  22.224  11.605
42584W        W 8993  19.598  33.512   1.536
42585W        W 8994  43.433  33.952  10.356
42586W        W 8995   0.457   0.186  11.582
42587W        W 8996  19.862  32.395   4.488
42588W        W 8997  15.301  31.347   2.349
42589W        W 8998  36.118  19.711  13.908
42590W        W 8999   1.278  36.288   2.952
42591W        W 9000   4.513  31.541  12.831
42592W        W 9001   7.275  27.461   1.436
42593W        W 9002  41.508  19.738   1.736
42594W        W 9003   1.013   3.363  11.915
42595W        W 9004  19.912  36.896  10.664
42596W        W 9005   3.696  14.651   3.214
42597W        W 9006  40.472   7.924   3.094
42598W        W 9007  39.305  35.196  11.096
42599W        W 9008  11.598  15.710  10.596
42600W        W 9009   8.741  28.545   2.428
42601W        W 9010  31.911  26.075  14.400
42602W        W 9011   2.794  18.706  14.234
42603W        W 9012   7.249  14.865  12.480
42604W        W 9013  41.837  11.742  11.500
42605W        W 9014  15.626  31.854  12.894
42606W        W 9015  10.137  36.435   0.717
42607W        W 9016  18.226  42.514  12.431
42608W        W 9017  37.885  36.972   2.730
42609W        W 9018  27.002  17.325   3.228
42610W        W 9019  21.009  28.615  11.030
42611W        W 9020  25.447   6.855  14.561
42612W        W 9021  26.573  30.623   3.298
42613W        W 9022  30.174  33.844   0.173
42614W        W 9023   8.341  40.744  13.362
42615W        W 9024  25.298  27.974  11.118
42616W        W 9025   0.590  21.274  14.252
42617W        W 9026  44.977  33.210  14.358
42618W        W 9027  37.696  21.206  11.695
42619W        W 9028   8.296   9.702  11.505
42620W        W 9029  10.306  40.121   3.756
42621W        W 9030  43.399  22.624  10.256
42622W        W 9031  39.830  36.368   3.821
42623W        W 9032  23.718  33.107  11.090
42624W        W 9033  13.520  10.327  11.101
42625W        W 9034   0.864   7.150   4.059
42626W        W 9035   2.344  10.018  12.196
42627W        W 9036   4.786  27.632   3.083
42628W        W 9037  33.328  34.117  11.649
42629W        W 9038  19.690   6.658   0.181
42630W        W 9039  16.648  36.603   2.401
42631W        W 9040  34.909  42.225   2.369
42632W        W 9041   6.392   4.983   4.206
42633W        W 9042  23.985  32.100  10.709
42634W        W 9043   5.185   9.351  14.337
42635W        W 9044   6.349  33.901  10.908
42636W        W 9045  11.052  13.805  13.590
42637W        W 9046   6.654  40.981  10.702
42638W        W 9047  36.489  25.758  10.539
42639W        W 9048  12.338   2.180  14.411
42640W        W 9049  18.788  29.061   3.712
42641W        W 9050  12.829  42.433   4.487
42642W        W 9051  20.653  42.436   3.854
42643W        W 9052  38.617  11.846  14.543
42644W        W 9053  10.772  23.622  13.416
42645W        W 9054  40.345  36.007  10.681
42646W        W 9055  26.942  35.358  12.944
42647W        W 9056   0.147  37.075   0.994
42648W        W 9057   7.258  29.116   1.925
42649W        W 9058  21.535   6.880  11.055
42650W        W 9059  23.866  40.289  14.371
42651W        W 9060  28.686   3.751   4.704
42652W        W 9061   5.853  15.940  13.257
42653W        W 9062  31.915  38.472   4.237
42654W        W 9063  27.427  25.853   3.181
42655W        W 9064  25.417  20.947  11.642
42656W        W 9065  27.027  32.190  12.970
42657W        W 9066  43.838  30.962  11.569
42658W        W 9067  40.809  39.254   1.248
42659W        W 9068  32.827   9.578   0.997
42660W        W 9069  16.382  43.837   3.362
42661W        W 9070  37.436  41.280  10.985
42662W        W 9071   6.833  31.086  12.395
42663W        W 9072   4.332   6.223   2.075
42664W        W 9073  21.249  32.022  13.440
42665W        W 9074   0.139  17.578  11.167
42666W        W 9075  29.444  40.592  10.556
42667W        W 9076   1.690   6.660  10.552
42668W        W 9077  44.444   2.557   3.173
42669W        W 9078  28.079   4.802   4.195
42670W        W 9079  17.759  10.020  12.529
42671W        W 9080   4.478  31.372  13.874
42672W        W 9081  44.992   2.451   3.729
42673W        W 9082  27.892   5.771  14.489
42674W        W 9083  28.962  17.101  14.277
42675W        W 9084  13.044   1.630   3.209
42676W        W 9085   4.470  11.713  12.341
42677W        W 9086  17.037   2.401  11.587
42678W        W 9087  20.712   8.376  10.617
42679W        W 9088  10.203  23.992  13.813
42680W        W 9089  42.467  33.325   2.728
42681W        W 9090  16.101   4.944  14.504
42682W        W 9091  32.062   0.477   3.753
42683W        W 9092  39.250  20.124   2.328
42684W        W 9093  43.726  29.991   3.539
42685W        W 9094   0.322  42.384  13.147
42686W        W 9095  14.266  44.065  13.078
42687W        W 9096  13.283  22.735   1.132
42688W        W 9097  20.281  28.934  14.407
42689W        W 9098  23.923  26.630   0.026
42690W        W 9099  32.204  17.776  14.913
42691W        W 9100   4.227   3.429   1.954
42692W        W 9101  13.914   8.799   2.625
42693W        W 9102  43.095  23.166   2.521
42694W        W 9103   7.181  43.448  14.804
42695W        W 9104  43.819  10.177   0.269
42696W        W 9105  43.476  22.864   3.870
42697W        W 9106   2.993  12.865   0.549
42698W        W 9107   2.388  15.592  13.833
42699W        W 9108  28.834  24.514   3.934
42700W        W 9109  40.800  12.073  13.792
42701W        W 9110   9.926   1.869   2.359
42702W        W 9111  27.726  24.669  12.945
42703W        W 9112  42.068  26.235  14.885
42704W        W 9113  30.405  35.069  11.184
42705W        W 9114   0.976   7.339  10.675
42706W        W 9115   4.141  44.954   4.685
42707W        W 9116  42.586   0.728  12.588
42708W        W 9117  43.607  41.686   0.417
42709W        W 9118  17.542  12.724  12.885
42710W        W 9119  11.334  37.493   4.293
42711W        W 9120  32.679  44.938  14.902
42712W        W 9121   6.704  27.164   3.750
42713W        W 9122  19.582  38.270   1.382
42714W        W 9123  23.768  30.012  10.433
42715W        W 9124  27.437  13.914  10.709
42716W        W 9125  25.653  38.093  11.634
42717W        W 9126  26.697  18.325  12.621
42718W        W 9127   2.181  30.605   2.131
42719W        W 9128  12.329  33.672   3.997
42720W        W 9129   3.159  20.684   4.213
42721W        W 9130  41.954  36.157  12.349
42722W        W 9131  14.633  33.171  12.643
42723W        W 9132   8.370  43.586   0.719
42724W        W 9133  39.304   1.368  14.425
42725W        W 9134  42.847  29.077  14.333
42726W        W 9135  21.908  13.605  11.926
42727W        W 9136  42.149  12.653   3.728
42728W        W 9137  40.274   1.356   0.745
42729W        W 9138  15.585  11.279  14.412
42730W        W 9139  16.980  39.996   4.706
42731W        W 9140  40.813  10.576  14.549
42732W        W 9141   0.106  29.543   3.700
42733W        W 9142  19.831   8.701   2.609
42734W        W 9143  36.960  30.953  14.045
42735W        W 9144   5.668  17.721   1.687
42736W        W 9145  35.304  35.607  14.877
42737W        W 9146  11.834   2.256   1.594
42738W        W 9147  19.536  40.420   1.380
42739W        W 9148  40.982  40.510  12.529
42740W        W 9149  17.584  31.807  11.198
42741W        W 9150  44.809  26.558  10.099
42742W        W 9151  27.619   6.519  14.929
42743W        W 9152  14.048  12.664  11.237
42744W        W 9153  26.886  14.662  13.013
42745W        W 9154  23.711   7.656  12.865
42746W        W 9155  18.625  17.333   3.124
42747W        W 9156  20.438   6.945  12.472
42748W        W 9157   6.244  44.236  12.020
42749W        W 9158  20.854  43.267  14.707
42750W        W 9159  32.970  26.390   3.577
42751W        W 9160  39.445  35.968  13.561
42752W        W 9161  24.266  26.334  11.030
42753W        W 9162  21.381  11.788  12.204
42754W        W 9163  14.070  37.012   0.786
42755W        W 9164   3.015  22.434  13.362
42756W        W 9165   7.185  40.314   4.084
42757W        W 9166  44.856  41.791   3.241
42758W        W 9167  43.027  30.356  12.999
42759W        W 9168  41.509  33.932  10.723
42760W        W 9169  15.142  34.174  11.633
42761W        W 9170  33.475  43.738  12.150
42762W        W 9171  10.110  12.002   2.688
42763W        W 9172  21.667   9.011   1.621
42764W        W 9173  41.815  20.215   3.662
42765W        W 9174  33.848  14.825   2.301
42766W        W 9175  31.741   1.363   4.571
42767W        W 9176  43.946   6.417   3.083
42768W        W 9177  12.355  23.078  12.998
42769W        W 9178  11.266   7.450  10.928
42770W        W 9179  33.945   1.907  13.495
42771W        W 9180   8.182  28.962   1.202
42772W        W 9181  15.565  40.753   0.839
42773W        W 9182  41.509  17.025   1.135
42774W        W 9183  26.623  23.053  12.525
42775W        W 9184  36.810  31.005  12.575
42776W        W 9185   6.550  30.899   1.401
42777W        W 9186  31.356   6.392  13.573
42778W        W 9187  40.430  42.032  14.383
42779W        W 9188  26.973   8.222   1.303
42780W        W 9189  27.485  24.216  12.840
42781W        W 9190  26.028  14.595  11.932
42782W        W 9191  14.628  19.064   4.896
42783W        W 9192  30.721   6.292   3.642
42784W        W 9193  34.041  21.354   2.727
42785W        W 9194  15.319  29.912  11.617
42786W        W 9195  12.606  24.570  10.683
42787W        W 9196  43.484  12.442   2.809
42788W        W 9197  10.818  23.707   0.372
42789W        W 9198  11.674   9.573   0.321
42790W        W 9199  26.982  29.947  12.954
42791W        W 9200  40.789  37.093   0.515
42792W        W 9201  18.955  30.857  12.260
42793W        W 9202  15.811  18.300  13.573
42794W        W 9203  43.291  19.371  13.569
42795W        W 9204  10.258  30.639   2.794
42796W        W 9205  36.694  13.133   2.806
42797W        W 9206  38.514  20.151  10.958
42798W        W 9207  37.099   4.208  14.605
42799W        W 9208   3.763   9.279   4.801
42800W        W 9209  26.658  12.110  12.837
42801W        W 9210  23.459   6.033   2.917
42802W        W 9211  14.823  39.407   3.374
42803W        W 9212  16.062  35.286   2.077
42804W        W 9213  19.858  25.588   2.768
42805W        W 9214  31.406  19.783  11.621
42806W        W 9215   2.172  15.520   3.201
42807W        W 9216  12.836  10.053   0.374
42808W        W 9217  10.035  22.735   1.745
42809W        W 9218   2.714   1.414   4.222
42810W        W 9219   3.304  16.869   4.370
42811W        W 9220  12.404  15.009  13.881
42812W        W 9221  19.724   6.456   0.721
42813W        W 9222  22.590  24.277  14.719
42814W        W 9223  36.614   4.785  11.534
42815W        W 9224  35.888  25.602   3.112
42816W        W 9225  31.657  24.748  11.136
42817W        W 9226  39.621  14.728   4.127
42818W        W 9227  13.427   3.697  12.796
42819W        W 9228  18.250  21.881   4.215
42820W        W 9229  17.947  12.486   0.506
42821W        W 9230  36.783  29.744   3.693
42822W        W 9231  41.488  14.728  10.394
42823W        W 9232   8.626   5.278  14.593
42824W        W 9233   0.600   8.647   4.909
42825W        W 9234  24.388  23.061   1.787
42826W        W 9235  25.756  41.338   1.803
42827W        W 9236  30.597  40.034  14.381
42828W        W 9237  20.611  36.364   2.215
42829W        W 9238  24.473  39.209   3.817
42830W        W 9239   8.939  39.503   1.480
42831W        W 9240   1.598   3.188  11.132
42832W        W 9241  39.289  35.535   4.631
42833W        W 9242  38.447  22.572  11.543
42834W        W 9243  29.651  11.310   4.516
42835W        W 9244  33.823  24.113  13.820
42836W        W 9245   2.146  44.787   4.149
42837W        W 9246  29.364  15.508  11.704
42838W        W 9247  25.662   3.452  10.622
42839W        W 9248  41.903  37.037   4.586
42840W        W 9249  21.367  38.065  12.493
42841W        W 9250   6.800  13.785   3.145
42842W        W 9251  29.407  14.106  12.112
42843W        W 9252  35.076   3.501  13.898
42844W        W 9253  29.514  27.696   4.413
42845W        W 9254   7.256  32.822  12.095
42846W        W 9255   6.654   2.940  11.412
42847W        W 9256  18.846  15.311  11.289
42848W        W 9257  20.250  41.403  10.844
42849W        W 9258  44.002  32.155  10.112
42850W        W 9259  37.330  20.807   3.598
42851W        W 9260   2.892  26.092  10.591
42852W        W 9261   2.305  44.484   2.688
42853W        W 9262  27.502  28.448   0.035
42854W        W 9263   3.833  27.654   3.700
42855W        W 9264  38.023  37.259   0.390
42856W        W 9265  44.770  18.106  12.062
42857W        W 9266  12.860  27.550  14.877
42858W        W 9267  22.515  27.517  14.058
42859W        W 9268  11.055  31.478  14.380
42860W        W 9269  11.444   3.337   2.163
42861W        W 9270   9.051  18.640   2.991
42862W        W 9271   5.575   8.334   1.530
42863W        W 9272  10.451  36.853   0.862
42864W        W 9273  40.585  17.043   3.290
42865W        W 9274  32.568  30.501  12.962
42866W        W 9275   0.133  44.365  11.912
42867W        W 9276  25.492  23.807   4.355
42868W        W 9277   7.895  25.562  11.909
42869W        W 9278   1.322   5.258  14.881
42870W        W 9279  26.159   1.730   0.273
42871W        W 9280  26.587  10.637  12.983
42872W        W 9281  34.399   4.343   5.196
42873W        W 9282  40.291  18.507  10.860
42874W        W 9283  15.270  14.370  11.252
42875W        W 9284  19.994  11.268  10.703
42876W        W 9285  10.750  17.396  12.095
42877W        W 9286  20.499  28.305  12.592
42878W        W 9287  33.111  43.453   4.577
42879W        W 9288  16.529  16.424   1.794
42880W        W 9289   1.300   0.346   3.237
42881W        W 9290  24.287  26.688  11.414
42882W        W 9291  44.451  43.842  14.573
42883W        W 9292   9.658  23.327  13.435
42884W        W 9293  43.478  24.707   0.524
42885W        W 9294  40.322  16.831  11.556
42886W        W 9295  13.390  10.230   4.610
42887W        W 9296  38.397  43.455  10.975
42888W        W 9297  22.095   9.228   1.435
42889W        W 9298  18.774  35.064  10.684
42890W        W 9299  25.309   5.833  10.591
42891W        W 9300  41.864  37.531   1.654
42892W        W 9301  40.836  39.303   0.710
42893W        W 9302  25.727  11.148  11.224
42894W        W 9303   6.885  44.553   2.199
42895W        W 9304  21.205  28.027   2.615
42896W        W 9305  40.083  31.041   1.228
42897W        W 9306  26.651  39.810  11.980
42898W        W 9307   3.998   7.080  12.657
42899W        W 9308  15.670  11.302   3.881
42900W        W 9309  19.326  42.040   1.904
42901W        W 9310   2.714  17.681  10.609
42902W        W 9311  30.617  28.347  14.819
42903W        W 9312  18.975  17.154  14.877
42904W        W 9313  27.738  24.058   4.556
42905W        W 9314   0.846  37.658  10.308
42906W        W 9315  10.268  28.459   1.266
42907W        W 9316  13.720  21.891  13.123
42908W        W 9317  35.408  34.403  10.918
42909W        W 9318   2.176   8.339   0.276
42910W        W 9319   4.306  41.559  11.501
42911W        W 9320   9.934  21.873   2.203
42912W        W 9321  23.516  26.036  12.852
42913W        W 9322   1.306  21.999  13.021
42914W        W 9323  37.874  41.343  12.061
42915W        W 9324  11.064   0.285   0.415
42916W        W 9325  37.856  12.827  11.147
42917W        W 9326  30.629  16.894  14.219
42918W        W 9327  27.686  31.521   1.733
42919W        W 9328   7.501  13.836   0.233
42920W        W 9329  24.578   3.538   2.609
42921W        W 9330  43.719   9.827  10.806
42922W        W 9331  33.402   7.449  12.474
42923W        W 9332   0.325  27.964  14.816
42924W        W 9333  37.765  32.572   2.970
42925W        W 9334   8.353  13.208  13.513
42926W        W 9335  34.798  25.211  11.423
42927W        W 9336  38.376  25.769   3.084
42928W        W 9337   4.485  44.067  12.314
42929W        W 9338   8.334   3.080  13.973
42930W        W 9339  11.280  33.114   3.404
42931W        W 9340  28.807  11.261   2.499
42932W        W 9341  30.404  40.536   3.231
42933W        W 9342  14.759  12.194  13.227
42934W        W 9343  15.576   3.302  13.050
42935W        W 9344  44.870  41.044   1.484
42936W        W 9345  40.005  24.622  11.623
42937W        W 9346  25.932  16.314   0.918
42938W        W 9347  43.337  26.762  11.086
42939W        W 9348   8.585  41.593   3.121
42940W        W 9349  15.280  35.753   3.076
42941W        W 9350  32.333   9.644  11.550
42942W        W 9351   8.279  32.844   3.205
42943W        W 9352   9.454  34.011  13.211
42944W        W 9353  39.853  12.051   3.729
42945W        W 9354   4.183   4.355  14.278
42946W        W 9355  29.618  28.706   4.755
42947W        W 9356  24.572  44.513   1.360
42948W        W 9357  12.798  29.994   2.177
42949W        W 9358   4.887  17.747  12.751
42950W        W 9359   8.910  40.469   2.426
42951W        W 9360   8.918  20.170   0.034
42952W        W 9361  26.163  42.454   0.830
42953W        W 9362   9.659   9.800   3.854
42954W        W 9363  31.670   8.893   2.969
42955W        W 9364   4.290   3.969   1.219
42956W        W 9365  24.534  28.219   4.221
42957W        W 9366  37.340  33.681  13.937
42958W        W 9367  32.407  41.996   0.923
42959W        W 9368  15.864   0.980   4.488
42960W        W 9369  36.740  12.356   2.168
42961W        W 9370  15.475  40.476   5.005
42962W        W 9371   2.304  21.502   1.410
42963W        W 9372  25.813  24.502   3.135
42964W        W 9373  43.496  23.352   0.684
42965W        W 9374  27.618  31.034   0.758
42966W        W 9375  24.481  13.233   4.524
42967W        W 9376   4.064  40.835   3.977
42968W        W 9377  23.173  19.023   2.273
42969W        W 9378   3.484   0.948   3.717
42970W        W 9379  40.033  27.541   4.110
42971W        W 9380  34.110  13.612  13.121
42972W        W 9381  37.621  39.799  11.853
42973W        W 9382   4.725  22.377  10.103
42974W        W 9383  24.073  11.457   4.548
42975W        W 9384  19.509  20.066  10.695
42976W        W 9385  42.970  27.632   0.771
42977W        W 9386  24.594  38.453  13.834
42978W        W 9387  36.373   8.675   4.736
42979W        W 9388  40.215  15.923   1.167
42980W        W 9389  23.394  17.231   3.521
42981W        W 9390   5.399  26.160  11.661
42982W        W 9391  18.097  40.430   2.320
42983W        W 9392  40.077  14.494  13.843
42984W        W 9393  39.406  15.039  11.829
42985W        W 9394  21.757  42.752   0.956
42986W        W 9395  12.068  14.712   2.959
42987W        W 9396  18.582  35.419  12.997
42988W        W 9397  41.039  29.136   3.186
42989W        W 9398  38.855  14.417   0.280
42990W        W 9399   6.437  44.961  12.411
42991W        W 9400  38.550   4.246   0.839
42992W        W 9401   7.987  22.237   4.189
42993W        W 9402  27.901  17.685   3.204
42994W        W 9403  41.030  36.936  12.533
42995W        W 9404  12.585  11.474   1.855
42996W        W 9405  27.685  43.352  13.382
42997W        W 9406  11.375  16.366   0.493
42998W        W 9407  30.562  11.130   2.401
42999W        W 9408   2.948  24.023  14.273
43000W        W 9409  40.408  39.023   0.616
43001W        W 9410  42.405   6.651   5.399
43002W        W 9411  42.241  10.183   3.597
43003W        W 9412  33.152  22.529  14.387
43004W        W 9413  41.818  15.722  12.559
43005W        W 9414   5.313  44.772  13.017
43006W        W 9415  28.977  41.551   1.225
43007W        W 9416  40.782  22.058   1.033
43008W        W 9417  35.966  23.295   4.807
43009W        W 9418  25.461  29.107   4.849
43010W        W 9419  16.682  20.812  12.883
43011W        W 9420  30.455  42.027  13.420
43012W        W 9421  19.357  39.864   0.732
43013W        W 9422  22.331  33.633  10.335
43014W        W 9423  43.018  22.205   3.369
43015W        W 9424  22.667  32.960   1.667
43016W        W 9425  28.701  34.664   2.242
43017W        W 9426  42.039   1.799   2.853
43018W        W 9427  38.286  40.434   1.360
43019W        W 9428   5.191  11.004  11.386
43020W        W 9429  17.378  19.853   4.602
43021W        W 9430   4.774  15.843   2.485
43022W        W 9431   8.768  40.753  13.093
43023W        W 9432  42.958   7.648  12.051
43024W        W 9433   4.357  40.522  10.555
43025W        W 9434  42.814  43.998   3.559
43026W        W 9435  35.424  44.333  12.337
43027W        W 9436  19.581  16.167  10.361
43028W        W 9437  26.313  37.880  11.437
43029W        W 9438   6.928  10.704  11.110
43030W        W 9439  18.804  12.531  11.619
43031W        W 9440  27.654  19.766   2.772
43032W        W 9441  14.544   9.247  13.413
43033W        W 9442  11.242  20.682  13.432
43034W        W 9443   0.883  19.690  14.394
43035W        W 9444  35.370   4.202  14.911
43036W        W 9445   6.154   3.988  11.472
43037W        W 9446  27.127  44.848  14.093
43038W        W 9447  41.411  13.705  11.144
43039W        W 9448   3.931  15.765   1.299
43040W        W 9449  29.903  42.402  13.478
43041W        W 9450  22.232  42.914  11.965
43042W        W 9451   2.454   3.504   3.903
43043W        W 9452  44.475  38.232   0.909
43044W        W 9453  18.735   1.663   9.494
43045W        W 9454   6.231   5.461   1.934
43046W        W 9455  17.138  17.072  11.586
43047W        W 9456  31.227  28.322   0.916
43048W        W 9457  11.120  38.943   3.649
43049W        W 9458  17.825  17.319   3.095
43050W        W 9459  21.188  31.469   3.120
43051W        W 9460  11.688  29.088   1.458
43052W        W 9461   4.242  29.559   0.791
43053W        W 9462  14.264  41.314   2.121
43054W        W 9463  37.951  21.648   4.579
43055W        W 9464  12.822  34.171  14.911
43056W        W 9465  36.130  31.082   0.392
43057W        W 9466   3.373  34.183   2.906
43058W        W 9467  23.894   1.808   3.566
43059W        W 9468  13.739  18.316  12.216
43060W        W 9469   4.769  11.209  11.138
43061W        W 9470  40.392  42.947   4.037
43062W        W 9471  30.988  38.113  11.506
43063W        W 9472   1.021  41.938  11.481
43064W        W 9473  42.332  12.097  13.957
43065W        W 9474  38.729  26.619  14.007
43066W        W 9475  34.016  17.137   1.219
43067W        W 9476  20.021  20.175  11.558
43068W        W 9477   3.617  13.783  11.529
43069W        W 9478  32.004  38.436  10.100
43070W        W 9479   1.248  22.192   4.227
43071W        W 9480   1.902  35.390   2.789
43072W        W 9481  24.104  18.705  10.747
43073W        W 9482   0.030  37.590   3.787
43074W        W 9483  41.618   5.749  12.076
43075W        W 9484   8.505  10.662   2.299
43076W        W 9485  34.740  12.995   3.712
43077W        W 9486  15.403  26.091   1.069
43078W        W 9487  34.178   5.956  11.975
43079W        W 9488  16.623  22.117   2.320
43080W        W 9489   0.909  11.560  14.437
43081W        W 9490  32.935  40.115  14.415
43082W        W 9491   4.721  25.652   4.558
43083W        W 9492   9.246  38.913  12.997
43084W        W 9493  13.049  39.068   3.653
43085W        W 9494  13.285  40.395  11.140
43086W        W 9495   4.618  23.342  11.630
43087W        W 9496  42.010  33.750  12.357
43088W        W 9497  36.839  32.095   1.675
43089W        W 9498  24.701   6.122  14.225
43090W        W 9499  44.685  31.065  12.041
43091W        W 9500  11.862  28.629   1.657
43092W        W 9501  18.036  21.196   3.754
43093W        W 9502  43.218  38.903   4.513
43094W        W 9503  36.574  10.344  11.170
43095W        W 9504  10.698  31.400  11.758
43096W        W 9505  14.375  16.119   2.118
43097W        W 9506   7.923  38.251   3.534
43098W        W 9507  39.731  34.941  14.451
43099W        W 9508  41.315  27.895  10.401
43100W        W 9509  19.892  16.718   0.920
43101W        W 9510  29.806  42.415  13.996
43102W        W 9511   7.635  11.573   3.261
43103W        W 9512  24.442  12.828  12.988
43104W        W 9513  27.971  23.600  13.412
43105W        W 9514  26.783  20.632   4.621
43106W        W 9515  14.018  25.131  12.927
43107W        W 9516  44.854  14.339  13.020
43108W        W 9517  40.618   0.014   4.215
43109W        W 9518  34.465  17.715   4.787
43110W        W 9519   0.320   8.667  14.411
43111W        W 9520  32.119  22.737   4.133
43112W        W 9521   1.021  34.561  11.539
43113W        W 9522  30.575  38.899   4.699
43114W        W 9523  11.292   6.791   1.771
43115W        W 9524  16.792  40.816   3.106
43116W        W 9525  13.090  25.708   4.093
43117W        W 9526  21.975  28.529  12.029
43118W        W 9527   6.038   7.051  11.167
43119W        W 9528  24.119  36.514   1.309
43120W        W 9529  22.732  23.230  14.816
43121W        W 9530  18.763   4.268  12.649
43122W        W 9531   6.411  41.313  14.178
43123W        W 9532  24.603  11.642  11.859
43124W        W 9533   3.729   1.432  10.577
43125W        W 9534  30.516  27.008   2.829
43126W        W 9535  24.749   8.286   3.600
43127W        W 9536  36.318  36.492   0.257
43128W        W 9537   7.146  25.106   3.287
43129W        W 9538  20.246   4.730  10.400
43130W        W 9539   7.283  11.763  14.304
43131W        W 9540  44.344  42.246   3.590
43132W        W 9541   1.483  36.604   3.336
43133W        W 9542  33.776  27.687   0.441
43134W        W 9543  44.440  24.754  12.392
43135W        W 9544   5.638  10.951  12.065
43136W        W 9545  28.584  22.675  12.049
43137W        W 9546  23.195   4.710  13.783
43138W        W 9547  38.115  25.862  13.814
43139W        W 9548   1.796  39.259   3.612
43140W        W 9549  41.322  43.590  11.636
43141W        W 9550   4.068  43.237  14.433
43142W        W 9551  16.094  15.452  10.906
43143W        W 9552  23.281   5.007  14.712
43144W        W 9553   4.832   6.704   2.828
43145W        W 9554   0.599   5.658  12.034
43146W        W 9555  34.446  11.633  12.811
43147W        W 9556  25.383  30.374   0.698
43148W        W 9557  28.493  24.825   4.924
43149W        W 9558  33.428  15.265   0.008
43150W        W 9559   8.890  31.023  11.684
43151W        W 9560  37.426  28.579   2.766
43152W        W 9561  15.492   3.049   9.677
43153W        W 9562   8.880  40.958   0.426
43154W        W 9563  21.182  41.170  11.216
43155W        W 9564  26.834  31.070   3.412
43156W        W 9565  44.274  29.495   0.872
43157W        W 9566   6.654  22.441   0.831
43158W        W 9567  15.817  10.150   0.071
43159W        W 9568  28.489  21.309  10.161
43160W        W 9569  15.298   3.604   2.264
43161W        W 9570  26.402   1.936  11.928
43162W        W 9571  27.279  28.281  11.175
43163W        W 9572   9.826  40.853  13.079
43164W        W 9573  23.493  24.569   0.052
43165W        W 9574   5.112   8.375  13.056
43166W        W 9575  43.992  13.217  11.196
43167W        W 9576  29.482  20.219   1.823
43168W        W 9577   8.342  39.035  14.775
43169W        W 9578   6.840   5.700   4.538
43170W        W 9579  23.067  25.012   1.435
43171W        W 9580  23.305  19.177   4.227
43172W        W 9581   0.116   2.940   3.154
43173W        W 9582  40.009  10.870  12.539
43174W        W 9583   1.746  29.633  13.762
43175W        W 9584  24.654  21.410  12.375
43176W        W 9585  23.045  16.903   1.724
43177W        W 9586  17.555  41.369  11.797
43178W        W 9587  19.063  40.059  12.920
43179W        W 9588  39.064   5.785   1.424
43180W        W 9589  32.905  37.847   1.270
43181W        W 9590  42.293  16.825   0.902
43182W        W 9591  27.456  41.651   0.220
43183W        W 9592  13.068  25.682  12.497
43184W        W 9593  39.463  44.941  14.093
43185W        W 9594  15.718  29.497  13.180
43186W        W 9595   1.694  38.721  11.831
43187W        W 9596  43.031  44.665  14.040
43188W        W 9597  15.327  27.292  11.976
43189W        W 9598  38.568  31.437   1.919
43190W        W 9599   9.504  28.033  14.109
43191W        W 9600  34.361   8.348  12.139
43192W        W 9601  22.574  35.468   4.619
43193W        W 9602  31.105  39.464   4.781
43194W        W 9603   0.856  27.161   2.605
43195W        W 9604  40.440  28.600   1.870
43196W        W 9605  35.907  42.409   1.692
43197W        W 9606  41.378   5.911   0.690
43198W        W 9607  25.979  31.494   1.787
43199W        W 9608  25.437  38.692   2.455
43200W        W 9609  12.383  14.683   0.675
43201W        W 9610   7.772  32.624  14.734
43202W        W 9611  27.450  15.307  14.408
43203W        W 9612   0.556  16.501   2.597
43204W        W 9613  26.361  32.030  12.073
43205W        W 9614  38.569  12.322   2.819
43206W        W 9615  39.610  18.580   0.975
43207W        W 9616   0.138  35.223   0.045
43208W        W 9617  18.817  39.593  14.105
43209W        W 9618   0.323  37.963  13.013
43210W        W 9619  35.074  27.971   1.901
43211W        W 9620   1.389   0.951  11.534
43212W        W 9621  17.319  22.146   0.732
43213W        W 9622  12.959  33.489  14.421
43214W        W 9623  22.512  30.957   0.008
43215W        W 9624  26.199  16.273  11.777
43216W        W 9625   5.864  27.151   4.393
43217W        W 9626   6.241  19.195  11.250
43218W        W 9627  13.841  44.100  13.377
43219W        W 9628  42.514   7.207  13.375
43220W        W 9629  20.192   7.801   2.581
43221W        W 9630  42.933   4.416  11.035
43222W        W 9631   3.473  10.927  12.503
43223W        W 9632  38.895  40.890   0.812
43224W        W 9633  42.774   6.962   1.374
43225W        W 9634  17.662  24.287   1.889
43226W        W 9635   6.097   2.238   1.450
43227W        W 9636   7.558  32.793   4.507
43228W        W 9637  20.591  39.821  14.964
43229W        W 9638   8.478   0.436   1.254
43230W        W 9639  25.966   8.408  11.384
43231W        W 9640  28.726  42.380  12.833
43232W        W 9641  25.051   0.279  14.172
43233W        W 9642  28.132  39.257  14.589
43234W        W 9643  43.396  37.315   1.178
43235W        W 9644  29.602  38.809   3.327
43236W        W 9645  21.125  40.354  11.062
43237W        W 9646  39.065  34.091  13.846
43238W        W 9647  27.446   6.265   2.241
43239W        W 9648  25.483  39.943   2.847
43240W        W 9649  44.144  39.130  10.903
43241W        W 9650  17.396  26.522   0.193
43242W        W 9651  42.883  30.429  11.650
43243W        W 9652  32.333  15.137  13.996
43244W        W 9653  24.598  39.455  10.938
43245W        W 9654  28.153  19.261  12.945
43246W        W 9655  14.310  32.439  11.205
43247W        W 9656  11.696  30.284   5.118
43248W        W 9657  32.267  28.677  12.981
43249W        W 9658  10.875  15.364  13.355
43250W        W 9659   3.406  25.311   2.349
43251W        W 9660  39.324  24.117   3.251
43252W        W 9661  11.821  40.377   3.325
43253W        W 9662  39.785  34.517  12.578
43254W        W 9663  37.064  22.737  11.211
43255W        W 9664  16.159   9.316  10.697
43256W        W 9665  17.618  30.846  11.139
43257W        W 9666  19.307  37.480   3.691
43258W        W 9667   1.397  31.820  12.977
43259W        W 9668  34.851   0.756  11.949
43260W        W 9669  28.073   5.428  10.374
43261W        W 9670   4.396   5.760   0.178
43262W        W 9671  25.079  12.766  12.211
43263W        W 9672  24.038   7.291  12.592
43264W        W 9673  36.305  14.072  13.091
43265W        W 9674   8.696  41.409   3.619
43266W        W 9675  21.169  24.270   3.196
43267W        W 9676   8.206  30.505  12.074
43268W        W 9677  28.186  32.521  11.067
43269W        W 9678  35.148   9.895   1.236
43270W        W 9679  10.417  31.646   2.740
43271W        W 9680   4.883  24.410  11.653
43272W        W 9681  17.833   9.635   2.427
43273W        W 9682  38.409  18.546  13.081
43274W        W 9683  12.798   5.986  13.086
43275W        W 9684  21.622  17.314  10.563
43276W        W 9685  11.687  31.590  13.028
43277W        W 9686  24.272  40.134  12.482
43278W        W 9687  15.628  31.488   4.789
43279W        W 9688   4.758  30.973   4.165
43280W        W 9689   0.986  37.571   0.473
43281W        W 9690  14.767   2.313   0.594
43282W        W 9691  17.408  24.363   2.637
43283W        W 9692   5.226   6.230   0.892
43284W        W 9693  44.697   0.422   1.404
43285W        W 9694   6.322  14.576  11.158
43286W        W 9695   2.037   4.548  13.571
43287W        W 9696  31.605   3.460   1.421
43288W        W 9697  42.511   7.095   5.139
43289W        W 9698  32.664   1.805   4.548
43290W        W 9699  40.607   8.820  14.440
43291W        W 9700  17.780  33.956  12.445
43292W        W 9701  43.911  26.011   1.757
43293W        W 9702  24.003  35.967  14.818
43294W        W 9703  27.549  35.308  14.870
43295W        W 9704   9.765   2.723  11.582
43296W        W 9705  29.310  37.339  10.110
43297W        W 9706  39.314  14.249   0.451
43298W        W 9707  13.226  32.893   3.799
43299W        W 9708  30.644  15.688   1.301
43300W        W 9709  26.010  28.930  10.587
43301W        W 9710  12.721  15.818   4.086
43302W        W 9711  11.636  13.168  11.657
43303W        W 9712  12.724  25.611  11.892
43304W        W 9713   1.392  31.124  13.502
43305W        W 9714  27.919  27.602   3.169
43306W        W 9715  13.511  30.881  10.951
43307W        W 9716  26.582  32.172   4.674
43308W        W 9717   6.222  29.919  11.638
43309W        W 9718   8.909   7.376  11.572
43310W        W 9719  39.597  22.716   0.553
43311W        W 9720   3.240  31.959   0.809
43312W        W 9721  44.000  16.539   2.962
43313W        W 9722   1.012   5.345  12.044
43314W        W 9723  40.464  40.867   0.469
43315W        W 9724  27.077  13.466   1.831
43316W        W 9725  32.463  33.668  10.538
43317W        W 9726   4.713  21.175   2.414
43318W        W 9727  38.302   2.299   1.809
43319W        W 9728   4.027  24.992   9.876
43320W        W 9729  31.496  39.412  13.572
43321W        W 9730  31.657  11.897  13.018
43322W        W 9731  15.102  41.219   3.433
43323W        W 9732  39.026  34.227   0.800
43324W        W 9733  28.453  13.390  11.244
43325W        W 9734  28.435  26.272  13.569
43326W        W 9735  38.376  20.497   9.678
43327W        W 9736  16.636  36.463  13.796
43328W        W 9737   7.677  24.619   0.491
43329W        W 9738  22.067   7.312  13.449
43330W        W 9739   1.396  44.231   0.015
43331W        W 9740  10.857  35.089   0.931
43332W        W 9741  23.912  36.815  11.141
43333W        W 9742  38.576  37.964  14.891
43334W        W 9743  17.134   8.236   4.891
43335W        W 9744  33.920  28.557   4.337
43336W        W 9745   4.957   9.339   3.179
43337W        W 9746  25.173  16.711   1.188
43338W        W 9747  39.361  41.486  14.866
43339W        W 9748  41.026   5.518   0.731
43340W        W 9749  40.064   3.821   0.195
43341W        W 9750   3.356  12.142  14.003
43342W        W 9751  33.064   3.265   1.724
43343W        W 9752  41.749  10.374   2.737
43344W        W 9753   6.282  22.124  13.119
43345W        W 9754  21.017  28.537   3.689
43346W        W 9755  32.670  15.656  10.522
43347W        W 9756   1.258  25.387  12.145
43348W        W 9757  13.853   2.372   0.326
43349W        W 9758  17.536  13.618   3.639
43350W        W 9759  12.102  22.466   1.089
43351W        W 9760  10.789  26.493  10.969
43352W        W 9761  37.326   8.478  13.800
43353W        W 9762  29.957  30.193   0.976
43354W        W 9763  20.198  30.868  12.908
43355W        W 9764   4.658  20.171  14.728
43356W        W 9765  11.953   3.279   3.321
43357W        W 9766  41.458  43.894   3.044
43358W        W 9767  24.208  43.862  12.047
43359W        W 9768   2.661  41.575  14.322
43360W        W 9769  35.125   2.742   3.704
43361W        W 9770   8.450  37.467  12.543
43362W        W 9771   8.918  10.274   3.868
43363W        W 9772  20.030   9.208   1.720
43364W        W 9773  42.419  14.916  13.368
43365W        W 9774  14.729  35.335  13.019
43366W        W 9775  38.650  28.924  11.420
43367W        W 9776  12.673  29.872  12.903
43368W        W 9777   0.880  35.146   0.874
43369W        W 9778  22.984  16.241  12.022
43370W        W 9779  19.476   7.233   1.328
43371W        W 9780   8.362  24.463  14.259
43372W        W 9781  25.557  30.545  13.744
43373W        W 9782  14.694  15.660   3.630
43374W        W 9783  31.591   2.269  12.484
43375W        W 9784  38.158  34.177   3.244
43376W        W 9785  12.823  20.241   2.797
43377W        W 9786  30.581   4.227   2.226
43378W        W 9787  43.701  43.908  10.469
43379W        W 9788  43.683  22.067  14.603
43380W        W 9789   6.469  38.629   4.178
43381W        W 9790   7.832  19.351   5.123
43382W        W 9791  35.207  18.092   1.108
43383W        W 9792  16.715  25.806  13.042
43384W        W 9793  38.906   9.674  14.541
43385W        W 9794  38.811  22.625  13.128
43386W        W 9795  12.419  11.403  13.418
43387W        W 9796  37.519  10.775   1.121
43388W        W 9797   9.723  13.870  13.492
43389W        W 9798   1.447  30.549   3.736
43390W        W 9799  44.102  11.291  10.398
43391W        W 9800  37.756   5.706  12.669
43392W        W 9801  32.482  11.664   2.173
43393W        W 9802  31.441  34.008   4.532
43394W        W 9803  20.982  14.110  13.370
43395W        W 9804  25.110  19.186  11.394
43396W        W 9805   2.953   4.134   2.676
43397W        W 9806   8.933  24.150  10.511
43398W        W 9807  16.822  40.939  11.166
43399W        W 9808  13.795   9.574  11.839
43400W        W 9809  25.633  15.103  12.533
43401W        W 9810  19.172  25.077   1.238
43402W        W 9811  39.717  11.154   3.779
43403W        W 9812  22.602  33.942   1.972
43404W        W 9813   9.177  41.742  13.501
43405W        W 9814  20.288  38.377   4.600
43406W        W 9815  35.686  26.878  12.928
43407W        W 9816  14.783  20.562   3.228
43408W        W 9817   2.925   5.410   4.569
43409W        W 9818  35.082  11.927  12.920
43410W        W 9819   9.820  39.885  13.399
43411W        W 9820   7.867  32.672   0.244
43412W        W 9821   9.069  20.716  13.258
43413W        W 9822   8.415   3.400   2.137
43414W        W 9823  44.478  43.532  11.540
43415W        W 9824  34.287   9.630  12.717
43416W        W 9825  42.255  43.444   1.321
43417W        W 9826   9.937  12.854  13.417
43418W        W 9827  20.565  27.799  12.573
43419W        W 9828  15.855   6.639  12.582
43420W        W 9829  23.476  34.141   2.826
43421W        W 9830   5.159   2.804  12.350
43422W        W 9831  17.553  38.106  14.368
43423W        W 9832   3.193  39.815  14.573
43424W        W 9833  44.645   6.928   0.764
43425W        W 9834  28.932  42.070  14.265
43426W        W 9835   3.843  41.080   3.580
43427W        W 9836  33.907  30.030  12.014
43428W        W 9837  19.149   5.900  13.935
43429W        W 9838  19.708  33.407   4.880
43430W        W 9839  18.803  36.645   9.935
43431W        W 9840   4.810  25.630   0.956
43432W        W 9841  43.382  30.200   3.868
43433W        W 9842   0.305  22.211  13.014
43434W        W 9843  40.085  44.945   2.675
43435W        W 9844   6.698  23.956   2.063
43436W        W 9845  40.829  37.898   0.369
43437W        W 9846  29.841  33.689  12.384
43438W        W 9847   7.936  28.196   1.880
43439W        W 9848  18.328  13.505   4.531
43440W        W 9849  23.025  27.703  11.583
43441W        W 9850   2.245  38.808   5.072
43442W        W 9851   9.834  11.650   4.112
43443W        W 9852  17.194  30.978   0.267
43444W        W 9853  22.243   0.859  10.514
43445W        W 9854  30.099   8.430   3.483
43446W        W 9855  18.190  15.183   1.641
43447W        W 9856  24.211  17.328   4.552
43448W        W 9857  28.496  14.697  10.663
43449W        W 9858  34.635  19.172  13.688
43450W        W 9859  43.931  20.319  11.623
43451W        W 9860  16.930  34.937   1.759
43452W        W 9861  13.525   3.530  13.778
43453W        W 9862  19.603   4.589  10.795
43454W        W 9863   4.314  37.725  14.929
43455W        W 9864  16.721  13.781  10.464
43456W        W 9865  20.052  15.049  10.612
43457W        W 9866  31.688  35.382   2.359
43458W        W 9867  33.331   5.708   2.349
43459W        W 9868  28.155   8.635  12.342
43460W        W 9869   1.812  40.318  14.992
43461W        W 9870   3.691  24.316  11.115
43462W        W 9871  27.520   3.168   1.258
43463W        W 9872  16.366  35.021   2.928
43464W        W 9873   4.596   2.547   2.184
43465W        W 9874  42.944  24.337   2.670
43466W        W 9875   9.705  14.074   0.936
43467W        W 9876  37.483   1.081  14.749
43468W        W 9877  16.845  31.040  14.884
43469W        W 9878  34.427  13.875  14.815
43470W        W 9879  12.079  44.463   4.694
43471W        W 9880  21.655  29.432   3.594
43472W        W 9881  10.891   9.146  12.601
43473W        W 9882   7.216  35.958   0.923
43474W        W 9883  15.663   3.739  11.841
43475W        W 9884  43.442  41.481   2.148
43476W        W 9885   8.871  24.144   4.148
43477W        W 9886  33.112  34.958  14.987
43478W        W 9887  36.758  11.784   1.347
43479W        W 9888   3.685  19.258   2.693
43480W        W 9889   9.414  31.658  12.143
43481W        W 9890  13.252  37.065   1.435
43482W        W 9891  44.008   1.951   1.787
43483W        W 9892  29.884   3.148   5.009
43484W        W 9893   0.328  21.797  12.050
43485W        W 9894  28.220  34.480   2.414
43486W        W 9895   5.104  44.853  14.429
43487W        W 9896  37.436  37.167  12.613
43488W        W 9897   9.577  28.371   2.250
43489W        W 9898  31.987   6.851   1.969
43490W        W 9899  34.071  23.242   4.527
43491W        W 9900  33.637   8.347   0.826
43492W        W 9901  32.953   6.831  10.583
43493W        W 9902  30.492   0.675   2.735
43494W        W 9903  36.552   7.920   0.682
43495W        W 9904  26.211  17.187  14.934
43496W        W 9905  34.559  23.348   4.688
43497W        W 9906   6.331  21.178   0.384
43498W        W 9907  10.211   8.972  11.872
43499W        W 9908   0.487  14.769   3.055
43500W        W 9909  35.848  13.345   4.298
43501W        W 9910  19.124  16.112  12.988
43502W        W 9911  38.383  17.043   0.833
43503W        W 9912  35.511  37.595  12.379
43504W        W 9913  37.161  16.397   0.109
43505W        W 9914   2.793  41.983   3.197
43506W        W 9915   5.749  30.172   2.651
43507W        W 9916  39.068   0.411   4.341
43508W        W 9917  17.752  15.764   4.564
43509W        W 9918   1.201  20.181  11.120
43510W        W 9919   0.703  40.200  10.679
43511W        W 9920  26.942   0.296  12.836
43512W        W 9921  25.864   4.400  12.904
43513W        W 9922  24.715  34.181   3.311
43514W        W 9923  37.993  26.813   4.208
43515W        W 9924  31.743  10.150  10.697
43516W        W 9925  19.910  32.499  14.470
43517W        W 9926  41.552  30.083   0.742
43518W        W 9927  41.971   2.865  10.824
43519W        W 9928  41.438  17.211  13.753
43520W        W 9929   2.934  10.892  13.717
43521W        W 9930   1.567  34.538   0.383
43522W        W 9931  34.111  17.279   4.783
43523W        W 9932   2.512  31.707  14.098
43524W        W 9933  44.977  18.299   0.294
43525W        W 9934  28.934  16.608   4.493
43526W        W 9935   8.707  25.122  10.189
43527W        W 9936   7.430  30.366   3.711
43528W        W 9937  12.366  15.887  11.203
43529W        W 9938   3.967  37.544   2.225
43530W        W 9939  16.066  34.414   0.942
43531W        W 9940   4.906  32.954   3.189
43532W        W 9941  19.104   5.494  14.989
43533W        W 9942   9.992  27.704  14.248
43534W        W 9943  21.152  15.219   3.318
43535W        W 9944  26.470  44.418   1.954
43536W        W 9945  22.335   3.216   3.820
43537W        W 9946   4.444  13.209  13.336
43538W        W 9947  34.143  43.778   4.143
43539W        W 9948  33.516  29.504   3.193
43540W        W 9949  23.165  26.093  10.395
43541W        W 9950  33.401  44.718  11.843
43542W        W 9951  23.027  19.226   2.853
43543W        W 9952  11.436   4.913  14.907
43544W        W 9953  24.385   8.600  14.384
43545W        W 9954  23.748  42.908  13.771
43546W        W 9955  12.762   3.166   0.802
43547W        W 9956  32.609   5.741  11.668
43548W        W 9957   3.850  37.635  11.955
43549W        W 9958  29.972  30.243  13.100
43550W        W 9959  28.898  21.082   3.885
43551W        W 9960  35.155  43.699   1.291
43552W        W 9961  35.909  34.063   1.348
43553W        W 9962  29.603  15.771  13.105
43554W        W 9963  22.479   5.377   3.665
43555W        W 9964   6.482   1.010  11.120
43556W        W 9965  29.108  33.978   2.623
43557W        W 9966  31.465  33.459  13.604
43558W        W 9967  39.011  13.100   1.781
43559W        W 9968  22.429  15.140  13.492
43560W        W 9969  32.030  12.182   1.302
43561W        W 9970  30.947  29.443   3.204
43562W        W 9971  35.613  19.587  14.002
43563W        W 9972   1.714  15.932  12.359
43564W        W 9973  35.993   1.877  10.189
43565W        W 9974  20.228   3.782   4.722
43566W        W 9975  16.232  41.754  14.276
43567W        W 9976  38.618  31.948   3.691
43568W        W 9977  23.242  28.413  14.364
43569W        W 9978   1.664  19.566   0.716
43570W        W 9979  42.594  26.392  11.571
43571W        W 9980   0.907  29.622   2.241
43572W        W 9981  22.295  22.174  11.159
43573W        W 9982  38.880   8.214   3.385
43574W        W 9983  10.370  43.645  13.259
43575W        W 9984   0.263  23.763   3.500
43576W        W 9985   7.883  32.922  12.000
43577W        W 9986  12.102  39.619  11.173
43578W        W 9987  15.185  30.015   4.467
43579W        W 9988  32.640   0.895   0.753
43580W        W 9989   3.218  28.086  14.596
43581W        W 9990  21.031   1.403   1.966
43582W        W 9991  44.465  34.843   1.191
43583W        W 9992  34.027  10.831   3.402
43584W        W 9993  38.808   7.612  13.112
43585W        W 9994  17.504   3.269  14.437
43586W        W 9995  36.131  23.625  12.993
43587W        W 9996  33.573  28.174  12.046
43588W        W 9997  33.170   8.691  11.980
43589W        W 9998  29.279  20.714   2.216
43590W        W 9999  19.500  16.152  11.402
43591W        W10000   0.435  26.591  11.530
43592W        W10001  23.483  22.703  12.643
43593W        W10002  36.546  24.952  14.472
43594W        W10003   3.269  33.970  14.592
43595W        W10004   1.323   9.734  11.490
43596W        W10005   4.234  34.311  12.084
43597W        W10006   2.881  40.598  14.438
43598W        W10007  27.399   7.184   3.285
43599W        W10008   4.622  41.295   3.161
43600W        W10009  15.226  18.230  11.706
43601W        W10010  43.962  22.597   4.556
43602W        W10011   6.966  35.827  12.896
43603W        W10012  44.956   2.503  13.539
43604W        W10013  13.347  36.074   1.362
43605W        W10014  31.869  35.975   0.417
43606W        W10015  36.127  28.342   4.784
43607W        W10016   7.261  11.041   2.647
43608W        W10017  37.626  44.305  10.534
43609W        W10018   3.244  30.925  14.826
43610W        W10019  28.868  42.762   0.500
43611W        W10020  39.816   2.192  12.960
43612W        W10021   8.196  16.687   0.276
43613W        W10022  13.099  35.864  10.891
43614W        W10023   5.283  24.964   0.256
43615W        W10024  36.882  23.483  10.250
43616W        W10025  36.473   4.984   0.971
43617W        W10026   3.058  23.552   1.700
43618W        W10027  30.502  40.080   0.550
43619W        W10028  32.175  24.716   0.317
43620W        W10029  19.741  17.888   1.826
43621W        W10030  35.417  14.130  12.976
43622W        W10031  37.604  25.802  13.837
43623W        W10032  38.858  13.023   3.967
43624W        W10033  25.927  38.926  11.538
43625W        W10034   9.367  17.220  12.071
43626W        W10035  14.208  26.597   1.427
43627W        W10036  42.738   4.313   3.352
43628W        W10037  25.661  42.785  12.070
43629W        W10038  25.241  19.557   4.128
43630W        W10039  34.945  33.016   4.016
43631W        W10040  43.996   5.287  11.133
43632W        W10041   3.835  37.886   0.721
43633W        W10042  40.029  31.160  11.850
43634W        W10043  31.770  23.265   1.356
43635W        W10044  36.866   0.970   4.180
43636W        W10045  11.248  40.124   4.113
43637W        W10046  42.413  26.676   3.646
43638W        W10047  10.304  29.994   5.379
43639W        W10048  42.035  32.982  11.005
43640W        W10049   8.732  25.244   2.410
43641W        W10050  32.571  22.785   0.421
43642W        W10051  34.902   9.090  14.506
43643W        W10052   4.731  30.342  10.213
43644W        W10053  20.138  33.952   2.903
43645W        W10054  35.678  34.991   1.868
43646W        W10055  20.729  29.886   2.669
43647W        W10056  34.371  39.007  10.734
43648W        W10057  10.841  15.701  11.097
43649W        W10058   6.471  39.396  14.131
43650W        W10059  14.350  27.291   0.827
43651W        W10060  37.283  16.237  12.631
43652W        W10061  23.237  29.841   0.975
43653W        W10062  38.179  10.231   0.335
43654W        W10063   9.668  43.458   5.731
43655W        W10064  37.379   0.923  12.846
43656W        W10065  24.380  17.108   3.694
43657W        W10066  28.064   9.262  13.863
43658W        W10067   1.863  11.913   2.187
43659W        W10068  15.702  18.113   5.082
43660W        W10069  30.017   8.881   3.728
43661W        W10070  29.215  22.476  14.171
43662W        W10071   7.161  21.642  13.820
43663W        W10072  17.406  32.614   4.627
43664W        W10073  34.079  43.474  11.615
43665W        W10074  26.813   4.439   2.184
43666W        W10075  30.098   2.724  12.097
43667W        W10076   0.379  42.406  12.004
43668W        W10077   4.857   3.783  10.153
43669W        W10078  16.591  35.682   1.344
43670W        W10079  14.416   3.398   3.716
43671W        W10080  34.963  19.629  14.051
43672W        W10081   1.887  35.712   1.430
43673W        W10082  11.867   7.736   3.866
43674W        W10083  19.466  26.965   0.885
43675W        W10084  35.009   6.000  11.107
43676W        W10085   7.894  44.326   1.702
43677W        W10086  40.002  33.218  12.919
43678W        W10087   3.443   5.333  10.820
43679W        W10088  33.465  27.234   0.293
43680W        W10089  20.271  35.022  13.598
43681W        W10090   7.789  42.134  12.245
43682W        W10091  21.649  22.092  11.513
43683W        W10092  41.445  17.715   3.838
43684W        W10093  27.450  44.062   1.754
43685W        W10094   8.944  26.643  14.371
43686W        W10095  14.328  15.979   0.458
43687W        W10096  16.393   8.222  14.215
43688W        W10097  23.422  26.004   3.331
43689W        W10098  26.191  30.892  12.952
43690W        W10099  15.092  34.234   2.275
43691W        W10100  14.579   0.480  11.517
43692W        W10101  39.956  21.643   1.680
43693W        W10102  26.143  35.085  14.528
43694W        W10103  16.547  26.534   1.769
43695W        W10104  39.862  12.430  11.563
43696W        W10105  13.723  44.848  10.664
43697W        W10106  39.263  28.688   4.113
43698W        W10107  37.688   0.376   0.888
43699W        W10108   8.354  15.834  14.730
43700W        W10109  14.090  43.694  11.861
43701W        W10110  44.868  26.976   2.126
43702W        W10111  39.499  13.311  13.398
43703W        W10112  24.190  11.266   0.819
43704W        W10113   0.587   6.943  12.939
43705W        W10114  44.850  21.729  14.434
43706W        W10115  40.778  33.535   1.822
43707W        W10116  26.370  24.048   2.600
43708W        W10117  11.746  31.064   1.785
43709W        W10118   4.263  27.500   0.849
43710W        W10119  30.631   1.078  10.679
43711W        W10120  23.776  31.859  14.443
43712W        W10121   4.790   8.733   0.865
43713W        W10122  35.836   7.242  11.470
43714W        W10123  33.362   4.914   3.122
43715W        W10124  28.935  28.651  12.068
43716W        W10125  27.739  30.163  14.898
43717W        W10126   7.670  14.803   2.836
43718W        W10127  29.573   0.515   3.157
43719W        W10128   2.139   0.908  14.783
43720W        W10129  27.214  34.785  13.832
43721W        W10130  22.704  28.203   2.767
43722W        W10131  36.500  20.423   3.607
43723W        W10132   6.804  36.921   2.867
43724W        W10133  38.172  29.672   3.328
43725W        W10134  42.570  16.874   1.878
43726W        W10135  32.891   3.197   0.678
43727W        W10136  21.565  43.435  12.177
43728W        W10137  44.908   6.218  14.833
43729W        W10138  19.659  25.500  10.868
43730W        W10139  12.822  13.777  14.808
43731W        W10140  27.004  24.949  11.645
43732W        W10141  32.107   2.366   3.071
43733W        W10142   7.669  34.579  14.392
43734W        W10143  13.569  27.709  14.486
43735W        W10144  25.217  18.532   5.023
43736W        W10145  23.474  32.614  11.957
43737W        W10146  40.314  20.958   0.353
43738W        W10147  44.334  15.193   3.967
43739W        W10148  13.385  14.528  14.446
43740W        W10149  44.495   5.786   3.571
43741W        W10150  37.602  37.412   0.711
43742W        W10151  13.662  37.989  11.563
43743W        W10152   5.361  28.206   4.000
43744W        W10153   8.761  36.131  10.772
43745W        W10154  27.210  38.340  13.483
43746W        W10155  28.372  25.708   3.248
43747W        W10156  22.412  16.720  11.382
43748W        W10157  32.138  32.560   2.948
43749W        W10158  26.607  18.076   1.141
43750W        W10159   8.825  39.037   0.738
43751W        W10160  15.498  21.069  14.661
43752W        W10161  25.069   8.348   0.099
43753W        W10162   4.404   1.276   0.666
43754W        W10163  22.017  17.264  12.566
43755W        W10164  30.609  31.438  13.189
43756W        W10165  28.170  15.077   0.935
43757W        W10166  28.041   5.717  14.982
43758W        W10167  27.674   0.376   1.471
43759W        W10168  36.414  12.926  10.621
43760W        W10169  28.975  30.217   3.767
43761W        W10170  14.421  13.296   2.809
43762W        W10171  37.539  10.874  13.902
43763W        W10172  38.922  21.759   3.613
43764W        W10173  17.104  36.951  11.977
43765W        W10174  39.253   4.123  11.925
43766W        W10175  21.092  43.841  13.325
43767W        W10176  19.061  13.230  13.439
43768W        W10177  33.658  27.904   4.983
43769W        W10178  16.273  21.152   1.079
43770W        W10179  25.351  35.877   3.747
43771W        W10180   2.218   9.353   1.777
43772W        W10181   9.395  39.341   3.223
43773W        W10182   4.812  35.443   3.765
43774W        W10183  42.331  32.387  14.523
43775W        W10184   9.887  19.705   2.104
43776W        W10185  38.262   0.232  13.435
43777W        W10186   8.497  18.663  13.954
43778W        W10187  12.851  28.065  11.580
43779W        W10188  29.661  28.567  13.088
43780W        W10189  27.607  20.356  11.874
43781W        W10190  18.339   1.878   0.317
43782W        W10191   5.988  29.888   4.009
43783W        W10192   0.220  24.437   2.758
43784W        W10193   8.877  34.156   3.940
43785W        W10194  38.522   8.186   2.287
43786W        W10195  13.950   3.985   3.247
43787W        W10196   4.340   3.693  12.035
43788W        W10197   2.290  33.524   4.288
43789W        W10198  42.952  37.829   3.089
43790W        W10199  10.420   9.138  13.925
43791W        W10200  23.037  10.319   2.675
43792W        W10201  31.135  17.226   1.666
43793W        W10202  21.667  22.204  10.536
43794W        W10203  40.951   1.855   4.417
43795W        W10204   4.223  28.941  14.520
43796W        W10205  15.519  23.751   1.687
43797W        W10206  33.974  36.581   3.366
43798W        W10207  22.217  17.455   4.586
43799W        W10208  10.312  34.560   0.312
43800W        W10209  21.608  10.175   1.225
43801W        W10210  31.546  22.129  10.405
43802W        W10211  12.898  41.821   1.875
43803W        W10212   3.978   4.564   3.593
43804W        W10213  12.314  20.128  14.783
43805W        W10214  38.859  21.206   4.706
43806W        W10215  41.476  29.649  11.463
43807W        W10216  27.774   0.887   0.301
43808W        W10217   8.592  12.699  13.309
43809W        W10218  40.819  11.326  11.502
43810W        W10219  24.738  44.441   2.245
43811W        W10220  33.893  41.580   5.156
43812W        W10221  42.985   0.384   3.876
43813W        W10222  18.773   3.993   2.742
43814W        W10223  21.947  42.906   1.898
43815W        W10224  31.882  14.186   2.983
43816W        W10225  32.051  27.918  13.503
43817W        W10226  42.685  24.007   2.087
43818W        W10227   2.015  24.822   4.184
43819W        W10228   9.677  44.368  11.507
43820W        W10229  43.398  27.040   1.778
43821W        W10230  28.920  22.103  12.995
43822W        W10231  15.626  44.682   5.173
43823W        W10232   7.162   6.372  12.563
43824W        W10233   6.390  24.674   3.681
43825W        W10234   7.146   5.615   3.299
43826W        W10235   2.376  29.673   1.686
43827W        W10236   8.789  12.765   4.646
43828W        W10237  14.469   4.574   2.068
43829W        W10238  12.836  26.990   0.434
43830W        W10239  26.420   0.976   2.694
43831W        W10240  41.210  20.147   0.447
43832W        W10241  32.819  32.134   4.161
43833W        W10242   6.806  35.528   2.698
43834W        W10243  17.697  11.899  12.307
43835W        W10244   2.874   5.635  14.389
43836W        W10245  10.822  26.090   2.607
43837W        W10246  14.753  15.098  13.508
43838W        W10247   4.838   1.073   2.291
43839W        W10248  42.709   1.342   2.435
43840W        W10249  36.062   8.367   1.765
43841W        W10250  15.102  18.610   3.592
43842W        W10251  22.572  36.402   4.866
43843W        W10252   2.819  26.267   1.748
43844W        W10253  36.189  20.090   4.801
43845W        W10254  10.545  19.150  14.477
43846W        W10255  25.098  25.450   2.247
43847W        W10256  31.208   0.523  13.038
43848W        W10257   6.906  42.618   4.828
43849W        W10258   2.777   0.937   4.079
43850W        W10259  10.987   4.864   0.723
43851W        W10260  39.877   9.112   1.753
43852W        W10261   3.061  12.432  14.324
43853W        W10262  12.197  41.905   3.407
43854W        W10263  36.860  42.355  14.767
43855W        W10264  42.818  11.888   0.926
43856W        W10265  34.119  33.597   0.782
43857W        W10266  11.649  17.483   1.255
43858W        W10267  10.510  38.257   2.310
43859W        W10268   0.969  18.433   0.531
43860W        W10269   5.380  26.548   2.904
43861W        W10270  37.369  40.384  13.962
43862W        W10271  24.115   5.852  13.171
43863W        W10272  39.282  35.040  12.017
43864W        W10273  44.038  20.362  14.518
43865W        W10274  29.435  40.328  11.492
43866W        W10275  24.528  41.985   2.156
43867W        W10276  10.375  37.802   2.792
43868W        W10277  12.269  39.626   4.303
43869W        W10278  32.151   9.578   1.913
43870W        W10279  10.669  26.535  11.967
43871W        W10280  20.565  19.104   4.259
43872W        W10281  11.611  38.295  12.077
43873W        W10282  42.860  17.188  11.014
43874W        W10283  19.682  26.923   1.388
43875W        W10284  16.358   6.735   4.670
43876W        W10285   0.502  23.015  12.605
43877W        W10286   2.269  32.900   3.500
43878W        W10287  42.347  19.298   4.127
43879W        W10288  19.013  29.532   0.789
43880W        W10289  14.752  15.553   3.113
43881W        W10290   8.718  13.769  11.229
43882W        W10291  10.836  10.339   1.971
43883W        W10292  33.905  31.362   3.170
43884W        W10293  35.004   2.274  10.071
43885W        W10294  16.837  43.566  14.812
43886W        W10295  42.392  24.240   4.667
43887W        W10296  29.748  21.501   3.369
43888W        W10297  36.712  33.020   3.271
43889W        W10298  25.921  44.305   2.855
43890W        W10299  40.318  31.125   1.752
43891W        W10300  33.939  35.619   4.181
43892W        W10301  44.414  10.814   2.640
43893W        W10302  18.764  27.715   1.372
43894W        W10303  30.267  37.777  12.869
43895W        W10304  35.602  19.772   1.341
43896W        W10305  24.729  25.663  12.124
43897W        W10306  29.914  44.847  13.054
43898W        W10307  25.155  26.464  10.397
43899W        W10308  37.947  35.282   2.421
43900W        W10309  27.142  23.001   9.903
43901W        W10310  23.340  29.472   1.346
43902W        W10311  20.182  37.616   5.127
43903W        W10312  34.407   6.238  13.128
43904W        W10313   3.786  43.978  12.341
43905W        W10314  10.387  38.856  14.920
43906W        W10315  24.965  26.615   0.985
43907W        W10316  14.400  30.554  11.698
43908W        W10317  40.686   5.380   3.851
43909W        W10318  32.196  44.520   2.767
43910W        W10319  42.202  24.719  11.086
43911W        W10320  13.582  39.998  14.843
43912W        W10321   3.828  31.613  11.455
43913W        W10322   5.400   7.276  10.745
43914W        W10323  37.328  12.277  12.385
43915W        W10324  38.106   6.844   0.510
43916W        W10325  31.509  31.978  14.393
43917W        W10326   3.784  28.172   0.858
43918W        W10327  37.343  35.579   1.289
43919W        W10328   6.545   1.790  12.040
43920W        W10329  42.956   5.786   0.208
43921W        W10330  16.100  31.125  12.941
43922W        W10331  41.887  23.917  11.315
43923W        W10332  15.474  34.403   4.134
43924W        W10333  38.945   7.718  11.525
43925W        W10334  33.499  25.821  14.797
43926W        W10335  27.611  44.489   2.377
43927W        W10336  38.993  39.031   3.581
43928W        W10337  25.687  42.533   2.266
43929W        W10338  21.603  11.730   4.185
43930W        W10339   7.183   4.918  10.128
43931W        W10340  30.362  43.009  12.416
43932W        W10341  36.535  11.418   3.956
43933W        W10342   0.240  20.454   3.237
43934W        W10343  23.731   9.251   3.809
43935W        W10344  31.670  17.598  10.571
43936W        W10345  23.398  35.184  12.084
43937W        W10346  13.805  37.365  14.612
43938W        W10347  38.097  35.392  13.442
43939W        W10348  40.506  29.229   1.269
43940W        W10349  15.702  27.488  11.484
43941W        W10350   3.341  44.089   2.757
43942W        W10351  33.143  18.863  14.985
43943W        W10352  19.610  26.711  13.772
43944W        W10353   3.146   9.698  14.900
43945W        W10354   7.257  21.304   4.525
43946W        W10355  16.152   4.483  13.072
43947W        W10356  22.965  32.227   1.240
43948W        W10357  40.357   4.747   3.623
43949W        W10358  38.572  18.998  12.828
43950W        W10359  20.618  28.892  10.833
43951W        W10360  23.970  41.381  11.265
43952W        W10361  38.475   2.334  14.847
43953W        W10362  24.671   0.410   4.557
43954W        W10363  24.547  18.267  11.939
43955W        W10364  31.160  18.574  12.139
43956W        W10365  12.222  15.297   2.352
43957W        W10366   3.806  25.224   4.831
43958W        W10367  21.169  23.610   0.453
43959W        W10368  35.650  37.092  10.902
43960W        W10369  40.804  35.844   0.451
43961W        W10370  33.954  16.526   0.022
43962W        W10371  20.267  19.722  11.558
43963W        W10372   5.844  24.849   1.396
43964W        W10373  18.717  19.287  11.972
43965W        W10374  25.183  20.309   2.618
43966W        W10375  11.718  20.798   4.579
43967W        W10376  12.869  31.253  12.624
43968W        W10377   4.763   0.670   0.845
43969W        W10378  13.649  34.016  14.482
43970W        W10379  13.457  38.147   3.481
43971W        W10380   3.051  18.708  10.696
43972W        W10381   8.036  16.816   4.766
43973W        W10382  25.460  17.489   3.207
43974W        W10383  40.897  34.161  12.148
43975W        W10384  26.388  30.271  12.359
43976W        W10385   7.128   2.819  11.229
43977W        W10386  20.267  12.192  11.986
43978W        W10387  19.180  28.493   2.136
43979W        W10388  10.261  38.820   5.169
43980W        W10389   4.404  15.100  10.186
43981W        W10390  33.795   6.805  10.995
43982W        W10391   2.251  13.263   0.327
43983W        W10392  25.381  39.907   0.377
43984W        W10393  27.450  15.504   1.144
43985W        W10394  23.156  41.540   2.904
43986W        W10395  22.501  40.602  12.538
43987W        W10396  22.865  25.057   4.996
43988W        W10397  30.508  35.016  12.506
43989W        W10398   3.694  25.688  14.634
43990W        W10399   4.468  14.290   3.189
43991W        W10400  11.644   1.394  14.343
43992W        W10401  35.235  36.606  14.301
43993W        W10402  31.587  23.453   0.498
43994W        W10403  34.973  12.830  14.439
43995W        W10404  31.114  16.222   1.792
43996W        W10405   8.936   1.540   2.636
43997W        W10406  12.155  25.197  12.860
43998W        W10407  19.365  43.819  12.400
43999W        W10408   9.457   4.359   0.881
44000W        W10409  16.307  13.333  14.751
44001W        W10410  10.681   5.142   0.408
44002W        W10411  20.105  39.102   1.315
44003W        W10412  26.631  11.783   3.101
44004W        W10413   5.342  20.751  13.328
44005W        W10414  14.134  18.538   1.949
44006W        W10415  42.438  26.218   0.825
44007W        W10416  20.695  22.613   0.577
44008W        W10417   2.657  26.068  11.170
44009W        W10418   3.875  14.100   2.155
44010W        W10419  24.917  26.636   3.637
44011W        W10420  28.837  15.917  12.871
44012W        W10421  43.336  10.125  14.385
44013W        W10422  21.622  11.140   3.056
44014W        W10423  30.404   6.861  13.832
44015W        W10424  30.688  33.478  10.463
44016W        W10425  18.188  33.699   2.012
44017W        W10426   2.196  12.792  11.285
44018W        W10427  40.042  41.096   1.678
44019W        W10428  33.501  38.257  14.475
44020W        W10429  41.341  13.695  10.642
44021W        W10430   7.572   8.759   3.580
44022W        W10431  20.133  21.257  14.868
44023W        W10432  38.824  11.267  14.778
44024W        W10433  11.591   7.299  10.540
44025W        W10434  33.487  29.444  14.055
44026W        W10435  29.547   4.835   4.487
44027W        W10436  35.968   8.401   4.585
44028W        W10437  33.920  21.811   1.305
44029W        W10438  30.306  17.620  13.884
44030W        W10439   4.686  14.340  14.276
44031W        W10440  25.629   6.754  12.011
44032W        W10441  14.397  26.964   0.275
44033W        W10442  11.207  42.789  13.666
44034W        W10443  42.923  16.286   1.230
44035W        W10444  27.013  12.195  12.104
44036W        W10445   2.384  25.339   0.981
44037W        W10446  30.019  40.180  13.389
44038W        W10447  14.733   8.821   1.500
44039W        W10448  44.680   6.171  14.083
44040W        W10449  25.777  28.157   3.731
44041W        W10450   4.981  13.374   1.690
44042W        W10451  33.013  27.089   2.994
44043W        W10452  17.548  20.543  11.611
44044W        W10453  14.551  40.746   2.783
44045W        W10454  30.972  10.996  14.971
44046W        W10455   8.246  24.963  14.238
44047W        W10456  11.148  29.102  13.623
44048W        W10457  14.076  19.158   1.362
44049W        W10458  34.699  32.541  14.064
44050W        W10459  38.349  19.841   2.706
44051W        W10460  17.237  42.436  12.561
44052W        W10461  28.025   7.836  13.911
44053W        W10462  20.563  14.571   4.153
44054W        W10463  41.525  28.163   2.751
44055W        W10464  31.708  25.150  10.121
44056W        W10465  20.696  12.848   2.402
44057W        W10466  34.524   2.562   0.187
44058W        W10467  30.533   0.117  14.688
44059W        W10468  30.639  40.339   3.659
44060W        W10469  33.831  19.944   0.742
44061W        W10470  29.488  10.235  10.711
44062W        W10471  28.896   0.626  13.326
44063W        W10472  15.285  21.983  13.919
44064W        W10473  34.155  41.648   4.236
44065W        W10474  11.921  37.523   3.107
44066W        W10475  21.374   2.928   4.880
44067W        W10476  30.567  17.681   0.525
44068W        W10477  16.300  40.849   2.409
44069W        W10478  31.598  20.117  13.031
44070W        W10479   3.481  33.432   1.956
44071W        W10480  21.215  21.746  12.096
44072W        W10481   9.213   8.891   4.715
44073W        W10482   6.952  22.731   1.183
44074W        W10483  15.988  17.374  14.053
44075W        W10484  42.628  43.312  13.927
44076W        W10485   5.051  24.549   2.070
44077W        W10486   2.211  12.191   1.262
44078W        W10487  20.255   1.061  14.495
44079W        W10488  14.252   3.574  12.143
44080W        W10489  16.359   2.976   3.756
44081W        W10490  39.744   4.279  14.412
44082W        W10491  35.184  10.519  11.053
44083W        W10492   6.577   7.190  12.880
44084W        W10493  25.813  31.719   5.204
44085W        W10494   2.550  18.368  14.972
44086W        W10495  34.808  22.560  11.578
44087W        W10496  44.846  43.527   4.643
44088W        W10497   4.726  20.178  13.823
44089W        W10498  36.961   8.327   2.227
44090W        W10499   6.680  44.923   1.851
44091W        W10500   2.898  13.624  11.968
44092W        W10501  38.867  36.964  12.820
44093W        W10502  35.914  33.925  13.976
44094W        W10503  43.266  34.403  14.354
44095W        W10504   2.835  10.733  11.164
44096W        W10505  17.579  10.789  14.619
44097W        W10506  42.905  17.292  13.707
44098W        W10507  41.539  28.184   2.179
44099W        W10508  36.498   0.820   0.668
44100W        W10509   3.717  42.094  13.084
44101W        W10510  30.000  43.861  11.170
44102W        W10511  11.868  21.752  13.142
44103W        W10512  36.821  32.105  11.899
44104W        W10513  14.898  29.935   2.382
44105W        W10514  31.787  32.650  13.993
44106W        W10515   9.806  43.170   4.169
44107W        W10516  23.866  14.704   2.654
44108W        W10517  12.067  24.507   2.745
44109W        W10518   5.274   1.269  14.027
44110W        W10519   7.302  26.235   3.779
44111W        W10520  41.331  10.664   2.593
44112W        W10521  27.859  38.033   3.424
44113W        W10522  14.901  27.520  13.940
44114W        W10523  40.118  10.544  13.343
44115W        W10524   4.685  37.012   2.809
44116W        W10525   1.978  36.875  11.712
44117W        W10526  28.425   4.184  11.113
44118W        W10527  18.153  35.853  11.513
44119W        W10528  24.735  32.754   0.874
44120W        W10529  42.036  39.374   1.755
44121W        W10530  41.844  18.704   1.592
44122W        W10531  38.289  41.322   1.423
44123W        W10532   6.213   2.246   4.420
44124W        W10533  34.083  43.185  13.108
44125W        W10534  40.519  16.186   0.815
44126W        W10535   7.654  16.268   4.177
44127W        W10536  14.079   8.430   2.986
44128W        W10537  23.633   1.906   4.906
44129W        W10538   4.936  15.303   0.848
44130W        W10539   6.705  19.639   3.443
44131W        W10540   4.623   4.366   1.436
44132W        W10541   0.719  11.667   3.639
44133W        W10542  41.362  38.710  11.184
44134W        W10543  43.971   3.243  12.929
44135W        W10544  14.687   5.726  12.462
44136W        W10545  37.117   5.290   2.880
44137W        W10546   4.797  15.183  14.325
44138W        W10547  31.913   9.662   0.023
44139W        W10548  21.717  27.088  10.732
44140W        W10549  39.135  21.143  12.425
44141W        W10550   0.245  17.217   1.228
44142W        W10551  31.564  39.235   2.909
44143W        W10552   9.141  10.469   0.978
44144W        W10553   9.423  26.794  11.548
44145W        W10554  12.102  21.500   2.852
44146W        W10555  16.835   1.280  10.605
44147W        W10556   7.260   1.212   4.679
44148W        W10557   1.760  23.915   3.407
44149W        W10558  34.116  34.968  12.481
44150W        W10559  31.164   5.806  10.966
44151W        W10560  29.562  24.295   4.719
44152W        W10561  39.291  33.604   0.010
44153W        W10562  33.111   6.885   0.053
44154W        W10563  25.507   6.227  11.942
44155W        W10564  39.167  41.582   4.939
44156W        W10565  18.327  33.470   2.450
44157W        W10566  19.704  22.963  13.952
44158W        W10567  15.679   8.826   2.279
44159W        W10568  17.571  36.033   1.625
44160W        W10569  34.769  16.503  11.990
44161W        W10570  20.537  21.695   1.785
44162W        W10571  25.570  18.677   3.336
44163W        W10572  10.787   2.481  10.831
44164W        W10573  24.609  13.396   2.782
44165W        W10574   4.952  35.342  12.402
44166W        W10575  21.825  26.177  10.575
44167W        W10576  26.977  15.822   0.266
44168W        W10577  27.755  15.391   0.760
44169W        W10578  30.738   0.859   2.313
44170W        W10579   7.676  20.133   0.854
44171W        W10580  15.900   5.398   1.744
44172W        W10581  40.583  17.240  11.303
44173W        W10582  15.798  19.080  11.778
44174W        W10583  23.995  41.593   3.214
44175W        W10584  33.408   0.304   1.924
44176W        W10585  12.639   7.223   2.272
44177W        W10586   2.184  30.581  11.317
44178W        W10587  29.112   4.063   0.715
44179W        W10588  20.117  31.905   0.973
44180W        W10589   4.251  40.818  11.984
44181W        W10590  21.538  30.024  14.921
44182W        W10591  12.056  17.355   3.297
44183W        W10592  34.836  44.822   4.186
44184W        W10593   9.983  19.636  14.360
44185W        W10594  13.693   4.366   4.497
44186W        W10595  32.800   4.786  12.367
44187W        W10596  19.210  12.333  11.938
44188W        W10597  29.116  28.949   3.896
44189W        W10598  42.057   0.715  10.749
44190W        W10599  40.078  10.416  14.075
44191W        W10600  28.445  12.380   0.453
44192W        W10601  12.099  42.065  12.491
44193W        W10602  16.707  22.228  11.552
44194W        W10603   6.591  30.010  14.549
44195W        W10604  23.083  44.024   2.810
44196W        W10605  13.176  42.454   1.866
44197W        W10606   5.223  11.101  10.871
44198W        W10607  23.988  31.195  10.689
44199W        W10608  41.214  44.512  14.867
44200W        W10609  32.785   1.941   2.082
44201W        W10610   4.290  18.211   1.249
44202W        W10611  32.040  31.997   0.898
44203W        W10612  40.988   1.256  11.497
44204W        W10613  32.458  39.987  13.353
44205W        W10614  22.768  13.112  13.210
44206W        W10615  28.264  31.496   4.585
44207W        W10616  12.850  36.798   4.161
44208W        W10617  29.705  43.474  10.999
44209W        W10618   1.794   5.377   0.031
44210W        W10619  18.810  43.054  12.876
44211W        W10620   0.326  12.818  11.699
44212W        W10621   7.723  11.138   3.572
44213W        W10622  11.389  41.202   3.274
44214W        W10623  11.586  34.384   0.748
44215W        W10624  33.009  18.224   2.190
44216W        W10625  38.752  20.463  11.303
44217W        W10626  23.622  37.422  14.744
44218W        W10627  27.145  24.967   3.182
44219W        W10628  20.537   0.243  12.326
44220W        W10629  37.004  17.125   2.695
44221W        W10630  28.466   7.415  14.857
44222W        W10631  41.950  42.514  10.650
44223W        W10632  36.869   8.655   1.786
44224W        W10633  11.797  29.376  12.861
44225W        W10634  23.585  37.473  14.199
44226W        W10635   6.653  10.135   0.417
44227W        W10636  10.635  13.699   0.796
44228W        W10637  13.188   4.980  12.074
44229W        W10638   0.819  17.822   4.620
44230W        W10639   8.210  27.560   0.509
44231W        W10640   3.475  43.249  10.957
44232W        W10641  44.250  27.575  12.554
44233W        W10642   5.508  33.118  11.395
44234W        W10643  18.494  40.048   0.626
44235W        W10644  14.882  28.629  13.399
44236W        W10645  36.562  19.282   3.162
44237W        W10646  27.080  27.245  11.093
44238W        W10647  23.058  36.308  12.416
44239W        W10648  19.790  22.203  11.202
44240W        W10649  12.259  38.831   2.881
44241W        W10650  24.060  32.188  13.256
44242W        W10651   2.991  34.507  11.693
44243W        W10652  19.957  38.902   3.293
44244W        W10653  32.623   8.545   2.775
44245W        W10654  39.386  21.748  14.538
44246W        W10655  28.970   2.326   2.276
44247W        W10656   7.367   3.670  14.749
44248W        W10657   4.765  38.417  11.604
44249W        W10658  35.004  32.416  14.951
44250W        W10659  42.086  23.533  14.513
44251W        W10660  40.784  22.504   3.307
44252W        W10661  14.007   5.747   4.668
44253W        W10662  33.444  26.526   2.865
44254W        W10663   2.350  30.871  13.800
44255W        W10664  13.047  31.667  10.961
44256W        W10665  24.607  12.658  14.621
44257W        W10666  20.528  22.549   3.179
44258W        W10667   9.269   8.698   2.410
44259W        W10668  35.909  14.617   3.261
44260W        W10669  14.826  34.016   4.384
44261W        W10670  25.040  28.534   3.684
44262W        W10671  11.829   2.882  10.188
44263W        W10672  19.171  32.444  10.790
44264W        W10673  40.134  41.024  12.837
44265W        W10674   9.116  40.421   3.653
44266W        W10675  33.498  32.706   3.253
44267W        W10676  24.468   1.511  10.536
44268W        W10677  32.891  22.481   0.911
44269W        W10678  34.876  32.942   3.511
44270W        W10679  28.265   5.736   0.465
44271W        W10680  42.151  30.425   2.352
44272W        W10681  25.048  13.628   3.939
44273W        W10682  40.816   9.671   3.718
44274W        W10683   1.276  33.945   0.075
44275W        W10684  32.575   8.298   4.239
44276W        W10685  16.598  33.963   2.422
44277W        W10686  11.415  10.545  14.591
44278W        W10687   1.922  16.881  14.714
44279W        W10688  30.942  12.718   2.174
44280W        W10689  14.840  28.419   4.833
44281W        W10690  18.695  25.164  11.596
44282W        W10691  32.297   4.609  14.787
44283W        W10692  23.073  20.154  14.337
44284W        W10693  16.264  41.003  11.526
44285W        W10694  27.335   9.260   2.782
44286W        W10695  23.975  34.355   1.777
44287W        W10696  43.722   4.359   4.777
44288W        W10697  31.484   1.825  13.543
44289W        W10698  12.742  10.936  12.911
44290W        W10699  20.760  41.325  14.338
44291W        W10700  15.973  19.714   4.263
44292W        W10701  37.815  43.978  11.571
44293W        W10702   3.872  23.464  12.091
44294W        W10703  19.038  40.563  13.054
44295W        W10704  16.729  20.993   0.344
44296W        W10705   0.036  13.932  11.153
44297W        W10706  31.648   2.860  12.065
44298W        W10707   7.875  12.600  10.547
44299W        W10708  16.182   3.212   1.305
44300W        W10709  26.150  28.608  12.510
44301W        W10710  19.533  36.454   4.241
44302W        W10711  11.338  10.575   0.506
44303W        W10712  34.732   4.339  13.368
44304W        W10713  38.447  40.712   0.564
44305W        W10714  31.457   1.820   4.592
44306W        W10715  37.826  40.095  14.589
44307W        W10716  35.749  31.019  14.390
44308W        W10717  18.557  21.971  13.577
44309W        W10718  22.579  14.209   4.861
44310W        W10719   4.336  19.067  11.386
44311W        W10720  33.141  16.507  12.771
44312W        W10721  26.470   2.228   2.380
44313W        W10722  11.855   0.877   3.113
44314W        W10723  36.347  28.141  12.639
44315W        W10724  35.396  38.248  14.178
44316W        W10725  21.948  34.601   4.059
44317W        W10726   7.186  13.920  12.345
44318W        W10727  38.802  35.583  12.448
44319W        W10728   5.888  37.385  12.433
44320W        W10729  38.532  31.908  14.544
44321W        W10730  25.626  36.493  14.356
44322W        W10731   1.768   9.926   3.634
44323W        W10732  22.267  26.284   1.998
44324W        W10733  36.984   1.508   0.494
44325W        W10734  26.705  44.483   1.455
44326W        W10735   6.727  34.181   1.243
44327W        W10736   6.592  20.633   4.256
44328W        W10737  41.885  20.605  11.839
44329W        W10738  33.154  18.142   2.667
44330W        W10739  24.962  11.085   2.803
44331W        W10740   7.279  28.446   4.124
44332W        W10741   6.162   7.838  10.657
44333W        W10742  25.473  18.393   3.755
44334W        W10743  11.297  12.324   4.460
44335W        W10744  11.057   4.233  13.957
44336W        W10745  16.033  12.585   0.385
44337W        W10746  21.579   1.939   1.790
44338W        W10747  31.929  40.414  14.417
44339W        W10748  14.595  20.805  13.887
44340W        W10749  34.360  38.449   3.403
44341W        W10750  42.302  41.093   1.339
44342W        W10751  34.328  32.452  13.686
44343W        W10752  40.836  27.048   0.535
44344W        W10753  19.505  41.915   2.732
44345W        W10754  11.129  39.276  11.998
44346W        W10755   4.016  34.415  14.442
44347W        W10756  10.632  40.570   3.624
44348W        W10757  26.203  36.018  14.287
44349W        W10758  14.493  33.155   1.256
44350W        W10759   6.905  44.955  10.583
44351W        W10760  38.010   9.218  14.432
44352W        W10761  30.902  11.685   5.313
44353W        W10762  12.540  37.816   3.197
44354W        W10763  14.170   2.194   3.189
44355W        W10764   0.599  14.689   0.489
44356W        W10765  15.049  39.580  11.230
44357W        W10766  23.663   3.957   2.977
44358W        W10767  19.184  19.659  10.713
44359W        W10768  32.039  15.039  10.801
44360W        W10769   3.807   5.788  14.351
44361W        W10770  29.651  11.270   5.029
44362W        W10771  26.943  41.438   9.941
44363W        W10772  31.752  38.109   0.784
44364W        W10773  42.457  41.742   2.215
44365W        W10774  33.523  40.863   1.309
44366W        W10775  37.371  11.579   2.365
44367W        W10776   1.873  40.424   4.254
44368W        W10777  16.774  32.846  11.468
44369W        W10778  10.565  40.047  11.679
44370W        W10779  32.676  23.406  13.455
44371W        W10780  44.618  44.391   2.905
44372W        W10781  39.122   3.997  13.484
44373W        W10782   3.082  11.663  11.572
44374W        W10783  26.731  15.693   3.707
44375W        W10784  40.463  15.794  13.556
44376W        W10785   1.203  44.597  14.292
44377W        W10786  15.038  19.985   4.950
44378W        W10787  35.647  18.628  11.488
44379W        W10788   8.287   0.257  12.080
44380W        W10789   3.382  15.019  12.479
44381W        W10790  16.134  35.976   2.723
44382W        W10791  21.196   3.899   5.076
44383W        W10792  12.166   8.204  13.022
44384W        W10793  14.940  22.588   4.173
44385W        W10794  28.757  24.959   4.165
44386W        W10795  15.571  16.506   1.718
44387W        W10796  20.652  20.542  12.371
44388W        W10797  38.628  40.838  12.270
44389W        W10798  10.370  35.423   0.692
44390W        W10799  41.506   5.452   2.377
44391W        W10800  44.979  24.247   4.604
44392W        W10801  42.795  27.714   4.614
44393W        W10802  38.963   6.228  12.483
44394W        W10803  25.551   1.492   2.428
44395W        W10804  31.235   6.217   3.794
44396W        W10805  24.045  21.234   1.220
44397W        W10806  12.068  44.990   2.645
44398W        W10807   9.223  15.816  13.446
44399W        W10808  16.799  34.332   2.734
44400W        W10809  14.863  30.528  14.547
44401W        W10810   7.897  22.153   2.455
44402W        W10811   0.804  26.797   4.629
44403W        W10812  26.683   0.812  10.974
44404W        W10813  17.795  37.159  12.472
44405W        W10814  33.006  27.582   3.182
44406W        W10815  22.190  13.221  13.536
44407W        W10816  13.151  12.275  10.674
44408W        W10817  17.525  14.273  11.614
44409W        W10818   4.159   6.908   3.181
44410W        W10819  32.630  31.502  13.966
44411W        W10820  13.533  30.113   0.725
44412W        W10821  21.467   6.602   2.349
44413W        W10822  21.235  14.662   4.596
44414W        W10823   1.421  28.933   4.172
44415W        W10824  31.049  14.156   0.470
44416W        W10825   6.465   7.257   2.164
44417W        W10826  26.457  43.028   1.623
44418W        W10827   4.252  19.947  11.715
44419W        W10828  21.725  41.785  11.571
44420W        W10829   6.395   8.380  12.385
44421W        W10830  30.442   0.271   2.421
44422W        W10831  33.915  13.545  10.947
44423W        W10832   2.921  10.165  11.014
44424W        W10833  23.692  36.850  11.607
44425W        W10834   6.966  26.413   4.156
44426W        W10835  13.593  27.860   4.753
44427W        W10836   2.862  44.337  12.509
44428W        W10837  42.661  33.607   0.871
44429W        W10838  14.661   8.310   1.340
44430W        W10839   6.721  30.007   2.874
44431W        W10840   0.207  35.123  14.546
44432W        W10841  15.017  11.667   2.817
44433W        W10842  10.634  43.703  12.665
44434W        W10843   4.547  39.978  13.344
44435W        W10844  35.622  11.865  12.187
44436W        W10845  10.799  32.796   1.311
44437W        W10846  29.513  29.591  14.428
44438W        W10847   4.138  26.409  10.933
44439W        W10848  29.046  20.122   3.874
44440W        W10849   1.885  18.182   4.501
44441W        W10850  28.539  12.998  13.477
44442W        W10851  41.084  44.487  13.938
44443W        W10852   9.833   9.485   1.953
44444W        W10853   8.876  21.143   4.195
44445W        W10854   3.948  40.406   4.292
44446W        W10855  37.892   1.381   3.284
44447W        W10856  26.576   8.380   0.356
44448W        W10857  30.951  25.546   4.625
44449W        W10858  33.933  28.108  14.400
44450W        W10859  24.714  28.652   0.815
44451W        W10860  20.615  39.809   0.474
44452W        W10861  22.342  43.883  10.617
44453W        W10862  22.169  10.637   3.668
44454W        W10863  21.338  21.323  11.826
44455W        W10864  10.909  43.386  14.486
44456W        W10865  36.785  16.764  10.575
44457W        W10866  20.700  26.967  12.215
44458W        W10867   0.814  19.541   3.683
44459W        W10868   4.683  14.708  12.990
44460W        W10869  23.031  38.449  13.808
44461W        W10870   6.779  41.570   3.082
44462W        W10871  39.145   1.876  11.952
44463W        W10872  24.542  21.370   1.249
44464W        W10873  35.990  14.239   3.696
44465W        W10874  26.622  39.355  11.620
44466W        W10875  21.220  11.442  13.541
44467W        W10876  44.291   2.004   3.345
44468W        W10877  33.164  39.879  14.004
44469W        W10878  18.094   8.077   0.920
44470W        W10879   7.952  44.386  12.524
44471W        W10880   1.446   3.461   2.746
44472W        W10881  26.094  17.265  14.060
44473W        W10882   4.188  21.407  11.512
44474W        W10883  24.604  18.798   3.201
44475W        W10884  15.327  44.795   4.433
44476W        W10885   3.141   0.305   2.686
44477W        W10886  37.033  15.049   3.565
44478W        W10887  17.526  24.529  12.499
44479W        W10888  33.054  38.088  13.751
44480W        W10889   4.399  14.493   0.195
44481W        W10890  41.012  18.431   1.899
44482W        W10891  24.613  31.566  13.999
44483W        W10892  19.478   2.336  11.932
44484W        W10893  17.717  32.911  13.990
44485W        W10894  43.253   9.609   3.603
44486W        W10895  28.065  22.071   4.161
44487W        W10896  44.457   7.426  13.446
44488W        W10897   1.273   9.907   4.380
44489W        W10898   8.883  16.372  11.070
44490W        W10899   9.560  16.869   3.647
44491W        W10900  31.989  40.429   3.285
44492W        W10901  40.553  24.150   3.359
44493W        W10902  30.776  39.401   1.286
44494W        W10903  36.634  30.682  14.563
44495W        W10904  27.116  20.134  11.157
44496W        W10905   9.646  27.886  14.586
44497W        W10906  41.549  38.927  12.940
44498W        W10907  31.541  31.558   4.378
44499W        W10908  33.671  15.819  12.052
44500W        W10909  34.748  35.325  14.873
44501W        W10910   0.521  18.116   1.422
44502W        W10911  30.091  44.457   3.762
44503W        W10912  33.726  34.070  10.336
44504W        W10913  16.699   0.304   0.048
44505W        W10914   1.243  20.547  12.351
44506W        W10915  41.860  20.518   4.210
44507W        W10916  40.351  22.219   3.681
44508W        W10917  22.083  42.677  12.411
44509W        W10918   5.819  24.173   0.722
44510W        W10919   6.387  27.463  11.594
44511W        W10920   2.766   4.422  13.172
44512W        W10921  25.703  14.864  13.325
44513W        W10922  31.699  32.107  11.572
44514W        W10923  13.510   5.403  13.183
44515W        W10924  34.948  10.125  12.118
44516W        W10925  27.465  32.612  14.392
44517W        W10926   6.758  39.763   3.634
44518W        W10927   4.910  13.885   1.703
44519W        W10928  26.041   3.222  13.604
44520W        W10929  15.208   6.610   3.992
44521W        W10930  11.998   4.107  12.158
44522W        W10931  19.816  13.031  10.747
44523W        W10932  13.585  19.628   2.659
44524W        W10933  27.005  40.738   3.737
44525W        W10934  16.334  35.592   1.770
44526W        W10935  28.934  10.036   0.325
44527W        W10936  13.416  22.898  14.268
44528W        W10937  33.910  10.650  13.875
44529W        W10938  29.161  44.905  14.711
44530W        W10939  17.690  18.112  14.881
44531W        W10940  17.045   6.545   0.784
44532W        W10941  16.261  32.448   1.796
44533W        W10942  22.767  42.621  13.581
44534W        W10943  12.815  32.072  11.836
44535W        W10944   6.986  36.453   0.956
44536W        W10945  20.966  10.777  11.555
44537W        W10946   6.129  27.559  13.753
44538W        W10947   9.872  13.586  13.932
44539W        W10948  43.922  31.480  10.821
44540W        W10949   9.997  33.425  12.821
44541W        W10950  25.657   9.796  13.901
44542W        W10951  44.283  17.171  14.777
44543W        W10952  13.279  22.014  14.884
44544W        W10953  41.472  42.708   1.503
44545W        W10954  10.141  15.151  11.701
44546W        W10955   8.416  40.838   2.821
44547W        W10956  18.857  31.590  14.391
44548W        W10957  43.864   0.887  12.132
44549W        W10958  13.933  28.016  12.681
44550W        W10959  41.393  38.741   0.274
44551W        W10960  44.131   7.333  14.314
44552W        W10961  37.974   3.870   3.188
44553W        W10962  11.912  15.253   1.937
44554W        W10963  11.988   1.430  11.969
44555W        W10964  14.326  36.042  11.216
44556W        W10965  33.847  29.098   3.190
44557W        W10966  32.929  40.279  13.081
44558W        W10967  33.557   6.701  13.734
44559W        W10968  28.265  14.797   4.172
44560W        W10969  41.854  20.007  14.826
44561W        W10970  43.502  36.909   1.466
44562W        W10971  30.129  16.742   1.384
44563W        W10972  44.203  39.882   2.387
44564W        W10973   9.407  21.685   0.376
44565W        W10974  32.196  14.670   1.234
44566W        W10975   5.646  32.473  13.979
44567W        W10976  25.744  11.673   1.274
44568W        W10977  15.578  10.853  11.570
44569W        W10978  19.084  37.135  12.020
44570W        W10979  27.805   3.767   1.980
44571W        W10980  18.465  22.323   4.640
44572W        W10981  16.754  44.976   4.769
44573W        W10982  20.543  17.548   4.234
44574W        W10983  24.391  44.905   4.570
44575W        W10984  39.492  26.414   3.789
44576W        W10985  30.009  29.845   4.216
44577W        W10986  37.828   5.276  10.898
44578W        W10987  33.536  26.643   2.357
44579W        W10988  24.588  43.226   0.946
44580W        W10989  17.131  27.076   2.073
44581W        W10990  34.494   7.347   4.028
44582W        W10991  27.879   8.213  12.349
44583W        W10992   0.512  25.630  14.345
44584W        W10993  34.002   1.692  12.777
44585W        W10994  34.405  16.684   2.781
44586W        W10995  26.336  26.427   4.851
44587W        W10996  18.919  42.801   2.847
44588W        W10997  40.436  16.687   3.747
44589W        W10998   4.521  27.738  13.430
44590W        W10999   6.232   7.017   0.662
44591W        W11000  11.801  26.180  14.286
44592W        W11001  24.689  16.060   3.123
44593W        W11002  17.497   9.080  12.740
44594W        W11003   4.838  39.478   2.109
44595W        W11004  15.667   9.881   3.288
44596W        W11005  21.931  39.341   0.466
44597W        W11006  24.185  14.248  12.201
44598W        W11007  17.937  37.981   0.819
44599W        W11008  12.025  21.614  13.965
44600W        W11009   3.750   4.690   4.176
44601W        W11010  16.233  23.268  10.575
44602W        W11011   8.408   7.407  10.828
44603W        W11012  38.854   4.827   2.873
44604W        W11013   6.884  19.711  14.708
44605W        W11014  15.611  38.588  13.647
44606W        W11015  15.940  32.689   4.246
44607W        W11016   3.992  26.507  10.183
44608W        W11017  14.182  43.834   0.379
44609W        W11018  43.889  30.884  13.005
44610W        W11019  19.006   3.868  11.291
44611W        W11020   8.423  10.759   0.462
44612W        W11021  11.766  16.301   1.787
44613W        W11022  25.549   3.003  13.513
44614W        W11023  31.608   9.269  11.223
44615W        W11024  21.049   0.878   2.099
44616W        W11025  19.554   2.757  10.703
44617W        W11026  16.086  40.821  14.347
44618W        W11027  32.218  17.314  11.582
44619W        W11028  10.804   5.886   1.803
44620W        W11029  22.472  18.146  14.003
44621W        W11030  15.730  42.562   1.315
44622W        W11031  44.205   9.878   1.287
44623W        W11032   3.079   6.832   0.481
44624W        W11033   9.665  27.379  14.484
44625W        W11034   8.214  19.080  10.464
44626W        W11035  32.364   4.308  13.037
44627W        W11036   1.940  19.499  13.067
44628W        W11037  32.015  23.858  11.496
44629W        W11038  34.122  43.940   2.074
44630W        W11039  31.018   4.235  14.035
44631W        W11040  26.445  28.609  12.074
44632W        W11041  31.440  22.136   0.808
44633W        W11042  40.819   2.832   4.143
44634W        W11043  18.706  23.088   2.725
44635W        W11044  12.093  15.780  10.757
44636W        W11045  19.836  37.004   0.284
44637W        W11046  10.426   2.744   4.276
44638W        W11047   7.396  25.589   5.010
44639W        W11048  21.076  13.712   4.814
44640W        W11049  21.933  44.876  13.904
44641W        W11050  31.035   5.824  12.705
44642W        W11051  30.907  43.993   4.561
44643W        W11052   0.934  18.009  11.059
44644W        W11053  10.339   8.118   1.402
44645W        W11054   2.842  28.092   2.325
44646W        W11055  27.628  26.778  13.348
44647W        W11056  33.065   8.650  14.477
44648W        W11057  44.353  20.308   0.395
44649W        W11058  33.549  22.965  10.886
44650W        W11059   8.230  21.277   1.777
44651W        W11060  39.326  32.704   2.805
44652W        W11061  10.428   4.305   3.934
44653W        W11062  42.541  44.344  11.449
44654W        W11063  33.834  10.840   0.234
44655W        W11064  39.586  17.536  13.807
44656W        W11065  30.975   4.661  14.334
44657W        W11066  40.397  37.999  11.581
44658W        W11067   1.729  10.877   2.921
44659W        W11068  16.240  16.662   3.433
44660W        W11069   3.866   2.262  14.434
44661W        W11070  15.474  23.216   1.764
44662W        W11071   4.773  37.899  13.010
44663W        W11072  19.863  11.749   4.192
44664W        W11073  27.481  25.513  11.010
44665W        W11074   0.804  21.787   1.703
44666W        W11075  43.225   1.059  12.989
44667W        W11076  23.589  26.767  14.070
44668W        W11077   1.732   6.468   2.202
44669W        W11078   8.848  25.063   4.013
44670W        W11079  40.086   0.978   3.718
44671W        W11080  43.226   8.636   4.270
44672W        W11081  39.394  11.382   1.693
44673W        W11082  44.047  34.198  14.347
44674W        W11083  33.906   7.166   4.596
44675W        W11084  30.965   1.739   4.745
44676W        W11085   5.068  21.602   4.450
44677W        W11086   1.683  27.032   3.160
44678W        W11087  10.703   4.330  12.003
44679W        W11088   3.528   2.273  13.823
44680W        W11089  26.735  40.889  12.326
44681W        W11090  20.829  14.685  10.674
44682W        W11091  33.209   9.132   3.200
44683W        W11092  38.435  34.670  14.598
44684W        W11093  17.485   4.785  12.590
44685W        W11094  28.618  19.767   2.914
44686W        W11095  38.369  41.287  12.202
44687W        W11096  23.653  34.933   2.471
44688W        W11097  21.046  15.081  12.452
44689W        W11098  30.372  22.127  10.458
44690W        W11099   6.676  33.873  14.869
44691W        W11100  34.768  39.956  10.569
44692W        W11101  25.537   7.567   3.279
44693W        W11102  11.178   6.794   3.772
44694W        W11103  38.830  13.355   4.957
44695W        W11104   5.295   9.363   0.721
44696W        W11105  22.784  12.569   0.294
44697W        W11106  30.364  16.607  10.754
44698W        W11107  39.765  16.785   0.836
44699W        W11108  19.272  29.770   2.630
44700W        W11109  44.978  32.459  11.630
44701W        W11110   1.477   0.918  10.732
44702W        W11111  27.091  35.026  14.262
44703W        W11112   8.932  15.005   4.597
44704W        W11113  15.842  28.760   4.874
44705W        W11114   6.744  29.568  12.421
44706W        W11115  22.681   0.934   0.530
44707W        W11116  22.628  29.032  10.425
44708W        W11117  43.922   4.278   2.315
44709W        W11118  11.724  30.855   2.279
44710W        W11119  22.650  39.675  10.093
44711W        W11120  22.690  24.483   4.103
44712W        W11121  31.453  12.632   4.530
44713W        W11122   3.890   5.181  12.120
44714W        W11123  18.877   1.784   0.361
44715W        W11124  17.487  33.485  11.681
44716W        W11125   3.410  44.514  12.461
44717W        W11126   0.777  33.633   0.026
44718W        W11127   6.376  18.137   3.279
44719W        W11128  12.393   7.112   3.745
44720W        W11129  36.963  42.436   4.850
44721W        W11130  21.271  21.663   4.909
44722W        W11131  43.976  19.751   0.829
44723W        W11132  15.013   4.327  14.767
44724W        W11133  39.738   7.323   2.273
44725W        W11134  28.197  42.065   0.589
44726W        W11135  31.079  26.731   1.694
44727W        W11136  10.315  13.328  11.232
44728W        W11137  31.584  29.575   3.609
44729W        W11138   0.897  34.087  12.981
44730W        W11139  16.292  31.028  10.730
44731W        W11140  30.045   1.310  12.614
44732W        W11141  30.714  38.786   2.592
44733W        W11142  38.402  21.682  13.979
44734W        W11143  44.073  16.269  11.880
44735W        W11144   6.446  26.451   4.079
44736W        W11145   6.867  22.970  14.909
44737W        W11146   1.138  11.615   3.329
44738W        W11147  35.066   5.912   2.753
44739W        W11148  14.549   1.791  11.706
44740W        W11149  33.041  38.023  14.276
44741W        W11150  41.726  14.692   0.861
44742W        W11151   5.758   7.565  12.411
44743W        W11152  10.053  16.625   2.663
44744W        W11153  10.095  34.677  12.752
44745W        W11154  41.934  17.699  10.399
44746W        W11155  23.722  37.873   4.130
44747W        W11156  23.133  26.388  14.181
44748W        W11157  30.209  28.206  11.966
44749W        W11158   8.900   7.239  10.695
44750W        W11159  15.107  33.713  14.919
44751W        W11160  37.655  23.612  12.971
44752W        W11161  42.214  36.677  14.902
44753W        W11162  41.525   8.796  10.774
44754W        W11163  21.558  31.921   2.738
44755W        W11164   8.198  40.789   0.941
44756W        W11165  42.401  39.643  12.595
44757W        W11166  15.023  27.124  10.756
44758W        W11167   9.168  35.403  11.191
44759W        W11168  14.691  28.393   0.574
44760W        W11169  35.123  37.294  14.800
44761W        W11170  39.090  42.728   4.286
44762W        W11171  39.627  34.375   4.240
44763W        W11172  17.742  44.731  13.019
44764W        W11173  17.956  21.239   1.947
44765W        W11174  39.765  18.706   2.750
44766W        W11175  23.238  33.692   2.891
44767W        W11176  44.039  29.581   0.420
44768W        W11177  34.048   5.646   4.546
44769W        W11178   7.821  22.069   3.742
44770W        W11179  41.269   8.618   4.651
44771W        W11180   0.686  39.785   4.139
44772W        W11181  41.503  30.386  12.977
44773W        W11182   2.472  20.648  12.100
44774W        W11183   3.723  21.119  13.026
44775W        W11184  36.408   2.863   3.351
44776W        W11185  12.429  38.348   5.097
44777W        W11186  41.648  10.689  10.719
44778W        W11187  43.157  36.951   2.536
44779W        W11188   3.055  36.114   2.722
44780W        W11189  20.830  28.577  13.867
44781W        W11190  15.877   5.496   4.716
44782W        W11191  40.583  31.891   4.281
44783W        W11192   0.443  43.811  10.374
44784W        W11193   5.162  42.578   2.851
44785W        W11194  15.873  12.704   3.343
44786W        W11195  39.858   0.035   3.817
44787W        W11196  26.741   5.863  12.933
44788W        W11197   5.777  11.861  14.456
44789W        W11198  17.242   7.255  12.569
44790W        W11199  24.168  31.130   0.400
44791W        W11200  13.631  28.045   2.185
44792W        W11201  27.552  12.278  10.479
44793W        W11202   7.334  42.925  10.780
44794W        W11203  24.588  23.977   0.783
44795W        W11204  18.561   8.943  11.217
44796W        W11205  19.826  17.551   0.597
44797W        W11206  12.569   3.943   4.985
44798W        W11207  22.795  36.672  14.363
44799W        W11208  38.771   3.495  10.666
44800W        W11209  26.888  33.851  12.085
44801W        W11210   0.041  11.733   1.257
44802W        W11211  25.111  17.801  12.420
44803W        W11212  37.071  43.363   0.741
44804W        W11213  13.526  29.919  10.969
44805W        W11214  11.135  31.978  12.456
44806W        W11215  17.084  14.614  12.005
44807W        W11216   0.305  33.463  14.822
44808W        W11217  19.261  19.284  11.969
44809W        W11218  31.390  36.557  13.660
44810W        W11219  21.989  30.391   2.166
44811W        W11220   2.997  14.301   3.675
44812W        W11221   0.470  32.971   4.051
44813W        W11222   8.773  18.203  14.897
44814W        W11223  39.299  37.499  12.396
44815W        W11224  13.841  27.943   1.734
44816W        W11225  37.316  39.868  10.975
44817W        W11226   0.672  10.760   3.688
44818W        W11227  39.566   5.808   1.275
44819W        W11228  15.646  43.856   4.740
44820W        W11229  17.574  44.800   2.895
44821W        W11230  40.462  17.356  11.800
44822W        W11231  22.713  27.701  14.503
44823W        W11232  42.389   3.656   3.751
44824W        W11233  14.121  43.812  11.335
44825W        W11234   6.719  26.727  13.989
44826W        W11235  11.621   9.767   4.670
44827W        W11236  44.287  42.815  12.055
44828W        W11237   2.937  10.108  10.485
44829W        W11238  35.687  26.627   0.214
44830W        W11239  15.869  35.305   4.291
44831W        W11240  29.593  31.382  10.855
44832W        W11241   7.859   7.123  12.577
44833W        W11242   3.678  23.504  11.614
44834W        W11243  38.536  32.842   2.200
44835W        W11244  21.483  20.410   1.119
44836W        W11245   1.431  29.724   0.958
44837W        W11246  19.840   5.646  13.462
44838W        W11247   7.948  13.346  11.873
44839W        W11248   1.966   7.028  13.809
44840W        W11249  17.044  39.842   3.125
44841W        W11250  32.951  23.521   4.411
44842W        W11251  23.300   4.369   2.271
44843W        W11252  27.986  37.506   2.170
44844W        W11253  38.043  21.512   2.169
44845W        W11254  41.254   2.264  11.895
44846W        W11255  43.524  32.932   4.581
44847W        W11256  37.925   5.935  11.734
44848W        W11257   3.654  26.481   4.306
44849W        W11258  11.104  30.691  12.015
44850W        W11259  26.365  13.737  14.478
44851W        W11260   3.370  44.231  10.716
44852W        W11261   5.100  29.434   2.752
44853W        W11262  33.801  29.550   1.106
44854W        W11263   3.940   7.300  13.533
44855W        W11264  43.184  29.689  12.021
44856W        W11265  12.069   7.691  14.296
44857W        W11266  20.078   1.645  12.197
44858W        W11267  33.966  33.047   4.241
44859W        W11268  37.774  19.595  14.546
44860W        W11269  22.069  29.008  14.420
44861W        W11270  32.148  17.504   4.003
44862W        W11271  43.982  16.672   4.068
44863W        W11272  44.363  16.606   3.689
44864W        W11273   5.126   4.342   2.809
44865W        W11274  33.877  26.433  10.697
44866W        W11275  35.845   2.168   1.728
44867W        W11276  19.629  43.751  13.149
44868W        W11277   9.856   3.888   4.231
44869W        W11278   4.791  19.909   4.922
44870W        W11279   0.841  34.441  11.997
44871W        W11280  12.340  21.564  12.967
44872W        W11281   2.153   8.211  13.609
44873W        W11282  20.725   3.735   4.895
44874W        W11283  21.566   3.430  12.567
44875W        W11284  13.346  34.073   3.337
44876W        W11285  11.455  12.837  14.983
44877W        W11286   0.219  15.612  14.526
44878W        W11287  26.911  13.821   3.742
44879W        W11288  28.475  38.594  12.947
44880W        W11289  16.272  41.797   4.144
44881W        W11290  16.181  15.962  10.757
44882W        W11291  33.084  40.134   3.642
44883W        W11292  37.615  23.143   0.988
44884W        W11293  30.002  39.796   2.167
44885W        W11294  11.977  34.007   2.661
44886W        W11295   2.402  27.500  10.479
44887W        W11296  42.322  36.050  12.707
44888W        W11297  29.884   8.369   0.351
44889W        W11298  20.306  35.169   0.430
44890W        W11299  44.339  13.558   1.746
44891W        W11300   8.205  18.239   3.333
44892W        W11301  10.289  27.694   4.304
44893W        W11302   2.718  43.384  12.666
44894W        W11303  12.209  22.594  13.091
44895W        W11304  24.239  37.381  13.344
44896W        W11305  28.712   2.240   3.957
44897W        W11306   2.813  30.721  14.013
44898W        W11307  37.276  37.306   1.694
44899W        W11308  20.646  15.659   1.715
44900W        W11309  17.079   1.818   3.166
44901W        W11310  29.168  39.342   0.413
44902W        W11311  31.511  43.095  13.603
44903W        W11312   1.305   3.402   0.808
44904W        W11313  31.461  35.960  14.485
44905W        W11314  33.044  12.287  11.242
44906W        W11315  20.008  13.303  14.274
44907W        W11316  20.954   1.499   0.752
44908W        W11317  27.724  15.898   0.885
44909W        W11318  25.098  37.033   1.338
44910W        W11319  23.993   3.382   0.243
44911W        W11320  36.705   3.064   4.126
44912W        W11321  18.770  28.050  13.604
44913W        W11322  21.246  38.345  14.782
44914W        W11323  44.365   6.744   3.112
44915W        W11324  14.299   2.188  14.401
44916W        W11325  26.965  30.248  12.526
44917W        W11326  31.417  10.309  14.621
44918W        W11327  23.650  43.330   2.952
44919W        W11328  31.722   6.626  11.277
44920W        W11329  39.033   3.008  10.678
44921W        W11330  27.146  29.040   2.966
44922W        W11331   1.135  25.003   2.646
44923W        W11332   6.544   6.245  11.100
44924W        W11333  37.485   2.742   3.681
44925W        W11334  29.394  15.430   4.120
44926W        W11335  15.552  38.370  12.203
44927W        W11336  21.256   5.944  13.988
44928W        W11337  23.157  34.035   0.933
44929W        W11338  34.821  29.349  14.278
44930W        W11339  41.782   9.073   3.158
44931W        W11340  13.766  16.845   1.988
44932W        W11341   9.641  20.738   1.966
44933W        W11342   3.144  43.053  12.742
44934W        W11343  28.005  30.926   2.557
44935W        W11344  28.054  34.978   1.153
44936W        W11345  20.574  20.344  11.135
44937W        W11346   4.703   1.926   3.085
44938W        W11347  18.023   8.843  11.156
44939W        W11348  16.195   8.876   0.967
44940W        W11349   8.243  11.209  11.153
44941W        W11350  29.932  10.331  14.813
44942W        W11351  30.097  43.447  12.348
44943W        W11352  17.257  28.443  13.708
44944W        W11353   8.563  10.235  13.255
44945W        W11354   9.374  24.115  10.751
44946W        W11355  24.957   8.745   3.766
44947W        W11356  17.616  36.830  11.137
44948W        W11357  35.364  19.954   1.760
44949W        W11358  22.696  39.502   0.875
44950W        W11359  19.541   6.651   4.577
44951W        W11360  29.246  37.519   3.718
44952W        W11361  25.508  16.736   4.312
44953W        W11362  38.036  26.131  11.963
44954W        W11363   2.742  40.077  13.482
44955W        W11364  39.367  32.064  12.649
44956W        W11365  23.077  21.783   3.632
44957W        W11366  38.635  43.195  10.580
44958W        W11367  32.555  43.239  10.555
44959W        W11368   7.202  15.182  14.206
44960W        W11369   4.178  37.972  10.651
44961W        W11370  42.400  37.245   4.623
44962W        W11371  42.413  37.766   4.751
44963W        W11372  34.913  23.410   4.184
44964W        W11373  15.175  12.652  11.538
44965W        W11374  30.184  37.355  14.828
44966W        W11375  37.509  41.010   3.118
44967W        W11376  15.589   0.238  11.863
44968W        W11377  17.103   5.460  11.625
44969W        W11378   4.814  15.240   4.985
44970W        W11379  12.641   0.001  13.224
44971W        W11380  27.796  37.379  11.523
44972W        W11381   1.938   4.948   5.008
44973W        W11382  22.278  27.274  12.450
44974W        W11383  15.646  16.878   0.701
44975W        W11384  38.227  25.602  11.228
44976W        W11385  26.936  42.758  13.474
44977W        W11386  43.250  26.938   4.180
44978W        W11387  41.901   1.986  11.132
44979W        W11388  44.313  29.560  14.135
44980W        W11389  23.984  40.562  10.748
44981W        W11390  36.460   4.556   2.487
44982W        W11391  41.573  40.833   2.009
44983W        W11392  38.324  14.215   4.164
44984W        W11393  21.049   0.403   0.726
44985W        W11394   2.333   8.682   1.938
44986W        W11395  18.067   6.133   1.275
44987W        W11396   2.742  25.031  11.199
44988W        W11397  18.281  32.497  13.639
44989W        W11398  43.928   1.102   2.617
44990W        W11399  10.875  22.744  13.804
44991W        W11400  25.428  37.416  11.898
44992W        W11401  25.918  37.071  11.615
44993W        W11402  14.793  29.922  14.981
44994W        W11403  35.625  12.695  13.424
44995W        W11404   2.901  23.713   0.670
44996W        W11405  37.012  14.241   3.829
44997W        W11406  22.953   3.409   1.184
44998W        W11407  19.057  33.401   5.040
44999W        W11408  36.448  33.266   4.106
45000W        W11409  26.329  10.077   1.931
45001W        W11410  24.363  13.549  11.220
45002W        W11411  11.019  14.317   3.964
45003W        W11412  17.818  26.417   2.885
45004W        W11413   8.364  20.498   4.431
45005W        W11414  23.670  12.062   2.706
45006W        W11415  24.207  14.905   1.342
45007W        W11416  11.671  27.600   0.295
45008W        W11417  31.651  13.842  11.155
45009W        W11418   8.116  23.314  14.255
45010W        W11419  19.583  36.976   4.744
45011W        W11420  29.293   8.250  10.207
45012W        W11421  22.161  41.129   1.196
45013W        W11422  27.567  23.946   2.161
45014W        W11423  20.670  10.864   1.902
45015W        W11424  19.699   6.075   3.807
45016W        W11425  28.205  15.627   0.875
45017W        W11426  38.286  32.303  13.799
45018W        W11427  14.294  37.762   1.356
45019W        W11428   3.395  41.388   3.677
45020W        W11429  43.390  24.004  13.505
45021W        W11430   3.759  17.607  13.942
45022W        W11431  35.943  22.422  14.877
45023W        W11432  23.680   9.539   2.861
45024W        W11433  17.666  33.077   3.590
45025W        W11434  25.491  10.693  11.165
45026W        W11435  29.943   3.265  11.112
45027W        W11436  12.475  22.548   1.461
45028W        W11437   8.992  27.101   4.526
45029W        W11438  19.217  41.055  13.885
45030W        W11439  10.346  10.336   1.835
45031W        W11440  39.627  31.548  11.405
45032W        W11441  28.217  40.783  14.309
45033W        W11442  20.256   3.391  11.517
45034W        W11443   8.881   5.332   2.754
45035W        W11444  35.536  24.088   0.452
45036W        W11445   8.398  38.780  12.028
45037W        W11446  40.300  11.516   0.286
45038W        W11447  17.203  43.005   0.763
45039W        W11448  14.653  40.751   4.248
45040W        W11449  26.125  16.348  12.853
45041W        W11450  18.352   9.187   0.937
45042W        W11451  34.060  23.628  13.306
45043W        W11452  40.827   8.947  10.150
45044W        W11453  18.419  31.973   2.694
45045W        W11454  20.288  26.897  12.515
45046W        W11455  22.863  19.624  10.289
45047W        W11456   1.305   9.710   1.942
45048W        W11457  28.711  32.054   1.670
45049W        W11458   5.380  42.819  14.350
45050W        W11459  16.664  28.149   3.919
45051W        W11460  39.366  19.748  14.835
45052W        W11461   7.969  39.261   1.662
45053W        W11462  11.085  15.376   0.752
45054W        W11463  23.208  27.100   2.558
45055W        W11464  21.361  12.357  12.869
45056W        W11465   3.217  31.207  14.392
45057W        W11466  32.591  28.599   0.566
45058W        W11467  36.353  42.470   4.140
45059W        W11468  21.252  36.561   3.587
45060W        W11469  26.166  34.479  13.097
45061W        W11470   0.707  15.120   3.864
45062W        W11471  12.565  14.068  13.504
45063W        W11472  17.833  11.797   1.653
45064W        W11473  11.252  43.448  10.122
45065W        W11474  44.819  21.815   1.742
45066W        W11475  14.768  29.079  12.465
45067W        W11476  34.192  23.347   5.030
45068W        W11477  12.111  39.708  12.942
45069W        W11478  27.852  31.845  12.041
45070W        W11479  14.417   4.655   0.355
45071W        W11480  29.667  32.079  14.871
45072W        W11481   8.726  18.332   3.255
45073W        W11482  32.305  11.434   2.658
45074W        W11483  37.446   4.768  10.385
45075W        W11484  22.013  25.471  11.715
45076W        W11485  30.003  18.313  12.502
45077W        W11486   2.728  15.817  14.410
45078W        W11487  37.959   2.659   0.961
45079W        W11488  25.521  42.512  14.446
45080W        W11489  38.782  35.904   3.114
45081W        W11490   4.053  29.428  14.462
45082W        W11491   8.385  41.041  14.341
45083W        W11492  34.098  32.441  11.383
45084W        W11493  23.469   1.051   2.654
45085W        W11494  20.488  25.274  12.470
45086W        W11495  28.380   3.028   0.084
45087W        W11496   8.710  35.948   4.092
45088W        W11497  19.953   9.576   4.980
45089W        W11498  15.155  23.064   2.711
45090W        W11499  31.801  27.436  11.399
45091W        W11500   3.136  20.085   2.976
45092W        W11501  25.002   1.148   0.844
45093W        W11502  41.448  25.057   2.404
45094W        W11503   6.634  19.667   4.205
45095W        W11504  22.467  27.671  11.723
45096W        W11505  39.598  18.548   1.871
45097W        W11506  37.705  12.336  11.050
45098W        W11507  18.354  10.757  10.608
45099W        W11508  41.861  12.123  11.873
45100W        W11509   3.898  38.147  11.897
45101W        W11510  10.595  17.535   0.497
45102W        W11511   8.424  25.663   2.373
45103W        W11512  28.789  21.187   2.535
45104W        W11513   6.336  30.420   1.356
45105W        W11514  13.944   6.984   0.496
45106W        W11515   5.720  39.891  14.363
45107W        W11516  21.104  29.561  13.712
45108W        W11517  25.167  37.808   4.387
45109W        W11518  32.247  30.978   0.833
45110W        W11519  31.546  23.469   2.287
45111W        W11520   8.408  18.729   0.758
45112W        W11521  38.948  44.745  11.124
45113W        W11522  42.327  41.793  11.473
45114W        W11523  38.609  15.440   9.773
45115W        W11524   4.256  36.507  11.554
45116W        W11525  27.491  32.414   5.043
45117W        W11526  26.018  40.906   2.717
45118W        W11527  19.572  10.080   4.174
45119W        W11528  43.742   4.425  11.577
45120W        W11529  34.844  14.762   4.428
45121W        W11530  44.063   0.303  10.663
45122W        W11531  38.364  29.427   2.177
45123W        W11532  15.007  15.759  14.085
45124W        W11533   9.903  26.624  10.438
45125W        W11534  27.763  31.605   3.545
45126W        W11535  12.185  32.033  12.518
45127W        W11536  29.715  16.786   2.804
45128W        W11537  12.660  22.436  12.347
45129W        W11538  21.223   7.383   4.142
45130W        W11539  23.326   6.150  14.327
45131W        W11540  10.238  39.534   2.748
45132W        W11541  15.560  34.964   4.576
45133W        W11542   1.869  43.946   0.738
45134W        W11543   6.841  25.980   0.803
45135W        W11544   4.692   0.156  14.543
45136W        W11545   7.391  19.108  13.326
45137W        W11546  32.081  10.188  12.958
45138W        W11547  34.853  33.334  11.577
45139W        W11548   1.872   8.140  10.658
45140W        W11549   1.348  38.401  14.985
45141W        W11550  28.211  16.110  11.395
45142W        W11551  32.077  44.569  12.573
45143W        W11552  28.943  41.391   1.712
45144W        W11553  30.439  37.499  13.903
45145W        W11554  13.919  20.575  12.530
45146W        W11555   6.337   9.760  13.625
45147W        W11556   3.935  41.353  12.549
45148W        W11557  35.949  42.773   4.115
45149W        W11558   2.371  29.025   0.900
45150W        W11559  20.636  14.784   1.850
45151W        W11560  30.672  29.455  11.119
45152W        W11561   3.451  10.853  10.683
45153W        W11562  16.969  30.563   3.178
45154W        W11563  34.218  10.734   2.108
45155W        W11564  44.702  10.890  13.603
45156W        W11565  40.837  17.832   0.585
45157W        W11566   1.963  19.134   0.913
45158W        W11567  27.013  31.867  14.690
45159W        W11568  43.437  12.126   3.791
45160W        W11569  38.923   1.831  11.166
45161W        W11570   8.178  38.072  12.421
45162W        W11571  11.123  15.285   3.601
45163W        W11572  41.251  29.926   1.145
45164W        W11573  25.908  41.374  14.575
45165W        W11574  28.938   4.457   2.123
45166W        W11575  20.824  43.914  10.627
45167W        W11576  14.161  10.810   4.493
45168W        W11577  27.842  41.736   2.662
45169W        W11578   5.226  30.444  13.444
45170W        W11579  27.655  16.957  14.038
45171W        W11580   6.139  12.911  14.133
45172W        W11581  40.099  39.266  11.359
45173W        W11582  44.813  29.393  14.886
45174W        W11583  30.111  24.455   4.225
45175W        W11584  42.926   2.895   1.150
45176W        W11585  24.474  43.927  13.532
45177W        W11586   4.263  43.763  11.519
45178W        W11587   2.436  26.256   5.056
45179W        W11588  42.928  15.364   0.443
45180W        W11589  17.346  20.657  14.354
45181W        W11590  19.747  16.642  13.499
45182W        W11591   2.347  22.999   2.271
45183W        W11592  42.731  23.017   1.422
45184W        W11593  38.195  29.661  10.350
45185W        W11594  18.540  23.482  11.209
45186W        W11595  19.675  27.262  11.628
45187W        W11596  27.127  42.051  12.988
45188W        W11597  44.700  43.411   4.167
45189W        W11598  23.981  19.849  12.295
45190W        W11599  35.930  12.378  14.559
45191W        W11600  34.411   8.870  12.122
45192W        W11601  19.655  21.879  12.514
45193W        W11602  31.728  16.880  14.982
45194W        W11603  17.306  21.670   2.901
45195W        W11604  40.213  31.155   4.770
45196W        W11605  43.927  12.721   2.912
45197W        W11606  35.171  30.108   2.684
45198W        W11607  17.996   7.916  10.730
45199W        W11608  31.415  17.682  11.378
45200W        W11609  30.620   5.920   2.298
45201W        W11610  26.065   4.473   2.845
45202W        W11611  31.098  11.386  10.615
45203W        W11612   2.471  11.379   2.806
45204W        W11613  17.869  37.477  10.895
45205W        W11614   3.382  39.573  14.989
45206W        W11615  43.458  22.485   0.988
45207W        W11616  32.156  15.890  14.241
45208W        W11617  27.245  20.091   1.885
45209W        W11618   8.290  42.399   4.081
45210W        W11619  31.857   4.381   1.893
45211W        W11620  26.540  16.447  12.574
45212W        W11621  41.850   2.710  12.034
45213W        W11622   7.691  25.174   2.204
45214W        W11623   9.237  22.027   3.542
45215W        W11624   0.074  32.016  11.423
45216W        W11625  27.976   5.924  10.179
45217W        W11626  29.633   1.552  13.232
45218W        W11627  15.909  19.819   1.635
45219W        W11628  32.385  29.073  11.120
45220W        W11629   8.883   6.274  14.104
45221W        W11630  15.339  12.593   4.168
45222W        W11631  42.488  16.785   9.811
45223W        W11632  29.744  27.165   3.188
45224W        W11633  13.151  27.736   3.889
45225W        W11634   4.296  33.814   4.825
45226W        W11635   2.991  25.314   4.050
45227W        W11636  16.805  30.115   3.425
45228W        W11637  15.350  36.338   0.942
45229W        W11638  26.256  30.799  12.442
45230W        W11639  12.582  15.222  12.508
45231W        W11640  32.488   4.971   3.091
45232W        W11641  36.554  16.660  12.438
45233W        W11642  20.752  32.396   0.534
45234W        W11643   4.783   7.448  11.932
45235W        W11644   9.657  34.867  12.536
45236W        W11645  24.100  17.973   0.469
45237W        W11646  13.831  42.200   1.885
45238W        W11647  39.414  11.645   0.325
45239W        W11648  33.940  13.630  13.604
45240W        W11649  22.360  30.707   2.861
45241W        W11650  40.718  26.507   0.173
45242W        W11651  32.674  31.709  11.430
45243W        W11652   9.381  30.999  11.597
45244W        W11653  33.199  31.404  10.714
45245W        W11654  22.056   0.885   2.366
45246W        W11655  34.655  27.900  14.925
45247W        W11656  15.166  40.062  12.462
45248W        W11657   1.804  32.898   1.326
45249W        W11658   4.461  43.289  11.252
45250W        W11659   3.362  37.503  12.134
45251W        W11660  36.316  38.280  10.788
45252W        W11661  42.036  32.300  14.097
45253W        W11662  17.567   1.755   0.709
45254W        W11663   5.547  28.181   0.982
45255W        W11664  39.664  42.443   0.180
45256W        W11665  19.668  32.381  10.615
45257W        W11666  43.538  29.070  13.004
45258W        W11667   7.258  15.372   0.200
45259W        W11668  20.164  40.542  13.890
45260W        W11669   6.033  10.222  14.330
45261W        W11670  41.403  40.396   2.195
45262W        W11671  21.775  40.487  11.646
45263W        W11672   3.942  43.203   2.497
45264W        W11673  20.580  19.756  12.995
45265W        W11674   2.907  40.928  11.281
45266W        W11675  13.081   2.108   5.028
45267W        W11676  31.243  13.688  11.450
45268W        W11677  26.368  37.790  10.489
45269W        W11678  22.028  35.651  12.521
45270W        W11679  11.607  34.545   4.822
45271W        W11680  24.555  31.995   2.888
45272W        W11681  17.364   5.113  14.918
45273W        W11682  39.397   5.686   0.384
45274W        W11683  10.355   5.112   5.072
45275W        W11684   4.382  29.074   4.170
45276W        W11685  10.897  18.759  12.063
45277W        W11686   2.480   4.088  12.901
45278W        W11687  30.192  43.873   0.908
45279W        W11688   1.738  35.790   3.127
45280W        W11689   6.924  30.728  10.631
45281W        W11690  44.435  17.816   1.464
45282W        W11691  35.597  41.902  11.610
45283W        W11692  42.447   8.235  14.786
45284W        W11693  15.978  43.896  10.437
45285W        W11694  14.442  23.083   3.775
45286W        W11695  33.082  32.058   3.721
45287W        W11696  16.553  12.584  13.065
45288W        W11697  23.136   1.261  14.418
45289W        W11698  11.779  39.886  11.994
45290W        W11699  37.895  20.089   4.685
45291W        W11700  42.508  28.576  12.581
45292W        W11701  22.458  22.483  10.778
45293W        W11702  36.548  42.710  13.101
45294W        W11703   6.750   1.763   0.017
45295W        W11704  15.782  32.258   1.414
45296W        W11705  16.131  42.960  10.896
45297W        W11706  40.427  21.545   1.838
45298W        W11707   3.725  33.929  12.429
45299W        W11708  27.011  42.530   4.079
45300W        W11709  17.656   7.052  11.146
45301W        W11710  18.140  12.677   4.079
45302W        W11711  25.118  21.025  13.414
45303W        W11712  20.692  15.287  11.682
45304W        W11713  28.203  13.672  12.816
45305W        W11714  39.909   2.032   0.349
45306W        W11715   7.850  15.829   1.754
45307W        W11716  16.095  14.181   0.817
45308W        W11717  37.655   4.343  13.405
45309W        W11718  22.440  11.423   1.425
45310W        W11719  19.539   8.848   2.189
45311W        W11720  44.241  33.983  11.228
45312W        W11721  44.452  23.775  14.432
45313W        W11722  27.565   9.172  12.491
45314W        W11723  10.896  10.756   3.272
45315W        W11724  24.398  27.065   3.395
45316W        W11725  25.939  17.078   2.459
45317W        W11726  15.077  32.565  14.938
45318W        W11727  30.478  19.156  14.327
45319W        W11728   4.376  41.331  12.876
45320W        W11729   9.455  26.206  14.840
45321W        W11730  18.730  27.016   2.293
45322W        W11731   0.814  10.522   5.033
45323W        W11732  40.337  28.694  12.177
45324W        W11733  35.123  13.070   1.261
45325W        W11734   7.515  21.614   4.146
45326W        W11735   2.823  13.806  14.346
45327W        W11736  18.674  27.453  13.195
45328W        W11737   0.282  33.279  13.850
45329W        W11738  38.465  35.435   2.238
45330W        W11739  16.792   2.887   2.315
45331W        W11740  28.494  14.816  12.953
45332W        W11741   8.752  15.615  12.564
45333W        W11742   9.787  20.322  12.327
45334W        W11743  39.756   3.305   2.292
45335W        W11744  38.917  38.590  10.646
45336W        W11745   2.768   2.251  13.471
45337W        W11746  30.159  28.416  13.984
45338W        W11747  44.197  36.298   1.032
45339W        W11748  29.415  16.673  12.836
45340W        W11749   5.504  24.208   3.412
45341W        W11750  42.947  34.005  10.559
45342W        W11751  18.566  22.976  11.255
45343W        W11752  35.868   4.390  14.913
45344W        W11753  17.692  29.993  10.663
45345W        W11754  42.530  16.908   5.028
45346W        W11755  36.656  23.740  13.006
45347W        W11756  28.232   6.597   2.526
45348W        W11757  10.758  36.930  10.697
45349W        W11758  21.815   9.502   4.439
45350W        W11759  42.486  30.481  12.945
45351W        W11760  16.159   7.426  14.406
45352W        W11761  42.955   1.779   2.630
45353W        W11762  36.810  13.678   1.982
45354W        W11763  19.403  38.714   2.201
45355W        W11764  38.430  17.224   1.336
45356W        W11765  15.061  32.136   3.215
45357W        W11766  15.109  21.192  14.323
45358W        W11767  38.986   2.685  12.958
45359W        W11768  38.838  15.088   4.237
45360W        W11769   3.030  40.844  11.760
45361W        W11770  44.294   1.113   0.816
45362W        W11771  30.485  12.874   4.891
45363W        W11772  26.135  26.972   2.813
45364W        W11773   1.827   5.273  13.015
45365W        W11774  21.223   3.166   1.958
45366W        W11775   3.168  43.440   4.117
45367W        W11776  37.986   2.162   0.206
45368W        W11777  20.316  41.481   4.015
45369W        W11778  28.738  13.700   3.641
45370W        W11779  12.112  37.466  11.565
45371W        W11780  26.575  40.414   0.457
45372W        W11781  15.615  14.013   0.727
45373W        W11782  21.766   2.187   2.881
45374W        W11783  43.838  31.182   2.239
45375W        W11784  22.512  15.876  10.655
45376W        W11785  29.553  33.176   4.080
45377W        W11786   6.393   8.218   1.372
45378W        W11787  26.467  23.893   1.831
45379W        W11788  35.319  19.521  14.431
45380W        W11789  33.405  38.651   2.288
45381W        W11790  26.764  29.881   4.022
45382W        W11791  40.353  17.306  14.272
45383W        W11792  30.678  13.727   3.385
45384W        W11793  24.870  12.230  13.418
45385W        W11794   2.416  19.346   0.824
45386W        W11795  25.847  33.681  11.655
45387W        W11796  44.406   8.217  12.365
45388W        W11797  43.262  19.531  10.644
45389W        W11798  16.228   4.273   4.234
45390W        W11799  13.585  12.197   3.257
45391W        W11800   3.357  25.586   1.900
45392W        W11801  43.315   8.485  11.603
45393W        W11802  26.142  41.026  12.133
45394W        W11803  32.321  32.114   2.726
45395W        W11804  31.651   3.391  14.342
45396W        W11805  35.572   9.263  12.363
45397W        W11806  42.340   2.417   1.623
45398W        W11807  40.902  13.489   3.200
45399W        W11808  18.689  26.192   4.672
45400W        W11809  13.604  37.317   2.574
45401W        W11810  28.169  16.783   5.258
45402W        W11811  13.722  25.691   1.539
45403W        W11812  18.598  22.134   3.721
45404W        W11813   4.587  30.132  13.910
45405W        W11814   6.685  22.989  13.057
45406W        W11815   5.969  23.111  11.658
45407W        W11816  25.468   8.142   1.361
45408W        W11817  22.286  22.880  12.987
45409W        W11818  43.251  25.574   3.830
45410W        W11819  44.273  15.113  12.517
45411W        W11820  23.603   3.210  12.182
45412W        W11821  44.810  11.233   1.342
45413W        W11822  20.261  42.306  12.369
45414W        W11823  20.445  31.531   3.700
45415W        W11824   8.733   1.657   1.191
45416W        W11825  19.768  23.717   5.024
45417W        W11826   9.918   0.630  14.045
45418W        W11827  41.169   1.323   0.885
45419W        W11828  29.834  19.678  13.707
45420W        W11829  42.692   7.818   4.564
45421W        W11830  36.453  40.676   3.568
45422W        W11831  43.237   7.288  10.299
45423W        W11832  21.043   0.810  11.766
45424W        W11833  26.533  33.550   5.183
45425W        W11834  14.987  22.086   0.193
45426W        W11835   0.720   8.316  14.313
45427W        W11836  21.553   8.236  12.674
45428W        W11837  36.748  14.294   4.289
45429W        W11838  32.867   6.595   5.421
45430W        W11839   4.672  40.904  10.694
45431W        W11840  23.002  43.061  11.521
45432W        W11841  44.551   9.250  13.538
45433W        W11842  26.089  30.519  10.715
45434W        W11843  19.589  19.802   0.806
45435W        W11844  30.378   0.381   4.657
45436W        W11845  36.557  42.732   2.415
45437W        W11846  23.143  34.121   4.123
45438W        W11847  44.474  20.199   2.285
45439W        W11848   4.846  35.665   4.218
45440W        W11849  15.586  19.766   2.439
45441W        W11850  29.774  31.343  11.552
45442W        W11851  27.975  20.228  12.603
45443W        W11852   7.954  44.516  14.342
45444W        W11853  40.946  19.268   3.035
45445W        W11854  35.374  23.974  12.084
45446W        W11855  37.209  17.541   1.441
45447W        W11856  40.303  22.218  12.561
45448W        W11857  36.880  44.019   2.078
45449W        W11858  12.380  36.354   2.904
45450W        W11859   8.326  15.958  13.562
45451W        W11860  40.345   1.162  14.372
45452W        W11861  41.374  36.114  14.836
45453W        W11862   5.704  23.184   0.960
45454W        W11863   7.932  36.636   3.865
45455W        W11864  29.986  39.318  10.737
45456W        W11865  27.063  13.389  12.494
45457W        W11866  21.414  43.421   1.462
45458W        W11867   0.197  30.120  13.554
45459W        W11868  41.312  33.866  11.651
45460W        W11869  44.123  38.475   4.245
45461W        W11870   4.872   4.299   4.565
45462W        W11871  41.005  16.978  10.727
45463W        W11872  21.540  41.011  14.051
45464W        W11873   7.297  19.518   2.269
45465W        W11874  27.968   4.165   1.705
45466W        W11875  20.719  28.095   3.757
45467W        W11876  44.357  29.558  13.353
45468W        W11877  13.716  33.495  11.870
45469W        W11878  29.990  36.279  11.509
45470W        W11879  17.184  35.377  10.572
45471W        W11880   5.476   5.923   4.570
45472W        W11881   0.473  28.612  12.625
45473W        W11882  43.560  33.358   4.249
45474W        W11883   0.826   4.161   0.820
45475W        W11884   5.741  17.110   2.711
45476W        W11885  23.518  25.134   1.197
45477W        W11886   9.902  12.569  12.836
45478W        W11887  34.491   1.725  12.005
45479W        W11888  14.268   8.621   3.941
45480W        W11889  39.431  26.062  13.025
45481W        W11890  15.318   9.296  13.646
45482W        W11891  42.150  20.190  10.722
45483W        W11892  10.441  39.571  14.304
45484W        W11893  27.096  36.789   0.027
45485W        W11894   9.305  40.328   1.237
45486W        W11895  21.475  37.857  14.782
45487W        W11896   0.818  12.976   1.113
45488W        W11897  35.547  33.147   1.852
45489W        W11898  16.041   0.965  11.887
45490W        W11899  34.155  34.177  10.596
45491W        W11900  17.344  16.152  14.845
45492W        W11901  18.094   2.751  14.422
45493W        W11902  19.227  43.541  10.778
45494W        W11903  44.496  26.351  14.710
45495W        W11904  19.661   9.620  14.461
45496W        W11905  30.705  41.757  12.012
45497W        W11906  18.291  13.120   1.213
45498W        W11907  42.101  42.126   0.260
45499W        W11908  32.154  15.348   4.984
45500W        W11909  10.266  43.182  10.511
45501W        W11910  36.997  34.580   3.784
45502W        W11911  23.723  39.520   1.975
45503W        W11912  23.776  37.891   0.895
45504W        W11913  11.558  25.083   1.834
45505W        W11914  13.823  25.599   3.354
45506W        W11915  34.239  41.318   0.002
45507W        W11916  40.075  36.901   2.311
45508W        W11917  35.026   6.417   2.814
45509W        W11918   8.184   0.681  13.491
45510W        W11919  20.075  28.720   1.109
45511W        W11920   2.428  20.295  12.976
45512W        W11921   8.137  38.838  13.741
45513W        W11922   5.481  41.474  13.836
45514W        W11923  40.923   6.202   1.203
45515W        W11924  30.055   4.043  12.764
45516W        W11925  17.868  26.546   4.993
45517W        W11926  18.789  25.477   0.247
45518W        W11927   4.914  19.024  10.424
45519W        W11928  29.896  23.584  11.082
45520W        W11929  32.193  25.685  12.555
45521W        W11930   7.006  42.936  14.972
45522W        W11931  29.967  30.521   3.047
45523W        W11932  17.127   4.887   1.302
45524W        W11933  36.680  35.809   3.127
45525W        W11934  16.261  42.050   3.322
45526W        W11935   9.868  19.060   1.916
45527W        W11936  16.378  44.445  11.190
45528W        W11937  41.656  30.903  10.711
45529W        W11938  28.862   1.300   4.349
45530W        W11939   4.130   6.965  12.156
45531W        W11940  32.624  12.556  11.461
45532W        W11941   3.602   3.793  11.662
45533W        W11942  30.962  31.734  11.167
45534W        W11943  17.050   6.896  14.517
45535W        W11944  19.694  26.508  12.291
45536W        W11945   2.409  10.259   0.917
45537W        W11946  43.858  23.303   0.063
45538W        W11947  42.811   3.736   0.358
45539W        W11948  20.532   6.682   3.742
45540W        W11949  14.463  36.447  10.306
45541W        W11950  23.482  11.793   0.825
45542W        W11951  43.307  33.837   3.664
45543W        W11952  22.405  21.724   3.087
45544W        W11953   6.496  34.431  11.561
45545W        W11954  42.497  14.573   3.427
45546W        W11955  43.428  21.554   1.850
45547W        W11956  38.335  42.566  14.755
45548W        W11957  17.029  36.041  11.943
45549W        W11958  30.771   2.299   5.358
45550W        W11959  29.461  16.485   4.287
45551W        W11960  34.933  40.191  12.636
45552W        W11961  21.034   9.198   4.721
45553W        W11962  30.512  14.212   3.615
45554W        W11963   1.926  24.469   0.391
45555W        W11964  40.163  15.761  13.126
45556W        W11965  34.421  37.387   0.405
45557W        W11966  36.318  10.384  11.958
45558W        W11967  28.790   0.931   1.140
45559W        W11968  39.329  23.938   2.730
45560W        W11969  37.088  25.550  12.998
45561W        W11970   0.289  20.896  14.053
45562W        W11971  41.974  28.455  11.678
45563W        W11972   2.099   7.017  11.434
45564W        W11973  35.092  42.598  12.021
45565W        W11974  27.869  42.913  13.606
45566W        W11975  11.386  27.655   3.160
45567W        W11976  20.815  20.078   3.915
45568W        W11977   3.970  12.725  11.366
45569W        W11978   3.473   9.306  11.906
45570W        W11979   3.717  40.830  11.855
45571W        W11980  37.555  11.790   1.933
45572W        W11981  32.596  34.010   4.325
45573W        W11982  18.741   9.964  12.975
45574W        W11983   3.653  30.974  14.244
45575W        W11984  21.307   6.857   4.165
45576W        W11985   9.825   1.541   1.965
45577W        W11986   0.961  10.246   2.785
45578W        W11987  34.255  25.202   4.688
45579W        W11988  35.040  33.393   4.353
45580W        W11989  23.673  23.214  14.558
45581W        W11990  10.202  18.809  14.694
45582W        W11991  38.038   0.349  10.924
45583W        W11992   4.229  15.678  11.646
45584W        W11993  21.625  37.420  13.824
45585W        W11994   0.379  33.684   3.412
45586W        W11995   5.730   1.404   3.814
45587W        W11996   3.690  29.037   1.776
45588W        W11997  22.958   7.719   0.278
45589W        W11998  14.325  42.655   3.610
45590W        W11999  29.387  34.394   1.803
45591W        W12000  15.287   1.270  14.998
45592W        W12001  19.404  37.284  12.395
45593W        W12002   2.827  28.519  10.669
45594W        W12003  43.872  44.190  11.446
45595W        W12004  29.978  28.310   0.937
45596W        W12005  13.721  19.361   2.240
45597W        W12006  16.000  32.589  13.206
45598W        W12007  42.127   4.098   1.041
45599W        W12008   6.505  31.542  13.956
45600W        W12009  14.747  43.274   1.823
45601W        W12010   4.375  11.407  11.436
45602W        W12011  36.026  21.256  11.553
45603W        W12012  43.598   5.532   4.136
45604W        W12013  17.683  34.909  10.713
45605W        W12014  43.501  25.457  13.005
45606W        W12015  30.322  13.145   1.734
45607W        W12016  38.502  24.827   1.150
45608W        W12017   3.845  28.629  10.662
45609W        W12018  40.742  24.132   4.495
45610W        W12019  16.175   2.953  14.084
45611W        W12020  38.748  34.210   4.212
45612W        W12021  15.445  42.210   4.867
45613W        W12022   2.401  23.996   1.178
45614W        W12023   9.828   9.225  14.948
45615W        W12024   9.428   4.144   2.305
45616W        W12025   7.467  22.878  11.484
45617W        W12026  14.549  19.525  10.674
45618W        W12027  29.947   2.479   3.603
45619W        W12028  38.822  24.063  12.896
45620W        W12029  43.917  35.460  13.966
45621W        W12030  36.520  20.530  13.423
45622W        W12031  18.255  16.436  12.507
45623W        W12032   9.409  17.085   0.014
45624W        W12033  24.720  35.039   0.534
45625W        W12034  22.603  22.613  13.810
45626W        W12035   6.446  39.970  14.130
45627W        W12036  29.175  32.805  13.601
45628W        W12037  10.305  26.731  11.081
45629W        W12038  19.737  14.761   3.919
45630W        W12039  26.479  19.641   4.677
45631W        W12040   7.618   4.722  13.085
45632W        W12041  44.030   7.893  14.994
45633W        W12042  17.337  10.412   2.274
45634W        W12043  22.124  32.614   0.922
45635W        W12044   2.542  14.415   0.879
45636W        W12045  44.720  37.422   0.978
45637W        W12046  42.971   4.491   3.793
45638W        W12047  43.420  13.346   4.167
45639W        W12048  12.302  14.363  11.497
45640W        W12049  29.067  20.526  14.396
45641W        W12050  35.065  22.062  12.897
45642W        W12051  10.253  42.900  14.494
45643W        W12052  14.744  40.844  13.574
45644W        W12053  15.283   2.469   2.714
45645W        W12054   3.741  26.445   1.689
45646W        W12055   7.180  41.805   1.404
45647W        W12056  26.756  33.975  10.723
45648W        W12057  35.959  11.441   0.188
45649W        W12058   6.184  15.608  10.706
45650W        W12059  32.028  36.044  14.785
45651W        W12060   5.650  10.862   0.899
45652W        W12061  15.772  30.959   1.097
45653W        W12062  15.116  30.969  14.537
45654W        W12063  17.080  22.829   3.866
45655W        W12064  33.585  39.474  10.526
45656W        W12065   8.604  24.542  12.997
45657W        W12066  34.293  42.734  14.871
45658W        W12067  37.814  43.501  10.770
45659W        W12068  31.907   4.325  14.040
45660W        W12069  16.169  33.078  13.034
45661W        W12070  18.205  11.372  11.285
45662W        W12071   1.803  23.651   1.405
45663W        W12072  25.073   1.648  13.548
45664W        W12073  24.767  27.831  14.601
45665W        W12074  44.739  37.030   0.675
45666W        W12075  12.720  37.611   3.664
45667W        W12076  12.240   2.021   5.004
45668W        W12077  31.070  44.323  11.316
45669W        W12078  12.318  11.782   3.400
45670W        W12079   1.855  38.833   3.338
45671W        W12080   2.947   5.685  13.004
45672W        W12081  31.051  12.664   3.203
45673W        W12082  37.350  19.305  12.392
45674W        W12083  42.261  33.209   0.863
45675W        W12084  20.232  42.172   3.157
45676W        W12085  13.741  11.841   0.255
45677W        W12086  21.069  32.028  14.760
45678W        W12087  36.889  15.801  10.409
45679W        W12088  12.138  24.262   1.385
45680W        W12089  41.864  40.163  11.134
45681W        W12090  33.682  35.415   1.464
45682W        W12091  30.087   2.241   0.521
45683W        W12092  23.313  42.475  12.313
45684W        W12093  39.066  27.486  10.635
45685W        W12094  25.180  17.171   1.444
45686W        W12095   7.867  41.016  14.347
45687W        W12096  23.547  38.445  13.822
45688W        W12097  36.020  28.703   2.592
45689W        W12098  30.359  22.791   0.860
45690W        W12099   2.345  16.626   0.381
45691W        W12100  26.409  23.728  13.316
45692W        W12101  42.023  14.340  10.891
45693W        W12102   1.267  14.164  11.675
45694W        W12103  34.421  30.912   0.928
45695W        W12104   0.491  39.958  14.745
45696W        W12105   0.356   9.055   4.066
45697W        W12106  10.339  19.217  12.606
45698W        W12107   1.119  41.569   3.403
45699W        W12108  44.765  26.212   0.830
45700W        W12109  17.175  21.016  13.070
45701W        W12110  31.053   8.139  11.022
45702W        W12111  42.296  16.852   0.071
45703W        W12112  15.256  39.126   0.778
45704W        W12113  30.575  26.102  14.407
45705W        W12114  35.662  30.898   3.138
45706W        W12115  16.463  24.631   1.239
45707W        W12116   4.320  20.439  11.580
45708W        W12117  10.848  38.981  13.023
45709W        W12118  24.785  20.278   0.695
45710W        W12119  31.824  27.193  14.467
45711W        W12120   5.210   8.307  11.303
45712W        W12121  37.791  37.620  13.075
45713W        W12122  27.449   7.062   1.787
45714W        W12123  41.785  38.381  11.207
45715W        W12124  37.001  41.909  12.095
45716W        W12125  42.365   4.826  10.132
45717W        W12126  14.495  20.528   0.298
45718W        W12127   2.421  35.336   3.824
45719W        W12128  29.517  12.650  13.093
45720W        W12129  34.170  32.865  14.884
45721W        W12130   6.405   1.295   0.917
45722W        W12131   4.432  26.867  14.279
45723W        W12132  24.717  42.879  12.589
45724W        W12133  32.858  13.254  13.112
45725W        W12134  23.513  19.140  14.458
45726W        W12135  44.437  17.343   2.815
45727W        W12136   8.043  41.560  11.624
45728W        W12137   3.068  37.413   4.511
45729W        W12138  40.964  43.289  11.025
45730W        W12139  44.377   5.286   1.374
45731W        W12140   3.604  37.324   4.593
45732W        W12141  32.450  16.268  14.456
45733W        W12142  24.579  11.259   0.477
45734W        W12143  37.330  42.081  11.150
45735W        W12144  36.064   2.773  13.985
45736W        W12145  39.354   9.872  11.070
45737W        W12146  30.042  35.010   1.949
45738W        W12147   4.071  44.270  12.057
45739W        W12148  15.880  12.398   4.595
45740W        W12149  17.237  15.011   1.895
45741W        W12150  41.024   0.279  11.366
45742W        W12151  24.057  21.290  12.187
45743W        W12152  11.504   3.066   4.695
45744W        W12153  24.457  10.922   3.691
45745W        W12154  43.536  23.667   0.284
45746W        W12155   2.071  11.339  14.559
45747W        W12156  21.214  29.971  11.652
45748W        W12157  33.286  19.655  10.279
45749W        W12158  17.049  14.080  10.719
45750W        W12159  16.246  27.236  14.918
45751W        W12160  27.696  29.616  12.672
45752W        W12161  10.861  17.028   2.287
45753W        W12162   6.405  12.210  13.381
45754W        W12163  27.574   9.138  13.832
45755W        W12164  15.532  19.291   2.215
45756W        W12165  42.766  20.596  12.145
45757W        W12166  32.368  11.786  11.274
45758W        W12167  36.347   0.423  13.389
45759W        W12168  19.745   7.133   2.654
45760W        W12169  28.372  41.779  12.038
45761W        W12170  20.655   1.466   3.323
45762W        W12171  34.658  32.008  11.937
45763W        W12172  16.325  36.331  14.773
45764W        W12173  24.091  36.858   4.078
45765W        W12174  15.600  39.908  11.898
45766W        W12175   7.378  16.051   4.569
45767W        W12176  23.927  22.182  12.163
45768W        W12177   6.891  35.772   2.199
45769W        W12178  11.665  34.538   2.286
45770W        W12179  22.838  13.600  11.042
45771W        W12180   8.850  40.911   1.872
45772W        W12181   0.019  31.936  12.844
45773W        W12182  40.000  28.022   4.333
45774W        W12183  27.458  35.279   4.663
45775W        W12184  14.598  34.068   1.374
45776W        W12185  27.610   9.856   4.223
45777W        W12186  43.631  12.310   4.716
45778W        W12187  12.441  18.633  11.061
45779W        W12188  27.411   5.667  14.644
45780W        W12189  32.071  44.443  10.625
45781W        W12190  20.227  39.571   1.140
45782W        W12191  31.051  17.505   0.393
45783W        W12192  36.247  19.042   4.132
45784W        W12193  34.866  18.234  11.583
45785W        W12194   9.882  20.151  14.160
45786W        W12195  11.756  22.241  13.928
45787W        W12196  16.568  16.571   4.958
45788W        W12197   4.195  12.278   3.049
45789W        W12198  19.331  11.572   0.683
45790W        W12199  19.036  13.110   0.270
45791W        W12200  18.293  42.829  13.289
45792W        W12201  16.536  41.333   2.410
45793W        W12202  22.050  31.160  13.350
45794W        W12203  13.625  37.660   3.425
45795W        W12204  30.953  41.015   2.879
45796W        W12205  14.751  25.224  12.468
45797W        W12206   8.160  39.885  12.568
45798W        W12207  10.219  40.973   4.130
45799W        W12208   2.206  42.793  12.614
45800W        W12209  17.387  14.778  12.393
45801W        W12210  41.753  22.598   4.151
45802W        W12211  22.011  13.192   2.324
45803W        W12212  27.173   5.847   3.229
45804W        W12213  33.841   0.510  11.888
45805W        W12214  28.227  18.330   2.250
45806W        W12215  42.384  21.278  14.390
45807W        W12216  15.071   4.404   1.876
45808W        W12217  32.021   0.033   1.642
45809W        W12218  10.342  40.389   1.826
45810W        W12219  41.005   1.023  10.966
45811W        W12220  14.207  44.700  13.853
45812W        W12221  15.419  23.835  10.811
45813W        W12222  44.608  10.565   3.050
45814W        W12223  23.173  37.499  11.586
45815W        W12224  12.063   6.818  13.984
45816W        W12225  32.245  39.790   3.913
45817W        W12226  22.248  28.092   0.266
45818W        W12227  21.127  31.536  13.292
45819W        W12228   2.456   7.154  13.006
45820W        W12229  12.253  20.393  10.264
45821W        W12230  19.742  11.322   0.957
45822W        W12231  14.739  21.753  14.832
45823W        W12232  21.263  24.977   1.871
45824W        W12233   2.911  36.993  11.397
45825W        W12234  38.089  16.636  14.760
45826W        W12235  23.255   5.554  11.222
45827W        W12236  35.486  40.488   4.887
45828W        W12237   7.621  19.666   1.100
45829W        W12238  37.608  34.859   0.904
45830W        W12239  20.128  35.445   0.022
45831W        W12240   4.310  42.084  11.459
45832W        W12241  19.052  21.539  11.989
45833W        W12242  16.220  30.178  12.507
45834W        W12243   0.956  43.829   0.621
45835W        W12244  27.644  22.679   3.964
45836W        W12245  36.470  17.243   1.383
45837W        W12246  41.969  10.145   2.318
45838W        W12247  28.206  27.095   0.913
45839W        W12248  42.509  33.047   4.541
45840W        W12249  36.510  38.799  10.722
45841W        W12250   0.676  26.643   1.096
45842W        W12251  32.032  17.339   4.466
45843W        W12252  29.635  34.005   0.899
45844W        W12253  22.481  42.992  12.415
45845W        W12254  26.735  27.364   0.930
45846W        W12255  28.727  20.086   1.341
45847W        W12256   4.027  21.317  12.424
45848W        W12257  12.371  39.659   3.757
45849W        W12258  30.375   9.994   5.119
45850W        W12259  25.469  19.580  12.389
45851W        W12260  37.394  25.363  12.331
45852W        W12261   4.853  34.094   1.393
45853W        W12262  26.311  32.670   2.261
45854W        W12263  39.176  14.352  10.249
45855W        W12264  12.979  16.062  10.541
45856W        W12265   3.884  24.555   1.234
45857W        W12266   2.904  31.667  14.918
45858W        W12267  40.464  20.134   1.322
45859W        W12268  12.524   2.403  13.969
45860W        W12269  10.160  20.970  14.201
45861W        W12270  25.329  13.012  11.223
45862W        W12271  23.875  19.190  12.072
45863W        W12272   4.476   2.719   0.909
45864W        W12273  11.223  42.895  10.720
45865W        W12274  27.365  31.844  13.554
45866W        W12275  13.113  30.224  14.211
45867W        W12276  44.019  42.425  13.024
45868W        W12277  10.620   7.780  12.176
45869W        W12278  28.948  44.421   0.057
45870W        W12279  19.019  30.368   4.309
45871W        W12280  35.523   9.150   0.902
45872W        W12281  12.264  26.489  11.133
45873W        W12282  41.847  30.931  12.494
45874W        W12283  13.243  43.608  10.593
45875W        W12284   0.952  30.991  14.866
45876W        W12285  43.314  41.112  13.834
45877W        W12286  20.032  43.966  11.164
45878W        W12287  12.245  37.482   1.966
45879W        W12288  26.535  10.194  14.821
45880W        W12289  31.599  31.552  12.244
45881W        W12290  40.880  41.810   4.623
45882W        W12291   8.146  25.741   4.559
45883W        W12292  24.666  20.593  11.213
45884W        W12293   9.907  26.714   2.690
45885W        W12294  34.568  16.589   2.279
45886W        W12295  24.592  11.997   0.438
45887W        W12296  32.620  19.927   2.368
45888W        W12297  35.828   5.330  12.192
45889W        W12298  44.455  32.650   5.040
45890W        W12299  26.494  43.782   2.120
45891W        W12300  11.152  43.164   4.563
45892W        W12301  35.202  11.765   3.955
45893W        W12302   5.014  40.739   3.640
45894W        W12303  37.300  25.101  14.920
45895W        W12304  34.643  32.990  12.386
45896W        W12305  15.066   9.670  12.117
45897W        W12306  38.367  34.699  11.944
45898W        W12307   3.001  12.743  10.745
45899W        W12308   5.650   8.368  13.094
45900W        W12309  38.413  24.700  10.675
45901W        W12310  18.243  11.127  14.041
45902W        W12311  37.874   4.457   2.119
45903W        W12312  40.477  39.020  11.588
45904W        W12313   2.014  43.826  12.945
45905W        W12314  28.558   0.924  11.024
45906W        W12315   3.814  39.960   1.386
45907W        W12316  31.588  18.590  11.841
45908W        W12317  35.436   7.347   3.385
45909W        W12318   9.955  21.049   2.264
45910W        W12319  18.485   5.786   4.291
45911W        W12320  20.267  14.029  10.276
45912W        W12321  19.154  35.990   3.558
45913W        W12322  40.295  31.913  11.567
45914W        W12323   8.756  32.211  14.296
45915W        W12324  10.879  28.618  13.574
45916W        W12325  16.241  15.201   1.637
45917W        W12326   5.108  33.403  11.033
45918W        W12327  28.234  37.169   2.638
45919W        W12328  30.333   9.253  12.952
45920W        W12329  19.477  17.024  11.206
45921W        W12330  26.580   5.977  13.482
45922W        W12331  23.093  34.601   1.609
45923W        W12332  43.806  16.232   2.598
45924W        W12333   3.856  30.125   1.250
45925W        W12334  29.452  17.111  12.049
45926W        W12335   0.478   5.992  11.552
45927W        W12336  23.283  19.809   2.861
45928W        W12337  41.037  36.041   2.941
45929W        W12338  34.552  22.194  13.569
45930W        W12339  38.137   5.399  12.901
45931W        W12340  21.612  27.503   4.515
45932W        W12341  21.857  26.362   0.831
45933W        W12342  32.588  42.958  13.541
45934W        W12343  22.919  26.973   0.345
45935W        W12344  33.148  23.050  14.079
45936W        W12345  32.011  44.164  14.490
45937W        W12346  14.051  24.162  13.325
45938W        W12347   6.792  32.159  10.526
45939W        W12348  42.176  15.528   2.990
45940W        W12349  44.714  12.806   2.373
45941W        W12350  23.192  36.872   2.350
45942W        W12351  16.531  16.204   3.576
45943W        W12352  19.143  28.185   1.670
45944W        W12353   7.814  37.901   2.159
45945W        W12354  27.129  40.800   0.929
45946W        W12355   7.121  42.590  14.414
45947W        W12356  25.982  25.152   0.059
45948W        W12357  10.647  32.813  13.318
45949W        W12358  35.021  38.939   1.825
45950W        W12359  32.947  10.606   4.170
45951W        W12360   6.537  39.048  11.943
45952W        W12361  32.109  43.286   3.354
45953W        W12362  21.285  31.673   0.825
45954W        W12363  39.877  19.504  11.992
45955W        W12364  41.295  39.049   0.687
45956W        W12365   1.877  17.181  10.494
45957W        W12366  28.509  44.498  14.316
45958W        W12367   8.294   8.762   1.025
45959W        W12368  42.012  34.492   1.759
45960W        W12369   6.662   4.914  10.008
45961W        W12370   1.853  35.064   3.662
45962W        W12371  10.440   1.941  10.400
45963W        W12372  35.242  30.677   1.433
45964W        W12373   5.810  40.964   3.623
45965W        W12374  15.643  18.590  11.906
45966W        W12375  31.476  19.068  12.087
45967W        W12376   0.309   8.846   4.525
45968W        W12377  39.526  32.354   3.163
45969W        W12378  32.309  43.817   3.127
45970W        W12379  28.080  21.097   3.195
45971W        W12380   3.883  30.617  10.655
45972W        W12381  16.751  36.019  12.912
45973W        W12382   7.873  29.162   3.142
45974W        W12383  10.310  14.896  14.006
45975W        W12384  34.622   0.859   4.130
45976W        W12385   7.769  26.167  13.846
45977W        W12386  14.392  37.420  13.902
45978W        W12387  37.675   4.787  10.855
45979W        W12388  27.665  44.397  14.525
45980W        W12389   5.492  30.412   0.917
45981W        W12390   9.100  31.502  13.092
45982W        W12391   2.325  32.561   0.259
45983W        W12392  44.905   5.300  11.143
45984W        W12393  11.893  38.725   1.948
45985W        W12394  29.910  26.130   0.265
45986W        W12395  30.074   7.751  11.111
45987W        W12396  21.986  30.576  11.051
45988W        W12397   1.242  30.087   3.824
45989W        W12398  39.833  42.597  13.911
45990W        W12399  25.936  20.516  14.331
45991W        W12400  26.591   9.440  12.338
45992W        W12401  21.148  21.192   5.120
45993W        W12402  36.901  11.211   0.827
45994W        W12403  25.023  38.790   3.364
45995W        W12404  23.902  38.614   2.297
45996W        W12405  13.431  33.971   0.637
45997W        W12406  43.873  31.187   1.312
45998W        W12407  33.949  32.615  14.059
45999W        W12408   7.100  16.570   4.543
46000W        W12409  17.625   9.645  13.539
46001W        W12410  22.090  27.039  11.113
46002W        W12411   1.696  37.362   2.757
46003W        W12412  42.677  33.176   0.049
46004W        W12413  29.520  19.362  12.082
46005W        W12414  34.354  42.806  11.624
46006W        W12415   4.397  43.878   2.397
46007W        W12416  44.294  40.541  13.445
46008W        W12417  22.556   1.306  12.923
46009W        W12418  12.181  17.242   4.693
46010W        W12419  27.142  11.707  13.357
46011W        W12420  22.527   2.649  13.837
46012W        W12421  21.153  38.262   2.148
46013W        W12422  19.061  36.912  14.376
46014W        W12423  11.765   5.289  12.384
46015W        W12424  31.644  26.521  13.416
46016W        W12425  39.903  44.187  13.023
46017W        W12426  38.089  23.720   4.984
46018W        W12427   4.264   7.686  11.108
46019W        W12428  28.010  23.908  11.607
46020W        W12429  33.019  13.641   2.842
46021W        W12430  40.005  36.617  10.723
46022W        W12431  36.353  18.480   2.861
46023W        W12432  13.092   1.569  14.437
46024W        W12433  29.183  26.991  12.620
46025W        W12434  13.834  42.783  13.033
46026W        W12435  12.617  11.521   3.757
46027W        W12436  15.708  44.302  14.905
46028W        W12437   1.775  31.367  11.211
46029W        W12438  10.309  19.462   0.857
46030W        W12439  16.639   8.644  14.882
46031W        W12440  24.931  14.147  12.970
46032W        W12441  15.429  39.953  14.544
46033W        W12442  41.448   6.860   1.035
46034W        W12443  38.333  25.104  11.106
46035W        W12444  39.991  41.419   4.871
46036W        W12445  43.446  25.202   2.822
46037W        W12446  36.158  31.349   5.011
46038W        W12447  25.609  32.654   1.750
46039W        W12448  37.380   7.875   1.156
46040W        W12449  28.567  34.397  10.747
46041W        W12450  21.468  23.894  11.264
46042W        W12451  31.552  24.063  11.638
46043W        W12452  37.096  32.143   4.389
46044W        W12453  14.245  26.023   0.299
46045W        W12454  34.146  26.555  14.535
46046W        W12455   6.164  33.548  11.625
46047W        W12456  11.187  30.386  11.080
46048W        W12457  37.171  22.965  12.489
46049W        W12458  19.244   4.469   0.118
46050W        W12459  44.388   3.809  12.390
46051W        W12460  14.179  36.833   3.706
46052W        W12461  26.761  38.447   1.717
46053W        W12462  15.666  15.145   1.437
46054W        W12463  24.141  29.198  10.693
46055W        W12464  31.441  17.102   1.271
46056W        W12465  15.912  42.314   1.766
46057W        W12466  26.453   8.212  11.508
46058W        W12467   6.139  15.524  12.080
46059W        W12468  42.403  41.714  10.424
46060W        W12469  21.701  35.091   4.656
46061W        W12470  11.607  30.840  13.801
46062W        W12471  32.554  40.071  12.440
46063W        W12472  18.053  32.894  11.940
46064W        W12473   5.898  13.738   3.210
46065W        W12474  34.576  21.237  11.408
46066W        W12475  44.465  16.583   2.223
46067W        W12476  29.059   3.862   2.853
46068W        W12477   4.691  37.444  14.041
46069W        W12478  13.591  22.732   0.347
46070W        W12479  41.834   9.716   0.579
46071W        W12480   5.805  13.166   4.973
46072W        W12481  39.524  12.295  11.097
46073W        W12482  32.082  23.212   0.508
46074W        W12483  29.292  41.393  14.901
46075W        W12484  42.292  16.113  10.932
46076W        W12485  27.736  16.127   4.505
46077W        W12486  28.510  17.206  13.996
46078W        W12487  27.004  16.205  13.425
46079W        W12488  16.819   6.834   3.195
46080W        W12489  17.841  14.047  12.045
46081W        W12490   3.793   4.260  11.774
46082W        W12491  24.717  29.997  12.039
46083W        W12492  39.794  19.201  11.490
46084W        W12493  44.465  44.997  10.791
46085W        W12494  44.210  25.537  14.890
46086W        W12495  27.899  19.637  10.172
46087W        W12496  12.670  14.865   3.436
46088W        W12497   4.820  31.486  10.769
46089W        W12498  28.050  40.794  13.415
46090W        W12499   8.697  22.855   0.922
46091W        W12500   4.363  39.561   4.855
46092W        W12501  13.583  38.872  11.580
46093W        W12502  33.182  12.081   4.131
46094W        W12503  25.556  24.517  11.524
46095W        W12504  44.220  15.214   2.097
46096W        W12505  10.175  15.401  10.754
46097W        W12506  31.425  19.125   4.670
46098W        W12507  37.477  16.626   4.151
46099W        W12508  14.280  40.754  14.382
46100W        W12509  18.911  36.038  10.383
46101W        W12510  24.710   0.881  14.799
46102W        W12511  37.348  17.265   1.860
46103W        W12512  28.592  14.369  13.751
46104W        W12513  44.973  13.594   0.939
46105W        W12514  39.674  14.768   1.735
46106W        W12515  42.051  16.515  12.121
46107W        W12516  38.154  44.823  14.818
46108W        W12517  14.852  10.563  12.004
46109W        W12518  15.675  32.176   0.886
46110W        W12519  35.637  27.443   4.568
46111W        W12520  31.093  44.325   0.743
46112W        W12521   7.718  30.695  12.128
46113W        W12522  35.260  31.194  11.621
46114W        W12523   5.004   6.317   1.354
46115W        W12524  36.820  24.243  13.084
46116W        W12525   1.388   5.360   4.097
46117W        W12526  36.074  11.174   1.406
46118W        W12527  23.489   6.730  13.472
46119W        W12528   0.447  13.308  11.877
46120W        W12529  27.401  41.846   2.437
46121W        W12530  20.213  37.168   1.202
46122W        W12531   4.912  44.883  13.830
46123W        W12532  18.546  15.874  14.601
46124W        W12533  42.031  33.451  13.959
46125W        W12534  44.043  20.676  14.081
46126W        W12535  42.004  17.559   2.185
46127W        W12536   7.168  26.888  14.265
46128W        W12537   8.478   0.992   2.395
46129W        W12538  37.336   1.068   4.974
46130W        W12539  43.008   7.339   3.829
46131W        W12540   2.050  10.366   3.714
46132W        W12541  32.066  25.253  13.932
46133W        W12542   6.376  38.584  11.851
46134W        W12543  16.667  42.194   4.969
46135W        W12544  30.989  18.579  13.897
46136W        W12545  28.282   6.874  13.101
46137W        W12546  23.725  18.505   3.183
46138W        W12547   6.791   6.721  14.398
46139W        W12548  39.879  20.041   3.250
46140W        W12549  38.944  36.981  10.212
46141W        W12550  27.723  23.193   5.038
46142W        W12551  26.133   0.804  12.300
46143W        W12552  23.273   3.650   2.769
46144W        W12553  14.225  42.887   4.477
46145W        W12554  22.377  33.571  13.315
46146W        W12555  22.276  36.239  11.598
46147W        W12556  36.391  32.210  13.174
46148W        W12557  18.293  29.157   4.553
46149W        W12558  18.151  22.799   0.259
46150W        W12559  21.531  28.026   4.494
46151W        W12560   1.423   5.625   0.294
46152W        W12561  11.805   5.235  11.874
46153W        W12562  13.767  44.825   0.532
46154W        W12563   8.456  35.938  11.135
46155W        W12564   1.853  37.888  10.473
46156W        W12565  22.449  28.608  12.188
46157W        W12566  18.116   5.331   4.269
46158W        W12567  12.430  38.946  12.498
46159W        W12568  17.051   2.414  10.638
46160W        W12569  10.602  38.043   3.211
46161W        W12570   3.863  23.668  12.950
46162W        W12571  10.003  44.790   3.682
46163W        W12572  32.504  18.120   4.207
46164W        W12573   1.447  31.851  14.864
46165W        W12574  14.352  33.887   4.539
46166W        W12575  32.364  26.122  12.252
46167W        W12576   7.320  34.884  13.408
46168W        W12577  15.940   3.384   4.838
46169W        W12578  36.008  40.032  10.687
46170W        W12579  12.915  33.805  10.220
46171W        W12580  11.925   7.689   1.461
46172W        W12581  11.248  11.513   1.759
46173W        W12582   6.169   5.972  10.386
46174W        W12583   3.733  29.649   4.257
46175W        W12584  43.041  22.566  13.839
46176W        W12585  20.546  30.924   4.775
46177W        W12586  39.946   5.168  13.808
46178W        W12587  12.302  43.525   1.798
46179W        W12588  13.911  41.392   1.437
46180W        W12589  24.932  20.261   3.331
46181W        W12590  43.550  13.627   1.396
46182W        W12591  24.131  39.983  11.300
46183W        W12592  15.940  19.587  10.524
46184W        W12593  43.295  10.759   4.034
46185W        W12594  39.653   2.525  11.101
46186W        W12595  19.222  24.204  14.302
46187W        W12596   1.295  42.444  11.410
46188W        W12597  25.153  10.089  14.303
46189W        W12598  26.699  16.251   0.041
46190W        W12599   9.780  44.767   1.447
46191W        W12600  21.239  39.793  14.733
46192W        W12601  38.152  14.171   4.647
46193W        W12602  29.269  11.783   3.795
46194W        W12603  39.537  21.499   0.774
46195W        W12604  37.617   5.226   2.863
46196W        W12605  16.702   0.269  10.710
46197W        W12606   2.848   3.294   3.590
46198W        W12607  30.018  41.969   2.994
46199W        W12608  38.797  22.109  12.393
46200W        W12609  15.569  29.342   9.848
46201W        W12610  31.658  30.363   1.426
46202W        W12611  18.344  31.900  10.807
46203W        W12612  35.412  34.846   1.431
46204W        W12613  22.544   2.392  12.467
46205W        W12614  19.710  24.421   0.249
46206W        W12615  29.994   0.384   3.408
46207W        W12616   3.329  16.181   1.723
46208W        W12617  19.600  23.691  12.162
46209W        W12618   3.179   0.971  14.867
46210W        W12619   5.198  13.219  13.794
46211W        W12620  35.119  17.531  10.535
46212W        W12621  23.232  40.110   2.231
46213W        W12622  15.102   8.838  13.893
46214W        W12623  44.945  15.708  12.928
46215W        W12624  24.557  29.264   4.252
46216W        W12625   5.889  17.133   3.622
46217W        W12626  17.974  16.865  13.405
46218W        W12627  24.107   6.517  14.920
46219W        W12628  20.687  42.041   5.045
46220W        W12629  17.660  39.987  13.495
46221W        W12630   1.190  17.040   0.083
46222W        W12631  37.640   4.063  11.584
46223W        W12632  43.399   7.770  10.290
46224W        W12633   1.469  23.552  13.495
46225W        W12634  28.944  32.823   3.238
46226W        W12635   7.940  37.398   2.286
46227W        W12636  15.247  14.781  11.599
46228W        W12637  10.226  41.242  12.414
46229W        W12638  14.640  10.820   1.119
46230W        W12639   9.383   0.400  11.572
46231W        W12640  29.991   4.576  12.548
46232W        W12641  41.918  20.909   3.395
46233W        W12642  36.894   0.475  11.123
46234W        W12643   5.307  43.497   1.838
46235W        W12644  33.019  34.163   0.319
46236W        W12645  26.183  21.417  13.089
46237W        W12646  24.604  20.757  14.472
46238W        W12647  27.557  14.324   3.529
46239W        W12648   0.514   1.488   0.172
46240W        W12649  12.208  11.820   4.401
46241W        W12650  26.246  13.030  11.927
46242W        W12651  16.503  26.402   1.265
46243W        W12652   5.215  44.908   0.828
46244W        W12653  25.302   2.776   0.200
46245W        W12654   7.320  37.322  11.483
46246W        W12655  18.891  31.569   1.685
46247W        W12656  27.140   9.144  14.376
46248W        W12657  13.168  32.353   3.726
46249W        W12658  18.250   7.414  12.360
46250W        W12659  37.094  25.665   1.769
46251W        W12660   0.323  34.994  10.729
46252W        W12661   0.544   6.278   3.644
46253W        W12662  42.888  16.658  11.060
46254W        W12663  31.908   7.494  11.530
46255W        W12664  18.467  27.031   1.830
46256W        W12665  34.248   5.339  11.164
46257W        W12666  14.793  42.825   3.764
46258W        W12667   7.691  36.977   0.312
46259W        W12668  12.146  30.668   4.770
46260W        W12669  41.322   3.033  11.590
46261W        W12670   6.346  42.845   2.489
46262W        W12671  26.658   1.520   3.193
46263W        W12672  15.662  22.676  13.802
46264W        W12673  22.068  38.429   0.468
46265W        W12674  20.221   6.242   3.791
46266W        W12675   6.421  30.481   4.878
46267W        W12676  37.292  31.223  14.373
46268W        W12677  21.244  43.754  11.908
46269W        W12678  41.786  41.489   1.667
46270W        W12679  12.216  20.659   2.198
46271W        W12680  44.971   0.093  10.687
46272W        W12681  29.330  27.383  11.568
46273W        W12682  19.645   4.155   1.899
46274W        W12683   3.963  12.653   0.988
46275W        W12684   7.709  15.504   3.606
46276W        W12685  26.553  23.185   2.673
46277W        W12686   8.157   6.275  14.517
46278W        W12687  15.838  22.007  14.457
46279W        W12688  43.691   8.200  11.813
46280W        W12689  28.459  21.309   9.651
46281W        W12690  13.691  36.947  12.350
46282W        W12691  29.029  38.823  12.867
46283W        W12692  37.111   7.266  13.993
46284W        W12693  30.349  34.897   0.925
46285W        W12694  24.915  26.239   9.988
46286W        W12695  40.979  24.011  10.393
46287W        W12696  38.000   7.267   3.190
46288W        W12697   4.820   3.884   1.315
46289W        W12698   3.398  24.393  12.378
46290W        W12699  10.609  12.330  13.924
46291W        W12700  40.899  19.702  11.711
46292W        W12701  26.646  26.932  11.028
46293W        W12702  24.647  20.330  10.165
46294W        W12703  11.352  23.997   4.937
46295W        W12704  15.246  21.810  14.845
46296W        W12705  13.767  10.370   0.699
46297W        W12706  17.824  13.363  13.985
46298W        W12707  41.258  20.373  13.274
46299W        W12708  39.423  28.197  10.864
46300W        W12709  40.042   2.487  14.360
46301W        W12710  15.651  27.023  12.547
46302W        W12711   2.759  17.087  13.051
46303W        W12712  16.191  34.435  10.284
46304W        W12713   3.513  28.343   4.193
46305W        W12714  19.582  29.615  12.345
46306W        W12715   4.496  34.769  11.038
46307W        W12716   9.313  14.648  11.702
46308W        W12717  36.083  21.631   3.182
46309W        W12718  27.494  43.135   3.625
46310W        W12719  24.581   4.793  12.240
46311W        W12720  31.537  40.234   2.761
46312W        W12721  16.989  17.303  13.299
46313W        W12722   5.477  17.992  14.850
46314W        W12723  19.235  23.485  10.706
46315W        W12724  24.543   8.883   9.858
46316W        W12725  22.249   1.215   3.284
46317W        W12726  21.739  43.833  14.859
46318W        W12727  19.134  29.483  12.119
46319W        W12728  30.053   4.170  14.577
46320W        W12729  16.772  19.522  11.158
46321W        W12730  37.836  28.695  14.025
46322W        W12731  18.783  14.338  14.615
46323W        W12732  40.692  12.847   2.281
46324W        W12733  13.732  25.762  12.328
46325W        W12734  10.573  36.045   2.425
46326W        W12735   5.040   9.440   4.090
46327W        W12736  43.229  38.678   4.035
46328W        W12737  39.251   8.845  13.880
46329W        W12738  10.202  10.306   4.330
46330W        W12739  34.898  40.253   2.378
46331W        W12740  19.077   8.461  14.923
46332W        W12741  35.841  27.066  14.568
46333W        W12742  41.975  40.871   4.597
46334W        W12743  40.496  12.220  12.546
46335W        W12744  30.549   9.120   3.749
46336W        W12745  34.481  34.549   2.216
46337W        W12746  44.399  31.320  11.131
46338W        W12747  28.493  40.067   3.580
46339W        W12748   8.899  10.683  14.676
46340W        W12749  23.692  33.617  11.099
46341W        W12750  10.419  21.667   0.305
46342W        W12751   3.442   0.754   2.665
46343W        W12752   6.439  16.619   3.381
46344W        W12753   5.246  27.180  14.742
46345W        W12754  36.478   0.413   3.112
46346W        W12755  11.109  34.412   0.945
46347W        W12756  39.396  28.418  13.052
46348W        W12757  17.964   5.237  14.395
46349W        W12758  27.654  36.383  12.932
46350W        W12759  33.580  18.194  10.063
46351W        W12760   6.772  15.926  13.173
46352W        W12761  12.573  40.614   3.653
46353W        W12762  19.076   9.164  10.420
46354W        W12763  11.171   6.514   0.272
46355W        W12764  28.487   4.938  14.280
46356W        W12765  33.619  26.387  11.476
46357W        W12766  26.905  35.796  13.873
46358W        W12767  13.705   5.717  14.898
46359W        W12768  37.179  33.190   0.224
46360W        W12769  13.784  22.773  13.412
46361W        W12770  40.434  20.600   1.635
46362W        W12771  39.041   9.095   4.225
46363W        W12772   0.860   9.238  10.232
46364W        W12773  27.699   4.267  11.994
46365W        W12774  34.695  34.735   0.931
46366W        W12775  12.125  42.071   0.865
46367W        W12776  29.381   6.263  14.500
46368W        W12777  39.168   9.610   2.475
46369W        W12778  41.328  34.403  11.634
46370W        W12779  29.400   9.888  13.855
46371W        W12780  23.169  14.298  13.931
46372W        W12781  14.368  33.917  10.893
46373W        W12782  39.833  36.949  12.927
46374W        W12783  40.145   1.127  12.874
46375W        W12784  43.943  10.321  11.689
46376W        W12785  37.908  15.015   4.455
46377W        W12786  18.392  41.449   3.812
46378W        W12787  13.119  41.187  11.742
46379W        W12788  42.935  10.790   0.041
46380W        W12789  19.159  37.211  11.112
46381W        W12790   3.017  22.283  13.896
46382W        W12791  20.543  16.991  11.164
46383W        W12792   9.650  41.379  10.753
46384W        W12793  19.961  40.355  14.900
46385W        W12794  36.865  43.213  12.488
46386W        W12795  23.591  24.991   0.389
46387W        W12796  14.837   4.965   4.683
46388W        W12797  33.821  16.757  12.155
46389W        W12798  13.229  28.388   0.641
46390W        W12799  17.185   0.347   3.267
46391W        W12800  19.078   6.934  11.962
46392W        W12801  41.977   9.782  14.593
46393W        W12802  31.660  13.326  11.135
46394W        W12803   7.477   6.244   2.294
46395W        W12804   0.440  44.907  12.544
46396W        W12805   3.746  16.588   4.364
46397W        W12806   7.237  21.288   3.673
46398W        W12807  35.015   4.685   2.172
46399W        W12808  12.079  21.556   1.511
46400W        W12809  23.801  14.057  11.913
46401W        W12810   4.035  44.734  11.193
46402W        W12811  29.467  42.559  13.249
46403W        W12812   6.273  35.875   5.081
46404W        W12813  35.520  25.676  13.601
46405W        W12814  13.796  17.115  14.880
46406W        W12815  18.569   7.404   2.814
46407W        W12816  23.294  29.037   3.706
46408W        W12817  22.506  33.614  14.849
46409W        W12818  30.807  43.917  10.532
46410W        W12819   5.641   7.477   2.702
46411W        W12820  20.514  44.223  14.962
46412W        W12821   0.049  30.440   4.635
46413W        W12822  32.557   8.814   3.541
46414W        W12823  15.743  31.448   1.821
46415W        W12824  12.202  33.583  12.511
46416W        W12825  29.798   8.471   2.210
46417W        W12826  39.087  36.904  14.075
46418W        W12827  40.405   5.327   1.979
46419W        W12828  34.373  31.887  14.574
46420W        W12829  39.331   7.883   2.494
46421W        W12830   7.624  21.795   0.917
46422W        W12831  15.858  36.250  14.537
46423W        W12832  33.632  22.283   3.749
46424W        W12833  21.622   7.154  11.497
46425W        W12834  32.781  10.652  14.175
46426W        W12835  41.943  29.993  10.660
46427W        W12836  32.895   3.281  10.773
46428W        W12837  31.222  30.890  13.708
46429W        W12838  28.296   7.379   4.636
46430W        W12839  44.515  35.907   0.093
46431W        W12840  22.721  22.601  13.282
46432W        W12841  39.030  39.003   2.529
46433W        W12842  24.528  35.235  13.873
46434W        W12843   6.316  27.697   1.392
46435W        W12844  32.410  41.122   2.650
46436W        W12845   2.363  22.018   2.326
46437W        W12846  13.225  43.344  11.053
46438W        W12847  39.486  34.969  11.537
46439W        W12848  34.459  10.398   4.387
46440W        W12849  31.654  16.721  12.176
46441W        W12850  20.309  20.338  12.024
46442W        W12851  25.823  30.778   1.545
46443W        W12852  40.407  39.504   0.366
46444W        W12853  12.304  41.896   2.662
46445W        W12854  14.175  14.802   0.459
46446W        W12855   4.816   6.638  10.696
46447W        W12856   9.192  18.621  13.450
46448W        W12857  10.668  19.849  12.001
46449W        W12858  11.719  25.932   1.161
46450W        W12859  41.825  14.167   0.671
46451W        W12860  43.787   7.321  13.824
46452W        W12861  27.134  30.383  10.681
46453W        W12862  17.676   2.280   1.872
46454W        W12863  10.270   7.265  13.992
46455W        W12864  14.564   0.367   2.104
46456W        W12865  43.223  42.408   2.261
46457W        W12866   1.399   2.408  10.701
46458W        W12867  41.434  35.842   2.652
46459W        W12868   4.179  40.622  14.341
46460W        W12869  25.114  25.115   1.220
46461W        W12870  23.996  19.782   3.144
46462W        W12871  39.453  23.140   3.321
46463W        W12872  12.225  21.049  14.647
46464W        W12873   5.316   1.872  14.790
46465W        W12874  43.008  13.540  11.264
46466W        W12875  34.348  42.926   3.200
46467W        W12876  36.404  26.971   0.879
46468W        W12877  28.403   1.708   2.767
46469W        W12878   7.570  19.108  11.099
46470W        W12879   5.435  25.387   4.439
46471W        W12880  20.247  29.644  10.664
46472W        W12881  18.005  31.356   0.330
46473W        W12882  20.897  32.980  13.219
46474W        W12883  41.417  31.298   3.623
46475W        W12884  22.176  16.837   1.434
46476W        W12885  39.122  33.880  11.453
46477W        W12886  23.219  19.712   1.429
46478W        W12887  42.524  17.267   9.996
46479W        W12888  12.935  14.284  14.861
46480W        W12889   6.567  43.422  13.438
46481W        W12890  23.000  26.455   4.251
46482W        W12891   6.752  11.605   0.475
46483W        W12892  35.949  11.119  11.105
46484W        W12893  22.494  21.580   0.600
46485W        W12894   9.648  36.373  12.610
46486W        W12895  40.324  41.348  14.805
46487W        W12896  12.258   8.994   3.209
46488W        W12897  42.743  21.199   3.254
46489W        W12898  28.317  43.333   2.153
46490W        W12899   5.339  36.074   0.844
46491W        W12900   3.617  28.180  11.620
46492W        W12901  20.854  13.090  11.123
46493W        W12902  30.811   8.618   1.876
46494W        W12903  11.765   5.827  14.017
46495W        W12904  40.870   7.413   0.491
46496W        W12905  42.853  20.353   4.760
46497W        W12906  17.973  12.977   1.810
46498W        W12907   0.188  42.909  11.182
46499W        W12908  15.204  44.799   1.544
46500W        W12909  26.205  44.928   2.196
46501W        W12910  17.535  12.253   2.373
46502W        W12911  36.992  12.135   3.609
46503W        W12912  36.776  23.013  12.162
46504W        W12913  24.556  25.060   1.109
46505W        W12914   3.707  24.395  11.974
46506W        W12915  21.555  19.966  14.847
46507W        W12916  21.260  44.032  14.872
46508W        W12917  31.984  18.354  12.104
46509W        W12918  33.613  11.387  10.743
46510W        W12919  40.098   5.739   2.136
46511W        W12920   7.645  39.035   0.417
46512W        W12921  37.624  10.236   1.196
46513W        W12922  21.480  24.193  13.040
46514W        W12923  29.268  33.056   4.541
46515W        W12924  30.037  11.900  11.585
46516W        W12925   4.177  31.417   3.621
46517W        W12926  20.540  10.281   4.087
46518W        W12927   5.321  15.318   4.836
46519W        W12928  25.433   5.774  12.697
46520W        W12929  12.636  11.260   3.320
46521W        W12930  23.907  18.801  12.852
46522W        W12931  13.745   3.516   3.340
46523W        W12932  18.976  33.755   3.091
46524W        W12933  23.038  36.095  12.876
46525W        W12934  25.715  30.132  11.976
46526W        W12935   4.762  12.660  13.021
46527W        W12936  43.250  25.737  14.089
46528W        W12937  40.390  21.071  13.880
46529W        W12938  43.950  11.304   2.331
46530W        W12939  11.336   3.652   3.767
46531W        W12940  35.956  19.143   3.670
46532W        W12941   0.075  37.035  10.659
46533W        W12942  11.824   6.288   0.689
46534W        W12943   3.726  41.238   4.097
46535W        W12944  43.181  37.410  12.420
46536W        W12945   5.816  17.700  14.024
46537W        W12946  26.913   7.676  10.942
46538W        W12947  18.696  11.474   3.278
46539W        W12948   9.348  17.175   4.669
46540W        W12949   0.521   3.190  13.414
46541W        W12950  16.737  18.274  13.826
46542W        W12951  28.906   8.975   3.074
46543W        W12952  39.352  34.646  12.846
46544W        W12953   3.325   1.777  13.919
46545W        W12954   6.333  38.480   4.663
46546W        W12955  12.324  32.655   2.031
46547W        W12956  40.465  32.467   3.213
46548W        W12957   0.579  14.016   2.784
46549W        W12958  36.178  25.632  11.807
46550W        W12959  27.220  27.589  10.704
46551W        W12960   7.381  44.201  14.424
46552W        W12961   5.178  19.973   1.314
46553W        W12962  30.296  29.137  11.095
46554W        W12963   2.361  36.954   1.883
46555W        W12964   3.398  25.643  12.879
46556W        W12965  43.974  34.927  13.814
46557W        W12966   7.144  39.833  14.872
46558W        W12967  33.960  14.134  14.289
46559W        W12968   7.149  38.559   4.089
46560W        W12969  28.593  27.708   3.867
46561W        W12970  19.759  43.304   3.193
46562W        W12971   5.907  40.774  11.996
46563W        W12972  40.266  28.614   5.214
46564W        W12973  44.857  43.078  14.984
46565W        W12974  15.817  17.356   0.833
46566W        W12975  19.140  18.623  10.794
46567W        W12976  18.114  33.018   3.337
46568W        W12977  25.660  40.480   4.407
46569W        W12978  42.222   6.439   0.982
46570W        W12979   1.442  23.787   1.050
46571W        W12980  36.742  26.128  13.853
46572W        W12981  15.100  31.666   0.038
46573W        W12982   4.588  19.224   2.291
46574W        W12983   7.636  42.488  13.604
46575W        W12984  28.882   6.479   1.914
46576W        W12985  34.294  26.128   0.923
46577W        W12986  25.889  36.457  11.093
46578W        W12987  21.939  38.370  11.041
46579W        W12988  30.396   9.161  10.777
46580W        W12989  10.384   9.673   1.351
46581W        W12990  12.737   0.206   0.911
46582W        W12991   1.861  38.363   3.048
46583W        W12992  12.004   7.344   0.018
46584W        W12993  35.154  43.409   4.265
46585W        W12994  30.616  38.395   3.352
46586W        W12995  40.440  32.598   4.756
46587W        W12996  39.784  21.496  14.790
46588W        W12997  21.701   7.490   2.256
46589W        W12998  19.066  10.258   0.324
46590W        W12999   7.951   1.052  12.809
46591W        W13000  33.059  38.525  14.504
46592W        W13001  27.336   8.416   2.243
46593W        W13002  15.688  17.962   4.061
46594W        W13003  36.825  44.954   2.912
46595W        W13004  29.208  30.852  13.168
46596W        W13005  14.731  10.686  10.659
46597W        W13006   8.664  16.524   4.517
46598W        W13007  32.418  17.339  13.542
46599W        W13008  10.298  17.261   1.426
46600W        W13009  31.481  16.337  13.970
46601W        W13010  20.652  40.948  11.946
46602W        W13011  39.497  43.113   1.358
46603W        W13012  25.195   6.171  11.527
46604W        W13013  23.181   2.374  12.053
46605W        W13014  14.245  24.549  14.044
46606W        W13015  30.143   2.280  13.556
46607W        W13016  16.265   5.628   3.427
46608W        W13017   1.051   0.600  12.092
46609W        W13018  29.646  13.352  14.304
46610W        W13019   8.272   3.343  12.926
46611W        W13020  26.635  39.346   0.509
46612W        W13021  19.545  14.350   4.716
46613W        W13022   4.279  30.424  13.504
46614W        W13023   9.903   9.448   1.434
46615W        W13024  32.354   5.053  10.205
46616W        W13025  21.070  12.146   0.842
46617W        W13026  22.370  42.474   2.169
46618W        W13027  15.839  33.620  14.581
46619W        W13028  41.469  18.830  11.114
46620W        W13029  34.070  16.759  14.297
46621W        W13030  17.813  42.215   3.472
46622W        W13031  38.826  37.948   4.349
46623W        W13032  31.092   6.376   0.255
46624W        W13033  38.072   2.700   3.709
46625W        W13034  43.337  19.855  13.437
46626W        W13035  18.109  27.090   3.411
46627W        W13036  34.153  13.575  11.405
46628W        W13037  41.767  16.130   1.404
46629W        W13038  37.201  26.888  12.965
46630W        W13039  14.227  10.528   4.086
46631W        W13040  18.234  44.309  11.111
46632W        W13041  18.981   9.271   1.746
46633W        W13042  43.230  21.620  12.815
46634W        W13043   5.978  37.447   0.279
46635W        W13044  20.160  34.448   2.786
46636W        W13045  28.526  42.507  13.282
46637W        W13046  17.821   4.954   1.757
46638W        W13047  13.752  19.858  11.952
46639W        W13048   3.797   2.440   1.807
46640W        W13049  26.069  44.957  14.894
46641W        W13050  14.268  14.778  14.955
46642W        W13051  18.476  11.085   4.189
46643W        W13052   4.962   5.881   0.147
46644W        W13053   1.785  30.482  10.992
46645W        W13054  15.811  10.546  11.231
46646W        W13055  30.949  43.302   0.855
46647W        W13056   8.330  13.675   1.902
46648W        W13057  29.327  36.294  13.750
46649W        W13058   2.748  32.337   4.233
46650W        W13059  31.075  44.544  12.998
46651W        W13060   1.677  44.449  13.457
46652W        W13061  33.554  29.341  14.766
46653W        W13062  19.521  38.715   1.687
46654W        W13063  12.433   5.138   0.606
46655W        W13064  31.089  40.029   2.266
46656W        W13065  39.250  17.976  14.715
46657W        W13066   5.385  15.012   3.217
46658W        W13067  30.931   7.435  11.570
46659W        W13068  36.065  31.414   1.782
46660W        W13069   0.737  21.301   3.329
46661W        W13070  41.986   3.981   3.031
46662W        W13071  21.426  19.655   1.365
46663W        W13072  20.554  20.150  11.602
46664W        W13073  36.397  25.148   3.075
46665W        W13074  19.979  24.221  13.920
46666W        W13075   0.246  32.556  11.084
46667W        W13076   0.969  34.608  14.747
46668W        W13077  40.792   2.259   2.327
46669W        W13078  21.579   9.025   4.501
46670W        W13079  33.478   3.792  14.908
46671W        W13080   8.799  22.277  11.518
46672W        W13081  21.666  23.664   0.721
46673W        W13082   1.836  13.332  11.066
46674W        W13083  17.325  12.630  14.472
46675W        W13084  44.020  26.877  13.778
46676W        W13085  18.217  23.988  10.834
46677W        W13086  32.607  22.287   0.522
46678W        W13087  27.381  42.970  11.568
46679W        W13088  21.760  34.501   1.668
46680W        W13089  42.108  23.498   4.585
46681W        W13090  40.486  17.848  12.682
46682W        W13091  22.631  24.237   4.551
46683W        W13092  44.377  40.255   0.433
46684W        W13093  39.541  24.668  11.839
46685W        W13094   7.803  31.849  11.679
46686W        W13095  35.435  16.174  12.381
46687W        W13096  10.811  21.096  14.877
46688W        W13097   2.726  27.933  11.930
46689W        W13098   3.214  21.123  12.124
46690W        W13099  33.024  42.444   3.250
46691W        W13100  17.208  38.608  13.612
46692W        W13101  10.251  36.097  10.433
46693W        W13102  15.328  28.168  10.566
46694W        W13103  21.005  43.704   2.443
46695W        W13104  39.410  42.134   0.494
46696W        W13105  44.245  35.552  10.401
46697W        W13106   7.282  24.047  14.874
46698W        W13107  20.158  18.626  14.755
46699W        W13108  10.501  27.708  11.119
46700W        W13109   8.369  21.437   1.293
46701W        W13110   2.312   3.867   3.167
46702W        W13111   9.836   6.373   0.231
46703W        W13112  43.814  42.133  12.229
46704W        W13113  25.252  34.214  13.507
46705W        W13114   6.257   1.893  14.960
46706W        W13115  22.307  24.085   4.141
46707W        W13116  14.784   5.922   0.310
46708W        W13117   5.353  38.052   1.895
46709W        W13118   8.984  37.518  14.403
46710W        W13119  15.230  40.458   1.123
46711W        W13120   1.750  12.146  13.768
46712W        W13121  33.093  34.150  13.076
46713W        W13122  26.682  27.837   0.691
46714W        W13123  19.278  18.169   4.654
46715W        W13124  31.500  26.156   2.308
46716W        W13125  11.103  21.634  14.860
46717W        W13126  41.915  43.900   2.180
46718W        W13127  21.358  39.932   4.645
46719W        W13128   0.528   4.315   3.368
46720W        W13129  40.344  11.372   1.719
46721W        W13130  15.812  34.192  12.448
46722W        W13131  39.248  41.863  10.489
46723W        W13132  34.516   8.210   3.719
46724W        W13133  31.436   9.696   2.381
46725W        W13134  35.898  26.260   3.668
46726W        W13135  12.718  21.027   9.830
46727W        W13136   0.987  11.751  12.878
46728W        W13137  18.197   2.369   4.532
46729W        W13138  12.208  11.625  12.053
46730W        W13139  27.269  34.027  10.792
46731W        W13140  36.836  33.345  12.033
46732W        W13141   7.354  32.928  14.508
46733W        W13142  18.303  32.683   1.929
46734W        W13143  38.658  29.972   3.194
46735W        W13144  38.734  26.184   0.764
46736W        W13145   0.669  42.483   4.465
46737W        W13146  15.111   1.352   1.169
46738W        W13147  37.505  29.912   4.504
46739W        W13148  32.085  12.377  12.039
46740W        W13149  11.870   5.388  14.748
46741W        W13150  28.937  39.343   3.363
46742W        W13151  10.998  19.626  12.783
46743W        W13152  27.266   6.474  11.644
46744W        W13153  44.283   3.620   4.458
46745W        W13154  44.089  19.266   4.131
46746W        W13155  41.535  39.794   3.222
46747W        W13156  39.388  25.893   0.214
46748W        W13157  42.556  39.794   3.295
46749W        W13158   8.190  41.989   1.401
46750W        W13159  26.927  33.903  14.828
46751W        W13160  39.262  19.058   3.231
46752W        W13161   7.763  27.020   2.089
46753W        W13162  14.768  20.964   0.318
46754W        W13163   4.225   7.634  12.608
46755W        W13164  43.861  12.246  14.961
46756W        W13165   1.527  28.166   1.765
46757W        W13166  27.763  27.140   3.346
46758W        W13167  44.230  25.576  13.787
46759W        W13168  39.130  18.193  13.381
46760W        W13169  15.565  25.354  14.762
46761W        W13170  10.289  43.428   4.150
46762W        W13171   6.419   4.982  12.363
46763W        W13172  36.613  16.599  11.078
46764W        W13173  11.097  25.297  11.223
46765W        W13174  43.250  39.906  13.980
46766W        W13175  17.263  32.158   4.362
46767W        W13176   2.976  21.542  11.927
46768W        W13177   8.282  42.953  12.916
46769W        W13178  29.402   3.771  13.851
46770W        W13179  15.068  11.763  12.020
46771W        W13180  15.893  43.809   3.576
46772W        W13181  31.250  33.713   0.839
46773W        W13182  43.411  15.678  13.698
46774W        W13183  12.775  22.026  12.593
46775W        W13184  43.859  42.087   0.983
46776W        W13185  17.141  44.232   2.334
46777W        W13186  20.047  38.609  12.193
46778W        W13187   0.206  39.919   2.742
46779W        W13188  27.227  17.804   0.518
46780W        W13189  32.677  19.482   3.135
46781W        W13190  27.624  19.055  10.620
46782W        W13191  17.308  18.122  11.675
46783W        W13192  31.916  44.489  13.585
46784W        W13193  42.400   7.561   4.962
46785W        W13194  21.247  42.235   0.324
46786W        W13195  27.971  16.504   1.745
46787W        W13196  35.169  28.704  13.064
46788W        W13197  10.315  14.625   2.341
46789W        W13198   5.766  44.537   3.820
46790W        W13199  27.463  19.119   0.008
46791W        W13200  10.858  29.993   5.504
46792W        W13201  36.935  17.033   3.252
46793W        W13202  23.089  22.014   3.176
46794W        W13203  27.597   7.431   4.640
46795W        W13204  23.051   2.481  13.872
46796W        W13205   5.308  41.964   4.613
46797W        W13206  20.329  33.099   1.897
46798W        W13207  30.071   1.679   2.344
46799W        W13208  19.073  40.744   0.649
46800W        W13209   0.979  30.857   4.456
46801W        W13210  20.552  16.212  13.326
46802W        W13211  30.583   8.623   0.710
46803W        W13212   1.843  33.296  11.104
46804W        W13213  13.335  40.821  11.468
46805W        W13214   5.825  11.383  11.200
46806W        W13215  34.692  29.140   4.538
46807W        W13216  12.862  31.406  10.558
46808W        W13217  25.072  34.362  10.803
46809W        W13218  30.046  36.519   4.760
46810W        W13219  44.195   6.053  14.272
46811W        W13220  17.712  41.937  11.570
46812W        W13221  19.205  20.533   3.781
46813W        W13222  12.585  42.047   0.557
46814W        W13223  18.744  43.448   2.610
46815W        W13224  38.192   6.279  12.956
46816W        W13225   7.467  13.178  12.020
46817W        W13226  36.629  14.244  13.953
46818W        W13227  12.989  33.442   0.375
46819W        W13228  26.502  40.055  12.823
46820W        W13229  41.143  43.931   1.429
46821W        W13230  33.215   6.528   5.018
46822W        W13231  24.834  33.364  12.494
46823W        W13232   7.222  33.504  10.003
46824W        W13233  31.667  23.158  11.178
46825W        W13234  26.736  38.998   4.538
46826W        W13235  22.273  26.591  11.880
46827W        W13236  36.758  16.945  14.323
46828W        W13237  11.453  41.971  14.264
46829W        W13238  14.027  24.124  14.279
46830W        W13239   1.924  19.179  10.745
46831W        W13240  33.668   3.250   3.144
46832W        W13241  11.643   0.466   3.349
46833W        W13242  34.866   4.402  14.874
46834W        W13243  38.468  21.202  14.810
46835W        W13244  16.040  33.392  14.991
46836W        W13245   9.791  30.547  11.166
46837W        W13246  40.549  15.488   0.285
46838W        W13247  32.700  24.586  11.374
46839W        W13248  16.785  15.310   2.591
46840W        W13249  29.520  24.570  14.825
46841W        W13250  39.008   5.216   1.875
46842W        W13251  32.409  14.139   3.834
46843W        W13252   5.719  18.183  13.600
46844W        W13253  26.503  35.560  14.953
46845W        W13254  23.172  38.892  10.650
46846W        W13255  29.699   3.944  14.245
46847W        W13256  37.023  28.243   2.610
46848W        W13257  11.361   9.409   3.183
46849W        W13258  44.908  25.004  12.768
46850W        W13259  16.763   4.815  11.171
46851W        W13260  24.650  21.533  14.913
46852W        W13261   7.318  13.328  14.510
46853W        W13262  12.554  38.466  13.000
46854W        W13263  39.559  43.373   1.890
46855W        W13264  31.219   9.086   4.338
46856W        W13265  41.863  19.570  11.197
46857W        W13266  29.723  24.613   0.314
46858W        W13267  34.948  32.555  13.522
46859W        W13268  37.595  13.752   9.816
46860W        W13269  31.470  26.684   2.070
46861W        W13270  29.982   4.701   3.193
46862W        W13271  34.016  26.048   2.716
46863W        W13272  37.964  30.482   1.346
46864W        W13273  25.946  37.463  10.620
46865W        W13274   5.706   2.383  13.045
46866W        W13275  35.322  34.945   4.962
46867W        W13276  27.669  19.110   3.333
46868W        W13277  36.192  32.342  10.701
46869W        W13278  44.477  28.484  12.265
46870W        W13279  18.839  39.283  11.430
46871W        W13280  16.256   1.454  13.915
46872W        W13281   9.635  36.950   1.251
46873W        W13282  31.698  44.397   2.659
46874W        W13283   5.752  41.061   3.109
46875W        W13284  24.611   4.775   2.290
46876W        W13285  12.843  41.032  14.415
46877W        W13286  11.682  17.738   4.787
46878W        W13287  34.162  20.005   2.744
46879W        W13288  25.211   8.220  13.256
46880W        W13289  35.678  20.286   4.720
46881W        W13290  33.914  37.894  12.102
46882W        W13291  20.613   7.746   2.185
46883W        W13292  24.944   3.285  14.465
46884W        W13293  12.816  35.970   2.266
46885W        W13294  35.501   7.698  14.358
46886W        W13295  33.038  31.878  12.975
46887W        W13296  33.899   4.818   1.341
46888W        W13297   9.485  19.432  11.146
46889W        W13298  31.567  19.438   0.468
46890W        W13299   3.244  44.953   0.652
46891W        W13300  19.863  20.673  14.927
46892W        W13301  21.235  16.083   4.932
46893W        W13302   8.248  35.359  13.390
46894W        W13303  22.065  42.010   2.922
46895W        W13304  34.175  24.125  11.208
46896W        W13305  29.502   7.832  13.908
46897W        W13306  13.668   6.738  11.123
46898W        W13307  33.205  18.188   3.694
46899W        W13308  21.456  32.632  11.507
46900W        W13309  43.197  31.875  10.995
46901W        W13310  13.056  20.588   1.504
46902W        W13311  16.775  12.639   4.684
46903W        W13312   7.199  23.675  13.541
46904W        W13313   1.812  10.136  11.027
46905W        W13314  32.034  20.287   0.734
46906W        W13315  22.857   3.428   2.587
46907W        W13316  21.631  24.631   1.711
46908W        W13317  43.321   7.166   1.859
46909W        W13318  29.216   6.746  14.598
46910W        W13319  37.714   9.084   4.088
46911W        W13320  28.994   9.164  14.275
46912W        W13321  14.181  31.889  12.037
46913W        W13322   6.235  12.971  12.879
46914W        W13323   1.377   8.996   3.743
46915W        W13324  21.266  18.623  11.175
46916W        W13325  17.121   4.297   0.254
46917W        W13326  11.642  22.602   2.764
46918W        W13327  24.424  27.653  12.934
46919W        W13328  38.649  13.920  11.540
46920W        W13329  44.731  38.539  12.465
46921W        W13330  21.218   5.814  12.623
46922W        W13331   5.522   0.659  11.864
46923W        W13332  34.948  40.776   2.278
46924W        W13333  24.741   0.378   3.219
46925W        W13334  15.655  29.180  13.635
46926W        W13335  28.131  15.274   0.447
46927W        W13336  15.231  23.000   4.100
46928W        W13337  40.902   5.900  13.993
46929W        W13338   9.871  37.534   4.545
46930W        W13339   1.471  44.898  11.576
46931W        W13340   2.249  28.856   0.402
46932W        W13341   6.805  32.385  14.426
46933W        W13342  15.389   4.170   3.774
46934W        W13343  19.130  41.137  11.210
46935W        W13344  28.626  35.720  13.864
46936W        W13345  34.629  13.249   3.272
46937W        W13346  32.427  38.672   2.321
46938W        W13347  16.262  24.100   2.018
46939W        W13348  27.838  30.437   2.609
46940W        W13349   2.847  35.461  13.792
46941W        W13350  42.399  35.895   4.869
46942W        W13351   4.319  24.046  14.785
46943W        W13352   5.581  36.911  12.553
46944W        W13353  15.345  13.022   1.788
46945W        W13354  33.662  34.975   1.795
46946W        W13355  18.528  12.655   1.183
46947W        W13356  22.535  35.945   9.955
46948W        W13357  11.651   4.301   5.036
46949W        W13358  29.724   5.885   0.488
46950W        W13359  38.959  11.812   3.724
46951W        W13360  34.305  11.651  11.594
46952W        W13361  29.695  12.818   0.270
46953W        W13362  17.426  30.031  13.055
46954W        W13363  26.453  23.544  12.469
46955W        W13364  11.884   9.136  11.950
46956W        W13365   4.887  40.414  10.658
46957W        W13366  35.510  13.068   0.429
46958W        W13367  38.732   6.681   3.255
46959W        W13368  26.104  33.377   0.485
46960W        W13369  22.716  42.848   2.307
46961W        W13370  14.122  13.655   2.333
46962W        W13371   9.261  43.033   2.435
46963W        W13372  34.970  41.271   1.279
46964W        W13373  18.601  39.049  10.531
46965W        W13374   3.763  40.459  12.623
46966W        W13375  30.869  19.784   1.881
46967W        W13376  28.754  42.752   4.175
46968W        W13377  27.817  42.474  13.871
46969W        W13378  28.631  17.592   2.780
46970W        W13379   3.726  10.255   4.030
46971W        W13380  41.859   5.775  14.311
46972W        W13381   6.154  26.652   4.527
46973W        W13382  22.014   3.659   1.639
46974W        W13383  37.770  20.047  12.156
46975W        W13384  43.158  16.464  13.951
46976W        W13385  21.705  10.655  13.391
46977W        W13386  15.715  26.068   0.230
46978W        W13387  38.345  37.583  11.878
46979W        W13388  27.877  15.165   1.410
46980W        W13389   6.249   7.549   0.808
46981W        W13390  15.595  18.277   2.296
46982W        W13391   5.664  40.265   1.443
46983W        W13392   0.690  39.130  11.549
46984W        W13393  26.656  28.267   2.697
46985W        W13394   5.343  28.909  10.587
46986W        W13395  17.607  29.696   3.779
46987W        W13396  14.265  23.056  14.826
46988W        W13397  17.647  29.147   1.215
46989W        W13398   8.903  27.440  11.149
46990W        W13399  37.488  21.225   1.726
46991W        W13400  38.100   4.761  12.397
46992W        W13401  16.917  32.025   2.896
46993W        W13402  24.468   6.996  13.433
46994W        W13403   5.659  29.931   1.677
46995W        W13404   3.352  21.020   0.231
46996W        W13405  29.022  39.384  12.883
46997W        W13406  30.404  27.013  10.661
46998W        W13407  44.677  40.577  11.409
46999W        W13408  23.714  19.146   3.525
47000W        W13409   6.353   9.946   3.106
47001W        W13410  22.061  42.491   1.277
47002W        W13411  25.606  17.304   1.185
47003W        W13412  12.275  28.396   1.446
47004W        W13413  14.327   9.115   3.594
47005W        W13414  12.741   0.432  14.230
47006W        W13415  44.639  25.233  12.333
47007W        W13416   1.215  24.636  14.872
47008W        W13417   9.320  24.371   4.357
47009W        W13418  42.981  40.313  13.756
47010W        W13419   4.683  12.165  14.831
47011W        W13420  32.105  19.917   2.189
47012W        W13421  14.898  26.760  14.576
47013W        W13422  31.055  40.620   3.825
47014W        W13423  29.891  14.765   1.801
47015W        W13424  43.557   6.579  12.776
47016W        W13425  24.005  12.785  13.284
47017W        W13426  26.800  30.158   3.262
47018W        W13427  20.821  18.827  13.035
47019W        W13428  24.310  10.793   0.565
47020W        W13429  34.156  32.865   2.303
47021W        W13430   1.207  27.591  13.963
47022W        W13431  19.795   0.440  13.480
47023W        W13432  13.545  29.093   3.208
47024W        W13433   6.691  16.599  11.724
47025W        W13434  15.699  17.365  13.431
47026W        W13435  22.981   3.514   0.632
47027W        W13436  22.174  35.115  10.767
47028W        W13437  21.065  11.020  14.921
47029W        W13438  26.075   5.608   3.771
47030W        W13439  33.899  24.630  10.731
47031W        W13440  37.097   1.017   0.481
47032W        W13441  43.929  40.607  10.757
47033W        W13442  18.889  37.061   2.268
47034W        W13443   1.500  43.207   0.197
47035W        W13444  26.043  26.530  14.511
47036W        W13445  44.808  41.871   0.270
47037W        W13446   3.904   0.520  12.454
47038W        W13447  34.868  41.765   3.232
47039W        W13448   4.162  13.080  13.746
47040W        W13449  20.688  40.688  13.367
47041W        W13450   3.332  21.713   2.726
47042W        W13451  20.810  33.865  11.550
47043W        W13452  14.690   2.299  13.533
47044W        W13453   2.890  16.203  14.783
47045W        W13454  27.412   5.934  11.086
47046W        W13455  15.178   2.338   1.746
47047W        W13456  25.626  17.277  10.570
47048W        W13457  36.216  35.862  12.681
47049W        W13458  12.649   4.725   2.232
47050W        W13459  40.380  20.318  14.457
47051W        W13460  12.887  15.209  11.632
47052W        W13461  22.532  24.161  13.859
47053W        W13462  25.391  15.407   2.235
47054W        W13463  10.358   3.714   0.695
47055W        W13464  26.022   6.391  11.919
47056W        W13465   7.794  40.433   3.175
47057W        W13466   6.375  32.925  13.979
47058W        W13467  26.080   0.668  14.289
47059W        W13468  13.732   4.804   4.920
47060W        W13469  21.758  24.505  14.371
47061W        W13470  10.685  31.397   5.256
47062W        W13471  11.796   8.440   4.091
47063W        W13472  43.372   7.475  11.607
47064W        W13473  38.685  25.675   0.797
47065W        W13474  38.434  13.337  10.727
47066W        W13475  34.865   4.929   0.328
47067W        W13476  16.797  43.213  13.884
47068W        W13477  26.471  13.248   3.108
47069W        W13478  21.842   4.161   4.138
47070W        W13479  28.732  29.096   0.293
47071W        W13480  25.054  17.985  12.921
47072W        W13481  30.201  40.817  14.478
47073W        W13482  18.935  18.574  11.642
47074W        W13483  22.175  38.573  13.409
47075W        W13484  39.963  29.241  11.296
47076W        W13485  17.856  21.401  10.237
47077W        W13486  19.780  23.929  14.316
47078W        W13487   0.779   1.586  13.124
47079W        W13488  24.673  24.465  12.230
47080W        W13489  33.164   6.655  11.717
47081W        W13490   7.677  34.988  10.399
47082W        W13491   5.465   0.728   3.905
47083W        W13492  26.027   4.853  13.890
47084W        W13493  39.428  37.084   1.370
47085W        W13494  44.918  26.664   0.512
47086W        W13495  20.634   3.072  14.075
47087W        W13496  33.504  33.415  13.979
47088W        W13497  17.724  12.346  12.579
47089W        W13498  27.602   3.362  13.276
47090W        W13499  29.840   5.511   2.195
47091W        W13500  36.981  22.459  12.753
47092W        W13501  12.477  43.443   4.603
47093W        W13502  24.911  10.303  13.876
47094W        W13503  37.959  24.287  13.776
47095W        W13504  15.061  11.229   2.157
47096W        W13505   7.169  43.959  12.816
47097W        W13506  20.960  12.291   0.349
47098W        W13507  12.572   4.686  11.161
47099W        W13508  27.692   5.705  13.000
47100W        W13509  11.429  29.131   4.124
47101W        W13510  12.273  19.828   0.548
47102W        W13511  44.508  22.238   3.231
47103W        W13512  39.779  40.426   4.689
47104W        W13513  23.003  13.254   1.364
47105W        W13514  25.371  27.040  11.488
47106W        W13515  23.632  13.171  10.637
47107W        W13516  22.271   1.863   0.783
47108W        W13517  24.989  36.519   0.084
47109W        W13518  26.730  31.067  11.128
47110W        W13519   3.199  42.802   3.296
47111W        W13520  11.698  41.863   0.619
47112W        W13521  36.060  26.866   0.495
47113W        W13522  32.082  38.071   3.458
47114W        W13523   6.332  21.533   1.905
47115W        W13524  17.411  29.556   0.946
47116W        W13525  24.766  34.814  14.073
47117W        W13526  26.660   7.989  10.610
47118W        W13527  34.649  25.749   0.897
47119W        W13528  16.894  42.511  12.167
47120W        W13529  44.068  24.141  11.999
47121W        W13530   5.352  40.912   4.404
47122W        W13531  26.409   2.004  10.634
47123W        W13532  38.381  20.387  11.706
47124W        W13533   9.640  39.911   1.419
47125W        W13534  41.879  37.777   0.366
47126W        W13535  10.401  35.932   1.925
47127W        W13536  43.761  39.977  14.856
47128W        W13537   0.806  31.122  11.529
47129W        W13538  44.386  35.750   2.430
47130W        W13539  41.514  33.252   3.627
47131W        W13540  14.902  29.818   3.280
47132W        W13541   7.277  14.550   4.562
47133W        W13542  22.939  28.870  14.395
47134W        W13543  10.055  33.447  13.866
47135W        W13544   1.070  40.990   1.721
47136W        W13545   8.797   0.137   2.397
47137W        W13546  12.820  26.896  14.098
47138W        W13547  34.586  44.371  10.477
47139W        W13548   7.572  33.091   9.705
47140W        W13549  31.995  44.835   1.151
47141W        W13550  13.649  27.444   3.501
47142W        W13551  28.638  35.119   4.163
47143W        W13552  23.615  37.153   2.695
47144W        W13553  43.222  26.170   4.526
47145W        W13554  18.200  15.711   3.685
47146W        W13555   7.877  11.664  12.991
47147W        W13556   3.733  26.213  14.526
47148W        W13557   8.146   6.795  14.248
47149W        W13558  39.509  33.025   3.971
47150W        W13559  16.628  28.174   2.687
47151W        W13560  31.317   0.294   4.152
47152W        W13561  24.807   6.313  13.746
47153W        W13562   0.042  11.904   2.151
47154W        W13563  24.582  31.037   3.875
47155W        W13564   2.752   8.100   3.594
47156W        W13565   8.291   1.710   4.865
47157W        W13566  28.714   4.511  14.755
47158W        W13567  16.739  40.445  12.988
47159W        W13568   2.629  34.013  11.574
47160W        W13569   9.350  36.860   3.100
47161W        W13570  43.058   4.569   4.285
47162W        W13571   4.361  18.834  13.830
47163W        W13572  38.513   6.941   1.453
47164W        W13573   1.495  28.713   3.040
47165W        W13574   5.850  12.703  11.604
47166W        W13575  19.493  27.554  10.776
47167W        W13576  33.075  32.637  10.400
47168W        W13577  19.278  29.461   1.238
47169W        W13578  42.739  22.653   4.978
47170W        W13579  22.011  22.991   2.919
47171W        W13580  13.783  12.298  14.334
47172W        W13581   0.817  28.969  11.520
47173W        W13582  30.934  27.099  10.660
47174W        W13583   5.122   2.414  14.835
47175W        W13584  18.614  20.531  13.750
47176W        W13585  12.147  43.303   3.691
47177W        W13586   1.173  31.283   4.997
47178W        W13587  37.823  36.557   0.264
47179W        W13588  26.749  29.610  14.386
47180W        W13589  34.024  17.084   0.250
47181W        W13590  27.240  26.940  12.441
47182W        W13591  41.636   1.501   3.084
47183W        W13592  15.525  32.338  11.532
47184W        W13593  12.285  20.151  14.240
47185W        W13594  10.192  40.460   0.276
47186W        W13595   7.483   7.811  11.267
47187W        W13596  12.631   5.482  13.024
47188W        W13597  18.744  32.556  13.852
47189W        W13598  12.518  26.965   0.002
47190W        W13599  27.494  35.818   4.642
47191W        W13600   0.370  30.558  12.744
47192W        W13601  13.258  34.391  13.821
47193W        W13602  27.369  40.060  12.585
47194W        W13603   8.819  31.640  13.498
47195W        W13604  22.337   7.520  12.930
47196W        W13605  12.798  43.988   0.363
47197W        W13606  26.237  25.714   1.277
47198W        W13607  32.230   8.894  14.818
47199W        W13608  25.609   6.398   2.175
47200W        W13609   6.635  10.273  11.995
47201W        W13610   0.432  40.028  13.348
47202W        W13611  23.305  35.076   2.122
47203W        W13612  13.263  31.921  13.786
47204W        W13613  20.760   6.440   3.347
47205W        W13614   6.164  36.642   1.222
47206W        W13615  10.036  35.528   1.082
47207W        W13616  38.706  40.998  12.758
47208W        W13617  25.363  20.723  10.053
47209W        W13618  36.724   1.998  11.753
47210W        W13619  25.982   1.441  11.138
47211W        W13620   4.762  32.722  13.121
47212W        W13621  43.012  27.550  11.968
47213W        W13622  18.653  20.152   1.144
47214W        W13623   1.558  35.501   1.833
47215W        W13624   2.081  16.120   0.876
47216W        W13625  33.464  24.913  10.687
47217W        W13626  28.822  38.471   4.491
47218W        W13627   3.518   9.692  14.059
47219W        W13628  10.605  34.350  13.313
47220W        W13629   0.501  24.778   4.141
47221W        W13630  28.624   2.656   4.236
47222W        W13631  43.560  18.948  11.513
47223W        W13632  42.005  14.107  12.192
47224W        W13633  36.826   0.039   4.136
47225W        W13634  39.543   5.512  13.934
47226W        W13635  10.691  33.600   1.759
47227W        W13636  32.662   7.482  11.364
47228W        W13637   3.548   7.815   2.409
47229W        W13638  26.939  30.868  14.929
47230W        W13639  22.064  25.034   1.140
47231W        W13640   2.652  22.288  12.970
47232W        W13641  31.655   5.499   1.173
47233W        W13642  37.989  28.262   0.270
47234W        W13643  15.665  38.297   0.779
47235W        W13644  12.797  15.440  12.098
47236W        W13645  33.026  37.895  11.736
47237W        W13646  23.125  36.787  12.547
47238W        W13647   4.269   2.960  13.417
47239W        W13648  10.569  16.773   1.438
47240W        W13649   2.399   0.557  14.398
47241W        W13650  27.249  23.419   5.140
47242W        W13651   9.185  21.011   4.806
47243W        W13652   0.591  20.767   3.650
47244W        W13653  21.566   9.647   3.140
47245W        W13654  10.630  37.631  12.532
47246W        W13655   1.808  42.869  10.981
47247W        W13656  27.533   2.248   1.232
47248W        W13657  26.204   6.261  10.571
47249W        W13658  21.555  10.440  12.955
47250W        W13659  12.658  22.523   0.439
47251W        W13660  34.205  35.743  11.495
47252W        W13661   5.686  18.591  12.754
47253W        W13662  41.840  29.452   1.849
47254W        W13663  14.618  15.515   1.855
47255W        W13664  12.022  30.008  11.117
47256W        W13665  20.044  26.788   4.217
47257W        W13666  39.643  44.485  12.535
47258W        W13667  14.308  15.640  12.524
47259W        W13668   6.422   4.936  13.978
47260W        W13669  39.447   8.878  10.832
47261W        W13670  27.974  12.434   5.371
47262W        W13671   3.769  15.774  12.592
47263W        W13672  24.674  38.642  13.370
47264W        W13673  27.048  36.101   4.872
47265W        W13674  23.718  37.598   3.688
47266W        W13675  39.797  34.123   1.345
47267W        W13676   3.261  24.882   2.106
47268W        W13677  23.555   3.695   1.449
47269W        W13678   2.889   1.747  13.603
47270W        W13679  30.886  39.641  14.925
47271W        W13680  24.975   5.455   2.748
47272W        W13681   5.682  15.588   2.825
47273W        W13682  23.792  28.529  12.486
47274W        W13683  32.843  44.261   0.386
47275W        W13684  26.016  25.321  10.689
47276W        W13685   8.388  10.624   3.196
47277W        W13686  11.181  35.586   4.287
47278W        W13687  12.226  27.443  13.371
47279W        W13688  36.833  36.453   0.770
47280W        W13689  13.696  35.847   0.454
47281W        W13690  14.048   8.615   4.440
47282W        W13691   5.313  41.356   2.656
47283W        W13692  33.955  30.874   3.274
47284W        W13693  28.991  43.807  12.765
47285W        W13694  13.849   2.125   4.973
47286W        W13695  43.134   3.310   4.075
47287W        W13696  32.574  28.884  12.140
47288W        W13697  13.607  39.879  14.010
47289W        W13698  13.188   1.782  13.972
47290W        W13699   3.293   9.348   2.256
47291W        W13700  23.581  23.227  10.416
47292W        W13701  29.902  39.941  12.927
47293W        W13702  39.061   4.521  11.594
47294W        W13703   6.759  43.598  12.180
47295W        W13704  41.010  16.854   4.968
47296W        W13705  36.481  15.672   0.391
47297W        W13706  19.007  17.680   1.377
47298W        W13707  32.944  22.927  13.532
47299W        W13708   0.385  21.259   4.752
47300W        W13709  13.044  27.077   1.293
47301W        W13710  34.651  17.328  10.741
47302W        W13711  33.052   0.846  14.957
47303W        W13712   7.969  23.807  14.197
47304W        W13713  40.422  43.231  11.558
47305W        W13714   1.383  11.678  11.491
47306W        W13715  39.334  37.393   2.221
47307W        W13716  10.741  12.774  11.697
47308W        W13717   8.189   0.062  12.797
47309W        W13718  20.643  14.737  13.331
47310W        W13719  41.924  22.110  12.864
47311W        W13720  42.160  16.131   3.371
47312W        W13721  19.133  26.431   4.437
47313W        W13722  23.197  40.860  13.390
47314W        W13723   5.454  25.026   3.160
47315W        W13724  11.939   4.774   0.887
47316W        W13725  17.120   9.466   2.680
47317W        W13726  23.640   5.904   4.138
47318W        W13727  38.322  25.669   1.188
47319W        W13728  27.616  33.881   4.292
47320W        W13729  10.762   7.851   0.433
47321W        W13730  22.230  19.261   0.037
47322W        W13731  16.960  31.626  12.019
47323W        W13732  21.640  36.676   0.512
47324W        W13733  42.460  30.488  14.404
47325W        W13734  31.377  14.911  12.034
47326W        W13735  30.631   5.824  13.585
47327W        W13736  12.862  38.438  11.087
47328W        W13737  30.352   6.184  12.796
47329W        W13738  12.898  32.416  14.352
47330W        W13739  21.783  36.058   3.197
47331W        W13740  22.235  37.017  14.928
47332W        W13741  29.040  23.960   0.187
47333W        W13742  11.299   6.224  11.563
47334W        W13743  18.036  17.076  13.940
47335W        W13744   3.930  36.863  12.963
47336W        W13745  43.910  13.158  10.683
47337W        W13746  10.250  17.492   3.753
47338W        W13747  31.512  15.613   0.387
47339W        W13748   5.942  21.560   0.363
47340W        W13749  26.714  19.201   4.539
47341W        W13750  17.571   5.248   1.167
47342W        W13751  15.862  10.841  14.475
47343W        W13752   1.008   0.717   4.795
47344W        W13753  39.989  13.290   3.604
47345W        W13754  10.342  25.676   0.808
47346W        W13755  24.249   1.957   0.012
47347W        W13756  43.733  32.272  13.624
47348W        W13757  43.664  28.662  13.376
47349W        W13758  13.777  22.736  12.393
47350W        W13759   6.243  42.990  13.326
47351W        W13760  15.568   6.334   0.786
47352W        W13761   5.326  26.316   4.655
47353W        W13762   1.916  42.967   3.327
47354W        W13763  31.217  44.362   2.898
47355W        W13764  28.627  44.051  13.040
47356W        W13765  17.746  36.473  10.787
47357W        W13766   9.156   6.799  12.048
47358W        W13767   0.832  23.194  10.681
47359W        W13768  22.316  34.935   3.834
47360W        W13769  44.573   3.808   4.866
47361W        W13770   7.617  19.565   4.227
47362W        W13771   6.867  13.250  12.073
47363W        W13772  28.541  15.597   0.456
47364W        W13773  23.133  40.247  11.693
47365W        W13774   0.333  41.934   0.362
47366W        W13775   7.433  14.715  14.417
47367W        W13776   0.959   7.741  11.883
47368W        W13777  15.623  31.005   4.975
47369W        W13778  44.013  13.288  10.203
47370W        W13779  25.448  33.904  14.835
47371W        W13780  18.642  26.538   0.789
47372W        W13781  24.240  37.026   3.189
47373W        W13782  34.663   6.271  11.515
47374W        W13783  14.255  29.531   2.911
47375W        W13784  36.959  43.465  11.194
47376W        W13785  33.979  12.772   4.066
47377W        W13786  12.047   6.195   3.660
47378W        W13787   3.532  15.370  12.848
47379W        W13788   9.954  19.713   5.086
47380W        W13789   8.810  26.553   4.322
47381W        W13790  33.041  42.414   4.667
47382W        W13791  42.362  42.198   1.693
47383W        W13792  38.033   4.256   0.894
47384W        W13793  15.626  16.125  14.503
47385W        W13794  15.780  17.230   5.053
47386W        W13795  35.991   4.867  14.777
47387W        W13796  40.257  16.094   0.377
47388W        W13797  18.731   2.823   1.173
47389W        W13798  12.271  29.908   3.910
47390W        W13799  29.653  34.516   1.365
47391W        W13800  44.926   2.314   4.234
47392W        W13801   9.160  21.516   1.409
47393W        W13802   7.023   7.260  13.788
47394W        W13803  31.093  12.848   2.681
47395W        W13804  24.672   0.053   4.158
47396W        W13805  16.566  44.747  10.787
47397W        W13806  44.919  43.270  14.525
47398W        W13807   7.422  34.465  12.595
47399W        W13808  18.053  25.494   1.994
47400W        W13809  41.073  15.570   0.389
47401W        W13810  37.718  33.914   1.787
47402W        W13811   8.913  42.981   2.823
47403W        W13812  13.538  40.473  14.251
47404W        W13813  12.610  25.080  11.052
47405W        W13814  39.639  41.881   0.873
47406W        W13815  38.003  12.041   4.558
47407W        W13816  44.430  37.781   4.572
47408W        W13817  38.387  26.237   4.933
47409W        W13818  42.362  39.406   2.180
47410W        W13819   1.817  44.442   1.473
47411W        W13820   2.804   0.309   4.794
47412W        W13821  27.834  42.812   4.728
47413W        W13822  44.407  31.668  14.017
47414W        W13823  36.487  27.210  10.509
47415W        W13824  31.798  27.538   4.983
47416W        W13825   5.657   3.133  13.522
47417W        W13826  40.490   9.349  13.027
47418W        W13827  44.942   1.260  12.553
47419W        W13828  21.283   3.450  10.627
47420W        W13829  16.720  19.612   1.036
47421W        W13830  27.521  35.420   3.054
47422W        W13831   4.109  44.473  14.716
47423W        W13832   7.732   6.738  12.245
47424W        W13833   8.324  29.113  14.030
47425W        W13834  30.887  14.115   4.709
47426W        W13835  12.819  42.602  14.386
47427W        W13836  19.139  22.991  13.339
47428W        W13837  26.939  31.527  14.317
47429W        W13838  34.964  37.980  13.154
47430W        W13839  29.798  19.637  11.478
47431W        W13840   9.049  26.982   2.780
47432W        W13841  13.301  30.494  13.748
47433W        W13842  22.489  44.416  12.624
47434W        W13843  29.844  33.983  14.260
47435W        W13844   3.746  41.682   0.674
47436W        W13845  19.371   0.344   3.216
47437W        W13846  18.290  36.533  13.561
47438W        W13847  41.360  13.064   4.647
47439W        W13848  15.868  26.180   1.275
47440W        W13849  17.092  25.186   4.575
47441W        W13850   2.375  16.440  11.597
47442W        W13851   1.006  28.912   3.112
47443W        W13852  44.628   0.219  14.477
47444W        W13853  16.577  20.418   1.697
47445W        W13854  24.230   7.158  14.290
47446W        W13855  16.406  35.324   4.366
47447W        W13856  29.545  29.631   1.439
47448W        W13857  16.702  33.822  13.091
47449W        W13858  24.641   1.703  12.027
47450W        W13859  31.392  16.781   0.849
47451W        W13860   5.118  20.585   1.756
47452W        W13861   8.472  38.125  14.377
47453W        W13862  36.288  36.564   1.610
47454W        W13863   6.388  23.151   4.939
47455W        W13864  23.773   8.731   0.373
47456W        W13865  17.032  41.301  14.011
47457W        W13866  25.616  14.060   1.624
47458W        W13867  14.227  42.510  11.212
47459W        W13868   9.967   5.891  11.046
47460W        W13869   1.350   4.767  10.221
47461W        W13870  28.456  20.908   2.228
47462W        W13871  25.436  29.914   0.910
47463W        W13872  43.794  15.581   3.178
47464W        W13873   3.939   0.970  10.339
47465W        W13874   6.423  26.587  12.430
47466W        W13875   8.231   1.863   3.372
47467W        W13876   4.295  27.077   4.061
47468W        W13877  34.172  27.830  10.937
47469W        W13878  26.839  31.973   2.784
47470W        W13879  28.266  41.892  11.445
47471W        W13880  19.718   4.914  11.162
47472W        W13881  38.803  11.102   2.318
47473W        W13882  44.243  37.406  12.038
47474W        W13883  28.709  25.725   4.671
47475W        W13884   0.441   4.893   4.892
47476W        W13885  23.880   3.891  12.425
47477W        W13886  20.345   4.467   4.100
47478W        W13887  23.616  42.450   1.955
47479W        W13888  35.704  26.610  10.644
47480W        W13889   3.526   7.643   0.474
47481W        W13890   6.210  11.227   2.391
47482W        W13891   5.257  26.484   4.182
47483W        W13892  28.522   8.548   0.581
47484W        W13893  10.103  22.312  10.016
47485W        W13894  33.914   2.250   2.735
47486W        W13895  28.878  14.041   0.852
47487W        W13896  15.673  22.450   2.081
47488W        W13897  39.936  42.296  13.508
47489W        W13898  44.510   5.206   2.306
47490W        W13899   9.859  36.608  11.919
47491W        W13900  37.114  28.787  14.441
47492W        W13901  35.837   1.934   2.593
47493W        W13902  31.558  35.939   4.081
47494W        W13903   4.003  37.329   1.292
47495W        W13904  22.150   8.590   3.348
47496W        W13905   8.112  22.043  14.297
47497W        W13906  12.225  40.532  12.433
47498W        W13907  17.520  21.080  10.603
47499W        W13908  25.048   5.803  11.858
47500W        W13909   4.511  16.705  13.599
47501W        W13910   2.996   1.005   2.455
47502W        W13911   0.860  33.097   0.031
47503W        W13912  14.181  27.477  10.741
47504W        W13913   6.552   5.684  10.584
47505W        W13914  30.572  32.917  11.587
47506W        W13915  41.511  26.623   3.567
47507W        W13916  41.521   6.716  10.686
47508W        W13917  41.992   7.199  14.504
47509W        W13918  44.295  17.174  13.813
47510W        W13919  21.622  20.958  12.252
47511W        W13920  27.464  24.052   1.454
47512W        W13921   7.547  22.164  10.722
47513W        W13922  17.607  10.403   1.828
47514W        W13923  26.161   0.142   4.923
47515W        W13924  37.591  29.001  12.949
47516W        W13925  32.848  36.811  12.821
47517W        W13926   3.448  38.895  11.528
47518W        W13927  42.342  32.841   1.244
47519W        W13928   7.013  29.093   4.318
47520W        W13929  38.619  22.213   5.057
47521W        W13930  17.466  29.987   1.236
47522W        W13931  18.978  40.489   3.112
47523W        W13932  32.495   0.749   3.677
47524W        W13933  32.092  33.519  14.928
47525W        W13934  27.387  44.210   4.929
47526W        W13935  31.681  10.150  12.606
47527W        W13936  38.354  12.569   0.415
47528W        W13937  28.757  15.766   3.174
47529W        W13938  44.259  25.995  11.154
47530W        W13939  35.808  19.309   4.184
47531W        W13940  31.582  13.663   4.598
47532W        W13941  11.139  20.714  13.952
47533W        W13942  30.243   1.630   2.811
47534W        W13943  30.243  17.328   1.998
47535W        W13944  17.800   0.281  12.095
47536W        W13945  12.896  16.329  13.858
47537W        W13946   0.812  32.595  14.037
47538W        W13947  20.166  33.650  12.568
47539W        W13948  10.732  30.068  11.550
47540W        W13949   1.979  33.438  11.577
47541W        W13950  23.462  32.484  14.560
47542W        W13951  23.578   0.785   0.648
47543W        W13952  30.236  18.609  12.079
47544W        W13953  10.923  30.164   2.206
47545W        W13954  37.996  37.690  14.463
47546W        W13955  24.249   0.245   3.257
47547W        W13956  35.636  43.221  11.631
47548W        W13957   0.007  29.357  12.562
47549W        W13958  13.459  24.584  10.980
47550W        W13959  40.296   5.676  14.526
47551W        W13960  28.994  22.050   2.876
47552W        W13961  22.947  15.339  14.814
47553W        W13962   6.082  26.170   0.245
47554W        W13963  23.876  38.950  14.041
47555W        W13964  22.655  15.882   0.334
47556W        W13965  41.930  10.216  13.338
47557W        W13966  11.585   9.688  12.073
47558W        W13967  12.816  14.938  12.120
47559W        W13968  41.832  22.266  10.903
47560W        W13969   3.270  22.725  13.729
47561W        W13970   1.957  43.419  12.035
47562W        W13971   9.213   2.671  12.818
47563W        W13972   6.185  28.585   0.465
47564W        W13973  10.913   4.923  14.945
47565W        W13974   0.022  12.616  12.414
47566W        W13975  43.252   2.512  12.049
47567W        W13976   9.249   5.436   1.355
47568W        W13977  19.836  25.872  11.162
47569W        W13978  31.891  39.430   3.735
47570W        W13979   9.427  29.995   3.670
47571W        W13980   4.443   1.171   2.653
47572W        W13981   6.249  22.587   3.192
47573W        W13982  35.866  22.185   1.824
47574W        W13983   4.473  34.703  14.559
47575W        W13984   7.898  34.459  13.942
47576W        W13985  42.268  41.694   1.743
47577W        W13986   0.119  10.511   4.506
47578W        W13987  39.294   7.356   0.976
47579W        W13988  44.486  11.734  13.096
47580W        W13989  29.190  22.949  12.859
47581W        W13990  12.777  38.048  14.385
47582W        W13991  23.807  28.579   4.503
47583W        W13992  22.823  35.970   4.684
47584W        W13993  20.032  12.851   5.242
47585W        W13994   6.179  28.299  14.485
47586W        W13995  34.023  20.446   1.792
47587W        W13996  37.779  39.468   0.376
47588W        W13997  21.635  17.338  13.345
47589W        W13998  15.336  26.275   2.651
47590W        W13999   9.285   6.208  13.797
47591W        W14000  19.000  24.564  13.607
47592W        W14001  31.200  24.632   0.737
47593W        W14002  16.986   4.760  14.828
47594W        W14003  29.133  26.890   2.418
47595W        W14004  29.673  36.305  10.740
47596W        W14005  11.173  37.402  13.477
47597W        W14006  35.850  35.865  11.144
47598W        W14007  22.623  34.521   3.767
47599W        W14008  23.685  30.955  13.772
47600W        W14009   6.660  21.057   4.833
47601W        W14010  38.341   7.777  12.257
47602W        W14011   3.053  26.654  10.468
47603W        W14012   0.454  26.697   0.548
47604W        W14013   6.104  11.676   2.644
47605W        W14014  33.105  22.299  12.229
47606W        W14015   1.757   8.823  10.340
47607W        W14016  12.427  20.569  14.509
47608W        W14017  45.000  28.375   4.508
47609W        W14018   4.398  16.440  14.051
47610W        W14019  20.215  15.388  11.563
47611W        W14020  13.950  39.195   3.756
47612W        W14021   0.490   7.062   0.958
47613W        W14022  11.085   4.196   2.771
47614W        W14023  12.857  26.926   2.872
47615W        W14024  31.402  20.951   1.493
47616W        W14025  13.181  13.430   1.306
47617W        W14026   5.429  13.662   2.940
47618W        W14027  17.153   4.755   5.123
47619W        W14028  12.005  10.366   9.964
47620W        W14029  32.194  24.560  11.153
47621W        W14030  18.278  20.710  11.594
47622W        W14031  16.336  14.634  13.225
47623W        W14032  27.008  17.132   1.237
47624W        W14033  26.531  26.503   4.367
47625W        W14034  23.043  12.324  10.646
47626W        W14035  37.571  42.815  13.379
47627W        W14036  15.239  26.217   0.070
47628W        W14037  24.716   1.059  12.590
47629W        W14038  35.867  16.343   3.720
47630W        W14039  12.671  26.693  14.551
47631W        W14040  24.790   5.709  10.678
47632W        W14041  34.177  25.536  11.607
47633W        W14042   3.684  38.767   0.649
47634W        W14043  26.114   8.656   0.326
47635W        W14044  22.187  33.119  11.664
47636W        W14045  11.785  42.164  10.782
47637W        W14046   2.843  24.025   0.243
47638W        W14047   3.396  38.700  13.681
47639W        W14048  22.789  43.998  11.943
47640W        W14049  32.128   9.329  11.195
47641W        W14050  30.992  23.463   9.898
47642W        W14051  37.873   8.851   2.204
47643W        W14052  33.689  33.692  14.903
47644W        W14053   1.324  19.360   0.360
47645W        W14054  11.116  38.140   3.148
47646W        W14055  23.338  25.595  11.056
47647W        W14056  12.349  25.488  14.835
47648W        W14057  19.874  15.600   2.955
47649W        W14058  22.874   6.417  13.872
47650W        W14059   7.288   7.257  14.238
47651W        W14060  13.356  26.646  12.525
47652W        W14061  34.869  20.203   1.691
47653W        W14062  35.022  32.562   4.256
47654W        W14063  20.650   7.667   1.294
47655W        W14064  15.610  25.209  12.059
47656W        W14065   4.716  26.138  13.896
47657W        W14066  43.297  13.829   0.030
47658W        W14067  30.558   3.924  11.097
47659W        W14068  21.742  40.890   3.211
47660W        W14069  42.043  25.099   4.107
47661W        W14070  28.461  21.562   3.819
47662W        W14071   4.309  38.531   1.763
47663W        W14072  11.174  26.880  13.057
47664W        W14073   3.395  28.455   2.809
47665W        W14074  22.291   2.966   4.698
47666W        W14075  39.040  22.023   3.188
47667W        W14076  30.633  11.673  11.005
47668W        W14077  18.762  29.004   0.296
47669W        W14078  24.522  26.608   2.498
47670W        W14079  12.116  29.753  11.579
47671W        W14080  15.472   3.059  12.599
47672W        W14081  13.308  21.801  10.306
47673W        W14082  19.064   2.690  14.873
47674W        W14083  35.469  31.771   4.774
47675W        W14084  15.660  13.392   1.965
47676W        W14085   5.224  39.352   3.900
47677W        W14086   1.527  15.871  14.799
47678W        W14087  18.264  19.043   4.475
47679W        W14088  18.708   4.449   1.678
47680W        W14089  15.635  20.981  12.797
47681W        W14090  35.888  21.976  13.441
47682W        W14091  38.862  33.041  14.051
47683W        W14092  13.783  38.505  12.423
47684W        W14093  16.707   7.615   1.166
47685W        W14094  21.213  18.995  13.950
47686W        W14095  41.069  21.171   1.329
47687W        W14096   1.841  42.738   3.778
47688W        W14097   1.913  13.319   2.436
47689W        W14098   0.926  37.985   1.776
47690W        W14099  28.046   4.643   1.876
47691W        W14100  19.260  40.415  10.736
47692W        W14101  20.753  24.299  14.326
47693W        W14102  14.572   6.239   0.853
47694W        W14103  33.758  39.570   3.642
47695W        W14104  27.513   0.091   2.828
47696W        W14105   8.815  27.424   0.923
47697W        W14106  29.934  21.916  13.859
47698W        W14107  29.993  21.995   0.973
47699W        W14108  43.996  13.545   4.488
47700W        W14109  41.908  42.939   4.500
47701W        W14110  34.553  34.993  11.561
47702W        W14111  16.496   7.297   3.193
47703W        W14112   6.527   3.440  11.504
47704W        W14113  27.084  22.073   2.990
47705W        W14114  33.443  30.023  13.339
47706W        W14115   0.327  29.347  12.104
47707W        W14116  37.609  29.151  13.836
47708W        W14117  35.124  32.109  13.318
47709W        W14118  17.008  33.146  11.122
47710W        W14119  42.684  20.254  12.959
47711W        W14120  29.471  18.054   1.168
47712W        W14121  29.359  30.447  12.479
47713W        W14122   7.742   6.172  12.556
47714W        W14123  16.180  44.033   1.104
47715W        W14124  10.638   4.534  14.043
47716W        W14125  30.895  42.808  13.883
47717W        W14126  42.406  42.570   0.250
47718W        W14127  16.606  20.624  14.886
47719W        W14128   9.105  23.084   3.829
47720W        W14129  22.835  15.500  11.543
47721W        W14130  27.037  15.624  14.416
47722W        W14131   1.711  38.374   3.550
47723W        W14132  24.570  31.860  12.521
47724W        W14133  37.065  31.217   1.152
47725W        W14134  40.268  32.309   2.781
47726W        W14135  11.810  25.662  11.265
47727W        W14136  11.634  32.893   0.690
47728W        W14137  27.092  18.558  14.415
47729W        W14138   7.222  44.323  11.658
47730W        W14139   9.818  44.975   4.578
47731W        W14140  37.798   0.069  13.277
47732W        W14141  30.042  14.189   3.910
47733W        W14142  41.066  18.272   3.259
47734W        W14143  25.130  44.761   1.326
47735W        W14144  38.587  26.074  13.547
47736W        W14145   2.278  32.564   4.374
47737W        W14146  39.681  10.745  11.101
47738W        W14147  10.394  10.022  10.328
47739W        W14148  30.691  22.249   3.751
47740W        W14149  11.410   5.774   0.981
47741W        W14150  13.426  26.117   2.290
47742W        W14151  29.063  33.824  12.326
47743W        W14152  36.413  23.497  14.351
47744W        W14153  36.580  38.489   1.208
47745W        W14154  21.610  38.149   0.237
47746W        W14155  25.677  43.011   3.076
47747W        W14156  28.875  22.367  14.972
47748W        W14157  25.540  41.183  14.880
47749W        W14158   5.378   8.101  11.752
47750W        W14159  43.395  33.489   1.906
47751W        W14160  27.989  12.217  10.743
47752W        W14161  14.165  10.854  13.540
47753W        W14162  30.767  31.867   2.688
47754W        W14163  30.412  38.283   0.889
47755W        W14164   6.485  22.749   3.702
47756W        W14165  40.592  22.710  14.642
47757W        W14166  22.451  16.790   4.171
47758W        W14167   3.651  32.561  11.140
47759W        W14168   2.396  10.852   4.099
47760W        W14169  21.738  41.141  11.046
47761W        W14170  31.311  43.377  11.650
47762W        W14171  42.582  31.961   1.375
47763W        W14172   0.904  28.033   1.150
47764W        W14173  41.983  26.647   3.311
47765W        W14174   9.464   6.435   3.731
47766W        W14175  34.913  23.047  11.396
47767W        W14176  20.349   5.847   2.763
47768W        W14177  32.533  24.477   2.735
47769W        W14178   8.695  20.998  12.328
47770W        W14179  15.130   6.718  14.910
47771W        W14180  33.529  40.495  12.408
47772W        W14181  12.892  39.116  12.382
47773W        W14182  18.312  26.165  14.050
47774W        W14183  31.005  38.974  10.353
47775W        W14184   1.392  32.374  14.840
47776W        W14185  30.830  33.356   0.817
47777W        W14186   5.768  41.420  13.369
47778W        W14187  43.833  25.679  11.123
47779W        W14188  26.929  35.019   1.989
47780W        W14189  25.006  38.572   5.030
47781W        W14190  35.455   8.838  12.042
47782W        W14191  31.623  25.625   2.324
47783W        W14192  33.047  24.895  14.811
47784W        W14193  25.256   8.281   3.674
47785W        W14194   6.899   7.206   1.879
47786W        W14195  11.660  30.562   1.748
47787W        W14196  23.700  11.595  12.873
47788W        W14197   5.124   6.484  11.901
47789W        W14198  24.475  26.596  12.399
47790W        W14199  38.930  27.869   0.448
47791W        W14200  17.010   3.412  14.236
47792W        W14201  19.079  23.640  13.059
47793W        W14202  40.915  31.960   4.801
47794W        W14203   0.241  27.155   1.795
47795W        W14204  42.931   3.210   2.618
47796W        W14205  44.282   6.171   1.734
47797W        W14206   3.810  10.703   0.263
47798W        W14207  29.541  42.482   3.353
47799W        W14208  14.693  18.422  11.962
47800W        W14209  27.500  22.012  13.126
47801W        W14210  16.167   4.962  12.081
47802W        W14211  12.773  25.622  14.522
47803W        W14212  37.207  35.668  12.945
47804W        W14213  24.016  27.649   3.423
47805W        W14214   9.927  22.508   1.272
47806W        W14215  24.684  32.586  14.998
47807W        W14216   8.722  18.192  14.033
47808W        W14217   5.291  41.028  13.000
47809W        W14218   7.152   2.586   4.645
47810W        W14219  10.611  17.034  11.749
47811W        W14220  39.055  10.573  13.375
47812W        W14221  11.301  13.536   3.753
47813W        W14222   0.168  40.336  12.341
47814W        W14223  38.776  41.777  10.651
47815W        W14224  35.059  35.844   0.299
47816W        W14225  11.893  19.108   1.756
47817W        W14226  40.271   7.791   2.203
47818W        W14227  17.265  27.076   2.566
47819W        W14228  41.867  35.071   2.425
47820W        W14229  11.682  28.455   2.657
47821W        W14230  22.542  38.481  14.067
47822W        W14231  27.935  41.366  14.283
47823W        W14232  39.829   7.766   1.266
47824W        W14233  44.782  22.876   1.662
47825W        W14234  41.421   1.272  13.530
47826W        W14235  11.704  44.230  10.098
47827W        W14236  36.302  16.831   0.455
47828W        W14237  39.415   4.836   4.521
47829W        W14238  27.288   2.969  13.070
47830W        W14239  12.867  31.581   2.585
47831W        W14240  35.495   2.794  14.258
47832W        W14241  38.360  43.394  14.813
47833W        W14242  20.718  43.195   4.619
47834W        W14243  37.430  38.608   3.247
47835W        W14244  24.497  15.648  14.104
47836W        W14245   6.686   5.978   4.133
47837W        W14246  33.142   6.138   3.322
47838W        W14247  35.358  17.908  13.230
47839W        W14248  24.922  24.170  12.977
47840W        W14249  28.379  34.687   4.850
47841W        W14250  31.991   3.762   2.216
47842W        W14251  23.198   3.028   2.660
47843W        W14252   9.455   5.186   0.892
47844W        W14253   1.784   1.205   1.585
47845W        W14254  29.843  42.210  14.825
47846W        W14255   2.847  44.052   3.992
47847W        W14256   4.083  38.990  14.437
47848W        W14257  23.031  32.105  10.370
47849W        W14258  15.605  31.478   0.205
47850W        W14259  21.863  20.474  13.797
47851W        W14260  34.248  33.865  13.281
47852W        W14261  38.288  28.092   1.226
47853W        W14262  29.455   5.137   2.275
47854W        W14263  27.624  33.654  14.279
47855W        W14264  38.639   6.882   0.504
47856W        W14265  33.044  19.044   2.786
47857W        W14266  12.824  23.705   0.835
47858W        W14267  32.956   5.283   5.016
47859W        W14268  29.005  14.549  14.899
47860W        W14269  22.086   2.173   0.414
47861W        W14270  23.428  23.573   3.571
47862W        W14271  44.764  41.000   3.613
47863W        W14272  41.875  11.523  10.647
47864W        W14273  39.356  12.799  12.245
47865W        W14274  40.969  10.728   0.370
47866W        W14275  43.980  39.180   2.907
47867W        W14276  33.065  31.433  11.643
47868W        W14277  44.836  14.229   3.309
47869W        W14278  31.772  34.515  10.773
47870W        W14279   5.246  18.826   2.127
47871W        W14280   6.250  14.799   4.592
47872W        W14281  28.150   4.159   3.214
47873W        W14282  44.870  10.957   3.258
47874W        W14283  30.113  17.021  14.582
47875W        W14284  16.829   6.501   4.879
47876W        W14285  41.842   3.353  10.985
47877W        W14286  39.518  39.370  10.873
47878W        W14287  16.441  26.691   0.808
47879W        W14288   2.677  29.067  14.481
47880W        W14289   2.493  19.806  11.151
47881W        W14290   9.176   4.218  11.191
47882W        W14291   4.810  12.615   1.229
47883W        W14292  28.086  31.049   4.923
47884W        W14293  10.165   8.783  10.822
47885W        W14294  17.153   5.240   4.347
47886W        W14295  31.635  42.587  13.528
47887W        W14296  41.587  10.678   4.582
47888W        W14297   8.241   3.759  13.338
47889W        W14298  24.706   0.073  13.784
47890W        W14299  21.574   5.452  12.498
47891W        W14300  37.180  32.380  12.133
47892W        W14301  31.606  21.476   3.268
47893W        W14302  11.402  38.541  14.482
47894W        W14303  37.291  37.983   1.393
47895W        W14304  16.714  22.181   4.959
47896W        W14305  35.075  33.582  14.297
47897W        W14306   7.832  44.405   2.214
47898W        W14307  38.992  36.749  10.674
47899W        W14308  12.784  32.721  13.929
47900W        W14309  40.333  27.755  14.972
47901W        W14310   9.850  16.006   0.860
47902W        W14311  35.426  22.233   0.015
47903W        W14312  12.291  15.586   1.936
47904W        W14313   2.732  37.070   1.054
47905W        W14314   9.800   0.298  10.841
47906W        W14315  34.436   5.209   1.987
47907W        W14316   8.253  25.651   1.733
47908W        W14317  23.104  15.309   1.160
47909W        W14318   7.901   5.901   1.309
47910W        W14319  20.449  18.562   0.220
47911W        W14320  21.201  10.163  10.030
47912W        W14321   7.187  22.311   4.639
47913W        W14322   7.747  37.168  12.432
47914W        W14323  41.545   6.334  13.434
47915W        W14324  21.764   6.447  11.967
47916W        W14325  16.898  43.380  11.845
47917W        W14326  35.138  20.539  12.372
47918W        W14327  40.418  11.298  12.398
47919W        W14328  13.171   8.498   0.547
47920W        W14329   0.519  13.789  13.928
47921W        W14330  23.214   1.644  13.514
47922W        W14331  14.169  41.615   3.670
47923W        W14332  24.979  15.765   1.262
47924W        W14333  44.505  27.715   2.798
47925W        W14334  26.722  44.474  10.304
47926W        W14335  37.015  16.592  11.485
47927W        W14336   7.624   8.399  13.005
47928W        W14337  18.800   0.976  11.627
47929W        W14338  37.571   3.730   4.524
47930W        W14339  16.125  40.974  14.864
47931W        W14340   6.738  39.407   2.347
47932W        W14341  35.436  20.539  13.909
47933W        W14342   1.908  43.781   3.768
47934W        W14343   7.402  29.330   3.725
47935W        W14344  30.476  31.153   0.394
47936W        W14345  10.820  28.040   0.970
47937W        W14346  42.087  40.464  13.994
47938W        W14347  38.191   4.340   0.395
47939W        W14348  40.782  14.730  11.832
47940W        W14349  11.583  28.068  12.109
47941W        W14350  13.197  10.324  10.684
47942W        W14351  15.586  13.666   4.633
47943W        W14352  16.692  23.126   3.110
47944W        W14353  15.276  34.621  11.940
47945W        W14354  30.611  20.322   2.233
47946W        W14355  34.436   0.821  13.048
47947W        W14356  44.409  25.128  14.656
47948W        W14357  13.792  35.135  13.423
47949W        W14358  23.240   4.700  12.138
47950W        W14359  39.720   1.663   3.236
47951W        W14360  31.127   6.220   2.799
47952W        W14361  37.132  30.408  10.547
47953W        W14362  41.713  26.326  12.545
47954W        W14363   7.939  38.883  11.113
47955W        W14364  36.719  26.669   1.844
47956W        W14365  15.049  11.103  13.073
47957W        W14366  32.969  31.146  14.173
47958W        W14367  26.989  27.658  13.021
47959W        W14368  16.084  24.553  12.427
47960W        W14369  37.558  20.878   4.410
47961W        W14370  22.848   6.345  10.049
47962W        W14371   2.061  32.520  14.452
47963W        W14372  14.491  42.463  14.151
47964W        W14373  12.280  34.548   4.541
47965W        W14374  28.227  19.209   1.499
47966W        W14375  18.067  43.837  11.252
47967W        W14376  30.923  31.226  11.159
47968W        W14377   4.916  12.585  11.648
47969W        W14378  43.495  13.700   3.172
47970W        W14379  32.979  17.102  13.777
47971W        W14380  36.568  28.387  11.457
47972W        W14381  16.867  38.576   0.022
47973W        W14382  17.197  21.659   0.546
47974W        W14383  11.177  43.740  13.877
47975W        W14384  39.749   2.583  13.898
47976W        W14385  23.017  33.698   1.324
47977W        W14386   8.962  27.597   4.807
47978W        W14387  28.601  43.890   3.388
47979W        W14388  34.687   3.820   0.823
47980W        W14389  15.433  18.831  11.520
47981W        W14390  42.811  43.919  11.562
47982W        W14391  31.420  28.923  14.842
47983W        W14392  36.223  25.138   0.862
47984W        W14393  31.943  35.431   1.531
47985W        W14394  40.102   4.380   1.706
47986W        W14395  14.659  33.634  10.151
47987W        W14396  30.787  27.671   2.220
47988W        W14397  24.814  22.101   0.678
47989W        W14398  19.703  19.693   4.084
47990W        W14399  36.634   1.473  11.681
47991W        W14400  38.612  30.449   3.391
47992W        W14401  19.012  15.883  14.355
47993W        W14402   6.677  39.522  11.897
47994W        W14403  16.535  40.730  14.076
47995W        W14404  21.290  43.979   0.746
47996W        W14405  30.170  20.921  13.984
47997W        W14406  32.006  18.032   4.154
47998W        W14407  30.193  13.894   2.708
47999W        W14408  19.988  29.057   1.458
48000W        W14409   3.249  27.341  11.036
48001W        W14410  37.012  11.100   1.869
48002W        W14411   6.208   2.722  12.271
48003W        W14412  25.518   4.503   0.774
48004W        W14413  44.127  15.723  10.625
48005W        W14414   2.271   6.622  11.930
48006W        W14415  21.426  26.221   1.064
48007W        W14416  17.025  42.278   4.613
48008W        W14417   4.625  36.221   0.297
48009W        W14418  34.035  39.864  12.147
48010W        W14419  29.376  44.293   0.348
48011W        W14420  41.108  32.150  14.933
48012W        W14421  37.414  22.480   0.451
48013W        W14422  14.127  19.844   1.656
48014W        W14423  12.142  16.019  12.885
48015W        W14424  43.796  36.085   1.797
48016W        W14425  16.315   3.898  14.344
48017W        W14426   0.229  24.338   4.136
48018W        W14427  33.541   6.842   0.811
48019W        W14428   4.414  16.077  14.421
48020W        W14429  10.875  35.113   1.880
48021W        W14430   4.066  13.228   3.716
48022W        W14431  20.951  40.455  14.561
48023W        W14432  37.512  33.390  11.447
48024W        W14433  39.860  39.542  13.884
48025W        W14434  38.517  28.608  12.204
48026W        W14435  13.264  16.159  13.107
48027W        W14436   6.689  34.417  12.896
48028W        W14437  34.957   6.637   4.195
48029W        W14438  34.005  13.887   1.960
48030W        W14439  33.350   0.335   0.556
48031W        W14440  17.922  28.245   2.304
48032W        W14441  43.241  22.664   4.276
48033W        W14442   5.701  39.393  14.277
48034W        W14443  42.560  28.167  11.032
48035W        W14444  27.521  20.025   2.331
48036W        W14445   7.309   4.856  12.040
48037W        W14446   2.466   0.852   3.666
48038W        W14447  16.679  17.406   2.823
48039W        W14448  29.931  19.584  12.845
48040W        W14449   5.278  20.891  11.047
48041W        W14450   1.288  21.210   4.034
48042W        W14451  23.775   8.754   2.232
48043W        W14452   3.343  20.794  12.916
48044W        W14453  15.908   7.140  12.998
48045W        W14454  26.151  25.466   4.985
48046W        W14455   4.891   5.344  13.360
48047W        W14456   7.976   9.236   0.142
48048W        W14457   8.438  30.061  12.124
48049W        W14458  22.078   8.426   1.310
48050W        W14459  11.681  30.483   4.633
48051W        W14460  42.466  38.897  12.077
48052W        W14461  35.584  17.485   1.665
48053W        W14462  34.606  35.090  10.766
48054W        W14463  44.698  27.682  11.536
48055W        W14464  22.058  40.604   2.885
48056W        W14465   6.496   2.190  13.496
48057W        W14466  18.272  26.644   0.444
48058W        W14467  26.454   3.505  14.966
48059W        W14468  28.345  17.401   2.356
48060W        W14469  23.151  22.992   1.371
48061W        W14470  27.081  12.200  13.113
48062W        W14471   0.824  29.490   2.842
48063W        W14472  15.386  35.906   4.104
48064W        W14473   0.259   4.748  14.075
48065W        W14474  21.839  22.597  13.124
48066W        W14475  43.067  38.470  10.798
48067W        W14476  31.028  37.345   0.186
48068W        W14477  21.694  17.834  10.630
48069W        W14478  42.973  30.507  14.402
48070W        W14479   1.498  42.731   3.188
48071W        W14480  16.500  31.817  12.092
48072W        W14481  24.050  12.201  14.550
48073W        W14482   4.893  11.725  10.400
48074W        W14483  42.737   5.451  14.887
48075W        W14484   5.755  41.938   3.093
48076W        W14485   8.873  38.914   4.387
48077W        W14486  13.725   6.395  11.881
48078W        W14487  39.521  39.979  11.908
48079W        W14488  37.806   6.483   1.850
48080W        W14489  38.154  21.493  13.566
48081W        W14490  32.556   2.489   3.300
48082W        W14491  36.608  40.428  13.591
48083W        W14492  21.641  23.218   1.404
48084W        W14493   8.038   6.085   2.438
48085W        W14494  27.553  24.009  13.985
48086W        W14495  37.807  15.270  14.992
48087W        W14496  13.327  10.639  12.140
48088W        W14497  36.476  14.652  12.683
48089W        W14498  31.701  12.252  10.840
48090W        W14499   3.468  17.082   2.239
48091W        W14500  20.479  37.174   3.186
48092W        W14501   9.336  24.459  12.391
48093W        W14502   6.247  18.070   4.519
48094W        W14503  39.534   9.904  13.323
48095W        W14504  20.436  26.707  14.837
48096W        W14505   9.822   0.021   1.940
48097W        W14506  39.455  30.848  14.016
48098W        W14507  15.864  31.229   3.680
48099W        W14508  18.181  26.963   0.947
48100W        W14509   4.192  42.974   4.550
48101W        W14510  19.998  28.528  11.424
48102W        W14511  43.531  41.587  13.844
48103W        W14512  19.538  15.639   3.927
48104W        W14513  14.636   3.508   4.188
48105W        W14514  42.995  11.972   9.729
48106W        W14515   4.680  17.251   2.748
48107W        W14516  36.403  12.683  11.595
48108W        W14517  24.013  40.892  12.987
48109W        W14518  11.212  29.069   1.667
48110W        W14519  37.689  17.969   9.718
48111W        W14520  14.796  37.406  12.951
48112W        W14521  33.121  24.124  14.560
48113W        W14522   0.578  41.332   0.411
48114W        W14523  17.507  10.664   0.498
48115W        W14524  25.204  31.032  12.169
48116W        W14525   0.978  37.318   4.249
48117W        W14526  15.359  35.944   9.932
48118W        W14527  34.807  30.056  11.996
48119W        W14528  28.935   9.723   0.731
48120W        W14529  28.035  11.071   9.757
48121W        W14530  33.186  42.702   4.263
48122W        W14531  11.570  31.544  14.320
48123W        W14532  13.748  19.208  11.079
48124W        W14533  25.227  24.652   1.879
48125W        W14534  28.516  10.873  14.893
48126W        W14535   8.284  28.589  13.070
48127W        W14536  17.285  23.209   1.628
48128W        W14537  39.588  19.099   4.210
48129W        W14538  27.461   1.329   2.128
48130W        W14539   3.866  18.343   1.781
48131W        W14540   0.938  37.190  12.700
48132W        W14541  21.190  35.869  13.668
48133W        W14542   2.425  27.546   4.166
48134W        W14543  36.536   6.859   3.361
48135W        W14544   4.193   3.459   4.054
48136W        W14545  14.190  16.759   4.318
48137W        W14546  35.134  10.940   4.668
48138W        W14547  25.669  35.974   2.888
48139W        W14548  19.137   9.409   3.976
48140W        W14549  35.089   8.258   1.338
48141W        W14550  37.075  30.818   1.478
48142W        W14551  21.107  32.974  12.240
48143W        W14552  35.644   0.265   1.923
48144W        W14553  39.296  38.419   2.319
48145W        W14554  21.535  26.425  11.394
48146W        W14555  32.372  30.929   0.312
48147W        W14556  25.966   3.230   0.709
48148W        W14557   1.803  30.511  14.836
48149W        W14558  22.644   0.292  13.021
48150W        W14559  20.588  26.438  14.400
48151W        W14560  17.750  16.549  11.104
48152W        W14561  21.912  11.745  12.090
48153W        W14562  22.837  44.060  10.592
48154W        W14563  44.906   2.719   0.854
48155W        W14564  36.425  25.468  11.011
48156W        W14565   3.895  18.245   0.855
48157W        W14566  39.418  29.461   2.251
48158W        W14567  14.221  29.110   0.655
48159W        W14568  14.811   6.275  13.161
48160W        W14569  26.600   1.849  11.464
48161W        W14570   9.152  12.054  14.887
48162W        W14571  40.989   1.263   2.342
48163W        W14572   7.797  14.822  11.987
48164W        W14573  26.519  29.197  11.429
48165W        W14574  40.004  33.116   1.115
48166W        W14575  34.774  14.703  10.766
48167W        W14576   3.828  15.234  14.541
48168W        W14577   1.494  31.580  11.967
48169W        W14578  24.636  35.520   2.935
48170W        W14579  14.756  27.126  14.235
48171W        W14580  33.871  11.199  13.945
48172W        W14581  24.826  15.452  13.357
48173W        W14582  33.571   0.998  12.842
48174W        W14583  35.897   5.504   3.180
48175W        W14584  31.977  29.178  13.840
48176W        W14585  26.784  15.175   0.989
48177W        W14586  14.103  14.318   0.161
48178W        W14587  36.058  40.328   3.651
48179W        W14588  39.301  19.598  14.040
48180W        W14589  16.876   6.290  13.048
48181W        W14590  33.549  21.512  10.459
48182W        W14591  22.756  28.220  14.439
48183W        W14592   7.431  12.811  12.851
48184W        W14593  26.738   1.394   2.678
48185W        W14594   2.457  25.364  11.970
48186W        W14595  31.600  37.948  12.243
48187W        W14596   0.460   5.520  12.938
48188W        W14597   1.271  10.630   3.019
48189W        W14598  38.972  16.732   3.763
48190W        W14599  20.994   8.100   2.188
48191W        W14600  23.727  11.633   1.257
48192W        W14601  12.418   3.640   4.599
48193W        W14602  15.276  19.814  10.145
48194W        W14603  44.333  19.003   1.906
48195W        W14604  22.919  17.270  11.146
48196W        W14605  15.598  37.925   3.657
48197W        W14606  16.763  40.936  11.672
48198W        W14607   2.359  30.905  10.545
48199W        W14608  13.092   4.915   3.671
48200W        W14609  29.018  14.434   4.518
48201W        W14610   0.342   7.357  11.821
48202W        W14611  24.461   7.884   0.280
48203W        W14612  26.648  16.240  14.509
48204W        W14613   3.823  16.353   1.778
48205W        W14614  37.794   9.101  12.022
48206W        W14615  39.421   5.380  14.959
48207W        W14616  34.055  42.433   4.623
48208W        W14617  32.064  21.062  14.544
48209W        W14618  22.797  17.993  11.689
48210W        W14619   0.691  31.137   2.366
48211W        W14620  25.136  14.547   4.127
48212W        W14621  14.727   3.147  11.927
48213W        W14622  23.730  12.116  11.476
48214W        W14623   4.872  14.260  10.436
48215W        W14624  15.966  39.545   5.021
48216W        W14625  22.559  33.812   3.243
48217W        W14626  14.697  28.810   0.882
48218W        W14627  23.511  40.962  12.992
48219W        W14628  29.634   9.813  11.950
48220W        W14629   4.447  28.365   0.213
48221W        W14630  43.394  17.757  12.525
48222W        W14631  35.860  22.089   0.279
48223W        W14632   3.325  43.563   3.664
48224W        W14633  27.083  23.262   0.442
48225W        W14634  25.972   4.214   0.719
48226W        W14635   4.952   4.864  12.182
48227W        W14636  40.692   5.094   3.431
48228W        W14637   1.779  12.315  13.265
48229W        W14638  43.796  44.445   1.836
48230W        W14639  32.337  36.845   3.746
48231W        W14640   2.154  13.657   5.101
48232W        W14641  11.667  18.912  12.861
48233W        W14642   8.276  32.335   3.264
48234W        W14643  24.505  18.500   1.238
48235W        W14644   0.772  14.154  11.367
48236W        W14645  23.019  10.913   4.457
48237W        W14646  11.395  29.956   3.919
48238W        W14647  33.403  34.559   0.259
48239W        W14648  28.601  27.245   4.102
48240W        W14649  35.131   2.233  13.922
48241W        W14650  13.272  42.283  12.589
48242W        W14651  18.157   8.916   0.541
48243W        W14652  32.684  35.119   0.414
48244W        W14653  39.011   3.442  13.440
48245W        W14654  25.373  30.442  11.178
48246W        W14655  30.510  17.651  11.406
48247W        W14656  38.699   0.540   0.945
48248W        W14657  32.392  11.888   2.927
48249W        W14658  10.395  11.239  11.958
48250W        W14659  32.798   9.115  14.588
48251W        W14660  33.559   5.918  11.164
48252W        W14661  11.281  44.562   3.736
48253W        W14662  28.672   6.514  13.016
48254W        W14663   1.421   5.909  12.779
48255W        W14664  37.897  14.580  11.292
48256W        W14665  37.535  37.405   4.638
48257W        W14666   0.183  44.040   2.173
48258W        W14667  32.753  21.800   1.302
48259W        W14668  18.791  43.428   4.197
48260W        W14669  35.533  38.075  14.648
48261W        W14670   9.174  25.525   2.829
48262W        W14671   4.183  25.735  14.877
48263W        W14672   1.895   7.259  14.984
48264W        W14673  24.667  44.015   4.208
48265W        W14674  31.206   7.327  10.736
48266W        W14675  31.504  16.698  11.680
48267W        W14676  22.866   5.222  13.098
48268W        W14677  16.097  40.922  13.350
48269W        W14678  22.759   4.889   2.801
48270W        W14679  40.540  24.022  11.163
48271W        W14680  25.593  29.051  12.966
48272W        W14681  20.338  38.553   3.313
48273W        W14682  26.163   5.730  10.610
48274W        W14683   8.094  27.973  12.403
48275W        W14684  22.508   9.913  10.732
48276W        W14685  12.536  24.942   3.176
48277W        W14686   9.144   2.511   4.494
48278W        W14687  35.460   1.409   0.168
48279W        W14688  41.712  22.124  10.407
48280W        W14689  15.115  19.018   1.299
48281W        W14690   2.809   6.072   2.322
48282W        W14691  17.759  30.966   0.094
48283W        W14692   7.908  13.703   1.115
48284W        W14693  15.688  24.516   2.135
48285W        W14694  12.867  18.501   0.031
48286W        W14695  28.514  23.426   4.659
48287W        W14696  36.509  29.145  10.990
48288W        W14697  16.510  30.324   1.453
48289W        W14698  14.709   4.480  11.598
48290W        W14699   0.524  30.956   4.134
48291W        W14700  36.014  39.834  13.858
48292W        W14701  32.955  25.104  12.360
48293W        W14702  23.239  38.647   4.529
48294W        W14703  12.132  39.622   3.277
48295W        W14704  19.072  30.842  14.940
48296W        W14705  15.249  17.283  10.351
48297W        W14706  26.439  33.944  11.147
48298W        W14707  42.898  37.876  13.810
48299W        W14708  22.016  31.879  12.948
48300W        W14709  14.533  40.050   2.055
48301W        W14710  37.874  27.190   4.530
48302W        W14711  18.653  34.855   0.222
48303W        W14712   9.328   8.653   3.357
48304W        W14713  30.735  24.559   0.489
48305W        W14714  40.937  41.965   3.766
48306W        W14715  10.327   9.725  11.166
48307W        W14716  27.483  23.974  10.781
48308W        W14717  17.532  24.674  11.531
48309W        W14718  14.661   9.894   3.917
48310W        W14719  34.812  19.520   0.943
48311W        W14720  36.809   8.939  12.147
48312W        W14721  25.922   1.753  12.005
48313W        W14722  27.700  13.271   1.149
48314W        W14723  44.857  36.717   3.610
48315W        W14724  35.889  41.044  13.348
48316W        W14725  17.160  24.265  14.745
48317W        W14726  42.328   2.651  14.899
48318W        W14727   9.645  36.508   5.176
48319W        W14728   9.054  11.646  10.158
48320W        W14729  39.740  35.200   0.347
48321W        W14730  21.127  35.734  11.255
48322W        W14731   3.412  41.425  10.742
48323W        W14732   2.767  20.869   3.272
48324W        W14733  27.503  23.261  12.942
48325W        W14734   6.948  38.875  12.583
48326W        W14735  40.017  37.327  12.632
48327W        W14736  24.923  27.254   1.846
48328W        W14737  38.151  13.893   1.298
48329W        W14738  30.420  25.566   1.187
48330W        W14739  26.560   5.321   1.170
48331W        W14740  34.844  30.084  14.044
48332W        W14741   4.584  16.540   4.529
48333W        W14742  26.568  20.903  10.492
48334W        W14743   3.906  14.971  14.974
48335W        W14744  17.799  16.686  12.428
48336W        W14745  14.098  15.723  13.393
48337W        W14746  17.581  44.831   0.771
48338W        W14747  17.216   3.944  12.904
48339W        W14748   3.416  18.392  10.532
48340W        W14749  32.871  40.915  13.943
48341W        W14750  42.816  36.077  10.620
48342W        W14751  22.206  16.300   2.621
48343W        W14752   7.714  15.351   4.978
48344W        W14753  26.571  41.493   3.718
48345W        W14754  42.342  35.694  14.006
48346W        W14755  30.531  37.470   4.578
48347W        W14756  17.854   9.811  11.511
48348W        W14757  44.192  11.103   3.602
48349W        W14758  38.914  12.246  14.435
48350W        W14759  19.693  29.528   2.858
48351W        W14760  19.518   3.903   0.844
48352W        W14761  23.134   8.515  14.875
48353W        W14762  44.586  30.875  11.262
48354W        W14763   4.336  17.148  13.336
48355W        W14764  35.347  42.804  11.629
48356W        W14765   5.790  11.125   1.848
48357W        W14766  11.825  18.201   3.727
48358W        W14767  32.577  37.986  10.629
48359W        W14768  35.497  28.177   0.816
48360W        W14769  17.649  15.539   0.465
48361W        W14770  31.655  28.915   3.894
48362W        W14771  25.235   4.760   0.399
48363W        W14772   7.075  32.142   1.289
48364W        W14773  43.885  22.534  10.435
48365W        W14774  14.997  28.099   3.348
48366W        W14775  23.231  18.971  10.999
48367W        W14776  40.627  34.485   4.388
48368W        W14777  42.853  26.814  11.268
48369W        W14778  34.477  39.897   3.235
48370W        W14779  25.715  32.729  12.070
48371W        W14780  22.196   4.980   4.297
48372W        W14781  36.055  19.752  12.129
48373W        W14782  30.205  34.627   3.974
48374W        W14783  26.528  35.964  11.134
48375W        W14784  35.974  23.131  12.859
48376W        W14785   7.129  22.189  12.020
48377W        W14786   9.923  35.451   2.906
48378W        W14787  32.158  40.789   4.641
48379W        W14788  44.819  20.223   0.196
48380W        W14789  23.631  30.398  12.834
48381W        W14790  24.445  13.538   1.722
48382W        W14791  20.936  20.430  11.905
48383W        W14792  29.386  43.119  11.581
48384W        W14793  43.301  37.843   4.734
48385W        W14794  44.485  43.382  14.286
48386W        W14795  40.347   6.145   0.358
48387W        W14796  25.508  36.465   2.414
48388W        W14797  38.307  33.388  10.743
48389W        W14798   3.922   1.020  12.281
48390W        W14799  24.885  21.739   1.704
48391W        W14800  29.623  42.018  12.422
48392W        W14801  16.562   4.786   3.144
48393W        W14802  26.047  26.622   5.234
48394W        W14803  35.501  15.751  13.769
48395W        W14804  12.284  33.324  12.061
48396W        W14805  30.504  19.057  13.301
48397W        W14806  27.096   6.359   1.239
48398W        W14807  36.053   2.541  11.380
48399W        W14808  39.602  31.635   0.689
48400W        W14809   8.248  34.540   1.306
48401W        W14810  25.025  37.000   3.737
48402W        W14811   2.491  13.406  12.908
48403W        W14812  33.197  18.823   3.254
48404W        W14813  27.497  34.510  10.697
48405W        W14814  23.886  43.213  14.530
48406W        W14815  19.104   1.972  10.620
48407W        W14816  14.135  41.067  14.782
48408W        W14817  33.114  41.959  11.299
48409W        W14818   3.453   3.851   1.758
48410W        W14819  25.264  25.150   4.891
48411W        W14820  16.766  42.782  13.095
48412W        W14821  24.920  44.421  14.460
48413W        W14822  22.805  15.283   2.474
48414W        W14823  14.454   1.984  14.875
48415W        W14824  43.741  31.706  14.367
48416W        W14825   3.428  14.166   3.920
48417W        W14826  15.804   5.986   1.180
48418W        W14827  14.845  16.328   1.472
48419W        W14828  41.975  28.680  14.453
48420W        W14829  15.064  25.912  11.152
48421W        W14830   6.412  18.779   1.159
48422W        W14831  31.040  28.865  11.743
48423W        W14832   3.461  31.229  11.149
48424W        W14833  28.672  19.960   2.216
48425W        W14834   1.377  35.551  14.730
48426W        W14835  31.690  30.384  13.106
48427W        W14836  27.504  43.883  13.459
48428W        W14837  26.450  35.479   4.350
48429W        W14838  38.800  31.790  12.065
48430W        W14839  43.078   1.409  13.558
48431W        W14840  44.771  10.502   5.022
48432W        W14841  35.144  15.551  10.646
48433W        W14842   4.987  13.472   0.882
48434W        W14843  12.245  17.987  12.044
48435W        W14844   4.431  15.848   1.238
48436W        W14845  24.635  16.652   3.832
48437W        W14846  40.006  19.187  12.868
48438W        W14847   0.007   1.571   0.267
48439W        W14848  24.625  34.397   3.761
48440W        W14849   3.675  39.885  10.678
48441W        W14850  27.951  39.457  10.246
48442W        W14851  19.778  34.869  11.948
48443W        W14852  21.301  31.614   0.271
48444W        W14853  28.708  33.023  12.954
48445W        W14854  33.339  20.267  11.134
48446W        W14855  22.617  26.505   5.041
48447W        W14856  31.327  23.217   2.703
48448W        W14857  17.569  34.373  12.970
48449W        W14858  14.817  14.798  13.080
48450W        W14859  14.300   2.901  10.430
48451W        W14860  42.295  35.975  14.446
48452W        W14861  33.620  33.398  14.480
48453W        W14862  39.308   8.701   0.329
48454W        W14863   3.971   8.613  12.402
48455W        W14864  25.234   9.872  12.933
48456W        W14865   0.332  12.353  10.249
48457W        W14866  27.456  38.623   2.235
48458W        W14867  23.267  41.341   1.872
48459W        W14868  39.767  30.675  13.613
48460W        W14869  33.025  32.726  14.319
48461W        W14870  39.836  42.826  10.431
48462W        W14871  29.529  38.078   1.355
48463W        W14872  31.780   1.449   3.748
48464W        W14873   1.794  32.950  14.695
48465W        W14874  35.202  38.602  13.822
48466W        W14875  17.543  26.764   2.045
48467W        W14876   5.870  39.766   4.615
48468W        W14877  30.734  13.837  11.492
48469W        W14878  27.339  34.410  11.179
48470W        W14879  33.360  30.572   2.659
48471W        W14880  21.589  32.346  10.795
48472W        W14881  31.917   3.865   1.337
48473W        W14882  19.990  43.319   4.681
48474W        W14883   3.884  35.975   0.700
48475W        W14884   1.826   9.425   2.823
48476W        W14885  15.157  34.818   4.171
48477W        W14886  36.480  15.622  14.486
48478W        W14887   1.032  13.995   1.821
48479W        W14888  24.020   9.706   3.805
48480W        W14889  37.064  19.735  12.520
48481W        W14890  33.885  37.582   4.213
48482W        W14891  26.061  22.475  12.095
48483W        W14892  30.058   6.743   4.949
48484W        W14893  42.883   3.472   0.814
48485W        W14894  36.589  37.346  14.767
48486W        W14895  32.151  20.128  10.597
48487W        W14896  24.353   1.610   3.731
48488W        W14897   2.794  44.332  13.469
48489W        W14898  13.143   4.433   1.916
48490W        W14899  14.505  43.403   0.415
48491W        W14900  34.795   5.253  13.411
48492W        W14901  17.241  24.770  14.797
48493W        W14902  22.744   8.880  12.478
48494W        W14903  20.836  34.376   2.294
48495W        W14904  33.560   5.862   0.322
48496W        W14905  26.953  14.717   0.829
48497W        W14906  35.891  28.138   0.131
48498W        W14907  38.834  22.949  11.526
48499W        W14908  18.818  31.094   3.278
48500W        W14909  19.118  18.713   4.415
48501W        W14910  36.149  43.048  11.122
48502W        W14911  17.874   3.508  10.700
48503W        W14912  13.261  42.941   3.217
48504W        W14913  12.757  35.121   3.298
48505W        W14914  25.636  33.927  13.792
48506W        W14915  12.570  23.995   3.376
48507W        W14916   0.214  42.462  13.651
48508W        W14917  30.919  39.300  12.566
48509W        W14918   9.098  38.062  10.776
48510W        W14919  38.134   9.910  12.392
48511W        W14920  10.917  38.831  14.949
48512W        W14921  23.023  27.585  14.937
48513W        W14922  44.458  12.311   0.788
48514W        W14923  19.285  25.537   3.670
48515W        W14924  30.914  16.205  12.410
48516W        W14925  18.251  43.774   3.620
48517W        W14926   2.440  25.141  10.804
48518W        W14927  24.118   7.474   1.625
48519W        W14928  32.388   2.052  14.233
48520W        W14929  31.704  32.634   1.204
48521W        W14930   6.395  11.596  10.796
48522W        W14931   5.634   8.911   1.531
48523W        W14932   7.903   2.887   4.200
48524W        W14933  19.900  19.294  14.984
48525W        W14934   1.676  35.947  14.860
48526W        W14935   2.472  33.569   1.766
48527W        W14936  32.386  23.052   3.334
48528W        W14937  15.912  43.324  12.438
48529W        W14938   0.482  21.453  12.401
48530W        W14939   2.551  37.312   0.580
48531W        W14940   5.430   7.523   4.565
48532W        W14941  44.639  41.926  12.093
48533W        W14942  22.533  11.679  14.458
48534W        W14943  18.402  21.063  13.947
48535W        W14944   1.517  33.097  13.332
48536W        W14945  43.289  29.235  14.989
48537W        W14946   7.765  21.515   1.777
48538W        W14947   8.331  15.942   2.503
48539W        W14948  16.872  39.521  11.594
48540W        W14949  24.161   6.320   0.863
48541W        W14950  12.995  40.292   2.381
48542W        W14951  11.572  34.772  14.273
48543W        W14952  22.172  30.440   1.218
48544W        W14953   1.818  30.543   0.746
48545W        W14954   3.101  41.872   1.962
48546W        W14955   8.400  43.005   2.761
48547W        W14956   4.445   1.742  13.880
48548W        W14957  25.596  35.934   2.315
48549W        W14958  30.773  35.778  12.038
48550W        W14959  10.237  35.206  10.660
48551W        W14960  34.130  44.267  10.698
48552W        W14961  40.364   3.142  11.225
48553W        W14962   5.245  39.177  12.450
48554W        W14963  36.939   6.492   4.085
48555W        W14964  29.936  41.898  13.367
48556W        W14965  26.643   7.268   1.398
48557W        W14966  16.963  18.628  11.994
48558W        W14967  32.607  41.548  13.836
48559W        W14968  18.982   9.962  13.846
48560W        W14969  39.931  14.691   2.207
48561W        W14970  44.767  33.437  11.272
48562W        W14971   7.396  18.693  10.736
48563W        W14972   0.416  26.603  13.131
48564W        W14973   5.387  15.143  10.609
48565W        W14974  22.637  29.460  11.722
48566W        W14975  17.290  22.179   3.656
48567W        W14976  23.217  33.438  14.292
48568W        W14977  38.981  28.878   1.439
48569W        W14978   7.649   9.662   1.918
48570W        W14979   7.787   6.760  10.849
48571W        W14980  34.803  14.852   3.385
48572W        W14981  37.903  29.475  14.235
48573W        W14982   3.054   2.379   4.198
48574W        W14983  24.361  14.396   1.324
48575W        W14984  30.635  37.763  11.180
48576W        W14985   2.938  22.933  12.185
48577W        W14986  10.090  12.173   2.188
48578W        W14987  15.192  12.868  13.311
48579W        W14988  27.857  24.937  11.606
48580W        W14989  44.403  35.906   1.357
48581W        W14990  33.276  15.289  13.761
48582W        W14991  39.400  19.041   3.739
48583W        W14992  13.363  42.810  10.974
48584W        W14993   8.627  34.039   4.785
48585W        W14994  27.129  27.980  10.344
48586W        W14995   0.374  21.744  14.360
48587W        W14996   4.535   4.713   1.914
48588W        W14997   5.397  26.116  10.762
48589W        W14998  13.867  16.784   0.474
48590W        W14999  25.507  34.155  11.523
48591W        W15000  27.974  27.403   1.283
48592W        W15001  40.313  41.550   3.596
48593W        W15002  13.093  31.901  11.433
48594W        W15003  25.708  42.040  14.408
48595W        W15004  15.045  36.313   4.987
48596W        W15005  20.255  35.619   1.334
48597W        W15006   7.576   0.111   4.479
48598W        W15007  16.129  25.508  12.487
48599W        W15008   2.037  27.502  14.283
48600W        W15009  16.789  23.976  11.591
48601W        W15010  29.618   9.824  13.036
48602W        W15011  21.001   7.253   1.791
48603W        W15012  40.453   0.097  14.404
48604W        W15013  26.899   0.323  13.979
48605W        W15014  17.671   2.468  11.610
48606W        W15015  11.914  23.511  11.054
48607W        W15016   9.119   4.013   0.149
48608W        W15017   1.528  22.321   2.376
48609W        W15018  31.903   9.858   4.177
48610W        W15019  42.970  15.527   4.137
48611W        W15020  29.413   2.875   5.728
48612W        W15021   4.945   2.689   4.915
48613W        W15022  19.832  25.271   5.090
48614W        W15023  35.784  30.381  11.054
48615W        W15024  42.826  13.364  13.885
48616W        W15025  17.559  11.799   3.655
48617W        W15026   2.355  19.280   2.757
48618W        W15027  29.844  41.409   3.672
48619W        W15028  18.362   5.508  10.138
48620W        W15029  31.417   5.936  14.460
48621W        W15030  16.236  28.422   4.809
48622W        W15031  43.305  23.074  13.841
48623W        W15032  25.671  44.055   0.370
48624W        W15033  42.290   3.915  13.100
48625W        W15034  40.442   4.138  11.206
48626W        W15035  23.262  35.480  14.948
48627W        W15036  18.993  44.025   2.347
48628W        W15037   1.804  36.560   2.339
48629W        W15038  25.942  24.609  13.603
48630W        W15039  14.362  41.959   4.598
48631W        W15040  21.560  39.027   3.649
48632W        W15041  38.432  41.970   0.422
48633W        W15042   2.919  22.682   2.653
48634W        W15043  27.947  11.127  10.971
48635W        W15044  38.959  29.075  13.406
48636W        W15045  16.596  39.637   0.851
48637W        W15046  27.638  43.380   1.396
48638W        W15047  32.145  43.212  14.378
48639W        W15048  26.976   8.744   1.427
48640W        W15049   2.282  29.959  13.355
48641W        W15050  12.728   5.206  11.964
48642W        W15051  22.463  44.453   2.309
48643W        W15052   3.673   0.465  10.773
48644W        W15053  32.941   5.750   2.005
48645W        W15054  42.201  18.994  12.460
48646W        W15055   2.144   5.275  12.057
48647W        W15056  18.506  23.076   0.534
48648W        W15057   2.398  28.709  12.300
48649W        W15058  12.366  14.127  11.038
48650W        W15059  17.919  36.166   0.292
48651W        W15060   2.501  11.250  12.119
48652W        W15061  29.066  29.485   1.987
48653W        W15062   5.124  26.110   2.234
48654W        W15063  38.612   5.752  13.751
48655W        W15064  37.510  26.203  12.116
48656W        W15065  11.539  35.519   1.364
48657W        W15066  37.388  36.664  12.585
48658W        W15067  30.040  13.300  11.334
48659W        W15068  14.586  11.477  12.070
48660W        W15069   2.665   1.032   3.211
48661W        W15070  41.860  27.146  14.194
48662W        W15071  15.129  39.721  12.060
48663W        W15072   4.714  32.183  13.906
48664W        W15073  21.247  12.703  12.534
48665W        W15074  27.451  23.568  13.360
48666W        W15075   8.307  10.155   4.538
48667W        W15076   8.921  22.545   2.777
48668W        W15077  38.350  40.495  10.360
48669W        W15078  12.945  38.998  11.190
48670W        W15079  22.660  16.210   1.232
48671W        W15080  33.137  30.038  14.472
48672W        W15081   8.426  27.522   3.215
48673W        W15082  20.098  28.655  10.921
48674W        W15083  41.845  10.928   1.872
48675W        W15084  40.740  32.327   4.459
48676W        W15085  17.161  12.311  12.005
48677W        W15086  31.557  43.967  11.917
48678W        W15087  20.758   1.282   3.812
48679W        W15088  21.110  34.132  12.536
48680W        W15089  30.339   3.065   4.009
48681W        W15090  32.962  20.608   0.079
48682W        W15091  26.396  25.326   3.194
48683W        W15092  15.750  26.488  11.630
48684W        W15093  30.644  37.538   2.245
48685W        W15094  14.794  34.932  14.370
48686W        W15095   6.892  27.636  13.629
48687W        W15096   5.381  21.034   1.625
48688W        W15097  32.515  26.201   4.095
48689W        W15098  37.318  19.786  12.080
48690W        W15099  22.222  25.091  12.001
48691W        W15100  30.978  11.900  10.682
48692W        W15101   2.211  20.019   4.306
48693W        W15102   3.207   4.258   3.805
48694W        W15103  23.248  42.833   4.444
48695W        W15104   4.673  25.549  10.482
48696W        W15105  42.362  10.307   1.727
48697W        W15106  42.768  20.855   0.466
48698W        W15107  36.359  26.070   3.593
48699W        W15108  28.254  36.349  10.419
48700W        W15109  13.346  26.069   0.312
48701W        W15110  40.821  12.693  12.484
48702W        W15111  22.807  27.376  13.577
48703W        W15112  29.589   4.156   4.158
48704W        W15113  37.122  22.841  14.215
48705W        W15114  38.896  17.088  10.145
48706W        W15115   7.392  39.557   4.606
48707W        W15116  22.604  33.822  10.738
48708W        W15117  14.087  43.278   1.286
48709W        W15118  20.079  37.675   1.171
48710W        W15119  20.457  29.862  11.150
48711W        W15120  31.406  37.085  13.639
48712W        W15121  22.895  42.241  13.261
48713W        W15122   3.654  39.119   3.702
48714W        W15123  39.936  25.592   4.165
48715W        W15124  22.185  27.498  14.486
48716W        W15125  34.627  38.443   0.043
48717W        W15126  44.919   6.493  14.387
48718W        W15127   1.452  37.933   1.764
48719W        W15128  37.905  22.132   4.377
48720W        W15129  16.715  28.652   3.691
48721W        W15130   6.678  25.418  12.548
48722W        W15131  35.508   6.247   2.881
48723W        W15132  19.578  22.948   2.578
48724W        W15133  20.017  20.095  10.625
48725W        W15134  23.561  38.522   0.202
48726W        W15135  40.247  32.385   1.559
48727W        W15136  10.680  15.557   1.266
48728W        W15137  14.587  34.840  13.033
48729W        W15138  18.241   5.695   0.332
48730W        W15139  42.769  15.663  14.072
48731W        W15140   4.896  14.567   2.393
48732W        W15141  42.486  41.981   2.662
48733W        W15142  38.261  17.182  13.877
48734W        W15143  24.179   9.577  12.967
48735W        W15144  33.184  21.494  14.736
48736W        W15145  13.137  11.154  12.144
48737W        W15146  33.439  42.905  11.737
48738W        W15147  31.013  26.020   4.388
48739W        W15148  18.982  21.662  13.506
48740W        W15149  32.788  44.426  14.864
48741W        W15150  12.364  16.814   4.909
48742W        W15151  38.330   5.440  10.787
48743W        W15152   0.957   9.215  12.866
48744W        W15153  33.497  15.316   1.398
48745W        W15154   6.461  13.217  11.156
48746W        W15155   7.390  38.947   1.412
48747W        W15156   7.678  20.559   3.411
48748W        W15157   6.209  32.936   3.720
48749W        W15158  31.256   9.935  10.669
48750W        W15159  42.502  43.508  11.538
48751W        W15160  10.612  44.127  14.887
48752W        W15161  31.412   9.019  13.549
48753W        W15162  21.036  26.243   2.180
48754W        W15163   5.407  13.614  14.098
48755W        W15164  29.389  24.886   3.209
48756W        W15165  28.167  35.554  10.759
48757W        W15166  23.427  38.867   2.318
48758W        W15167  19.007   4.985  10.717
48759W        W15168   0.372  18.628  12.170
48760W        W15169  12.981   0.942  14.169
48761W        W15170  13.851  36.092   3.231
48762W        W15171  26.053  43.271  11.516
48763W        W15172   7.596  15.708  13.061
48764W        W15173  20.792  19.589  12.541
48765W        W15174  24.020  29.565   0.304
48766W        W15175  23.465  35.979  11.136
48767W        W15176  31.567  14.698   4.652
48768W        W15177  14.319  25.580   3.142
48769W        W15178  11.111  16.196   3.304
48770W        W15179  14.647  27.416   0.440
48771W        W15180  34.807  18.358  13.795
48772W        W15181  41.230  14.826   1.670
48773W        W15182  20.788  22.150  12.104
48774W        W15183  20.565  40.842  12.442
48775W        W15184  32.475  38.015   4.461
48776W        W15185   1.456  35.054   0.305
48777W        W15186  40.556  32.334  10.027
48778W        W15187  12.167  14.551  11.987
48779W        W15188  36.592   7.222  13.826
48780W        W15189  38.567   8.249  12.141
48781W        W15190  29.442  14.728  14.529
48782W        W15191  33.081   5.622   0.414
48783W        W15192   8.667  22.604  12.486
48784W        W15193   9.208  19.282   4.266
48785W        W15194  11.239  42.031   1.725
48786W        W15195   5.000   3.588   3.654
48787W        W15196  42.318   0.445   2.344
48788W        W15197  28.388  22.560   0.950
48789W        W15198  32.508  27.104  11.589
48790W        W15199  31.175  17.274   2.170
48791W        W15200   9.454  30.212  10.059
48792W        W15201   7.349   4.851   0.185
48793W        W15202   9.319  34.597   4.639
48794W        W15203  24.170  36.570  12.789
48795W        W15204   4.430  26.887   2.177
48796W        W15205   0.975   9.619   0.895
48797W        W15206   3.546   6.775  12.884
48798W        W15207  23.581  43.315  11.144
48799W        W15208   2.164  14.004  11.647
48800W        W15209  12.700  10.933   4.596
48801W        W15210  38.086   3.424  12.437
48802W        W15211  14.684  36.561   9.821
48803W        W15212  23.165  24.727   0.500
48804W        W15213  10.761  29.162   1.933
48805W        W15214   2.448  42.847   4.903
48806W        W15215  17.276  43.476   2.815
48807W        W15216  23.631  26.320  14.376
48808W        W15217  10.793  10.261   3.552
48809W        W15218  25.556  27.465   0.882
48810W        W15219  36.077  27.986  10.745
48811W        W15220   6.999   0.918  14.837
48812W        W15221  22.264   2.674  13.370
48813W        W15222   7.973   9.355  12.811
48814W        W15223  39.822  29.600   4.691
48815W        W15224  32.610  17.572   4.294
48816W        W15225  30.987  25.688   0.493
48817W        W15226  16.753  34.937  14.020
48818W        W15227   8.702   5.917   0.835
48819W        W15228  32.834   5.080  11.111
48820W        W15229  37.237  35.680  14.839
48821W        W15230  44.412  42.738   9.900
48822W        W15231  32.634  27.404   4.477
48823W        W15232  43.105  28.399  11.722
48824W        W15233  24.998  44.500   0.879
48825W        W15234   9.369  40.495  11.481
48826W        W15235  13.479  42.503  12.142
48827W        W15236  12.371  23.568  13.943
48828W        W15237  14.595  10.134  11.064
48829W        W15238  20.250  13.104   3.798
48830W        W15239  20.260  27.133   3.645
48831W        W15240   1.111  27.636  13.057
48832W        W15241  28.613   3.257  10.663
48833W        W15242  43.886  23.003  12.241
48834W        W15243  42.336  24.760  12.966
48835W        W15244  37.385  42.751   0.628
48836W        W15245  40.463  22.718  11.980
48837W        W15246   0.796  39.389  12.895
48838W        W15247  41.398   1.325   4.930
48839W        W15248  16.679  43.991   2.293
48840W        W15249  20.110  18.961   2.439
48841W        W15250  21.222  28.228  11.936
48842W        W15251  29.452  35.500   2.785
48843W        W15252  36.311  19.229   0.287
48844W        W15253   6.646  10.773  12.123
48845W        W15254  15.569  42.433   0.415
48846W        W15255  26.660  23.596   1.419
48847W        W15256   6.599   1.313  10.720
48848W        W15257  40.074  27.093  12.462
48849W        W15258  14.777  16.024  10.617
48850W        W15259  27.989   1.805  12.918
48851W        W15260  16.834  42.990   2.089
48852W        W15261   2.958  11.345  12.383
48853W        W15262  14.540  21.306   0.027
48854W        W15263   6.955  13.622  10.752
48855W        W15264  27.660  43.337  14.453
48856W        W15265  33.477  23.522   4.385
48857W        W15266  12.157  32.125   4.171
48858W        W15267  21.302   9.437   4.359
48859W        W15268  22.774  24.738  14.547
48860W        W15269  43.436   2.337   3.172
48861W        W15270  25.561   4.657   2.639
48862W        W15271  29.388  37.071   1.915
48863W        W15272  35.279  11.770  11.197
48864W        W15273  26.914  40.056  10.737
48865W        W15274  42.025  30.653   3.766
48866W        W15275  33.394   2.216  14.939
48867W        W15276  36.885   0.838   4.706
48868W        W15277  43.663  12.109   0.452
48869W        W15278  24.739  20.707   3.674
48870W        W15279  42.978   0.560  13.071
48871W        W15280  44.374  21.888   3.608
48872W        W15281   3.754  34.765  14.122
48873W        W15282  44.124   4.015   4.728
48874W        W15283  42.523  38.504   1.147
48875W        W15284  20.593  28.598  13.015
48876W        W15285  18.827  11.753   2.296
48877W        W15286  27.080   3.923   2.740
48878W        W15287   4.920  13.811   2.838
48879W        W15288  43.084  12.935   3.599
48880W        W15289   8.792  21.746  11.540
48881W        W15290  26.947  17.507  12.055
48882W        W15291   4.471   9.725   0.844
48883W        W15292  12.156  14.193   3.746
48884W        W15293  13.188   4.833   2.259
48885W        W15294   1.838   8.711  11.337
48886W        W15295  15.538  20.249  14.242
48887W        W15296  39.074  14.275   4.835
48888W        W15297  37.036  17.503   3.052
48889W        W15298  22.414   7.104   5.169
48890W        W15299  38.397  12.836  10.936
48891W        W15300   5.283  30.733  13.015
48892W        W15301  27.178   4.830   3.628
48893W        W15302  36.516  17.189  10.720
48894W        W15303  41.641  34.528   4.245
48895W        W15304  27.099  24.453   4.019
48896W        W15305  35.447  29.377   1.439
48897W        W15306  29.919  15.862  11.115
48898W        W15307  16.316  15.847   1.079
48899W        W15308  25.543  12.725  10.396
48900W        W15309  13.720   3.550   1.235
48901W        W15310  29.442   9.565  13.455
48902W        W15311  17.421  41.928   2.462
48903W        W15312  24.130  33.970   3.258
48904W        W15313  22.576  20.574   0.006
48905W        W15314  26.632  13.262   4.444
48906W        W15315  29.971   6.782   2.834
48907W        W15316   4.723  25.072   2.460
48908W        W15317  35.306  37.614  14.365
48909W        W15318  18.776  32.571  13.336
48910W        W15319  28.390  10.372   2.844
48911W        W15320  15.501   1.101  10.699
48912W        W15321  15.768  41.001  11.379
48913W        W15322  42.347  34.457  13.383
48914W        W15323  44.833  14.091   1.033
48915W        W15324  39.578  19.082  11.932
48916W        W15325  15.134  34.596   0.374
48917W        W15326  39.509  34.531  13.302
48918W        W15327  13.387  12.525   2.375
48919W        W15328  25.525  32.943  13.548
48920W        W15329  23.979   5.016   1.743
48921W        W15330  19.768   5.261  12.411
48922W        W15331  13.280   3.738   1.448
48923W        W15332  14.388   0.695   2.946
48924W        W15333  39.833   9.048   4.071
48925W        W15334  34.859  12.320   3.172
48926W        W15335  25.090  15.524   4.167
48927W        W15336  28.605  22.514  10.962
48928W        W15337   8.516  33.131   3.561
48929W        W15338  42.344  39.075   1.318
48930W        W15339  31.242  36.013  12.011
48931W        W15340  36.058  33.553   1.316
48932W        W15341  26.525  41.816   2.855
48933W        W15342  16.367   6.182   2.894
48934W        W15343  23.023  23.579   1.271
48935W        W15344  25.978   5.961   0.927
48936W        W15345   2.091   2.038   0.319
48937W        W15346  24.936   5.204   3.188
48938W        W15347  13.651  10.124   3.300
48939W        W15348  29.474  10.718   4.836
48940W        W15349  38.411  43.133   0.925
48941W        W15350  43.271  17.043   1.430
48942W        W15351  17.640  15.791   2.141
48943W        W15352   8.604  24.236   2.347
48944W        W15353  32.730  16.250  13.535
48945W        W15354  11.305  13.185  12.824
48946W        W15355   6.985  20.649   4.586
48947W        W15356   9.356  16.566  11.189
48948W        W15357  24.565   8.962   4.191
48949W        W15358   3.680  24.121  10.084
48950W        W15359  36.551   9.495  14.375
48951W        W15360  23.120  30.824   1.236
48952W        W15361  43.285  43.439   4.262
48953W        W15362  33.989  41.287   2.758
48954W        W15363  34.096  18.718   3.232
48955W        W15364   8.959   6.618  11.115
48956W        W15365   8.121   8.872   4.625
48957W        W15366  28.148  43.421   2.623
48958W        W15367   8.255  21.781   1.736
48959W        W15368   9.440  39.786   4.237
48960W        W15369  43.308  28.663   2.906
48961W        W15370   9.969  38.650  10.204
48962W        W15371  41.730  27.948  10.727
48963W        W15372   6.006  30.985   0.275
48964W        W15373  35.180  44.855  13.558
48965W        W15374  20.067  33.347   4.471
48966W        W15375  24.999  13.209   1.209
48967W        W15376  39.374  25.207   2.349
48968W        W15377   0.436  36.989  13.497
48969W        W15378  22.667   1.904  10.124
48970W        W15379   0.380  32.485  13.396
48971W        W15380   7.986  14.322  14.866
48972W        W15381   5.566  12.002   3.190
48973W        W15382  41.765  43.746  11.887
48974W        W15383  36.229  22.966  13.638
48975W        W15384   3.959  30.564  14.378
48976W        W15385  25.584   9.307   1.749
48977W        W15386   6.920   2.697   3.271
48978W        W15387  12.600  24.641  11.892
48979W        W15388  44.942   6.106   3.638
48980W        W15389  33.685  23.305  13.242
48981W        W15390   6.247  28.156   1.120
48982W        W15391  20.096  12.333   4.925
48983W        W15392  30.706  13.326  10.754
48984W        W15393   9.744   2.841  12.098
48985W        W15394  15.384  37.337  14.843
48986W        W15395  31.493  38.958  10.573
48987W        W15396  14.266  28.131   2.574
48988W        W15397  12.807  26.562   3.618
48989W        W15398  16.230  16.079   2.661
48990W        W15399  25.008   3.217   1.007
48991W        W15400  21.230  24.017  14.182
48992W        W15401   0.256  42.866   4.336
48993W        W15402  40.881  16.169  12.539
48994W        W15403  28.251  32.372   4.586
48995W        W15404  10.147  39.444  13.329
48996W        W15405  37.471  22.534  12.499
48997W        W15406  16.353  27.122  13.382
48998W        W15407  24.587  37.388  12.948
48999W        W15408  17.023  24.545   1.953
49000W        W15409  15.301   9.395  14.820
49001W        W15410  35.503   6.352  13.083
49002W        W15411  42.831  17.242   2.361
49003W        W15412  44.359  23.805  13.924
49004W        W15413  30.991   5.127  14.590
49005W        W15414  33.302  19.201   2.098
49006W        W15415  21.292  36.167   0.343
49007W        W15416  21.006  44.356  10.331
49008W        W15417  31.687  17.190   4.027
49009W        W15418  28.623  31.484   3.307
49010W        W15419   5.855   6.206   2.967
49011W        W15420  10.358   0.924   3.126
49012W        W15421  29.565  29.873  14.877
49013W        W15422  20.633  32.889   3.392
49014W        W15423  10.163   3.685  10.745
49015W        W15424  30.734  34.688  13.938
49016W        W15425  13.608  12.878   2.717
49017W        W15426  42.302  29.162   3.630
49018W        W15427   4.959  30.925  14.510
49019W        W15428  11.350  17.259  10.626
49020W        W15429   3.311  12.067   3.855
49021W        W15430   5.828  37.927  14.466
49022W        W15431  33.351  41.047   2.289
49023W        W15432  25.143  24.977  14.808
49024W        W15433  23.961  26.583   4.559
49025W        W15434  19.749  42.093   4.143
49026W        W15435   5.509   8.777  12.375
49027W        W15436   4.409   5.971  13.023
49028W        W15437  27.952  16.244   3.235
49029W        W15438  28.423  38.192  11.970
49030W        W15439   2.268   0.332  11.043
49031W        W15440  23.512   0.507  12.567
49032W        W15441   8.386  12.564   2.858
49033W        W15442  38.857  14.266  12.962
49034W        W15443  28.254   7.897  14.852
49035W        W15444  12.336  11.631  11.050
49036W        W15445  38.032   2.625   1.473
49037W        W15446  24.947  12.769   1.481
49038W        W15447  25.377   0.255  12.478
49039W        W15448  40.831  17.507  14.419
49040W        W15449  26.129  16.228  14.325
49041W        W15450  30.464  39.628   1.897
49042W        W15451  34.939  24.694   3.718
49043W        W15452  18.111  17.554  10.695
49044W        W15453  28.831  43.468   2.185
49045W        W15454   4.713  18.033   3.562
49046W        W15455  36.988  43.819  14.920
49047W        W15456  21.680  24.727   0.224
49048W        W15457  18.019  23.609   2.726
49049W        W15458  34.462   0.800   2.154
49050W        W15459  26.722  26.173  14.811
49051W        W15460   9.819   6.272   4.903
49052W        W15461  10.661   4.148   3.491
49053W        W15462  21.852  42.532   2.267
49054W        W15463   3.356   5.782   4.645
49055W        W15464  23.029  25.277   2.372
49056W        W15465  16.918  29.630  13.545
49057W        W15466  18.335  43.794  14.350
49058W        W15467   3.470  22.048   4.609
49059W        W15468   7.654  21.618  12.834
49060W        W15469  16.745   6.690  11.608
49061W        W15470   3.213  32.064   2.598
49062W        W15471   0.920  31.420  10.596
49063W        W15472  41.802  29.411   2.854
49064W        W15473  21.710  28.164  14.882
49065W        W15474  21.010  40.191  12.036
49066W        W15475  12.213  33.979   3.568
49067W        W15476  17.979  22.157   4.575
49068W        W15477  16.203  43.406  11.163
49069W        W15478   4.549  39.010   0.477
49070W        W15479  11.038  35.833  14.874
49071W        W15480  25.032  12.794  14.929
49072W        W15481  30.660  43.953   2.260
49073W        W15482  30.349  18.850   3.840
49074W        W15483  12.366  28.742   4.890
49075W        W15484  25.750  12.891   2.634
49076W        W15485   0.741   4.455   0.384
49077W        W15486  13.878   0.384  14.271
49078W        W15487   4.928  14.086   3.295
49079W        W15488  15.074  14.663   1.680
49080W        W15489  39.643   1.298   4.473
49081W        W15490   8.285  35.010   1.526
49082W        W15491  41.320  31.901   0.974
49083W        W15492  26.070  43.419  11.006
49084W        W15493   8.865  24.180   0.021
49085W        W15494  38.748   5.485  11.997
49086W        W15495  32.489  17.319  14.059
49087W        W15496  28.593  22.469   2.229
49088W        W15497  32.851  30.474  12.495
49089W        W15498  40.904  19.821  13.538
49090W        W15499  24.870  28.944   3.959
49091W        W15500  11.890  42.406  12.855
49092W        W15501  44.031  38.044   2.058
49093W        W15502  10.875  25.468  14.905
49094W        W15503  25.471  14.061   0.274
49095W        W15504  21.828  31.647   0.158
49096W        W15505  21.779   3.198   3.745
49097W        W15506  11.202  23.997  12.227
49098W        W15507   1.116  19.576   1.905
49099W        W15508  15.877  21.410   0.881
49100W        W15509  39.834   8.279   1.832
49101W        W15510  37.852   3.278   2.759
49102W        W15511  17.586  26.036  13.537
49103W        W15512  32.679  19.942   1.397
49104W        W15513  10.116  22.754  10.489
49105W        W15514  12.273  28.968   2.191
49106W        W15515  33.210  33.414  14.847
49107W        W15516  40.108  30.450  12.670
49108W        W15517  34.383  12.899   1.803
49109W        W15518  13.630  32.534   3.805
49110W        W15519  43.977  28.780   2.268
49111W        W15520  10.779  24.240  14.485
49112W        W15521  44.905  33.760  14.381
49113W        W15522  32.374  42.724   1.740
49114W        W15523  44.443  38.555  10.087
49115W        W15524  24.899  10.270   1.574
49116W        W15525   4.822  19.314  11.931
49117W        W15526  16.293   2.333  13.598
49118W        W15527  25.491  30.597  12.088
49119W        W15528  12.191   6.804   1.705
49120W        W15529  12.615   1.987   3.182
49121W        W15530  42.369  35.643   1.247
49122W        W15531  18.977  25.684   1.877
49123W        W15532  22.708  12.762  11.369
49124W        W15533  30.249   9.478   5.087
49125W        W15534  15.436  14.382   0.380
49126W        W15535  24.817  18.205  14.327
49127W        W15536  21.246  34.671   2.416
49128W        W15537   4.185  39.006  13.364
49129W        W15538  18.250  18.080   3.078
49130W        W15539   3.671  37.847  10.750
49131W        W15540  28.497  33.550  14.500
49132W        W15541  25.215   5.758   1.287
49133W        W15542   1.968  26.634   2.109
49134W        W15543  39.886  19.221   3.635
49135W        W15544  44.476  12.320   3.356
49136W        W15545  28.472  40.354   0.031
49137W        W15546   4.164  44.936  14.469
49138W        W15547   2.986  29.140  10.612
49139W        W15548   1.077  14.668   0.643
49140W        W15549   1.909  40.786  12.323
49141W        W15550   8.382  35.582  12.906
49142W        W15551  25.214  33.027  12.605
49143W        W15552  24.693  30.792  12.372
49144W        W15553  33.209  43.630   4.106
49145W        W15554  34.919  26.795   0.827
49146W        W15555  38.417  26.994   3.841
49147W        W15556  35.963  44.273  11.587
49148W        W15557  18.651   5.957   2.952
49149W        W15558  29.916  35.278   2.783
49150W        W15559  22.588  22.548   3.748
49151W        W15560  39.616   1.801  13.711
49152W        W15561   4.312  15.328  14.838
49153W        W15562  28.050  36.855   4.077
49154W        W15563  13.334  38.650  11.172
49155W        W15564   8.054  31.124   1.503
49156W        W15565  27.185  11.661  11.537
49157W        W15566  17.135  36.791   1.824
49158W        W15567  11.301  32.993  14.786
49159W        W15568  38.898  41.888  11.438
49160W        W15569  19.235  27.442   4.801
49161W        W15570   1.413   7.274   3.286
49162W        W15571  42.309   0.410  13.819
49163W        W15572  19.597  22.543   1.401
49164W        W15573  17.446  20.799  12.107
49165W        W15574  11.046  35.602   1.251
49166W        W15575  40.463  10.354  12.981
49167W        W15576   2.800  17.259   3.223
49168W        W15577  35.786   8.854  11.565
49169W        W15578   8.046  13.049  13.885
49170W        W15579  31.254  10.690   4.612
49171W        W15580  42.177  11.829   4.423
49172W        W15581  36.949  27.225   4.581
49173W        W15582   5.216  14.961   2.356
49174W        W15583  19.257  35.869   3.049
49175W        W15584  22.155  23.408   2.012
49176W        W15585   4.674  20.034   1.410
49177W        W15586  16.620   6.656  14.357
49178W        W15587   3.753   7.083  10.813
49179W        W15588  27.628  35.966   0.729
49180W        W15589  35.895  32.004   3.084
49181W        W15590   5.673  26.312   2.185
49182W        W15591  32.348   7.134   0.980
49183W        W15592  39.627  34.489   2.303
49184W        W15593  33.954  25.668  12.103
49185W        W15594  21.602  14.512   2.908
49186W        W15595  31.680  44.702  14.054
49187W        W15596   2.688  21.218  12.946
49188W        W15597  38.327  24.255  12.915
49189W        W15598  24.457   6.161  10.815
49190W        W15599   9.719  40.072  14.358
49191W        W15600   8.587  11.271   3.755
49192W        W15601  22.746  19.854  13.480
49193W        W15602  23.226  30.730  12.521
49194W        W15603  17.609  20.893   5.090
49195W        W15604   8.723  42.866  14.458
49196W        W15605   2.339  39.516   2.907
49197W        W15606  31.958   6.052  14.942
49198W        W15607  27.672  22.060  10.701
49199W        W15608  12.566  31.932  10.994
49200W        W15609  23.071  37.438  13.494
49201W        W15610   9.651  28.302   3.516
49202W        W15611  44.166  39.739  13.864
49203W        W15612   0.029   9.984   3.408
49204W        W15613  25.742   2.847  13.982
49205W        W15614  20.846  34.586   1.711
49206W        W15615  11.769  12.389   1.699
49207W        W15616   2.303  14.835   3.812
49208W        W15617  22.088  22.939  12.338
49209W        W15618   0.816  39.409  10.582
49210W        W15619  38.132  41.185   2.935
49211W        W15620  38.334  12.832   4.263
49212W        W15621  42.786  35.788  14.282
49213W        W15622  39.183  33.544  14.509
49214W        W15623  37.663  24.906  12.466
49215W        W15624  35.325  18.326   2.106
49216W        W15625   4.394   4.929   4.779
49217W        W15626   8.848   0.948   1.835
49218W        W15627  43.323  19.058   2.787
49219W        W15628  34.333  15.703   1.668
49220W        W15629  41.077   0.717   0.937
49221W        W15630  13.298  24.241  10.190
49222W        W15631   2.830  33.993   3.060
49223W        W15632  41.683  32.338   2.298
49224W        W15633  11.350  17.558   3.851
49225W        W15634  37.940  28.089  11.416
49226W        W15635  19.443  41.963  12.414
49227W        W15636  23.088   6.740   0.241
49228W        W15637  12.602  28.146   2.229
49229W        W15638  22.168   2.444  14.137
49230W        W15639   6.225  38.644   3.264
49231W        W15640   2.346   7.283  14.065
49232W        W15641   6.026  10.383   4.218
49233W        W15642  19.106  15.617  13.929
49234W        W15643  36.808  20.140   3.300
49235W        W15644   2.956   6.470   0.902
49236W        W15645   1.269  27.144   2.250
49237W        W15646  40.389  20.804   4.126
49238W        W15647  12.173  44.985   0.898
49239W        W15648  42.947  28.469   3.904
49240W        W15649  42.852  36.812  11.159
49241W        W15650   4.049  37.102  14.359
49242W        W15651  18.285   1.878  11.726
49243W        W15652  31.148  23.046   2.224
49244W        W15653  28.555  16.813   0.977
49245W        W15654  35.082  40.024   3.690
49246W        W15655  17.239  29.093  11.073
49247W        W15656  38.129  21.744   4.078
49248W        W15657  18.845  23.532   3.106
49249W        W15658  29.412  33.628  14.447
49250W        W15659  29.271   7.215   3.863
49251W        W15660  38.915  37.006   1.301
49252W        W15661  33.369  14.395   1.606
49253W        W15662  22.507  22.503  10.248
49254W        W15663  21.132  20.297  13.295
49255W        W15664  19.711  11.201  11.168
49256W        W15665  14.649   9.897   3.392
49257W        W15666  28.710   1.241  12.516
49258W        W15667   2.155  20.768   0.856
49259W        W15668  15.220  33.243   1.892
49260W        W15669  25.452   2.440   3.259
49261W        W15670  21.097  29.714  12.351
49262W        W15671  30.497  24.311   4.559
49263W        W15672   0.321  41.182   4.295
49264W        W15673  24.626  44.338   4.631
49265W        W15674  26.234   6.241  14.992
49266W        W15675   2.797  16.785   0.555
49267W        W15676  19.533  31.516   1.142
49268W        W15677  20.677  32.687   2.922
49269W        W15678  30.466  31.873  14.853
49270W        W15679  30.119   0.787   3.131
49271W        W15680  44.504  21.525   2.618
49272W        W15681  35.104  17.492   1.947
49273W        W15682  40.446  41.769  13.913
49274W        W15683  13.182  18.555  10.027
49275W        W15684  20.196  34.955   2.719
49276W        W15685  21.220  20.956   0.219
49277W        W15686  42.360  41.002  13.407
49278W        W15687  14.323   8.789  14.862
49279W        W15688  31.577  25.071  14.010
49280W        W15689  31.180  17.024  14.383
49281W        W15690  40.073  34.932   3.140
49282W        W15691  39.824  27.930   3.824
49283W        W15692  11.731  14.813   3.365
49284W        W15693  11.923  19.177   1.257
49285W        W15694  22.723  39.387   2.695
49286W        W15695  11.217  37.537   3.776
49287W        W15696  44.915  12.230   3.010
49288W        W15697  38.337  15.068   4.137
49289W        W15698  44.508  43.427  10.599
49290W        W15699  41.240  27.034   0.875
49291W        W15700  14.174  32.759   1.345
49292W        W15701  16.649  35.564   2.174
49293W        W15702  38.237  12.989   3.789
49294W        W15703   5.330   6.467   3.684
49295W        W15704  30.332  24.640  11.620
49296W        W15705  42.373  25.140  11.982
49297W        W15706  29.750  24.145  12.227
49298W        W15707  31.147  13.796  14.570
49299W        W15708  26.780  12.743   1.420
49300W        W15709  10.619   7.136   1.381
49301W        W15710  18.254  35.550   4.374
49302W        W15711  41.444  23.006   4.087
49303W        W15712  14.807  13.784  12.904
49304W        W15713  11.808  11.767   4.080
49305W        W15714  43.930  19.245   1.734
49306W        W15715  17.869   7.659  11.999
49307W        W15716  41.050  22.106   0.158
49308W        W15717  19.342  31.927   2.959
49309W        W15718  42.260  38.666   4.248
49310W        W15719  18.649  24.177   2.021
49311W        W15720  19.470  24.015  13.879
49312W        W15721  11.983  41.783   4.282
49313W        W15722  28.278  24.114   1.865
49314W        W15723  24.458  39.601   1.014
49315W        W15724  13.862  32.239   1.871
49316W        W15725   6.805  26.613   1.931
49317W        W15726  10.190  25.643   9.654
49318W        W15727   2.913  37.563  11.851
49319W        W15728   6.838  23.343  10.716
49320W        W15729  19.813   2.200   0.409
49321W        W15730  41.803   7.523  10.918
49322W        W15731  11.717  14.840  11.861
49323W        W15732  28.083  15.429  12.393
49324W        W15733   4.370  20.484  13.439
49325W        W15734  26.752  27.967   3.113
49326W        W15735  42.818  22.011  14.436
49327W        W15736  30.202  37.062   2.130
49328W        W15737  26.158  16.790  12.602
49329W        W15738  27.542   4.491   1.676
49330W        W15739   2.078   3.373  12.493
49331W        W15740   5.630  11.845  11.096
49332W        W15741  25.470  36.941   0.365
49333W        W15742  33.622  15.619  10.331
49334W        W15743  23.745  42.691  13.295
49335W        W15744   6.322  14.558   3.300
49336W        W15745  21.254  15.483  13.516
49337W        W15746  24.087  37.307  11.025
49338W        W15747   8.257  10.336  10.949
49339W        W15748  35.067   6.291  10.657
49340W        W15749  11.816   6.758  10.953
49341W        W15750   4.249   4.309   0.173
49342W        W15751  11.712  30.959   3.708
49343W        W15752   3.216  27.683   1.428
49344W        W15753  12.337   3.660   2.827
49345W        W15754  20.774   0.830  10.840
49346W        W15755  38.109  42.861  12.065
49347W        W15756  39.113  29.110  12.383
49348W        W15757  10.130  14.299  11.652
49349W        W15758  30.017  40.770   4.076
49350W        W15759  44.043  40.548   4.569
49351W        W15760  29.032  22.577   2.858
49352W        W15761  26.286   7.144   5.049
49353W        W15762  18.054   3.249  14.308
49354W        W15763  42.260  22.951   1.160
49355W        W15764  32.597  30.219   2.876
49356W        W15765  15.382   5.386   1.817
49357W        W15766  21.561  35.277   3.910
49358W        W15767  39.860  40.529   2.184
49359W        W15768  26.331  36.582   0.885
49360W        W15769   5.330  24.686   3.537
49361W        W15770  36.557  37.380   0.716
49362W        W15771   9.657  30.189   3.241
49363W        W15772  24.100  13.904  10.923
49364W        W15773   7.898  17.786  13.883
49365W        W15774  25.065  44.985   3.081
49366W        W15775  34.885  17.759  10.934
49367W        W15776  38.473  28.122  13.946
49368W        W15777   2.350   4.403  12.493
49369W        W15778  42.897  43.421  13.394
49370W        W15779   5.827  24.757  13.569
49371W        W15780  33.349  27.719   0.117
49372W        W15781  32.972  10.390  10.231
49373W        W15782  20.012  19.943  14.409
49374W        W15783  43.129  20.465   3.809
49375W        W15784  25.304   4.075  13.471
49376W        W15785  25.131  14.325  12.510
49377W        W15786  20.476  43.946   4.146
49378W        W15787  17.545   3.073   2.855
49379W        W15788  17.232  37.049   1.354
49380W        W15789  35.538  22.722  14.373
49381W        W15790   6.436  16.691  11.215
49382W        W15791   2.725   8.449   4.557
49383W        W15792   3.052   4.220  11.220
49384W        W15793   7.443  22.209   2.685
49385W        W15794  29.640  37.490  11.733
49386W        W15795  23.546  17.749   2.675
49387W        W15796  27.462  28.833  13.336
49388W        W15797  44.292  27.565   1.806
49389W        W15798  40.343   0.959   3.280
49390W        W15799   9.270  12.942   4.744
49391W        W15800  38.736  42.415   3.568
49392W        W15801  18.057  42.001   4.697
49393W        W15802  16.624  34.087   0.507
49394W        W15803   4.838  17.144   3.221
49395W        W15804   1.673  15.464   2.986
49396W        W15805  39.430  28.038  14.013
49397W        W15806  17.168  34.489   1.717
49398W        W15807  23.292  27.718   1.845
49399W        W15808  11.079  21.666  13.729
49400W        W15809  29.512  33.018  14.356
49401W        W15810  44.827  14.732  12.683
49402W        W15811  22.533  31.910  10.440
49403W        W15812  26.221  15.104  11.975
49404W        W15813   3.846  31.164  12.412
49405W        W15814  11.214  34.625   0.449
49406W        W15815  25.949  12.069   4.316
49407W        W15816  41.999  14.994  13.681
49408W        W15817  18.506   8.325  11.905
49409W        W15818  30.187  37.540  11.147
49410W        W15819  26.604  25.198  11.816
49411W        W15820   5.913  27.183   1.819
49412W        W15821  38.841   1.209   4.082
49413W        W15822   2.327  25.290  13.208
49414W        W15823  29.818  36.570   0.322
49415W        W15824  30.836  16.081  11.179
49416W        W15825  37.457  20.709  13.488
49417W        W15826  13.715  11.142   3.645
49418W        W15827   3.446  31.982   3.652
49419W        W15828  21.760  43.502   3.611
49420W        W15829  34.155  36.342  13.536
49421W        W15830  22.893  13.618   3.682
49422W        W15831  40.418  19.310  14.638
49423W        W15832  30.351  25.895  11.087
49424W        W15833  11.095  43.759  12.423
49425W        W15834   1.785   4.706  13.165
49426W        W15835   9.757  23.722  13.781
49427W        W15836  28.719   1.780   0.428
49428W        W15837  27.908  18.376   0.468
49429W        W15838  27.888   6.237   4.240
49430W        W15839  17.311  41.003   1.687
49431W        W15840  29.411  38.926   1.167
49432W        W15841  11.654  13.965   5.032
49433W        W15842   8.867  16.039   4.597
49434W        W15843   1.110  30.935   3.663
49435W        W15844   2.573   4.966   2.816
49436W        W15845  19.998  22.051   0.069
49437W        W15846   9.857  31.662  10.359
49438W        W15847   2.296   6.796   2.138
49439W        W15848   6.800  43.243   3.217
49440W        W15849  22.035  34.683  14.960
49441W        W15850  19.799  26.575   1.023
49442W        W15851  34.746  42.669   0.473
49443W        W15852  38.450  28.459  13.081
49444W        W15853   5.926  41.280  12.045
49445W        W15854  26.252  28.032   2.979
49446W        W15855   4.367  22.403   4.464
49447W        W15856  13.527  14.204   5.289
49448W        W15857  13.690  20.535  14.951
49449W        W15858  43.798   2.450   1.762
49450W        W15859  17.596  40.282   0.186
49451W        W15860  17.643  21.131   9.858
49452W        W15861   7.782   3.683   4.912
49453W        W15862  29.575  42.791  12.805
49454W        W15863   0.833  10.757   2.634
49455W        W15864  29.499  29.532  13.130
49456W        W15865  41.450  21.287  11.377
49457W        W15866  21.146  17.788   0.383
49458W        W15867  17.864  14.800   4.247
49459W        W15868  14.555  10.634  13.853
49460W        W15869   5.884  31.704  13.251
49461W        W15870  13.795   0.350  10.480
49462W        W15871   5.092  20.768  10.387
49463W        W15872   9.265   7.141   4.186
49464W        W15873   7.413  17.542   4.312
49465W        W15874  27.900   7.300  13.164
49466W        W15875  10.619  18.929   0.916
49467W        W15876  18.193  21.928   4.992
49468W        W15877  10.808  14.717   4.589
49469W        W15878  29.942   9.936  13.403
49470W        W15879   9.203  35.217  14.970
49471W        W15880  28.229  26.090   0.821
49472W        W15881  24.003  37.424  11.961
49473W        W15882  30.126   7.169  11.158
49474W        W15883   5.821   5.210   2.781
49475W        W15884  13.044  13.571   0.239
49476W        W15885  12.690  17.298  11.458
49477W        W15886  22.648  22.575  12.773
49478W        W15887  22.500  37.381   0.785
49479W        W15888  33.958  17.844   0.136
49480W        W15889  42.610  12.743  12.409
49481W        W15890  32.857   8.176  14.333
49482W        W15891   9.832  43.544  13.310
49483W        W15892  43.490   0.886   3.920
49484W        W15893  16.253   2.743  14.543
49485W        W15894  20.964  27.957   0.759
49486W        W15895  42.080  44.481  10.635
49487W        W15896  35.060  39.488   3.664
49488W        W15897  24.633  39.448   2.938
49489W        W15898  42.671  42.219   3.065
49490W        W15899   2.731   2.776   4.376
49491W        W15900  29.026  32.000  10.692
49492W        W15901  11.592  15.050  14.361
49493W        W15902   0.961  28.860   1.785
49494W        W15903  24.977  36.114  12.099
49495W        W15904  21.099   4.699  13.441
49496W        W15905  10.410   9.216  12.888
49497W        W15906  43.409  17.589   3.094
49498W        W15907  21.602  44.515   0.953
49499W        W15908  31.528  36.854   3.199
49500W        W15909  33.506  38.812  11.080
49501W        W15910  20.150   9.818  13.211
49502W        W15911  43.963  17.162   4.786
49503W        W15912   2.913  19.138   1.986
49504W        W15913  26.044  43.415   3.201
49505W        W15914  44.143  12.087  11.578
49506W        W15915  27.528   4.738  10.082
49507W        W15916  31.168  25.617  11.390
49508W        W15917  32.436  39.941  11.939
49509W        W15918  25.218  29.509   2.934
49510W        W15919  43.995   2.560   2.718
49511W        W15920  42.297  38.962   3.640
49512W        W15921  38.261  11.626  12.949
49513W        W15922  33.682  38.788  11.965
49514W        W15923  38.877  14.978   1.263
49515W        W15924  43.849  27.406  14.766
49516W        W15925  26.639  39.558   2.323
49517W        W15926  40.905  15.550   3.124
49518W        W15927  38.692  27.613  13.335
49519W        W15928  18.571  24.698   4.557
49520W        W15929   3.642  29.544   4.751
49521W        W15930  40.952  25.599  11.533
49522W        W15931  27.158   4.981  13.037
49523W        W15932  11.369  32.681   2.451
49524W        W15933   5.521  16.329   3.595
49525W        W15934  38.931  38.403   0.328
49526W        W15935   3.268  36.920   2.375
49527W        W15936  26.182   5.773   2.291
49528W        W15937  12.087  33.505   1.924
49529W        W15938  36.041   1.441   1.327
49530W        W15939   8.307  19.818   3.240
49531W        W15940  42.889  11.090   4.063
49532W        W15941  22.815  25.555   0.003
49533W        W15942  32.119   5.345  12.637
49534W        W15943  13.325  44.005   1.736
49535W        W15944   6.799   7.438   1.348
49536W        W15945   6.628  37.136   1.270
49537W        W15946  29.502  13.724   4.882
49538W        W15947  24.589   4.155   3.768
49539W        W15948  12.172  13.214   3.311
49540W        W15949  27.539  40.845  12.072
49541W        W15950  33.821  38.396   2.107
49542W        W15951  43.813  12.089  10.668
49543W        W15952  33.606  39.476   1.692
49544W        W15953  27.652   4.750  13.038
49545W        W15954  23.379  42.313  13.154
49546W        W15955  39.274   1.664  11.495
49547W        W15956   1.188  37.350   2.757
49548W        W15957  15.078   8.784   4.579
49549W        W15958  26.402  20.000  14.851
49550W        W15959  21.255  30.940   2.655
49551W        W15960  40.039   7.271  13.353
49552W        W15961  36.741   0.820   2.366
49553W        W15962  10.127  15.554  12.443
49554W        W15963  31.095  27.424   3.254
49555W        W15964  15.523   4.730  11.337
49556W        W15965  30.216  11.321   4.567
49557W        W15966  21.265  20.936  10.644
49558W        W15967   3.275  34.887   3.327
49559W        W15968  43.404  18.554   1.298
49560W        W15969  33.046  16.213   0.645
49561W        W15970  26.500  12.874  14.062
49562W        W15971  14.590   3.923  13.894
49563W        W15972  19.820  24.951  13.444
49564W        W15973  26.458   0.385  12.626
49565W        W15974   2.832  12.334  14.783
49566W        W15975  17.647  35.249  12.111
49567W        W15976  16.129  39.144   1.777
49568W        W15977  13.641  10.483   2.958
49569W        W15978   1.397  25.875  12.048
49570W        W15979  17.080   9.773  11.179
49571W        W15980  28.116  14.968  12.143
49572W        W15981   2.800  34.856  10.754
49573W        W15982   8.829   3.233   3.368
49574W        W15983  43.405  17.573  11.620
49575W        W15984  31.811  19.764   2.966
49576W        W15985  11.158  13.021   3.325
49577W        W15986  20.651   2.555  13.953
49578W        W15987  43.976  30.206  11.221
49579W        W15988  11.759  43.745  12.375
49580W        W15989   6.912  28.503   1.536
49581W        W15990  30.218  26.075   1.905
49582W        W15991  43.308  12.244  11.858
49583W        W15992   8.914  12.596  12.557
49584W        W15993   2.455  20.938   3.766
49585W        W15994  31.901  15.660   4.624
49586W        W15995  26.225  22.831  12.894
49587W        W15996   4.311  27.468   3.723
49588W        W15997   7.702  39.067   2.145
49589W        W15998  18.503  25.733   3.061
49590W        W15999  11.141  38.782   1.323
49591W        W16000  20.589  25.420  14.141
49592W        W16001  38.509  40.543  14.236
49593W        W16002  43.527   5.903  10.569
49594W        W16003   5.120  31.889   1.612
49595W        W16004  31.393  28.728   3.422
49596W        W16005  32.807   6.266  10.249
49597W        W16006  41.037  22.027   4.208
49598W        W16007  28.037  14.627  11.783
49599W        W16008  42.467  37.158   1.322
49600W        W16009  26.650  29.849  12.563
49601W        W16010  12.165  29.786   0.517
49602W        W16011  14.285  42.234   2.629
49603W        W16012  42.229  42.591  13.474
49604W        W16013  33.927  30.138  13.530
49605W        W16014  25.220  26.421   4.104
49606W        W16015   3.248  23.307   4.025
49607W        W16016  11.456  30.691   0.436
49608W        W16017   9.654   8.731   0.249
49609W        W16018  23.506  12.824   3.157
49610W        W16019   2.905  26.003  12.146
49611W        W16020   7.918  22.296  11.129
49612W        W16021   4.765  36.181   3.085
49613W        W16022  32.743  24.943   4.406
49614W        W16023   6.130  27.921   4.952
49615W        W16024   6.053  17.783  13.572
49616W        W16025  41.908   3.217   4.610
49617W        W16026   3.766  22.894   1.767
49618W        W16027   1.360   3.461  11.531
49619W        W16028  26.426  20.074   3.198
49620W        W16029   0.068   3.965   4.728
49621W        W16030  44.934  42.229  14.551
49622W        W16031  14.563   3.769   0.198
49623W        W16032  43.274  33.913   4.591
49624W        W16033  19.709  30.874  14.343
49625W        W16034   9.763  29.061  12.593
49626W        W16035   2.498  40.543   1.235
49627W        W16036  11.192  44.492   5.052
49628W        W16037  17.686  14.192   2.345
49629W        W16038  30.609  44.838  11.409
49630W        W16039  11.501  42.227   0.961
49631W        W16040  13.144  37.894   3.827
49632W        W16041  14.214   4.872   0.806
49633W        W16042  35.561   1.640  14.562
49634W        W16043  33.350   3.323   2.267
49635W        W16044  33.112  43.361   0.211
49636W        W16045  41.922  21.487  14.547
49637W        W16046  32.486  27.111  10.746
49638W        W16047  37.754  24.241  11.133
49639W        W16048  10.160   4.967   4.066
49640W        W16049   1.970  37.892   1.758
49641W        W16050   4.699  19.655   1.771
49642W        W16051  18.285  29.606  11.591
49643W        W16052  22.547  25.494  13.465
49644W        W16053  28.518  41.006  10.691
49645W        W16054  24.405  27.908   3.185
49646W        W16055   5.218  35.934  10.933
49647W        W16056  39.567   8.316   2.307
49648W        W16057  13.404  13.773   1.658
49649W        W16058  35.824  40.657  11.375
49650W        W16059  22.245  17.199   2.713
49651W        W16060  38.038  11.076   2.808
49652W        W16061  39.552  44.958  14.608
49653W        W16062  19.704  21.118   0.141
49654W        W16063  31.836  10.625  13.157
49655W        W16064  37.760  35.572  13.063
49656W        W16065  13.106  19.003   1.447
49657W        W16066  41.569  42.292   4.268
49658W        W16067  32.492   0.860   2.831
49659W        W16068  25.430  43.951   1.199
49660W        W16069  20.613   6.110   1.412
49661W        W16070  14.241   7.810  10.768
49662W        W16071  36.052  34.477  12.232
49663W        W16072  23.855   7.223  11.557
49664W        W16073   9.679  27.124  10.679
49665W        W16074  34.700  40.119   1.905
49666W        W16075  28.013  37.131  14.850
49667W        W16076  15.091  35.563  12.258
49668W        W16077   8.657  30.925  12.141
49669W        W16078  24.434  19.049   2.289
49670W        W16079  35.506  32.623   1.803
49671W        W16080   8.930  12.476  14.695
49672W        W16081   8.848  42.417   4.499
49673W        W16082  14.260  30.033  11.565
49674W        W16083  43.330  33.404   4.726
49675W        W16084   6.730  16.101  11.610
49676W        W16085  39.834  20.578  14.312
49677W        W16086  19.640  20.699  13.247
49678W        W16087  16.473   2.188  10.861
49679W        W16088   7.873   7.267  14.959
49680W        W16089  28.575  38.365   2.329
49681W        W16090  26.119   6.992  14.381
49682W        W16091  30.274  11.232   2.800
49683W        W16092  22.818  34.919  14.355
49684W        W16093  39.469   6.378   0.780
49685W        W16094  20.199  43.836   2.207
49686W        W16095  28.724  33.505  14.974
49687W        W16096  29.533  23.208  13.937
49688W        W16097  17.401  26.008   4.176
49689W        W16098  43.029  37.405   4.973
49690W        W16099  43.665  41.018  11.988
49691W        W16100  20.594  12.266   1.218
49692W        W16101  19.051  21.160  10.585
49693W        W16102  20.119   1.509  14.717
49694W        W16103  21.797  26.671  10.408
49695W        W16104  19.284  42.974  13.082
49696W        W16105  27.958  13.586   1.841
49697W        W16106  13.598  13.113  14.993
49698W        W16107  25.649   8.271   5.285
49699W        W16108   0.524  10.361   0.329
49700W        W16109   5.425  23.575  11.136
49701W        W16110  26.004  29.521  12.206
49702W        W16111  29.408  15.965   3.264
49703W        W16112  16.024  40.432   2.578
49704W        W16113  31.094   6.698  12.607
49705W        W16114  31.490  30.109   4.235
49706W        W16115  32.585  18.478   1.107
49707W        W16116  35.126  34.678  13.340
49708W        W16117  17.110  13.751   3.339
49709W        W16118  19.180  24.911   2.170
49710W        W16119  37.602  40.957  11.403
49711W        W16120  18.671   9.273   3.718
49712W        W16121   3.853  20.325   0.553
49713W        W16122  18.464   3.924  12.927
49714W        W16123   3.914  35.368  12.496
49715W        W16124  20.629  39.757   1.429
49716W        W16125  42.155  28.190   4.898
49717W        W16126  22.023  43.372  11.969
49718W        W16127   4.949  43.687  14.271
49719W        W16128  43.545   8.256   3.665
49720W        W16129   8.779  29.188  13.390
49721W        W16130  17.716  15.814  14.983
49722W        W16131   5.892  36.905  14.474
49723W        W16132  40.065  40.223  11.087
49724W        W16133   6.446  13.014   3.249
49725W        W16134   6.720  42.941   0.822
49726W        W16135  39.122  44.494  12.561
49727W        W16136   3.802   1.361  13.045
49728W        W16137  21.192   2.993  13.281
49729W        W16138  31.773  33.783   0.848
49730W        W16139   4.453  11.174  12.499
49731W        W16140  44.587  40.793   4.051
49732W        W16141  43.311  13.334   4.661
49733W        W16142  22.708  25.254   2.802
49734W        W16143  25.831  15.800   0.035
49735W        W16144  10.896  21.205   2.111
49736W        W16145  35.495  14.653   0.243
49737W        W16146  38.572   8.813   1.704
49738W        W16147   7.149  11.639  13.277
49739W        W16148   1.904  36.064   3.641
49740W        W16149  24.740  22.435   2.828
49741W        W16150  28.168  24.935   2.743
49742W        W16151  11.580  37.005  14.957
49743W        W16152  40.006  43.306  12.048
49744W        W16153   7.677  32.597  14.220
49745W        W16154  33.565  16.244  12.880
49746W        W16155  12.273  21.065  11.072
49747W        W16156  32.102  20.106   3.222
49748W        W16157  24.903  22.042   3.641
49749W        W16158  29.434  43.618  11.594
49750W        W16159  15.834  11.251  13.530
49751W        W16160  24.091  26.181  12.379
49752W        W16161  19.025   4.128  14.796
49753W        W16162  30.540  22.874  13.586
49754W        W16163  10.419   4.363  12.437
49755W        W16164  29.917   6.179   4.311
49756W        W16165   0.292  38.856  10.736
49757W        W16166  11.398  32.130   0.216
49758W        W16167  17.104  32.607  12.234
49759W        W16168  39.908   1.769   4.624
49760W        W16169   2.509  12.590   1.418
49761W        W16170  11.635  22.128  13.425
49762W        W16171  43.672  35.641   0.326
49763W        W16172  27.099  44.367   2.395
49764W        W16173   6.443  39.072  12.820
49765W        W16174   6.096  18.173  13.964
49766W        W16175   9.806  15.971  11.108
49767W        W16176   6.723  13.785  12.119
49768W        W16177   3.316  11.821   0.945
49769W        W16178  28.211   3.157  13.529
49770W        W16179  10.231  12.251   1.252
49771W        W16180  43.327   3.192   0.918
49772W        W16181  36.026   6.658  12.555
49773W        W16182  39.836   9.869   3.383
49774W        W16183  10.357  33.084   1.240
49775W        W16184  11.273  20.466   4.524
49776W        W16185  43.431  30.821   9.556
49777W        W16186  21.958  40.455   3.379
49778W        W16187  29.783   8.415   0.858
49779W        W16188  21.963  19.204  10.678
49780W        W16189   4.279  11.080  10.946
49781W        W16190   8.677  20.983  13.422
49782W        W16191   2.483  21.110  12.482
49783W        W16192  14.620  15.721  12.006
49784W        W16193   5.372  13.305   0.122
49785W        W16194  38.911  28.959   4.456
49786W        W16195  25.059  35.127   2.259
49787W        W16196   8.315  10.696  11.293
49788W        W16197  21.837  33.062  12.643
49789W        W16198  37.281  10.006  12.956
49790W        W16199  41.365  40.614   0.179
49791W        W16200  32.236   8.228  11.783
49792W        W16201  30.428  10.225  14.877
49793W        W16202  29.008  38.477   3.471
49794W        W16203   0.469  27.109  13.270
49795W        W16204   8.003  29.840   3.022
49796W        W16205   3.528   1.892  12.292
49797W        W16206  20.563  30.511  12.092
49798W        W16207   6.233  29.974  10.734
49799W        W16208  20.706  13.669   2.700
49800W        W16209  32.906  25.061  13.375
49801W        W16210  13.632  35.702  11.072
49802W        W16211   5.755  24.174   1.227
49803W        W16212  14.565  43.345   3.588
49804W        W16213  38.400  16.089   1.785
49805W        W16214   9.795  29.129  11.244
49806W        W16215  21.172   8.756  10.134
49807W        W16216  12.666  22.271   4.113
49808W        W16217  10.388   2.713  12.864
49809W        W16218  19.701   1.682  13.867
49810W        W16219  26.033  17.129   1.422
49811W        W16220   5.141  18.202   3.340
49812W        W16221   1.193  33.716  11.703
49813W        W16222  28.279  18.734   4.877
49814W        W16223  30.044   8.417  14.864
49815W        W16224  12.042  42.510   4.717
49816W        W16225  28.107  22.940   2.845
49817W        W16226  19.084  17.591   3.181
49818W        W16227  40.431  12.995   3.555
49819W        W16228  21.136   3.842   3.581
49820W        W16229  42.740  18.073  10.299
49821W        W16230  44.973  44.007   0.261
49822W        W16231  12.275   7.700   1.976
49823W        W16232  21.247  14.688   3.747
49824W        W16233  25.771  31.669   4.320
49825W        W16234  39.015  21.542   4.086
49826W        W16235  22.132  34.427   0.425
49827W        W16236  12.334   6.632  14.392
49828W        W16237  20.760   4.308  14.651
49829W        W16238  29.179  41.616  14.159
49830W        W16239  40.013  24.283  13.427
49831W        W16240  19.743  42.839  13.574
49832W        W16241  43.635  22.975   1.007
49833W        W16242   0.788  23.135  12.008
49834W        W16243  41.098  27.863  13.849
49835W        W16244  40.005  13.343  10.752
49836W        W16245  28.399  24.459  12.408
49837W        W16246  32.847   0.994  12.583
49838W        W16247  37.106  24.067  14.398
49839W        W16248  31.496  36.497  14.720
49840W        W16249  13.678  27.206  11.885
49841W        W16250  22.301   3.955   4.178
49842W        W16251  16.612  10.131  10.692
49843W        W16252  42.393  26.196   2.407
49844W        W16253  14.159  22.487   3.237
49845W        W16254  15.743  25.241  13.406
49846W        W16255  16.646   1.807  11.191
49847W        W16256   1.342  40.790  13.055
49848W        W16257  17.731  43.048  11.108
49849W        W16258  13.574  22.526   2.656
49850W        W16259  30.296  14.913   2.647
49851W        W16260  38.950  26.498   4.186
49852W        W16261   2.565   7.293   0.817
49853W        W16262  16.377  28.119  11.425
49854W        W16263   2.212  22.117  14.384
49855W        W16264   2.783  18.565   3.639
49856W        W16265  28.446  43.326   4.494
49857W        W16266  23.193  19.606  13.460
49858W        W16267  26.220   8.642  12.246
49859W        W16268   1.157  12.217  12.768
49860W        W16269  10.704  34.186   2.267
49861W        W16270  17.788   7.240   3.815
49862W        W16271  26.604  29.549   0.809
49863W        W16272  32.959  38.947  13.124
49864W        W16273  27.448   5.013   1.697
49865W        W16274   5.331  14.701   0.452
49866W        W16275   3.146  35.526   2.282
49867W        W16276  36.580  25.486  12.938
49868W        W16277  25.119  36.948  11.744
49869W        W16278  38.909   4.944   5.233
49870W        W16279   7.084  25.640   1.096
49871W        W16280  38.786   7.666  13.620
49872W        W16281  10.684  18.657   2.423
49873W        W16282  15.576   2.780   0.751
49874W        W16283   4.301  23.240  10.683
49875W        W16284   9.657  32.076   2.759
49876W        W16285  17.518  37.596  11.550
49877W        W16286  17.146  40.056  11.428
49878W        W16287  12.232  15.599   3.690
49879W        W16288  43.878   6.319   2.592
49880W        W16289   0.725   8.707  13.972
49881W        W16290  14.164   8.196   1.461
49882W        W16291  14.354   4.341   3.651
49883W        W16292  35.581  19.300   4.921
49884W        W16293   3.182  29.395   3.635
49885W        W16294   1.281  11.124  14.558
49886W        W16295   6.277  27.180   1.219
49887W        W16296  25.599   4.303   4.828
49888W        W16297  38.509   3.994   3.337
49889W        W16298  14.860  44.839   3.356
49890W        W16299  14.707  36.076   1.435
49891W        W16300  30.358  40.568  13.483
49892W        W16301  43.759  17.095   0.671
49893W        W16302   1.403  10.573   1.509
49894W        W16303  11.913  18.169   0.313
49895W        W16304   0.394  33.740   3.917
49896W        W16305  18.193  35.903   4.886
49897W        W16306   9.607   8.520   4.085
49898W        W16307  29.197  24.476   4.319
49899W        W16308  24.088  11.820   4.183
49900W        W16309  39.386  14.294  12.980
49901W        W16310  17.190  14.051   4.519
49902W        W16311  16.171  26.675  11.441
49903W        W16312  43.984   6.303  12.807
49904W        W16313  35.279  27.970  12.509
49905W        W16314  13.052  27.183  10.735
49906W        W16315   4.764  38.097   0.329
49907W        W16316  29.726  35.517   3.226
49908W        W16317  29.150   2.752  14.870
49909W        W16318  33.061   3.599  13.837
49910W        W16319  29.968   7.216   3.111
49911W        W16320  34.627  12.054  14.082
49912W        W16321   1.800  28.124   2.222
49913W        W16322  31.669   7.649   2.317
49914W        W16323  20.469   3.282   2.643
49915W        W16324   0.363  43.130  10.766
49916W        W16325  10.833   4.193   2.280
49917W        W16326   2.232  19.061   0.434
49918W        W16327  11.281  34.384  14.454
49919W        W16328  15.251  37.613  14.412
49920W        W16329  13.582  29.622   0.511
49921W        W16330   5.260  41.905  11.643
49922W        W16331  12.602   2.938   3.553
49923W        W16332  12.338  41.007   2.937
49924W        W16333  34.947  17.661   0.953
49925W        W16334  28.500   1.974  12.003
49926W        W16335  13.305  24.627  13.406
49927W        W16336  40.746  29.571  11.284
49928W        W16337   6.429   1.808   0.838
49929W        W16338  36.792   4.750  14.254
49930W        W16339  43.027  33.978  14.234
49931W        W16340  43.998  44.733  10.604
49932W        W16341  30.975  16.206  13.797
49933W        W16342  31.490  38.079   1.253
49934W        W16343  12.210  20.130   1.948
49935W        W16344  42.355   5.335   2.237
49936W        W16345  12.516  13.568  14.289
49937W        W16346  12.642  33.613   0.810
49938W        W16347  10.857  37.914  13.505
49939W        W16348  20.627   6.576   2.836
49940W        W16349  41.459  18.227   0.930
49941W        W16350  17.872  31.615   2.254
49942W        W16351   5.750  31.467  12.423
49943W        W16352  40.552  23.914  12.074
49944W        W16353  14.288   0.406  11.080
49945W        W16354   6.156  33.625   0.528
49946W        W16355  41.414  34.892  10.742
49947W        W16356  25.035  17.724   2.652
49948W        W16357  23.917  25.238   3.253
49949W        W16358  43.230  38.287   4.388
49950W        W16359  28.967  39.379   4.799
49951W        W16360   6.807  32.688   5.038
49952W        W16361   2.243  14.216   4.920
49953W        W16362  18.078  23.532  12.989
49954W        W16363  36.017  30.156   1.198
49955W        W16364  16.687   2.920  14.759
49956W        W16365  33.647  16.803   1.320
49957W        W16366  24.388  30.427  14.055
49958W        W16367  41.290  27.488  12.299
49959W        W16368  36.295   1.392  13.460
49960W        W16369  20.549  21.305   2.789
49961W        W16370  33.029  33.090  12.512
49962W        W16371  17.712  35.676  13.474
49963W        W16372   3.781  14.790   1.367
49964W        W16373  10.949  23.503   2.199
49965W        W16374  19.190   0.730  12.492
49966W        W16375  19.042  44.504  14.024
49967W        W16376  20.133  37.656  12.485
49968W        W16377   3.015  30.402  14.360
49969W        W16378  16.752   3.674  13.611
49970W        W16379  39.292  26.496   4.733
49971W        W16380  29.540  12.038  11.574
49972W        W16381  24.003  42.225   1.652
49973W        W16382  17.388  25.010  11.133
49974W        W16383  16.911   4.816   1.763
49975W        W16384  19.235  17.603  14.854
49976W        W16385   8.495  30.871   4.077
49977W        W16386  31.486  33.023   2.476
49978W        W16387  34.641   8.678  14.202
49979W        W16388  19.226  24.682   3.336
49980W        W16389  28.068   3.496  11.503
49981W        W16390   8.956  25.683   2.258
49982W        W16391   0.276  11.403   1.595
49983W        W16392  17.036   9.960   0.777
49984W        W16393  38.844  40.290   3.121
49985W        W16394  26.521  29.153   4.685
49986W        W16395  38.401  19.609   0.733
49987W        W16396  22.131  22.404  13.943
49988W        W16397  24.611  44.204   1.805
49989W        W16398  42.102  40.953  13.844
49990W        W16399  13.902  31.849  14.386
49991W        W16400  18.297  44.235  14.043
49992W        W16401  34.698  11.721   4.192
49993W        W16402  31.067  25.650  12.535
49994W        W16403  39.548   3.303   0.903
49995W        W16404  37.093  27.596   4.185
49996W        W16405  32.841  19.028   0.421
49997W        W16406  11.988   1.093   3.946
49998W        W16407  15.182   3.816  11.657
49999W        W16408  21.258   1.874   1.024
50000W        W16409   8.158  19.341   2.370
50001W        W16410  18.196  24.072  12.437
50002W        W16411  28.998  36.218   1.470
50003W        W16412  32.686  39.345  12.943
50004W        W16413  17.148  17.447   2.559
50005W        W16414  28.181  36.309  14.488
50006W        W16415   9.433  38.575  10.331
50007W        W16416  28.650  15.672  10.604
50008W        W16417   9.120  28.162   2.206
50009W        W16418   6.700  28.068   2.293
50010W        W16419  24.903  26.236   2.712
50011W        W16420  12.100  23.947   3.150
50012W        W16421  34.886   2.006   1.856
50013W        W16422  24.671   7.276  10.936
50014W        W16423  20.541  19.426  12.107
50015W        W16424  43.690  39.889  13.078
50016W        W16425  14.344   2.583   0.458
50017W        W16426  42.366  33.124  12.978
50018W        W16427   5.844  31.723   0.775
50019W        W16428  12.181  17.724   0.350
50020W        W16429  35.122  39.436  10.777
50021W        W16430  39.519  14.550   3.667
50022W        W16431  15.087   6.532   0.874
50023W        W16432   7.314  39.314  10.705
50024W        W16433  20.293  32.456   4.130
50025W        W16434  32.065  13.550  13.491
50026W        W16435   2.760  18.203   2.820
50027W        W16436  44.356  38.045  11.081
50028W        W16437  34.894  24.974   1.903
50029W        W16438   5.837   5.158   1.825
50030W        W16439  21.003  18.183  11.106
50031W        W16440   8.282  13.115   2.805
50032W        W16441  44.250  34.459   2.168
50033W        W16442  33.989   9.379  11.310
50034W        W16443   0.647  42.730  11.054
50035W        W16444  43.068   0.935  10.648
50036W        W16445  40.141  30.941  12.860
50037W        W16446  28.249  32.859  12.049
50038W        W16447   3.906   7.268  10.365
50039W        W16448  38.527  14.337   5.017
50040W        W16449  17.140   5.346   0.396
50041W        W16450   6.965   3.790   4.388
50042W        W16451  19.181   3.775  13.534
50043W        W16452  41.317  19.729   0.141
50044W        W16453  15.909   1.936  12.889
50045W        W16454  17.980  30.904   2.655
50046W        W16455   1.769  43.004  12.446
50047W        W16456   3.689  43.954   1.776
50048W        W16457   7.305  13.008  11.151
50049W        W16458  29.313   0.975   1.300
50050W        W16459  18.091   9.803   3.243
50051W        W16460  35.848   4.798   4.126
50052W        W16461  13.118   9.868  12.474
50053W        W16462  22.479  13.250   1.373
50054W        W16463  20.610  12.701  11.329
50055W        W16464  44.458  18.432  11.682
50056W        W16465  36.037  14.484   0.254
50057W        W16466   9.742   1.949   4.977
50058W        W16467  38.940  43.263   2.863
50059W        W16468  28.670  40.013  13.452
50060W        W16469  39.484   9.431   3.927
50061W        W16470  15.307  14.726  10.590
50062W        W16471  38.814   0.838   4.502
50063W        W16472  38.310   0.924   3.235
50064W        W16473   8.040   9.897  11.928
50065W        W16474  15.182   8.142   2.214
50066W        W16475  35.279   5.393  10.219
50067W        W16476  39.109  23.696  10.307
50068W        W16477  20.229  30.192  10.640
50069W        W16478   1.359  40.405   4.250
50070W        W16479   2.696  33.378  10.772
50071W        W16480  12.123  44.558  10.247
50072W        W16481  34.399  41.472   3.080
50073W        W16482  40.058  16.509  14.005
50074W        W16483  32.454  25.230   0.894
50075W        W16484  19.108  21.179  12.372
50076W        W16485  35.638  10.202   1.372
50077W        W16486  31.912  29.947  13.385
50078W        W16487  34.546  42.335  11.469
50079W        W16488  36.863  40.321  14.271
50080W        W16489  28.428  37.144   4.300
50081W        W16490   5.165  17.937  10.889
50082W        W16491  27.901  37.754   3.858
50083W        W16492  39.137  21.800   0.932
50084W        W16493  26.178  41.348  14.133
50085W        W16494  25.473  44.518   3.139
50086W        W16495  25.162  11.352   0.829
50087W        W16496   7.299  32.155   1.775
50088W        W16497   5.025   7.888  12.085
50089W        W16498  37.070  43.951  13.405
50090W        W16499  35.813  36.102  14.891
50091W        W16500   9.566  27.242   4.580
50092W        W16501  13.763  40.585   3.331
50093W        W16502   5.800   5.508   2.247
50094W        W16503  29.458  39.387   0.905
50095W        W16504   4.482  36.461   1.652
50096W        W16505  33.001  19.243  10.448
50097W        W16506   1.501  35.360   3.289
50098W        W16507  44.314   1.006   1.683
50099W        W16508  33.840   9.876  13.640
50100W        W16509   3.161  44.817   1.768
50101W        W16510  22.973  32.234   4.075
50102W        W16511   1.380  27.624   1.026
50103W        W16512  31.408  15.085   1.295
50104W        W16513   4.361  20.749   5.090
50105W        W16514   4.756  30.218  13.406
50106W        W16515  31.627  21.051  13.048
50107W        W16516  35.088  24.388   0.410
50108W        W16517   7.983   2.958  14.859
50109W        W16518  43.429  12.361  10.438
50110W        W16519  27.000  21.655  13.421
50111W        W16520  14.809  16.259   2.368
50112W        W16521  17.015  18.722  13.877
50113W        W16522  31.889   5.202   0.787
50114W        W16523  32.209   0.787   4.125
50115W        W16524  40.825  39.566   2.318
50116W        W16525  39.732   3.090  13.798
50117W        W16526  31.044  39.919  12.150
50118W        W16527  26.237  20.179  12.588
50119W        W16528  40.770   0.832  14.925
50120W        W16529  23.110  29.184  10.564
50121W        W16530  18.486  20.632  12.097
50122W        W16531   4.264  44.442  13.742
50123W        W16532  13.667   2.666  14.925
50124W        W16533  37.176   7.470   3.614
50125W        W16534  27.230  23.718  12.904
50126W        W16535   3.443  35.653  12.477
50127W        W16536  21.266  29.082  14.525
50128W        W16537   8.633  18.469  12.550
50129W        W16538  19.591  18.579   3.598
50130W        W16539  29.405  24.292  13.165
50131W        W16540  17.150  21.135  14.315
50132W        W16541   6.637  22.045  11.138
50133W        W16542   8.167  34.852   2.419
50134W        W16543  13.706  13.969  11.175
50135W        W16544  13.763   6.361  14.534
50136W        W16545  22.619  31.713  13.439
50137W        W16546  43.444  19.765  12.956
50138W        W16547   5.615  21.600  14.024
50139W        W16548   7.612  41.377   0.695
50140W        W16549  38.779  33.561  12.446
50141W        W16550  43.902   0.300  13.863
50142W        W16551  10.092  41.758  13.001
50143W        W16552   6.711   3.042   2.920
50144W        W16553  28.470  29.057   4.693
50145W        W16554  27.443   4.089  11.586
50146W        W16555   9.792  10.264   4.014
50147W        W16556   6.921  26.946  12.482
50148W        W16557   3.705  37.604   3.287
50149W        W16558  41.437  27.274   2.748
50150W        W16559  21.928  38.941  12.445
50151W        W16560  23.712  34.442  11.569
50152W        W16561  29.737  11.666  14.833
50153W        W16562  14.176  33.010   4.226
50154W        W16563   4.678  18.345  11.604
50155W        W16564  16.572  33.067   4.428
50156W        W16565   1.731  10.421   1.135
50157W        W16566  35.373  41.448  14.482
50158W        W16567   0.409  40.748   0.340
50159W        W16568  10.813  27.461  11.936
50160W        W16569  24.075  37.868   1.863
50161W        W16570   1.228  13.200   2.677
50162W        W16571  14.928   8.906  13.404
50163W        W16572  19.155   3.495  11.608
50164W        W16573  17.754  39.362   4.515
50165W        W16574  32.897  15.987  11.133
50166W        W16575   4.068  12.812   4.888
50167W        W16576  10.020  17.314  12.968
50168W        W16577  30.829  39.027   0.892
50169W        W16578   9.594   2.216   1.421
50170W        W16579  28.028   4.242   0.430
50171W        W16580  42.402  38.646  13.784
50172W        W16581  11.299  33.312  12.488
50173W        W16582  12.667   7.614   0.743
50174W        W16583  22.071  20.555  14.368
50175W        W16584  42.852  40.201   2.950
50176W        W16585  43.064  23.915   0.281
50177W        W16586  18.665  23.067   3.231
50178W        W16587  20.237  19.197   4.686
50179W        W16588   8.315  39.293  11.942
50180W        W16589  11.433   3.207  13.620
50181W        W16590   9.162   5.621   4.037
50182W        W16591   8.305  19.017   3.701
50183W        W16592   5.033  27.714  13.383
50184W        W16593  27.685   3.944  13.365
50185W        W16594  26.106   3.533   4.209
50186W        W16595  13.867  27.615  14.908
50187W        W16596  32.345  18.286  14.997
50188W        W16597  36.417  30.167   3.371
50189W        W16598   7.903  33.701   3.113
50190W        W16599  32.955  31.760   0.456
50191W        W16600  12.948  26.109   3.780
50192W        W16601   9.762  30.561   2.852
50193W        W16602   8.666  35.664  13.337
50194W        W16603  16.511  30.584  13.993
50195W        W16604   8.451  20.843   3.300
50196W        W16605  13.539  30.675   1.660
50197W        W16606   3.877  25.304  11.103
50198W        W16607  29.554  39.965  13.320
50199W        W16608  26.378  19.173   1.791
50200W        W16609   2.386  22.538   3.217
50201W        W16610  18.162  22.622   3.131
50202W        W16611  41.393  27.232   4.661
50203W        W16612  31.703  28.844   0.308
50204W        W16613   1.797  13.052   0.426
50205W        W16614  36.508   9.654  14.889
50206W        W16615  44.811  20.799   4.902
50207W        W16616   1.299  33.536   2.171
50208W        W16617  15.781   7.796  13.626
50209W        W16618   9.320  26.947   0.356
50210W        W16619   6.415  12.746  14.553
50211W        W16620  24.312  11.245  11.694
50212W        W16621  21.826   9.332   3.460
50213W        W16622  32.628  30.786   3.678
50214W        W16623   3.297  23.491   0.909
50215W        W16624  20.750  33.183   3.831
50216W        W16625  18.769  36.963   4.214
50217W        W16626  17.653  20.569   4.145
50218W        W16627  25.066   9.748   5.267
50219W        W16628  36.552  27.513  14.945
50220W        W16629   2.713  26.896  14.703
50221W        W16630   2.461  39.978   3.153
50222W        W16631  44.939  29.664  12.139
50223W        W16632  10.882  21.500  14.363
50224W        W16633  22.410  26.465  14.956
50225W        W16634  10.648  14.045  14.337
50226W        W16635   0.247  34.225   0.386
50227W        W16636  16.812  19.583  11.966
50228W        W16637   0.680  18.207   3.803
50229W        W16638  24.481   1.696  12.912
50230W        W16639  42.800  10.553   0.481
50231W        W16640  19.652  25.481   0.310
50232W        W16641  25.467  37.613   1.721
50233W        W16642  38.382  30.926  11.130
50234W        W16643   2.021   6.373   3.666
50235W        W16644  37.631  24.712  14.909
50236W        W16645  26.556   5.127  12.385
50237W        W16646  32.617  12.788  11.917
50238W        W16647  18.049  22.884   4.080
50239W        W16648  44.272  24.542   2.824
50240W        W16649  37.781  33.681  14.819
50241W        W16650  28.823  29.082   1.720
50242W        W16651  35.377  39.485   2.447
50243W        W16652  34.889  39.455   1.710
50244W        W16653  11.376  36.009  13.606
50245W        W16654  24.565  15.211  11.885
50246W        W16655  38.737  42.537   3.068
50247W        W16656  24.212  15.784  14.926
50248W        W16657  18.503  19.721   0.905
50249W        W16658  29.172   8.875  11.970
50250W        W16659  42.722  30.982  14.433
50251W        W16660  26.346  33.818  11.632
50252W        W16661  24.986  13.686   0.413
50253W        W16662  24.664   7.799   3.039
50254W        W16663  12.690  40.340   4.071
50255W        W16664   9.324  17.594   1.902
50256W        W16665   4.947  16.371  11.857
50257W        W16666   3.767  44.391  10.095
50258W        W16667  33.826  11.079  14.464
50259W        W16668  22.003  29.214   3.271
50260W        W16669  25.490   3.384   2.316
50261W        W16670  34.656  13.561   3.736
50262W        W16671  11.321  10.286   0.048
50263W        W16672  12.011  37.353  12.920
50264W        W16673  32.818  32.396  12.873
50265W        W16674  22.059  11.161   2.748
50266W        W16675  22.164   9.365   2.469
50267W        W16676  44.373  31.568  13.498
50268W        W16677   3.812   9.435  13.023
50269W        W16678  31.074   2.378  12.615
50270W        W16679  29.114  29.735  10.289
50271W        W16680  20.104  22.059  11.600
50272W        W16681  18.789  19.677   0.448
50273W        W16682  41.242   2.508  10.713
50274W        W16683  44.569  12.418  14.446
50275W        W16684  31.534  27.024  11.690
50276W        W16685  43.572   4.690  12.269
50277W        W16686   7.096   5.547   1.720
50278W        W16687  16.237  35.570   3.943
50279W        W16688  17.015  17.608  10.788
50280W        W16689   7.785  17.346   1.976
50281W        W16690  38.192   9.290   2.518
50282W        W16691  35.404  28.094   2.368
50283W        W16692   1.277  42.145  11.880
50284W        W16693  18.731   1.006   3.391
50285W        W16694   6.246  23.550  11.543
50286W        W16695  43.627  37.508  14.695
50287W        W16696  35.007   8.485  11.398
50288W        W16697   5.279  38.974   4.628
50289W        W16698  33.116  30.957   4.778
50290W        W16699   2.395  18.075  10.722
50291W        W16700   5.355  31.965   4.592
50292W        W16701  19.681  37.259  14.862
50293W        W16702   7.107  21.757  14.339
50294W        W16703  32.209  24.706   1.276
50295W        W16704  37.525  28.481   1.778
50296W        W16705  33.351  16.600   0.914
50297W        W16706  33.905  43.521   3.191
50298W        W16707  30.680  20.041   5.314
50299W        W16708  12.285  21.177   1.855
50300W        W16709  32.420  19.420   2.243
50301W        W16710   4.443  21.464   2.769
50302W        W16711  10.361  23.888   0.177
50303W        W16712   8.336  11.172  14.046
50304W        W16713   2.720   0.384   3.537
50305W        W16714  33.653  29.623  13.600
50306W        W16715  26.547  28.738   3.579
50307W        W16716  18.849  30.479  10.711
50308W        W16717  20.576   3.134  11.172
50309W        W16718  33.737  29.007  13.958
50310W        W16719   3.658  16.266   2.709
50311W        W16720  30.685   0.545  13.002
50312W        W16721   3.451  28.584  12.076
50313W        W16722  28.712  36.539  12.045
50314W        W16723  33.535  23.238   0.036
50315W        W16724  20.384  41.340   2.220
50316W        W16725  40.577  13.296  13.091
50317W        W16726  33.206  28.962  13.899
50318W        W16727  19.307   2.434  14.080
50319W        W16728  21.081  31.035  14.908
50320W        W16729   3.654  11.823   5.074
50321W        W16730   1.839  31.405  13.492
50322W        W16731  19.749  33.458  10.544
50323W        W16732  19.311   9.537   3.143
50324W        W16733  25.049  13.260  14.686
50325W        W16734  23.634  10.354  13.501
50326W        W16735  17.063   3.344  14.744
50327W        W16736  17.344  27.191  14.820
50328W        W16737  14.357  34.542  10.373
50329W        W16738  28.579  43.687   2.910
50330W        W16739  17.776  20.257   0.752
50331W        W16740  24.085  30.634   3.759
50332W        W16741  30.916   7.211   3.648
50333W        W16742   4.321  42.917   2.711
50334W        W16743  13.661  18.561   4.582
50335W        W16744   7.759   4.220   4.906
50336W        W16745  31.573  44.680   1.381
50337W        W16746  35.722   9.305  13.369
50338W        W16747  27.962  21.425  14.383
50339W        W16748  30.383  30.170   3.881
50340W        W16749  33.959  14.094   2.816
50341W        W16750  37.407   9.579  12.097
50342W        W16751   8.675  38.508  13.633
50343W        W16752   5.863  39.343  11.464
50344W        W16753  36.511   7.111  13.304
50345W        W16754  33.172  30.830   0.984
50346W        W16755  43.806  17.752   1.712
50347W        W16756   8.138  27.424   1.394
50348W        W16757  11.307  24.963   2.287
50349W        W16758   1.827  40.038   1.996
50350W        W16759  15.350  35.302   4.229
50351W        W16760   6.161  43.695   3.585
50352W        W16761  38.056  34.605   0.898
50353W        W16762   1.452  32.388  11.736
50354W        W16763  25.831  11.547   4.149
50355W        W16764   0.284  11.223   1.120
50356W        W16765   9.819  16.019  11.866
50357W        W16766  35.855  44.418  12.613
50358W        W16767  38.809  42.029   3.235
50359W        W16768   2.813   0.970   1.414
50360W        W16769  16.072   1.347  11.547
50361W        W16770   7.207   5.315  14.979
50362W        W16771  10.927  32.186  14.926
50363W        W16772  39.638  14.272  12.503
50364W        W16773  23.210  39.585  12.954
50365W        W16774  29.560  15.688   0.252
50366W        W16775  34.019  25.160   2.605
50367W        W16776  12.876  20.720   3.583
50368W        W16777  38.142  40.712   3.817
50369W        W16778   1.507  41.845   4.085
50370W        W16779  24.281  10.271  12.141
50371W        W16780  20.168  15.385   4.401
50372W        W16781  11.769  23.845   2.380
50373W        W16782  21.177   8.482  14.472
50374W        W16783   2.743  32.861   1.415
50375W        W16784  44.690  26.422  13.565
50376W        W16785  12.291  32.915   3.710
50377W        W16786  26.453  19.121  11.596
50378W        W16787  21.111  17.022   4.681
50379W        W16788   7.823  37.712   2.688
50380W        W16789   2.559  30.440  10.377
50381W        W16790  39.789  35.395   1.886
50382W        W16791  43.557   3.229  13.409
50383W        W16792  13.053   9.556   0.517
50384W        W16793  34.901  21.442   1.308
50385W        W16794  24.653   9.433  11.208
50386W        W16795  43.302  37.777   4.215
50387W        W16796   4.838  11.357  10.028
50388W        W16797  24.819   3.781   4.027
50389W        W16798  34.840  12.729   2.859
50390W        W16799   5.700   4.123  12.182
50391W        W16800   8.444   5.334   0.913
50392W        W16801  42.478  40.966   4.564
50393W        W16802  29.275   6.708   1.655
50394W        W16803  31.547  17.661   0.494
50395W        W16804  15.427  26.163  10.852
50396W        W16805  44.772   8.389   2.338
50397W        W16806   5.482  37.399   2.579
50398W        W16807  28.828   4.484  14.003
50399W        W16808  18.549   2.662  11.656
50400W        W16809  20.297  35.775   4.356
50401W        W16810  28.335  30.416   0.708
50402W        W16811   1.257  21.022   1.923
50403W        W16812  29.627   8.164  10.589
50404W        W16813  12.261  23.528  11.470
50405W        W16814  33.152  11.627  10.640
50406W        W16815  31.290   1.766  10.543
50407W        W16816  43.377  14.126  10.700
50408W        W16817   9.720  29.922  11.697
50409W        W16818   4.874  17.560   1.369
50410W        W16819  29.577  17.603  12.070
50411W        W16820   1.261  33.047  12.884
50412W        W16821  12.775  20.125  14.538
50413W        W16822  26.085  43.594   3.717
50414W        W16823  37.916  41.982   2.329
50415W        W16824   5.610  18.100  11.075
50416W        W16825  16.688  23.621   0.440
50417W        W16826  41.747  23.091  10.734
50418W        W16827  42.783  19.022  14.555
50419W        W16828  14.365  42.937  12.412
50420W        W16829  42.069   2.228   1.105
50421W        W16830  35.842  12.930  12.411
50422W        W16831   2.894  14.678   4.453
50423W        W16832  29.883  29.560  13.497
50424W        W16833   4.239  25.118   5.068
50425W        W16834  37.525   9.154  14.252
50426W        W16835  35.140  36.148  10.674
50427W        W16836  14.673   8.054  12.990
50428W        W16837  20.545  43.735  14.041
50429W        W16838   6.346   5.586   0.837
50430W        W16839  17.322  38.572  14.276
50431W        W16840  22.465  40.551  13.524
50432W        W16841  16.216   5.213  10.740
50433W        W16842  21.254   8.159   1.740
50434W        W16843  40.810   6.522   1.602
50435W        W16844  18.523  39.073   0.319
50436W        W16845  26.981  16.730  13.585
50437W        W16846  18.236  11.095   4.673
50438W        W16847   9.659  27.991   3.115
50439W        W16848  30.492   3.909  14.572
50440W        W16849   7.304   8.639  14.521
50441W        W16850   8.341  33.116  13.276
50442W        W16851  12.397  34.987  10.450
50443W        W16852   8.800   1.963   0.781
50444W        W16853  25.521  30.468   3.290
50445W        W16854  31.163  44.978   1.408
50446W        W16855  21.735   5.934  12.475
50447W        W16856  27.721  39.872   3.983
50448W        W16857  29.491  28.202   2.578
50449W        W16858  33.898  26.610  14.086
50450W        W16859  33.046  40.045   2.581
50451W        W16860   9.433  30.688   9.864
50452W        W16861  27.073   1.776   4.881
50453W        W16862  30.863  13.782  10.525
50454W        W16863  41.605  12.809   1.785
50455W        W16864   9.979  11.558  12.426
50456W        W16865  39.314  23.137  13.418
50457W        W16866  21.227  10.079   3.783
50458W        W16867  12.477  33.669  11.131
50459W        W16868   8.632  41.986  12.895
50460W        W16869   4.824  23.549   0.059
50461W        W16870  27.580  16.366   2.805
50462W        W16871  15.881  33.563  14.069
50463W        W16872   2.723  23.244  11.320
50464W        W16873  44.232  16.967   1.275
50465W        W16874  12.431  33.507  14.566
50466W        W16875   0.105  35.316   2.601
50467W        W16876   3.569  12.594   1.367
50468W        W16877  43.946  38.949   4.106
50469W        W16878  35.806  38.617   4.477
50470W        W16879   5.718  15.255  12.031
50471W        W16880  30.983  11.747   0.701
50472W        W16881   3.291   8.067   0.798
50473W        W16882  37.334   6.780  10.734
50474W        W16883   8.410  10.801  14.946
50475W        W16884  16.815  20.311   0.893
50476W        W16885  39.529   3.460   4.521
50477W        W16886  36.805  35.628  13.905
50478W        W16887  39.801   6.931  14.944
50479W        W16888  39.477  17.233   0.917
50480W        W16889  14.338  15.280  11.930
50481W        W16890  11.806  38.811  13.725
50482W        W16891  23.172  21.254  14.593
50483W        W16892  18.002  29.534  11.167
50484W        W16893  10.291  18.236   2.634
50485W        W16894  41.861  31.316  14.492
50486W        W16895   2.450  40.468   2.779
50487W        W16896  10.082  15.615  11.504
50488W        W16897  12.631  14.625   2.648
50489W        W16898  14.306  19.766   3.010
50490W        W16899  19.724  40.908   1.481
50491W        W16900  36.378  31.138  12.003
50492W        W16901  44.582  12.940  14.459
50493W        W16902  21.292  19.146   3.754
50494W        W16903  29.398   7.425  12.410
50495W        W16904  14.551  43.892  11.714
50496W        W16905  20.911  44.832   1.697
50497W        W16906   7.437  14.634   1.247
50498W        W16907   4.498  13.771   3.164
50499W        W16908   0.037  19.282   4.646
50500W        W16909  20.717   6.035  13.372
50501W        W16910  32.081  21.286   0.955
50502W        W16911  16.567  22.425   1.741
50503W        W16912   1.392   3.799  14.447
50504W        W16913  27.953   5.872   3.590
50505W        W16914   5.267   2.030   2.633
50506W        W16915  44.455  12.907  13.005
50507W        W16916  37.945   0.534  13.021
50508W        W16917  32.943   9.041  12.927
50509W        W16918  28.566   3.703  14.228
50510W        W16919  43.578   4.236  13.007
50511W        W16920  38.033  24.683  11.232
50512W        W16921   5.450   9.701  12.522
50513W        W16922  35.043  21.742  12.489
50514W        W16923  22.578  23.697   1.831
50515W        W16924   9.298  24.562  11.440
50516W        W16925  13.331  14.549   3.771
50517W        W16926  14.227  41.720  12.431
50518W        W16927  21.745  36.445   4.197
50519W        W16928   8.371   1.026  11.592
50520W        W16929  32.716  16.750  12.331
50521W        W16930  12.621  44.705   0.856
50522W        W16931   7.291  41.424  11.216
50523W        W16932  19.224  26.447  13.965
50524W        W16933  16.334   1.845   2.555
50525W        W16934   8.420  30.565   3.661
50526W        W16935  16.802   9.897   4.111
50527W        W16936  34.282  23.077   2.494
50528W        W16937  22.572   8.534   1.950
50529W        W16938  11.934  10.003  11.808
50530W        W16939  43.147  35.751  11.214
50531W        W16940   6.930   8.286  13.775
50532W        W16941  11.831  43.391  14.540
50533W        W16942   1.371   3.360  12.927
50534W        W16943  24.174  23.299   0.756
50535W        W16944  31.371  39.524   3.746
50536W        W16945  37.979  19.526   2.901
50537W        W16946  21.573  36.842  14.765
50538W        W16947  44.506  32.082  14.878
50539W        W16948  44.815   2.234   0.992
50540W        W16949  13.327  20.061   2.801
50541W        W16950  21.301  40.854  12.799
50542W        W16951  17.077  27.589  11.910
50543W        W16952  34.415  13.847   4.818
50544W        W16953   9.132  14.719   1.997
50545W        W16954  29.571  10.757  11.824
50546W        W16955  25.815  20.177  12.904
50547W        W16956  41.823  27.966  11.684
50548W        W16957  28.180   9.162   3.712
50549W        W16958  23.909   1.965   4.066
50550W        W16959  16.170  26.476  14.485
50551W        W16960  32.883   9.120   3.808
50552W        W16961  27.257   3.313  13.883
50553W        W16962  30.941  24.974   4.603
50554W        W16963  27.414  43.124   4.734
50555W        W16964  41.235   1.179   2.900
50556W        W16965  14.978   7.566   4.210
50557W        W16966  40.343  17.003   0.429
50558W        W16967  22.290  20.671   1.413
50559W        W16968   9.756  26.352  12.384
50560W        W16969  12.584  21.606  13.872
50561W        W16970  14.192  38.095  14.774
50562W        W16971   5.332  14.629  12.590
50563W        W16972  24.679  12.893   3.648
50564W        W16973  32.621  41.338   3.068
50565W        W16974   1.559  22.986  13.252
50566W        W16975   8.870  13.175  13.497
50567W        W16976  14.563  22.295   0.392
50568W        W16977  37.898  31.562  12.958
50569W        W16978   0.475  11.721  12.978
50570W        W16979   5.490  27.805  12.597
50571W        W16980  16.760  35.510  11.014
50572W        W16981   2.890  12.740  12.924
50573W        W16982   8.170  10.458   3.662
50574W        W16983  27.603  30.386   3.448
50575W        W16984   3.171  26.610  12.957
50576W        W16985  37.428  19.791   1.051
50577W        W16986  33.405  32.071  12.507
50578W        W16987  28.906  11.338   3.010
50579W        W16988   6.486  35.598  10.641
50580W        W16989   5.274  15.257   1.408
50581W        W16990   1.336   6.912   2.206
50582W        W16991  16.582  41.981  13.576
50583W        W16992  15.116  42.579   2.918
50584W        W16993  36.205  25.481   2.715
50585W        W16994  40.821   3.848   4.118
50586W        W16995   9.711  34.554   1.034
50587W        W16996   4.442  20.971  11.610
50588W        W16997  25.113  14.132   1.715
50589W        W16998   7.813  41.639  12.076
50590W        W16999  30.703  39.780  11.232
50591W        W17000  39.782  17.837   3.697
50592W        W17001  37.508  19.592   3.634
50593W        W17002  37.418  21.547  10.916
50594W        W17003  36.464  31.447  10.704
50595W        W17004  22.149  43.905   1.757
50596W        W17005  31.634  15.515   2.873
50597W        W17006   0.259  33.271   4.972
50598W        W17007  12.864  22.237  14.597
50599W        W17008  27.047   1.490   0.833
50600W        W17009   9.670   6.802  11.937
50601W        W17010  39.393  16.762  13.064
50602W        W17011  32.342  14.590  12.064
50603W        W17012  11.788   3.675   0.875
50604W        W17013  30.961  27.283  13.397
50605W        W17014  38.474  22.453   1.452
50606W        W17015   6.239   1.090   1.391
50607W        W17016   0.933  31.590  11.635
50608W        W17017  11.617  40.871   2.194
50609W        W17018  12.798  42.906  11.632
50610W        W17019  44.724  18.516   0.920
50611W        W17020   9.438   1.888  14.464
50612W        W17021  41.827  13.661   4.144
50613W        W17022   4.888   6.329   3.273
50614W        W17023  36.431  43.199  12.945
50615W        W17024   9.172  14.157   0.248
50616W        W17025  16.222   6.448  13.519
50617W        W17026  38.015  28.695   1.763
50618W        W17027  16.199  31.453   0.331
50619W        W17028  32.108  11.184   0.989
50620W        W17029  23.687   7.706  11.544
50621W        W17030  18.590  18.539   1.802
50622W        W17031  42.237  13.418  11.567
50623W        W17032  28.948  23.017  10.397
50624W        W17033  11.942  40.884  12.125
50625W        W17034  11.271   8.037   0.425
50626W        W17035  18.660   4.443  12.148
50627W        W17036  34.384  10.251   2.193
50628W        W17037   4.912  44.278   0.317
50629W        W17038  14.559  34.398  10.833
50630W        W17039  43.047   8.695  11.200
50631W        W17040  26.183  10.956  12.884
50632W        W17041  41.107   7.050   4.070
50633W        W17042  22.565   4.450  11.718
50634W        W17043  31.326   5.191   2.459
50635W        W17044  15.228   4.638   2.308
50636W        W17045   0.856  44.755  11.551
50637W        W17046  27.721  34.458  12.991
50638W        W17047  30.882   8.731   0.256
50639W        W17048  43.883  25.134   3.430
50640W        W17049  34.976  41.255   0.336
50641W        W17050  23.922  33.628   4.089
50642W        W17051  40.789   4.788  11.683
50643W        W17052   4.056  34.734   4.451
50644W        W17053  37.715  36.554  14.744
50645W        W17054  33.719   1.320  14.523
50646W        W17055  34.816   8.600   4.084
50647W        W17056  30.603  33.535  10.982
50648W        W17057  34.345   9.362  13.408
50649W        W17058  33.492  40.090   2.790
50650W        W17059   2.012  28.417  12.484
50651W        W17060  40.951  25.126   3.213
50652W        W17061  43.396  15.407   1.889
50653W        W17062  38.486  39.277  12.586
50654W        W17063  10.568  30.110  10.674
50655W        W17064  25.638   7.398  11.056
50656W        W17065   2.108  41.928   4.791
50657W        W17066  21.207   8.763  11.137
50658W        W17067  17.729  10.502  12.063
50659W        W17068  11.893   1.992   3.675
50660W        W17069  32.085  30.369  10.847
50661W        W17070  38.398  20.388   5.627
50662W        W17071  19.798  35.873   2.610
50663W        W17072  26.244   4.917   0.238
50664W        W17073  22.771  29.464  11.218
50665W        W17074  29.134   5.493  14.037
50666W        W17075  27.762  37.374   2.650
50667W        W17076  25.494  17.668  13.725
50668W        W17077   9.949  15.665  13.720
50669W        W17078  25.502  30.174   4.539
50670W        W17079   5.260  11.408  14.701
50671W        W17080  16.086  43.845   4.381
50672W        W17081  43.171   5.217  14.005
50673W        W17082   9.232  29.750  11.002
50674W        W17083  21.983  28.275   2.339
50675W        W17084  10.597  21.711   1.267
50676W        W17085   7.484  19.608   0.587
50677W        W17086  35.937  29.525   4.056
50678W        W17087  20.734  38.909   3.339
50679W        W17088  23.518   0.513  10.524
50680W        W17089  12.818  39.816   4.157
50681W        W17090  32.949  11.542   0.931
50682W        W17091  15.285  18.089  13.866
50683W        W17092  37.509  16.695  12.757
50684W        W17093  43.276   2.291   1.654
50685W        W17094  26.795  31.042  14.404
50686W        W17095  30.860   9.788   0.666
50687W        W17096  15.717  43.511  13.336
50688W        W17097  41.079  42.520   3.077
50689W        W17098  43.266   5.420  14.954
50690W        W17099  22.509  29.191   1.188
50691W        W17100  29.370  17.034  13.447
50692W        W17101   4.858  32.979   2.195
50693W        W17102  42.252  13.184  11.088
50694W        W17103  20.044   7.289   3.872
50695W        W17104  38.997  40.200   1.852
50696W        W17105  30.869  12.934   1.689
50697W        W17106  19.686  27.995   2.723
50698W        W17107  28.112  14.036  10.678
50699W        W17108   0.976   0.399  14.590
50700W        W17109  38.997  12.489  13.305
50701W        W17110   9.801  17.027  13.468
50702W        W17111  27.987   7.757   3.197
50703W        W17112  40.386  19.873  10.892
50704W        W17113  43.278  11.151   1.787
50705W        W17114   1.905  29.170   2.222
50706W        W17115  14.333   7.226  11.090
50707W        W17116  41.904  14.086  13.403
50708W        W17117   1.540  13.895   1.722
50709W        W17118  16.622   6.642   2.143
50710W        W17119  24.527   2.455   0.830
50711W        W17120  37.086  15.900   0.229
50712W        W17121  21.303   0.755   3.113
50713W        W17122   0.247   1.535  13.073
50714W        W17123  42.692  19.704  14.104
50715W        W17124  12.532  18.266   1.859
50716W        W17125  37.021  33.143   2.859
50717W        W17126  29.292  31.087   3.987
50718W        W17127  26.417   3.360   0.876
50719W        W17128  42.998  13.163  10.379
50720W        W17129   6.135   2.761   3.721
50721W        W17130  20.704  37.866  10.923
50722W        W17131  12.937  29.659  14.946
50723W        W17132  14.752  18.148   1.962
50724W        W17133  41.738  22.977  11.711
50725W        W17134  37.079  28.187   1.651
50726W        W17135  11.899   6.209   5.066
50727W        W17136   7.433  15.740   1.036
50728W        W17137  16.506  17.408  14.869
50729W        W17138  35.612  24.180  11.630
50730W        W17139  43.024  32.498   0.806
50731W        W17140  34.174  21.141  12.934
50732W        W17141  28.264  32.073   1.418
50733W        W17142  31.816  12.166   3.729
50734W        W17143   7.617  43.872   3.583
50735W        W17144  42.850  37.374  10.288
50736W        W17145  25.097  41.094   0.131
50737W        W17146   0.552  24.016  12.414
50738W        W17147  26.419  15.778   4.571
50739W        W17148  35.601  20.180   2.415
50740W        W17149  27.106  40.044   3.177
50741W        W17150  28.456  19.868  11.904
50742W        W17151  11.415  27.133   0.233
50743W        W17152   5.146  20.322  13.022
50744W        W17153  28.809  11.403   3.635
50745W        W17154   2.856  39.833   2.850
50746W        W17155  23.296  43.860  11.916
50747W        W17156  44.292  26.648  12.630
50748W        W17157  26.184  34.064   2.689
50749W        W17158  26.029  28.298  14.530
50750W        W17159   3.855  15.465   3.322
50751W        W17160  14.747  22.302   2.196
50752W        W17161  41.384  29.960  10.650
50753W        W17162   4.660  29.246   0.673
50754W        W17163  32.052  25.438   2.132
50755W        W17164  33.063  43.569  13.821
50756W        W17165  10.755  15.707   4.079
50757W        W17166  14.798  19.188   0.929
50758W        W17167  11.072  29.558   1.775
50759W        W17168  27.919   2.257   2.176
50760W        W17169  32.968   7.852  12.483
50761W        W17170  14.080   5.430   1.717
50762W        W17171  30.547  24.756   4.853
50763W        W17172   2.718  28.449   3.664
50764W        W17173  43.043   6.569  12.832
50765W        W17174  42.381  17.698  13.670
50766W        W17175  44.859  16.834   1.982
50767W        W17176  33.497  17.893  11.766
50768W        W17177  40.216  16.475   4.498
50769W        W17178   6.041  16.722   4.707
50770W        W17179  36.058  31.887   2.175
50771W        W17180   0.521  32.336  14.841
50772W        W17181   8.280   7.882  13.421
50773W        W17182  36.009  19.539   1.547
50774W        W17183  38.605   6.327   4.523
50775W        W17184   5.414  33.695   2.378
50776W        W17185  35.403  44.456  13.853
50777W        W17186  32.992  10.067   3.037
50778W        W17187  35.133  26.918  11.156
50779W        W17188  13.790  29.146  11.542
50780W        W17189   9.800   4.352  12.445
50781W        W17190  34.478  25.649  12.168
50782W        W17191   3.784  27.943   2.219
50783W        W17192   7.486  28.355   4.617
50784W        W17193  10.752  43.802   1.877
50785W        W17194  15.352  43.068  11.586
50786W        W17195  44.057  12.983   2.122
50787W        W17196  43.572  28.972   3.224
50788W        W17197  32.549   0.220   3.652
50789W        W17198   3.285  18.307   3.655
50790W        W17199  18.515  25.485   1.713
50791W        W17200  20.919  41.130   0.566
50792W        W17201  34.367   8.893   1.946
50793W        W17202  31.981  20.310   4.593
50794W        W17203  34.839  25.664   2.405
50795W        W17204   6.064   8.272   1.799
50796W        W17205   4.421   6.705  13.420
50797W        W17206  24.469  30.549   2.309
50798W        W17207  23.543  43.942   4.564
50799W        W17208  42.709  18.777   4.133
50800W        W17209  44.984  41.232   4.738
50801W        W17210  11.723  21.645   4.419
50802W        W17211   8.355   3.162  12.402
50803W        W17212  19.853  10.796   3.263
50804W        W17213   7.097   6.899   2.863
50805W        W17214  14.052  29.620   2.402
50806W        W17215  20.115   7.774  12.519
50807W        W17216  18.143  10.957   2.918
50808W        W17217  16.026  33.868  10.664
50809W        W17218  11.506  30.002  10.941
50810W        W17219  11.744  15.778   4.477
50811W        W17220  19.479  41.147   3.756
50812W        W17221  42.376  11.318   1.262
50813W        W17222   8.686   4.694   0.328
50814W        W17223  38.323  40.347   3.130
50815W        W17224  43.842   9.845   2.254
50816W        W17225  23.910   4.299  13.530
50817W        W17226  32.829  20.033   3.757
50818W        W17227  44.994  41.884   0.754
50819W        W17228   4.120  42.424   2.718
50820W        W17229  33.683   7.178   4.115
50821W        W17230  38.412  15.613  14.538
50822W        W17231  21.063  33.618  12.462
50823W        W17232  40.857  44.474   2.785
50824W        W17233  13.810  40.931  14.302
50825W        W17234  22.533  17.170   2.223
50826W        W17235   9.383  16.341   2.928
50827W        W17236  14.920  40.882   3.814
50828W        W17237   0.814   3.834   3.221
50829W        W17238  40.739  16.141  14.440
50830W        W17239  41.356  41.370  14.065
50831W        W17240   7.439  37.558   2.342
50832W        W17241  25.053  29.553   0.833
50833W        W17242  38.172  30.475  10.603
50834W        W17243  37.896   5.260   3.295
50835W        W17244  13.048  20.038  11.446
50836W        W17245  29.356  44.642   0.749
50837W        W17246   4.618  44.733   3.682
50838W        W17247  37.609   5.915   1.208
50839W        W17248  29.311  41.758  12.091
50840W        W17249   2.787  29.955  14.264
50841W        W17250  24.967  32.010   0.339
50842W        W17251  26.535   3.266   2.794
50843W        W17252  42.795  12.108   4.869
50844W        W17253  16.144   6.353  11.589
50845W        W17254  33.883  25.948  11.557
50846W        W17255  14.173  42.579  11.721
50847W        W17256   7.766   5.871  13.238
50848W        W17257   0.901  44.072   2.620
50849W        W17258  33.896  25.033  11.494
50850W        W17259  27.076  25.550  14.508
50851W        W17260  40.620  20.355  12.667
50852W        W17261  30.293  38.388  12.507
50853W        W17262  34.111   5.724  13.541
50854W        W17263  36.034  31.621  11.888
50855W        W17264  21.915  38.851  11.711
50856W        W17265  13.739  29.738   4.067
50857W        W17266  28.999  12.612   0.847
50858W        W17267  40.994   8.754   0.394
50859W        W17268  40.593  12.878  12.054
50860W        W17269  38.405  16.987  11.644
50861W        W17270   7.303  43.520   1.236
50862W        W17271  15.737  23.026   4.593
50863W        W17272  19.674  20.287  11.123
50864W        W17273  44.386   6.407  13.290
50865W        W17274  40.818   4.306   2.735
50866W        W17275   9.547  40.515  14.160
50867W        W17276  40.261  13.611   4.159
50868W        W17277  35.364  14.789  11.412
50869W        W17278  29.066  22.538   3.385
50870W        W17279  17.838  38.491   4.991
50871W        W17280  27.310  33.627   4.629
50872W        W17281  25.647   2.817   0.793
50873W        W17282   9.288  20.701  12.435
50874W        W17283  25.176  32.047   2.231
50875W        W17284  19.000   9.907  14.943
50876W        W17285  38.661  14.252   4.539
50877W        W17286  19.723  17.037  10.754
50878W        W17287  24.786  19.751   3.445
50879W        W17288  10.382  33.050  13.720
50880W        W17289   7.931  34.769  11.611
50881W        W17290   5.642  37.941   0.932
50882W        W17291   2.536  13.799  11.140
50883W        W17292  30.942  30.964   0.443
50884W        W17293   3.557  44.661   1.409
50885W        W17294  38.282  42.035   1.965
50886W        W17295  16.181  25.725   3.623
50887W        W17296  29.433  41.209  12.059
50888W        W17297  30.615  16.092  14.517
50889W        W17298  32.472  33.951  10.958
50890W        W17299  25.944  12.244   2.722
50891W        W17300   1.383  21.701   4.166
50892W        W17301  30.362  33.639  12.453
50893W        W17302   2.628  31.537   0.323
50894W        W17303   8.399   7.610   0.862
50895W        W17304   7.383  37.496   1.427
50896W        W17305  22.077  25.801   3.209
50897W        W17306   7.891  32.939   2.777
50898W        W17307  11.166  36.999   3.725
50899W        W17308  19.831  18.586  14.363
50900W        W17309   8.745  37.496  13.013
50901W        W17310  44.775  40.232   3.202
50902W        W17311   1.884  44.038  12.465
50903W        W17312  44.322  34.627  12.569
50904W        W17313  14.686   7.658  12.614
50905W        W17314  30.519  18.510  13.233
50906W        W17315   6.735   3.760  10.745
50907W        W17316   4.613  32.431   0.771
50908W        W17317  12.103  30.695   0.728
50909W        W17318  43.521  40.012   2.617
50910W        W17319  12.206  14.229   0.427
50911W        W17320  16.012  16.302   3.131
50912W        W17321  23.447  36.602  12.203
50913W        W17322  36.348  14.902   3.295
50914W        W17323  24.746  18.159  11.415
50915W        W17324  10.632  42.830  10.590
50916W        W17325  29.392   1.464   1.384
50917W        W17326  27.365  39.582  12.830
50918W        W17327  44.473  42.608   3.242
50919W        W17328  33.470  11.405   0.740
50920W        W17329  11.569  26.596  12.255
50921W        W17330   0.091  10.595   0.524
50922W        W17331  26.523   6.559   2.396
50923W        W17332  43.853  30.120   4.070
50924W        W17333  14.259  33.564   2.017
50925W        W17334  15.798  25.290   4.032
50926W        W17335  23.738   1.946   0.149
50927W        W17336  17.511  41.030   2.466
50928W        W17337   0.412  33.899  13.002
50929W        W17338  44.389  19.300   1.486
50930W        W17339   8.898  31.788  12.115
50931W        W17340   6.889   9.410   4.310
50932W        W17341  15.787  33.361   3.700
50933W        W17342  25.738  27.876   0.660
50934W        W17343  41.842   6.949   4.542
50935W        W17344  24.129  12.910   2.464
50936W        W17345  24.799  40.427   4.602
50937W        W17346   9.730  12.205   1.391
50938W        W17347  41.554   3.467  10.552
50939W        W17348  25.230  41.290  11.144
50940W        W17349  33.602  18.259   0.312
50941W        W17350   2.666  10.622   3.178
50942W        W17351   8.314  26.629   4.140
50943W        W17352  24.663  21.247   1.756
50944W        W17353  29.463  13.587   0.017
50945W        W17354  39.449  35.395   4.149
50946W        W17355  38.892  20.843   5.079
50947W        W17356  33.155  40.499   2.831
50948W        W17357  37.968   6.972  12.487
50949W        W17358  27.213  21.633  12.375
50950W        W17359  27.448  43.484   3.046
50951W        W17360  12.549  34.973   4.117
50952W        W17361  10.234   6.352   4.611
50953W        W17362  29.570   3.204  10.278
50954W        W17363  41.287  25.560   2.276
50955W        W17364  35.119  31.766   2.245
50956W        W17365  29.704  16.237  12.896
50957W        W17366  24.640  32.096  13.916
50958W        W17367  27.051  14.667  10.958
50959W        W17368   7.444   8.221  12.458
50960W        W17369  30.013  19.751   1.960
50961W        W17370  41.373  10.857  11.130
50962W        W17371  23.653  24.720   2.758
50963W        W17372  37.821  21.780   1.276
50964W        W17373  24.622  24.258   2.702
50965W        W17374  26.067  32.015  12.910
50966W        W17375  29.603  17.822   2.054
50967W        W17376  12.954  37.479  12.426
50968W        W17377  34.638  10.398  11.153
50969W        W17378  41.023  42.501   0.535
50970W        W17379  27.048  12.868  12.457
50971W        W17380  20.034   2.125  13.368
50972W        W17381  43.966   8.383   0.892
50973W        W17382  11.783  25.160   4.142
50974W        W17383  26.121  40.224   2.146
50975W        W17384  33.381  15.002   2.464
50976W        W17385  22.097   5.379   4.655
50977W        W17386  36.113  41.035  11.073
50978W        W17387  13.454   4.955   0.343
50979W        W17388  14.068  18.264  13.383
50980W        W17389  42.497   5.584   0.326
50981W        W17390  16.999   6.126  11.050
50982W        W17391   2.230  28.718   4.938
50983W        W17392  10.768   5.755  14.588
50984W        W17393   4.374  33.369   0.834
50985W        W17394  17.180  18.374  14.907
50986W        W17395   3.659   7.628  13.809
50987W        W17396   6.696  16.362   4.257
50988W        W17397  35.742  33.693   2.626
50989W        W17398  29.197  23.739   0.662
50990W        W17399  36.392  29.031   4.733
50991W        W17400   8.346  15.485  13.818
50992W        W17401  13.796  11.267   1.771
50993W        W17402  35.983  26.739  13.309
50994W        W17403  36.808  12.814   3.744
50995W        W17404   0.306   5.229  14.939
50996W        W17405  31.915  27.107   1.766
50997W        W17406  29.580  44.605   4.850
50998W        W17407  28.552  26.973  12.015
50999W        W17408  43.035  41.861  11.643
51000W        W17409   2.196  37.375   2.845
51001W        W17410  34.886  39.220   1.237
51002W        W17411  40.173  16.236  13.305
51003W        W17412  19.129  42.956   1.907
51004W        W17413  18.001  25.602   2.923
51005W        W17414  26.244   0.812   4.723
51006W        W17415   7.731   2.793  12.442
51007W        W17416  13.853  17.041  12.953
51008W        W17417  32.509  41.148  10.544
51009W        W17418  10.393  44.244  13.341
51010W        W17419   3.846  21.118   1.620
51011W        W17420  44.326  15.318   0.736
51012W        W17421  12.157  31.631  11.157
51013W        W17422  42.944  36.931  13.563
51014W        W17423   7.872   7.303  10.759
51015W        W17424  36.092  11.312   4.198
51016W        W17425  31.378   1.156  14.069
51017W        W17426  24.559  32.071   4.432
51018W        W17427   7.600   7.475   3.195
51019W        W17428  37.878  34.520   5.040
51020W        W17429  12.482   7.909  13.395
51021W        W17430   7.094  41.432   0.664
51022W        W17431  33.386  30.059  14.938
51023W        W17432  38.473  42.856   0.486
51024W        W17433   6.667  23.849  10.713
51025W        W17434   7.144  17.011  11.850
51026W        W17435  42.533  24.956  14.429
51027W        W17436   0.996  37.347   3.276
51028W        W17437  24.447  23.747  14.841
51029W        W17438  40.358  12.688  11.613
51030W        W17439  24.092   9.525   0.807
51031W        W17440  19.283  34.441   2.715
51032W        W17441  10.297  39.078   3.687
51033W        W17442  10.859  29.813  14.986
51034W        W17443  16.127   9.622   3.160
51035W        W17444  13.317  35.496  12.897
51036W        W17445  23.046  22.712   0.939
51037W        W17446  15.201  36.537  12.661
51038W        W17447  39.830  32.080   2.704
51039W        W17448  24.168   7.285  10.162
51040W        W17449  11.703   0.259  14.340
51041W        W17450   4.291   6.758  14.997
51042W        W17451  42.613   2.215   0.338
51043W        W17452  44.766  27.166  14.393
51044W        W17453  15.912  23.344  14.894
51045W        W17454  39.290   6.919  14.885
51046W        W17455  17.445   0.262   4.098
51047W        W17456  39.346  24.236   4.656
51048W        W17457  21.556   0.534  13.473
51049W        W17458  30.671   7.328  14.017
51050W        W17459   1.331   4.434   3.745
51051W        W17460  16.050  11.359   3.288
51052W        W17461   4.780  17.794  14.043
51053W        W17462   9.908  10.382   1.553
51054W        W17463  17.852   8.812  10.636
51055W        W17464  23.475  29.984  14.918
51056W        W17465  40.801   4.648  12.956
51057W        W17466   3.440  35.518   4.630
51058W        W17467  33.620   6.334   4.789
51059W        W17468  20.154  34.746   4.375
51060W        W17469  32.507  39.637   1.977
51061W        W17470   9.933  41.297  14.714
51062W        W17471  37.858  31.818  13.408
51063W        W17472  19.181  39.076  11.090
51064W        W17473  22.004  16.776   2.877
51065W        W17474  14.938  17.764  11.691
51066W        W17475  29.346   3.485   2.378
51067W        W17476  28.003  14.927  14.851
51068W        W17477  13.254  14.369  13.876
51069W        W17478  13.146  25.700   2.386
51070W        W17479  10.113  24.512  14.020
51071W        W17480  40.766  23.280  11.574
51072W        W17481   8.121  29.420   4.960
51073W        W17482   8.790  40.433   1.399
51074W        W17483  16.161  38.438   0.632
51075W        W17484  32.365   8.852   0.837
51076W        W17485  10.661  14.978   2.158
51077W        W17486  43.362   9.171  13.369
51078W        W17487  20.572   7.746   3.563
51079W        W17488  18.945  39.555  12.854
51080W        W17489  23.736  43.074  12.833
51081W        W17490  25.119   5.681  11.371
51082W        W17491  43.604  28.168  10.984
51083W        W17492  27.515  28.945   3.572
51084W        W17493  29.673  35.135   1.464
51085W        W17494  38.379  13.715  11.144
51086W        W17495  43.092  15.801   1.283
51087W        W17496  19.689  19.807  13.048
51088W        W17497   5.378  24.026  14.044
51089W        W17498  29.629   9.855   4.656
51090W        W17499  24.784  36.065   4.854
51091W        W17500  43.865  41.223  11.554
51092W        W17501  16.023  28.343   2.314
51093W        W17502  12.456  21.265   4.674
51094W        W17503  37.502   6.984  13.836
51095W        W17504  15.067  35.985  11.988
51096W        W17505  22.629   2.718  13.013
51097W        W17506  43.596   3.464   1.290
51098W        W17507  30.105   8.431   4.043
51099W        W17508  32.740   1.830   0.718
51100W        W17509  27.440   3.526  10.809
51101W        W17510  22.810   7.990  10.748
51102W        W17511  13.394  11.487   2.707
51103W        W17512  12.222  30.555   1.765
51104W        W17513   4.753   9.689  10.562
51105W        W17514  30.578   3.883   0.958
51106W        W17515  37.570  23.142  10.462
51107W        W17516  44.385  21.165   0.695
51108W        W17517  12.079  18.826   2.166
51109W        W17518  11.237  13.136   1.335
51110W        W17519   7.095  17.494  11.619
51111W        W17520  37.670  10.818   2.034
51112W        W17521   6.297  37.366   0.684
51113W        W17522  39.455  43.354  12.096
51114W        W17523  32.127  38.419  11.848
51115W        W17524  27.772  42.363   0.718
51116W        W17525  37.800  29.429  11.971
51117W        W17526   1.245  33.063   3.156
51118W        W17527  20.234  40.098   0.268
51119W        W17528  26.233  38.611   0.441
51120W        W17529  21.941   1.835  11.371
51121W        W17530  11.475  34.951  12.247
51122W        W17531  13.090  13.658  12.468
51123W        W17532  35.112  13.765  11.577
51124W        W17533  32.044  12.212   4.206
51125W        W17534  39.419  31.887  11.750
51126W        W17535  32.661  40.327  11.004
51127W        W17536  15.754  31.366  11.582
51128W        W17537   3.268  24.684  11.974
51129W        W17538  16.696  21.769   0.652
51130W        W17539   7.472  26.558   4.181
51131W        W17540  44.523  22.868   5.053
51132W        W17541  39.346  13.171   2.431
51133W        W17542  28.475  22.378   4.514
51134W        W17543  40.458  34.890  12.746
51135W        W17544  37.147  21.738  14.406
51136W        W17545  34.164  34.927   2.020
51137W        W17546  31.983  14.647  13.326
51138W        W17547  16.826  39.728   1.369
51139W        W17548  19.722   4.602   3.728
51140W        W17549  20.193  23.175  13.990
51141W        W17550  12.166  31.098  11.144
51142W        W17551  38.850  37.688  11.895
51143W        W17552  40.696  30.553  11.506
51144W        W17553  36.840  18.025  12.057
51145W        W17554   5.452  30.667  11.491
51146W        W17555  25.982  32.084   3.760
51147W        W17556   5.785   3.017  14.318
51148W        W17557  12.573   8.590   4.684
51149W        W17558  18.564  21.566   5.001
51150W        W17559  25.509  20.524  13.855
51151W        W17560   6.709  39.729   4.785
51152W        W17561  32.476  20.737   0.234
51153W        W17562  34.392  39.535  12.365
51154W        W17563  20.565  35.105  13.004
51155W        W17564  35.443  33.114   4.621
51156W        W17565  18.434   9.619   2.889
51157W        W17566   2.135  31.368   1.176
51158W        W17567  29.947  40.047  11.211
51159W        W17568  39.342  39.993   2.870
51160W        W17569  10.268  24.657   4.667
51161W        W17570  31.544   5.798   4.593
51162W        W17571  25.040  15.034  11.875
51163W        W17572   1.245  43.741   2.394
51164W        W17573  11.122  30.854   1.438
51165W        W17574  36.893  12.381   4.042
51166W        W17575   1.452   8.257   1.851
51167W        W17576  40.932   1.487   1.878
51168W        W17577  16.271  33.287   3.537
51169W        W17578  24.182   9.713   4.826
51170W        W17579  14.020  27.976  11.256
51171W        W17580  21.249  15.619  12.200
51172W        W17581  16.809  31.975  14.939
51173W        W17582   4.996   4.756  10.672
51174W        W17583  15.260  38.609  10.709
51175W        W17584   8.574  33.568  12.421
51176W        W17585  28.076   8.211  11.413
51177W        W17586  23.581   0.438   1.042
51178W        W17587  26.965  21.101  11.659
51179W        W17588  34.132  34.006  14.737
51180W        W17589  27.565  30.568  10.981
51181W        W17590  32.842   4.574  13.944
51182W        W17591  17.979   2.818   3.015
51183W        W17592  18.030   4.720  14.436
51184W        W17593  40.329   3.108  13.030
51185W        W17594  21.225  23.739   3.260
51186W        W17595  15.482  20.780   4.171
51187W        W17596  11.340  39.523   1.883
51188W        W17597   1.873   4.689   1.690
51189W        W17598   5.576  43.311  13.540
51190W        W17599  31.188  38.308   2.095
51191W        W17600  14.275  21.615   0.983
51192W        W17601  22.527   6.622  11.634
51193W        W17602  39.366  21.632   3.321
51194W        W17603  14.635  39.028   2.066
51195W        W17604   4.709  26.469   0.229
51196W        W17605  33.285  23.160   1.288
51197W        W17606   2.930  39.025  13.679
51198W        W17607  21.109   7.014  11.578
51199W        W17608  37.383   7.631   0.309
51200W        W17609  42.555  15.855  13.366
51201W        W17610  44.240  30.904   4.731
51202W        W17611  31.000  43.120  11.214
51203W        W17612  29.679  15.093  11.560
51204W        W17613  17.191  44.740  14.430
51205W        W17614   9.679  38.288   2.744
51206W        W17615  44.898  25.905  12.953
51207W        W17616  28.400  34.176  11.782
51208W        W17617  16.603   1.361  11.603
51209W        W17618  32.017  36.210   1.315
51210W        W17619  40.488   1.808   1.861
51211W        W17620  10.229   6.192  13.915
51212W        W17621  37.081   7.940   0.716
51213W        W17622  16.738   4.027   2.788
51214W        W17623   9.386  33.084   3.261
51215W        W17624  34.993   0.368  13.524
51216W        W17625  18.173  30.498   3.773
51217W        W17626  30.683  33.020   3.701
51218W        W17627  36.502  30.319  12.484
51219W        W17628  20.227  33.459   4.910
51220W        W17629  21.385   7.255  14.030
51221W        W17630  11.408  24.901   5.020
51222W        W17631  18.799  36.098   3.189
51223W        W17632   9.621   5.652   3.237
51224W        W17633  38.503  10.449  13.909
51225W        W17634  24.102   8.805   4.578
51226W        W17635  33.826  18.084  13.837
51227W        W17636   0.516  10.759  11.076
51228W        W17637  21.775  27.719   2.745
51229W        W17638   9.292  20.729   0.018
51230W        W17639  30.258   0.734   2.199
51231W        W17640  21.796  25.996   1.979
51232W        W17641   9.314  17.176  13.533
51233W        W17642  17.528  31.740  12.888
51234W        W17643   6.898  33.261  14.704
51235W        W17644  44.274  24.017   2.701
51236W        W17645  25.570  14.388  11.989
51237W        W17646   9.999  42.830   1.379
51238W        W17647  43.083   3.416  13.380
51239W        W17648  17.717  10.646  13.370
51240W        W17649  31.223   3.385   0.996
51241W        W17650  10.187  43.792  12.405
51242W        W17651  28.515  39.220  10.999
51243W        W17652   8.806   9.806   3.657
51244W        W17653  21.364   2.685  12.898
51245W        W17654  34.499  23.927   3.683
51246W        W17655  15.167  35.362   5.023
51247W        W17656  39.817  13.795  14.229
51248W        W17657  34.343  34.900   3.398
51249W        W17658  20.024  28.423  12.400
51250W        W17659   7.741  21.670  10.558
51251W        W17660  39.772   6.872  12.454
51252W        W17661  23.891   1.864   2.574
51253W        W17662  20.112  23.601   4.200
51254W        W17663  31.942  32.134  12.017
51255W        W17664  32.193   7.306  10.620
51256W        W17665  38.660  42.322   1.716
51257W        W17666  20.658   4.047  12.321
51258W        W17667  16.878   9.389   4.905
51259W        W17668  34.139  33.580   4.338
51260W        W17669  42.933   7.156   0.613
51261W        W17670  41.420  39.316  11.970
51262W        W17671  13.263  36.768   2.450
51263W        W17672  22.171  12.913  14.896
51264W        W17673  42.422   0.910   0.539
51265W        W17674   0.457  17.812  10.847
51266W        W17675   0.762   6.445  11.584
51267W        W17676  33.981  34.896   0.464
51268W        W17677  26.525   2.496  10.586
51269W        W17678  17.887  25.885   1.281
51270W        W17679   4.333  20.809  13.844
51271W        W17680  15.816  16.864  11.371
51272W        W17681   5.307  14.300  11.729
51273W        W17682  29.219   1.778   0.226
51274W        W17683  27.081   7.172  10.194
51275W        W17684  13.582   5.605   3.609
51276W        W17685  11.831  32.481   3.381
51277W        W17686   6.286  30.319  11.969
51278W        W17687  27.233  16.532   3.677
51279W        W17688  27.050  23.251  13.848
51280W        W17689  18.680  33.056  13.576
51281W        W17690  21.201  25.169  13.523
51282W        W17691  16.186  18.633   3.546
51283W        W17692  26.406  35.126   2.054
51284W        W17693  40.374   2.321   0.350
51285W        W17694  42.942  12.761   1.316
51286W        W17695  34.155  31.418  13.839
51287W        W17696  27.607   5.743   4.562
51288W        W17697   0.339   8.864  13.520
51289W        W17698  30.871   8.276  14.972
51290W        W17699  33.666  31.445  10.438
51291W        W17700  36.613  28.573   4.898
51292W        W17701  40.232  28.200  11.095
51293W        W17702  39.705  27.050   2.458
51294W        W17703  13.868  18.193  14.012
51295W        W17704  33.602  24.150   2.213
51296W        W17705   4.399  11.364  11.974
51297W        W17706  29.415  14.652  13.081
51298W        W17707  20.452  16.118   1.890
51299W        W17708   4.466  44.747   2.342
51300W        W17709  33.952   5.210  11.630
51301W        W17710  16.495  20.139   3.252
51302W        W17711  16.464  36.404   0.754
51303W        W17712  31.910  16.693   0.825
51304W        W17713   2.359  32.464   3.197
51305W        W17714  24.356   8.299  13.916
51306W        W17715  42.811  21.928  12.969
51307W        W17716  16.692   5.366  12.370
51308W        W17717  22.997  21.080   1.476
51309W        W17718  10.257  27.122  11.521
51310W        W17719  42.895  35.038  12.889
51311W        W17720  40.193  42.663   2.703
51312W        W17721   8.160  19.613  11.581
51313W        W17722  25.085   2.511  11.204
51314W        W17723   4.955  35.102   4.158
51315W        W17724  28.777   3.341   5.017
51316W        W17725  12.047  38.010  10.049
51317W        W17726   3.441  16.901  14.986
51318W        W17727  21.757  23.517   4.618
51319W        W17728   7.605   7.766  14.881
51320W        W17729  21.097   7.973   0.426
51321W        W17730  19.570  43.327  12.869
51322W        W17731  22.632   3.879  14.384
51323W        W17732  23.486  35.460  10.903
51324W        W17733   9.875  30.533  10.082
51325W        W17734  14.184  44.574  12.973
51326W        W17735  40.440  28.424   0.623
51327W        W17736  36.483   4.738   3.375
51328W        W17737   4.380  35.982  13.833
51329W        W17738  23.997  17.863   3.885
51330W        W17739  22.002  41.867   0.892
51331W        W17740  26.669   5.884  12.048
51332W        W17741  20.805   8.289  14.116
51333W        W17742  13.134  24.162  13.686
51334W        W17743   2.284  12.829  14.820
51335W        W17744  29.943  18.617   4.710
51336W        W17745  39.037   6.365  13.429
51337W        W17746  26.124  20.533   1.630
51338W        W17747  24.223  41.492   2.772
51339W        W17748  43.226  40.139   0.235
51340W        W17749   4.777  39.920   3.344
51341W        W17750  30.152  20.559  13.582
51342W        W17751   5.878  14.183   1.619
51343W        W17752   2.254  16.629   2.436
51344W        W17753   2.837  36.976   3.208
51345W        W17754   6.219  22.901   2.307
51346W        W17755  38.780  34.539   4.615
51347W        W17756  18.897  10.804  11.436
51348W        W17757  12.654  20.343  11.488
51349W        W17758  19.523  18.275  10.868
51350W        W17759   2.619  36.452   1.950
51351W        W17760   3.532  26.517  14.905
51352W        W17761  23.239  39.911   1.322
51353W        W17762  18.304  17.519  13.910
51354W        W17763  14.124   3.401  10.679
51355W        W17764  22.538  19.761   2.346
51356W        W17765  23.174   6.445   1.304
51357W        W17766  23.597  27.134   1.220
51358W        W17767  23.748  22.922  14.974
51359W        W17768  15.845  23.537   2.733
51360W        W17769  39.302  15.078  14.363
51361W        W17770   1.626   1.048   2.067
51362W        W17771  20.072   9.296  12.394
51363W        W17772  42.497  32.086  13.923
51364W        W17773  14.831  10.775  14.333
51365W        W17774  19.196  42.143   3.699
51366W        W17775  29.016   9.973   2.243
51367W        W17776  44.950  24.604   0.438
51368W        W17777  20.834  16.126  14.367
51369W        W17778  40.917   0.482   2.765
51370W        W17779  21.467  29.992  11.209
51371W        W17780   8.266  44.436  11.522
51372W        W17781   7.126   6.728   3.757
51373W        W17782   6.376  31.513  14.804
51374W        W17783  30.582  10.828   2.981
51375W        W17784  26.550  24.014  14.991
51376W        W17785  44.273  20.635   2.792
51377W        W17786  18.179  41.993   1.360
51378W        W17787  28.450  31.938   4.789
51379W        W17788  42.695  37.544  12.096
51380W        W17789  24.646  40.367  14.987
51381W        W17790   2.486   9.551  13.025
51382W        W17791  32.694  14.617   2.935
51383W        W17792  34.931   0.859  12.633
51384W        W17793  27.675  26.667   2.059
51385W        W17794   5.192   8.911   2.734
51386W        W17795  18.755  42.202   1.108
51387W        W17796  31.398  37.015   0.367
51388W        W17797  36.279  13.676  14.778
51389W        W17798  16.552  17.353   3.674
51390W        W17799  11.894  37.962  10.914
51391W        W17800   8.773  11.868   1.552
51392W        W17801  22.725  15.995  11.626
51393W        W17802  27.205  43.114   4.145
51394W        W17803  34.394  29.752  11.966
51395W        W17804  22.408   2.827  14.933
51396W        W17805  21.956  20.042   4.627
51397W        W17806  31.403  11.987   0.534
51398W        W17807  25.524  14.905  13.927
51399W        W17808  15.128  16.350   3.490
51400W        W17809  15.806  19.933   3.824
51401W        W17810  29.643  34.873  10.561
51402W        W17811   3.816  23.954  10.772
51403W        W17812  25.004  44.754  10.675
51404W        W17813  10.936  13.543   1.191
51405W        W17814  43.729  21.950  10.672
51406W        W17815   2.166   0.869   3.251
51407W        W17816  22.422  36.795  12.966
51408W        W17817  41.253  19.276   1.811
51409W        W17818   3.468  10.323   2.301
51410W        W17819  18.814   9.643  14.236
51411W        W17820   7.872  12.189   4.909
51412W        W17821  37.084  37.923   3.804
51413W        W17822  31.618   4.184  12.505
51414W        W17823  20.985  37.070   4.282
51415W        W17824  42.394  43.253  10.445
51416W        W17825  11.263  37.878  12.315
51417W        W17826  33.685  13.189   1.227
51418W        W17827  39.556   2.018  11.192
51419W        W17828   1.008  16.596  11.490
51420W        W17829   3.794  40.798  14.710
51421W        W17830   9.825  16.159   2.727
51422W        W17831  12.741  19.733   0.363
51423W        W17832  14.291  15.394   3.835
51424W        W17833  38.060  41.695  14.523
51425W        W17834  26.148  18.382   4.817
51426W        W17835  13.168  22.171   2.448
51427W        W17836  16.088  34.528  11.680
51428W        W17837   1.306   7.783   0.396
51429W        W17838  18.637  13.972  13.361
51430W        W17839  13.926  24.472  12.163
51431W        W17840  19.111  14.158  13.612
51432W        W17841  30.208  33.447  14.257
51433W        W17842  11.524   6.464  13.430
51434W        W17843   7.864  34.384   3.692
51435W        W17844  40.087   8.250   3.223
51436W        W17845  28.669  30.651  14.844
51437W        W17846  42.806   0.085   1.074
51438W        W17847  39.815  24.612  13.029
51439W        W17848  11.769  22.714  12.775
51440W        W17849  41.175   8.658  10.392
51441W        W17850  44.793  15.157  11.542
51442W        W17851   0.902  20.220  14.365
51443W        W17852  17.738  19.218  12.873
51444W        W17853  41.258  22.697   3.240
51445W        W17854  24.134  39.274  13.705
51446W        W17855  22.373  41.598   4.277
51447W        W17856  33.084   6.500   0.801
51448W        W17857  19.954   5.225  11.514
51449W        W17858  25.117  31.511   2.286
51450W        W17859  27.652  18.806  11.971
51451W        W17860  22.799  31.713   3.996
51452W        W17861  13.622  10.680   1.209
51453W        W17862  42.057  29.643  12.969
51454W        W17863  42.884  27.168  11.643
51455W        W17864  35.626  13.992  14.031
51456W        W17865  16.157  22.728   4.752
51457W        W17866  28.019  34.640   3.238
51458W        W17867   8.251  36.994  12.541
51459W        W17868  11.646   2.576  13.558
51460W        W17869  12.347  44.235  11.186
51461W        W17870  26.421  36.052  14.797
51462W        W17871  34.961   9.362   4.573
51463W        W17872   3.476  15.617  13.306
51464W        W17873  35.462  27.683   2.706
51465W        W17874  30.430  37.446  11.645
51466W        W17875  36.659   6.372   4.880
51467W        W17876  35.584   7.162  11.950
51468W        W17877  18.705   5.134   3.285
51469W        W17878  43.512  31.717  10.620
51470W        W17879  42.987   6.848  10.448
51471W        W17880  44.001  33.092  13.490
51472W        W17881  38.613   4.706  12.422
51473W        W17882  32.121  16.079   0.210
51474W        W17883  34.710  26.631  11.123
51475W        W17884  40.597  29.482  14.039
51476W        W17885   5.984   5.303   4.142
51477W        W17886  30.487   2.236   1.858
51478W        W17887  26.989  24.897  13.464
51479W        W17888   5.197  36.271   1.294
51480W        W17889   1.644  44.973   1.269
51481W        W17890   1.014  13.612  13.880
51482W        W17891  34.411  23.587   4.253
51483W        W17892  21.703  12.180   0.989
51484W        W17893  44.720  32.627   4.174
51485W        W17894  17.286  41.776   0.349
51486W        W17895  37.572  14.992  13.826
51487W        W17896  40.111  35.990   0.456
51488W        W17897  16.141   7.337  12.497
51489W        W17898  17.606  18.669   4.051
51490W        W17899  36.807  16.152  11.281
51491W        W17900  24.668  10.183   3.309
51492W        W17901  11.992  17.481  12.679
51493W        W17902   5.150   9.912   2.928
51494W        W17903   7.851  42.552   4.367
51495W        W17904   3.766  23.018   2.862
51496W        W17905  34.158   1.567  11.090
51497W        W17906  39.987  22.659   1.419
51498W        W17907  26.194  44.653  14.463
51499W        W17908  39.364   0.510   1.785
51500W        W17909   9.673   1.668  11.098
51501W        W17910  31.969  34.838  11.144
51502W        W17911  28.517  17.124   3.276
51503W        W17912  18.705  43.207   0.062
51504W        W17913  43.937  27.588   0.827
51505W        W17914  43.999  15.756   4.100
51506W        W17915  34.241  44.169   0.912
51507W        W17916  23.340  22.955   2.240
51508W        W17917   6.384  19.107  13.598
51509W        W17918  29.248  21.506   3.273
51510W        W17919   1.192  17.675  12.162
51511W        W17920   0.909  36.906  11.859
51512W        W17921  44.828  29.677   3.265
51513W        W17922   4.245  33.391   0.256
51514W        W17923  29.557  39.462  13.148
51515W        W17924  26.092   3.883   1.148
51516W        W17925  40.738   0.645  11.162
51517W        W17926  18.822  44.201   4.507
51518W        W17927  17.857   7.843   2.218
51519W        W17928  27.718  34.821  13.851
51520W        W17929  43.458  37.838  14.292
51521W        W17930  17.795  27.215  10.718
51522W        W17931  16.658  41.698  14.975
51523W        W17932  39.366  20.053   1.805
51524W        W17933  32.948  38.760   1.429
51525W        W17934  13.415   8.350  14.787
51526W        W17935  26.928  37.122  10.735
51527W        W17936  22.073  41.579   4.728
51528W        W17937   1.132  10.757   4.645
51529W        W17938  16.752  15.918   1.857
51530W        W17939   8.937  19.131   2.852
51531W        W17940   4.444  36.622   2.282
51532W        W17941  17.835  36.913  12.952
51533W        W17942  17.303  10.639  10.812
51534W        W17943   9.568  15.603   4.187
51535W        W17944  39.546  43.183  10.747
51536W        W17945   4.285   3.502  13.361
51537W        W17946  20.453  41.685  13.434
51538W        W17947  29.384  15.290   1.290
51539W        W17948   5.254   0.225  11.970
51540W        W17949   4.979  16.190   3.314
51541W        W17950  27.658  31.447  12.812
51542W        W17951  29.194   1.433  12.427
51543W        W17952  30.541   0.918  14.224
51544W        W17953  25.174   6.218   0.978
51545W        W17954   5.726   5.293   3.679
51546W        W17955  13.190   0.682  12.513
51547W        W17956  20.286  31.615  13.500
51548W        W17957   8.128   3.377  14.342
51549W        W17958  25.409   4.095  14.785
51550W        W17959  14.828  17.248   3.292
51551W        W17960   2.376  40.272  13.845
51552W        W17961  29.011  35.842   0.493
51553W        W17962  11.668  38.088  14.445
51554W        W17963  31.904   3.222  14.781
51555W        W17964  41.315   5.707   4.075
51556W        W17965   8.298   6.929  12.350
51557W        W17966  29.696  29.267  13.926
51558W        W17967  32.355  21.225  14.970
51559W        W17968  35.309  42.271   3.664
51560W        W17969  44.017  27.520  12.075
51561W        W17970  26.530  24.099  11.671
51562W        W17971  17.640  42.726  13.040
51563W        W17972  27.375  42.108  13.919
51564W        W17973  43.104  33.256   1.347
51565W        W17974  38.818  35.452  14.516
51566W        W17975  34.920  40.696  12.542
51567W        W17976  35.051  42.279   0.340
51568W        W17977  44.698  11.266  14.398
51569W        W17978  22.613   9.311   1.314
51570W        W17979  24.620  17.279   0.938
51571W        W17980  33.362  42.840   3.229
51572W        W17981   8.082  31.986   3.595
51573W        W17982  37.503  36.597  13.071
51574W        W17983   3.448  22.495   3.660
51575W        W17984  31.538  21.766  12.578
51576W        W17985  41.281  21.642   0.222
51577W        W17986  42.005  32.457  14.969
51578W        W17987  13.922  23.761   3.646
51579W        W17988  20.162  13.567  10.524
51580W        W17989  32.958  40.881  13.074
51581W        W17990  12.698   0.862   0.164
51582W        W17991  22.160   7.694  14.959
51583W        W17992  38.194  11.895   1.157
51584W        W17993  37.369   5.848  12.078
51585W        W17994  13.120  36.612  14.079
51586W        W17995  17.604  26.975   3.254
51587W        W17996  19.526  12.828   3.802
51588W        W17997  41.982  23.061   4.837
51589W        W17998  41.026   9.860  12.570
51590W        W17999  26.119  21.582   1.382
51591W        W18000  30.948  34.574   1.213
51592W        W18001  28.608  20.759   2.743
51593W        W18002  43.047  18.795   0.516
51594W        W18003   7.417  25.557  12.264
51595W        W18004  26.454  15.797   0.232
51596W        W18005  18.938  38.922   2.355
51597W        W18006  41.453  19.503   2.794
51598W        W18007  43.469  40.890   4.424
51599W        W18008  22.120  41.475  11.626
51600W        W18009  35.925  41.821   4.716
51601W        W18010   4.316  32.483  12.430
51602W        W18011   7.763   9.099   3.909
51603W        W18012   5.017   8.168  13.972
51604W        W18013   0.226  44.478   1.170
51605W        W18014  40.964  30.027   0.708
51606W        W18015   3.257   7.926  11.829
51607W        W18016  40.945  28.458   0.453
51608W        W18017  25.087  39.550  12.496
51609W        W18018   4.249  44.938   1.899
51610W        W18019  38.857   9.215  12.111
51611W        W18020  28.034  43.828   3.527
51612W        W18021   0.972   8.497  13.558
51613W        W18022  30.164  28.606   4.785
51614W        W18023   3.843  27.308   3.285
51615W        W18024  40.792  35.996  14.325
51616W        W18025  10.701  10.797  13.907
51617W        W18026  42.366  30.876   0.378
51618W        W18027  42.443  19.985  12.461
51619W        W18028  29.670  33.731   4.210
51620W        W18029  10.648  30.968  12.056
51621W        W18030  26.950  19.688   1.308
51622W        W18031   6.895  43.802  11.255
51623W        W18032  14.530  23.473  11.199
51624W        W18033  29.176  10.978   2.231
51625W        W18034  18.528  14.021  14.273
51626W        W18035  40.563   8.922   2.819
51627W        W18036  20.117  20.762   3.786
51628W        W18037  15.366  27.722   0.022
51629W        W18038  28.277  44.611  10.138
51630W        W18039  26.380  21.299  10.766
51631W        W18040  30.912  20.246   3.591
51632W        W18041  33.601   8.624   4.760
51633W        W18042  27.197  18.711   0.416
51634W        W18043  31.299  15.155   0.399
51635W        W18044   5.097  12.170   3.300
51636W        W18045   5.703  14.833   4.062
51637W        W18046  10.901  31.155  10.801
51638W        W18047  31.136  40.472   2.548
51639W        W18048  15.316  29.950   3.608
51640W        W18049   6.343  15.264  14.803
51641W        W18050  29.867  35.022   3.895
51642W        W18051  34.223  16.131   3.623
51643W        W18052  37.397  19.724  13.548
51644W        W18053   4.604   4.147   2.802
51645W        W18054  11.264  17.986   4.532
51646W        W18055  23.641  19.055   1.751
51647W        W18056  14.152  34.041   1.144
51648W        W18057  18.936  26.959   0.983
51649W        W18058  24.071  15.753   3.119
51650W        W18059  15.508   6.847  12.893
51651W        W18060   6.261  31.756   0.249
51652W        W18061  29.274  31.421  11.696
51653W        W18062  35.781  17.346   2.746
51654W        W18063  40.854   7.865   0.259
51655W        W18064  40.130  37.461  11.423
51656W        W18065   2.464   3.950   3.663
51657W        W18066  16.081   4.579  12.537
51658W        W18067  15.525  24.652   3.161
51659W        W18068  22.246  42.924   3.244
51660W        W18069   7.874  11.231  13.283
51661W        W18070  24.464  21.132   3.624
51662W        W18071  18.579   7.068  10.625
51663W        W18072  25.317  43.362   0.404
51664W        W18073   3.752   0.893  12.774
51665W        W18074  21.851  18.155  13.132
51666W        W18075   2.428  21.001   4.609
51667W        W18076  28.000  19.568   4.687
51668W        W18077  17.172  24.144  12.469
51669W        W18078   9.324  19.345  12.954
51670W        W18079  40.783  31.053  11.592
51671W        W18080  34.464  44.417  12.586
51672W        W18081  15.576  24.683   1.159
51673W        W18082  10.594  32.118   0.732
51674W        W18083  20.973   0.026  14.121
51675W        W18084  21.508  41.287   1.886
51676W        W18085  10.261  18.051  10.330
51677W        W18086  33.580  26.860   3.706
51678W        W18087  28.657  17.368  12.568
51679W        W18088  40.327  43.333  12.469
51680W        W18089  43.854  19.189  10.688
51681W        W18090  10.198  32.538  13.978
51682W        W18091  25.775  38.281  13.419
51683W        W18092  25.473  11.613   2.204
51684W        W18093   0.806  26.099   1.218
51685W        W18094  23.942   6.323   4.114
51686W        W18095  22.905   9.762   1.366
51687W        W18096  40.463   5.848   4.646
51688W        W18097  37.847   1.779   4.722
51689W        W18098  28.462  26.165   4.627
51690W        W18099   6.914   6.938  13.379
51691W        W18100  42.337  21.781  11.422
51692W        W18101   0.468  36.700   4.098
51693W        W18102  40.040  44.286   3.773
51694W        W18103  27.779  35.900  11.246
51695W        W18104   7.226  23.232   3.579
51696W        W18105  32.838  33.347   3.229
51697W        W18106   6.256  22.215   4.547
51698W        W18107   0.227  12.292   2.596
51699W        W18108   6.017  21.505  11.399
51700W        W18109  23.076   3.303  13.546
51701W        W18110  34.111  24.759   4.002
51702W        W18111   7.400  27.484   0.933
51703W        W18112  10.113  34.230   5.028
51704W        W18113  12.409  26.124   3.953
51705W        W18114  44.980  13.878   1.518
51706W        W18115  31.065  20.306   0.705
51707W        W18116  33.355  29.956  13.867
51708W        W18117  23.230  35.512   2.969
51709W        W18118   8.284  44.456   2.855
51710W        W18119  37.029  37.505  10.290
51711W        W18120  15.486  11.318   0.276
51712W        W18121  39.141   2.307  11.054
51713W        W18122  14.809  20.274   1.829
51714W        W18123   7.388   3.194  13.269
51715W        W18124  14.349  13.430   4.947
51716W        W18125  33.627  11.809   1.890
51717W        W18126  35.076  44.560   4.571
51718W        W18127  28.227  21.583  11.364
51719W        W18128  30.498  42.885  14.885
51720W        W18129  38.787  16.883   0.527
51721W        W18130  41.673  40.814  12.910
51722W        W18131  19.058   7.380  13.689
51723W        W18132  44.978  16.388  14.113
51724W        W18133  35.407  41.288  13.629
51725W        W18134  22.348  14.601   4.529
51726W        W18135  14.901  21.714   4.030
51727W        W18136  12.817  19.680  12.474
51728W        W18137  22.519  28.395   3.683
51729W        W18138  36.455  12.672   0.262
51730W        W18139  28.601  25.244   2.212
51731W        W18140  10.631   3.816   2.582
51732W        W18141  44.232   3.251   0.449
51733W        W18142   0.034  38.553   4.505
51734W        W18143  28.787  28.537   3.740
51735W        W18144  39.995  35.509  13.894
51736W        W18145  22.672  30.460  14.930
51737W        W18146  26.069  14.625   0.932
51738W        W18147  27.665  43.968   3.174
51739W        W18148   0.876  25.038  13.467
51740W        W18149  28.234  42.062   2.705
51741W        W18150  18.616   9.318   4.767
51742W        W18151  18.486  38.020   3.570
51743W        W18152  11.221  12.356  10.673
51744W        W18153  43.793   6.818   1.287
51745W        W18154  35.100  24.213  13.430
51746W        W18155  37.913  41.384  11.299
51747W        W18156   3.272  42.777  12.183
51748W        W18157   8.752  13.913  13.054
51749W        W18158  21.286  32.166   2.273
51750W        W18159  26.209  42.825  13.887
51751W        W18160  14.671  27.992   2.200
51752W        W18161  42.309   9.653  13.944
51753W        W18162  33.133  31.630  11.166
51754W        W18163  11.825  15.295  12.987
51755W        W18164  21.976  36.899   4.263
51756W        W18165  12.455  29.980  11.939
51757W        W18166  23.688  33.628  14.752
51758W        W18167   2.784  33.549   3.310
51759W        W18168  44.345  24.424  13.317
51760W        W18169  33.715  35.511  13.311
51761W        W18170  37.606   0.852  12.016
51762W        W18171   1.789  42.876   2.376
51763W        W18172  42.455  22.614  10.419
51764W        W18173  10.888  20.087  11.581
51765W        W18174  18.000  19.077  12.446
51766W        W18175  44.361  31.172   2.885
51767W        W18176  21.204  15.563   4.931
51768W        W18177  16.268  27.047  14.413
51769W        W18178  17.971   1.242  11.015
51770W        W18179   1.457  32.635   1.693
51771W        W18180  43.010  13.632   1.453
51772W        W18181  21.189  24.900  10.778
51773W        W18182   3.184  27.942  11.725
51774W        W18183  27.485  43.453  13.970
51775W        W18184  37.514   2.707   1.649
51776W        W18185  33.804   1.988  11.056
51777W        W18186  26.767  33.119  14.941
51778W        W18187  24.016  36.297   3.787
51779W        W18188  36.409  16.755   2.193
51780W        W18189  17.718   0.405   4.515
51781W        W18190   4.916  25.548   2.309
51782W        W18191  28.770  33.222   4.536
51783W        W18192  32.410  13.426  14.997
51784W        W18193  22.972  35.391  12.293
51785W        W18194  10.384  23.203  10.578
51786W        W18195  41.699  32.523  13.742
51787W        W18196  21.661  13.341   4.553
51788W        W18197  12.418  12.677   3.957
51789W        W18198  16.573  28.370   1.482
51790W        W18199  20.312  41.492  11.335
51791W        W18200  27.709   1.263  11.583
51792W        W18201  18.072  37.464   2.354
51793W        W18202   8.759   0.471  12.079
51794W        W18203  19.094  44.592  13.487
51795W        W18204  24.037  14.385  10.721
51796W        W18205   9.176  19.791   4.084
51797W        W18206  42.888  25.097  13.365
51798W        W18207   0.797  32.809   3.279
51799W        W18208   9.531  26.503  14.322
51800W        W18209   3.812  21.558   2.788
51801W        W18210   5.342  22.828  10.481
51802W        W18211  16.571  21.732  11.281
51803W        W18212  42.738  13.623  11.720
51804W        W18213  35.462  12.845   0.915
51805W        W18214  23.020  24.348  12.709
51806W        W18215  40.864   7.738  10.297
51807W        W18216  28.638  21.696   4.273
51808W        W18217  27.937   6.540  13.258
51809W        W18218  24.223  17.424  12.031
51810W        W18219  15.261  22.828  10.689
51811W        W18220   1.878   1.170  11.623
51812W        W18221  25.601  32.481  13.298
51813W        W18222   4.852  16.063  11.476
51814W        W18223  25.981  17.080   1.935
51815W        W18224  25.691  28.873   0.707
51816W        W18225  44.959  19.886  14.826
51817W        W18226  38.194   9.119  11.123
51818W        W18227   2.969  29.658  14.942
51819W        W18228  39.067  18.671   4.145
51820W        W18229  26.240  41.846   0.259
51821W        W18230  10.377  14.404  14.086
51822W        W18231   4.609  22.383  13.977
51823W        W18232  19.676  20.543   3.595
51824W        W18233   1.929   4.639  14.287
51825W        W18234  39.033  23.573   1.728
51826W        W18235  41.707   0.700   1.796
51827W        W18236  42.539  31.515   1.680
51828W        W18237  17.120  44.765   1.706
51829W        W18238  19.107   5.228   1.478
51830W        W18239  36.579  37.439  13.796
51831W        W18240  28.570  36.986  10.886
51832W        W18241  36.954  20.703   1.825
51833W        W18242  15.091  37.762   2.389
51834W        W18243   6.001  12.816   4.411
51835W        W18244  24.327  41.790  11.276
51836W        W18245  41.266  34.840  12.466
51837W        W18246  44.005  11.633   4.181
51838W        W18247  41.389  23.167   3.113
51839W        W18248   8.625  30.929  11.235
51840W        W18249  19.607  23.790  13.039
51841W        W18250   8.571   1.467  14.285
51842W        W18251  29.341  27.935  12.373
51843W        W18252  34.635  31.658   4.178
51844W        W18253  26.500  15.799  10.337
51845W        W18254  31.092  18.348   4.058
51846W        W18255  29.601  16.840  11.393
51847W        W18256  18.763  32.473   1.229
51848W        W18257  17.314  35.855  13.766
51849W        W18258  37.875  18.328   0.074
51850W        W18259   2.484  18.082  12.117
51851W        W18260  16.502   1.384  12.487
51852W        W18261  23.085  44.538  10.683
51853W        W18262  36.029  30.892   1.824
51854W        W18263  20.211   2.966   0.475
51855W        W18264   5.232  38.048  12.811
51856W        W18265   5.663  43.575  11.596
51857W        W18266  42.183  15.333   1.164
51858W        W18267  33.605  37.622  13.311
51859W        W18268  20.709   1.036   0.829
51860W        W18269  12.756   2.805  12.065
51861W        W18270  10.307  24.970  12.450
51862W        W18271  33.933   8.056   4.282
51863W        W18272  17.929   3.178   5.113
51864W        W18273  31.075   9.566  10.316
51865W        W18274  17.011  34.378   0.742
51866W        W18275  32.097  43.288   4.880
51867W        W18276   4.772  37.798  10.203
51868W        W18277  20.027  24.201   1.488
51869W        W18278  29.095  37.318   1.427
51870W        W18279  42.023  28.353  14.947
51871W        W18280  10.361  32.062   2.321
51872W        W18281   0.563  13.024   0.684
51873W        W18282  42.420  13.129  14.843
51874W        W18283  19.446   8.251   0.844
51875W        W18284  28.399   3.031  13.062
51876W        W18285  27.425  24.660  12.530
51877W        W18286  20.739  18.171   1.356
51878W        W18287  24.829  42.570  11.172
51879W        W18288  11.380  17.781   1.780
51880W        W18289  33.996  18.188  14.341
51881W        W18290  13.836   7.796  12.113
51882W        W18291   9.970   1.256  11.863
51883W        W18292  13.283   1.681   1.323
51884W        W18293  42.054  13.701   3.136
51885W        W18294  43.287   1.689   0.001
51886W        W18295  39.007   9.970   4.845
51887W        W18296   2.094   3.493   4.726
51888W        W18297  14.281  36.842   0.346
51889W        W18298  41.402   8.151  14.136
51890W        W18299   8.587  12.541   4.214
51891W        W18300   9.648   5.307  14.513
51892W        W18301  17.597  25.609   0.027
51893W        W18302  21.247   9.722   2.748
51894W        W18303  42.405  43.466  14.383
51895W        W18304   5.716  31.936  14.590
51896W        W18305   0.008   4.252  12.009
51897W        W18306  27.213   2.830   3.434
51898W        W18307  41.848  10.184  14.950
51899W        W18308  36.072  30.583   0.265
51900W        W18309  38.507  41.998   4.544
51901W        W18310  43.580  14.454   2.769
51902W        W18311  25.540  31.588  13.294
51903W        W18312  37.533  11.790  10.425
51904W        W18313  35.568  33.405   1.384
51905W        W18314  27.772  37.563  13.388
51906W        W18315  28.087   9.447  14.361
51907W        W18316  34.469  18.124  13.476
51908W        W18317  35.963  40.949   2.196
51909W        W18318   0.076   6.859  11.995
51910W        W18319   4.665  30.945  14.069
51911W        W18320  26.643  16.167   2.874
51912W        W18321  13.571  30.407  11.106
51913W        W18322  31.692   1.503  10.315
51914W        W18323  15.109  10.701  12.468
51915W        W18324  31.181  36.538  12.441
51916W        W18325  26.541   2.971   5.188
51917W        W18326  13.609  16.536   2.375
51918W        W18327   3.256   7.714  12.893
51919W        W18328  20.281  11.801   2.435
51920W        W18329  23.128  40.719  10.809
51921W        W18330   3.754   6.680  11.921
51922W        W18331  13.230  13.823  13.959
51923W        W18332  40.588  17.265  13.798
51924W        W18333  27.992  28.270   3.606
51925W        W18334  31.016  39.354  11.295
51926W        W18335  38.799  39.306  13.855
51927W        W18336  21.963  28.269   0.695
51928W        W18337  14.066  34.290  10.714
51929W        W18338   5.251  22.265  11.790
51930W        W18339  32.881  27.026   1.153
51931W        W18340  19.220  14.850   2.475
51932W        W18341   5.502  36.488   1.684
51933W        W18342  28.105  41.956   3.732
51934W        W18343  20.609  39.895  13.979
51935W        W18344  18.643  18.354   3.268
51936W        W18345   6.424  14.063   0.021
51937W        W18346  31.194  26.902   0.767
51938W        W18347   6.646  24.714  12.813
51939W        W18348  40.870  25.635   4.415
51940W        W18349   5.192  17.739   0.238
51941W        W18350  11.242  38.364  12.438
51942W        W18351  16.965  18.568  10.567
51943W        W18352  43.529   4.395   1.368
51944W        W18353  30.518  37.977  10.728
51945W        W18354  39.628  16.822  12.192
51946W        W18355  37.386   6.182  12.508
51947W        W18356  12.086   1.509   2.356
51948W        W18357  31.825  41.477  14.210
51949W        W18358   4.755  14.042   0.769
51950W        W18359  44.750  17.530  13.859
51951W        W18360  23.962  37.884   3.070
51952W        W18361   8.577  16.827   1.276
51953W        W18362  43.852   8.733   2.667
51954W        W18363  17.167  21.241   0.248
51955W        W18364  35.530  28.579   2.446
51956W        W18365  12.840   1.041  12.440
51957W        W18366  42.575  14.310   4.108
51958W        W18367  13.756  17.290   0.347
51959W        W18368  27.942  22.117   0.764
51960W        W18369  41.485  28.956   0.219
51961W        W18370  35.149  29.186  13.820
51962W        W18371   5.931   6.451  14.071
51963W        W18372  12.555  28.584  12.525
51964W        W18373  43.720  37.898   0.524
51965W        W18374   8.064  32.175  13.510
51966W        W18375  28.475  32.084  13.766
51967W        W18376  39.823  33.388  13.398
51968W        W18377  20.766  24.653  10.604
51969W        W18378  23.142   7.662  11.076
51970W        W18379  26.595   5.962  10.702
51971W        W18380  27.577   7.845  13.637
51972W        W18381   5.404  18.142   1.494
51973W        W18382  36.063  42.543  11.215
51974W        W18383  32.536  19.804   0.213
51975W        W18384   0.767  31.594  14.240
51976W        W18385  36.416  44.405  12.184
51977W        W18386  10.658  10.806   1.799
51978W        W18387  20.629  25.648  10.623
51979W        W18388  17.881   8.873  13.389
51980W        W18389  36.418  39.203  11.909
51981W        W18390   4.492  42.572  11.580
51982W        W18391  20.352  10.895   3.089
51983W        W18392  38.607  10.305   3.257
51984W        W18393   5.266  11.330  12.036
51985W        W18394   4.818   1.926   4.025
51986W        W18395   2.492  35.297   4.371
51987W        W18396   2.899  31.480  13.145
51988W        W18397  10.473   7.279  14.725
51989W        W18398  13.063  17.055  11.133
51990W        W18399  18.334  19.085   2.752
51991W        W18400  40.532  20.630   0.702
51992W        W18401  11.017  30.182  11.961
51993W        W18402  17.831   6.607  13.948
51994W        W18403  20.111  43.425   1.851
51995W        W18404  12.909  13.086   3.112
51996W        W18405   4.353  42.056   1.409
51997W        W18406  39.977  44.357   0.549
51998W        W18407  35.296  18.064  10.671
51999W        W18408  31.576  16.101  14.467
52000W        W18409  22.674  22.431  14.412
52001W        W18410  33.823   4.953   0.481
52002W        W18411  10.957  35.167   2.613
52003W        W18412  22.696  39.909   1.292
52004W        W18413  30.021  14.766   3.063
52005W        W18414   4.204  31.886  13.010
52006W        W18415  41.355   1.919   0.261
52007W        W18416  27.613   7.327   5.161
52008W        W18417  34.550  33.832  14.466
52009W        W18418  18.109  24.526   4.347
52010W        W18419   0.978   9.469   9.754
52011W        W18420  42.859  35.318  12.424
52012W        W18421  24.222  40.367  12.955
52013W        W18422  42.372  38.948  10.951
52014W        W18423  33.572   0.355  10.188
52015W        W18424  27.540  30.428   4.460
52016W        W18425   9.450  29.677  13.320
52017W        W18426  23.679  39.287  13.024
52018W        W18427  29.151   6.319   3.600
52019W        W18428  25.599   0.508  11.733
52020W        W18429  34.619  38.848   3.209
52021W        W18430  12.621   6.850   4.128
52022W        W18431  20.703  23.579   4.534
52023W        W18432  22.014   1.976   3.914
52024W        W18433   0.930  41.197  14.391
52025W        W18434   4.249   5.676  12.512
52026W        W18435  27.476  15.072  13.939
52027W        W18436   9.119  44.723   2.224
52028W        W18437  40.390  38.247  13.366
52029W        W18438  31.730  21.082   1.894
52030W        W18439  10.244   9.949   3.557
52031W        W18440   3.905  43.778  14.399
52032W        W18441   5.281   3.495  12.842
52033W        W18442  39.428   0.861  12.236
52034W        W18443  38.527  13.658  14.433
52035W        W18444  29.072  35.207  11.161
52036W        W18445   0.417  25.149  11.159
52037W        W18446  14.260   1.523  10.928
52038W        W18447  26.705  27.599  14.335
52039W        W18448  27.111  40.256  11.503
52040W        W18449  34.350  40.289  11.941
52041W        W18450  30.938  28.948   3.337
52042W        W18451  43.403  30.985  11.879
52043W        W18452  42.908  23.711  14.322
52044W        W18453  27.222  42.266   3.705
52045W        W18454  20.605  33.798   0.242
52046W        W18455  31.592  18.621   0.621
52047W        W18456   5.273   2.226  14.377
52048W        W18457  14.189  39.644  14.882
52049W        W18458  18.874   4.911   1.823
52050W        W18459  38.295  42.715   3.906
52051W        W18460  22.922  40.275   0.307
52052W        W18461  35.534  10.254  13.054
52053W        W18462  26.500  43.319   3.414
52054W        W18463  32.066  13.398  14.430
52055W        W18464  32.032  42.766   2.401
52056W        W18465   7.701  17.726  11.559
52057W        W18466  38.334   6.818  12.118
52058W        W18467  31.441  31.984  11.155
52059W        W18468  13.682   8.718  10.782
52060W        W18469  22.322   5.777  11.971
52061W        W18470  16.766  18.237   1.795
52062W        W18471  22.441  24.616  12.062
52063W        W18472  19.797   8.986  10.488
52064W        W18473   2.762  19.071   3.723
52065W        W18474   8.714   7.303   2.331
52066W        W18475  44.585   6.719  11.990
52067W        W18476  14.278  31.031  11.548
52068W        W18477  29.529  43.276  13.890
52069W        W18478   0.723  34.016   0.388
52070W        W18479   8.099  29.814  11.479
52071W        W18480  31.861  27.639   1.006
52072W        W18481   0.566  37.964  11.692
52073W        W18482  18.138  43.711   1.796
52074W        W18483  24.243  20.537  14.806
52075W        W18484   8.682  32.106  12.465
52076W        W18485  11.978  33.573  13.086
52077W        W18486  22.956  40.242  10.724
52078W        W18487  39.314  19.544   5.444
52079W        W18488  31.459  35.453   1.294
52080W        W18489  12.904  10.090   1.721
52081W        W18490   2.208  17.649  12.085
52082W        W18491   9.977  34.680  12.183
52083W        W18492  40.447   0.484   4.391
52084W        W18493   3.957   0.624  11.172
52085W        W18494  12.024  17.680   4.405
52086W        W18495  37.518  43.753  13.499
52087W        W18496  13.556  23.153   0.961
52088W        W18497  21.115   2.297  13.963
52089W        W18498  37.203   2.235   0.944
52090W        W18499  36.610   1.934   4.092
52091W        W18500   7.270  29.562  11.336
52092W        W18501  37.632   0.017   1.305
52093W        W18502  22.764  26.604  14.527
52094W        W18503  40.559  35.953  11.137
52095W        W18504  10.364  32.294   4.127
52096W        W18505  26.090  12.881   4.935
52097W        W18506  13.202   5.877   0.821
52098W        W18507   5.740  41.030  13.942
52099W        W18508  38.259  26.828   0.191
52100W        W18509   1.818  16.005  11.708
52101W        W18510  27.050  39.766   0.895
52102W        W18511   6.369  35.949  11.532
52103W        W18512  24.197  29.607  11.642
52104W        W18513  38.376  32.047  12.320
52105W        W18514  10.269  13.463   0.505
52106W        W18515  41.341   6.240  10.552
52107W        W18516   8.674  19.750  11.561
52108W        W18517  10.641   4.411  12.891
52109W        W18518  26.992  18.240   2.504
52110W        W18519   6.784  24.112  12.000
52111W        W18520  12.782  27.402   3.081
52112W        W18521  36.935  34.833  14.944
52113W        W18522  25.975  19.088   2.198
52114W        W18523   2.893  18.557  12.745
52115W        W18524  19.830  12.823  14.757
52116W        W18525  13.194  33.896  14.687
52117W        W18526  22.534  10.277  11.090
52118W        W18527  38.294  28.489   2.185
52119W        W18528  44.744  31.706  11.192
52120W        W18529  20.243  35.137   2.247
52121W        W18530  32.398  32.069  12.789
52122W        W18531  17.380  41.503  12.632
52123W        W18532  18.720  21.481   0.834
52124W        W18533   3.747  36.446   0.430
52125W        W18534  41.830  34.582  13.236
52126W        W18535   7.386   8.733   2.725
52127W        W18536  17.552  17.104   2.704
52128W        W18537  30.525   4.850  14.071
52129W        W18538  25.489  44.023   2.938
52130W        W18539  19.193  23.182  12.363
52131W        W18540   9.696   3.197  14.039
52132W        W18541  39.584  13.651   2.362
52133W        W18542   5.589  18.625  13.334
52134W        W18543   1.742  38.330  13.056
52135W        W18544  39.944  11.648  11.161
52136W        W18545  31.794  33.409   3.257
52137W        W18546  20.618  40.220   2.877
52138W        W18547  13.905  29.990   0.325
52139W        W18548  10.934  20.277   2.745
52140W        W18549  42.445  17.771  14.674
52141W        W18550  32.609   6.717   2.204
52142W        W18551  37.837  37.469  11.081
52143W        W18552  11.327   3.430  11.527
52144W        W18553  41.495  38.055  14.511
52145W        W18554   5.612  44.579   4.309
52146W        W18555   0.684  23.313   4.042
52147W        W18556  37.278  18.999  12.827
52148W        W18557  16.331  23.627  12.604
52149W        W18558  22.301  43.477   3.585
52150W        W18559  23.303  17.118   0.832
52151W        W18560  43.724  36.368  11.559
52152W        W18561  25.530  19.834   0.331
52153W        W18562  37.470  25.864  12.516
52154W        W18563  28.428  16.557  14.947
52155W        W18564  21.779   8.203  13.134
52156W        W18565  44.310  22.979   2.608
52157W        W18566  27.933  29.689   5.016
52158W        W18567  20.565  44.871  11.022
52159W        W18568  35.219   8.221   4.113
52160W        W18569  13.830  44.347  10.658
52161W        W18570  14.610  24.737   3.276
52162W        W18571  14.065  17.687   1.889
52163W        W18572   1.408  21.257   1.474
52164W        W18573   7.227   3.901   2.656
52165W        W18574  30.254  13.905   0.424
52166W        W18575  28.889   7.677   0.398
52167W        W18576  17.269  11.933  12.578
52168W        W18577  24.210  10.861  12.932
52169W        W18578   4.750   5.469   1.886
52170W        W18579  20.060   9.790  11.382
52171W        W18580  26.997  42.387  12.617
52172W        W18581  20.196   0.884  12.620
52173W        W18582  13.218  31.251  13.032
52174W        W18583  32.240  26.538   0.090
52175W        W18584   4.686  41.025   2.259
52176W        W18585  24.867   6.921  11.252
52177W        W18586   0.364  20.950   3.224
52178W        W18587  36.764   8.697  13.870
52179W        W18588   4.122  23.206   3.785
52180W        W18589   5.148  15.603  10.719
52181W        W18590  18.537  35.879  12.599
52182W        W18591  12.837  33.586   4.095
52183W        W18592  23.010  39.431   1.275
52184W        W18593  22.372   7.215   1.674
52185W        W18594  19.651  18.002  11.310
52186W        W18595  16.794   0.064   2.427
52187W        W18596  29.484  13.791   2.176
52188W        W18597  44.281  35.120   3.081
52189W        W18598   2.840   9.103   0.471
52190W        W18599   1.483   2.429   1.461
52191W        W18600  15.791  27.090   2.218
52192W        W18601  36.803  12.637   2.844
52193W        W18602  35.020  42.336   4.519
52194W        W18603  18.736  24.021  12.077
52195W        W18604  40.232   2.541  12.947
52196W        W18605  33.911  27.531  14.033
52197W        W18606  29.140  42.684  14.793
52198W        W18607  11.802  37.367   4.097
52199W        W18608  15.124  13.771   0.037
52200W        W18609  28.774  37.456   2.120
52201W        W18610  19.540  22.056   3.618
52202W        W18611  44.522  34.506   3.744
52203W        W18612  20.257  27.387   2.392
52204W        W18613  23.565  15.276   4.531
52205W        W18614  36.349  13.825   1.258
52206W        W18615  25.078  22.999   1.278
52207W        W18616  31.154  34.937   0.370
52208W        W18617  43.608  13.597  12.094
52209W        W18618  14.682  38.529  12.664
52210W        W18619  32.447  25.538   3.537
52211W        W18620   6.933  13.346  11.182
52212W        W18621  33.320  38.539  13.694
52213W        W18622  43.353   5.643   0.974
52214W        W18623  16.010  18.584  12.629
52215W        W18624  28.509   0.347   4.479
52216W        W18625   1.481  19.194   1.217
52217W        W18626  15.851  34.038   1.633
52218W        W18627  30.620  19.671   0.034
52219W        W18628  25.122  24.202  13.459
52220W        W18629  42.220  25.667   0.112
52221W        W18630  32.939  22.523  14.888
52222W        W18631  25.922   2.184  10.531
52223W        W18632  11.628  25.088   0.936
52224W        W18633   5.402  25.599  12.843
52225W        W18634  20.357   6.106   3.312
52226W        W18635  44.203   8.754  14.988
52227W        W18636   3.758  31.181  10.695
52228W        W18637  18.163  28.721   3.701
52229W        W18638  20.286  38.769   2.410
52230W        W18639   8.852  39.051   3.884
52231W        W18640  37.807  20.091  14.321
52232W        W18641  39.144  12.782   3.539
52233W        W18642   8.417  13.171  11.625
52234W        W18643  11.276  10.146   2.176
52235W        W18644   9.155  23.087   0.904
52236W        W18645   8.203  11.302  10.639
52237W        W18646  21.057  26.432   4.635
52238W        W18647  16.524  35.951  10.988
52239W        W18648  13.041  20.964   3.158
52240W        W18649   6.248   1.409   4.624
52241W        W18650  11.277  14.566   3.184
52242W        W18651  42.565  14.488  12.482
52243W        W18652  14.322  14.893   2.941
52244W        W18653  12.575  21.057   3.355
52245W        W18654  44.069  21.559  13.929
52246W        W18655  22.097  23.569   4.162
52247W        W18656  37.439  21.963   0.399
52248W        W18657  12.245  16.773   0.770
52249W        W18658  18.378  12.881   2.634
52250W        W18659  38.908  15.928   1.800
52251W        W18660   2.767  33.514   4.742
52252W        W18661  21.680  23.465   3.193
52253W        W18662  29.904  11.766   4.483
52254W        W18663  23.495  39.078  12.612
52255W        W18664  35.494   8.419  11.556
52256W        W18665  15.630  28.542  11.596
52257W        W18666  40.782  29.666   1.369
52258W        W18667   0.286  23.513  14.830
52259W        W18668  10.418  42.345  10.583
52260W        W18669   8.211  34.956   1.004
52261W        W18670  34.600  23.412  11.667
52262W        W18671  40.753  24.364   2.766
52263W        W18672  14.754   5.782  11.193
52264W        W18673   5.720  37.506  13.837
52265W        W18674  40.543   4.253   4.231
52266W        W18675  33.706  44.548  14.790
52267W        W18676  15.531  25.700   1.393
52268W        W18677  29.975   7.243   2.570
52269W        W18678  28.063   9.134  12.397
52270W        W18679  42.521  17.418   3.053
52271W        W18680  37.539   5.669   0.198
52272W        W18681  44.997  32.987   4.467
52273W        W18682  17.294  32.366   2.610
52274W        W18683  41.250   3.021  14.340
52275W        W18684  33.732  12.626  13.939
52276W        W18685  14.916   4.386   3.593
52277W        W18686  28.497   3.483   0.307
52278W        W18687  20.325   4.337   2.313
52279W        W18688   3.485   4.634   4.651
52280W        W18689  19.728  30.040   2.740
52281W        W18690   9.286  14.142  13.333
52282W        W18691  19.236   2.366  13.116
52283W        W18692  23.131  17.026   4.507
52284W        W18693  18.164   7.214  13.304
52285W        W18694  38.350  34.822  11.158
52286W        W18695  24.260  18.650  14.396
52287W        W18696  41.861  23.288   3.350
52288W        W18697  30.956   3.708   3.184
52289W        W18698  36.051  16.954  10.737
52290W        W18699  32.637  11.350  11.216
52291W        W18700  12.793  19.318   1.694
52292W        W18701  25.229   2.310   2.837
52293W        W18702   1.849  22.737   1.585
52294W        W18703  36.107  31.833  10.635
52295W        W18704   9.744  34.087   3.082
52296W        W18705  13.325  17.551   4.093
52297W        W18706  14.509  39.441   2.609
52298W        W18707  19.523  35.482   2.803
52299W        W18708  42.278  26.150   4.614
52300W        W18709  37.465  25.994   2.747
52301W        W18710  31.027  38.287  14.523
52302W        W18711  40.005  33.870   0.953
52303W        W18712  20.797  41.591   0.796
52304W        W18713  16.638  40.701   1.253
52305W        W18714   2.796  13.386   1.384
52306W        W18715  23.256  42.763  11.897
52307W        W18716  37.432  13.174   0.271
52308W        W18717   7.227  13.341   3.746
52309W        W18718   9.876  27.444  10.310
52310W        W18719  19.804  36.321   3.834
52311W        W18720  36.961  30.859  10.786
52312W        W18721  36.549  31.419   4.654
52313W        W18722  30.490   1.927   0.449
52314W        W18723  20.742   4.858   0.955
52315W        W18724   4.639   7.633  11.465
52316W        W18725  16.605  21.614  13.511
52317W        W18726  23.105  27.373  14.433
52318W        W18727  27.107  15.194  12.407
52319W        W18728  18.101   0.433   0.357
52320W        W18729   6.777  18.578   2.580
52321W        W18730   4.049  39.587  10.843
52322W        W18731   7.462   2.377  12.585
52323W        W18732  36.639  30.471  10.723
52324W        W18733  13.179  29.214  13.959
52325W        W18734  15.870  14.683   1.354
52326W        W18735  10.403  20.150  14.045
52327W        W18736  34.738  31.337   0.917
52328W        W18737  15.909  35.017   0.808
52329W        W18738  20.182  16.748  13.862
52330W        W18739  14.371  39.560   3.600
52331W        W18740  21.260  36.139  14.363
52332W        W18741  31.551   8.676   4.396
52333W        W18742  43.925  33.830  12.362
52334W        W18743  30.606  36.537   3.462
52335W        W18744  33.895   9.374  10.806
52336W        W18745  32.091  18.303  10.825
52337W        W18746  15.546  12.934  11.723
52338W        W18747   5.734  27.909  13.748
52339W        W18748  12.426  21.678  12.458
52340W        W18749  16.779  31.382  14.251
52341W        W18750  14.751  35.032  10.285
52342W        W18751  38.989   7.021   9.842
52343W        W18752  16.038  12.557   5.093
52344W        W18753   0.887   0.003  14.271
52345W        W18754  41.206  27.115   2.229
52346W        W18755  11.815  32.887   2.621
52347W        W18756  15.851  38.898  12.797
52348W        W18757  25.453   0.208   1.927
52349W        W18758  17.143  10.741   3.207
52350W        W18759  22.290  23.442  13.670
52351W        W18760  20.132  27.486  11.654
52352W        W18761   9.207  30.031   4.540
52353W        W18762   7.230  15.780  10.740
52354W        W18763  40.897  42.264  11.088
52355W        W18764   8.848  27.489  11.965
52356W        W18765  28.204  17.085   0.706
52357W        W18766   4.977  29.515   0.988
52358W        W18767  33.161  38.412   4.187
52359W        W18768   6.234  43.177  13.819
52360W        W18769  44.469  41.393  10.788
52361W        W18770  15.742  43.307  10.902
52362W        W18771  40.153  38.110  13.974
52363W        W18772   7.572  38.895   4.809
52364W        W18773  39.345   7.344  11.504
52365W        W18774   3.212  14.787   3.058
52366W        W18775   7.834  23.804   1.160
52367W        W18776   1.711  29.931   2.828
52368W        W18777  36.048  30.057   0.354
52369W        W18778  25.110  21.624  12.556
52370W        W18779  16.312  20.411  12.220
52371W        W18780  38.508   8.002  13.925
52372W        W18781  25.540  35.076  10.410
52373W        W18782  24.065  27.718   3.942
52374W        W18783  35.883  24.198   1.343
52375W        W18784  44.508  10.112  14.854
52376W        W18785  26.606  29.942   1.934
52377W        W18786  43.096   2.120   0.204
52378W        W18787  42.687  29.624   0.183
52379W        W18788  15.003  34.943   3.078
52380W        W18789  37.923  21.591   2.671
52381W        W18790   1.494  26.866   1.379
52382W        W18791  12.725  38.420  11.577
52383W        W18792   6.853  44.058  10.757
52384W        W18793   7.422  10.701   0.392
52385W        W18794   9.877  43.896   0.429
52386W        W18795   2.257  19.693   2.467
52387W        W18796  39.286   2.222  12.936
52388W        W18797  24.428  18.066   3.679
52389W        W18798   8.269  20.786   1.924
52390W        W18799  14.567   4.459  13.007
52391W        W18800  15.706  41.828  10.178
52392W        W18801   7.827  32.951   5.181
52393W        W18802   5.140  25.040  13.254
52394W        W18803  33.906  29.917  11.073
52395W        W18804  16.570  43.709  13.972
52396W        W18805  29.866  21.367   1.919
52397W        W18806  11.869  36.214   2.260
52398W        W18807  38.552  20.535   0.685
52399W        W18808   0.462  20.631   0.775
52400W        W18809  19.313  36.931  13.925
52401W        W18810  35.055  19.183  10.576
52402W        W18811  20.718  30.407   2.804
52403W        W18812  27.269  37.516   2.712
52404W        W18813  34.315  39.414  11.053
52405W        W18814   6.345  34.835   4.826
52406W        W18815  11.004  27.630  14.507
52407W        W18816  23.427   5.368  10.706
52408W        W18817  17.802  11.692  13.435
52409W        W18818  28.587  44.445   1.338
52410W        W18819  22.722   1.394   4.600
52411W        W18820  23.578  44.198   2.967
52412W        W18821  15.527  21.423   0.052
52413W        W18822  33.829   5.854   1.685
52414W        W18823  39.732  13.202  11.176
52415W        W18824  11.387   1.799  14.083
52416W        W18825  28.496  31.039   4.601
52417W        W18826  12.080  44.765  12.503
52418W        W18827  28.073  16.897  10.359
52419W        W18828  44.526   6.576  14.976
52420W        W18829  18.223  16.630  12.984
52421W        W18830  38.993  11.347   0.385
52422W        W18831  16.351  17.165  12.897
52423W        W18832  37.110  18.346  11.324
52424W        W18833   3.996   0.306   2.128
52425W        W18834  24.151   1.752   0.947
52426W        W18835  36.844   9.730   4.207
52427W        W18836  18.495  23.770  10.355
52428W        W18837  25.046   5.594   4.661
52429W        W18838  27.676  29.924   3.697
52430W        W18839  34.356  21.141  13.429
52431W        W18840   9.234   2.271   3.162
52432W        W18841  24.142  29.502   4.571
52433W        W18842   6.400   7.273   1.649
52434W        W18843  30.956  18.051  12.111
52435W        W18844  23.145   4.828   1.160
52436W        W18845   7.413  28.474  13.540
52437W        W18846  13.736  29.984  14.842
52438W        W18847  35.385  12.613  12.506
52439W        W18848  25.524  28.430  14.774
52440W        W18849  23.934  24.745   2.329
52441W        W18850   4.262  10.330   1.847
52442W        W18851  43.685   3.716   2.281
52443W        W18852   8.066  14.800   3.193
52444W        W18853   3.900  11.344  11.860
52445W        W18854   4.341  12.359   1.229
52446W        W18855  22.372  25.336  11.100
52447W        W18856  12.275  20.974  11.944
52448W        W18857  44.516   5.409   0.448
52449W        W18858   1.915  41.011  14.327
52450W        W18859   9.611  13.120  13.934
52451W        W18860  30.429  23.053  12.142
52452W        W18861  42.136  18.710   0.196
52453W        W18862  27.931  36.101   1.962
52454W        W18863  19.219  13.383   2.192
52455W        W18864  17.200   7.916   1.416
52456W        W18865  41.372  44.532  13.033
52457W        W18866  32.623   2.283  10.638
52458W        W18867  42.049  38.071  14.967
52459W        W18868  20.585  29.492   3.873
52460W        W18869   1.382   4.683   4.206
52461W        W18870   6.721  35.190  13.619
52462W        W18871  29.419  21.591   2.053
52463W        W18872  37.427   9.942   0.818
52464W        W18873  32.902  38.942  13.631
52465W        W18874  16.491   1.436   4.134
52466W        W18875  30.694  28.356  12.034
52467W        W18876   0.855  25.435   0.349
52468W        W18877  34.542  23.979   0.877
52469W        W18878  24.645  17.860  13.196
52470W        W18879  14.809  34.130   9.995
52471W        W18880   9.945  22.403  12.966
52472W        W18881  22.982  20.948  12.257
52473W        W18882  42.370  39.581  14.094
52474W        W18883  20.207  44.357  14.253
52475W        W18884   6.348  17.018  14.808
52476W        W18885   8.219   1.919   4.397
52477W        W18886  11.543  14.073   1.740
52478W        W18887  40.383   6.671   0.552
52479W        W18888   9.345  40.326   2.174
52480W        W18889  12.047  41.494   1.801
52481W        W18890  16.286  17.592  12.559
52482W        W18891  36.646  36.857   1.357
52483W        W18892  42.244  10.819  11.599
52484W        W18893  32.717  17.654   3.234
52485W        W18894  19.602  42.038  11.195
52486W        W18895   6.180  20.437   0.820
52487W        W18896  20.666   8.678   1.163
52488W        W18897  33.051  28.864   0.261
52489W        W18898  33.494   6.393  14.569
52490W        W18899  12.398  18.205   3.761
52491W        W18900  23.127  12.366   2.646
52492W        W18901  31.920  27.486   3.948
52493W        W18902  37.489  41.216  14.251
52494W        W18903  11.869  16.184   3.740
52495W        W18904  42.357  20.048   4.844
52496W        W18905  41.404  42.142   2.903
52497W        W18906   2.689  16.014  13.898
52498W        W18907  42.981  15.062   1.795
52499W        W18908  39.288  20.327  12.047
52500W        W18909  12.785  13.114   0.176
52501W        W18910   8.169   1.301   0.216
52502W        W18911   1.805  14.149  12.793
52503W        W18912  13.673  16.098   4.136
52504W        W18913  43.891  11.241  11.130
52505W        W18914  22.977  20.174  10.502
52506W        W18915  19.645   2.201  12.409
52507W        W18916  39.191   7.532  10.577
52508W        W18917   7.356  42.326   3.224
52509W        W18918  31.522   6.206   1.680
52510W        W18919  18.255  25.219  12.561
52511W        W18920  26.780   3.896  12.820
52512W        W18921   2.578  41.499  12.052
52513W        W18922  31.938  23.588  11.022
52514W        W18923   6.104  38.993   3.622
52515W        W18924   6.367  40.400  12.743
52516W        W18925  15.694  26.930  14.862
52517W        W18926  18.543  10.220   1.604
52518W        W18927  28.479  13.230   3.865
52519W        W18928   7.215  44.732  13.436
52520W        W18929   7.830  36.074   3.062
52521W        W18930  17.604  23.284  12.996
52522W        W18931  36.895  15.363  10.681
52523W        W18932  18.809  33.025  12.455
52524W        W18933  14.870  28.073  11.668
52525W        W18934  33.654  16.215  13.388
52526W        W18935  34.149  28.105  10.493
52527W        W18936   2.671   3.703   2.807
52528W        W18937   5.078   7.266  12.862
52529W        W18938  34.389  36.385  14.360
52530W        W18939  18.344   6.177   3.329
52531W        W18940  38.360  35.013   0.005
52532W        W18941   4.821  11.755  10.926
52533W        W18942  15.629   5.201  12.884
52534W        W18943  23.736  28.119   2.695
52535W        W18944  17.880  13.693   4.291
52536W        W18945  28.477  15.343   4.883
52537W        W18946   0.910  28.171   2.569
52538W        W18947  20.894   0.403  11.149
52539W        W18948  37.796   7.203  14.279
52540W        W18949  17.428  34.776   4.999
52541W        W18950  22.170  41.832   3.408
52542W        W18951   0.523   9.227   9.826
52543W        W18952  18.647  15.790  11.138
52544W        W18953  40.268  14.051  14.336
52545W        W18954  28.389  40.510   1.861
52546W        W18955  33.879  23.553  14.653
52547W        W18956   6.319  23.366   5.393
52548W        W18957  17.728  12.344  12.038
52549W        W18958  29.390   4.736   1.900
52550W        W18959  31.830  41.115  13.823
52551W        W18960  35.572  32.356   2.824
52552W        W18961  18.988  19.123  11.573
52553W        W18962  37.389  27.225  10.403
52554W        W18963  42.059   5.734   1.179
52555W        W18964  13.488  38.632   5.254
52556W        W18965  41.422  41.851   0.734
52557W        W18966  22.181  15.018  10.634
52558W        W18967  18.247   9.835   2.213
52559W        W18968   7.123  26.761  10.253
52560W        W18969  43.096  15.267  13.994
52561W        W18970  32.980  11.785  12.926
52562W        W18971  28.939  36.319  11.385
52563W        W18972  12.902  18.120   1.381
52564W        W18973   2.941  42.000  14.394
52565W        W18974  26.539  32.685  12.385
52566W        W18975  18.603  20.324   9.910
52567W        W18976  22.552  25.646  10.459
52568W        W18977  27.973  12.068  11.741
52569W        W18978   3.441   6.982   4.090
52570W        W18979  40.882   3.278   2.366
52571W        W18980  21.405  41.034   3.793
52572W        W18981  27.956  14.278   1.278
52573W        W18982  30.338  43.246   3.670
52574W        W18983  37.595  27.675  11.553
52575W        W18984  33.558  27.357   1.772
52576W        W18985   8.092  33.063   2.318
52577W        W18986  17.840  11.753   3.220
52578W        W18987  29.503   3.482  14.534
52579W        W18988  32.825   8.744   1.766
52580W        W18989  25.198  27.228   2.876
52581W        W18990  44.996  39.270  10.912
52582W        W18991   9.142  42.743  11.656
52583W        W18992  15.801   1.051   1.275
52584W        W18993  25.013   0.034  14.877
52585W        W18994   5.606   1.651   4.244
52586W        W18995  41.988  11.058   0.974
52587W        W18996  29.571  34.430  10.283
52588W        W18997   8.986   3.334  11.998
52589W        W18998   8.014  35.309   4.497
52590W        W18999   6.972  13.866   0.935
52591W        W19000  27.826  38.918  10.346
52592W        W19001   5.582  41.920   3.628
52593W        W19002  33.449  26.306  14.948
52594W        W19003  13.544  26.093  11.076
52595W        W19004  42.495   6.681  10.283
52596W        W19005  32.826  26.967  14.371
52597W        W19006  15.538  31.031  14.277
52598W        W19007  34.382  27.384  10.738
52599W        W19008  18.204  16.191   0.229
52600W        W19009   2.423   4.855   3.650
52601W        W19010  27.546  24.729   1.831
52602W        W19011  42.894   0.478  11.650
52603W        W19012  27.047  44.986   3.910
52604W        W19013   7.170  34.866   4.033
52605W        W19014  37.472  13.140   4.061
52606W        W19015   2.572   3.245  13.326
52607W        W19016  20.683  12.244   3.698
52608W        W19017  23.992   1.310   3.301
52609W        W19018   7.651  26.597  12.974
52610W        W19019  43.480   1.485  13.882
52611W        W19020  20.618  32.371  11.605
52612W        W19021  41.282  36.791   1.764
52613W        W19022  14.287  14.420   3.230
52614W        W19023   2.352   8.802   3.462
52615W        W19024  38.435  41.910  13.455
52616W        W19025  37.785  31.410  14.373
52617W        W19026   4.597  13.051   1.834
52618W        W19027  43.720  39.318  11.099
52619W        W19028   1.799  29.411   4.634
52620W        W19029  25.674  43.054   4.001
52621W        W19030   9.712  44.223   5.010
52622W        W19031  44.476  33.907  13.051
52623W        W19032  17.323  23.722  14.766
52624W        W19033  26.919  13.501   4.820
52625W        W19034   9.900  25.079   1.212
52626W        W19035  43.538  32.404  12.465
52627W        W19036  23.010  43.410   1.276
52628W        W19037  40.329  13.798  11.961
52629W        W19038  44.210  40.725   1.771
52630W        W19039  35.540  30.051   3.195
52631W        W19040  30.124  11.668  11.128
52632W        W19041  14.902   1.455   9.772
52633W        W19042  17.713   9.608   1.492
52634W        W19043  25.853   6.700   1.256
52635W        W19044  25.637  22.245   0.284
52636W        W19045  29.413  20.067  11.528
52637W        W19046  35.542  26.225   3.295
52638W        W19047  27.154   5.915  11.536
52639W        W19048  34.496  37.655   4.462
52640W        W19049  34.694   3.922  13.066
52641W        W19050  32.458   9.007  10.443
52642W        W19051  24.558  26.193  11.436
52643W        W19052   1.217  23.842  13.131
52644W        W19053   2.444  43.556  13.061
52645W        W19054  12.051  18.180   4.175
52646W        W19055  32.516   3.783  12.551
52647W        W19056  42.213  33.895   0.616
52648W        W19057  15.208  15.360  13.539
52649W        W19058  20.531  18.646  11.022
52650W        W19059  35.895  37.736  11.480
52651W        W19060  27.619  43.264  11.912
52652W        W19061   1.031   8.196  11.046
52653W        W19062   9.808  26.537   1.821
52654W        W19063  27.536  26.735   0.750
52655W        W19064   8.667  10.888   4.630
52656W        W19065  19.815   3.199   0.191
52657W        W19066  42.745  26.440   2.711
52658W        W19067  24.951  21.054   5.414
52659W        W19068  36.392   8.296   3.360
52660W        W19069  14.588  35.118  14.832
52661W        W19070  16.803   2.977  12.860
52662W        W19071  43.467  23.877   0.875
52663W        W19072  13.541  13.283   3.812
52664W        W19073  11.864  44.692   1.235
52665W        W19074  11.556  13.932  14.257
52666W        W19075  34.485  33.003  13.873
52667W        W19076  41.831   7.657  14.295
52668W        W19077  29.025  35.541  13.613
52669W        W19078  38.446  29.392   0.851
52670W        W19079  33.899   7.370   1.876
52671W        W19080  42.321  12.315  12.041
52672W        W19081  36.033  22.796  14.534
52673W        W19082  15.794  26.799  13.479
52674W        W19083   8.325  28.577  13.989
52675W        W19084  32.089   5.801  12.977
52676W        W19085  25.959  34.426   0.816
52677W        W19086  19.141  11.363  11.177
52678W        W19087  23.709  36.138  14.423
52679W        W19088   0.278   7.333  11.319
52680W        W19089  13.238  31.833   2.838
52681W        W19090  29.137  29.109  13.292
52682W        W19091   0.655  27.815   4.899
52683W        W19092  40.015  20.708  13.816
52684W        W19093  35.093   2.230   3.548
52685W        W19094  27.076  22.739   3.599
52686W        W19095  27.844  37.437  12.381
52687W        W19096  26.161   9.160  14.962
52688W        W19097   6.845   1.288   0.189
52689W        W19098  36.325  20.329   0.047
52690W        W19099  15.942  39.588  14.837
52691W        W19100  29.229  13.740   1.214
52692W        W19101  43.043  18.719   3.658
52693W        W19102  31.507  17.045  13.137
52694W        W19103   1.700  32.995   2.822
52695W        W19104  31.129   5.878   2.390
52696W        W19105  18.556  14.253  12.928
52697W        W19106  32.633   5.371   3.382
52698W        W19107  22.720  10.155   4.737
52699W        W19108  36.411  23.994  12.115
52700W        W19109  23.821  15.186  11.567
52701W        W19110   2.737  34.345  10.843
52702W        W19111  44.593  30.408  12.144
52703W        W19112  17.034  19.545  14.085
52704W        W19113   3.985  30.372  12.831
52705W        W19114   2.843  14.331  14.394
52706W        W19115  30.500  33.054   3.202
52707W        W19116   8.675  23.435  12.032
52708W        W19117  17.955   3.353  13.802
52709W        W19118  41.445  42.075   3.785
52710W        W19119  18.320  36.953   3.093
52711W        W19120  33.443  29.941   4.090
52712W        W19121   4.094  23.785   4.042
52713W        W19122   6.203  11.382  13.024
52714W        W19123  19.003   7.262   1.535
52715W        W19124   6.324   4.138  13.978
52716W        W19125  27.017  37.523   3.184
52717W        W19126  40.553   4.394   3.233
52718W        W19127   7.712  30.933   2.752
52719W        W19128   5.333  32.594   3.155
52720W        W19129   7.634   9.236   0.580
52721W        W19130  13.638  41.854  10.696
52722W        W19131  34.947  21.958  13.838
52723W        W19132  26.251   4.415  11.125
52724W        W19133   5.610  37.941  11.239
52725W        W19134  19.006  13.630  11.935
52726W        W19135  25.595   6.120   1.276
52727W        W19136   9.945  44.443   3.306
52728W        W19137  14.164  32.001  10.360
52729W        W19138  19.965  14.050  10.691
52730W        W19139  13.759  14.695   0.176
52731W        W19140  33.628  10.363  14.883
52732W        W19141  15.336  35.097   3.758
52733W        W19142   3.281   3.473   3.366
52734W        W19143  33.961   6.884   2.142
52735W        W19144  12.188  19.160  11.707
52736W        W19145  10.195   6.959  10.549
52737W        W19146  44.952  27.088   4.171
52738W        W19147   9.898  11.889  11.216
52739W        W19148  13.315  40.756  13.433
52740W        W19149  29.481  17.362  10.699
52741W        W19150  35.140  36.968   3.399
52742W        W19151  17.667  39.468  14.695
52743W        W19152  16.869  39.151   4.592
52744W        W19153  40.704  14.431  13.472
52745W        W19154  32.569  23.768   1.364
52746W        W19155   7.802  30.176   4.438
52747W        W19156   5.177  14.698  10.406
52748W        W19157   2.851  25.163   0.917
52749W        W19158  33.925  40.515  11.557
52750W        W19159  41.375  36.415   1.429
52751W        W19160   4.658  24.183  12.862
52752W        W19161  24.491   0.939  11.107
52753W        W19162  22.595  25.896   1.858
52754W        W19163  37.431   0.070  13.937
52755W        W19164   0.483  24.610  14.092
52756W        W19165  28.685   2.720  12.403
52757W        W19166   4.360  37.471  11.842
52758W        W19167  11.408  37.604  14.366
52759W        W19168  38.825  43.285   1.220
52760W        W19169  11.857  15.316   3.180
52761W        W19170  28.162  35.090  10.423
52762W        W19171  38.280  37.728   0.367
52763W        W19172  38.052   7.666   2.883
52764W        W19173  39.472  36.878  12.556
52765W        W19174  38.637  20.735  13.520
52766W        W19175  31.452  44.358   0.346
52767W        W19176   6.643  41.512   2.253
52768W        W19177  24.425  24.276  13.077
52769W        W19178  15.859   2.377   0.602
52770W        W19179  39.305  22.168  12.487
52771W        W19180  24.782  30.848   1.878
52772W        W19181  26.680  43.361   0.405
52773W        W19182  24.661  21.944   2.689
52774W        W19183   9.570  27.090   2.847
52775W        W19184  11.187  27.933   1.752
52776W        W19185   6.608   3.155   3.956
52777W        W19186  31.352   0.520   1.192
52778W        W19187  20.482  18.003  14.350
52779W        W19188  10.920  33.934  13.836
52780W        W19189  14.825  41.586   1.410
52781W        W19190  40.040  31.035  14.883
52782W        W19191  35.612  27.206  12.088
52783W        W19192   8.760  12.724   0.527
52784W        W19193  18.170  36.389  13.046
52785W        W19194   2.459  11.736  12.909
52786W        W19195  34.165  26.140   0.326
52787W        W19196   6.528  41.689  13.767
52788W        W19197  37.908  10.023  14.915
52789W        W19198  20.261   0.661   9.592
52790W        W19199  42.438  14.507   1.412
52791W        W19200  33.473  19.238   2.593
52792W        W19201  43.582  32.125   1.188
52793W        W19202   6.451   2.359   4.893
52794W        W19203  19.484  41.798   0.027
52795W        W19204  43.773   8.369  13.548
52796W        W19205  29.070  19.256   0.596
52797W        W19206  20.776  17.216   2.936
52798W        W19207  31.294  34.241   4.088
52799W        W19208  15.715   9.811   0.521
52800W        W19209  12.616  35.326   0.380
52801W        W19210  14.686  19.978   1.405
52802W        W19211  24.193   3.927   0.912
52803W        W19212  44.958  17.332  14.530
52804W        W19213  35.002  38.711   1.323
52805W        W19214  24.672  28.992   2.456
52806W        W19215  12.577   8.318   2.782
52807W        W19216   5.171  24.036  11.982
52808W        W19217  31.541  10.597  13.843
52809W        W19218  21.831  27.900  14.448
52810W        W19219   0.575  21.760   3.465
52811W        W19220  12.440  16.815   4.371
52812W        W19221   5.543  44.053  11.475
52813W        W19222  32.830   7.826   0.516
52814W        W19223  42.549  41.233  14.719
52815W        W19224  21.175  27.196   0.357
52816W        W19225  33.307  12.663   4.574
52817W        W19226  19.554   2.296   3.605
52818W        W19227   6.264   7.879  13.828
52819W        W19228   0.262  16.927  14.785
52820W        W19229  26.679   9.904   1.139
52821W        W19230  26.451   9.104   2.731
52822W        W19231  30.045  32.656   2.687
52823W        W19232  32.530  37.097   0.265
52824W        W19233  35.632  34.640   0.762
52825W        W19234   0.314  25.387  10.715
52826W        W19235  23.133  35.527   0.464
52827W        W19236  35.595   1.498  12.798
52828W        W19237  11.945  16.865  13.301
52829W        W19238  25.396  36.355  14.816
52830W        W19239  40.724   7.227  10.108
52831W        W19240  22.936  44.158  14.492
52832W        W19241  16.756  27.996  12.177
52833W        W19242  18.081  23.712  11.230
52834W        W19243   2.819  23.584  12.784
52835W        W19244  41.547  14.116  14.680
52836W        W19245  38.549  37.590   4.586
52837W        W19246  34.490   3.908   2.120
52838W        W19247  11.337  12.734   2.360
52839W        W19248   5.360  14.258  11.214
52840W        W19249  36.507   0.370   2.293
52841W        W19250  24.110   5.512   1.751
52842W        W19251  23.052  41.880  12.926
52843W        W19252  21.680  11.313  12.482
52844W        W19253  27.612  34.674  11.593
52845W        W19254   0.932  42.295  11.079
52846W        W19255  23.214  13.239  13.453
52847W        W19256  35.364   5.976   3.716
52848W        W19257   8.878  36.315   3.742
52849W        W19258   0.292  10.158  12.912
52850W        W19259  32.373   9.941   3.649
52851W        W19260  37.952  28.421   2.704
52852W        W19261  37.004   7.621  12.592
52853W        W19262  30.885   1.305  14.228
52854W        W19263   7.823  10.378  10.696
52855W        W19264  21.639  44.139  11.071
52856W        W19265  15.754   8.622  14.860
52857W        W19266  20.640   2.805   0.051
52858W        W19267   0.968  27.785   4.479
52859W        W19268   2.270  28.179   2.838
52860W        W19269   7.185  12.254   3.064
52861W        W19270  31.828  23.172   2.726
52862W        W19271  26.031  15.597   1.374
52863W        W19272   1.335  40.936   0.051
52864W        W19273  21.259  36.657   0.179
52865W        W19274  23.713   1.674   0.582
52866W        W19275  27.049   8.383   4.154
52867W        W19276  18.619  21.854   4.573
52868W        W19277  27.464  16.677   0.545
52869W        W19278  17.664   3.000  10.692
52870W        W19279  29.539  23.952  13.527
52871W        W19280  20.294  22.234   1.869
52872W        W19281  20.071  21.596   4.094
52873W        W19282  23.135  27.031  10.756
52874W        W19283  31.230   9.599  11.064
52875W        W19284   2.342  31.455  12.824
52876W        W19285  29.970  29.720  12.975
52877W        W19286  18.729  44.416   4.056
52878W        W19287  38.036   4.205  13.713
52879W        W19288   4.915  12.754   4.090
52880W        W19289  26.727  23.720  12.935
52881W        W19290  44.193  23.471   2.755
52882W        W19291  38.863  35.991   1.293
52883W        W19292  15.279  18.174  10.812
52884W        W19293   7.996  17.408   2.742
52885W        W19294  39.536  18.854   2.301
52886W        W19295  24.226  27.001  13.843
52887W        W19296  38.444  15.143  14.786
52888W        W19297  37.702  19.063   0.751
52889W        W19298  16.198  25.932  13.033
52890W        W19299  30.661  19.357  11.594
52891W        W19300  24.875  28.121   1.850
52892W        W19301  36.175  13.653   4.545
52893W        W19302   1.645  20.848  12.404
52894W        W19303  30.045  22.967  13.785
52895W        W19304  30.455  15.083   3.128
52896W        W19305  25.246  25.075  13.316
52897W        W19306  21.980  39.627   3.634
52898W        W19307  24.126  22.686  12.077
52899W        W19308  37.488  44.883  12.794
52900W        W19309  10.417  14.159   2.145
52901W        W19310  13.132  16.315  14.959
52902W        W19311  32.735  10.874   3.709
52903W        W19312  30.950  35.556   4.902
52904W        W19313  23.562  25.858  10.674
52905W        W19314  23.023  18.617  10.686
52906W        W19315   5.377  44.276  12.876
52907W        W19316   9.403  24.310   3.064
52908W        W19317  29.045  13.933  12.887
52909W        W19318   8.561   1.234   2.837
52910W        W19319  12.242  40.520   4.280
52911W        W19320  13.873  19.616   1.233
52912W        W19321  10.492   4.733   1.432
52913W        W19322   4.382  11.735   1.835
52914W        W19323   5.781  31.122   0.728
52915W        W19324  14.819   3.799  12.449
52916W        W19325  24.432  16.350  12.926
52917W        W19326  13.240  18.407  13.351
52918W        W19327   1.192  10.359  13.881
52919W        W19328  16.814  25.212   4.143
52920W        W19329  19.653   0.756  14.983
52921W        W19330  37.473  34.074   3.839
52922W        W19331  12.842  24.813   3.678
52923W        W19332  44.591  10.695   1.363
52924W        W19333  29.408  33.573   3.772
52925W        W19334  35.138  19.303   3.197
52926W        W19335   9.915  38.597   1.800
52927W        W19336   0.391   2.769   4.572
52928W        W19337  12.910  10.748   4.163
52929W        W19338  33.994  37.088   0.330
52930W        W19339  31.644   2.978  14.009
52931W        W19340  43.770  21.623   0.896
52932W        W19341  14.762   0.384   9.762
52933W        W19342   1.995   2.702   1.833
52934W        W19343  41.776  24.117   3.001
52935W        W19344  23.152  18.842   1.768
52936W        W19345   5.438  30.665  14.401
52937W        W19346  17.258   5.955   0.386
52938W        W19347  36.864  11.069  11.067
52939W        W19348  25.360  26.120  11.616
52940W        W19349  18.962  41.038   4.447
52941W        W19350   4.502  40.524   0.449
52942W        W19351  41.427  40.270   4.102
52943W        W19352  25.318  16.568  12.881
52944W        W19353  28.313   8.194  12.639
52945W        W19354  28.122  14.726   3.281
52946W        W19355  21.738  25.148  12.123
52947W        W19356  44.296  26.616  12.104
52948W        W19357  19.722  26.580  13.294
52949W        W19358   4.879  24.258   1.168
52950W        W19359  31.340  36.524  11.943
52951W        W19360  14.643  18.394   0.134
52952W        W19361  32.288  37.106   1.498
52953W        W19362  26.758  30.395  14.818
52954W        W19363  31.518  20.543   4.692
52955W        W19364  36.251  34.673   0.451
52956W        W19365  43.024  23.594   0.834
52957W        W19366  27.472  23.406   0.749
52958W        W19367  12.917  23.990   1.258
52959W        W19368   5.597   9.704   2.696
52960W        W19369  16.675  41.791   2.637
52961W        W19370  39.607  22.167  11.062
52962W        W19371  32.040  32.513   2.445
52963W        W19372   7.373  41.370  12.090
52964W        W19373  39.319  41.897   3.298
52965W        W19374  33.115  30.427   2.188
52966W        W19375  42.661  19.659   0.077
52967W        W19376  29.504   2.808  11.620
52968W        W19377  19.877  24.738  13.913
52969W        W19378  32.483  20.873  11.505
52970W        W19379  31.008  33.720   1.282
52971W        W19380   3.207   4.162  14.547
52972W        W19381  15.317  14.837  14.192
52973W        W19382  20.565  25.933   1.307
52974W        W19383  27.797  22.421  11.499
52975W        W19384  18.928   6.755   4.013
52976W        W19385   2.793  33.069  11.270
52977W        W19386  26.663  26.055  10.554
52978W        W19387  13.649  35.282   1.266
52979W        W19388  12.752   2.819   1.235
52980W        W19389  39.381  33.189   3.499
52981W        W19390  30.443  34.206  14.904
52982W        W19391   4.371  21.327  13.855
52983W        W19392  31.122   0.871  11.428
52984W        W19393  16.192   7.923   0.380
52985W        W19394  38.929   8.747  14.279
52986W        W19395  44.451   2.002   0.200
52987W        W19396  37.358  20.280   0.895
52988W        W19397   5.271  13.371  13.018
52989W        W19398  11.091  17.549  13.470
52990W        W19399  32.450  24.452  13.990
52991W        W19400  15.972  43.007   1.174
52992W        W19401  43.469   5.165  11.992
52993W        W19402   1.253  20.352   0.530
52994W        W19403  20.474  29.104  12.594
52995W        W19404  25.461  21.744   0.324
52996W        W19405  15.907  43.058   5.353
52997W        W19406  44.875  16.121  12.564
52998W        W19407  19.917  42.091   0.147
52999W        W19408  31.429  24.631   3.235
53000W        W19409  41.957   4.211  11.997
53001W        W19410  30.644   7.697  11.898
53002W        W19411  38.508  43.284  12.898
53003W        W19412  11.753  11.150  12.533
53004W        W19413  39.246  38.742   0.897
53005W        W19414  14.067  34.546  13.379
53006W        W19415  21.094   8.080  12.519
53007W        W19416  15.904   5.435   3.785
53008W        W19417   1.175  16.671  13.337
53009W        W19418  37.825   8.221  14.305
53010W        W19419   4.991   4.464  13.840
53011W        W19420   8.458  14.387   2.350
53012W        W19421  19.977  15.874  12.617
53013W        W19422  42.569  18.491  12.534
53014W        W19423   7.165  32.385  11.217
53015W        W19424  30.953  36.092   4.808
53016W        W19425  41.317  12.855  12.505
53017W        W19426  20.060  17.169   1.137
53018W        W19427  14.979  20.102  13.586
53019W        W19428  33.605  15.009  11.686
53020W        W19429  24.053  38.882  13.019
53021W        W19430  32.936  30.518   1.322
53022W        W19431  31.317  18.991   0.387
53023W        W19432  29.090   0.412  11.668
53024W        W19433  33.631  35.014  12.602
53025W        W19434   5.278  32.849   1.106
53026W        W19435  10.486  38.894   2.785
53027W        W19436  11.683  14.354  12.635
53028W        W19437   4.295  15.137   2.726
53029W        W19438  40.285  11.425   1.220
53030W        W19439  31.930  12.639  14.898
53031W        W19440  22.324  36.156   0.252
53032W        W19441   1.007  11.102  12.342
53033W        W19442  32.046  14.177  12.018
53034W        W19443  23.914  13.818   3.767
53035W        W19444  24.645  11.419   9.860
53036W        W19445  31.975  16.503  11.556
53037W        W19446  24.094  37.580  14.266
53038W        W19447  17.127  12.870  14.892
53039W        W19448  42.478   8.253   1.087
53040W        W19449  10.151  15.802   3.376
53041W        W19450  23.943   0.322  14.311
53042W        W19451  25.261  36.920  14.903
53043W        W19452   0.719  12.238   0.226
53044W        W19453   7.991  42.901   0.187
53045W        W19454   7.545   4.958  14.733
53046W        W19455  42.381   8.456  10.614
53047W        W19456  36.506  29.971  10.635
53048W        W19457   2.386  44.369   2.193
53049W        W19458   6.774  14.618  11.427
53050W        W19459  16.892  24.479   3.764
53051W        W19460  37.988  40.888   1.379
53052W        W19461   8.302  14.572   4.563
53053W        W19462  37.017  40.873  12.111
53054W        W19463   9.645  29.463   2.813
53055W        W19464  26.228  33.310  11.593
53056W        W19465  26.967  34.448  10.747
53057W        W19466   1.742  25.518  11.987
53058W        W19467   7.343  29.170  10.942
53059W        W19468  36.415  42.857  10.716
53060W        W19469  12.087  36.170  11.107
53061W        W19470  18.991  33.560   3.631
53062W        W19471  17.508  18.964  12.431
53063W        W19472  42.384  31.553  11.028
53064W        W19473  13.059  35.628   0.197
53065W        W19474   8.444   8.369   1.365
53066W        W19475  11.449   7.108  14.361
53067W        W19476  21.987  15.827  14.006
53068W        W19477   0.469  41.001  13.323
53069W        W19478  24.770  41.281   3.770
53070W        W19479  27.421   3.287   4.770
53071W        W19480  27.170   0.291   2.162
53072W        W19481  24.085   2.799  13.633
53073W        W19482  17.180  28.892   3.631
53074W        W19483  41.706  34.899  14.414
53075W        W19484  14.763  27.857  13.007
53076W        W19485  34.830   0.105  11.459
53077W        W19486  31.673   7.208  14.927
53078W        W19487   9.193  33.475   0.369
53079W        W19488  33.966  26.452   1.182
53080W        W19489  44.319  20.813  13.350
53081W        W19490  33.380  11.482   1.260
53082W        W19491  26.458   1.939  13.359
53083W        W19492   1.388  39.005  14.444
53084W        W19493  17.143   0.980   4.014
53085W        W19494  18.233  21.659   2.661
53086W        W19495   3.329  23.891  11.539
53087W        W19496  35.510  16.357   2.651
53088W        W19497  19.148   3.986   0.343
53089W        W19498  21.019   7.593   4.674
53090W        W19499   3.881  14.939  13.506
53091W        W19500  23.418  37.446   1.772
53092W        W19501  39.098  44.945   3.316
53093W        W19502  39.426   7.741   4.822
53094W        W19503  31.413  32.489  11.080
53095W        W19504  22.463  18.483   2.435
53096W        W19505  12.369   3.503   1.559
53097W        W19506  34.024  16.195  12.069
53098W        W19507  39.398  20.926  12.928
53099W        W19508  15.789  35.764   5.061
53100W        W19509  31.623   6.216   0.823
53101W        W19510  43.721   5.268   1.859
53102W        W19511  34.546  40.981   1.349
53103W        W19512  41.927  32.838  12.876
53104W        W19513  26.473   1.288   0.689
53105W        W19514  42.336  40.236   3.134
53106W        W19515  31.664  37.100   1.644
53107W        W19516  41.610  36.460  13.082
53108W        W19517  32.918  42.431  14.790
53109W        W19518  25.477   2.680   3.701
53110W        W19519   3.867   3.709   2.259
53111W        W19520  37.926  31.022  14.016
53112W        W19521   6.251  41.316   4.075
53113W        W19522   0.379  31.568  13.851
53114W        W19523   3.369   2.245  14.292
53115W        W19524  26.479  18.461   3.233
53116W        W19525  11.157  27.062   1.934
53117W        W19526   2.908  38.448   4.185
53118W        W19527  28.097   2.413   4.523
53119W        W19528  27.012  39.645  13.552
53120W        W19529  19.833  29.599  14.919
53121W        W19530   4.869  27.991   0.375
53122W        W19531  22.059  13.677   3.853
53123W        W19532  24.073  18.777   4.314
53124W        W19533   4.429  12.742   4.304
53125W        W19534  16.208  41.094   4.648
53126W        W19535  36.505  20.604  10.435
53127W        W19536  42.195   5.985   0.290
53128W        W19537   9.699  29.103   3.184
53129W        W19538   1.725  26.503   3.117
53130W        W19539  37.756  25.258   0.100
53131W        W19540  14.681   6.996  14.839
53132W        W19541  36.057  16.371  10.250
53133W        W19542  13.010   6.320   2.816
53134W        W19543  24.596   6.752   2.887
53135W        W19544   4.905   8.129   3.257
53136W        W19545  19.965   6.929   2.253
53137W        W19546   3.334  36.606  10.698
53138W        W19547  10.798  29.433  11.118
53139W        W19548  39.541  36.411   2.122
53140W        W19549   6.471   4.937  14.903
53141W        W19550  23.942   6.730   2.293
53142W        W19551  18.434  41.967   2.335
53143W        W19552   4.523  17.137  11.496
53144W        W19553   4.720  31.973   1.957
53145W        W19554  39.816  20.233   0.534
53146W        W19555   4.956   0.746   1.876
53147W        W19556   0.841  37.899  13.046
53148W        W19557  10.851   7.963  13.404
53149W        W19558  30.387  26.794  11.953
53150W        W19559  21.743  25.591   1.370
53151W        W19560  28.775   1.739  12.545
53152W        W19561  32.552   9.163  11.485
53153W        W19562  12.374   2.944  11.103
53154W        W19563  25.046  40.531   2.299
53155W        W19564  30.087   8.613  14.379
53156W        W19565  43.488  10.912   2.735
53157W        W19566   1.335  34.982  10.636
53158W        W19567   6.247  24.489  11.595
53159W        W19568  34.572  13.469  12.371
53160W        W19569  44.783  15.283   1.984
53161W        W19570  40.992   6.082   3.374
53162W        W19571  33.100  22.170   1.329
53163W        W19572  34.406   3.994   0.397
53164W        W19573  15.222  15.856   3.669
53165W        W19574  43.257  14.828   2.717
53166W        W19575  11.868   2.801   4.934
53167W        W19576  44.674  22.198  13.039
53168W        W19577  29.420   2.982   9.834
53169W        W19578   9.244  34.670  14.983
53170W        W19579  18.360  10.643  13.908
53171W        W19580   4.092   3.214  11.288
53172W        W19581  31.520   1.698  14.582
53173W        W19582  16.823   5.475   4.693
53174W        W19583   9.025  20.161  10.698
53175W        W19584   3.401   5.972   4.145
53176W        W19585  20.273   0.434  13.282
53177W        W19586   9.241   1.706  12.032
53178W        W19587   8.430   9.871   1.011
53179W        W19588   8.360  39.806  13.501
53180W        W19589  23.772  18.118  11.592
53181W        W19590  39.397   9.707  14.280
53182W        W19591  18.338  41.909   3.521
53183W        W19592  20.179   8.935  13.528
53184W        W19593  30.068  28.698  12.018
53185W        W19594  43.380  31.022  13.041
53186W        W19595   6.745  41.001   2.200
53187W        W19596  38.640  41.737  13.943
53188W        W19597  16.305   1.249   4.570
53189W        W19598  33.209  33.725  14.419
53190W        W19599  22.487  19.533   4.579
53191W        W19600  13.155   8.408   3.592
53192W        W19601  40.499  13.258   1.697
53193W        W19602  18.115  14.114   1.327
53194W        W19603  38.798  13.687  14.865
53195W        W19604  25.736  39.805   1.306
53196W        W19605  18.690  20.996  13.535
53197W        W19606  26.651  16.968  10.842
53198W        W19607  16.015  22.632  11.585
53199W        W19608  14.063   0.734  13.614
53200W        W19609  27.077  29.616   1.772
53201W        W19610  27.499   2.530  14.875
53202W        W19611  10.698  44.227  11.735
53203W        W19612   6.353  14.152   5.187
53204W        W19613  34.938  22.096   0.202
53205W        W19614  11.524  28.549  12.498
53206W        W19615  28.380  10.303  13.116
53207W        W19616  14.327  19.960  14.747
53208W        W19617  31.405  19.750   2.633
53209W        W19618  35.967  44.949  14.787
53210W        W19619  16.675  28.582  13.036
53211W        W19620  29.734  30.350   2.380
53212W        W19621  33.882  40.318  13.953
53213W        W19622  34.130   8.224   2.840
53214W        W19623   8.475  42.485  12.877
53215W        W19624  38.766  37.895   0.381
53216W        W19625  35.590   3.001   1.994
53217W        W19626  33.642  39.027   1.978
53218W        W19627  19.601  39.998  14.736
53219W        W19628  31.865  29.946   2.272
53220W        W19629  39.630  11.492  13.663
53221W        W19630  17.249   7.327  14.298
53222W        W19631  16.661   0.791   3.889
53223W        W19632   3.044  11.211   1.388
53224W        W19633  41.549   5.455   3.344
53225W        W19634   3.848  29.019   2.307
53226W        W19635  40.637   0.302  12.422
53227W        W19636  44.917  33.375   0.301
53228W        W19637  41.305  40.524  11.527
53229W        W19638   2.216  25.607   2.330
53230W        W19639  14.470   1.713   4.585
53231W        W19640   1.365  41.655  10.695
53232W        W19641   4.351  44.735   4.146
53233W        W19642  44.307  38.872  13.052
53234W        W19643  18.825  40.527  13.762
53235W        W19644   1.781   9.293   3.902
53236W        W19645  12.180  23.203   3.528
53237W        W19646  29.037  27.595  14.193
53238W        W19647   4.251  18.720  13.261
53239W        W19648  20.436   7.919   1.698
53240W        W19649  37.279  40.743  12.543
53241W        W19650  11.255  28.028  14.699
53242W        W19651  26.054  32.015   2.244
53243W        W19652  33.885   4.484   3.616
53244W        W19653  13.940  21.478  13.410
53245W        W19654  40.540  23.216   2.179
53246W        W19655  43.750  38.263  12.402
53247W        W19656  10.376  37.515   4.618
53248W        W19657  37.493   0.932   1.228
53249W        W19658  10.307  20.723   1.419
53250W        W19659  11.744   2.074  13.817
53251W        W19660  32.924   4.327   0.823
53252W        W19661  34.601  41.827  11.587
53253W        W19662   0.914  28.472   3.402
53254W        W19663   2.497  43.222   1.775
53255W        W19664   9.218   4.703   4.071
53256W        W19665   4.991   2.775   0.257
53257W        W19666  43.666   3.766   3.639
53258W        W19667   2.756  38.022   3.937
53259W        W19668  39.024  22.614  12.646
53260W        W19669  15.442  38.089  14.525
53261W        W19670  14.032  26.650   2.965
53262W        W19671  24.629  32.651  11.039
53263W        W19672  27.602  43.945  11.640
53264W        W19673   3.966  38.985  10.701
53265W        W19674  39.989   0.451   1.728
53266W        W19675  25.196   1.981   3.259
53267W        W19676  29.527  42.906   5.064
53268W        W19677  34.916   6.398  14.871
53269W        W19678   2.466  17.991  10.201
53270W        W19679   7.837  16.000   1.258
53271W        W19680   4.298  14.073   0.486
53272W        W19681  33.032  34.080   1.734
53273W        W19682  38.229  26.324   2.740
53274W        W19683  43.011  32.922   3.550
53275W        W19684  28.613  20.778  11.669
53276W        W19685   6.884  33.398  10.396
53277W        W19686   7.147  21.751   0.750
53278W        W19687   9.266   5.856   4.491
53279W        W19688  38.380  20.253   2.031
53280W        W19689   1.183   4.318   4.565
53281W        W19690  32.263  29.657  12.989
53282W        W19691  31.400  15.752   1.775
53283W        W19692  41.031  26.618   2.288
53284W        W19693  30.126  10.640  11.040
53285W        W19694  42.762  25.495   3.589
53286W        W19695   4.506  14.211  13.039
53287W        W19696  38.287   3.806   0.786
53288W        W19697   1.989   8.919  14.321
53289W        W19698  23.526  14.992  14.073
53290W        W19699  44.213   1.903  11.175
53291W        W19700  44.907  43.479   1.699
53292W        W19701  26.730   0.773   4.489
53293W        W19702  10.670  14.243  12.341
53294W        W19703  36.039  27.687  11.517
53295W        W19704  17.678   5.485  14.729
53296W        W19705  16.834  21.112  14.828
53297W        W19706  25.784  19.165  13.092
53298W        W19707  25.430  29.141   0.340
53299W        W19708  12.823  39.423  14.577
53300W        W19709  18.665  44.339  13.689
53301W        W19710   1.680  10.251   2.377
53302W        W19711  18.732   2.527  12.439
53303W        W19712  24.719   5.981   0.277
53304W        W19713  15.595  25.032   0.232
53305W        W19714   8.104  34.983   0.492
53306W        W19715  20.953  13.702  10.917
53307W        W19716  23.623  15.299   0.441
53308W        W19717  20.554  37.448  11.632
53309W        W19718  44.310  34.617  13.517
53310W        W19719  10.242  41.306   4.515
53311W        W19720  27.491  44.383  14.038
53312W        W19721  20.554  21.707   3.213
53313W        W19722  43.863   1.428   0.836
53314W        W19723  19.767  44.728   2.193
53315W        W19724  41.391  36.971   4.558
53316W        W19725  40.052  38.163   2.740
53317W        W19726  39.053  41.428  13.957
53318W        W19727  37.332   7.473  11.087
53319W        W19728  39.488  10.042   2.233
53320W        W19729  19.818  33.996  10.643
53321W        W19730  35.802  13.571   3.094
53322W        W19731  25.028   4.956  13.362
53323W        W19732  11.145   8.708   0.960
53324W        W19733   4.462  42.359  10.621
53325W        W19734  29.609  22.961  13.490
53326W        W19735  37.702   0.252   1.758
53327W        W19736  12.493  14.877  14.388
53328W        W19737  32.767   8.365   0.278
53329W        W19738   2.818  42.242   3.646
53330W        W19739   5.462  30.653  10.632
53331W        W19740   7.797  16.345   4.677
53332W        W19741  28.020  44.168  11.983
53333W        W19742  13.861  19.879   2.169
53334W        W19743  20.171  38.765   0.921
53335W        W19744  29.346   9.470   9.929
53336W        W19745  17.314   5.394   3.646
53337W        W19746  25.185  10.775  12.370
53338W        W19747   0.461  30.403   2.665
53339W        W19748  35.934  19.592  13.023
53340W        W19749  25.064   6.280  10.658
53341W        W19750  35.873  24.891   0.601
53342W        W19751  27.154  27.084  11.950
53343W        W19752  16.090   1.531   3.665
53344W        W19753  27.453  42.201   0.347
53345W        W19754  22.660  21.848  10.095
53346W        W19755   1.705   6.863  12.038
53347W        W19756  20.821  10.823   2.428
53348W        W19757  38.495  38.927  11.748
53349W        W19758  29.441  14.271  14.770
53350W        W19759  26.517  35.110  12.083
53351W        W19760  19.633   7.954   3.354
53352W        W19761  32.520   4.399  14.363
53353W        W19762  39.594  31.592  12.647
53354W        W19763  16.706   8.907   0.860
53355W        W19764  35.978  22.125  13.929
53356W        W19765   8.166   1.682  13.551
53357W        W19766   9.254   8.919  11.231
53358W        W19767  17.664  24.333   4.728
53359W        W19768   5.153  26.229  12.140
53360W        W19769  26.010  15.707  11.081
53361W        W19770   1.839   4.082  11.968
53362W        W19771   5.270  24.527  12.829
53363W        W19772  37.540  16.114   2.327
53364W        W19773  34.702   4.966  14.043
53365W        W19774  37.367  21.800  14.904
53366W        W19775  24.053  34.877   4.749
53367W        W19776  37.640  34.803   3.253
53368W        W19777  21.873   1.700  12.068
53369W        W19778  16.730  18.788  13.420
53370W        W19779  27.106   1.739  14.786
53371W        W19780  17.325  14.141  12.065
53372W        W19781  16.571  15.418  14.748
53373W        W19782  16.470   9.401   3.503
53374W        W19783  22.151  38.291   4.265
53375W        W19784  11.293  31.135   2.401
53376W        W19785  37.030   0.318   2.244
53377W        W19786  15.303  15.857  13.516
53378W        W19787  21.059  38.420   1.670
53379W        W19788   6.364  16.514   1.662
53380W        W19789  33.783   2.317   9.776
53381W        W19790  36.386  16.116  10.952
53382W        W19791   4.699  42.992   1.181
53383W        W19792   0.783  16.625  10.648
53384W        W19793  22.067  43.614  11.516
53385W        W19794  43.824  44.999  14.630
53386W        W19795  25.640  33.157   1.931
53387W        W19796  22.751  14.739  11.732
53388W        W19797  39.505  16.606   0.405
53389W        W19798  36.344  37.070  12.096
53390W        W19799  15.578  44.793   3.927
53391W        W19800  13.734  22.699  11.385
53392W        W19801  25.037   3.734   2.180
53393W        W19802  18.546   1.245  14.225
53394W        W19803  14.847  44.214   3.669
53395W        W19804  11.907  42.458  14.137
53396W        W19805  10.361   8.247  13.746
53397W        W19806   3.996  43.205  12.642
53398W        W19807  11.656   4.309  13.060
53399W        W19808  26.948   4.162   1.752
53400W        W19809  22.544   3.744  14.896
53401W        W19810   1.220  29.228  10.681
53402W        W19811   2.169  24.373   0.851
53403W        W19812   3.956  27.098   1.540
53404W        W19813  12.760  42.905  13.602
53405W        W19814  41.679  38.795   0.975
53406W        W19815  36.084  27.026   3.601
53407W        W19816   9.205   3.597  13.839
53408W        W19817  37.123   4.845   3.140
53409W        W19818  27.972  20.812   0.289
53410W        W19819  20.476  18.141  11.092
53411W        W19820  40.485  16.369   1.298
53412W        W19821   3.749  23.576  13.985
53413W        W19822  31.633  23.726  13.372
53414W        W19823  26.439  40.008   2.495
53415W        W19824  31.342  39.432  14.904
53416W        W19825  38.606  35.063  10.786
53417W        W19826  32.795  37.118   1.680
53418W        W19827   5.457  16.782   1.677
53419W        W19828  36.622  26.626   4.167
53420W        W19829  25.213  24.034   1.213
53421W        W19830  38.580  39.463  14.962
53422W        W19831  13.077  28.591   3.927
53423W        W19832   1.402  23.307   1.319
53424W        W19833  25.019   5.457  12.667
53425W        W19834   6.419   2.653   1.429
53426W        W19835  43.020  29.972   1.147
53427W        W19836  30.969  35.406   1.556
53428W        W19837  25.725  22.153   2.772
53429W        W19838  24.174  42.734   2.183
53430W        W19839  30.674  40.441   1.428
53431W        W19840  21.138  14.193   3.594
53432W        W19841   5.281  34.144   3.259
53433W        W19842  33.982  41.851  10.645
53434W        W19843   1.368   4.764   0.013
53435W        W19844   3.007  38.275   0.148
53436W        W19845  20.860  44.951  11.425
53437W        W19846   6.120  14.534  10.293
53438W        W19847  35.953   7.668   2.377
53439W        W19848  25.513   3.891  13.891
53440W        W19849  44.120  15.144   1.193
53441W        W19850  14.604  11.193  14.597
53442W        W19851  19.335  34.993   3.425
53443W        W19852  43.552   6.062   3.246
53444W        W19853  23.078  30.047  11.122
53445W        W19854   5.319  31.398  13.889
53446W        W19855   7.104   1.324  10.616
53447W        W19856  28.055  15.940  12.575
53448W        W19857   6.148  18.985  14.033
53449W        W19858  14.537  22.962  11.040
53450W        W19859   1.743  21.115  10.238
53451W        W19860   6.127   4.872  12.776
53452W        W19861  35.097  34.378  11.878
53453W        W19862  23.138  23.954   4.863
53454W        W19863  32.985  38.417   4.923
53455W        W19864  37.716  19.307   4.032
53456W        W19865  42.706  22.232  10.675
53457W        W19866  12.649  18.993   3.251
53458W        W19867   6.211  18.743   1.919
53459W        W19868  15.315   6.661   0.422
53460W        W19869   8.170  31.603   1.694
53461W        W19870  25.568  19.816  14.685
53462W        W19871  41.305  36.966   3.153
53463W        W19872   2.315  10.843   1.862
53464W        W19873  19.099  24.783   4.687
53465W        W19874   7.871  20.022   2.999
53466W        W19875  21.074   5.340   4.874
53467W        W19876  28.854  34.367   1.810
53468W        W19877  20.579  40.079   3.784
53469W        W19878   7.327   5.332   2.822
53470W        W19879  27.110  20.192   1.382
53471W        W19880  31.033  32.731  11.415
53472W        W19881  40.991  15.924   0.770
53473W        W19882  28.606   4.361  13.553
53474W        W19883  15.544  44.376   4.218
53475W        W19884  41.488  30.194  14.820
53476W        W19885  11.637   3.889  12.438
53477W        W19886  11.803  25.215   2.283
53478W        W19887  43.024  16.617   1.689
53479W        W19888  44.391  43.114  13.330
53480W        W19889  24.872  31.994  12.103
53481W        W19890  37.436  11.626   3.240
53482W        W19891  28.254  44.548   4.145
53483W        W19892  17.318  40.573   2.627
53484W        W19893  19.703  14.882  13.467
53485W        W19894  43.785  17.603  14.010
53486W        W19895  30.789  20.111   0.276
53487W        W19896   9.689   7.675   0.788
53488W        W19897  36.555  24.150   2.814
53489W        W19898  44.486  23.959  14.916
53490W        W19899  43.701  37.455  12.126
53491W        W19900  44.841  31.423  13.842
53492W        W19901  40.487  23.583   2.582
53493W        W19902   0.153  42.256  14.112
53494W        W19903  30.427   0.277  11.623
53495W        W19904   6.656   2.296  13.998
53496W        W19905  41.360  34.087   4.613
53497W        W19906  10.292  35.314  11.542
53498W        W19907  33.972  33.915   1.174
53499W        W19908  36.871  11.396   2.270
53500W        W19909  13.583  28.420  12.565
53501W        W19910  39.203  40.820  12.856
53502W        W19911  25.495  33.590   1.686
53503W        W19912  22.746  17.074  14.540
53504W        W19913   7.166   7.741   2.683
53505W        W19914  37.503  22.311   2.348
53506W        W19915  19.196  19.123   4.065
53507W        W19916  30.948  25.528   0.978
53508W        W19917   9.772   3.489  14.983
53509W        W19918   8.185  43.601  14.411
53510W        W19919   3.472  31.053   1.284
53511W        W19920  11.194   6.664  14.403
53512W        W19921  34.174  38.347   1.682
53513W        W19922  24.086  35.791  14.321
53514W        W19923   9.803  20.608   1.494
53515W        W19924  19.555  17.037   2.883
53516W        W19925  11.935  11.015  10.875
53517W        W19926  13.667  17.264  14.404
53518W        W19927  30.595  36.192   2.148
53519W        W19928  18.226  12.117  14.917
53520W        W19929  31.130  13.165   0.290
53521W        W19930  10.096  10.200  11.377
53522W        W19931  38.273  44.240   1.253
53523W        W19932  24.235  28.556   0.222
53524W        W19933  22.005   3.183  12.439
53525W        W19934   7.650  13.093   3.909
53526W        W19935  42.385   8.398   2.565
53527W        W19936  29.515  22.194  13.853
53528W        W19937  17.821  12.172  10.696
53529W        W19938  25.517  41.170   4.651
53530W        W19939   0.444  35.610   0.245
53531W        W19940  23.480  27.531   0.199
53532W        W19941  14.125  14.281  13.314
53533W        W19942  15.833  17.709   0.431
53534W        W19943  15.044  13.717   4.655
53535W        W19944   1.770  37.119  13.685
53536W        W19945   6.364  36.839  14.705
53537W        W19946  10.695  34.856  13.243
53538W        W19947  29.665  13.831  12.527
53539W        W19948   5.463  35.585   3.547
53540W        W19949  11.036  41.715   4.918
53541W        W19950  11.271  25.106   4.063
53542W        W19951   3.226  14.736   3.570
53543W        W19952  22.732  36.755   2.128
53544W        W19953  11.149  13.441  13.232
53545W        W19954  22.457  10.658   0.640
53546W        W19955   5.487  42.887   1.449
53547W        W19956   2.382  18.529   1.246
53548W        W19957  37.658   5.202   3.809
53549W        W19958   0.088  27.438  10.280
53550W        W19959  24.252  32.890   4.925
53551W        W19960  32.041  16.351  12.093
53552W        W19961  38.377  37.612   2.889
53553W        W19962  18.688  22.084   5.076
53554W        W19963  21.476  26.995   4.420
53555W        W19964  14.036  17.940  11.995
53556W        W19965   7.903  40.884   2.133
53557W        W19966   7.653  33.163  14.135
53558W        W19967  12.717   2.513  11.377
53559W        W19968  15.242   9.311  11.211
53560W        W19969  42.379  41.995  12.510
53561W        W19970  42.993  35.649  10.355
53562W        W19971   6.343  25.801  14.441
53563W        W19972  31.470  28.036   4.142
53564W        W19973   4.345  13.810   2.244
53565W        W19974  35.403  22.988   1.859
53566W        W19975  15.161  16.976   1.252
53567W        W19976  21.712  27.391  11.150
53568W        W19977   1.835  42.286   0.650
53569W        W19978  16.801  33.548   4.452
53570W        W19979  29.636   4.649  10.643
53571W        W19980  16.051  40.619   3.060
53572W        W19981  35.398   3.654   1.330
53573W        W19982  24.585  25.798   4.983
53574W        W19983  29.688  11.611  11.878
53575W        W19984  31.525  19.870  14.564
53576W        W19985   1.336  33.360   4.847
53577W        W19986  14.872  13.217   1.897
53578W        W19987  36.061  41.375  12.080
53579W        W19988   0.409  40.791   3.455
53580W        W19989  25.474  25.507   3.278
53581W        W19990  20.269  22.565  12.474
53582W        W19991  34.613  44.029   1.249
53583W        W19992   3.648  42.972  12.931
53584W        W19993   0.983  38.501   4.596
53585W        W19994  30.805  37.376  14.240
53586W        W19995  11.876  25.418   2.759
53587W        W19996  13.736  20.785  11.754
53588W        W19997   6.176  40.968   0.836
53589W        W19998  33.201  39.361  12.881
53590W        W19999  17.260   0.032  14.866
53591W        W20000   9.682   6.341   2.861
53592W        W20001   0.909  22.551   4.121
53593W        W20002   0.206  39.232  11.383
53594W        W20003  16.633  37.461  11.770
53595W        W20004   4.747  27.154  14.591
53596W        W20005  27.476  33.237  13.396
53597W        W20006  36.982   3.071   1.697
53598W        W20007   9.333  41.600   0.262
53599W        W20008   5.767  38.384   3.238
53600W        W20009  40.861  11.555  13.824
53601W        W20010  40.322   0.372  10.001
53602W        W20011  15.896   0.881  11.403
53603W        W20012  32.623   9.904   2.719
53604W        W20013   1.631  41.939   4.996
53605W        W20014   1.960   3.693  14.358
53606W        W20015  38.738  40.945  10.336
53607W        W20016  36.125  21.550   2.264
53608W        W20017  36.611  12.827  12.578
53609W        W20018  39.415   2.663   2.860
53610W        W20019  10.340   5.371  14.355
53611W        W20020  38.080  19.154  11.828
53612W        W20021  15.380  24.165  12.826
53613W        W20022  13.631   4.448  13.586
53614W        W20023  12.361   0.999  11.615
53615W        W20024  31.370  31.202  11.947
53616W        W20025  35.089  17.319  14.831
53617W        W20026  38.476   8.850  12.955
53618W        W20027   5.547  22.920   1.956
53619W        W20028  26.209   4.341  13.742
53620W        W20029  44.268  40.547  12.611
53621W        W20030  44.038  12.767  12.134
53622W        W20031  22.188   7.870  11.955
53623W        W20032  20.695   8.104   2.619
53624W        W20033  28.730   5.654  13.343
53625W        W20034   4.846  40.806   4.569
53626W        W20035  32.266  22.329   2.313
53627W        W20036  31.339  20.580  13.004
53628W        W20037   9.153   2.344  13.250
53629W        W20038   4.690   5.314  12.362
53630W        W20039  22.513  43.947  12.389
53631W        W20040  28.600  10.282   2.376
53632W        W20041  13.514  38.480  12.856
53633W        W20042  31.073  35.168   3.252
53634W        W20043  32.333  40.368   9.633
53635W        W20044   3.790  29.134   4.284
53636W        W20045  44.722  42.353  13.843
53637W        W20046  36.667  31.469   3.812
53638W        W20047  18.502  40.014  13.731
53639W        W20048  41.923   6.138  12.207
53640W        W20049  40.678   8.809   4.295
53641W        W20050  29.626  24.150   4.207
53642W        W20051  32.606   2.267   0.965
53643W        W20052  20.821  12.677   2.875
53644W        W20053  43.392  12.216  13.408
53645W        W20054  19.213  22.033  11.994
53646W        W20055   0.352  43.694  11.564
53647W        W20056  25.177  14.885  12.438
53648W        W20057  15.663  29.065   2.194
53649W        W20058   3.511  33.961   3.754
53650W        W20059  17.495  12.867   0.611
53651W        W20060  18.066   3.922   0.073
53652W        W20061   7.230  31.974   4.658
53653W        W20062  36.996   7.097  13.521
53654W        W20063  23.317  35.876   2.178
53655W        W20064  13.541   4.690  11.465
53656W        W20065  11.316  22.725  14.092
53657W        W20066  26.721  21.583  14.980
53658W        W20067  43.324  42.068  12.664
53659W        W20068  44.711  28.934  12.410
53660W        W20069  16.197  16.640  13.325
53661W        W20070  18.159  39.049   3.739
53662W        W20071   3.537  29.012   3.690
53663W        W20072   4.362  44.247  11.643
53664W        W20073   9.412  15.801   2.823
53665W        W20074  24.220  16.373   4.393
53666W        W20075   9.902  32.619   1.137
53667W        W20076  41.331   3.441  12.868
53668W        W20077  20.291  38.441   1.983
53669W        W20078  14.899  12.734   1.692
53670W        W20079  19.555   2.207  14.956
53671W        W20080  14.345   1.549   0.480
53672W        W20081  37.967  14.326   1.539
53673W        W20082  43.416  40.361  14.741
53674W        W20083  10.821  36.191   4.622
53675W        W20084  14.711  39.237   4.723
53676W        W20085  27.965  43.340   3.638
53677W        W20086  33.876  24.203  12.041
53678W        W20087   3.300   8.643  14.930
53679W        W20088  43.149  42.778   1.856
53680W        W20089   3.488  34.408   2.459
53681W        W20090  11.805  36.169   3.671
53682W        W20091  15.340  11.012   3.072
53683W        W20092   6.822  29.530  13.435
53684W        W20093   5.113  19.979  12.629
53685W        W20094  10.688  38.977   0.449
53686W        W20095   9.153  25.889   4.598
53687W        W20096  37.540  12.294   4.614
53688W        W20097  20.054  17.436  12.991
53689W        W20098  25.124  36.748  13.079
53690W        W20099  37.127  12.498   0.805
53691W        W20100  32.337   9.802   0.972
53692W        W20101  18.839  21.258   1.871
53693W        W20102  24.130  14.265   2.785
53694W        W20103  42.139  16.911   3.754
53695W        W20104  14.757  24.075  10.159
53696W        W20105  15.722  33.619   4.159
53697W        W20106  36.171   7.863   1.878
53698W        W20107  28.638  40.967   1.781
53699W        W20108  11.663  27.232   2.183
53700W        W20109  36.760  11.257  13.448
53701W        W20110  29.661  11.631  13.960
53702W        W20111  11.799  29.011   3.750
53703W        W20112   7.274  39.713   0.353
53704W        W20113  31.416  34.614  12.688
53705W        W20114   6.381  17.732   4.958
53706W        W20115  33.026  29.133  14.814
53707W        W20116  36.621  29.491   0.839
53708W        W20117   6.489  22.585   2.709
53709W        W20118  41.476  19.586  13.352
53710W        W20119  35.870  26.291  14.130
53711W        W20120  43.697  15.582  10.126
53712W        W20121   8.052  39.248   0.701
53713W        W20122  30.101  37.385   3.828
53714W        W20123  28.883   7.330  12.458
53715W        W20124  17.099  31.450   2.714
53716W        W20125  14.171  32.563   0.746
53717W        W20126  19.215  28.079  12.049
53718W        W20127   3.872   6.215  10.628
53719W        W20128  12.956  29.674  12.004
53720W        W20129  17.108   4.830   0.335
53721W        W20130  27.763   3.330  13.753
53722W        W20131   6.232  28.078  13.847
53723W        W20132  39.144   4.708   1.881
53724W        W20133   0.701   6.991  13.437
53725W        W20134  10.396   1.416  13.842
53726W        W20135  34.085  16.777  13.471
53727W        W20136  41.081  41.005  13.771
53728W        W20137  11.050  14.310   1.642
53729W        W20138   0.413  44.279   2.613
53730W        W20139  37.453  31.043  10.718
53731W        W20140  21.680  19.147   0.968
53732W        W20141  14.520  40.060  13.036
53733W        W20142  16.329  30.910   3.649
53734W        W20143   7.981  21.291  10.836
53735W        W20144  29.791  33.571  11.643
53736W        W20145  12.701  39.833  11.134
53737W        W20146  18.591  40.091  11.407
53738W        W20147  43.489   5.222  14.526
53739W        W20148  14.665  29.588   1.775
53740W        W20149   7.129  20.047  14.377
53741W        W20150  41.834  16.982   0.353
53742W        W20151  35.831  31.173   2.708
53743W        W20152  25.725  21.113   4.111
53744W        W20153  11.434  44.422   1.402
53745W        W20154  34.989  37.031   0.236
53746W        W20155  26.920  28.198   1.423
53747W        W20156  39.965  27.483   1.412
53748W        W20157  27.508  31.221   2.557
53749W        W20158  11.633  17.639   3.419
53750W        W20159  32.502  14.276   2.352
53751W        W20160  31.282   0.333   3.037
53752W        W20161  12.218  41.354   0.131
53753W        W20162   3.148  35.583  11.503
53754W        W20163  44.922   6.278   2.631
53755W        W20164  15.342  10.166   3.695
53756W        W20165  23.417  29.042  14.462
53757W        W20166  30.571  18.985  11.932
53758W        W20167  44.194  37.975   4.159
53759W        W20168   9.314   0.813   4.585
53760W        W20169  12.857   5.908   0.424
53761W        W20170   8.295  29.648   0.817
53762W        W20171   6.221  39.552   2.295
53763W        W20172  36.362   8.405  12.452
53764W        W20173  30.960  12.034  14.299
53765W        W20174   7.247   0.443  14.828
53766W        W20175   2.439  39.157   0.225
53767W        W20176  14.640  26.661  14.053
53768W        W20177  29.951  41.062  14.090
53769W        W20178  14.774  35.993  10.253
53770W        W20179  31.653  12.213  14.768
53771W        W20180   7.791  19.961   0.380
53772W        W20181  25.540  37.419   3.138
53773W        W20182  27.693  13.407   4.451
53774W        W20183   4.703  33.849   1.863
53775W        W20184  24.325  14.032  13.604
53776W        W20185  39.251  32.449  11.090
53777W        W20186  32.566  44.724  12.361
53778W        W20187  19.241  36.888   0.351
53779W        W20188  26.799  19.891  14.552
53780W        W20189  14.830  42.064  12.844
53781W        W20190  19.749  19.237   3.784
53782W        W20191  15.035  39.210   0.006
53783W        W20192  33.573  12.979   4.267
53784W        W20193  12.057  15.856  11.881
53785W        W20194  34.713  42.578   3.601
53786W        W20195  44.675   6.875  13.580
53787W        W20196  24.799   2.159   4.587
53788W        W20197  42.216   7.874   2.718
53789W        W20198  29.503  26.645  12.318
53790W        W20199  35.810  34.915   2.378
53791W        W20200  38.001  39.468  12.645
53792W        W20201  18.751  41.371   2.778
53793W        W20202  33.772  30.916  11.220
53794W        W20203  23.452  32.648  13.963
53795W        W20204  24.611  44.920   0.254
53796W        W20205  17.115  14.144   5.028
53797W        W20206  25.542   2.022   0.321
53798W        W20207  26.674   2.248  11.101
53799W        W20208  33.582  41.867   1.674
53800W        W20209  35.327  18.470   2.922
53801W        W20210   6.009  27.617  13.252
53802W        W20211   7.228  18.809   3.665
53803W        W20212  14.028  20.978  13.333
53804W        W20213  25.804  41.305   0.978
53805W        W20214  18.546  15.166   4.437
53806W        W20215  39.083   8.309   4.624
53807W        W20216  36.110  19.347  10.691
53808W        W20217  12.115  35.635  12.407
53809W        W20218  39.550  32.002  14.875
53810W        W20219  18.253   9.291   2.341
53811W        W20220  16.398  20.613   3.816
53812W        W20221   5.516   9.672   4.090
53813W        W20222  36.932  25.609  12.519
53814W        W20223  39.459  18.688   4.508
53815W        W20224   0.250  19.456  14.859
53816W        W20225   6.446   9.635  12.897
53817W        W20226  36.147  38.866   4.775
53818W        W20227  40.997  22.094  14.615
53819W        W20228   0.440  20.704  13.326
53820W        W20229  36.653   3.872   4.965
53821W        W20230   9.290  12.138  14.392
53822W        W20231  19.090  27.433  14.729
53823W        W20232  37.360  33.717   4.217
53824W        W20233   6.870   3.870  13.141
53825W        W20234  37.113  42.572  14.342
53826W        W20235  15.914   9.706  11.612
53827W        W20236  43.589  11.833  12.100
53828W        W20237  28.388  15.596  14.526
53829W        W20238  42.941  32.075   2.314
53830W        W20239  19.469   7.122   0.276
53831W        W20240   3.758   9.266   2.039
53832W        W20241  11.248  33.119   1.450
53833W        W20242  14.632  13.432   3.578
53834W        W20243  22.563   4.205   3.824
53835W        W20244  43.012  31.137  12.708
53836W        W20245  17.753  38.048  14.843
53837W        W20246  23.145  19.076  11.485
53838W        W20247  31.853   0.947   3.759
53839W        W20248  17.998  25.233  13.001
53840W        W20249  39.630   6.830   3.440
53841W        W20250   4.960  32.039  10.667
53842W        W20251  36.619   9.039  10.806
53843W        W20252  35.407  11.259   2.008
53844W        W20253   2.203  36.921   0.419
53845W        W20254   0.278  18.560   2.864
53846W        W20255   4.842  11.298   2.420
53847W        W20256  20.406  33.429   4.093
53848W        W20257  25.471  20.765  14.307
53849W        W20258   9.712   6.889   0.151
53850W        W20259  20.754  27.904  13.517
53851W        W20260  11.154  36.098  12.074
53852W        W20261  36.526   4.712  12.021
53853W        W20262  27.764   1.442   1.725
53854W        W20263  29.097  26.430   1.238
53855W        W20264  27.391  28.909   1.693
53856W        W20265  15.583  17.085   3.552
53857W        W20266  43.499  23.722  12.601
53858W        W20267   1.754  43.859   2.286
53859W        W20268  21.207  12.720   2.477
53860W        W20269  17.952  39.955  12.021
53861W        W20270   1.707  15.073  13.526
53862W        W20271  33.903  40.586   1.606
53863W        W20272  30.442  10.133   2.224
53864W        W20273  33.354  20.285  12.984
53865W        W20274  26.210  27.967   0.473
53866W        W20275  12.904  32.930   0.260
53867W        W20276   8.367  32.595  13.439
53868W        W20277  22.340  37.473  11.074
53869W        W20278  41.217  22.076   0.715
53870W        W20279   3.361  35.991   2.295
53871W        W20280  39.548   8.781   2.840
53872W        W20281  21.938  22.018  12.555
53873W        W20282   0.445   9.859   3.738
53874W        W20283  44.315  25.232  11.904
53875W        W20284  32.591   3.954  11.251
53876W        W20285   3.537  26.971   1.802
53877W        W20286   4.473  13.644  12.074
53878W        W20287  31.993  18.684   1.889
53879W        W20288  41.969  42.910  13.797
53880W        W20289  38.934  14.094   1.735
53881W        W20290   8.914  25.481  11.225
53882W        W20291  35.168  40.582  12.062
53883W        W20292  29.766  37.820  13.049
53884W        W20293  33.913  38.580   3.704
53885W        W20294  19.937  10.067   2.721
53886W        W20295  17.635  16.836   3.160
53887W        W20296  25.004  43.386  12.969
53888W        W20297  39.407  44.201   2.387
53889W        W20298  22.338  32.121  13.279
53890W        W20299   2.798  33.159   1.851
53891W        W20300  26.240  12.142  13.116
53892W        W20301  10.907  18.993   3.376
53893W        W20302   6.348  26.447   2.826
53894W        W20303  28.597  15.865   2.237
53895W        W20304   9.112  27.910   5.238
53896W        W20305   4.810   5.892   1.611
53897W        W20306  27.249   3.305  11.226
53898W        W20307  36.486  10.706   2.797
53899W        W20308  24.566  25.836  12.609
53900W        W20309   5.902  31.104  14.351
53901W        W20310   0.500   5.650   4.380
53902W        W20311  25.146  31.448  11.063
53903W        W20312  21.152  34.926  12.114
53904W        W20313   7.861  10.886   1.374
53905W        W20314   3.882  20.842  12.608
53906W        W20315  41.423  33.025   0.242
53907W        W20316  44.544  34.939  13.901
53908W        W20317  26.732   4.936   2.303
53909W        W20318  12.000  44.699  13.980
53910W        W20319  43.017  33.531   0.476
53911W        W20320  22.375  35.353  14.576
53912W        W20321  41.751  37.901   1.323
53913W        W20322  24.275  30.979   1.766
53914W        W20323  10.748  42.303   2.823
53915W        W20324  18.358   3.766   4.418
53916W        W20325  32.628  43.834  13.195
53917W        W20326  44.845  24.073  13.141
53918W        W20327  11.285  41.206   4.762
53919W        W20328  31.018  18.193   3.567
53920W        W20329  37.508  42.075  11.942
53921W        W20330   2.341  14.806  11.248
53922W        W20331  23.583  12.373  11.063
53923W        W20332  18.251   3.281   4.687
53924W        W20333  42.379  14.833   2.990
53925W        W20334  39.021  12.205  11.205
53926W        W20335  17.548   5.326  11.410
53927W        W20336   3.406  38.692   1.530
53928W        W20337  21.013  32.928  12.725
53929W        W20338   6.346  36.074   3.217
53930W        W20339   3.430  15.536   3.687
53931W        W20340  42.851  10.252   1.952
53932W        W20341   8.831  37.273   2.866
53933W        W20342  15.599  44.941   1.128
53934W        W20343  15.251  22.675  14.549
53935W        W20344  23.563  16.609   0.893
53936W        W20345  35.879  14.080   3.182
53937W        W20346  31.207  36.101  13.011
53938W        W20347  13.174  26.790   2.384
53939W        W20348  15.069   7.664   2.381
53940W        W20349  11.845   4.819   2.735
53941W        W20350   1.376  15.522   4.323
53942W        W20351  17.717  42.986   0.769
53943W        W20352   4.742   8.068  10.641
53944W        W20353   3.675  36.138   1.889
53945W        W20354  41.003  41.439  10.706
53946W        W20355  20.982  28.451   2.835
53947W        W20356   4.752  32.577   2.616
53948W        W20357  22.803  37.585  11.238
53949W        W20358  28.047  13.590   4.791
53950W        W20359  41.015  14.339   1.757
53951W        W20360   5.287   8.939  11.931
53952W        W20361  15.308  39.352   4.185
53953W        W20362  44.947  19.559  11.993
53954W        W20363  44.976   8.986   3.574
53955W        W20364  37.603   7.056   2.818
53956W        W20365  13.267  29.888   1.129
53957W        W20366  23.809  26.089  11.919
53958W        W20367  19.400  39.205   4.113
53959W        W20368  30.218  14.349   1.733
53960W        W20369  19.846  31.941  10.805
53961W        W20370  19.175  41.276   2.127
53962W        W20371  39.007  32.015  14.923
53963W        W20372  41.815   7.637   4.063
53964W        W20373  29.036   9.460   2.208
53965W        W20374  22.340  37.945  13.913
53966W        W20375  27.777   2.698   1.214
53967W        W20376   1.271  18.819   0.276
53968W        W20377   7.041  37.397  14.618
53969W        W20378  24.709   2.877  11.149
53970W        W20379  27.133  43.042  14.098
53971W        W20380   6.180  15.779   1.197
53972W        W20381  29.992   0.922  14.863
53973W        W20382  30.301  26.289  11.936
53974W        W20383  39.822  14.270   1.803
53975W        W20384   8.699  11.271   2.241
53976W        W20385  17.537  16.807  10.670
53977W        W20386  27.694  30.834   2.138
53978W        W20387  16.780  34.589  13.440
53979W        W20388  44.056   8.268   2.802
53980W        W20389  25.522  26.248   2.809
53981W        W20390  17.517  20.199  13.572
53982W        W20391  31.477  34.994   4.169
53983W        W20392  32.028  18.512   0.345
53984W        W20393  33.524  34.122   0.894
53985W        W20394  34.423  24.767  12.071
53986W        W20395  19.148  32.964  13.329
53987W        W20396  43.624   9.192  13.986
53988W        W20397  10.710  35.450   0.286
53989W        W20398  37.816  44.846   0.211
53990W        W20399  23.726  41.982   4.952
53991W        W20400  17.524   5.277   2.604
53992W        W20401  43.161  29.871   0.282
53993W        W20402  18.483  21.197  14.904
53994W        W20403  43.470  17.381   1.881
53995W        W20404  13.387  10.773  10.884
53996W        W20405  33.354   8.285   3.221
53997W        W20406  44.284  24.752   4.191
53998W        W20407   5.697  36.455  12.746
53999W        W20408  33.402  10.176  14.384
54000W        W20409  21.599  44.310  10.551
54001W        W20410   8.120   1.417  12.463
54002W        W20411  26.643  15.893   0.703
54003W        W20412  44.632   0.766   5.083
54004W        W20413  20.717  31.881   3.432
54005W        W20414  34.535  13.997  12.377
54006W        W20415  18.172  34.100  12.096
54007W        W20416  10.762  22.206   3.776
54008W        W20417  29.864  42.486  10.695
54009W        W20418  35.569  20.156  14.298
54010W        W20419  25.175   5.834  13.646
54011W        W20420  37.100  23.306  10.686
54012W        W20421  32.471  35.356  13.029
54013W        W20422  33.108   2.192   0.771
54014W        W20423  34.348  19.233   0.444
54015W        W20424   0.222  26.433   0.946
54016W        W20425   6.154  23.084   4.497
54017W        W20426  18.009  26.251  14.593
54018W        W20427  37.441  27.614   2.377
54019W        W20428  15.547  27.900   4.649
54020W        W20429   0.775  31.440   1.940
54021W        W20430  39.002  37.743   2.074
54022W        W20431  25.967  17.625   4.165
54023W        W20432  14.252  26.279   1.837
54024W        W20433  27.048  42.050   1.470
54025W        W20434   5.028  40.500   0.354
54026W        W20435  25.345  14.073  14.380
54027W        W20436  13.360  30.866   0.046
54028W        W20437  36.050  30.074  14.565
54029W        W20438   1.944  35.929  11.952
54030W        W20439  34.895  38.344   4.798
54031W        W20440  42.959  23.646  14.844
54032W        W20441  25.971  24.110   1.692
54033W        W20442  38.896  41.535  13.056
54034W        W20443   3.231  11.249   2.339
54035W        W20444  32.510  31.056  12.891
54036W        W20445  19.724   8.511  12.457
54037W        W20446  29.785   9.311   3.012
54038W        W20447  23.263   1.452   0.400
54039W        W20448   0.485  24.456   4.567
54040W        W20449   5.867  39.457  13.424
54041W        W20450  16.632  17.299  10.644
54042W        W20451  12.445  16.533   2.893
54043W        W20452   7.778  10.272   4.593
54044W        W20453   6.785   0.385   1.562
54045W        W20454   7.699  33.097   0.541
54046W        W20455  26.021  19.606   4.967
54047W        W20456   4.769  22.042  14.375
54048W        W20457  13.112   6.206  13.580
54049W        W20458  21.738  27.235   4.031
54050W        W20459  26.366  12.051   4.826
54051W        W20460  21.257  25.233  12.021
54052W        W20461  13.144  13.308  14.802
54053W        W20462  33.327  34.976  13.564
54054W        W20463  12.252   4.226   0.409
54055W        W20464  32.028  36.556  14.815
54056W        W20465  17.847  37.905  10.591
54057W        W20466   9.871   0.733   2.265
54058W        W20467  28.076  36.629  12.747
54059W        W20468  16.781  23.380   4.545
54060W        W20469  36.236  39.771  11.066
54061W        W20470  36.993  32.605   3.583
54062W        W20471  40.910  24.996   1.687
54063W        W20472  28.747  14.130   1.632
54064W        W20473  12.670  26.019  13.104
54065W        W20474  39.340  41.113   1.208
54066W        W20475   7.848  10.685   3.292
54067W        W20476   9.672  36.422  11.004
54068W        W20477   5.396  41.430   5.163
54069W        W20478   7.692  15.096  12.422
54070W        W20479  18.626   7.898  13.283
54071W        W20480   4.922   9.671  12.513
54072W        W20481  15.510  43.873   2.275
54073W        W20482  30.890  10.797   4.216
54074W        W20483  16.007  19.691   2.137
54075W        W20484   8.910  32.457   2.252
54076W        W20485  39.235  10.857   0.853
54077W        W20486  38.097  31.568   4.289
54078W        W20487  14.872  13.354  14.374
54079W        W20488  21.042  27.950  11.534
54080W        W20489  28.679  32.358  11.106
54081W        W20490  20.245  41.199  12.115
54082W        W20491  31.193  18.937   1.680
54083W        W20492  34.515  31.045   2.449
54084W        W20493  20.734  34.623  12.857
54085W        W20494  43.266  23.904   1.372
54086W        W20495  30.198  13.791  11.510
54087W        W20496  22.078  27.451  11.486
54088W        W20497  14.723   0.342  13.750
54089W        W20498  18.320  44.243   4.613
54090W        W20499  18.192  35.109  11.979
54091W        W20500  35.072   2.104   3.038
54092W        W20501  22.050  22.133   5.356
54093W        W20502  17.116  28.693  11.427
54094W        W20503  34.318  18.024  14.775
54095W        W20504  12.371   1.850   4.537
54096W        W20505  39.609  14.014  10.993
54097W        W20506   2.433  42.479  10.885
54098W        W20507   4.474  13.948  14.012
54099W        W20508   3.678   0.532  11.618
54100W        W20509  41.665  17.465   0.264
54101W        W20510  25.699  31.508  14.815
54102W        W20511  30.965   6.522  14.733
54103W        W20512  21.573  43.318  13.602
54104W        W20513   8.103   4.869  11.783
54105W        W20514  44.427   5.658  12.570
54106W        W20515  41.267  30.399  12.108
54107W        W20516  39.935  34.879   0.760
54108W        W20517   0.939  12.065  14.388
54109W        W20518   9.708  36.470   3.139
54110W        W20519  37.154  32.792   1.157
54111W        W20520  31.723  33.111  10.139
54112W        W20521  19.211  18.185   0.554
54113W        W20522  13.916  11.802  14.315
54114W        W20523   4.685  36.443  13.007
54115W        W20524  12.405   8.359   0.889
54116W        W20525   4.119  41.816  13.433
54117W        W20526  41.786  33.570  13.532
54118W        W20527  20.977  15.393  10.881
54119W        W20528  39.655   0.068   1.870
54120W        W20529  25.629  43.031  12.527
54121W        W20530  12.242  22.042  11.295
54122W        W20531  41.921  15.728   1.683
54123W        W20532  22.156  38.044  13.445
54124W        W20533  38.853  40.053   3.702
54125W        W20534  32.156  42.399  10.440
54126W        W20535  20.701   7.010  12.046
54127W        W20536   7.095  15.627  12.878
54128W        W20537  27.588  37.456  14.965
54129W        W20538  33.490  20.467   4.158
54130W        W20539  25.943  15.562   3.841
54131W        W20540   4.193  34.855  11.948
54132W        W20541  27.352  26.055   2.671
54133W        W20542  29.401  27.237   4.221
54134W        W20543  11.320  33.921  13.497
54135W        W20544  28.214   0.115  10.176
54136W        W20545  34.924  15.109   4.809
54137W        W20546  11.599  40.785  13.511
54138W        W20547  10.089  44.927   3.176
54139W        W20548  24.457   4.832   1.770
54140W        W20549  13.108  21.107   0.306
54141W        W20550  31.468  35.553   0.775
54142W        W20551  35.021  33.033  14.185
54143W        W20552  31.369   6.775  14.942
54144W        W20553  35.086   8.791  10.735
54145W        W20554  41.814   4.921   1.573
54146W        W20555   7.921   1.473   1.967
54147W        W20556  34.366   0.771  12.530
54148W        W20557  22.593  20.623   4.630
54149W        W20558  36.798  37.873  11.611
54150W        W20559  44.149  42.827  11.157
54151W        W20560   8.297  22.626   0.011
54152W        W20561  43.781  36.372  13.450
54153W        W20562  26.037  32.011   4.654
54154W        W20563   5.799  16.025   0.272
54155W        W20564  33.296   4.864   5.129
54156W        W20565   0.281  16.939   4.882
54157W        W20566  43.020   8.288   1.021
54158W        W20567  31.970  39.249   4.770
54159W        W20568  12.209  35.008  13.637
54160W        W20569  43.829  16.163   4.383
54161W        W20570  18.981  35.380   1.379
54162W        W20571  11.588  17.283  10.146
54163W        W20572   4.905  41.492   1.392
54164W        W20573  16.663   2.989  14.244
54165W        W20574   2.486  30.991   1.282
54166W        W20575  27.797   3.010   5.020
54167W        W20576  13.429  17.765  13.973
54168W        W20577  33.001  26.518  14.923
54169W        W20578  42.441   7.601  11.600
54170W        W20579  17.054  42.193   2.260
54171W        W20580  10.806  17.040   3.124
54172W        W20581  44.815   0.048   3.548
54173W        W20582   8.464   7.752  11.978
54174W        W20583   0.370  25.725  13.023
54175W        W20584   9.094  31.949   0.559
54176W        W20585  34.913   4.205   1.902
54177W        W20586  15.891  40.967   0.494
54178W        W20587  30.899  35.259  13.838
54179W        W20588   7.892  20.228  12.150
54180W        W20589  24.690  18.276   3.208
54181W        W20590  40.352   2.008   1.351
54182W        W20591  38.052  12.881   1.888
54183W        W20592  23.734  24.030   0.465
54184W        W20593  14.981  18.544  12.995
54185W        W20594   7.699  29.025   0.184
54186W        W20595   7.607  10.223   3.239
54187W        W20596   5.291  32.597  10.609
54188W        W20597  38.868   4.765   1.447
54189W        W20598   1.300   3.098   4.911
54190W        W20599  15.555  19.216   3.142
54191W        W20600   9.881  11.302   1.691
54192W        W20601  40.494   4.825   1.913
54193W        W20602  20.205  36.046   2.875
54194W        W20603  28.496  37.062   3.818
54195W        W20604   9.118  41.923  13.015
54196W        W20605   1.766  20.991   1.219
54197W        W20606  29.466  26.496   2.401
54198W        W20607  26.313   5.452   3.126
54199W        W20608  36.865  38.402  11.554
54200W        W20609  32.378  18.591   3.723
54201W        W20610  20.516  44.632  12.097
54202W        W20611  19.621  36.774   3.642
54203W        W20612   1.906   8.317   3.383
54204W        W20613   4.036   4.827   1.766
54205W        W20614  31.152  28.111   4.545
54206W        W20615  16.509  16.134   3.081
54207W        W20616  16.753  13.671   1.709
54208W        W20617   3.395  22.807  13.238
54209W        W20618  25.909  42.325  13.020
54210W        W20619  14.706  15.084   3.326
54211W        W20620  30.634  16.368   2.909
54212W        W20621   6.412  41.289   0.477
54213W        W20622  18.256  36.173   3.882
54214W        W20623  20.783   5.685   4.589
54215W        W20624  33.524  44.132  12.474
54216W        W20625  43.908   6.227   4.574
54217W        W20626  27.461  10.526   3.647
54218W        W20627  38.015  35.660   3.725
54219W        W20628  39.384   6.598   1.813
54220W        W20629  15.342  34.055   1.725
54221W        W20630  10.273   6.323   1.191
54222W        W20631  18.228  18.262  12.204
54223W        W20632  28.007   4.512  11.646
54224W        W20633   2.322  44.968   2.878
54225W        W20634  15.506   5.153   3.640
54226W        W20635  36.909  14.774   1.723
54227W        W20636  32.905   1.309  14.764
54228W        W20637  35.321  24.464  13.837
54229W        W20638  13.349  15.109   3.559
54230W        W20639  13.797   2.295  12.476
54231W        W20640  37.754  23.144  13.324
54232W        W20641  32.411   8.416   3.234
54233W        W20642  20.064   9.765  14.735
54234W        W20643  12.082  14.129   4.682
54235W        W20644  32.605  31.165  12.407
54236W        W20645  31.922   4.250  12.094
54237W        W20646   3.521  34.365   4.609
54238W        W20647  41.479  32.513  14.766
54239W        W20648  39.402   9.199  12.129
54240W        W20649   4.713  24.960   1.966
54241W        W20650  20.505  22.208  10.669
54242W        W20651  36.537   3.386   1.775
54243W        W20652  26.887  29.447   3.171
54244W        W20653   7.480  41.777  12.517
54245W        W20654  16.226  30.199   4.726
54246W        W20655  21.146  39.422  14.345
54247W        W20656   4.029  15.521  11.128
54248W        W20657  35.627   7.827   3.330
54249W        W20658  15.561  42.612   2.624
54250W        W20659   1.877   9.381  14.531
54251W        W20660  22.007  10.179   2.785
54252W        W20661  11.396   9.112  13.822
54253W        W20662  19.833  37.811   2.317
54254W        W20663   9.625  21.672   4.641
54255W        W20664  34.289  43.755  10.730
54256W        W20665   3.785   9.543   3.783
54257W        W20666  24.148  12.337  11.645
54258W        W20667  14.582  38.897  14.839
54259W        W20668  28.605  18.266   0.038
54260W        W20669  22.776  17.349   1.795
54261W        W20670   5.715  17.321   4.222
54262W        W20671  10.976  21.124  11.040
54263W        W20672  31.229  43.460   1.286
54264W        W20673  10.237  13.825   3.130
54265W        W20674   4.675  41.396  13.409
54266W        W20675   5.401  43.619   4.081
54267W        W20676  21.810  23.126   2.424
54268W        W20677   0.646  26.225  11.220
54269W        W20678   1.207   4.225   0.427
54270W        W20679   7.437  42.498  13.145
54271W        W20680  16.742  15.032  13.961
54272W        W20681  35.386  10.811  12.228
54273W        W20682  10.598  41.655   4.609
54274W        W20683  38.538   7.462   1.488
54275W        W20684  15.070  43.433   3.144
54276W        W20685  31.231  21.300   1.840
54277W        W20686  36.709  13.312   3.684
54278W        W20687   0.344  18.605   1.495
54279W        W20688  38.930  29.698   0.855
54280W        W20689  30.864  31.111  11.949
54281W        W20690  11.482   4.985  10.607
54282W        W20691  11.716  38.959   4.598
54283W        W20692  10.459  19.831  11.525
54284W        W20693  43.254  10.877   3.175
54285W        W20694  24.605  39.935  14.710
54286W        W20695  10.361  22.616  13.878
54287W        W20696  42.773  18.576  13.571
54288W        W20697  32.338  23.541   3.079
54289W        W20698  23.627   5.745   1.974
54290W        W20699  24.682  17.686  11.183
54291W        W20700  24.533  27.636  11.492
54292W        W20701  38.044   0.988  13.714
54293W        W20702  20.059  10.388   2.329
54294W        W20703  32.815   9.185   2.031
54295W        W20704  44.837  30.962   2.917
54296W        W20705  13.493  22.174   4.081
54297W        W20706  30.437   2.857   9.884
54298W        W20707  32.496  40.942   0.400
54299W        W20708   2.602  26.439  10.296
54300W        W20709  36.508   2.049   0.291
54301W        W20710  23.334  23.046  12.204
54302W        W20711  31.471  34.573   1.171
54303W        W20712  39.808  37.698   2.717
54304W        W20713  16.063  34.274   2.372
54305W        W20714  24.707   6.274   2.672
54306W        W20715  37.847   7.679   1.043
54307W        W20716  17.563   5.335  11.915
54308W        W20717   4.608  19.059  13.408
54309W        W20718  31.869   1.713   4.922
54310W        W20719   0.199  20.685   2.779
54311W        W20720  12.250   7.630   1.049
54312W        W20721   4.905  12.648  14.895
54313W        W20722   0.848   9.472  13.281
54314W        W20723  23.095  36.612   1.791
54315W        W20724  22.598  16.761  13.371
54316W        W20725  35.372  33.493   2.299
54317W        W20726  30.656  36.436   0.274
54318W        W20727  42.820  27.391   3.851
54319W        W20728  36.220  41.913  12.755
54320W        W20729  11.869  17.246  10.591
54321W        W20730  24.003   9.197   3.113
54322W        W20731  26.934  18.208   0.238
54323W        W20732   9.272  18.714  12.089
54324W        W20733  32.626  26.704   4.108
54325W        W20734  32.086  44.447   3.642
54326W        W20735  12.844  14.152  13.073
54327W        W20736  44.804   8.680   1.904
54328W        W20737  13.889  13.295   1.950
54329W        W20738  40.363  15.039   1.282
54330W        W20739  42.191  32.095  10.950
54331W        W20740  21.716  18.356   1.198
54332W        W20741   7.936  25.722  14.095
54333W        W20742  30.052  19.500   0.499
54334W        W20743  36.331  25.694   1.311
54335W        W20744  35.604   5.046   3.726
54336W        W20745  18.818  21.970   0.994
54337W        W20746  26.788   3.236  14.102
54338W        W20747  31.839  27.555  13.836
54339W        W20748  28.893  23.444  11.661
54340W        W20749  40.747  25.754  13.971
54341W        W20750  17.787  40.574  11.045
54342W        W20751  40.533  33.324  13.974
54343W        W20752  10.353  37.501  10.777
54344W        W20753   7.425  28.411   1.856
54345W        W20754   5.417  37.657  13.460
54346W        W20755  41.765  17.704   3.232
54347W        W20756   7.245  33.481   4.507
54348W        W20757   5.989  40.675   1.226
54349W        W20758  39.459  20.464  13.402
54350W        W20759  13.847  39.303  10.730
54351W        W20760  25.130  43.694   2.693
54352W        W20761  26.130  30.430   2.491
54353W        W20762  39.332  35.457   2.109
54354W        W20763  34.152  15.039  12.957
54355W        W20764   7.348  26.145  11.620
54356W        W20765  10.171  34.326   2.771
54357W        W20766   9.653   3.755   1.220
54358W        W20767  35.420  42.696   2.315
54359W        W20768  31.844  22.465   0.950
54360W        W20769   4.677  30.552   3.905
54361W        W20770  18.395  13.301   4.059
54362W        W20771  20.049  41.296   3.138
54363W        W20772  30.937  21.204   0.874
54364W        W20773  29.907   9.322  12.649
54365W        W20774  23.681  18.255   4.461
54366W        W20775  43.936  10.646   4.305
54367W        W20776   0.373  11.008   4.562
54368W        W20777  27.501  11.411  13.597
54369W        W20778  35.116  12.855  11.078
54370W        W20779  33.495  11.469  10.242
54371W        W20780  25.401   9.351   5.352
54372W        W20781   0.256  17.435  14.930
54373W        W20782  30.700  34.412   2.202
54374W        W20783  10.650  44.740  11.636
54375W        W20784   0.927  40.092   3.733
54376W        W20785  10.124  29.531   4.027
54377W        W20786  31.179  31.695   1.326
54378W        W20787  44.209  34.105   3.568
54379W        W20788  43.226  25.547  14.912
54380W        W20789  36.656  43.090   2.823
54381W        W20790  34.883   2.833  14.910
54382W        W20791   9.877  25.082   0.205
54383W        W20792  41.567  33.967   1.943
54384W        W20793   1.050  21.442  10.723
54385W        W20794   6.994  26.949  10.712
54386W        W20795  43.976  36.518  12.971
54387W        W20796  43.361  33.979  10.855
54388W        W20797  44.832  12.144  12.500
54389W        W20798  32.155  39.769  12.563
54390W        W20799  11.862  11.836  14.469
54391W        W20800   6.766  17.341   3.226
54392W        W20801  10.347  13.244  13.105
54393W        W20802   7.423  13.869   2.426
54394W        W20803  31.000  12.781  12.969
54395W        W20804  20.652  26.702  12.818
54396W        W20805  34.925  17.980   1.887
54397W        W20806   9.860  21.466   2.541
54398W        W20807  22.227  14.644  14.393
54399W        W20808  11.095  14.946   2.813
54400W        W20809  35.809  17.881  11.378
54401W        W20810   2.845  23.052  10.805
54402W        W20811  40.861  28.699  11.586
54403W        W20812  12.938  13.113  13.457
54404W        W20813  41.935  14.426  13.834
54405W        W20814  36.584  30.755   0.387
54406W        W20815  17.188  29.390   1.926
54407W        W20816  33.350  33.401   4.044
54408W        W20817  20.529  18.057   4.288
54409W        W20818  29.982   1.952   4.577
54410W        W20819  24.007   9.708   3.258
54411W        W20820  21.635   0.432  11.619
54412W        W20821   7.241   9.598   1.621
54413W        W20822  39.441  14.948  10.219
54414W        W20823   6.296   3.857   3.112
54415W        W20824  36.841   1.474   4.145
54416W        W20825  37.949  22.140  11.982
54417W        W20826  43.939  25.081   2.900
54418W        W20827  15.498   5.813   3.129
54419W        W20828  26.432  44.592   3.376
54420W        W20829  19.965  21.577  11.494
54421W        W20830   2.191   8.200   2.411
54422W        W20831  35.905  31.232  13.945
54423W        W20832  12.343   9.714  10.872
54424W        W20833  24.498  39.513   1.536
54425W        W20834  27.069  10.383  11.203
54426W        W20835   0.330  29.018   1.476
54427W        W20836  35.099   6.079   4.129
54428W        W20837  10.621  31.466   1.853
54429W        W20838   0.613  15.322  11.148
54430W        W20839   5.779   0.025  10.718
54431W        W20840  21.967  19.535   4.482
54432W        W20841  38.644  38.943  12.219
54433W        W20842   8.662  10.812  13.295
54434W        W20843  20.130   5.854  14.094
54435W        W20844   6.629  24.622   2.774
54436W        W20845  27.368  26.568   2.594
54437W        W20846  11.446  36.981   5.581
54438W        W20847  25.659  25.752  11.854
54439W        W20848  41.041  16.099  13.924
54440W        W20849  25.687  32.359  12.445
54441W        W20850  43.532  36.843  11.663
54442W        W20851   9.227  28.118   1.361
54443W        W20852  10.205  42.837   4.909
54444W        W20853  24.074  10.197   5.047
54445W        W20854  24.171  14.028   3.340
54446W        W20855  27.291   0.730   0.416
54447W        W20856  38.917  39.960  12.598
54448W        W20857  21.453  39.135   0.484
54449W        W20858   9.696  36.953   0.344
54450W        W20859  30.326  27.141   4.122
54451W        W20860  10.738  32.319  12.467
54452W        W20861   9.906  43.898   2.818
54453W        W20862  40.450  30.374  13.073
54454W        W20863  11.678   1.267  11.592
54455W        W20864  17.022   6.344   3.707
54456W        W20865   3.772  11.220  13.345
54457W        W20866  36.126  34.119   4.156
54458W        W20867  26.150  35.613   2.909
54459W        W20868  36.494   8.704   3.738
54460W        W20869   1.868   5.343  12.491
54461W        W20870  20.198  26.549  13.065
54462W        W20871   0.334  31.076  14.039
54463W        W20872  44.056  40.952   0.035
54464W        W20873   1.891   9.117   1.306
54465W        W20874  18.047  42.393  12.933
54466W        W20875  20.638  40.332  13.729
54467W        W20876  39.124   2.050  14.441
54468W        W20877  20.402  27.617   3.841
54469W        W20878  28.541  29.594  11.966
54470W        W20879  24.137  16.192  12.486
54471W        W20880  39.903   2.922  13.350
54472W        W20881  16.640  15.689   3.410
54473W        W20882  15.162  25.647   0.959
54474W        W20883  19.054  14.617   2.909
54475W        W20884  39.132  42.073  12.380
54476W        W20885  32.977  33.562  10.665
54477W        W20886  33.909  24.562  14.047
54478W        W20887  40.800  25.235  13.988
54479W        W20888  39.409  38.599   1.373
54480W        W20889  21.467  22.714   2.259
54481W        W20890  27.998  27.907  14.935
54482W        W20891  24.867   0.749  10.753
54483W        W20892   1.773  38.365  13.899
54484W        W20893  30.521  30.924   4.282
54485W        W20894  25.490  44.271  13.296
54486W        W20895  28.765  29.853  11.075
54487W        W20896  10.125  37.047  10.734
54488W        W20897  18.752  30.277   5.120
54489W        W20898  17.181  36.392  13.758
54490W        W20899  18.387  25.897  14.875
54491W        W20900   5.336  34.990  12.583
54492W        W20901  18.221  39.105   1.611
54493W        W20902  32.393  31.557   2.725
54494W        W20903  39.910  38.737   0.506
54495W        W20904  21.942  11.094  14.272
54496W        W20905  28.935  39.820   3.571
54497W        W20906  34.571  40.410  10.410
54498W        W20907  13.143   4.550   0.215
54499W        W20908   6.824  27.464   3.339
54500W        W20909   0.140  44.873   9.999
54501W        W20910  14.085  28.164  13.950
54502W        W20911  19.186  38.045   4.693
54503W        W20912   7.661  29.175   2.265
54504W        W20913  32.144  23.554  14.797
54505W        W20914  31.600   1.026  10.605
54506W        W20915  13.838  44.388   1.247
54507W        W20916  10.322  25.357   4.930
54508W        W20917   3.172  30.431   2.769
54509W        W20918  11.271  20.073   3.646
54510W        W20919  36.891  33.161  13.452
54511W        W20920  38.369  35.187  14.518
54512W        W20921  39.951   2.434   2.170
54513W        W20922  21.811  28.928   3.653
54514W        W20923  44.954  35.624  12.893
54515W        W20924  12.211  22.914  10.305
54516W        W20925   4.705  33.235   0.436
54517W        W20926  38.925   3.523  11.583
54518W        W20927  23.879  26.659  11.063
54519W        W20928  35.400  11.106  10.434
54520W        W20929   9.581  21.407  14.885
54521W        W20930  16.396   5.768  12.504
54522W        W20931   0.195  13.128   2.693
54523W        W20932   1.461  13.795  13.607
54524W        W20933  20.033  29.850  12.169
54525W        W20934  12.280  30.240  11.519
54526W        W20935   9.158  14.635  13.508
54527W        W20936   2.820  44.302  13.998
54528W        W20937  39.897   8.809   5.045
54529W        W20938   4.245   1.417  10.479
54530W        W20939   1.931  18.251   1.320
54531W        W20940   5.008  24.464   2.586
54532W        W20941  32.684   3.569  12.130
54533W        W20942   7.685  16.566   2.412
54534W        W20943  25.238  16.094   0.430
54535W        W20944   3.727  12.353  11.091
54536W        W20945  11.591  25.089   4.604
54537W        W20946  13.738  16.699  11.218
54538W        W20947  26.243   8.619   1.706
54539W        W20948  25.657  18.179   0.953
54540W        W20949  10.843  22.627   3.200
54541W        W20950  15.585  19.584  12.984
54542W        W20951   6.429   1.823   3.680
54543W        W20952  41.766   1.748  10.691
54544W        W20953  30.939   7.379   2.137
54545W        W20954  23.011  25.667   1.061
54546W        W20955  32.887  42.838  10.638
54547W        W20956   4.782  40.518  13.535
54548W        W20957  39.422  12.124  11.568
54549W        W20958  30.261  28.243  14.464
54550W        W20959  15.043   9.165   0.410
54551W        W20960  43.536  24.466  10.744
54552W        W20961  21.413  32.472  14.841
54553W        W20962  17.557  16.730   0.826
54554W        W20963  42.506  13.801   3.402
54555W        W20964  33.677  23.719   0.949
54556W        W20965  41.259  19.278  14.561
54557W        W20966  14.011  32.739   2.397
54558W        W20967  32.490  26.141   0.750
54559W        W20968  35.026  24.504  14.901
54560W        W20969  43.033  39.027  12.045
54561W        W20970  35.330  42.066  11.168
54562W        W20971  19.323  39.572  14.245
54563W        W20972  22.522  28.082  10.621
54564W        W20973  23.113  32.652   4.517
54565W        W20974   4.949  32.821   0.698
54566W        W20975  35.686  27.160   3.293
54567W        W20976  29.928   4.289  11.762
54568W        W20977  20.802  26.533   1.821
54569W        W20978   4.678  42.367  14.481
54570W        W20979  10.897  36.804   2.348
54571W        W20980  40.869  38.942   4.574
54572W        W20981  15.191  42.028   1.727
54573W        W20982  14.774  41.773   1.891
54574W        W20983  42.763  43.503   4.177
54575W        W20984  16.819  14.115  12.063
54576W        W20985  21.531  20.071  11.118
54577W        W20986  17.503  17.171  13.457
54578W        W20987  14.130  44.183   2.585
54579W        W20988  26.894   2.316   2.107
54580W        W20989  38.993  31.157   3.635
54581W        W20990  31.893  14.257   3.960
54582W        W20991  43.860  28.377  12.927
54583W        W20992  19.483  31.930  12.479
54584W        W20993  18.366  19.775  13.633
54585W        W20994  38.036  43.729  14.274
54586W        W20995  41.314  12.825   2.410
54587W        W20996  40.731  35.079   2.183
54588W        W20997   8.243  11.702   1.258
54589W        W20998  11.827  38.447   4.535
54590W        W20999   6.002  35.384  14.417
54591W        W21000  35.346  14.701   4.163
54592W        W21001   1.729  10.616  13.407
54593W        W21002  34.473  14.169   2.769
54594W        W21003   1.622  32.588  13.520
54595W        W21004  31.244   0.884   0.849
54596W        W21005   9.956   7.392   3.764
54597W        W21006  13.813  27.093   3.153
54598W        W21007  41.280  32.928  14.315
54599W        W21008  36.079  33.916   2.290
54600W        W21009  39.282  29.869   1.279
54601W        W21010  29.462  43.808  13.924
54602W        W21011  44.248  11.304  12.648
54603W        W21012  39.238   7.695   0.280
54604W        W21013  22.137  36.182  14.770
54605W        W21014  10.801  33.952   3.708
54606W        W21015  11.411  33.624  13.982
54607W        W21016  25.652  23.521   3.655
54608W        W21017   8.463  33.996  11.251
54609W        W21018  13.326  14.254   0.793
54610W        W21019  11.239  40.464   2.274
54611W        W21020   6.239   0.314   4.473
54612W        W21021  20.596  44.263  13.917
54613W        W21022  16.130  43.833  13.364
54614W        W21023   4.649  31.781  14.299
54615W        W21024  30.545  10.092   0.959
54616W        W21025  12.196  10.792   0.229
54617W        W21026  15.108  40.107   5.073
54618W        W21027  35.109  13.805   3.728
54619W        W21028  17.792   4.834   3.599
54620W        W21029   0.182  28.999   2.799
54621W        W21030   7.676   1.886  11.266
54622W        W21031  24.710  27.142   3.792
54623W        W21032  10.406  39.598  10.802
54624W        W21033   5.600  41.555  11.399
54625W        W21034  30.091   2.744   0.289
54626W        W21035   6.396   1.418   1.805
54627W        W21036  20.162  38.546  12.694
54628W        W21037  25.144  23.760   1.728
54629W        W21038  33.010  15.888   2.523
54630W        W21039  11.540  17.279  12.841
54631W        W21040  41.822  31.842   2.295
54632W        W21041   7.686  43.354  11.535
54633W        W21042  25.556  13.378   3.908
54634W        W21043  15.488  23.089  11.159
54635W        W21044  13.110  12.652  13.262
54636W        W21045   1.307  17.740   1.992
54637W        W21046   7.188  41.439   2.653
54638W        W21047  17.185  30.400  12.796
54639W        W21048  27.587  37.770  12.663
54640W        W21049  24.046  35.380   4.569
54641W        W21050   0.005  10.620  12.174
54642W        W21051  25.029  10.471   4.079
54643W        W21052  36.346   4.097  11.137
54644W        W21053  10.604  38.739   1.347
54645W        W21054  35.954  44.602   0.200
54646W        W21055  11.186   0.882  12.047
54647W        W21056   9.199  24.580  10.943
54648W        W21057  27.932  17.098   2.388
54649W        W21058  15.697  25.682   0.899
54650W        W21059  43.545  26.591   4.448
54651W        W21060  34.531  18.509  11.018
54652W        W21061   3.009  12.704  11.559
54653W        W21062  23.804  19.573  14.317
54654W        W21063  14.728  35.655  12.597
54655W        W21064  18.292   4.872  13.007
54656W        W21065  40.538  19.248  11.994
54657W        W21066  11.669   6.260   3.222
54658W        W21067  44.811  23.963   3.309
54659W        W21068   7.623  40.262  13.907
54660W        W21069  44.715  12.175  10.654
54661W        W21070  35.614   5.568  10.990
54662W        W21071  41.284  26.989   3.206
54663W        W21072  36.450  25.977  11.021
54664W        W21073  37.652  23.975  10.623
54665W        W21074  23.272  38.428   3.599
54666W        W21075  32.897  35.933  14.274
54667W        W21076   9.840   8.924   1.302
54668W        W21077  41.937  25.655  11.906
54669W        W21078  12.140  12.276   1.201
54670W        W21079   8.799  15.781  11.955
54671W        W21080  42.021  40.125   2.666
54672W        W21081  10.311  42.956   4.417
54673W        W21082  23.086  36.093  13.912
54674W        W21083  41.953  31.162   3.708
54675W        W21084  33.672   3.779  11.613
54676W        W21085   8.644  10.144  12.254
54677W        W21086  15.690   2.370  12.018
54678W        W21087  16.897  43.331  11.321
54679W        W21088  24.222  16.646   2.566
54680W        W21089   0.067  22.253   0.351
54681W        W21090  10.097   4.441   1.762
54682W        W21091  27.507   2.500  13.826
54683W        W21092  33.495  29.653  11.247
54684W        W21093  16.697   6.612  12.668
54685W        W21094  27.203  26.583   1.691
54686W        W21095  14.324  33.635   1.512
54687W        W21096  42.942  44.686   1.407
54688W        W21097   9.712  10.303   4.536
54689W        W21098  16.172   8.453  13.228
54690W        W21099   7.188  12.863   3.968
54691W        W21100   6.610   5.607   3.315
54692W        W21101  31.972  35.988  10.895
54693W        W21102  23.010   4.722  11.184
54694W        W21103   4.921  44.266  12.086
54695W        W21104   7.167  20.757   2.742
54696W        W21105  33.669  36.817  14.565
54697W        W21106  15.296   9.909  10.600
54698W        W21107  29.965  37.182  12.004
54699W        W21108  19.063  29.418   1.757
54700W        W21109   6.144  14.365  13.414
54701W        W21110  25.455   2.390  12.680
54702W        W21111  11.856  39.655   2.823
54703W        W21112  18.790  35.652   0.038
54704W        W21113  33.175   1.165   3.177
54705W        W21114  36.027  21.686   4.055
54706W        W21115  32.097  13.826   4.732
54707W        W21116  32.894  37.594  10.781
54708W        W21117   8.852  23.207  12.983
54709W        W21118  33.564  33.538   1.675
54710W        W21119   1.946  24.221  12.655
54711W        W21120   6.800  26.042  10.706
54712W        W21121   2.446   8.656  13.454
54713W        W21122  19.790  21.654  14.783
54714W        W21123  28.932  37.010  12.012
54715W        W21124   9.072  18.112  12.624
54716W        W21125  31.878  21.711  11.262
54717W        W21126  21.198  44.833   2.114
54718W        W21127  22.046  26.954   0.501
54719W        W21128  29.716  34.928  14.770
54720W        W21129  12.739   2.737   4.946
54721W        W21130   4.401  41.981  13.956
54722W        W21131  21.990  16.522  14.419
54723W        W21132  28.735  23.776   0.975
54724W        W21133  22.250  25.513   2.769
54725W        W21134  20.692  10.174   4.574
54726W        W21135   9.958   1.657  14.695
54727W        W21136  25.706  11.995   0.236
54728W        W21137   4.822  42.280  13.871
54729W        W21138   6.591  37.242   2.376
54730W        W21139  36.052   3.298  13.884
54731W        W21140  21.700  16.296  13.571
54732W        W21141   8.931  30.573   3.681
54733W        W21142  12.668  40.784   0.717
54734W        W21143   2.765  40.093  14.423
54735W        W21144   8.734  38.948  12.902
54736W        W21145   2.425  42.960   0.901
54737W        W21146  23.496   6.948   0.946
54738W        W21147  33.446   4.055   2.670
54739W        W21148  34.687  17.202   0.778
54740W        W21149  38.629  26.737  11.584
54741W        W21150  28.095   0.250   4.756
54742W        W21151   3.739   8.912  14.869
54743W        W21152  36.590  37.836  10.811
54744W        W21153  42.558  33.453   4.217
54745W        W21154   2.889  25.294  11.615
54746W        W21155  26.802  38.877  10.059
54747W        W21156   1.851  31.739   4.087
54748W        W21157   5.321   1.144   3.628
54749W        W21158  36.579  12.335  13.314
54750W        W21159   3.925  17.719  12.579
54751W        W21160   9.340  36.550   2.375
54752W        W21161   7.415  24.212   3.275
54753W        W21162  24.149   3.349   3.871
54754W        W21163  32.019  29.638  12.126
54755W        W21164   1.442  25.736   3.426
54756W        W21165   3.127  27.238  13.036
54757W        W21166  35.983  17.759   1.881
54758W        W21167  37.017  42.050   3.506
54759W        W21168  11.340   2.738   0.810
54760W        W21169  11.331  39.926   3.652
54761W        W21170  33.442  41.870   0.336
54762W        W21171  38.685  39.272   0.445
54763W        W21172  28.228   0.047   4.113
54764W        W21173  13.625  31.538   4.321
54765W        W21174  28.930  24.411  12.458
54766W        W21175  43.100  41.979  13.949
54767W        W21176  41.398  25.199  12.116
54768W        W21177  41.015   3.395   2.893
54769W        W21178  29.433  38.815  14.876
54770W        W21179  25.245  30.108   4.075
54771W        W21180   8.757  29.008   4.284
54772W        W21181  21.631  22.682   3.958
54773W        W21182  30.119  23.931   2.156
54774W        W21183  14.180  11.595   0.385
54775W        W21184   8.231  12.729  12.335
54776W        W21185  33.525   6.325   0.653
54777W        W21186  30.512  41.399  10.373
54778W        W21187  24.929  26.572  14.851
54779W        W21188  43.875  27.886   4.335
54780W        W21189   4.676   4.376   0.919
54781W        W21190  11.911  26.465   4.593
54782W        W21191  27.760   5.746  10.630
54783W        W21192  41.365  25.946  12.634
54784W        W21193  23.798   7.458   3.314
54785W        W21194   3.963  37.383   0.361
54786W        W21195  13.288  22.127   9.891
54787W        W21196  40.039  27.726  10.675
54788W        W21197   9.029  31.155  13.519
54789W        W21198  15.747  23.025  10.684
54790W        W21199  19.940  27.972   0.755
54791W        W21200  39.528  44.868  13.062
54792W        W21201  19.080  17.722   4.836
54793W        W21202   9.321  22.438   3.223
54794W        W21203  19.078  23.653   2.670
54795W        W21204  33.419  40.250  13.760
54796W        W21205  32.199  36.001   4.722
54797W        W21206  20.721  28.417   0.199
54798W        W21207   2.805   3.922  13.328
54799W        W21208   5.955  31.008  12.363
54800W        W21209  16.845  10.324   3.394
54801W        W21210   8.869  10.040   0.806
54802W        W21211  21.568  26.649  13.932
54803W        W21212   2.385  41.068   4.064
54804W        W21213  44.048  43.204  11.556
54805W        W21214  29.918  32.916   4.647
54806W        W21215   1.800  20.333   1.684
54807W        W21216  39.810  19.033   3.165
54808W        W21217  23.557  30.160   3.110
54809W        W21218   2.838  26.003   4.139
54810W        W21219  11.504   3.967  13.924
54811W        W21220  42.060  44.393  12.416
54812W        W21221  35.056   3.415   2.855
54813W        W21222  20.146  33.753  10.308
54814W        W21223  21.194  42.334  13.824
54815W        W21224  15.791  14.326  11.227
54816W        W21225  33.130  34.443   0.741
54817W        W21226  36.887  20.767  14.350
54818W        W21227  28.458  23.491  13.932
54819W        W21228  19.773  17.655   3.703
54820W        W21229  12.845  19.696   2.233
54821W        W21230  43.161   3.956  11.139
54822W        W21231   3.307  30.754   4.091
54823W        W21232  13.064  23.973   0.297
54824W        W21233  26.860  42.125  14.005
54825W        W21234   1.821  34.955   3.147
54826W        W21235  22.039   7.427  11.656
54827W        W21236  16.119  31.510  11.242
54828W        W21237   8.207  17.787  11.583
54829W        W21238  11.811  22.237  12.943
54830W        W21239  23.153   9.605   3.094
54831W        W21240  44.252  28.388  11.802
54832W        W21241  21.530  36.331   1.770
54833W        W21242  24.202  21.513  12.625
54834W        W21243  15.111  38.904   3.229
54835W        W21244  42.857   1.742  12.501
54836W        W21245  28.539   2.959   1.231
54837W        W21246   5.764  28.427   2.174
54838W        W21247  43.226  26.314   1.175
54839W        W21248   1.336  17.682   0.257
54840W        W21249  11.283  14.233   2.153
54841W        W21250   4.759  36.166   4.293
54842W        W21251  10.354  12.292   3.202
54843W        W21252  28.441  11.256   0.273
54844W        W21253  30.379  27.852   2.956
54845W        W21254  30.450  16.157   1.516
54846W        W21255  23.958  17.246   5.076
54847W        W21256   8.446  21.962   4.165
54848W        W21257  32.078   6.240   2.597
54849W        W21258  23.984  32.700  13.910
54850W        W21259  25.227  37.752   0.398
54851W        W21260  21.589   5.244   4.710
54852W        W21261  14.077   5.255  14.040
54853W        W21262  41.870  11.915  10.977
54854W        W21263   5.873  21.712  10.937
54855W        W21264   9.862  33.844  11.726
54856W        W21265  24.480  22.570   1.913
54857W        W21266  20.294   4.820   4.548
54858W        W21267  12.858  44.823   1.344
54859W        W21268  17.137  33.239   2.160
54860W        W21269  23.467  26.904   1.691
54861W        W21270  42.785   8.925   4.067
54862W        W21271   8.172  17.338  12.888
54863W        W21272   8.196  40.903  13.846
54864W        W21273   0.118  23.044   3.109
54865W        W21274  30.127  24.486   1.483
54866W        W21275  34.549   7.796  14.372
54867W        W21276  44.286  10.967   3.106
54868W        W21277  36.145   9.597   0.465
54869W        W21278  33.629  31.516   4.140
54870W        W21279   2.503   3.947  10.758
54871W        W21280  22.633  29.463  14.835
54872W        W21281   1.908   3.804   3.895
54873W        W21282  32.813  16.066  14.102
54874W        W21283  18.668  30.728   2.957
54875W        W21284  25.138  21.742   2.641
54876W        W21285   8.461  20.296   0.303
54877W        W21286  10.648   7.061   2.352
54878W        W21287  43.818  34.501   4.841
54879W        W21288   8.616  26.530  14.003
54880W        W21289  31.507  12.270   4.156
54881W        W21290   3.022  38.176   0.941
54882W        W21291   1.372  35.346   0.750
54883W        W21292  18.289  23.216   2.428
54884W        W21293  34.390  14.044  11.483
54885W        W21294  40.811  27.402  12.101
54886W        W21295  27.705  27.503   1.799
54887W        W21296  41.985  26.411  11.434
54888W        W21297  27.204  40.400  11.024
54889W        W21298  28.973  14.718  11.618
54890W        W21299  25.119  13.292   2.711
54891W        W21300  32.222  12.329  13.968
54892W        W21301  26.949  44.471   3.771
54893W        W21302  27.752  14.792   4.104
54894W        W21303  37.385  28.133   3.026
54895W        W21304  22.160   8.349  12.209
54896W        W21305  35.649  34.126   1.817
54897W        W21306  30.887   8.431   2.784
54898W        W21307  27.545  15.022  10.723
54899W        W21308  30.506  28.719   3.479
54900W        W21309  41.582  27.857  14.253
54901W        W21310  22.141  18.723  10.748
54902W        W21311  10.432  18.904  13.726
54903W        W21312   1.748  24.662  14.429
54904W        W21313  28.399  15.193   1.424
54905W        W21314   3.238  32.944  13.865
54906W        W21315  27.061  25.307   0.821
54907W        W21316  13.281  18.496   0.351
54908W        W21317  34.363  18.532   0.914
54909W        W21318  38.660   1.413  12.939
54910W        W21319  30.107  23.617  14.394
54911W        W21320  12.405  32.701  11.194
54912W        W21321  42.532   8.364  13.237
54913W        W21322   4.341   8.346  10.469
54914W        W21323  44.868   3.225  12.954
54915W        W21324  40.341  14.731  10.924
54916W        W21325  19.134  19.074   2.319
54917W        W21326  36.947  34.550  11.708
54918W        W21327  33.174   8.281   1.078
54919W        W21328   0.648  14.754   4.269
54920W        W21329   2.132  42.831  12.110
54921W        W21330  20.616  15.257   3.427
54922W        W21331  27.589   7.372  12.292
54923W        W21332  31.011  23.105  14.785
54924W        W21333  29.716  10.314  11.179
54925W        W21334  38.882  17.656  12.091
54926W        W21335  31.725  21.521   4.151
54927W        W21336  44.447   3.590   2.719
54928W        W21337  35.921  41.229   4.749
54929W        W21338  25.207  22.242   3.255
54930W        W21339  23.707   9.935  11.204
54931W        W21340  15.107  11.514  13.887
54932W        W21341   2.906  42.330  13.046
54933W        W21342  15.285  41.851  11.992
54934W        W21343   0.052  13.196   2.195
54935W        W21344  42.728  40.320   1.756
54936W        W21345  43.222   9.860  11.721
54937W        W21346   2.210  37.944   4.563
54938W        W21347  32.349  34.392  12.921
54939W        W21348  39.349  23.593  11.002
54940W        W21349   7.222  11.314   2.190
54941W        W21350  39.933   0.961  11.645
54942W        W21351  14.044  30.117   0.804
54943W        W21352   0.186  38.049   3.266
54944W        W21353  13.620   0.549   4.195
54945W        W21354  38.111  34.932  10.698
54946W        W21355  15.876   8.670  12.719
54947W        W21356  18.582  41.722  14.894
54948W        W21357  18.414   7.825   3.275
54949W        W21358   8.017   2.191   4.810
54950W        W21359  12.499  13.238   4.619
54951W        W21360  42.422  17.049  14.604
54952W        W21361  10.210  22.063   1.245
54953W        W21362  19.556   3.117   1.293
54954W        W21363   8.936  38.387   0.399
54955W        W21364  37.400  21.215  12.120
54956W        W21365   9.498  11.743  14.668
54957W        W21366  32.514   9.334   0.626
54958W        W21367  30.675  22.375   1.330
54959W        W21368  36.468   9.076  11.702
54960W        W21369  12.102   4.314  11.033
54961W        W21370  33.546  33.412   0.318
54962W        W21371  37.149   2.182  14.881
54963W        W21372  17.794   6.119   2.849
54964W        W21373  19.487  25.932   4.331
54965W        W21374  31.919  33.101  13.745
54966W        W21375  38.669  37.124   4.420
54967W        W21376  32.027   7.794   0.553
54968W        W21377  42.897  40.293  14.812
54969W        W21378  16.564  24.749  11.142
54970W        W21379  39.967  25.708   4.677
54971W        W21380  15.564  25.096  14.280
54972W        W21381   5.232  16.749   3.172
54973W        W21382  34.096   1.952  12.351
54974W        W21383   3.659   3.810   3.191
54975W        W21384  29.663  20.695   1.763
54976W        W21385  37.155   4.196  11.519
54977W        W21386  34.583  17.869  13.925
54978W        W21387  38.901  11.161   3.181
54979W        W21388   7.193  11.810   3.329
54980W        W21389   7.785  20.166   4.536
54981W        W21390  20.474  18.966   3.342
54982W        W21391  42.551  42.433  12.841
54983W        W21392  43.459  25.115   3.732
54984W        W21393  37.327  28.945  12.071
54985W        W21394  39.789  15.660   4.649
54986W        W21395   7.768  16.037   3.566
54987W        W21396  40.071  28.983   2.295
54988W        W21397   8.463  43.342   2.370
54989W        W21398  11.857   1.291  13.085
54990W        W21399  29.747  11.819   5.291
54991W        W21400  15.899  32.889   2.851
54992W        W21401   6.431  13.044   4.180
54993W        W21402  28.525  23.490  12.616
54994W        W21403   3.418  43.374  11.479
54995W        W21404  17.074  11.658   4.581
54996W        W21405   5.876  25.529  14.362
54997W        W21406  43.947  29.900   2.680
54998W        W21407  41.372  38.257   4.354
54999W        W21408  14.018  40.162  10.631
55000W        W21409  41.741  24.252  14.961
55001W        W21410   2.922   3.991   0.750
55002W        W21411  26.198  40.306   3.194
55003W        W21412  36.498  11.932   3.919
55004W        W21413   5.382   1.418  11.471
55005W        W21414  26.166  38.619  13.471
55006W        W21415  37.570  37.656  12.576
55007W        W21416   1.995  34.477   3.004
55008W        W21417   6.235  20.749   2.612
55009W        W21418  34.634  43.544   4.324
55010W        W21419  41.845  11.071  14.572
55011W        W21420  12.698   6.802  14.858
55012W        W21421  32.909  44.438   3.352
55013W        W21422  30.075  28.389   0.432
55014W        W21423  33.134  19.605  12.053
55015W        W21424  42.966  25.588  11.093
55016W        W21425   9.640  44.051   3.247
55017W        W21426   9.702  36.278  14.781
55018W        W21427  14.743  39.161  11.156
55019W        W21428  20.293  16.556  11.065
55020W        W21429  31.891  42.436   1.414
55021W        W21430   3.238  39.005  11.980
55022W        W21431  11.779   4.891  14.492
55023W        W21432   2.124  25.279   2.760
55024W        W21433  12.693   5.706   3.655
55025W        W21434  12.325   8.627  13.961
55026W        W21435  39.413  21.777   3.850
55027W        W21436  39.805  19.324  14.000
55028W        W21437  43.552  30.179   3.007
55029W        W21438  43.673  26.439   1.888
55030W        W21439   9.953  37.395   2.159
55031W        W21440  27.111  12.685  10.926
55032W        W21441  19.493   0.673   1.307
55033W        W21442  17.448  30.318   4.230
55034W        W21443   9.208   8.889  12.203
55035W        W21444  18.535  23.999   0.026
55036W        W21445  29.264  29.570   2.455
55037W        W21446   9.394  20.327  13.278
55038W        W21447  19.172   7.208   3.450
55039W        W21448  41.368  26.229  11.209
55040W        W21449  38.277   7.749  13.527
55041W        W21450   9.663  34.117   2.545
55042W        W21451  26.012   4.808  11.390
55043W        W21452  41.891  17.632   1.641
55044W        W21453  40.826   5.436  13.288
55045W        W21454  23.142  33.145  12.909
55046W        W21455  12.852  41.410  10.916
55047W        W21456   7.413  37.525  12.679
55048W        W21457  22.721  22.963   4.086
55049W        W21458  21.576   8.701  13.758
55050W        W21459  20.929  41.351   2.118
55051W        W21460  44.324   0.774   2.544
55052W        W21461  19.043  32.861   1.393
55053W        W21462  29.219  36.355   4.099
55054W        W21463  13.693  36.439   2.314
55055W        W21464  10.097   3.788   0.274
55056W        W21465   3.131  38.743   2.284
55057W        W21466  10.236  30.010  11.663
55058W        W21467   1.983  30.135   3.326
55059W        W21468  28.243  10.776   0.449
55060W        W21469  39.550  15.277   1.786
55061W        W21470   8.744   2.762   1.508
55062W        W21471   0.882  26.318  10.774
55063W        W21472  33.418  10.379   1.688
55064W        W21473  26.272  12.755   1.331
55065W        W21474  34.486   6.920  14.173
55066W        W21475  39.065  44.228  13.854
55067W        W21476  23.118  31.660   2.066
55068W        W21477  41.966  30.440  14.774
55069W        W21478  12.341  22.126  14.790
55070W        W21479  25.859   6.940  10.987
55071W        W21480  43.347  33.083  12.559
55072W        W21481  18.028  20.160  13.529
55073W        W21482   5.210  23.070  11.210
55074W        W21483  21.147  38.485  14.288
55075W        W21484  31.906  13.349  13.005
55076W        W21485   6.262  12.224   4.667
55077W        W21486   5.361  14.192   1.698
55078W        W21487  35.270  17.573  14.408
55079W        W21488  22.696  33.285   3.382
55080W        W21489  42.278  28.394   1.013
55081W        W21490  41.761   7.446   4.542
55082W        W21491  16.106  18.221   4.316
55083W        W21492  44.720  34.601  12.925
55084W        W21493  34.132  27.588  13.317
55085W        W21494  27.980  40.935   4.533
55086W        W21495  20.105   7.791  14.419
55087W        W21496  10.338  16.923  10.281
55088W        W21497  23.228   1.744   0.819
55089W        W21498   1.533   5.037   1.843
55090W        W21499  18.690  38.261   4.557
55091W        W21500   1.591  23.586  10.740
55092W        W21501   7.545  36.197   1.219
55093W        W21502   5.372   7.398   0.829
55094W        W21503  33.724  28.019  10.806
55095W        W21504   3.815  23.486   0.852
55096W        W21505  15.190  16.826  10.574
55097W        W21506  28.258   3.237   5.073
55098W        W21507  20.663  23.025   3.768
55099W        W21508   0.078  29.513  11.661
55100W        W21509  21.599  20.691  14.196
55101W        W21510   3.670  41.909   3.340
55102W        W21511  22.886   7.798   2.300
55103W        W21512   9.876  27.312   9.796
55104W        W21513  23.748  17.410   3.211
55105W        W21514  19.581  22.053  11.643
55106W        W21515  34.516  13.723   1.429
55107W        W21516  28.035  40.507   4.162
55108W        W21517  34.852  27.556  14.463
55109W        W21518   2.972  40.065   0.960
55110W        W21519   9.381  24.114   2.309
55111W        W21520  29.707  17.099  13.057
55112W        W21521  34.816   4.806  12.234
55113W        W21522  18.698  29.567  12.905
55114W        W21523  40.412   4.968   2.591
55115W        W21524  26.728  39.076   3.209
55116W        W21525  23.007   3.276   3.058
55117W        W21526  21.981  24.663  10.319
55118W        W21527  39.943  15.547   4.169
55119W        W21528  13.668  37.814   0.840
55120W        W21529  40.894  40.403   2.099
55121W        W21530   2.286  39.054   2.581
55122W        W21531   3.240  42.223   3.296
55123W        W21532  33.522  26.211  10.057
55124W        W21533  41.863   6.564  10.311
55125W        W21534   5.218  31.708   4.146
55126W        W21535  25.152  11.638  11.858
55127W        W21536  18.722  18.142   2.135
55128W        W21537   7.256  38.982   3.813
55129W        W21538  11.386  16.472  14.276
55130W        W21539  15.525  40.506   0.378
55131W        W21540  25.250  30.617  14.479
55132W        W21541  11.609  42.157   4.152
55133W        W21542  11.873  11.451  11.206
55134W        W21543  39.906  16.312   1.365
55135W        W21544  28.098  32.077  14.125
55136W        W21545  23.964  43.790   1.439
55137W        W21546  23.082  10.783   1.345
55138W        W21547  15.045  32.153  11.581
55139W        W21548   7.793  14.285   0.344
55140W        W21549  34.888  28.451  11.196
55141W        W21550  20.850  31.405   0.789
55142W        W21551  12.247   9.371  12.662
55143W        W21552  38.245  23.062  14.796
55144W        W21553  27.499   1.740   1.225
55145W        W21554   9.927  17.854   3.612
55146W        W21555  38.341   6.981   0.961
55147W        W21556  15.188  28.397   2.662
55148W        W21557  34.551  38.327   0.545
55149W        W21558   3.410   4.456   0.419
55150W        W21559  19.414  10.548   1.544
55151W        W21560   7.610  16.454   1.222
55152W        W21561   8.124  16.995   4.208
55153W        W21562  40.575  35.534   3.334
55154W        W21563  31.796  20.294  13.908
55155W        W21564  40.328  12.651   2.610
55156W        W21565  43.664  27.386   3.415
55157W        W21566   4.106  26.443   1.317
55158W        W21567   4.711  37.357  12.977
55159W        W21568  27.699   3.124  10.584
55160W        W21569  32.652   2.695   1.260
55161W        W21570  18.358  26.740   4.161
55162W        W21571  23.630   1.646  11.911
55163W        W21572  22.598  41.747   4.711
55164W        W21573  14.734  23.966  14.717
55165W        W21574  17.568  38.466   0.143
55166W        W21575  14.361   0.708   9.816
55167W        W21576  25.018  34.084  11.690
55168W        W21577  10.120  19.650  11.866
55169W        W21578  22.815  35.638  14.526
55170W        W21579  25.034  23.734  13.689
55171W        W21580  17.808  31.945   0.779
55172W        W21581   6.276  42.334   3.193
55173W        W21582  33.957   7.031   0.149
55174W        W21583  27.523   8.337  13.808
55175W        W21584  43.709  21.295   4.073
55176W        W21585  24.032  27.691  11.474
55177W        W21586  24.004  38.919   1.795
55178W        W21587  17.331  15.742  12.466
55179W        W21588  28.846  29.909  12.874
55180W        W21589  11.268  23.175   4.836
55181W        W21590  44.094  44.045   4.231
55182W        W21591  10.602   6.333   2.706
55183W        W21592  23.117  39.702  13.803
55184W        W21593   0.543  26.936  12.401
55185W        W21594  24.065  15.541  14.370
55186W        W21595  43.740  33.901   3.290
55187W        W21596  31.564  14.175  13.334
55188W        W21597  38.885  43.256  11.021
55189W        W21598  15.452  43.225  10.470
55190W        W21599  35.995  17.542  13.930
55191W        W21600  34.452  24.224   2.703
55192W        W21601  42.400  29.681  12.554
55193W        W21602  11.959  12.090  14.931
55194W        W21603  14.114  35.090  12.974
55195W        W21604  13.558  34.666  13.369
55196W        W21605   5.519  36.080  11.950
55197W        W21606  32.521   0.014   4.563
55198W        W21607  25.038  27.541   0.859
55199W        W21608  19.067  15.603  10.889
55200W        W21609  21.084  29.487   2.674
55201W        W21610  34.073  36.121   0.775
55202W        W21611   7.688  41.871   1.306
55203W        W21612   1.554  37.952  13.369
55204W        W21613  21.149   0.461  10.706
55205W        W21614  35.062  11.930  10.569
55206W        W21615  34.954  12.916  10.592
55207W        W21616   3.342  39.096  13.997
55208W        W21617  33.462  33.389  12.678
55209W        W21618  29.427  16.246   1.231
55210W        W21619  15.596  15.328   0.485
55211W        W21620  29.033  19.594  12.025
55212W        W21621  24.006  36.303  10.557
55213W        W21622   5.902  30.840   1.999
55214W        W21623  28.917  43.422  12.413
55215W        W21624  21.428  37.961   3.822
55216W        W21625  29.232  12.221   4.124
55217W        W21626   9.616  35.616   4.223
55218W        W21627   3.674  30.589   1.430
55219W        W21628  30.914   5.318  11.884
55220W        W21629  24.550  29.614   0.538
55221W        W21630  35.067  42.010   2.807
55222W        W21631  25.495  24.047   5.697
55223W        W21632  30.273   5.812   2.766
55224W        W21633  44.208  29.633   3.404
55225W        W21634   3.141  43.467   5.036
55226W        W21635   3.351  10.095  11.277
55227W        W21636  15.873  18.778   3.154
55228W        W21637  32.775   4.759   0.534
55229W        W21638   0.042  18.082  11.064
55230W        W21639  40.134   0.386  12.404
55231W        W21640  30.930  11.216   2.007
55232W        W21641  39.849  28.896  12.146
55233W        W21642  27.158  37.812  12.392
55234W        W21643  11.434  44.994  11.029
55235W        W21644  20.976  25.518  14.508
55236W        W21645  19.078  29.867  13.777
55237W        W21646  29.588  26.928   0.893
55238W        W21647  14.562  17.285  11.165
55239W        W21648  13.202  44.762  14.834
55240W        W21649  12.135  15.313  14.197
55241W        W21650   7.832   8.194  13.466
55242W        W21651  21.011  21.697   3.442
55243W        W21652  22.225  15.354  14.043
55244W        W21653  39.525  20.258  14.770
55245W        W21654  16.160  32.414   0.717
55246W        W21655  32.820   0.464  13.842
55247W        W21656  26.631  38.017   0.934
55248W        W21657  38.575   2.002   1.014
55249W        W21658   5.087  30.126  13.950
55250W        W21659  30.488  19.229   0.291
55251W        W21660  16.443  16.133   4.623
55252W        W21661  14.278  35.180   0.908
55253W        W21662  19.590  14.872  10.801
55254W        W21663  43.261   0.205  12.311
55255W        W21664  37.091  18.290   0.037
55256W        W21665  34.323  37.553  14.877
55257W        W21666  40.477  27.467  11.496
55258W        W21667  28.139  14.027  13.165
55259W        W21668  19.758   2.310  14.293
55260W        W21669  44.760   0.975  12.107
55261W        W21670  34.120  17.608  13.857
55262W        W21671  33.930  39.868   0.363
55263W        W21672  23.297  25.494   1.510
55264W        W21673  41.608  44.268  12.635
55265W        W21674   1.211   5.335  14.342
55266W        W21675  28.647  21.267  14.482
55267W        W21676  42.023  33.334  12.657
55268W        W21677  41.989  38.374   0.871
55269W        W21678  39.079  35.315  14.944
55270W        W21679  31.729   4.892  11.641
55271W        W21680   6.536  15.420  13.965
55272W        W21681  34.588   0.948  13.945
55273W        W21682   3.020  28.394   0.321
55274W        W21683  24.288  19.004   2.843
55275W        W21684  40.323   4.961   3.110
55276W        W21685  21.375  30.586   0.756
55277W        W21686  15.612  11.161   0.744
55278W        W21687   4.912   2.748   1.785
55279W        W21688   7.644  13.599  14.798
55280W        W21689  16.514  13.629  11.976
55281W        W21690  40.406  27.979  13.059
55282W        W21691   8.123  44.335  13.495
55283W        W21692   6.661   0.419   2.043
55284W        W21693  35.657   3.524   1.818
55285W        W21694  21.218   5.751  14.841
55286W        W21695  36.568   8.893   9.870
55287W        W21696   2.189  31.358  14.311
55288W        W21697   8.071  35.776  11.406
55289W        W21698  35.218  17.685   3.469
55290W        W21699  37.396   1.308   3.202
55291W        W21700  36.887  20.609   0.283
55292W        W21701  25.010  35.805  14.289
55293W        W21702  15.636   0.703  10.366
55294W        W21703  36.515   5.669  13.050
55295W        W21704  19.820   7.348  14.428
55296W        W21705  40.572  35.867  12.439
55297W        W21706  31.654  39.060  14.378
55298W        W21707   2.427   0.021  14.561
55299W        W21708  31.000   4.212  11.064
55300W        W21709  24.594   9.222  11.667
55301W        W21710  17.371  29.517   1.463
55302W        W21711  28.051   2.211   1.342
55303W        W21712  11.554  14.055  13.712
55304W        W21713   9.219   9.877   4.997
55305W        W21714  25.040  15.880  11.483
55306W        W21715  34.021   2.021   2.268
55307W        W21716   9.919  43.288  11.496
55308W        W21717   3.870  34.461   0.635
55309W        W21718  26.306  37.488  10.051
55310W        W21719  28.995  42.395   4.583
55311W        W21720  41.854  14.010   4.852
55312W        W21721  27.106   3.161   1.927
55313W        W21722   2.496  35.611   0.782
55314W        W21723  20.138  20.725   2.191
55315W        W21724  13.076  34.399   0.376
55316W        W21725  36.644  34.952   4.477
55317W        W21726  40.162  10.641  11.179
55318W        W21727  13.658   5.346  12.705
55319W        W21728  13.707  20.230  14.514
55320W        W21729  41.790  42.272  13.570
55321W        W21730  23.061  34.067  10.682
55322W        W21731  15.388   8.323   0.840
55323W        W21732  35.536  15.898   2.900
55324W        W21733   4.966  43.239  11.109
55325W        W21734  13.855  15.636  14.048
55326W        W21735  14.769  38.668   1.650
55327W        W21736   2.812  18.271   1.394
55328W        W21737  43.887  36.145   2.608
55329W        W21738  36.749  13.086  11.475
55330W        W21739  24.333   5.183   4.044
55331W        W21740  10.274   9.641   2.208
55332W        W21741  31.116  21.245  11.156
55333W        W21742   3.252  19.458   1.723
55334W        W21743  37.987  28.578   4.545
55335W        W21744  29.297  21.579  13.535
55336W        W21745  41.014  34.500   1.647
55337W        W21746  30.018   0.104   4.908
55338W        W21747  13.320  38.364  14.716
55339W        W21748  37.202  42.288   1.964
55340W        W21749  43.495   5.679  12.464
55341W        W21750  39.405  31.748  14.243
55342W        W21751  28.740  20.316  11.928
55343W        W21752  38.298   8.429   1.893
55344W        W21753  10.931  21.098  11.619
55345W        W21754   4.914  39.635   2.579
55346W        W21755  15.175  37.546   0.804
55347W        W21756  41.039  34.789  14.801
55348W        W21757   5.967   1.677   1.955
55349W        W21758  22.020  18.118  11.268
55350W        W21759   8.459   1.259  12.081
55351W        W21760   6.530  24.527  11.166
55352W        W21761   8.835  33.923  14.554
55353W        W21762   2.801  26.257  11.658
55354W        W21763  28.579  32.147   0.682
55355W        W21764  29.869  25.750  11.172
55356W        W21765  29.699   1.539   4.520
55357W        W21766  14.879  43.899   3.188
55358W        W21767  32.701   1.080   0.251
55359W        W21768  42.939  31.629  10.608
55360W        W21769  33.375  12.811   2.786
55361W        W21770   3.815  42.577  13.278
55362W        W21771  27.697  37.323   4.632
55363W        W21772  34.455   4.642  11.160
55364W        W21773   0.987  17.185  14.337
55365W        W21774  34.601  17.126  14.805
55366W        W21775  30.458  10.800   4.507
55367W        W21776  42.442  12.286  13.487
55368W        W21777  11.096  35.157  13.051
55369W        W21778  10.517   5.001   0.901
55370W        W21779   5.876  28.170  10.382
55371W        W21780   9.691  22.045   1.218
55372W        W21781  35.147  41.740   2.341
55373W        W21782   5.209   7.457  14.468
55374W        W21783   1.531  15.161  14.453
55375W        W21784  19.150  34.795   1.398
55376W        W21785  28.884   1.338   1.463
55377W        W21786  36.043  30.412   0.733
55378W        W21787   4.814   4.347   3.233
55379W        W21788   4.163  25.769  13.471
55380W        W21789  13.710  11.076   4.523
55381W        W21790   3.813  36.838   1.319
55382W        W21791  16.589  43.322  10.375
55383W        W21792   4.679  11.659   1.147
55384W        W21793  34.580  29.419  10.737
55385W        W21794   8.527  42.311   3.589
55386W        W21795  27.878  28.635  11.961
55387W        W21796  37.999  22.961  10.752
55388W        W21797  18.175  10.887  13.490
55389W        W21798   9.160  32.406  14.049
55390W        W21799  14.385   0.406  13.322
55391W        W21800   8.746   9.154   4.834
55392W        W21801  35.100   0.725  13.950
55393W        W21802  23.698   7.872  14.827
55394W        W21803   6.812  15.827   3.258
55395W        W21804   9.665   7.231  11.125
55396W        W21805   0.881   4.784  13.577
55397W        W21806  17.824  37.500   2.787
55398W        W21807  12.050   6.180  14.305
55399W        W21808  13.822  27.860   4.253
55400W        W21809  11.270   9.431  13.461
55401W        W21810  43.269  14.573  14.411
55402W        W21811   1.663  44.201  12.968
55403W        W21812  38.924  31.504  12.867
55404W        W21813  29.008   4.554   0.813
55405W        W21814  33.414  38.341   4.621
55406W        W21815  15.841  21.788  13.056
55407W        W21816  33.456   8.401   2.280
55408W        W21817   0.217  37.856  11.022
55409W        W21818  41.622  36.030  11.112
55410W        W21819  43.384  16.550   3.307
55411W        W21820  37.835  11.744  13.697
55412W        W21821  20.549  40.452  12.002
55413W        W21822  42.873  28.546   4.400
55414W        W21823   0.031  38.249   1.073
55415W        W21824  24.088  10.290   4.044
55416W        W21825  27.523  24.488   4.329
55417W        W21826  16.443  41.230   3.793
55418W        W21827   6.099  16.677  14.425
55419W        W21828   2.637  34.842   5.207
55420W        W21829  13.890   2.655  10.721
55421W        W21830   7.096  41.981   0.075
55422W        W21831  43.526  15.517  10.958
55423W        W21832   9.362   7.828   1.161
55424W        W21833  11.832  23.133  13.069
55425W        W21834   0.250  25.501  13.893
55426W        W21835  44.439  31.623   4.268
55427W        W21836  43.557  14.150  12.888
55428W        W21837  40.410   2.930   4.892
55429W        W21838  29.459  33.959  14.959
55430W        W21839  31.700  23.599   0.972
55431W        W21840  17.775  32.058   1.305
55432W        W21841   7.121  16.249   2.779
55433W        W21842  40.489  10.611   5.323
55434W        W21843  37.562  11.571  12.068
55435W        W21844  15.598  37.267   3.193
55436W        W21845  26.016  30.493   4.283
55437W        W21846  41.523  21.735  11.117
55438W        W21847  36.299   3.235  10.762
55439W        W21848  11.806  10.652  12.333
55440W        W21849   5.447  33.237   4.050
55441W        W21850  31.489  43.968  11.044
55442W        W21851  16.564  24.409   1.695
55443W        W21852  33.318  29.536   1.322
55444W        W21853  22.321  41.525  12.082
55445W        W21854  41.253  35.352   4.050
55446W        W21855  21.700   7.820  11.746
55447W        W21856  10.227  22.477   3.247
55448W        W21857  11.347  17.056   4.332
55449W        W21858  13.572  37.475  11.619
55450W        W21859   7.336  40.950   2.829
55451W        W21860  12.318  31.799   3.801
55452W        W21861  14.271  36.481   4.110
55453W        W21862  24.111  41.734   2.001
55454W        W21863  27.577  37.209  11.978
55455W        W21864  20.253   8.821  11.656
55456W        W21865  33.039   6.837  13.536
55457W        W21866   8.446  43.465  13.643
55458W        W21867  43.268   7.847   1.222
55459W        W21868  35.311  33.599   1.784
55460W        W21869  40.720  26.217  13.434
55461W        W21870   7.309  29.041  14.041
55462W        W21871  28.993   5.741   1.270
55463W        W21872  23.365  27.598  11.984
55464W        W21873  12.246  21.690  13.509
55465W        W21874   5.920   2.606   4.174
55466W        W21875  12.143  31.981   0.768
55467W        W21876   4.662  42.488   1.381
55468W        W21877  36.541  44.587  10.343
55469W        W21878  38.681  36.148  11.904
55470W        W21879  41.038  26.565   0.610
55471W        W21880  30.628  17.301  10.448
55472W        W21881  28.044  35.987  13.186
55473W        W21882  34.024  42.040  13.751
55474W        W21883  26.190  33.880   0.327
55475W        W21884  15.826   4.248  10.673
55476W        W21885  11.773  28.363   4.654
55477W        W21886  15.343   8.872   0.073
55478W        W21887  16.596  22.683   4.999
55479W        W21888  19.734  28.928  11.209
55480W        W21889  24.032   5.921   3.792
55481W        W21890  44.396   8.162   0.688
55482W        W21891  28.615  31.239   0.755
55483W        W21892  33.266  41.904   2.213
55484W        W21893  36.435   5.335  10.906
55485W        W21894  14.069  39.530  11.941
55486W        W21895  22.657   4.798   4.479
55487W        W21896  28.485   6.285  11.830
55488W        W21897  20.968  19.655   4.757
55489W        W21898   7.304  25.424  14.448
55490W        W21899  17.876  15.663  10.354
55491W        W21900  21.557  29.150  11.704
55492W        W21901  20.698  16.228   3.671
55493W        W21902  28.764  20.597   3.629
55494W        W21903  23.089  29.195  11.581
55495W        W21904   3.584  10.625  12.913
55496W        W21905   7.479  14.833  11.555
55497W        W21906   6.714  19.602  12.024
55498W        W21907  35.891  11.846  11.703
55499W        W21908  21.497   9.383  11.716
55500W        W21909   5.389  33.136   0.682
55501W        W21910  12.337   2.465  11.728
55502W        W21911  14.493  14.043   0.369
55503W        W21912  29.031   9.878  14.504
55504W        W21913  42.539  16.623  10.664
55505W        W21914  44.810   4.495   2.637
55506W        W21915  29.146  39.030  11.551
55507W        W21916  29.947  43.208  13.608
55508W        W21917  23.256  18.133  11.492
55509W        W21918  35.017   9.150   4.092
55510W        W21919  24.613  22.935  12.647
55511W        W21920  38.518  39.751  13.919
55512W        W21921  29.757  21.426   2.418
55513W        W21922  19.540  35.346   4.761
55514W        W21923  15.540   8.215  12.508
55515W        W21924  28.471  38.794   3.172
55516W        W21925  28.609   4.295  13.027
55517W        W21926  23.046  42.007   4.698
55518W        W21927  41.260  17.628  12.971
55519W        W21928  41.289   6.287   4.707
55520W        W21929  21.174  21.467  12.996
55521W        W21930   5.017  31.854   0.207
55522W        W21931   4.818  23.197   3.317
55523W        W21932  17.182  26.167  12.217
55524W        W21933  13.879   0.761   3.353
55525W        W21934  12.571  37.021  10.194
55526W        W21935  31.126  12.375  13.907
55527W        W21936  11.184  40.717  10.558
55528W        W21937  19.801  42.574   0.308
55529W        W21938  12.239  23.956   0.066
55530W        W21939  19.756  15.364  10.879
55531W        W21940  18.213  13.608  12.434
55532W        W21941   1.863  27.665   4.299
55533W        W21942  20.551  29.444  14.321
55534W        W21943   9.664  37.466   4.086
55535W        W21944   2.180   3.883  12.550
55536W        W21945  23.116  35.046   4.388
55537W        W21946   7.906  40.180  10.732
55538W        W21947  29.701  24.559   2.303
55539W        W21948  37.306  23.490   3.594
55540W        W21949  13.286  26.979  12.135
55541W        W21950  14.530   5.761  11.981
55542W        W21951  12.610   7.342  11.989
55543W        W21952  36.987  10.920  14.879
55544W        W21953  31.288  43.874  13.896
55545W        W21954   2.469  34.381  14.799
55546W        W21955  38.985  29.968  14.076
55547W        W21956  30.235  11.602  13.891
55548W        W21957  20.746  23.516  12.922
55549W        W21958  41.105   9.242   1.116
55550W        W21959   1.593   3.373   4.569
55551W        W21960  36.466   6.326  10.438
55552W        W21961  23.036  32.529  14.867
55553W        W21962  38.252  27.671  10.742
55554W        W21963  19.490  37.222  11.502
55555W        W21964  16.583   0.130  11.204
55556W        W21965   0.292  26.260   0.246
55557W        W21966  15.182   0.734  12.825
55558W        W21967  14.644  13.375   4.524
55559W        W21968  19.664  23.591   4.522
55560W        W21969  21.327  41.458   0.644
55561W        W21970   2.177  22.448  13.068
55562W        W21971  28.971  11.693  14.608
55563W        W21972  35.481  23.492   1.833
55564W        W21973   5.861   0.955  10.987
55565W        W21974  43.808  32.056   0.273
55566W        W21975  10.428   7.612   1.457
55567W        W21976  38.369  33.084   1.781
55568W        W21977  31.215  23.695  11.736
55569W        W21978  39.969  25.961   2.061
55570W        W21979  10.254  37.574  12.876
55571W        W21980  42.690   9.337  14.478
55572W        W21981   6.103  41.473   0.845
55573W        W21982  14.266  44.817   1.248
55574W        W21983  21.119  12.640  14.055
55575W        W21984   8.395   6.453   2.359
55576W        W21985  34.824  29.446   1.752
55577W        W21986   2.067  14.805  10.452
55578W        W21987  32.472   1.620   3.023
55579W        W21988  12.085   8.150   1.808
55580W        W21989  31.368  14.815   1.745
55581W        W21990   5.510   2.285  10.701
55582W        W21991  18.295  22.523  13.662
55583W        W21992  35.413  37.034   4.807
55584W        W21993  12.654  37.193   0.757
55585W        W21994  34.648   2.238  12.421
55586W        W21995  20.313  42.322  14.221
55587W        W21996   7.073  40.895   3.304
55588W        W21997   2.859  44.858   3.438
55589W        W21998   5.854  10.533   0.566
55590W        W21999   3.987  27.122   2.056
55591W        W22000  14.195  22.690   1.133
55592W        W22001  35.730   1.284   0.947
55593W        W22002  18.056  18.809  13.928
55594W        W22003   0.368  30.021   4.446
55595W        W22004  37.083  10.434  12.499
55596W        W22005  11.645  16.250   4.218
55597W        W22006   2.425  16.986   1.493
55598W        W22007  30.816  40.867   1.139
55599W        W22008  21.549  26.445   4.489
55600W        W22009   0.998  12.584  14.323
55601W        W22010  26.619   5.710  11.552
55602W        W22011  28.560   6.123   4.718
55603W        W22012  32.358  39.000  10.635
55604W        W22013  12.745   2.671  14.857
55605W        W22014  39.861  21.815   4.567
55606W        W22015   2.521   4.775  11.949
55607W        W22016  10.267  31.457   4.464
55608W        W22017   7.087  36.189   0.491
55609W        W22018  12.507  20.240  12.366
55610W        W22019  31.557  44.592  12.764
55611W        W22020   6.339  39.421  13.623
55612W        W22021  26.498  22.335  12.905
55613W        W22022  32.751   2.877  13.828
55614W        W22023   6.361  26.145   4.488
55615W        W22024  41.562   6.193  14.770
55616W        W22025  35.932  26.066   4.555
55617W        W22026   1.770  17.482  12.891
55618W        W22027   6.393  44.794  13.841
55619W        W22028  43.834   6.401  14.420
55620W        W22029   1.248   6.201   4.166
55621W        W22030   5.357  37.552   1.712
55622W        W22031  25.086  16.636  10.796
55623W        W22032  10.684  19.978   3.239
55624W        W22033  26.980  22.605  13.383
55625W        W22034  13.159  40.775   2.421
55626W        W22035  25.007   5.932   1.882
55627W        W22036  25.774  43.022   2.438
55628W        W22037  42.913  18.304  14.010
55629W        W22038  34.861  43.384   2.383
55630W        W22039  35.889   6.346   1.460
55631W        W22040   3.793  40.803   2.604
55632W        W22041  32.429  40.535   1.125
55633W        W22042  42.936  16.215  13.270
55634W        W22043   3.784  18.799   4.517
55635W        W22044  43.150   4.539   4.801
55636W        W22045  31.062  12.812   0.693
55637W        W22046   6.405  34.989  13.259
55638W        W22047  15.145  20.044   2.217
55639W        W22048  13.404   3.502  14.291
55640W        W22049  37.830  33.181  10.752
55641W        W22050  31.682  14.365   1.846
55642W        W22051   2.359   8.430   1.480
55643W        W22052  33.991  41.372  14.150
55644W        W22053  34.013  16.078   0.324
55645W        W22054  17.090  35.291   2.107
55646W        W22055  36.830   0.939  12.594
55647W        W22056  34.390  24.252  12.114
55648W        W22057  22.026   4.704  13.394
55649W        W22058  25.553  14.352   2.057
55650W        W22059  37.909  32.729  11.914
55651W        W22060  29.249  10.302  12.960
55652W        W22061  30.926  29.831   1.282
55653W        W22062  18.666   5.432  12.096
55654W        W22063  15.815  18.186   0.928
55655W        W22064  28.923  17.667   3.214
55656W        W22065  39.335   6.809   2.393
55657W        W22066  31.668  42.954   4.176
55658W        W22067   9.359  42.088   2.628
55659W        W22068   9.434  18.587   4.124
55660W        W22069  27.404  18.498   2.255
55661W        W22070   5.728   0.013   0.832
55662W        W22071  35.225   0.401  11.919
55663W        W22072  22.209  15.079   0.329
55664W        W22073  36.874  14.801  11.078
55665W        W22074   8.126  14.768   2.225
55666W        W22075   7.088  12.668  14.021
55667W        W22076  13.073  30.043  13.722
55668W        W22077  35.560  34.968  13.274
55669W        W22078  32.434  23.209  12.637
55670W        W22079   7.896  26.019   2.702
55671W        W22080  33.549  40.463   0.696
55672W        W22081  31.110  14.518   4.472
55673W        W22082   5.853  31.573  13.755
55674W        W22083  44.442   3.172  13.245
55675W        W22084  42.926  35.891   2.592
55676W        W22085   2.711  38.527   3.176
55677W        W22086   8.539  11.400  13.613
55678W        W22087  36.390  25.217  10.582
55679W        W22088  41.175   3.690   3.320
55680W        W22089  40.297  31.588  12.111
55681W        W22090  16.524  34.468   2.284
55682W        W22091  42.225   2.911   4.261
55683W        W22092   9.964  31.862   4.593
55684W        W22093  38.525  15.577   1.909
55685W        W22094  23.024  36.893  11.586
55686W        W22095  11.287  23.955   2.165
55687W        W22096  27.223  17.647   1.478
55688W        W22097  17.646  26.213   0.967
55689W        W22098  35.139  37.802  14.817
55690W        W22099  31.544  30.565   0.953
55691W        W22100  21.559  26.265   2.767
55692W        W22101   8.454  42.104   3.114
55693W        W22102  39.481  30.068  13.937
55694W        W22103   0.466  32.369  11.505
55695W        W22104  21.026  26.999   0.827
55696W        W22105   9.282  21.065   3.070
55697W        W22106   5.359  31.650  11.521
55698W        W22107  21.051   0.214   1.224
55699W        W22108  35.306  12.353   3.781
55700W        W22109  36.422  39.102   0.676
55701W        W22110   9.243  25.574   9.949
55702W        W22111   4.200  38.031   4.487
55703W        W22112  36.380  33.351   2.381
55704W        W22113  37.490  33.842   4.714
55705W        W22114  28.678  31.503  13.051
55706W        W22115  36.312  23.522  11.551
55707W        W22116   1.223  41.397  11.632
55708W        W22117  42.463  38.931  14.598
55709W        W22118  24.692  41.838  11.621
55710W        W22119  22.665   6.852   1.898
55711W        W22120  39.910   8.753  11.097
55712W        W22121  25.999  44.395  14.013
55713W        W22122  10.696  31.407   3.204
55714W        W22123  16.199  26.771   5.142
55715W        W22124  40.955  30.395  10.956
55716W        W22125  23.627  42.050   1.311
55717W        W22126  16.741  15.016  11.989
55718W        W22127  41.584  12.350   2.656
55719W        W22128  37.682  22.057   2.763
55720W        W22129  36.510  11.699   2.471
55721W        W22130  32.848  19.656  13.436
55722W        W22131  13.691  36.495  13.418
55723W        W22132  37.592  22.805   1.374
55724W        W22133   2.852  32.086  13.976
55725W        W22134  16.571  11.480  14.898
55726W        W22135  12.796   3.465   1.820
55727W        W22136  39.354  36.816   1.826
55728W        W22137  44.956  22.627  13.117
55729W        W22138  41.496  30.889  13.074
55730W        W22139   8.835  41.417   1.765
55731W        W22140  10.322  34.351  12.441
55732W        W22141  29.622  23.101  14.771
55733W        W22142  39.773  33.192  13.878
55734W        W22143   7.403  30.280  12.146
55735W        W22144  10.686   5.628   1.316
55736W        W22145  44.557  18.052   4.162
55737W        W22146  26.567  11.396  12.603
55738W        W22147  24.769   3.834   1.737
55739W        W22148  23.699  37.262  12.925
55740W        W22149   0.879   5.825   1.693
55741W        W22150  44.299  42.928   2.894
55742W        W22151  12.925  16.114  11.055
55743W        W22152  12.224  28.183   3.147
55744W        W22153  20.592  43.084  11.162
55745W        W22154  20.258  16.867   2.322
55746W        W22155  10.439   4.910  12.807
55747W        W22156  40.020  15.231   4.841
55748W        W22157  10.759  36.713  10.113
55749W        W22158  28.854  34.028   3.521
55750W        W22159  43.636  33.557  10.676
55751W        W22160  23.648  16.640   3.774
55752W        W22161   5.811  37.352  13.340
55753W        W22162   7.473  10.106   4.200
55754W        W22163  39.860   9.718   0.200
55755W        W22164  13.743  24.200   3.383
55756W        W22165  21.527  34.958   1.709
55757W        W22166   2.172  25.889  11.242
55758W        W22167  35.834  21.132   2.224
55759W        W22168  30.862  39.517   0.788
55760W        W22169   6.105  32.005  12.254
55761W        W22170   1.676  30.639   1.528
55762W        W22171  18.062  18.627  11.892
55763W        W22172   7.245  27.713   2.829
55764W        W22173   2.499  29.342  10.789
55765W        W22174  36.118  35.706  13.541
55766W        W22175   1.986  23.954   0.401
55767W        W22176  24.849  16.673  13.384
55768W        W22177  17.348  43.883  12.437
55769W        W22178   4.723  13.606  11.606
55770W        W22179  35.015   2.223  13.088
55771W        W22180  31.789  43.992  14.002
55772W        W22181  18.535  42.415   0.682
55773W        W22182  28.508   0.198   3.639
55774W        W22183  27.707  19.662  12.432
55775W        W22184  13.678  37.073  13.370
55776W        W22185  44.296  28.790   3.259
55777W        W22186  43.390   9.950   4.524
55778W        W22187  13.086  11.586   1.733
55779W        W22188   5.156  44.529   4.064
55780W        W22189  38.264   6.798   0.009
55781W        W22190  14.929  15.266   4.367
55782W        W22191  15.276  35.413  12.708
55783W        W22192  40.578  37.938  10.645
55784W        W22193  44.486  22.213  12.485
55785W        W22194  32.340  44.088   0.384
55786W        W22195  38.275  27.777  14.306
55787W        W22196  31.001   3.881   2.221
55788W        W22197  25.805   6.209  12.354
55789W        W22198   3.856  29.918  11.956
55790W        W22199  30.202  19.703   3.807
55791W        W22200  28.947  32.118  12.081
55792W        W22201  15.691  37.875  14.136
55793W        W22202  24.435  26.546   3.394
55794W        W22203  33.898  35.092   4.216
55795W        W22204  39.867   9.292  11.198
55796W        W22205  30.671  42.009  14.736
55797W        W22206  35.421   7.358  12.423
55798W        W22207  24.476   2.014  10.698
55799W        W22208   5.955  28.193   2.790
55800W        W22209  17.089   2.764   2.891
55801W        W22210  43.079  39.548   1.353
55802W        W22211  15.626  27.387   4.640
55803W        W22212  38.088  14.686   1.204
55804W        W22213  23.312  28.735  12.536
55805W        W22214  15.507  27.810  10.208
55806W        W22215  32.932  27.747  11.021
55807W        W22216  38.598   2.741  12.600
55808W        W22217  23.919  17.578  10.758
55809W        W22218  41.274  20.437  14.549
55810W        W22219   9.220  32.130  11.916
55811W        W22220  43.258  24.565  11.161
55812W        W22221  39.810  27.649   4.648
55813W        W22222  11.594  10.377  13.720
55814W        W22223  38.885  21.673  11.138
55815W        W22224  38.658  36.331  13.542
55816W        W22225  24.557  24.196   4.055
55817W        W22226  12.198  43.208   2.213
55818W        W22227  42.152  41.350   4.877
55819W        W22228  10.184  38.961  10.591
55820W        W22229  40.753  40.506  14.440
55821W        W22230  16.655   5.324  11.864
55822W        W22231  10.776  20.332   3.663
55823W        W22232  42.473  34.079  14.982
55824W        W22233  30.312   3.115   2.258
55825W        W22234  15.197  38.046  11.263
55826W        W22235  38.256  33.541   2.769
55827W        W22236  23.149  40.529   3.877
55828W        W22237  36.355   9.711  13.027
55829W        W22238  37.061  37.146   4.626
55830W        W22239   1.122   0.958   2.144
55831W        W22240  10.262  23.347   4.492
55832W        W22241   1.406   2.012   4.030
55833W        W22242  11.943  26.619  13.942
55834W        W22243  21.255  38.823  13.246
55835W        W22244  39.283  17.758   3.839
55836W        W22245  10.773   0.351  14.143
55837W        W22246  39.115   3.977  12.413
55838W        W22247   2.725  17.702  11.849
55839W        W22248  34.194  34.668   4.163
55840W        W22249  35.281  37.585   3.805
55841W        W22250   9.683  19.299   4.650
55842W        W22251  44.913  17.910   3.229
55843W        W22252  44.242   2.808  10.258
55844W        W22253  10.793  39.465   1.946
55845W        W22254  15.687  34.873   4.087
55846W        W22255   7.330  15.844   3.754
55847W        W22256  14.320  28.460   4.845
55848W        W22257  21.217   9.999  12.452
55849W        W22258  11.641  22.074   3.577
55850W        W22259  26.770   7.417   2.445
55851W        W22260  43.083   9.214  11.226
55852W        W22261   9.939  11.753   1.921
55853W        W22262  26.985  23.750  11.187
55854W        W22263  35.055  23.456  11.153
55855W        W22264   3.983  10.367  13.403
55856W        W22265  12.864  28.737  11.213
55857W        W22266  43.505  39.935   0.686
55858W        W22267   0.439   0.017  14.535
55859W        W22268  31.177  39.252   1.600
55860W        W22269   9.477  25.121   2.734
55861W        W22270   8.411  19.177  12.308
55862W        W22271  37.062  11.894  10.682
55863W        W22272  13.883   8.156  14.959
55864W        W22273  33.399  17.125  13.421
55865W        W22274  30.262  41.264  11.290
55866W        W22275  12.330   1.881  14.879
55867W        W22276  42.995  11.065   2.738
55868W        W22277  28.687   4.296  12.113
55869W        W22278  22.677  34.255   0.994
55870W        W22279  29.329   4.240  10.319
55871W        W22280  37.370  43.131  13.716
55872W        W22281  37.517  41.557  10.540
55873W        W22282   4.447   9.383   1.816
55874W        W22283  21.464   9.815   2.259
55875W        W22284   0.377  19.115  14.044
55876W        W22285  28.426  19.777  11.385
55877W        W22286  32.730   1.439  10.140
55878W        W22287  33.593  40.136  12.791
55879W        W22288  34.785  13.045  14.881
55880W        W22289  29.691   9.866  14.266
55881W        W22290   5.768  21.450   2.342
55882W        W22291   5.327  29.101  13.326
55883W        W22292  36.880  18.389   0.516
55884W        W22293  41.700  30.029  14.344
55885W        W22294  13.532  27.069  11.418
55886W        W22295  15.125  24.872   1.395
55887W        W22296  10.926   9.269  14.022
55888W        W22297   4.927  27.661  11.393
55889W        W22298  21.093   3.231  12.430
55890W        W22299  25.607  32.310   2.614
55891W        W22300  18.127  34.210   3.041
55892W        W22301  31.022  29.415  10.760
55893W        W22302  18.738   1.018  12.487
55894W        W22303  31.963  36.952  12.104
55895W        W22304  31.124  25.934   0.064
55896W        W22305  28.298  21.211   0.329
55897W        W22306   0.798  30.109   0.338
55898W        W22307  19.490  29.710  11.841
55899W        W22308   3.188  36.952   1.339
55900W        W22309  25.472  20.294  14.492
55901W        W22310  23.463  31.587  12.060
55902W        W22311  21.639  26.032  14.254
55903W        W22312  44.374  11.697  13.601
55904W        W22313   8.169   9.816   2.831
55905W        W22314  42.876  32.407  13.137
55906W        W22315   8.638  12.837   1.414
55907W        W22316   7.162  22.981  13.280
55908W        W22317   3.420  21.229   2.899
55909W        W22318  44.538  11.336  11.848
55910W        W22319  11.582  17.646  13.581
55911W        W22320  36.776   6.747  10.707
55912W        W22321   2.693  23.622  10.113
55913W        W22322  39.562  12.628   0.046
55914W        W22323  39.019  14.612  14.843
55915W        W22324  21.620  28.450   0.310
55916W        W22325  17.226  29.860  13.900
55917W        W22326  33.241   6.264  12.522
55918W        W22327  33.861   8.176   4.810
55919W        W22328  10.437  21.542   4.233
55920W        W22329  26.837   3.661  13.822
55921W        W22330  35.792  11.630  11.177
55922W        W22331   7.661  25.539   2.889
55923W        W22332  15.361  19.788   1.402
55924W        W22333  44.321  14.529  13.428
55925W        W22334  40.905  28.176   2.739
55926W        W22335   7.172  42.563   3.656
55927W        W22336  19.492  38.359  10.653
55928W        W22337  19.345   5.767   4.655
55929W        W22338  23.744  37.476  12.451
55930W        W22339  10.015  12.410  11.172
55931W        W22340  12.333  37.977  11.715
55932W        W22341  36.960  41.037  14.849
55933W        W22342  15.219  19.530  12.056
55934W        W22343   0.320  23.276  12.200
55935W        W22344   9.144  18.607  12.579
55936W        W22345  10.816   1.637   3.567
55937W        W22346   0.237  15.884   3.678
55938W        W22347  13.113  23.940  11.607
55939W        W22348  19.084  31.835  12.020
55940W        W22349   9.893   7.853   3.402
55941W        W22350  27.644  32.294  12.209
55942W        W22351  17.016   7.007   2.281
55943W        W22352  37.698  44.504   2.276
55944W        W22353  22.754  31.552   3.484
55945W        W22354   7.174  14.177  13.997
55946W        W22355  14.555  24.190   0.296
55947W        W22356  13.555   5.302  14.068
55948W        W22357  21.176   3.383  12.920
55949W        W22358   7.200  33.394   1.211
55950W        W22359   5.857  22.049  14.103
55951W        W22360  11.349  28.067   2.844
55952W        W22361  37.348   9.215   0.344
55953W        W22362  34.444   9.902   3.266
55954W        W22363  44.399   1.227   3.234
55955W        W22364  35.325  20.183   3.334
55956W        W22365  36.489  12.371   3.663
55957W        W22366  40.599  12.936  11.172
55958W        W22367  36.436   2.483   0.549
55959W        W22368  19.232  28.578  13.143
55960W        W22369  38.830  11.734  10.778
55961W        W22370   2.190  11.868   4.679
55962W        W22371  36.856  19.718  13.530
55963W        W22372  39.100  37.293   1.742
55964W        W22373  30.886  15.120  10.738
55965W        W22374  29.706  42.302  12.859
55966W        W22375  25.461  11.824   0.845
55967W        W22376  23.066   9.198   2.195
55968W        W22377  44.459  23.692   0.375
55969W        W22378   1.063  42.375  12.626
55970W        W22379   3.000  36.444   2.328
55971W        W22380  21.494  23.211   0.446
55972W        W22381   3.812  38.781  14.000
55973W        W22382  42.351   9.386   2.168
55974W        W22383  19.871  29.408  11.976
55975W        W22384  17.670   7.659   2.673
55976W        W22385  19.972  18.204  14.040
55977W        W22386   6.092  10.376   3.242
55978W        W22387  27.409  26.625   3.542
55979W        W22388  27.089  19.245   4.150
55980W        W22389  21.516  18.979  14.545
55981W        W22390  32.956  27.018   4.350
55982W        W22391  22.927  32.666   2.791
55983W        W22392  16.865   6.317   2.914
55984W        W22393  37.082  36.027  13.756
55985W        W22394  24.220  18.502   2.968
55986W        W22395  30.118  44.059  14.580
55987W        W22396  24.947  21.031  10.792
55988W        W22397   2.937  23.634   2.194
55989W        W22398  14.282  30.566   0.862
55990W        W22399  24.279  41.249   1.884
55991W        W22400   8.917   3.260  11.075
55992W        W22401  44.141  27.159  13.313
55993W        W22402  31.627  10.137  13.618
55994W        W22403  35.763  39.892   2.750
55995W        W22404  36.582  39.549  12.546
55996W        W22405   6.848   4.254  13.995
55997W        W22406  34.659  37.593  12.117
55998W        W22407  37.801  16.946  13.072
55999W        W22408  37.867  31.974  12.470
56000W        W22409  31.559  21.824  13.478
56001W        W22410   3.500  32.140   4.550
56002W        W22411   5.473   6.287  11.464
56003W        W22412  30.609  18.118  14.017
56004W        W22413  33.765  25.612   2.531
56005W        W22414   3.471  41.246   2.591
56006W        W22415   2.794  32.538  11.119
56007W        W22416  30.551  42.920  12.881
56008W        W22417  19.499   8.244  13.417
56009W        W22418  41.591  42.574   4.706
56010W        W22419  26.234  35.998   0.333
56011W        W22420  24.194  12.230   3.893
56012W        W22421   7.425   7.280   2.674
56013W        W22422  38.669  22.059   1.750
56014W        W22423  29.153   0.912   4.074
56015W        W22424   4.134   3.954   2.660
56016W        W22425   9.404  26.663  10.610
56017W        W22426  38.105   3.720  13.467
56018W        W22427  37.555  17.427  13.060
56019W        W22428  30.983   5.306   2.837
56020W        W22429   8.868  20.113   2.825
56021W        W22430  44.976  40.986   0.498
56022W        W22431  24.432  20.588   0.974
56023W        W22432  33.605   0.922   1.740
56024W        W22433  42.312  35.591  11.704
56025W        W22434  21.804  37.927  13.843
56026W        W22435   1.178  19.137   1.653
56027W        W22436  25.641   5.741   4.042
56028W        W22437  17.186  28.471  12.307
56029W        W22438   7.951  39.046  12.175
56030W        W22439   8.902   5.280   0.024
56031W        W22440   9.199  15.326   2.685
56032W        W22441  21.650  27.990  13.540
56033W        W22442   7.744  21.826  11.049
56034W        W22443  21.706   8.430  11.956
56035W        W22444   1.734  33.488  13.995
56036W        W22445  43.535   0.266   4.036
56037W        W22446  18.231  11.680  12.829
56038W        W22447  15.200  30.747   4.218
56039W        W22448  39.794  22.728   3.268
56040W        W22449   4.828  13.599   2.144
56041W        W22450  37.300  29.096   2.945
56042W        W22451  40.850   5.920  12.604
56043W        W22452  13.388  23.650   1.833
56044W        W22453  11.398  42.432  10.945
56045W        W22454  36.968   1.026   3.313
56046W        W22455  16.410   5.466   0.022
56047W        W22456   0.761   0.924   0.826
56048W        W22457  35.989  36.729  13.434
56049W        W22458   5.058  42.797   4.273
56050W        W22459   4.877  31.750   4.553
56051W        W22460  18.435  41.446   0.717
56052W        W22461  19.506  15.173   3.697
56053W        W22462  29.644  42.418   1.408
56054W        W22463  32.133  38.311  13.809
56055W        W22464  43.919  14.734  12.475
56056W        W22465  11.807  28.908   2.450
56057W        W22466  28.890  36.065   2.572
56058W        W22467  10.020  29.997   1.299
56059W        W22468   2.944  26.457   2.765
56060W        W22469  38.045  31.542   3.709
56061W        W22470  25.037  18.394  11.057
56062W        W22471  10.855  34.155  14.731
56063W        W22472   2.442  37.863  11.206
56064W        W22473  44.757  24.469  10.885
56065W        W22474  23.492  38.653   2.773
56066W        W22475  31.918  28.446   1.617
56067W        W22476  34.493  20.517   1.996
56068W        W22477  16.323  21.057   0.042
56069W        W22478  38.545  29.523   3.650
56070W        W22479  24.524   3.918   1.292
56071W        W22480   3.753   5.876  11.636
56072W        W22481  33.873  27.188  13.517
56073W        W22482  15.139  37.495  10.913
56074W        W22483  20.247  31.035  14.453
56075W        W22484  16.128   8.297   1.152
56076W        W22485  13.880  21.721  11.646
56077W        W22486  27.480  21.119  11.657
56078W        W22487   7.560   9.100  12.437
56079W        W22488   8.220  23.038  14.701
56080W        W22489  28.265   8.102   2.278
56081W        W22490   0.884  34.026  13.913
56082W        W22491  41.429   1.817   4.129
56083W        W22492  27.730  38.927  11.950
56084W        W22493  10.386   4.559  11.621
56085W        W22494  11.609  44.715  14.404
56086W        W22495   1.386  42.068  14.368
56087W        W22496   4.332  14.956  13.770
56088W        W22497  14.133   1.405  12.902
56089W        W22498  12.262   5.233  10.643
56090W        W22499   9.634  32.981  13.453
56091W        W22500  31.258   2.071   4.183
56092W        W22501   0.932  27.468  10.959
56093W        W22502   4.202  19.948   0.935
56094W        W22503  11.632   4.879   0.446
56095W        W22504  12.833  14.939   0.685
56096W        W22505  27.519  11.389   3.395
56097W        W22506  39.106  39.187  12.116
56098W        W22507  25.051  23.587   2.224
56099W        W22508  25.967   5.701  11.421
56100W        W22509   6.487  34.525   3.604
56101W        W22510   7.990  37.390  12.844
56102W        W22511  16.049  44.233   0.659
56103W        W22512   6.348   8.417   0.606
56104W        W22513  36.811  17.186   4.556
56105W        W22514  21.231  10.625   3.728
56106W        W22515  16.536  24.883  14.802
56107W        W22516   1.379  38.716  13.108
56108W        W22517  14.285  20.044  10.208
56109W        W22518  32.626  11.125  12.988
56110W        W22519  23.695   6.275  14.719
56111W        W22520  36.474  30.549   1.869
56112W        W22521  34.023  28.415  13.599
56113W        W22522  17.657   8.161   2.614
56114W        W22523  40.493  26.799   2.824
56115W        W22524   9.443  16.950  12.545
56116W        W22525  39.404  34.522   0.974
56117W        W22526   4.927  12.698  10.756
56118W        W22527  39.512  35.874  14.807
56119W        W22528  34.869  30.627  14.780
56120W        W22529  18.277  44.301  12.550
56121W        W22530  16.389  13.788   1.311
56122W        W22531  24.737  36.975  14.986
56123W        W22532  17.654  38.004  13.427
56124W        W22533  27.132  16.019   3.678
56125W        W22534  32.524  37.333  12.521
56126W        W22535  35.139  36.881  11.648
56127W        W22536  22.469  12.245  14.398
56128W        W22537  20.481  27.892  10.767
56129W        W22538  18.127   3.866   0.630
56130W        W22539   3.776  38.312   4.719
56131W        W22540  15.628   0.454  11.393
56132W        W22541  41.907   3.927  12.432
56133W        W22542   6.390  10.440  11.091
56134W        W22543  43.096  15.073   3.222
56135W        W22544  29.639  35.864   4.488
56136W        W22545  27.411  41.453  11.371
56137W        W22546  25.358  17.335  12.417
56138W        W22547  32.087  44.744   3.232
56139W        W22548  42.389  11.358  13.470
56140W        W22549  10.929  31.439  12.211
56141W        W22550  11.479  43.561   3.219
56142W        W22551  10.174  19.202  12.096
56143W        W22552  10.506  14.310  11.308
56144W        W22553  23.188  27.891  14.364
56145W        W22554  36.576   5.761   1.428
56146W        W22555   9.926  31.148   0.897
56147W        W22556  38.404   7.715   4.651
56148W        W22557  26.058  33.122   2.383
56149W        W22558  22.759  12.783   1.382
56150W        W22559   9.678  43.282  12.888
56151W        W22560  21.591  37.464  10.658
56152W        W22561  21.112  43.027  12.520
56153W        W22562  34.364  41.027  12.429
56154W        W22563  43.496  17.524   1.342
56155W        W22564  23.979  27.524   0.058
56156W        W22565  42.802  34.896   4.166
56157W        W22566  15.156  28.713  12.487
56158W        W22567  25.893   6.599  14.699
56159W        W22568  28.427  13.328   0.552
56160W        W22569   0.493  18.786   3.749
56161W        W22570  30.134   5.492  14.037
56162W        W22571  29.483  36.983   1.371
56163W        W22572  15.786  19.343   2.666
56164W        W22573  42.064   2.855  13.974
56165W        W22574  34.585  18.184  14.340
56166W        W22575  31.948  28.843  12.573
56167W        W22576  30.672  22.290  12.536
56168W        W22577  27.716  22.832   1.953
56169W        W22578  16.300  39.940   3.614
56170W        W22579  41.213  15.141  14.748
56171W        W22580  33.201  41.122  11.125
56172W        W22581  26.928  23.067   1.887
56173W        W22582   4.475  22.021   2.206
56174W        W22583   9.682  26.229  10.678
56175W        W22584   0.474  35.011  14.130
56176W        W22585  17.193  15.074   4.730
56177W        W22586  28.055   6.210  13.663
56178W        W22587  35.104  19.153  13.946
56179W        W22588  24.473   2.528  10.559
56180W        W22589   7.463  20.628   0.745
56181W        W22590  34.128   8.709  14.361
56182W        W22591  34.419  40.384   4.155
56183W        W22592  29.413  34.944   0.670
56184W        W22593  23.080   4.275  10.424
56185W        W22594  34.337  24.259  13.892
56186W        W22595   5.602  26.532   3.353
56187W        W22596   1.375  40.475  13.439
56188W        W22597  27.036   5.394  11.482
56189W        W22598  24.045   9.130  10.709
56190W        W22599   3.878   1.494   2.673
56191W        W22600   8.319  23.650   4.712
56192W        W22601  44.723  33.728  11.732
56193W        W22602  40.530   6.506  10.706
56194W        W22603  23.289  22.047   4.010
56195W        W22604  18.267  25.639   0.326
56196W        W22605  24.208  38.362   3.242
56197W        W22606  32.710  34.464  13.888
56198W        W22607  19.076  13.142  14.277
56199W        W22608  19.644  17.112  13.013
56200W        W22609  33.895   0.262   2.804
56201W        W22610  37.264  35.446  12.461
56202W        W22611  34.786  29.121  11.660
56203W        W22612  22.289   2.765   0.934
56204W        W22613  42.992  14.583   4.035
56205W        W22614   4.987  36.581   2.882
56206W        W22615  44.297  33.611  12.670
56207W        W22616  34.310  10.406   3.207
56208W        W22617  27.273  31.556   3.628
56209W        W22618   5.728  28.967   2.870
56210W        W22619  16.755  14.075  12.817
56211W        W22620  24.722   1.955  12.474
56212W        W22621  24.149  11.456   9.985
56213W        W22622   2.396  30.499   3.615
56214W        W22623   8.635   9.384  10.651
56215W        W22624  20.361  29.003   0.799
56216W        W22625   4.654   0.666   4.559
56217W        W22626   7.992  21.691   2.213
56218W        W22627   7.132  41.039  10.905
56219W        W22628  35.304  44.333  13.363
56220W        W22629  18.138  40.548   3.594
56221W        W22630   6.253  33.132  12.571
56222W        W22631   5.147  12.921  12.070
56223W        W22632  15.873  44.991  11.501
56224W        W22633  36.421  33.891   1.430
56225W        W22634  43.408  39.646  12.689
56226W        W22635  29.632  11.641   1.693
56227W        W22636  30.198  26.117  13.087
56228W        W22637  16.469  42.999   2.446
56229W        W22638   0.370   3.850   3.535
56230W        W22639  38.817  44.252  14.721
56231W        W22640  12.366   4.362   1.355
56232W        W22641  38.743  21.111   1.959
56233W        W22642  44.482  27.060  12.352
56234W        W22643  36.110  12.552   4.477
56235W        W22644   1.909  21.798  11.040
56236W        W22645  40.202  30.208  14.494
56237W        W22646  35.842  13.342   4.819
56238W        W22647  23.954   4.024  14.770
56239W        W22648  11.621   7.415  13.495
56240W        W22649   2.983  26.736  14.299
56241W        W22650  28.570  15.921  10.157
56242W        W22651  31.682  32.594  12.651
56243W        W22652  12.698  15.838  14.247
56244W        W22653  34.214   2.910   0.820
56245W        W22654  36.373  28.678   0.406
56246W        W22655  29.486  44.062   3.230
56247W        W22656  12.364  16.268   1.433
56248W        W22657  16.203  36.641   1.764
56249W        W22658  31.140  21.668   0.685
56250W        W22659   1.532  25.693   4.243
56251W        W22660   2.899  34.499  13.169
56252W        W22661  12.132  17.033  12.403
56253W        W22662  27.692  20.575   4.448
56254W        W22663   1.691  18.190  14.616
56255W        W22664  27.170  32.483  12.153
56256W        W22665   2.087   5.906   4.473
56257W        W22666  32.182   8.520  13.510
56258W        W22667  27.878  19.217   1.907
56259W        W22668  14.169  43.441  14.483
56260W        W22669  25.110  17.148  10.701
56261W        W22670  27.540  20.168   0.173
56262W        W22671  14.538   8.641  11.223
56263W        W22672   9.640  30.373  14.455
56264W        W22673  40.656  14.156   0.132
56265W        W22674  25.719  10.275   3.345
56266W        W22675  39.498   0.563   0.875
56267W        W22676  20.264  14.129   3.762
56268W        W22677  34.543   1.958   4.166
56269W        W22678  31.134  35.647   3.116
56270W        W22679  24.681  33.459  13.185
56271W        W22680  20.559  14.405  14.835
56272W        W22681  25.513  26.784   2.781
56273W        W22682  36.258  11.130   3.046
56274W        W22683  30.254  11.727  14.739
56275W        W22684  11.394  23.676  14.031
56276W        W22685  19.324  26.425   2.167
56277W        W22686  40.572  33.666   3.591
56278W        W22687  31.302  28.169   2.901
56279W        W22688  11.072   6.524   4.987
56280W        W22689  19.625  28.600   2.365
56281W        W22690   4.924   3.011  13.820
56282W        W22691  40.334  11.618  11.500
56283W        W22692  32.839  29.965  14.912
56284W        W22693  37.882   5.809   0.550
56285W        W22694  25.143  44.192   2.455
56286W        W22695  22.828  15.438   5.076
56287W        W22696  28.759  15.235  11.629
56288W        W22697  25.468  35.975  13.452
56289W        W22698   8.221  12.281  12.598
56290W        W22699  31.020  38.437   3.657
56291W        W22700  39.065  25.254   2.788
56292W        W22701   5.018   6.825   0.090
56293W        W22702  32.575  16.705  13.234
56294W        W22703  18.591  33.489  14.437
56295W        W22704  17.291  41.541  13.637
56296W        W22705   0.908  18.219  12.872
56297W        W22706  11.854   1.861   5.296
56298W        W22707  16.265  17.628  11.606
56299W        W22708   6.132   9.233  11.458
56300W        W22709  18.108  25.514  13.994
56301W        W22710  33.553  14.046   0.607
56302W        W22711  14.859   3.183   3.851
56303W        W22712  27.632  16.898   3.703
56304W        W22713  34.346  24.459   0.827
56305W        W22714   4.220   4.779  14.794
56306W        W22715  20.988  16.046   1.813
56307W        W22716  17.310   0.573   2.249
56308W        W22717   2.671  21.195  14.752
56309W        W22718   5.770  44.512  13.161
56310W        W22719  25.534   9.844   3.535
56311W        W22720  40.201  13.296  13.945
56312W        W22721  38.459  42.105  11.567
56313W        W22722   4.238  20.719  10.758
56314W        W22723  20.239  24.188   1.014
56315W        W22724  34.799  10.639   1.970
56316W        W22725  10.397   4.178  10.758
56317W        W22726  15.110  23.214  13.475
56318W        W22727   2.238  11.167  10.717
56319W        W22728  40.555  36.570  11.579
56320W        W22729  24.475  39.934   2.811
56321W        W22730   2.761  42.846   0.512
56322W        W22731  19.185  25.218   5.034
56323W        W22732  39.796   8.444  11.549
56324W        W22733   0.866  40.300  14.481
56325W        W22734  33.902  39.347  12.408
56326W        W22735  33.884   1.221   3.734
56327W        W22736  17.241  16.852   3.807
56328W        W22737   5.192   5.980  11.858
56329W        W22738  37.049   3.629  10.951
56330W        W22739   3.636   7.030  12.280
56331W        W22740  22.982  40.360   4.355
56332W        W22741  32.624   2.362   4.301
56333W        W22742   4.961  37.371  11.504
56334W        W22743  41.041  25.266   3.719
56335W        W22744  19.137  16.543   3.668
56336W        W22745  12.132  43.636   5.043
56337W        W22746  29.683   0.274  11.982
56338W        W22747  28.581  27.666   4.430
56339W        W22748  36.566  11.191   2.624
56340W        W22749  24.602  20.261   5.062
56341W        W22750  44.372  17.059  10.677
56342W        W22751  28.076   6.032  13.166
56343W        W22752   5.010  36.582   1.647
56344W        W22753  29.532  33.123   4.998
56345W        W22754  43.676  29.948   0.310
56346W        W22755  40.465  30.662   0.254
56347W        W22756  26.530  15.544  12.095
56348W        W22757   4.910  24.047  12.440
56349W        W22758  36.580  29.794  12.426
56350W        W22759  31.188   0.788   4.262
56351W        W22760   4.360   8.272   3.353
56352W        W22761  17.742  11.890  12.835
56353W        W22762  26.649  21.688  12.988
56354W        W22763   2.863  17.237   1.373
56355W        W22764  22.656   0.539  14.004
56356W        W22765  16.134  21.496   3.573
56357W        W22766   7.539  31.082   1.379
56358W        W22767  19.764  40.034  13.334
56359W        W22768  23.686   3.908   0.222
56360W        W22769  25.553   2.960   1.886
56361W        W22770   1.233  14.631   2.940
56362W        W22771  10.126  38.430  14.746
56363W        W22772  32.942  19.554   2.688
56364W        W22773   5.280  42.469   0.323
56365W        W22774  28.875  19.022  14.649
56366W        W22775   0.237  11.622   0.775
56367W        W22776  40.674  38.941  13.666
56368W        W22777   5.255   2.370  13.884
56369W        W22778  40.093  24.976   2.634
56370W        W22779  24.762  20.481   2.888
56371W        W22780  18.044  44.815  14.739
56372W        W22781  21.424  12.599   0.915
56373W        W22782  14.918  26.134  10.717
56374W        W22783  37.593   9.124   2.608
56375W        W22784  16.065  27.071   3.625
56376W        W22785  29.175  12.807   0.382
56377W        W22786  32.072  26.431   0.911
56378W        W22787  38.910  21.167   1.456
56379W        W22788  34.596  10.156   2.834
56380W        W22789  23.775  16.525   2.281
56381W        W22790  44.315  33.991   2.367
56382W        W22791   0.414  39.460   2.510
56383W        W22792   6.217   0.762   4.193
56384W        W22793  10.738  39.232   1.474
56385W        W22794   0.737  39.468  14.920
56386W        W22795  22.318  34.616   3.112
56387W        W22796  15.362  41.629   1.403
56388W        W22797  26.707  28.039  12.792
56389W        W22798  39.086  34.898  10.735
56390W        W22799  18.185   5.785  10.915
56391W        W22800  31.389  32.654   1.653
56392W        W22801  34.936   0.798   1.438
56393W        W22802   7.764  34.067  12.578
56394W        W22803  44.672   2.244  11.222
56395W        W22804   3.480  20.603  13.484
56396W        W22805  33.968  11.256   0.525
56397W        W22806   3.021   6.836   2.589
56398W        W22807   3.718  21.060  14.434
56399W        W22808  17.702  14.300   0.826
56400W        W22809   7.287  27.907   4.182
56401W        W22810  10.154   2.841  13.322
56402W        W22811   0.326   5.979   3.284
56403W        W22812  22.783  44.910   2.872
56404W        W22813  10.916  23.056   0.858
56405W        W22814  30.104  32.726  12.457
56406W        W22815  19.592  21.716   3.247
56407W        W22816  13.184   5.935   3.691
56408W        W22817  44.223  36.140  13.271
56409W        W22818  35.881  32.826   4.732
56410W        W22819  38.163  37.436  14.923
56411W        W22820  19.482   4.357  13.822
56412W        W22821  30.489   1.370  13.435
56413W        W22822  18.852  30.570   3.859
56414W        W22823  42.023  27.604  14.394
56415W        W22824   6.511   7.399  13.797
56416W        W22825  10.869  22.497  10.870
56417W        W22826  40.632  16.823   2.823
56418W        W22827  40.550  34.526  12.009
56419W        W22828  18.258  27.787  14.532
56420W        W22829  31.790  17.749   1.943
56421W        W22830  21.984  26.525  12.799
56422W        W22831  40.873   5.140   2.139
56423W        W22832  30.775  18.631  10.575
56424W        W22833  15.769  31.146   2.254
56425W        W22834  31.720  44.411  14.838
56426W        W22835  11.167  39.931   0.857
56427W        W22836  43.505   4.923  13.729
56428W        W22837  10.621  40.020  13.966
56429W        W22838   6.426  38.023  13.521
56430W        W22839  29.732  38.585  13.507
56431W        W22840  40.453   9.310  12.051
56432W        W22841  11.106   4.761  13.957
56433W        W22842  34.040  27.092   2.941
56434W        W22843  33.569  17.113  13.917
56435W        W22844   4.340  40.511   0.983
56436W        W22845   6.018  34.620  11.529
56437W        W22846  13.735   0.762  11.855
56438W        W22847  15.584  34.090   2.192
56439W        W22848  11.280  38.451   1.696
56440W        W22849  43.508   8.899  11.292
56441W        W22850  38.518  10.852   3.387
56442W        W22851  29.403   3.474   1.293
56443W        W22852  19.882   9.832   3.821
56444W        W22853  21.556  21.119   1.033
56445W        W22854  13.350  17.035  12.831
56446W        W22855  29.709   9.194  10.238
56447W        W22856  19.246  34.533  14.423
56448W        W22857  42.480  40.054   1.353
56449W        W22858  22.710  14.574  14.597
56450W        W22859  40.827  30.446   4.037
56451W        W22860   4.584  16.208   5.361
56452W        W22861  27.529  25.585  12.628
56453W        W22862  38.859  24.234  14.197
56454W        W22863  22.085   0.456   3.762
56455W        W22864  37.584  35.777  11.557
56456W        W22865  16.145  23.665   2.330
56457W        W22866   3.881  40.315   1.749
56458W        W22867   7.205  24.781  11.577
56459W        W22868  40.527  20.151   4.049
56460W        W22869  10.195  29.851   3.601
56461W        W22870  30.579  16.295   3.745
56462W        W22871  36.478  21.529  14.403
56463W        W22872  33.881  43.668  12.991
56464W        W22873   5.049  13.295   2.838
56465W        W22874  33.305  44.370  13.343
56466W        W22875  41.923   9.743  12.211
56467W        W22876   0.435  17.220  14.356
56468W        W22877  19.544  26.964  12.999
56469W        W22878  15.197   3.361   1.709
56470W        W22879  44.757  31.342   0.268
56471W        W22880  15.152   4.461  11.066
56472W        W22881  41.219  35.557   0.406
56473W        W22882   6.713  14.665  10.444
56474W        W22883  18.290  38.043  12.592
56475W        W22884   4.790  27.175  14.063
56476W        W22885   9.386  36.879   0.798
56477W        W22886   3.782   4.261  13.419
56478W        W22887  23.882  33.897   4.517
56479W        W22888  16.139  29.401  11.885
56480W        W22889   0.903  38.755  11.833
56481W        W22890  29.545   1.246  10.220
56482W        W22891  14.434  29.400  14.821
56483W        W22892  25.527  25.181   1.551
56484W        W22893  27.730  42.306   3.730
56485W        W22894  35.603  25.611   1.842
56486W        W22895   2.385  20.524   1.315
56487W        W22896  11.323  43.077   3.118
56488W        W22897  35.529  42.523   3.255
56489W        W22898  35.538  37.097  12.532
56490W        W22899   0.297  25.942   4.545
56491W        W22900  19.481  20.147  11.571
56492W        W22901  27.996  29.666   0.352
56493W        W22902  34.180  19.249  13.472
56494W        W22903  36.364  29.206   0.452
56495W        W22904   2.983  31.880   1.244
56496W        W22905  24.044  28.153   1.410
56497W        W22906   3.428  43.218   2.357
56498W        W22907  15.741   2.910   4.833
56499W        W22908  40.665  25.647   0.253
56500W        W22909  21.079  38.974  14.083
56501W        W22910  39.436   8.671  13.037
56502W        W22911  19.633  37.777  12.467
56503W        W22912   1.397  25.589  14.409
56504W        W22913  25.524  43.509  14.081
56505W        W22914  40.451   2.454   0.879
56506W        W22915  43.486  20.991  14.911
56507W        W22916   4.424  32.039   4.668
56508W        W22917  15.238  28.672   3.100
56509W        W22918  39.685   1.886  11.690
56510W        W22919  16.715  18.717   3.693
56511W        W22920  27.169  33.452  14.903
56512W        W22921  25.717  28.956  14.836
56513W        W22922   6.657  43.505   3.663
56514W        W22923  23.111  16.854  12.998
56515W        W22924   4.186  13.290  10.879
56516W        W22925   5.267  34.450  12.016
56517W        W22926   5.818  22.880  14.237
56518W        W22927   6.771  26.927   3.307
56519W        W22928  35.602  28.909  12.857
56520W        W22929  42.639  28.475   3.500
56521W        W22930  14.963  41.741   2.718
56522W        W22931  14.858   0.958  11.532
56523W        W22932  44.512  42.510  14.314
56524W        W22933  11.591  17.944   4.103
56525W        W22934  34.513  42.004   1.210
56526W        W22935   9.843  26.973   1.537
56527W        W22936  44.435  18.864  13.867
56528W        W22937   4.883   0.851   2.749
56529W        W22938  40.060   5.983  12.076
56530W        W22939  19.937  29.934   1.361
56531W        W22940  40.461   8.898  11.686
56532W        W22941  28.106  11.617   4.572
56533W        W22942  34.106   2.925  14.314
56534W        W22943  39.354  25.024   3.690
56535W        W22944  42.389   4.261  14.915
56536W        W22945   9.846  17.989   2.796
56537W        W22946  21.719   6.727   4.670
56538W        W22947  41.424  24.500   3.619
56539W        W22948  10.062  40.981  14.024
56540W        W22949  14.153   9.650   1.192
56541W        W22950  21.598  39.065   2.265
56542W        W22951  41.026  44.475  11.608
56543W        W22952  21.493  29.971   1.370
56544W        W22953   1.096  16.374   4.130
56545W        W22954  29.037  12.091  14.283
56546W        W22955  36.757  39.423   0.458
56547W        W22956   1.685  10.691   4.642
56548W        W22957  41.557  11.246   0.673
56549W        W22958  19.706  32.084   1.286
56550W        W22959  29.670  16.170   0.790
56551W        W22960  27.198  38.334  12.412
56552W        W22961   2.215  37.132  10.708
56553W        W22962  14.791  26.293  14.377
56554W        W22963  38.051  31.601   1.884
56555W        W22964  26.444  34.184   0.686
56556W        W22965   6.900  31.571  12.199
56557W        W22966  13.611   2.862  13.165
56558W        W22967  30.681  13.695   2.843
56559W        W22968  30.931   9.706  11.491
56560W        W22969   6.824  18.805  14.819
56561W        W22970  13.588  22.824  10.924
56562W        W22971  26.629  27.420  11.264
56563W        W22972   6.678  13.652   4.531
56564W        W22973  30.078   4.158  12.258
56565W        W22974  40.938   0.349  11.925
56566W        W22975  30.352  13.705  10.628
56567W        W22976  26.291  39.163   2.370
56568W        W22977   7.223  40.880   2.338
56569W        W22978  31.438  21.839  11.474
56570W        W22979  33.357  18.277  12.068
56571W        W22980  39.938  32.986   3.673
56572W        W22981  25.578  19.760  10.200
56573W        W22982  20.048  40.368  12.923
56574W        W22983  39.135  20.725   4.621
56575W        W22984  41.420  43.490   2.167
56576W        W22985  40.611  23.643   0.897
56577W        W22986  35.585   4.356   3.272
56578W        W22987  38.813   6.762  11.223
56579W        W22988  19.277  25.226  14.472
56580W        W22989  26.521  28.041   1.147
56581W        W22990  41.195  29.425  11.064
56582W        W22991  20.731   4.230  12.807
56583W        W22992  15.331   4.174  12.026
56584W        W22993  25.985  23.443   1.205
56585W        W22994  33.206   5.032   2.636
56586W        W22995  38.136  36.359  13.548
56587W        W22996  40.519  42.338   0.231
56588W        W22997  20.645  30.442   2.298
56589W        W22998   4.302  24.122   4.815
56590W        W22999  12.162  33.876   1.195
56591W        W23000  18.151  15.202   3.637
56592W        W23001  43.452  28.910  12.165
56593W        W23002   7.353  30.438   4.529
56594W        W23003   9.279  21.520  11.715
56595W        W23004  25.036  21.752   3.166
56596W        W23005  29.482  23.795   1.355
56597W        W23006  15.691  14.577  10.273
56598W        W23007  44.903  33.982  12.137
56599W        W23008  17.551  43.921  13.595
56600W        W23009  33.254  11.928  11.526
56601W        W23010  42.451  31.153  14.844
56602W        W23011  35.018  18.345   2.511
56603W        W23012  12.770  32.848  11.581
56604W        W23013  30.990  38.764  14.283
56605W        W23014  12.563  44.446   1.588
56606W        W23015  34.670  41.539  11.151
56607W        W23016  10.763  21.975   0.044
56608W        W23017   8.121  26.147   1.708
56609W        W23018  34.345  18.694  13.568
56610W        W23019  14.357  43.912   3.195
56611W        W23020   6.925  43.169  11.956
56612W        W23021  10.447  28.150  10.826
56613W        W23022  20.461  31.510  11.457
56614W        W23023  27.308  22.514  11.469
56615W        W23024  21.207   2.243   2.183
56616W        W23025   5.159  18.639   0.440
56617W        W23026  32.076   6.733  13.724
56618W        W23027  33.425  12.804   1.847
56619W        W23028   6.866   1.726   0.538
56620W        W23029   5.308  43.990  10.639
56621W        W23030   8.931  22.505   0.590
56622W        W23031   8.341  27.151  11.887
56623W        W23032   6.903  37.223  12.607
56624W        W23033  17.188  35.627   2.842
56625W        W23034  32.421  17.179   2.964
56626W        W23035   1.366  24.090  13.550
56627W        W23036  22.482  12.836  11.834
56628W        W23037   7.822  23.336   1.410
56629W        W23038  43.002   8.907  14.499
56630W        W23039  31.990   9.211   0.716
56631W        W23040  28.878  37.166  12.778
56632W        W23041  36.889  16.334   1.632
56633W        W23042  32.127  20.178  12.966
56634W        W23043  12.775  19.547  13.484
56635W        W23044  31.393   8.853  12.443
56636W        W23045  10.233  25.649   2.015
56637W        W23046  18.682  33.252   4.688
56638W        W23047  38.573  31.321   0.367
56639W        W23048  35.263  13.657   0.993
56640W        W23049  33.641   8.043  12.995
56641W        W23050  23.574  35.861  14.015
56642W        W23051  33.037   5.821  10.396
56643W        W23052  21.923   6.278  14.923
56644W        W23053  12.855  38.852  12.823
56645W        W23054  29.880  42.908   0.332
56646W        W23055  36.433  17.800  13.830
56647W        W23056  44.153   8.746  12.879
56648W        W23057  27.757  38.431   1.841
56649W        W23058  32.387   8.360   1.067
56650W        W23059  36.464  36.927   2.382
56651W        W23060   3.789  43.085  13.426
56652W        W23061   7.049  43.349  13.637
56653W        W23062  34.088  15.104  10.433
56654W        W23063  18.223  15.545   4.617
56655W        W23064  40.004  16.031   4.306
56656W        W23065  35.039  18.034  14.604
56657W        W23066   4.849  29.383  12.840
56658W        W23067  25.259  19.283   4.556
56659W        W23068  40.429  17.536   3.183
56660W        W23069   1.139  10.622   3.527
56661W        W23070   6.253  43.307   3.948
56662W        W23071  30.241  35.377   4.184
56663W        W23072  17.643  33.935   4.169
56664W        W23073   3.954  43.262  11.157
56665W        W23074  39.261  43.743   2.144
56666W        W23075   7.740  37.427  11.771
56667W        W23076  39.722  33.468   3.784
56668W        W23077  35.380  28.877   1.252
56669W        W23078  16.764  39.122   0.752
56670W        W23079  15.281  19.757  13.351
56671W        W23080  39.548  29.667   1.714
56672W        W23081  28.105  24.931   1.296
56673W        W23082  38.976  15.825   9.960
56674W        W23083  39.001  38.870   4.547
56675W        W23084  41.517  44.852   3.230
56676W        W23085  12.674  31.080  13.873
56677W        W23086  30.599  27.544  12.389
56678W        W23087  37.052   5.066  14.618
56679W        W23088  38.747  15.564  12.480
56680W        W23089   3.379  31.508   1.000
56681W        W23090  20.398  26.169  14.801
56682W        W23091  11.941  25.235  10.348
56683W        W23092   6.091  40.975   1.655
56684W        W23093  24.848   9.675  11.629
56685W        W23094  41.917  15.202  11.000
56686W        W23095  18.453  32.453  12.945
56687W        W23096  31.400  29.817   0.050
56688W        W23097  17.246  40.997  11.475
56689W        W23098   1.693  27.707  13.975
56690W        W23099  28.644  13.513   2.425
56691W        W23100  29.104  36.763  11.591
56692W        W23101  44.805  25.986   4.258
56693W        W23102  23.706  42.001   3.327
56694W        W23103   4.628  44.634  14.494
56695W        W23104  15.203  44.250   4.574
56696W        W23105  13.209  13.763   0.686
56697W        W23106  11.396  11.697   3.253
56698W        W23107  34.534  15.253   0.405
56699W        W23108  30.016   4.504   3.654
56700W        W23109  37.496  22.211  13.575
56701W        W23110  28.031  20.305   0.299
56702W        W23111  33.471  29.150  13.494
56703W        W23112  25.784   6.518  13.356
56704W        W23113   7.806  32.610   0.755
56705W        W23114   2.715   8.622  13.884
56706W        W23115  38.203  39.521  13.504
56707W        W23116  28.819  44.945  13.757
56708W        W23117   5.104  34.636   3.411
56709W        W23118  32.410  13.798   1.604
56710W        W23119  43.956  12.703   4.639
56711W        W23120  11.843  10.089  12.362
56712W        W23121   6.691   1.964  14.461
56713W        W23122  29.497  25.046   2.327
56714W        W23123   7.918   2.771  13.956
56715W        W23124  28.630   3.395  13.331
56716W        W23125  32.028  22.231   4.285
56717W        W23126   2.483   7.994   1.188
56718W        W23127  36.618  38.122   2.990
56719W        W23128  23.363  42.362  11.474
56720W        W23129  28.047  34.420  11.509
56721W        W23130  17.576   8.104   0.791
56722W        W23131   1.200   5.221   4.534
56723W        W23132  21.179  24.656  12.508
56724W        W23133   5.581  15.739  14.847
56725W        W23134  12.441   2.033   4.044
56726W        W23135  20.150  41.935   3.829
56727W        W23136  20.685   2.826  13.407
56728W        W23137  22.237  16.091   3.471
56729W        W23138  31.116  38.946   2.886
56730W        W23139  44.381  14.172  13.092
56731W        W23140  41.260  16.184  12.176
56732W        W23141  33.905  25.030  13.823
56733W        W23142  28.277   9.759  11.653
56734W        W23143  41.762  13.721   3.632
56735W        W23144  29.100  31.962  11.608
56736W        W23145  41.806  36.029  12.835
56737W        W23146  15.656  26.320  13.357
56738W        W23147   0.954  32.763   4.123
56739W        W23148  12.072  44.009  12.014
56740W        W23149  32.010  30.242   4.032
56741W        W23150  31.587  13.890  14.278
56742W        W23151  34.619  30.036   4.555
56743W        W23152  41.901  17.944   3.719
56744W        W23153  24.434  12.448   4.880
56745W        W23154  28.586  28.309  12.299
56746W        W23155  39.774  32.380  11.087
56747W        W23156  16.732  38.643  11.835
56748W        W23157  25.803  31.855  12.497
56749W        W23158   9.379  23.900   3.373
56750W        W23159  12.163  41.718  12.887
56751W        W23160   3.516  11.764   4.264
56752W        W23161  40.463  28.858   0.896
56753W        W23162  39.063   8.281   1.396
56754W        W23163   6.434   8.868  14.393
56755W        W23164  16.995  25.497  11.503
56756W        W23165  19.487   6.543   3.897
56757W        W23166  35.406  14.914  12.635
56758W        W23167  29.284  40.544  11.051
56759W        W23168  32.810  42.931   0.842
56760W        W23169  16.703  22.575   4.123
56761W        W23170  26.394  22.211  14.780
56762W        W23171   4.983   3.512  11.114
56763W        W23172  22.638   7.068  14.812
56764W        W23173  16.168  33.431   0.743
56765W        W23174  26.010  14.867   4.945
56766W        W23175  13.206  31.462  14.032
56767W        W23176  16.713  15.007   1.766
56768W        W23177  36.656  41.655  12.876
56769W        W23178   2.284   2.226   1.935
56770W        W23179   3.060   7.851   0.349
56771W        W23180  32.107  27.773   0.543
56772W        W23181  43.278  39.582   4.209
56773W        W23182  39.022   3.022  12.551
56774W        W23183  21.144  27.442  11.615
56775W        W23184   8.792  14.219  13.465
56776W        W23185   1.316  31.914  11.623
56777W        W23186  26.946  10.451   2.626
56778W        W23187   6.971  10.184  11.035
56779W        W23188  33.523  16.400  11.905
56780W        W23189  14.595   5.377   3.875
56781W        W23190   0.755  25.412  13.932
56782W        W23191  16.450  43.441  11.605
56783W        W23192  38.456  25.711  10.780
56784W        W23193  41.302  10.402  14.374
56785W        W23194   7.055  18.768   0.320
56786W        W23195  20.652  20.141   2.650
56787W        W23196  21.734   5.365  11.217
56788W        W23197  30.473  23.560  12.097
56789W        W23198  37.065  33.531  11.624
56790W        W23199   6.623  40.356  11.933
56791W        W23200  30.912   0.928   3.632
56792W        W23201   7.959   1.516  13.984
56793W        W23202   6.871  30.617   4.622
56794W        W23203  24.894  25.285   0.738
56795W        W23204  20.755  29.766  10.733
56796W        W23205  28.770  44.556   4.143
56797W        W23206   2.803  37.589  14.376
56798W        W23207  40.029  24.678   3.476
56799W        W23208  18.995  44.494  10.645
56800W        W23209  30.953  21.189   1.397
56801W        W23210  10.410   0.903  13.960
56802W        W23211  42.800  39.394  12.362
56803W        W23212   3.197   9.755  13.608
56804W        W23213  43.017  42.772  13.271
56805W        W23214  34.553  16.333  11.524
56806W        W23215  18.343  19.497   3.573
56807W        W23216  17.295  38.827  14.883
56808W        W23217  14.780   6.816   3.700
56809W        W23218  21.264  10.684   2.691
56810W        W23219  37.797   3.770   0.903
56811W        W23220  38.944  29.678  11.525
56812W        W23221  33.556  39.921  12.341
56813W        W23222  42.794  33.163  11.591
56814W        W23223  30.289  19.966   1.314
56815W        W23224   6.591  15.705  11.956
56816W        W23225  34.198  17.061  10.777
56817W        W23226  17.597   0.333   0.905
56818W        W23227  25.458  18.817   4.646
56819W        W23228  28.042  41.590  12.953
56820W        W23229  32.597  24.756   1.693
56821W        W23230  19.600  28.210  13.945
56822W        W23231  43.542   5.147  12.516
56823W        W23232  13.346  25.469  14.297
56824W        W23233  37.123   8.424  11.183
56825W        W23234  14.372  20.634   2.034
56826W        W23235  44.982  25.534   0.431
56827W        W23236  38.919  21.396   3.224
56828W        W23237  13.447  39.066   4.947
56829W        W23238  35.449  34.159  12.188
56830W        W23239  34.074  38.994  14.385
56831W        W23240  23.214  37.874   2.401
56832W        W23241  32.081  22.582  12.491
56833W        W23242  15.131  40.868  11.083
56834W        W23243  41.930  12.885  14.906
56835W        W23244   1.107  29.095  10.162
56836W        W23245  35.157   0.370   0.784
56837W        W23246  29.082  27.067   3.857
56838W        W23247  33.538   8.192  10.037
56839W        W23248  37.457  20.361   4.491
56840W        W23249   7.350  33.084   3.246
56841W        W23250   5.058   2.037   2.159
56842W        W23251  24.257  16.281   1.389
56843W        W23252   7.764  28.902   0.664
56844W        W23253  38.307  31.885  12.807
56845W        W23254  17.133  18.203   0.391
56846W        W23255  17.787  22.718  10.708
56847W        W23256  29.394  34.916  11.509
56848W        W23257  22.102  18.120   0.914
56849W        W23258  21.651  30.540  14.811
56850W        W23259  34.823  33.410  13.865
56851W        W23260  44.328   1.771   2.524
56852W        W23261  16.838   2.633  12.006
56853W        W23262  39.400  21.756   2.435
56854W        W23263  44.312  44.971  13.902
56855W        W23264  43.475  30.200   1.416
56856W        W23265  40.971   4.498  12.060
56857W        W23266  42.754  18.303  11.196
56858W        W23267  32.257   6.788  11.918
56859W        W23268  23.449  22.229   0.808
56860W        W23269  18.845   7.817  11.913
56861W        W23270  38.296  44.836  11.511
56862W        W23271  37.363   3.766  12.766
56863W        W23272  20.788  40.983  12.908
56864W        W23273   4.854   9.497  10.065
56865W        W23274  18.106  31.909  14.389
56866W        W23275  35.632  33.143   3.249
56867W        W23276  15.779  44.892   0.251
56868W        W23277  11.517  39.916  12.446
56869W        W23278  40.494  21.326  12.512
56870W        W23279   6.370  42.413   2.211
56871W        W23280  18.784   7.290  13.110
56872W        W23281  21.463  31.261  10.752
56873W        W23282  17.096  21.744  13.539
56874W        W23283   2.236  11.819   2.970
56875W        W23284  42.771  33.353  13.681
56876W        W23285  28.094  39.109   4.122
56877W        W23286   6.716  31.223   4.527
56878W        W23287  32.815  35.865   0.775
56879W        W23288   6.658   8.020   4.210
56880W        W23289  13.138  19.863   4.538
56881W        W23290  35.348  25.766   4.191
56882W        W23291  14.540  44.654  12.530
56883W        W23292  27.408   7.770   0.450
56884W        W23293  19.431   4.632  14.287
56885W        W23294   1.536   4.022  11.517
56886W        W23295   0.653  24.569  13.625
56887W        W23296  41.697  16.954   3.491
56888W        W23297  15.723  36.814   3.450
56889W        W23298  40.776   2.882  14.172
56890W        W23299  18.547  21.047   1.231
56891W        W23300   7.778  22.586   3.575
56892W        W23301  22.275   5.957  13.953
56893W        W23302   0.548   5.804  10.701
56894W        W23303   9.429  35.877  11.463
56895W        W23304  18.328  14.561   3.330
56896W        W23305  31.584   6.094  12.023
56897W        W23306   6.377   4.230   4.892
56898W        W23307  41.532  27.187   1.275
56899W        W23308   2.142  33.646  12.057
56900W        W23309   1.541   4.421  14.690
56901W        W23310  30.753  34.384   3.170
56902W        W23311  22.237  22.083   3.753
56903W        W23312  32.787  10.602  12.431
56904W        W23313  36.479  12.169   4.398
56905W        W23314  29.030  18.804   1.350
56906W        W23315  14.300  14.291  14.687
56907W        W23316  14.364   3.679   3.278
56908W        W23317  14.262  28.041   4.509
56909W        W23318  35.032   4.254   4.863
56910W        W23319  28.176  41.318  12.543
56911W        W23320  32.908   6.024   2.437
56912W        W23321   4.337   1.708   2.703
56913W        W23322  27.152  21.964   3.837
56914W        W23323  24.988   9.392   3.101
56915W        W23324  43.935  39.619   1.195
56916W        W23325  14.786  43.010   3.252
56917W        W23326  20.037   4.896  14.345
56918W        W23327  19.126   2.451   3.220
56919W        W23328  17.367   2.020  11.678
56920W        W23329  40.221   7.775  10.856
56921W        W23330   0.186  42.465   4.001
56922W        W23331  10.550  10.566   0.928
56923W        W23332  17.639   9.914  12.020
56924W        W23333  36.118  14.061   0.803
56925W        W23334  37.146  43.407  14.079
56926W        W23335  10.583  18.377  11.978
56927W        W23336  10.924   4.870   4.572
56928W        W23337   1.970  10.379   0.680
56929W        W23338  40.079  18.937   4.013
56930W        W23339  13.299  38.940  13.596
56931W        W23340   3.658  41.779  12.633
56932W        W23341   2.986  29.287  13.540
56933W        W23342   0.680  20.543  10.407
56934W        W23343  15.145   2.415  10.696
56935W        W23344  13.342   6.979   3.627
56936W        W23345  15.711   0.692   0.901
56937W        W23346  14.549  43.339  14.142
56938W        W23347  15.464  40.281   1.714
56939W        W23348  23.932  43.079  11.460
56940W        W23349   4.816  14.510  11.672
56941W        W23350  34.132   2.152  13.068
56942W        W23351   2.746   0.025  12.880
56943W        W23352  26.450   7.235  14.024
56944W        W23353  20.180  37.273  14.364
56945W        W23354  30.660  10.684  13.083
56946W        W23355  44.254   2.643  13.940
56947W        W23356  26.455  40.607  14.958
56948W        W23357  32.585   6.718  13.749
56949W        W23358   7.139  12.609   2.685
56950W        W23359  36.883  34.060   0.227
56951W        W23360  21.174  16.885  12.093
56952W        W23361  15.851  29.405   3.312
56953W        W23362  15.862  42.818  12.633
56954W        W23363  34.864  27.036   3.120
56955W        W23364  14.456  15.592   0.971
56956W        W23365  28.347  10.384   4.924
56957W        W23366  12.691   3.300  13.985
56958W        W23367  32.980  43.051  13.874
56959W        W23368  18.118  13.742  13.397
56960W        W23369  41.598  26.451  10.726
56961W        W23370  10.160  43.518  11.943
56962W        W23371  36.110  13.838  13.498
56963W        W23372  44.937  39.438   0.169
56964W        W23373  25.525  31.521   3.873
56965W        W23374  26.466  33.409  12.809
56966W        W23375  20.488  38.757   1.337
56967W        W23376  21.123  40.604   3.782
56968W        W23377   9.181  25.931  11.335
56969W        W23378  43.913  13.891   4.135
56970W        W23379  37.913  19.649   0.471
56971W        W23380  17.167  19.347   1.156
56972W        W23381  25.706   0.411   0.960
56973W        W23382   7.198  13.863  12.842
56974W        W23383  12.641   2.231   5.260
56975W        W23384  28.328   9.629   3.101
56976W        W23385  35.029  10.052  11.175
56977W        W23386   3.087  26.195   2.202
56978W        W23387  13.607  41.111   1.090
56979W        W23388  32.715   2.968   3.128
56980W        W23389  34.487  30.188   3.302
56981W        W23390  20.161  33.918  13.017
56982W        W23391  20.628  39.078  14.369
56983W        W23392  32.173  23.286  12.178
56984W        W23393  28.571  30.362  12.999
56985W        W23394  36.264  34.688   2.555
56986W        W23395  13.727   2.798  12.152
56987W        W23396  14.095   2.580   1.245
56988W        W23397   1.389   7.279  13.889
56989W        W23398   0.050   8.382   2.776
56990W        W23399  35.533  11.207   1.513
56991W        W23400  14.805  24.254  11.986
56992W        W23401  44.705  11.363  13.893
56993W        W23402  32.095  44.314   4.159
56994W        W23403  11.809  32.993  14.878
56995W        W23404  28.458  13.238  12.942
56996W        W23405  18.495   1.026   1.341
56997W        W23406  25.661  26.724   4.070
56998W        W23407  44.768   0.335  14.997
56999W        W23408  30.063   2.794  14.759
57000W        W23409  41.999   8.478  14.608
57001W        W23410   1.262  28.380   1.320
57002W        W23411  43.007  15.731   5.050
57003W        W23412  10.927  33.592  12.231
57004W        W23413  26.540  23.778   4.702
57005W        W23414  41.823  35.070   4.172
57006W        W23415  38.832   9.319   3.261
57007W        W23416  35.359  34.015   2.784
57008W        W23417  27.023  19.867  12.863
57009W        W23418  25.570  15.485  11.223
57010W        W23419   1.185  11.319   0.992
57011W        W23420  32.122  41.196   1.801
57012W        W23421  11.027  41.683  14.328
57013W        W23422  13.348  18.905  14.293
57014W        W23423  34.050  36.652   4.204
57015W        W23424  27.517  14.323   4.044
57016W        W23425  26.620  43.113  14.029
57017W        W23426  13.639  27.445  10.671
57018W        W23427   4.689  36.864   1.917
57019W        W23428  36.671  16.350  13.291
57020W        W23429  34.363  30.190   1.052
57021W        W23430  37.821  39.037   0.711
57022W        W23431  35.327  20.012   3.815
57023W        W23432  36.394  29.362   3.865
57024W        W23433  30.578   2.056   4.938
57025W        W23434  26.443  24.678  13.443
57026W        W23435  32.533  10.282  13.792
57027W        W23436   9.138  22.456  12.586
57028W        W23437  26.934   2.152  13.429
57029W        W23438  20.702  17.054  14.475
57030W        W23439  36.022  27.234  11.767
57031W        W23440  41.191  42.057  11.651
57032W        W23441  27.498   8.213  14.295
57033W        W23442  41.775  13.647   2.101
57034W        W23443   9.901   6.196  12.124
57035W        W23444  35.431  35.580   4.082
57036W        W23445  24.067  38.392   1.861
57037W        W23446  36.999  23.452   2.177
57038W        W23447  37.707   6.848   3.264
57039W        W23448  19.422  29.882   2.141
57040W        W23449   6.624  30.367  13.504
57041W        W23450  30.413  27.046  14.542
57042W        W23451  29.580  39.080  13.569
57043W        W23452  33.623  36.745  10.779
57044W        W23453  38.973   3.459  12.165
57045W        W23454  15.571  19.348   1.241
57046W        W23455  27.255  27.993  12.062
57047W        W23456  22.155  14.789   2.773
57048W        W23457  38.783  18.599  14.171
57049W        W23458  15.573  11.341   2.131
57050W        W23459  21.270   9.255  14.874
57051W        W23460   4.807  40.313   0.865
57052W        W23461  39.095   6.387   2.181
57053W        W23462  33.484  28.101   1.345
57054W        W23463   7.627  38.482   1.486
57055W        W23464  24.506  29.181  11.535
57056W        W23465  31.361   1.178   3.616
57057W        W23466  44.376  21.447  14.779
57058W        W23467  12.853   3.335   1.304
57059W        W23468   7.429  21.004   3.155
57060W        W23469  17.312   2.504   1.607
57061W        W23470  34.105  26.210   4.103
57062W        W23471  26.604  35.819  11.623
57063W        W23472  22.165  19.241   4.071
57064W        W23473  37.581   9.192   1.365
57065W        W23474  35.398  19.321   0.421
57066W        W23475  11.342  23.611   0.420
57067W        W23476  25.668  35.989   4.136
57068W        W23477  20.203  21.657   2.591
57069W        W23478   3.965   0.358  12.942
57070W        W23479  34.732  19.714  11.966
57071W        W23480  40.966  27.095   4.357
57072W        W23481  37.484  14.624  12.834
57073W        W23482  35.890  23.680   4.436
57074W        W23483   4.599   1.328  10.873
57075W        W23484  43.917  41.643   4.957
57076W        W23485  22.200   7.031  13.048
57077W        W23486   6.892  44.912   1.316
57078W        W23487   3.636  36.125   4.976
57079W        W23488   9.175   5.290   0.466
57080W        W23489  42.565  33.073  12.040
57081W        W23490  10.029   2.453   4.489
57082W        W23491  23.200  37.037  12.070
57083W        W23492  28.719   1.648   1.887
57084W        W23493  18.308   0.512  13.489
57085W        W23494   5.372   5.214   2.237
57086W        W23495  27.863  43.430   0.889
57087W        W23496  42.924   4.474  14.886
57088W        W23497  28.289  29.167  12.211
57089W        W23498  13.332   8.475  11.074
57090W        W23499  11.019  42.259  14.527
57091W        W23500  18.239  19.999   4.469
57092W        W23501  13.347  16.182  13.611
57093W        W23502  19.738  22.036   4.086
57094W        W23503  17.772   3.254  12.090
57095W        W23504  21.848  31.076   2.672
57096W        W23505  11.775  43.300  12.663
57097W        W23506  31.890  38.352  14.731
57098W        W23507  38.475   0.809  11.884
57099W        W23508  11.534  11.419   2.815
57100W        W23509  19.483   5.489   2.757
57101W        W23510  14.688  32.236  12.632
57102W        W23511  28.265  17.024  11.106
57103W        W23512   4.300  31.071  12.664
57104W        W23513  26.004  19.501  12.427
57105W        W23514  39.080  44.208  10.006
57106W        W23515  28.472   7.439   1.898
57107W        W23516  28.736  42.454   0.913
57108W        W23517  29.287   3.676   1.798
57109W        W23518   9.413  27.627   2.225
57110W        W23519  12.014  13.519  12.284
57111W        W23520  12.273  42.724   1.166
57112W        W23521  12.083  44.576   1.725
57113W        W23522   9.393  13.817   4.979
57114W        W23523  29.137  11.770   1.818
57115W        W23524  15.330   2.947  14.410
57116W        W23525   6.691  19.192   1.279
57117W        W23526  24.094  19.740   0.035
57118W        W23527  38.554   7.896   0.795
57119W        W23528  13.396   6.811  14.465
57120W        W23529  35.865  22.684   1.676
57121W        W23530  20.213  14.122  14.540
57122W        W23531  21.807   6.314   0.979
57123W        W23532  37.606  41.784   2.729
57124W        W23533  19.660  41.324  13.815
57125W        W23534   2.751  19.346   3.294
57126W        W23535   8.617   2.169   0.345
57127W        W23536  26.836  37.629  10.647
57128W        W23537  44.380  34.643   3.270
57129W        W23538   7.254  30.778  12.977
57130W        W23539   2.222  32.087  13.194
57131W        W23540  14.466  36.005   3.710
57132W        W23541   3.714  21.940   1.810
57133W        W23542   1.807   7.689   1.741
57134W        W23543  20.464  35.499   3.907
57135W        W23544  25.043  44.426  13.027
57136W        W23545  10.595  16.264   1.585
57137W        W23546  41.888   0.291   2.085
57138W        W23547  11.975   2.376  12.138
57139W        W23548  35.890   5.161  12.693
57140W        W23549  43.986  25.669   0.828
57141W        W23550  13.236  40.714  12.482
57142W        W23551  26.693   8.893   3.697
57143W        W23552  25.541   9.125  12.779
57144W        W23553  44.458  12.628   1.440
57145W        W23554  20.306  33.503   1.165
57146W        W23555  39.402  11.893  13.378
57147W        W23556  23.603  30.935   3.779
57148W        W23557  26.520  28.203  14.294
57149W        W23558  36.339  35.785  14.031
57150W        W23559  31.959  41.257  11.668
57151W        W23560  11.170  21.050  14.375
57152W        W23561  29.015  23.551   4.212
57153W        W23562  40.213  20.141   3.644
57154W        W23563   4.736  17.769  14.952
57155W        W23564  15.882  12.570   1.749
57156W        W23565  21.892  10.656  14.686
57157W        W23566  32.582  24.679   3.774
57158W        W23567  13.029  27.044  14.934
57159W        W23568   1.910   6.194  11.724
57160W        W23569   5.812  29.967   2.178
57161W        W23570  36.752  29.197  13.162
57162W        W23571  19.062  14.525  14.045
57163W        W23572   3.683   4.914  13.970
57164W        W23573  11.459   4.350  12.570
57165W        W23574   7.809   1.126  11.088
57166W        W23575  33.444   7.704  13.406
57167W        W23576  20.790  10.402   2.147
57168W        W23577  43.326  18.295  14.364
57169W        W23578  13.877  23.243  13.055
57170W        W23579  16.529  11.890  12.030
57171W        W23580  25.206  41.523   3.728
57172W        W23581  11.425  19.245   1.460
57173W        W23582  25.097  38.260   4.117
57174W        W23583  35.981  37.232  13.536
57175W        W23584  17.194  42.878  10.124
57176W        W23585  20.100  23.241   1.149
57177W        W23586  25.655  33.025  14.059
57178W        W23587  38.011   5.467  14.976
57179W        W23588   4.765  22.996   4.869
57180W        W23589  33.424  27.280   3.235
57181W        W23590   2.065  30.062  11.062
57182W        W23591   6.700  31.007  13.932
57183W        W23592  35.866  12.047   0.867
57184W        W23593  21.785   9.294  14.900
57185W        W23594  44.812  37.377   2.928
57186W        W23595  30.145  18.892  13.970
57187W        W23596   6.256  12.278   1.406
57188W        W23597  27.507  13.783   4.122
57189W        W23598  26.583  25.194  13.340
57190W        W23599  16.552   6.273   3.906
57191W        W23600  29.066  34.115  12.769
57192W        W23601  43.843  10.419   3.301
57193W        W23602  28.073  11.799  14.952
57194W        W23603  23.118   0.819   2.352
57195W        W23604  36.750  37.484   3.721
57196W        W23605  32.342  30.476  11.271
57197W        W23606  16.306  22.812   3.386
57198W        W23607  28.123  31.235   1.701
57199W        W23608  21.197   7.322  10.280
57200W        W23609  42.561  16.524  12.052
57201W        W23610  19.523  30.576   3.193
57202W        W23611   3.280  43.727   0.990
57203W        W23612   6.767  11.092   0.581
57204W        W23613  41.891  32.779   1.494
57205W        W23614  17.698  21.036   1.133
57206W        W23615   3.223  37.299   3.308
57207W        W23616  24.034  38.979   4.583
57208W        W23617  30.274   9.256   4.615
57209W        W23618  28.685   6.364   3.785
57210W        W23619   5.215  12.254  14.781
57211W        W23620   5.563   1.830   2.235
57212W        W23621  10.333  30.109   2.750
57213W        W23622  37.166  24.776  12.413
57214W        W23623  35.947  17.242   3.547
57215W        W23624   5.727  30.207  14.291
57216W        W23625  19.156  41.367   4.092
57217W        W23626  29.345  44.576   3.190
57218W        W23627  14.390  44.834   3.167
57219W        W23628  27.387  12.359   1.683
57220W        W23629   5.726   5.461  12.036
57221W        W23630  12.142  18.323  13.842
57222W        W23631  40.934  18.006  14.249
57223W        W23632  42.943  41.229   2.714
57224W        W23633  17.619  14.629  14.432
57225W        W23634  20.531   7.230  14.968
57226W        W23635   9.029  41.275   2.259
57227W        W23636  35.887  12.942   1.468
57228W        W23637  11.926   4.302  11.683
57229W        W23638  31.632  37.707  12.686
57230W        W23639   1.893  16.567  11.719
57231W        W23640  28.610   8.261  11.649
57232W        W23641  22.711  11.867   1.295
57233W        W23642  40.032   0.684  10.327
57234W        W23643  42.552  17.013   2.717
57235W        W23644  22.611  26.095   2.357
57236W        W23645   3.285  37.462  14.553
57237W        W23646  37.347  13.626   3.263
57238W        W23647  40.904   7.808  14.730
57239W        W23648   4.128  15.662  14.417
57240W        W23649  19.193  34.798  12.415
57241W        W23650  35.895  41.541  14.457
57242W        W23651  41.974  13.608   1.265
57243W        W23652  13.350   8.194  11.555
57244W        W23653   0.323  30.539   3.155
57245W        W23654  28.168   1.519  13.338
57246W        W23655   0.780   0.288   4.571
57247W        W23656  32.923  10.975   2.767
57248W        W23657   0.444  36.846  10.994
57249W        W23658  28.566  38.060   4.243
57250W        W23659  11.502  27.626  14.340
57251W        W23660  11.796  30.391  12.378
57252W        W23661  43.537  38.449  10.594
57253W        W23662  31.150  22.818   3.973
57254W        W23663  39.352  35.035   3.741
57255W        W23664  28.436  39.866   2.275
57256W        W23665  40.379  15.340  13.803
57257W        W23666  14.325  39.067   0.774
57258W        W23667   8.818  28.987  13.863
57259W        W23668  21.699  17.589  11.089
57260W        W23669   9.644  42.384   1.400
57261W        W23670  22.958  14.609  12.984
57262W        W23671  42.742  27.133   0.844
57263W        W23672   2.454  34.558  12.491
57264W        W23673  40.058  20.768   3.721
57265W        W23674  26.171  12.797  12.512
57266W        W23675   5.923  43.969   1.763
57267W        W23676   3.787   6.864   1.888
57268W        W23677   9.885  19.168   2.800
57269W        W23678  15.655   7.586  14.611
57270W        W23679  32.023   7.566  13.364
57271W        W23680   4.256  41.899   0.392
57272W        W23681  38.305  14.657   4.536
57273W        W23682  42.444  25.697   0.899
57274W        W23683  12.702  34.484   4.251
57275W        W23684  29.391   8.869  14.095
57276W        W23685  18.687  42.295   2.652
57277W        W23686  20.002  16.795   4.133
57278W        W23687   3.259  19.095   1.316
57279W        W23688   3.387  32.925   3.799
57280W        W23689   9.699  23.121  12.450
57281W        W23690  36.587   3.405  14.458
57282W        W23691  41.214  44.649  10.726
57283W        W23692  10.799  39.529  12.860
57284W        W23693  24.733  25.240  10.314
57285W        W23694  36.490  36.584  11.632
57286W        W23695  24.741  21.525  12.923
57287W        W23696  12.055  37.828   4.259
57288W        W23697  31.169  41.497  12.047
57289W        W23698  34.037  10.626  10.681
57290W        W23699   4.866  42.207  10.333
57291W        W23700   1.314  24.099   2.127
57292W        W23701  27.541  11.818   0.849
57293W        W23702   6.945  11.105   3.616
57294W        W23703  29.515  40.318   2.122
57295W        W23704  42.882  26.868   3.825
57296W        W23705   9.858   4.838  14.654
57297W        W23706  20.441  27.648  13.935
57298W        W23707  11.785  24.227   3.435
57299W        W23708  32.616  30.943   1.208
57300W        W23709  24.986   1.495  12.464
57301W        W23710  41.320  16.306   2.273
57302W        W23711  41.945  25.241  12.265
57303W        W23712  38.003   8.366   2.329
57304W        W23713  22.072  37.065  11.288
57305W        W23714  10.835  37.048   5.385
57306W        W23715  43.346  28.418  13.037
57307W        W23716  34.926   1.089  11.532
57308W        W23717   9.175   4.282  12.052
57309W        W23718  42.729   5.640   2.683
57310W        W23719  31.865  19.167  12.428
57311W        W23720   0.275  28.002  13.006
57312W        W23721  25.210  29.836  13.333
57313W        W23722   3.908   5.079   3.733
57314W        W23723  39.526  18.143  10.543
57315W        W23724  29.504  23.786  13.050
57316W        W23725  41.424  27.931   0.770
57317W        W23726  24.666  22.686   2.385
57318W        W23727  26.505  40.131  14.736
57319W        W23728  11.748  14.266   2.937
57320W        W23729  25.506  40.392  10.626
57321W        W23730   4.974  14.755  12.097
57322W        W23731  15.002  19.784   1.782
57323W        W23732  39.728  30.007  10.704
57324W        W23733  15.871   3.009  11.292
57325W        W23734  32.700   5.655   1.347
57326W        W23735   3.648   4.855  10.958
57327W        W23736   3.945   8.073  13.734
57328W        W23737   0.514  11.808   1.883
57329W        W23738  14.661  12.262   4.280
57330W        W23739  24.177  27.154  13.009
57331W        W23740  11.266   0.473   2.211
57332W        W23741   7.813  24.153   0.719
57333W        W23742  33.052  25.064   2.754
57334W        W23743  30.582  15.903  13.986
57335W        W23744  34.354  44.359  13.075
57336W        W23745  30.086  36.893   4.168
57337W        W23746  31.350  28.457   0.420
57338W        W23747  32.772  25.624   1.482
57339W        W23748  26.166   2.326   1.383
57340W        W23749  35.583  19.786  11.948
57341W        W23750   6.856  30.443   2.622
57342W        W23751   4.273   2.280  10.942
57343W        W23752  18.316  12.177   4.933
57344W        W23753  12.859  14.520  14.403
57345W        W23754  19.808  17.140   0.234
57346W        W23755  22.562  21.668   3.620
57347W        W23756  16.773   6.212  10.387
57348W        W23757  40.770  24.549  13.093
57349W        W23758  19.767  41.327  12.971
57350W        W23759  37.943   1.691  10.988
57351W        W23760  13.243  17.383  10.760
57352W        W23761  37.042  22.106   4.894
57353W        W23762  30.123  21.090  12.183
57354W        W23763  36.726  18.079   9.800
57355W        W23764  22.828   6.796   4.395
57356W        W23765  13.144  18.978  11.486
57357W        W23766  18.243  26.747   2.199
57358W        W23767  26.324  28.715  10.072
57359W        W23768  42.358  13.930  14.400
57360W        W23769   8.743  15.871   1.370
57361W        W23770   8.142  20.334   2.126
57362W        W23771  29.076  16.758  12.186
57363W        W23772  31.500  38.182   4.284
57364W        W23773  38.442  43.295   4.600
57365W        W23774   2.250  23.700  12.097
57366W        W23775  36.374  17.556  11.069
57367W        W23776  21.158   0.025   3.809
57368W        W23777  40.482   7.325  10.959
57369W        W23778  28.732  13.627  12.081
57370W        W23779  11.699   2.712  11.875
57371W        W23780   4.500  18.642  10.485
57372W        W23781  39.875   9.619   1.713
57373W        W23782   6.248  29.600   3.144
57374W        W23783  17.005  34.638   2.197
57375W        W23784  30.505   0.927  14.733
57376W        W23785  16.100  37.978   0.852
57377W        W23786   4.603  23.191   2.723
57378W        W23787  30.549  18.985  11.191
57379W        W23788  23.057   2.911   3.596
57380W        W23789   4.947  24.759   1.197
57381W        W23790  13.580  44.190   2.623
57382W        W23791  22.519  33.972   0.221
57383W        W23792  37.006  44.519   0.269
57384W        W23793  34.300  28.590   1.775
57385W        W23794  28.862  25.004   0.033
57386W        W23795  14.786  32.168   2.716
57387W        W23796  19.179  24.156  11.836
57388W        W23797  43.335  17.230  10.677
57389W        W23798  16.582  27.673   4.317
57390W        W23799  40.058  34.866   1.727
57391W        W23800   5.203  14.016  12.654
57392W        W23801   9.335  34.682  10.624
57393W        W23802  35.032   9.450   2.740
57394W        W23803  16.305  23.024  11.400
57395W        W23804   6.185  16.305  12.518
57396W        W23805  32.458  41.370   2.196
57397W        W23806   1.013  19.085   3.524
57398W        W23807  23.571  38.133   2.779
57399W        W23808  22.292  17.219   0.795
57400W        W23809  31.451  19.589   0.968
57401W        W23810  42.135  38.849  11.648
57402W        W23811  29.978  26.331   0.742
57403W        W23812  24.962  34.785   3.734
57404W        W23813   4.898   8.346  12.584
57405W        W23814  28.980  38.872   3.129
57406W        W23815  44.737  39.864   2.458
57407W        W23816  10.166  39.959   1.418
57408W        W23817  35.007   1.378   4.649
57409W        W23818  36.238   6.355   1.880
57410W        W23819  43.966   6.089   2.150
57411W        W23820  40.034   2.509   1.667
57412W        W23821  15.104  25.403   1.416
57413W        W23822   0.962  42.125   0.914
57414W        W23823   9.169  38.148  12.398
57415W        W23824  30.595   2.227  11.653
57416W        W23825  40.964  40.673  11.175
57417W        W23826   4.448  24.744  11.534
57418W        W23827  42.772  13.123  10.881
57419W        W23828   2.682  26.492  10.794
57420W        W23829  42.956  19.202  12.256
57421W        W23830  14.692   5.234  11.175
57422W        W23831  38.947  17.062   5.080
57423W        W23832  39.823  36.129  14.462
57424W        W23833  44.267  12.901   4.142
57425W        W23834  20.651  23.121   1.745
57426W        W23835  32.963  33.888   0.751
57427W        W23836   4.405   2.193  11.852
57428W        W23837  43.241  42.969  11.565
57429W        W23838  39.629   0.357   1.365
57430W        W23839  28.628  17.435  11.039
57431W        W23840  29.530  10.395   3.036
57432W        W23841  16.447  32.348  13.128
57433W        W23842   8.117  27.967  12.907
57434W        W23843   2.270  26.346   2.426
57435W        W23844   9.640   0.526   1.858
57436W        W23845  31.222  26.423   1.270
57437W        W23846   8.785  18.829   1.157
57438W        W23847  29.390   1.740   0.928
57439W        W23848   0.233  18.379  12.605
57440W        W23849  15.416  32.642   4.296
57441W        W23850  29.636  11.232  10.595
57442W        W23851  28.710  28.162   4.673
57443W        W23852  32.839  27.953   1.363
57444W        W23853  25.167  19.920   0.679
57445W        W23854  14.056  37.316  12.402
57446W        W23855  42.456  27.531   4.221
57447W        W23856  30.947  36.268   4.325
57448W        W23857  44.177  23.255   5.021
57449W        W23858   9.714  39.499   2.677
57450W        W23859  28.426   3.775   2.815
57451W        W23860  32.364   5.523  13.547
57452W        W23861   1.143  35.056  11.564
57453W        W23862  39.552   5.647  11.161
57454W        W23863  31.187  16.553   1.267
57455W        W23864  17.933   0.834   3.591
57456W        W23865  43.519  14.571   1.273
57457W        W23866   1.210   6.124   4.994
57458W        W23867   2.616  17.427   2.306
57459W        W23868  25.974   8.689  14.817
57460W        W23869  32.184  22.232   4.779
57461W        W23870  12.054   9.607   0.723
57462W        W23871  12.931  31.884  13.396
57463W        W23872   4.371  15.213   4.669
57464W        W23873  36.166  13.373   3.874
57465W        W23874  16.086  41.140   4.155
57466W        W23875  21.857  19.685  10.539
57467W        W23876   9.739   8.165  13.190
57468W        W23877  21.367  27.115   2.814
57469W        W23878   0.249  28.035   3.739
57470W        W23879   9.675  20.660  14.128
57471W        W23880   2.489   9.423  13.864
57472W        W23881  17.495  28.927  12.486
57473W        W23882  30.139   4.522   2.416
57474W        W23883  23.689  44.499   1.469
57475W        W23884   0.530  37.528   3.659
57476W        W23885  15.383  39.356  13.991
57477W        W23886  20.063  21.778   3.063
57478W        W23887  20.530   2.973  11.655
57479W        W23888  25.261  30.930   1.627
57480W        W23889  42.826  31.132   0.443
57481W        W23890  23.228   9.042  12.316
57482W        W23891  25.930  35.370   2.040
57483W        W23892  44.282  31.793  10.997
57484W        W23893  16.354  26.206  11.270
57485W        W23894   6.721  27.233   2.893
57486W        W23895  42.477  16.083  12.841
57487W        W23896  23.007  22.622  10.187
57488W        W23897  41.119  23.999  13.932
57489W        W23898  25.872  30.239   1.654
57490W        W23899  38.014   1.212   0.366
57491W        W23900   1.296   5.450  11.633
57492W        W23901  17.269   2.426  14.440
57493W        W23902  26.319  27.982  13.140
57494W        W23903  40.817  33.554   4.052
57495W        W23904  43.254   2.111   9.935
57496W        W23905  12.261  37.864   3.627
57497W        W23906  34.468  28.428   1.301
57498W        W23907  13.304  43.951   3.629
57499W        W23908  40.741   9.893   0.380
57500W        W23909   5.514   9.815   1.697
57501W        W23910  13.404  18.047   1.520
57502W        W23911  27.756  34.506   3.661
57503W        W23912  27.385   3.107  14.968
57504W        W23913  41.802   4.948  13.841
57505W        W23914  31.348  19.977   1.837
57506W        W23915  44.962  42.787  11.625
57507W        W23916   2.775  22.077   4.150
57508W        W23917  30.645  40.512  10.818
57509W        W23918   0.347  36.925  14.504
57510W        W23919  41.632  33.006  14.748
57511W        W23920  19.653   2.985  13.549
57512W        W23921  14.199   6.168  13.637
57513W        W23922  43.462  19.627   0.156
57514W        W23923  36.082   4.986  13.681
57515W        W23924   1.183  35.047   3.595
57516W        W23925  19.539  37.754  14.877
57517W        W23926   3.270   5.789   3.666
57518W        W23927  12.972   8.241  10.773
57519W        W23928  19.383  18.145   3.801
57520W        W23929  30.802  40.786   4.648
57521W        W23930   6.485  36.834  13.757
57522W        W23931   2.867  18.095  11.547
57523W        W23932  40.781  10.758  10.528
57524W        W23933  17.669   1.338  14.897
57525W        W23934  41.887  20.669   4.713
57526W        W23935   1.053   1.728  11.179
57527W        W23936  39.054  25.904  14.801
57528W        W23937   2.359  10.852   1.329
57529W        W23938  42.206  38.433  13.295
57530W        W23939   6.440   2.332  12.561
57531W        W23940  15.621  21.047  11.982
57532W        W23941  34.027   3.300  14.709
57533W        W23942  28.171   4.156  13.288
57534W        W23943  18.488  33.114   0.607
57535W        W23944   5.123  35.907   3.321
57536W        W23945  21.107  44.597   4.078
57537W        W23946   5.510  35.223  14.657
57538W        W23947  22.219  22.312  14.640
57539W        W23948  43.263  34.604   0.849
57540W        W23949  16.983  19.621  10.707
57541W        W23950  15.492   3.458  13.936
57542W        W23951  20.952   8.403   4.263
57543W        W23952  13.469  39.556   2.636
57544W        W23953  30.178  22.107  13.406
57545W        W23954  40.153  42.943   9.809
57546W        W23955  10.352  11.511   1.018
57547W        W23956  10.624  17.923   4.103
57548W        W23957  28.875   5.317   3.589
57549W        W23958   2.749  34.989  13.994
57550W        W23959   2.782  30.117   3.715
57551W        W23960  24.039  33.194  11.495
57552W        W23961  16.073  24.224   2.882
57553W        W23962  33.592  12.423   0.118
57554W        W23963  27.439  40.007   2.269
57555W        W23964  42.516  30.082   4.595
57556W        W23965   4.047  21.547   1.833
57557W        W23966  16.312  20.113  14.006
57558W        W23967  24.051  29.945   1.879
57559W        W23968   7.631  27.980   0.496
57560W        W23969  35.175  40.790   0.301
57561W        W23970  28.683  29.574  11.477
57562W        W23971  21.017  35.007  14.464
57563W        W23972   0.462  29.391   2.444
57564W        W23973  18.072  20.657  13.795
57565W        W23974  38.108  18.747   0.844
57566W        W23975  16.294  33.618   4.553
57567W        W23976  38.667  14.147  12.492
57568W        W23977  39.459  35.463  13.806
57569W        W23978  37.470  41.028  14.733
57570W        W23979  29.935  40.501  13.825
57571W        W23980  24.483  37.487   3.147
57572W        W23981  17.837  21.932   3.062
57573W        W23982  42.745  25.598  14.039
57574W        W23983   0.182  11.370   3.117
57575W        W23984  25.415  16.335   0.880
57576W        W23985   6.957   2.697  11.738
57577W        W23986  24.241   7.188   3.202
57578W        W23987  18.373   2.466  13.626
57579W        W23988  39.425  41.446  14.318
57580W        W23989  27.006  28.532   3.742
57581W        W23990  15.628  26.036   4.735
57582W        W23991  31.443  13.622   2.139
57583W        W23992  19.867  32.354   0.369
57584W        W23993  27.686  37.918   2.819
57585W        W23994   1.901  28.154  12.006
57586W        W23995  43.113  37.529  14.891
57587W        W23996  32.146  10.979  12.917
57588W        W23997  43.778  12.875   0.727
57589W        W23998  29.012  44.172  13.552
57590W        W23999  20.391   5.245   3.731
57591W        W24000  29.190  35.366  11.664
57592W        W24001  16.177  42.972  10.379
57593W        W24002  23.358  38.010  14.952
57594W        W24003  41.629  38.897   1.529
57595W        W24004  23.685   4.442  10.003
57596W        W24005  15.470  15.568   1.248
57597W        W24006  29.503   2.861   2.911
57598W        W24007  30.688  28.698   4.967
57599W        W24008  11.830   8.571  12.589
57600W        W24009  43.995  28.862  12.980
57601W        W24010   3.508  22.972  11.574
57602W        W24011  42.111   1.013   1.808
57603W        W24012  39.092  28.978  11.135
57604W        W24013  24.791  26.218   3.219
57605W        W24014  15.769  11.798  13.499
57606W        W24015  36.314  38.528   2.136
57607W        W24016  16.619   4.381  14.847
57608W        W24017  19.251   1.421   0.487
57609W        W24018  41.471  38.573   4.731
57610W        W24019  17.344  39.449  14.297
57611W        W24020  32.022  30.417   3.160
57612W        W24021  36.548  26.938   2.749
57613W        W24022  25.991  32.068   0.626
57614W        W24023  36.355  10.907  13.398
57615W        W24024   3.487  30.170   2.433
57616W        W24025  13.250  25.392  12.872
57617W        W24026  40.345  30.228   0.521
57618W        W24027  40.962   6.631   2.327
57619W        W24028   2.327  15.546   4.966
57620W        W24029  40.429   4.298   0.337
57621W        W24030  43.971  12.737  13.850
57622W        W24031  31.449  15.371  14.928
57623W        W24032  27.121  35.572   4.892
57624W        W24033  13.768  41.581  13.523
57625W        W24034  27.036  17.208   3.721
57626W        W24035  39.712  12.991  13.783
57627W        W24036  27.116  17.242  12.737
57628W        W24037  13.851  29.430  11.993
57629W        W24038  31.667   4.183   2.344
57630W        W24039  13.652  16.146  14.896
57631W        W24040   7.969   3.272   3.658
57632W        W24041  12.524   2.489   3.790
57633W        W24042  32.394  34.328  12.392
57634W        W24043  25.272  34.013   3.322
57635W        W24044  40.334  34.057   0.010
57636W        W24045   5.884  36.788  13.982
57637W        W24046  33.382  43.471  13.442
57638W        W24047  42.125  18.568  10.377
57639W        W24048  27.032  32.826   2.785
57640W        W24049  37.033   9.288  10.652
57641W        W24050  14.557   0.439  10.649
57642W        W24051  30.158   5.340   1.800
57643W        W24052  42.059  37.840  11.464
57644W        W24053  14.737  39.783  10.266
57645W        W24054  15.202  41.102  12.453
57646W        W24055  11.737  40.295   4.174
57647W        W24056  37.325  20.187   3.306
57648W        W24057   5.616  23.775  13.296
57649W        W24058  17.569  20.758  13.895
57650W        W24059   2.588  23.632   3.160
57651W        W24060  28.653   8.165  13.498
57652W        W24061  16.316  30.312  11.946
57653W        W24062   4.927  41.613   2.891
57654W        W24063   5.896  15.833   3.267
57655W        W24064  27.005  26.144  10.950
57656W        W24065  44.623  25.914  13.395
57657W        W24066   2.953  29.646  10.796
57658W        W24067  41.777  13.132   0.432
57659W        W24068  20.235  19.241   0.418
57660W        W24069  12.946  27.151  12.548
57661W        W24070  43.854  24.178  11.143
57662W        W24071  25.506  42.500   3.172
57663W        W24072  44.011  36.376   2.170
57664W        W24073   1.396   9.183   9.621
57665W        W24074  14.534  30.590  12.528
57666W        W24075  17.808   6.107  13.906
57667W        W24076  20.932  26.514  14.782
57668W        W24077  33.658  14.718   0.159
57669W        W24078  27.131  39.471  14.708
57670W        W24079  34.418  15.608   3.587
57671W        W24080  14.060  20.065  12.384
57672W        W24081  17.205   5.985   2.275
57673W        W24082  24.464   8.400  14.849
57674W        W24083   9.197  24.916  13.054
57675W        W24084  36.250   6.904   4.402
57676W        W24085  26.594  44.963  14.199
57677W        W24086  39.904  39.816  13.047
57678W        W24087   6.865  37.170  11.630
57679W        W24088  18.815  36.338  12.344
57680W        W24089  44.717  35.120   1.759
57681W        W24090  11.528  35.431  11.107
57682W        W24091  28.487   2.267   0.469
57683W        W24092  40.362  10.410   2.668
57684W        W24093   3.297   8.598   0.883
57685W        W24094   9.410  31.627   4.536
57686W        W24095  10.300  40.701  12.393
57687W        W24096  19.605  31.108  10.433
57688W        W24097  41.741  20.170   0.930
57689W        W24098  35.895  40.354   1.157
57690W        W24099  17.176  37.052   5.528
57691W        W24100   7.732  14.097  10.329
57692W        W24101  36.911  20.585   4.546
57693W        W24102  16.726  36.256   2.782
57694W        W24103  16.703   3.920   2.273
57695W        W24104  17.775  36.014  13.937
57696W        W24105  24.101  14.298   3.767
57697W        W24106  31.433  33.051   0.358
57698W        W24107  41.108  15.442  11.216
57699W        W24108   2.748  34.112   3.561
57700W        W24109   3.279   6.188   2.138
57701W        W24110  29.912  24.160  13.213
57702W        W24111  29.564  14.218  13.741
57703W        W24112  30.061  34.708  12.955
57704W        W24113  26.566  25.999  13.425
57705W        W24114  22.942  40.420  11.205
57706W        W24115  23.970  30.981  14.562
57707W        W24116  34.475   6.631   3.529
57708W        W24117  43.548  43.810   1.011
57709W        W24118  21.506  42.334  14.893
57710W        W24119  32.746  42.514   2.043
57711W        W24120  11.672  31.599  11.647
57712W        W24121  11.733  22.813  12.255
57713W        W24122  23.307  25.587  12.350
57714W        W24123  12.342  10.129   3.676
57715W        W24124   0.407  29.755   2.049
57716W        W24125  30.121  21.054  12.684
57717W        W24126  43.932  22.257   1.443
57718W        W24127  22.134  24.457  14.008
57719W        W24128  41.893  24.553   2.300
57720W        W24129  16.858  20.503  10.908
57721W        W24130  31.652  24.038   1.207
57722W        W24131  39.579  19.194   4.711
57723W        W24132  31.101  39.612  10.862
57724W        W24133   0.994  10.208  11.318
57725W        W24134  14.675  33.446  11.710
57726W        W24135  31.020  14.626   0.223
57727W        W24136   6.270  40.435  13.753
57728W        W24137   7.839  11.926  12.536
57729W        W24138  22.061   2.734   0.407
57730W        W24139  41.606  33.118  13.920
57731W        W24140  44.057   2.203   1.335
57732W        W24141  17.633  44.990  14.494
57733W        W24142   3.781   5.995  13.389
57734W        W24143  28.023  38.318  12.932
57735W        W24144   7.517  41.010  12.844
57736W        W24145  16.888  16.718  12.481
57737W        W24146  23.953  30.680  14.154
57738W        W24147  44.793   7.367  13.952
57739W        W24148  38.115  43.082   4.232
57740W        W24149  36.253  38.884  11.168
57741W        W24150   2.849   2.746   0.819
57742W        W24151  32.087  22.237   1.385
57743W        W24152   0.430  40.429  11.061
57744W        W24153  24.458  15.856  13.090
57745W        W24154  38.381  33.662  10.301
57746W        W24155  38.599  19.650  11.060
57747W        W24156  30.946  31.924   0.027
57748W        W24157  25.032  17.453  12.035
57749W        W24158  15.995  36.748   4.263
57750W        W24159  19.679  43.528   3.760
57751W        W24160  12.095  42.244   0.362
57752W        W24161  35.878   3.411  14.896
57753W        W24162   9.559  11.825   1.070
57754W        W24163  32.784  35.056   1.307
57755W        W24164  35.828  23.216   1.478
57756W        W24165  15.708  41.639   5.332
57757W        W24166  43.932  33.938  12.866
57758W        W24167  13.072  22.272  12.051
57759W        W24168   0.052   9.337   0.019
57760W        W24169  30.862  23.656   4.248
57761W        W24170  20.726  28.907   2.781
57762W        W24171  27.424   0.279  13.979
57763W        W24172  28.727   5.834   0.218
57764W        W24173  34.628  17.844  13.073
57765W        W24174  28.129  27.446  14.736
57766W        W24175  10.311  44.715   0.283
57767W        W24176  43.074   7.683  14.939
57768W        W24177  39.626  19.584  14.423
57769W        W24178  27.721   7.418  11.809
57770W        W24179  37.941  32.228  11.032
57771W        W24180  40.050   2.215  11.256
57772W        W24181  12.927  25.269   0.875
57773W        W24182  26.959  31.877  10.751
57774W        W24183   7.320  26.926   2.640
57775W        W24184   2.392  31.712  14.873
57776W        W24185  26.232  35.066  12.567
57777W        W24186   0.509  38.044  12.190
57778W        W24187   1.009  42.565   2.708
57779W        W24188  25.957   8.241   1.177
57780W        W24189   3.857  44.428  11.613
57781W        W24190  29.966  23.040  12.375
57782W        W24191  40.073  21.942  12.007
57783W        W24192  34.880  30.488  11.160
57784W        W24193  14.139  14.292  12.741
57785W        W24194  37.853  11.849   1.534
57786W        W24195  31.435  28.106  12.396
57787W        W24196   5.848  21.120   3.779
57788W        W24197  17.751  15.020  12.019
57789W        W24198  15.707  36.342   9.972
57790W        W24199  21.497  37.386   0.648
57791W        W24200  23.789  42.527   2.474
57792W        W24201  29.365  13.800  10.887
57793W        W24202  29.608  37.941   0.239
57794W        W24203   5.067  23.537   4.189
57795W        W24204  20.936  37.363  13.723
57796W        W24205  16.557  22.789   0.783
57797W        W24206  16.505  19.468  11.586
57798W        W24207   8.931  25.441  12.176
57799W        W24208  17.266   5.240  13.465
57800W        W24209  24.964  34.484  11.324
57801W        W24210  13.875  23.880   1.670
57802W        W24211  24.781   5.388  11.078
57803W        W24212   4.655  14.753   3.324
57804W        W24213   4.002   2.466   0.462
57805W        W24214  34.050  24.244  12.541
57806W        W24215  41.930  13.350  13.886
57807W        W24216  27.143  17.585   4.984
57808W        W24217  38.597  16.086  14.706
57809W        W24218  28.665  27.382   0.832
57810W        W24219  13.603  37.405   1.151
57811W        W24220  31.881  37.134   2.946
57812W        W24221  27.235  14.347  13.591
57813W        W24222   2.874  15.138   1.178
57814W        W24223  36.095  36.938  13.937
57815W        W24224   7.911  33.412   0.953
57816W        W24225  11.819  44.420  13.111
57817W        W24226  13.554  36.840   0.730
57818W        W24227  15.247   1.258   4.592
57819W        W24228  19.550  11.951  10.769
57820W        W24229  42.981  35.364  14.544
57821W        W24230  28.548  30.251   2.220
57822W        W24231  38.317  42.593  11.562
57823W        W24232  38.749  30.992  12.921
57824W        W24233  36.522  14.456   1.965
57825W        W24234  13.858   3.930   1.564
57826W        W24235  33.193  36.928   4.138
57827W        W24236  39.677  41.952   1.696
57828W        W24237  41.635  41.761   4.143
57829W        W24238  11.315  35.504   2.871
57830W        W24239  44.714  10.221  12.013
57831W        W24240  23.550  27.712  12.454
57832W        W24241  28.113  13.097   4.707
57833W        W24242  23.501  21.025   4.263
57834W        W24243  35.865  43.856   2.684
57835W        W24244  36.130  18.830  11.490
57836W        W24245   2.772  31.822   4.172
57837W        W24246  13.699  35.636  12.005
57838W        W24247  14.917  24.527   1.734
57839W        W24248  32.273  37.390  13.708
57840W        W24249  16.303  10.859   0.216
57841W        W24250  29.182  11.838  11.227
57842W        W24251  18.703  14.431  10.301
57843W        W24252  34.616  20.793  14.736
57844W        W24253  25.202  25.955   3.106
57845W        W24254  33.996  42.328  14.601
57846W        W24255  24.175   9.621  14.367
57847W        W24256  42.074  37.005  13.447
57848W        W24257  22.097  19.716  12.125
57849W        W24258  18.780  26.712   0.283
57850W        W24259  35.144  37.655  11.939
57851W        W24260  42.657  44.815   0.040
57852W        W24261  28.593   5.972   1.464
57853W        W24262  44.788  40.348  14.694
57854W        W24263  40.558   0.756   3.766
57855W        W24264  12.649   9.428  13.827
57856W        W24265  43.904  16.398  13.358
57857W        W24266   8.332  26.296   3.705
57858W        W24267  17.054  43.870  13.810
57859W        W24268  13.264  28.115  10.092
57860W        W24269   0.266  39.453  12.676
57861W        W24270  16.664  29.508  11.783
57862W        W24271  30.563  42.865  11.090
57863W        W24272  30.252  16.422  11.964
57864W        W24273  44.305   8.613   2.419
57865W        W24274  22.570  37.021   1.685
57866W        W24275  43.883   0.250  11.487
57867W        W24276  19.820  42.980   1.254
57868W        W24277   4.875  35.324  13.866
57869W        W24278  36.624   7.259  12.816
57870W        W24279  44.159  41.102  12.024
57871W        W24280   2.984  14.329   3.147
57872W        W24281  29.688  18.817   2.164
57873W        W24282   2.308  11.868   9.882
57874W        W24283  36.984  26.167   4.555
57875W        W24284   4.889  25.590  14.619
57876W        W24285  28.676  25.630  12.443
57877W        W24286   3.704  42.857   3.313
57878W        W24287   1.703   7.163   2.843
57879W        W24288   8.418  19.706  12.564
57880W        W24289   4.323  18.580   1.736
57881W        W24290   5.629  40.011  14.878
57882W        W24291  12.033  21.440  11.927
57883W        W24292  35.074  40.984   4.135
57884W        W24293   8.132  15.012  11.646
57885W        W24294  32.809  14.936   4.181
57886W        W24295  38.465  30.066  14.817
57887W        W24296  24.076  18.503   1.524
57888W        W24297   0.462  30.677   3.662
57889W        W24298  25.010  14.782  13.772
57890W        W24299  38.021   3.412  11.121
57891W        W24300  39.938  14.602  12.780
57892W        W24301   9.549  11.740   1.574
57893W        W24302   0.275  33.416  11.221
57894W        W24303  42.887  15.627   3.632
57895W        W24304  11.238  26.496   0.669
57896W        W24305  33.853   8.803  11.381
57897W        W24306  35.458  22.527  13.902
57898W        W24307  15.578  37.592  12.651
57899W        W24308  21.040  23.670   1.420
57900W        W24309   9.896  23.006  11.436
57901W        W24310  19.880  14.907  11.667
57902W        W24311  22.046  22.987   1.725
57903W        W24312  20.136  30.648   4.590
57904W        W24313  14.658   4.900   1.205
57905W        W24314  31.853  20.259   1.230
57906W        W24315  42.437   4.238  14.031
57907W        W24316  38.957  28.253  14.051
57908W        W24317  25.632  13.342   2.865
57909W        W24318  12.924  44.748   3.288
57910W        W24319  42.256  19.169   3.630
57911W        W24320  16.239   1.408   3.188
57912W        W24321  29.198  12.390   1.347
57913W        W24322  23.206  20.082  11.819
57914W        W24323  43.260   2.275  10.666
57915W        W24324  31.713  11.368   1.348
57916W        W24325  15.717   8.265  13.384
57917W        W24326  30.413  20.168   3.717
57918W        W24327  37.766  32.045   1.833
57919W        W24328  40.355  10.846   1.688
57920W        W24329   3.466  13.785   4.271
57921W        W24330  12.823  41.039  12.672
57922W        W24331   3.001  21.183  13.815
57923W        W24332  24.841  24.473   2.263
57924W        W24333  23.664  22.021  11.732
57925W        W24334  21.883  30.672  13.328
57926W        W24335  13.276  43.376  14.685
57927W        W24336  10.231   9.472  11.992
57928W        W24337  27.562  33.112   1.285
57929W        W24338  28.448  34.646  10.288
57930W        W24339  41.055  32.050  12.003
57931W        W24340  31.801  36.990  11.137
57932W        W24341   3.346  35.991   0.942
57933W        W24342  27.758  12.696   2.882
57934W        W24343  10.679  27.153  13.810
57935W        W24344  11.659   1.342   1.132
57936W        W24345   3.427  31.251   4.094
57937W        W24346  25.042   1.057   1.770
57938W        W24347   0.894   0.850  13.342
57939W        W24348  34.732   6.895  11.999
57940W        W24349  11.230   4.481  13.509
57941W        W24350  26.151  16.647  14.672
57942W        W24351  22.947  40.738  11.605
57943W        W24352  44.961  21.754   2.242
57944W        W24353  14.161   2.494  11.134
57945W        W24354  33.989  27.483   4.829
57946W        W24355  40.425  44.052   4.615
57947W        W24356  38.461  27.751  12.472
57948W        W24357  38.383  30.921   0.710
57949W        W24358   3.016  23.566  13.267
57950W        W24359   8.378  22.068  11.709
57951W        W24360  26.682  17.428  12.512
57952W        W24361  22.970  15.750   2.287
57953W        W24362  41.684  16.285  12.474
57954W        W24363  36.387  44.212  13.919
57955W        W24364  44.225  38.786   0.309
57956W        W24365  18.270  34.957   2.355
57957W        W24366   5.761  23.637   0.702
57958W        W24367  24.999  38.538   1.139
57959W        W24368  17.144   0.282   0.317
57960W        W24369  42.495  12.433   0.711
57961W        W24370  13.757  35.856  11.543
57962W        W24371  12.939  20.606  14.488
57963W        W24372  44.795   4.024  13.368
57964W        W24373  25.658  17.801   1.373
57965W        W24374  31.187  16.452  11.156
57966W        W24375  32.489  36.063   1.180
57967W        W24376  25.326  25.441  12.929
57968W        W24377  37.543  23.925  12.543
57969W        W24378  37.325  20.532   2.751
57970W        W24379  13.904   6.216   1.215
57971W        W24380  40.570  31.608   1.032
57972W        W24381   4.485  37.112   4.482
57973W        W24382  30.553   9.401   4.193
57974W        W24383  30.449  25.665   1.688
57975W        W24384  24.517   0.251   2.781
57976W        W24385  19.200   2.302  11.425
57977W        W24386  44.454   1.905   1.516
57978W        W24387  39.355  44.046  12.580
57979W        W24388   4.231  18.254   0.336
57980W        W24389  40.859   4.643   1.077
57981W        W24390  19.828  30.969   0.262
57982W        W24391  23.216  11.450  13.947
57983W        W24392  30.928  10.343  10.715
57984W        W24393   2.278  16.326   1.713
57985W        W24394  16.755   7.952   4.657
57986W        W24395  40.864  13.331   2.341
57987W        W24396  32.377   1.053  12.073
57988W        W24397  17.115   6.898  14.005
57989W        W24398   3.774   9.736   1.772
57990W        W24399  23.585  25.826   9.538
57991W        W24400  35.503   4.654   2.414
57992W        W24401  11.792  43.446   0.374
57993W        W24402  43.904  29.615  10.658
57994W        W24403  16.789  28.949   4.568
57995W        W24404  15.101  26.069   4.653
57996W        W24405  23.545   9.872  14.462
57997W        W24406  34.181  10.811   3.895
57998W        W24407   2.845  10.336   1.695
57999W        W24408   6.954  27.426   0.695
58000W        W24409  12.324  22.097   2.419
58001W        W24410  15.117  35.343   1.563
58002W        W24411  33.603  31.404   1.438
58003W        W24412  21.253  35.903  10.777
58004W        W24413   8.229  13.074   0.143
58005W        W24414  36.991  25.153   1.510
58006W        W24415  43.354  20.091   2.896
58007W        W24416  42.537   4.818  13.548
58008W        W24417  33.453   2.516  12.145
58009W        W24418   6.952  26.162   9.850
58010W        W24419  11.704  35.286  14.075
58011W        W24420  27.151  29.920   2.970
58012W        W24421  26.483  37.370  14.372
58013W        W24422  11.053  25.553   4.193
58014W        W24423  19.756  17.402   2.000
58015W        W24424  24.078   0.833   0.484
58016W        W24425   6.355   9.700   0.812
58017W        W24426  44.039  44.374  11.908
58018W        W24427  18.880  33.327  14.828
58019W        W24428  14.268  27.230  11.971
58020W        W24429  14.484   4.661  13.478
58021W        W24430  32.858  44.515   1.987
58022W        W24431   5.153   9.124  11.327
58023W        W24432  16.224   5.139  13.622
58024W        W24433  36.221  15.191   0.709
58025W        W24434  21.150  35.964   1.859
58026W        W24435  13.420  18.835  13.039
58027W        W24436  40.448  20.275  11.266
58028W        W24437  12.611   5.334   1.777
58029W        W24438   3.157   0.946   0.646
58030W        W24439  43.743  40.518  13.340
58031W        W24440  29.864  24.639  12.979
58032W        W24441  11.227  36.058  13.109
58033W        W24442  19.687  28.439   0.873
58034W        W24443   5.437  18.367  12.367
58035W        W24444  37.576  13.998  13.876
58036W        W24445  35.104  27.037  12.137
58037W        W24446  37.546  31.999   1.009
58038W        W24447   7.643  36.498   4.825
58039W        W24448  13.769  21.514  14.747
58040W        W24449  16.205  21.783   0.789
58041W        W24450  11.090  27.220  12.585
58042W        W24451   0.062  41.076  13.018
58043W        W24452  18.790   3.044  11.133
58044W        W24453  19.924  12.189   0.227
58045W        W24454   5.816  41.433  14.829
58046W        W24455   3.844  34.411   1.144
58047W        W24456  42.919  11.264  14.121
58048W        W24457  15.844  11.890  12.451
58049W        W24458  36.774  12.758  13.088
58050W        W24459  17.476  18.816  11.947
58051W        W24460  10.757  34.117   1.749
58052W        W24461  24.688  43.350   2.789
58053W        W24462  17.499  13.363  12.591
58054W        W24463  26.619  36.917   2.741
58055W        W24464  17.241  15.587   4.622
58056W        W24465   2.505  20.357  13.887
58057W        W24466   8.794  19.856  13.908
58058W        W24467  34.762   7.432  14.833
58059W        W24468   9.667  36.562   4.237
58060W        W24469  12.026  24.798   3.189
58061W        W24470   5.020  35.447   0.341
58062W        W24471   1.607  16.397   4.292
58063W        W24472  39.066  39.637  14.172
58064W        W24473  23.547   9.902  10.732
58065W        W24474  22.228   7.615  12.421
58066W        W24475   2.615  40.449   3.274
58067W        W24476  25.150  17.485  12.857
58068W        W24477  10.201  13.298  10.259
58069W        W24478  29.056  24.903   3.674
58070W        W24479  42.986  12.686   2.727
58071W        W24480  19.676  21.024   2.356
58072W        W24481  40.288  22.571   4.087
58073W        W24482  32.059  39.873   1.236
58074W        W24483  40.295  18.574   1.436
58075W        W24484  23.783  34.055   1.366
58076W        W24485   4.881  23.604  11.992
58077W        W24486  28.785   5.355   4.097
58078W        W24487  10.581   6.213  13.423
58079W        W24488  30.147  42.238   4.622
58080W        W24489  11.766  21.798  11.092
58081W        W24490  28.890  12.679  11.407
58082W        W24491  17.005  22.625  11.893
58083W        W24492  14.308  18.119   1.679
58084W        W24493  10.101   2.018  11.203
58085W        W24494  23.967  35.521  13.853
58086W        W24495  32.957  11.758   1.391
58087W        W24496   8.073   5.318   2.001
58088W        W24497  24.144   0.831   4.872
58089W        W24498  25.535  19.427   0.034
58090W        W24499   9.950  11.067  12.490
58091W        W24500  29.901  14.033  14.816
58092W        W24501  23.611   8.016   4.139
58093W        W24502  30.095   2.983  14.100
58094W        W24503  17.322  22.569  13.146
58095W        W24504  39.029   0.221   2.046
58096W        W24505   6.425  28.636   1.440
58097W        W24506   6.767  16.854   4.149
58098W        W24507  27.558  30.464  11.911
58099W        W24508  24.644  43.642  11.157
58100W        W24509   9.165   5.177   3.212
58101W        W24510  27.881  30.145  13.583
58102W        W24511   4.187  26.987   3.556
58103W        W24512   3.220  18.771   2.253
58104W        W24513  38.895  16.883  11.452
58105W        W24514  26.648  20.692  11.430
58106W        W24515  17.062  25.049   3.705
58107W        W24516  15.222  37.307  11.938
58108W        W24517   0.217  27.065   0.834
58109W        W24518  23.098  20.209   1.358
58110W        W24519  36.037  15.029  13.885
58111W        W24520   4.176   3.016   4.833
58112W        W24521  18.439   1.797  11.216
58113W        W24522  41.545  14.187  10.708
58114W        W24523  19.038  23.601  11.181
58115W        W24524  38.440  14.141   0.262
58116W        W24525  33.651  35.026  13.171
58117W        W24526  18.326   5.032  12.096
58118W        W24527  42.372  34.362   0.421
58119W        W24528   4.872   0.290  12.329
58120W        W24529  14.835   6.402   0.437
58121W        W24530  10.424  29.464  13.609
58122W        W24531  27.619  28.972   1.201
58123W        W24532   4.011  25.086  11.553
58124W        W24533  16.606   0.205  13.050
58125W        W24534  37.159  30.056  14.068
58126W        W24535  31.841   9.357  12.102
58127W        W24536  24.694  34.873  12.930
58128W        W24537  18.121  23.492  13.884
58129W        W24538  17.433   1.925   2.156
58130W        W24539  35.990  13.741   3.567
58131W        W24540   2.317  36.663  13.377
58132W        W24541  21.964   0.180   4.173
58133W        W24542  16.921  13.328  13.506
58134W        W24543  19.487  30.817   1.870
58135W        W24544  25.310  14.089  13.331
58136W        W24545   2.688  26.359  13.061
58137W        W24546  38.864  29.637   2.239
58138W        W24547   7.719   3.988   2.022
58139W        W24548  23.716  38.392  11.632
58140W        W24549  17.634  27.418   4.230
58141W        W24550  22.687  34.109  14.728
58142W        W24551  11.201  44.513  11.816
58143W        W24552  38.286  25.374  14.842
58144W        W24553  41.648   9.874   2.706
58145W        W24554  19.147  12.230  10.611
58146W        W24555  34.929   5.233  10.582
58147W        W24556  38.120  25.397   1.811
58148W        W24557  11.198  39.949   2.720
58149W        W24558  19.698  13.069   1.387
58150W        W24559  11.994  32.141  13.510
58151W        W24560  20.522  23.003   2.265
58152W        W24561  28.713  10.252  14.372
58153W        W24562   6.766  14.632   4.647
58154W        W24563  18.643  43.317   4.721
58155W        W24564  29.049  41.781  14.666
58156W        W24565  12.641   7.734   0.240
58157W        W24566  23.735  27.359   1.672
58158W        W24567  19.063  18.570   4.938
58159W        W24568  24.615   4.990  10.261
58160W        W24569  23.766  20.701   2.870
58161W        W24570  40.090  29.742  12.873
58162W        W24571  13.618  32.422   9.833
58163W        W24572   8.826  15.108  10.654
58164W        W24573   8.204  14.312  10.400
58165W        W24574   4.438  38.301   3.121
58166W        W24575   1.794  12.402   4.532
58167W        W24576  16.780  15.953   0.730
58168W        W24577  15.168  33.263  11.761
58169W        W24578  18.051   4.909   3.150
58170W        W24579  39.930  24.674  10.732
58171W        W24580  33.096  33.656   0.306
58172W        W24581  37.973  22.643  14.235
58173W        W24582  39.729  39.194   4.190
58174W        W24583   3.652  25.902  14.112
58175W        W24584  40.708   9.240  14.158
58176W        W24585  32.456  39.894   2.994
58177W        W24586  39.442  41.318   3.293
58178W        W24587  32.667  20.053   4.494
58179W        W24588  22.947  19.354   0.841
58180W        W24589   2.600  26.003   2.189
58181W        W24590  13.597   8.875  11.292
58182W        W24591   5.530  13.165   2.619
58183W        W24592  33.386   7.242  14.512
58184W        W24593  20.181  39.867   4.033
58185W        W24594   3.929  34.599   2.210
58186W        W24595  19.602  18.626   1.344
58187W        W24596   1.476   9.933  11.988
58188W        W24597  25.733  35.629   1.626
58189W        W24598   4.195  18.306   4.912
58190W        W24599   6.000  18.750   1.464
58191W        W24600  17.759  21.247  12.074
58192W        W24601  40.579  25.434  14.418
58193W        W24602  30.718  19.658   0.537
58194W        W24603  28.885  44.026  11.011
58195W        W24604  33.189  33.844  12.101
58196W        W24605  11.146  33.838  10.536
58197W        W24606  16.587  24.430  10.705
58198W        W24607  15.911  12.569  13.918
58199W        W24608  14.129  23.196  13.488
58200W        W24609  20.959  31.483  11.334
58201W        W24610  16.314  25.100   1.033
58202W        W24611   0.264  17.373  11.611
58203W        W24612  36.770  41.813   3.113
58204W        W24613  22.711  21.720  12.870
58205W        W24614   9.193   8.753   0.503
58206W        W24615  36.476  41.329   1.363
58207W        W24616  44.981  26.005  13.864
58208W        W24617  19.281  32.294   0.556
58209W        W24618  10.882  20.590  11.654
58210W        W24619  42.522  28.056   1.342
58211W        W24620  11.552  28.494  11.574
58212W        W24621  25.557  44.323   4.179
58213W        W24622  33.792  26.003   0.937
58214W        W24623  23.718  40.548  13.921
58215W        W24624  29.714  34.456   5.064
58216W        W24625  44.351  42.537   4.330
58217W        W24626  13.655  19.002  11.515
58218W        W24627  18.691  14.787  13.794
58219W        W24628  42.763  40.069   0.499
58220W        W24629  39.864  10.015   4.475
58221W        W24630  37.462   6.494  11.218
58222W        W24631  32.128  37.547  12.864
58223W        W24632   5.274  13.171   2.057
58224W        W24633  18.552   0.464  14.571
58225W        W24634  38.428  36.456  11.257
58226W        W24635  21.677  36.032  13.575
58227W        W24636  35.363  29.548  12.121
58228W        W24637  21.473   0.462   1.380
58229W        W24638   1.427  43.777  12.557
58230W        W24639  43.416  30.101  11.235
58231W        W24640  17.377  42.878  14.917
58232W        W24641  37.023  21.745  10.572
58233W        W24642  18.014   2.820  13.470
58234W        W24643  44.543  13.620  13.745
58235W        W24644  28.034  39.506   3.837
58236W        W24645  39.004  41.871  11.935
58237W        W24646  30.611  25.765   2.689
58238W        W24647  13.837   6.476   0.361
58239W        W24648  29.903  34.025   1.645
58240W        W24649   2.462  28.990  13.138
58241W        W24650  12.467  34.128  10.320
58242W        W24651  35.991  16.310  12.056
58243W        W24652  40.557  42.789   0.518
58244W        W24653   6.939  30.602  14.777
58245W        W24654   0.432  27.891  11.986
58246W        W24655   7.326  15.358  13.321
58247W        W24656   6.974  36.971  13.872
58248W        W24657   8.278  17.050  12.430
58249W        W24658  34.126  21.217   2.225
58250W        W24659  20.606  37.495  12.531
58251W        W24660  22.624  34.342  10.723
58252W        W24661  31.429  17.424  14.620
58253W        W24662  43.857  13.467  12.533
58254W        W24663  28.464   2.055  12.838
58255W        W24664  43.232   8.530  10.709
58256W        W24665   7.309  44.054   1.313
58257W        W24666  19.289  22.591  14.032
58258W        W24667   9.813   1.532   0.183
58259W        W24668  32.060  24.907   0.761
58260W        W24669  44.946  13.162  10.560
58261W        W24670  30.653  36.542  14.769
58262W        W24671  10.685  43.025  14.197
58263W        W24672  31.501  24.652  13.745
58264W        W24673  26.028   2.902   2.933
58265W        W24674  37.261  36.867  12.138
58266W        W24675  39.112  15.859  11.493
58267W        W24676   5.246  37.924  10.886
58268W        W24677  41.046  24.293   0.455
58269W        W24678   2.453  39.917  12.582
58270W        W24679  41.732  25.145  10.628
58271W        W24680  25.302  20.423   0.660
58272W        W24681  17.598   8.400  12.062
58273W        W24682  31.921   0.351   1.225
58274W        W24683  44.464  15.997   1.349
58275W        W24684  21.121  14.838  14.294
58276W        W24685  42.583  29.449  13.007
58277W        W24686  23.779  31.147   1.644
58278W        W24687   2.332  16.326  10.619
58279W        W24688   3.715  24.662  14.919
58280W        W24689  26.014  14.075  12.003
58281W        W24690   1.408  44.010  13.431
58282W        W24691   0.659  23.132   3.139
58283W        W24692  31.524  37.562  14.485
58284W        W24693  40.431  10.083   5.174
58285W        W24694  36.791  41.522  13.357
58286W        W24695  37.346  21.277   4.160
58287W        W24696  17.230  23.303  11.387
58288W        W24697   7.894  20.982  13.589
58289W        W24698   7.943  23.080  11.605
58290W        W24699  35.118  22.915  13.998
58291W        W24700  16.145  17.685   3.703
58292W        W24701  42.358   7.790   1.249
58293W        W24702  43.277   2.784   3.416
58294W        W24703  27.543  17.246   4.914
58295W        W24704  28.836  27.535  11.537
58296W        W24705  20.519  41.904  13.949
58297W        W24706  10.578   7.553   2.197
58298W        W24707  13.173  15.693   9.912
58299W        W24708  29.604  41.847  11.078
58300W        W24709   7.002  25.401   4.081
58301W        W24710  20.603   8.751  14.266
58302W        W24711   3.772  36.988  14.785
58303W        W24712   0.210  17.055   3.203
58304W        W24713  39.372   5.408   2.244
58305W        W24714  23.314   1.952  14.803
58306W        W24715  43.478  39.854   1.211
58307W        W24716   3.799  19.184   0.634
58308W        W24717  36.319   5.030   4.167
58309W        W24718   0.875  16.842   0.439
58310W        W24719  31.705  32.919   3.917
58311W        W24720  40.279   8.446  14.280
58312W        W24721  29.729   6.132  12.141
58313W        W24722   3.662  19.778   1.844
58314W        W24723  12.223   9.438   1.568
58315W        W24724  29.321   8.201   5.229
58316W        W24725  25.982  24.983  11.088
58317W        W24726  43.471  10.305  11.474
58318W        W24727  10.419  22.917   0.796
58319W        W24728  13.993  35.023  13.894
58320W        W24729  35.702  14.337   0.607
58321W        W24730  39.499  28.451  12.162
58322W        W24731  13.328  14.329  12.949
58323W        W24732  30.084  19.577  11.886
58324W        W24733  11.267  40.043   1.756
58325W        W24734  24.543  32.592  13.054
58326W        W24735  40.990  33.957  10.799
58327W        W24736  36.970   6.461  11.627
58328W        W24737   8.711  43.290   4.941
58329W        W24738  43.260  12.533  13.805
58330W        W24739  30.730  33.937  11.496
58331W        W24740   8.319  21.067   0.906
58332W        W24741  27.253   9.891  13.769
58333W        W24742  37.066  42.953   4.994
58334W        W24743  44.430  23.654   3.184
58335W        W24744  22.508  23.537   1.341
58336W        W24745  11.860  10.401   0.393
58337W        W24746  22.456   5.291   1.397
58338W        W24747  20.651   8.304   4.799
58339W        W24748  20.535  31.668  10.963
58340W        W24749   2.240  36.145   0.771
58341W        W24750  23.564  32.120  12.050
58342W        W24751  41.507   1.269  14.449
58343W        W24752  15.014  39.884  12.985
58344W        W24753  16.927  33.184   0.075
58345W        W24754  38.898  22.036   0.248
58346W        W24755  31.027  38.343   4.167
58347W        W24756  43.245  44.031   2.362
58348W        W24757  33.105  20.865  13.977
58349W        W24758  22.016  21.218   2.286
58350W        W24759  42.177  26.416  12.324
58351W        W24760  21.048  38.358   4.025
58352W        W24761  21.992  10.620  10.499
58353W        W24762  31.957   5.198  11.258
58354W        W24763  42.260  14.811  11.075
58355W        W24764   3.954  10.907  10.576
58356W        W24765  35.741  40.258  14.827
58357W        W24766  41.349  20.621   4.747
58358W        W24767  18.580   8.091   2.369
58359W        W24768  10.284  15.676  15.000
58360W        W24769  28.382  34.313  14.242
58361W        W24770  43.485  32.839  12.140
58362W        W24771  29.591  22.898  11.547
58363W        W24772  17.206  23.209  13.809
58364W        W24773   9.546  27.828  10.048
58365W        W24774  29.624  35.447  12.595
58366W        W24775  36.201  21.224  12.953
58367W        W24776   6.073  27.682   0.938
58368W        W24777  34.609  37.156  13.986
58369W        W24778   4.998   2.341   3.056
58370W        W24779  27.909  36.780  14.477
58371W        W24780  25.158  19.156  12.453
58372W        W24781  42.252  32.384   1.514
58373W        W24782   9.256  21.647  13.340
58374W        W24783  15.407   9.839  13.492
58375W        W24784  12.435  18.622  13.041
58376W        W24785  25.298  39.263  14.470
58377W        W24786  17.016  15.277  14.971
58378W        W24787   1.922  22.627   3.377
58379W        W24788   3.508  20.733  14.820
58380W        W24789   1.313  27.391  12.206
58381W        W24790   2.998  25.599  11.209
58382W        W24791   2.510  24.074   3.820
58383W        W24792   8.584   5.608   1.772
58384W        W24793   0.869  39.725  11.990
58385W        W24794  20.685  31.023  12.859
58386W        W24795  43.834  43.714  14.826
58387W        W24796  33.484  30.979   2.379
58388W        W24797  23.248  30.623   0.769
58389W        W24798  25.432  24.999   3.119
58390W        W24799  11.204   0.445  14.911
58391W        W24800  43.242  29.908  10.784
58392W        W24801  24.340  25.057   2.226
58393W        W24802  44.253  35.804   0.848
58394W        W24803   7.321  20.421  12.324
58395W        W24804  22.569  20.677   2.398
58396W        W24805   1.161   7.838   0.916
58397W        W24806  37.331  23.961  11.032
58398W        W24807  10.219  30.423  10.918
58399W        W24808  43.468  41.944  11.894
58400W        W24809   1.286   9.729   0.438
58401W        W24810  23.535   2.192   3.668
58402W        W24811   3.372  11.617   1.958
58403W        W24812  36.947   0.538   0.453
58404W        W24813  16.599  43.212  10.899
58405W        W24814   6.320  12.781  11.421
58406W        W24815  27.362  16.129  12.402
58407W        W24816  22.033  21.035   3.084
58408W        W24817  15.393  10.523   0.051
58409W        W24818  18.060  43.101  13.639
58410W        W24819  22.766  16.655   4.579
58411W        W24820  15.529   7.500   4.965
58412W        W24821  15.819  13.041   0.429
58413W        W24822  31.055  24.921  13.850
58414W        W24823  37.925   2.634   0.437
58415W        W24824  41.961   6.122   2.124
58416W        W24825  27.505  16.985  10.671
58417W        W24826   5.277   0.838  14.341
58418W        W24827  13.198   2.124   4.061
58419W        W24828  24.589  26.192  14.741
58420W        W24829  12.569   7.152  13.294
58421W        W24830  21.540   7.269  10.665
58422W        W24831  23.218  31.892   3.717
58423W        W24832  40.351  38.300  11.979
58424W        W24833   9.168  39.777   4.700
58425W        W24834  16.123  16.736   0.880
58426W        W24835   8.357  23.108   3.157
58427W        W24836  39.808  15.180  14.515
58428W        W24837  43.867  27.756   2.176
58429W        W24838  37.869  26.165   0.540
58430W        W24839  27.831   2.525  11.073
58431W        W24840   8.921  34.469   2.237
58432W        W24841  26.023  30.551  12.048
58433W        W24842  15.248  16.495   4.684
58434W        W24843  20.244  12.950  11.024
58435W        W24844   7.684   7.703  13.347
58436W        W24845  30.505  13.349   1.288
58437W        W24846  22.658   9.630   0.915
58438W        W24847  14.794  29.584   2.770
58439W        W24848  21.269  18.786  11.681
58440W        W24849  35.116   4.717   0.765
58441W        W24850  29.357  24.307   3.801
58442W        W24851  22.395  37.984  11.642
58443W        W24852   5.356  17.654  11.273
58444W        W24853  18.721   9.056   2.204
58445W        W24854  20.319  21.137   4.104
58446W        W24855  43.032  29.088   2.323
58447W        W24856  25.525  12.460   2.502
58448W        W24857  32.361  34.702   0.455
58449W        W24858  29.864   6.049  12.699
58450W        W24859  29.564  34.899   2.808
58451W        W24860  22.271  35.558   2.899
58452W        W24861  22.662   0.413  14.972
58453W        W24862  32.893  10.636  11.630
58454W        W24863  38.900  12.596   3.129
58455W        W24864  14.347  20.187   4.203
58456W        W24865  21.230   9.310   0.786
58457W        W24866  38.326  35.702  14.383
58458W        W24867  38.073  42.969  14.899
58459W        W24868   7.831  15.484   1.296
58460W        W24869  34.627   5.380  14.984
58461W        W24870   6.019  37.363  11.470
58462W        W24871   6.682  32.079   0.335
58463W        W24872  20.999  35.481   3.769
58464W        W24873  36.128   6.756   0.481
58465W        W24874  42.156  30.448  11.507
58466W        W24875  33.905   4.289  13.807
58467W        W24876  27.593  30.992   1.648
58468W        W24877  29.910  23.138  14.276
58469W        W24878   5.752  37.898   0.415
58470W        W24879   2.972  35.063   2.182
58471W        W24880  13.448   6.886   0.358
58472W        W24881  15.650  33.915  12.860
58473W        W24882  43.502  22.087   3.223
58474W        W24883  33.531  23.563  11.474
58475W        W24884  20.560  12.062  14.412
58476W        W24885   8.103  40.453   2.732
58477W        W24886   9.640  41.013   0.883
58478W        W24887   2.705  11.839   2.718
58479W        W24888   6.677  29.208  12.834
58480W        W24889  38.345  20.668   3.734
58481W        W24890   5.290  40.019  11.886
58482W        W24891  19.280   9.396  14.171
58483W        W24892  34.941  30.169   3.543
58484W        W24893  42.463  22.289   3.222
58485W        W24894  35.142   4.908   2.638
58486W        W24895  11.608  19.059   3.623
58487W        W24896  12.343  35.998   3.706
58488W        W24897  13.181  18.360   0.876
58489W        W24898   3.422  24.705  10.677
58490W        W24899  26.964  35.036   3.686
58491W        W24900  13.810  24.665  14.312
58492W        W24901  30.526  10.044  10.647
58493W        W24902  19.748  31.647   1.607
58494W        W24903  24.547  16.506  14.399
58495W        W24904  42.977  34.115  14.758
58496W        W24905  24.428  26.869  10.388
58497W        W24906  34.027   8.314  13.872
58498W        W24907  22.553  21.110   4.859
58499W        W24908  20.665  38.571   3.713
58500W        W24909  30.508  33.541   0.462
58501W        W24910  37.403  37.040  11.294
58502W        W24911  29.537  34.877   4.265
58503W        W24912  35.326  10.328   0.971
58504W        W24913  36.562  32.378   3.767
58505W        W24914   9.832  36.629   4.713
58506W        W24915  41.825  36.325  11.483
58507W        W24916  14.003  25.606   2.063
58508W        W24917   6.895  31.378  13.658
58509W        W24918  14.285  10.382   1.873
58510W        W24919  19.749  32.622   1.332
58511W        W24920  19.683   6.111  14.391
58512W        W24921  27.478  15.513  11.020
58513W        W24922  34.095  25.453   2.100
58514W        W24923   5.596   6.969  12.019
58515W        W24924  42.543  28.362   0.071
58516W        W24925  25.039  33.872   0.804
58517W        W24926  36.489  25.126   4.547
58518W        W24927  27.972  26.068  13.388
58519W        W24928  12.303   6.740  13.507
58520W        W24929  21.015  28.043   1.697
58521W        W24930  19.151  16.619   1.630
58522W        W24931  13.354  18.536   2.229
58523W        W24932  16.548   2.253  11.442
58524W        W24933  35.491   1.914   0.040
58525W        W24934  39.078  22.785   3.894
58526W        W24935  12.636  21.295   4.201
58527W        W24936  29.464   1.304   2.327
58528W        W24937  22.461   7.704  10.509
58529W        W24938  24.201  35.483   2.652
58530W        W24939  39.138  27.946   1.369
58531W        W24940  40.747  31.385  13.999
58532W        W24941  19.022  15.419   1.212
58533W        W24942  31.110  18.344  13.454
58534W        W24943  36.832  41.800   0.497
58535W        W24944  41.659  18.721  14.981
58536W        W24945  27.517   5.631   1.035
58537W        W24946  16.748  30.711   0.333
58538W        W24947  27.805  15.361  11.964
58539W        W24948  33.907   0.041   0.780
58540W        W24949   2.221  35.707   2.425
58541W        W24950  25.613  33.651  10.765
58542W        W24951  17.638   8.130  11.554
58543W        W24952  17.561   2.545   2.853
58544W        W24953  44.970  34.507  13.765
58545W        W24954  13.575  22.310  12.734
58546W        W24955  18.886  37.643  13.962
58547W        W24956  36.594   7.268   1.357
58548W        W24957  30.533  29.656  12.455
58549W        W24958   1.939  41.157   3.604
58550W        W24959   6.207  24.388   0.985
58551W        W24960   9.060  39.459   2.385
58552W        W24961  19.589  13.741   4.821
58553W        W24962  10.115  27.519  12.432
58554W        W24963  22.713   1.453   4.083
58555W        W24964  19.777  31.182  12.864
58556W        W24965  35.214  41.054  14.798
58557W        W24966  41.510   8.400   0.010
58558W        W24967  32.693   2.895   4.508
58559W        W24968   0.682  30.323  13.568
58560W        W24969  41.435  36.514   0.908
58561W        W24970  44.233  19.288  12.040
58562W        W24971   4.903  31.009  12.184
58563W        W24972  25.871  17.051  14.490
58564W        W24973   3.391  11.100  11.151
58565W        W24974  11.918  18.580  11.083
58566W        W24975  29.975  17.202   0.984
58567W        W24976  21.769  28.511   4.398
58568W        W24977  33.310   1.842   3.291
58569W        W24978  26.644  30.906   2.062
58570W        W24979   8.727  22.860   2.400
58571W        W24980  29.540  37.854  10.887
58572W        W24981  15.026   7.137  12.009
58573W        W24982   8.435  35.002  11.346
58574W        W24983  43.507  19.854   0.650
58575W        W24984   0.247  32.874  12.932
58576W        W24985  18.697  17.312  10.420
58577W        W24986  12.516  34.635  13.361
58578W        W24987   4.993  20.765   3.913
58579W        W24988  23.030  37.994  12.872
58580W        W24989   9.394  32.862  14.009
58581W        W24990  39.962  26.477  14.765
58582W        W24991  15.733  28.644   3.913
58583W        W24992   1.473  12.662  14.526
58584W        W24993  41.457   7.306   0.318
58585W        W24994  21.843  13.546  11.196
58586W        W24995  24.703  25.266  14.771
58587W        W24996  21.453  43.486   2.322
58588W        W24997  41.905  40.309  10.164
58589W        W24998  20.321  27.683  11.218
58590W        W24999  35.928  28.133   1.122
58591W        W25000  34.364   7.636   1.735
58592W        W25001  24.190  39.365  12.934
58593W        W25002  41.259   7.968  13.462
58594W        W25003  25.144  12.027  12.189
58595W        W25004  31.829  38.988   4.315
58596W        W25005  24.917   7.910  11.964
58597W        W25006  32.109   9.850  11.092
58598W        W25007  11.160  24.439   3.246
58599W        W25008   1.730   4.155  14.306
58600W        W25009  41.094  29.455  13.813
58601W        W25010  25.556  35.864   1.124
58602W        W25011  40.534  44.044  14.546
58603W        W25012   5.395   5.220  13.417
58604W        W25013  31.713  10.366   4.194
58605W        W25014  31.663  12.177  13.964
58606W        W25015  16.732  23.632   1.049
58607W        W25016   1.133  22.474   1.552
58608W        W25017  22.745  41.320   0.478
58609W        W25018   4.490  39.549   0.002
58610W        W25019  16.369  10.415   3.617
58611W        W25020  19.067  20.572  14.050
58612W        W25021  20.100  20.997  10.847
58613W        W25022   9.300  29.587  12.824
58614W        W25023  41.973  13.277   1.788
58615W        W25024   0.073  32.554   3.817
58616W        W25025  36.000   9.938  14.847
58617W        W25026  10.804  29.256  12.496
58618W        W25027  44.748  29.966   0.315
58619W        W25028  28.639  39.982  11.539
58620W        W25029  14.248  16.524   4.804
58621W        W25030  37.294   4.525  11.118
58622W        W25031  20.547   2.817  10.756
58623W        W25032  35.533  43.387   4.607
58624W        W25033  13.491  25.138  14.961
58625W        W25034  17.103  38.495  12.682
58626W        W25035   4.738  42.383   4.191
58627W        W25036  25.220  20.745   3.535
58628W        W25037  22.720   8.064   0.732
58629W        W25038  36.401  38.371   3.403
58630W        W25039   4.865  39.456  10.553
58631W        W25040  15.635  24.808  10.717
58632W        W25041  28.137  25.462   1.364
58633W        W25042  43.871  37.115   4.144
58634W        W25043  11.319  26.497  10.922
58635W        W25044   2.780  27.869  12.440
58636W        W25045  23.051   8.763   4.442
58637W        W25046  18.041  27.940  14.987
58638W        W25047   0.280   0.294   4.394
58639W        W25048  43.452   2.757  10.707
58640W        W25049   9.743   2.747   2.305
58641W        W25050  19.572   4.101  10.626
58642W        W25051   7.187  34.183  11.892
58643W        W25052  40.911   6.292  11.903
58644W        W25053  41.362  15.802   3.126
58645W        W25054  38.746  25.081   4.654
58646W        W25055   8.866  35.685   0.800
58647W        W25056   4.046  24.951  10.719
58648W        W25057   8.379  36.130   4.638
58649W        W25058  40.364   1.236  13.336
58650W        W25059  17.242  24.131   1.151
58651W        W25060  16.013   6.701   0.860
58652W        W25061  41.311   8.263   0.844
58653W        W25062   3.279  41.862   1.232
58654W        W25063  35.581  24.049  11.109
58655W        W25064  40.147  21.314   1.328
58656W        W25065   0.972  36.974  14.244
58657W        W25066  28.485  18.231  13.944
58658W        W25067  31.500   8.829   0.945
58659W        W25068  10.505  19.195  11.124
58660W        W25069  21.353  30.439  14.004
58661W        W25070  29.049  26.779  13.545
58662W        W25071  20.836  10.358  11.838
58663W        W25072  20.033  38.623   1.562
58664W        W25073  14.582  40.001   3.361
58665W        W25074   0.393  42.297  10.864
58666W        W25075  20.024  22.178   2.353
58667W        W25076  14.771  31.657   3.206
58668W        W25077   9.187  21.999   1.245
58669W        W25078  26.480  11.316   2.881
58670W        W25079  11.802  41.046   4.633
58671W        W25080  32.356  41.075  13.913
58672W        W25081  17.329   7.146   1.831
58673W        W25082  33.477  41.806  10.398
58674W        W25083  30.122  32.535   0.418
58675W        W25084  24.664   6.599   3.841
58676W        W25085  35.379   9.028   4.844
58677W        W25086  35.081  13.546   1.469
58678W        W25087  34.691  32.988   1.364
58679W        W25088  26.618   6.216  14.013
58680W        W25089   7.312  44.625  10.678
58681W        W25090  23.823  32.523   1.846
58682W        W25091  27.481  12.591  12.493
58683W        W25092  42.354   1.790  13.517
58684W        W25093   1.358   4.926   0.866
58685W        W25094  20.164  37.544  14.817
58686W        W25095  43.849   8.835  12.463
58687W        W25096  13.256  12.843   3.688
58688W        W25097  43.949  40.517  13.839
58689W        W25098  44.938  38.844   1.351
58690W        W25099  26.483  24.838   3.264
58691W        W25100  16.323  42.150  10.949
58692W        W25101   0.545  29.957  14.863
58693W        W25102  40.825  32.442   3.560
58694W        W25103  12.765  18.609   1.537
58695W        W25104  32.911  13.211   3.688
58696W        W25105  26.180  18.032  14.531
58697W        W25106  24.981   0.854  11.684
58698W        W25107  29.377  31.087   2.201
58699W        W25108  38.602   0.373   4.707
58700W        W25109   9.117  44.284  11.847
58701W        W25110   2.972  17.100  11.128
58702W        W25111  27.646  42.958  14.073
58703W        W25112  17.704  30.192   0.132
58704W        W25113  25.572  36.643  12.477
58705W        W25114  37.523   0.329   4.894
58706W        W25115  35.608  30.565   3.890
58707W        W25116  29.974   8.455   1.705
58708W        W25117  27.518  42.764  12.011
58709W        W25118  37.421  41.601  12.042
58710W        W25119   7.280  11.433  14.911
58711W        W25120  28.146  44.284   3.723
58712W        W25121  39.355  40.051   3.816
58713W        W25122  41.400  40.840   1.001
58714W        W25123  36.284  40.948  12.471
58715W        W25124  10.297  13.273  14.157
58716W        W25125  32.586  26.169  13.862
58717W        W25126  33.451  24.253   2.744
58718W        W25127  38.287  31.472  14.652
58719W        W25128  11.659  27.871   4.483
58720W        W25129  41.473  17.252   1.821
58721W        W25130  42.869  42.065  14.884
58722W        W25131   6.346  11.734  11.674
58723W        W25132  32.524   8.652  14.418
58724W        W25133   3.424   1.811  10.794
58725W        W25134  42.391  24.439   1.964
58726W        W25135  34.108  16.840  12.585
58727W        W25136   0.903   6.752   0.038
58728W        W25137  20.917  16.745   4.216
58729W        W25138   6.459  36.192  11.973
58730W        W25139  35.089   7.858  14.050
58731W        W25140  37.428  17.198   3.220
58732W        W25141  31.605  34.058  10.983
58733W        W25142  27.085  20.965   0.931
58734W        W25143   9.646  25.547   4.659
58735W        W25144  16.656  25.515  14.026
58736W        W25145  19.658  38.253  12.700
58737W        W25146   0.013  29.572  13.590
58738W        W25147  35.829  20.127  11.038
58739W        W25148   9.116  42.026   4.701
58740W        W25149  19.575  20.182  14.252
58741W        W25150  20.325  20.611  11.565
58742W        W25151   0.200  12.216   0.222
58743W        W25152   2.863  32.634  10.438
58744W        W25153   6.848  36.070   4.097
58745W        W25154  35.410  17.892   0.245
58746W        W25155   8.606  12.273  10.533
58747W        W25156  35.394  10.721   1.304
58748W        W25157  35.814  34.903   3.693
58749W        W25158  29.872  38.277   3.788
58750W        W25159  25.807  25.273   2.755
58751W        W25160  30.141  35.368   2.318
58752W        W25161  41.322   3.919   4.192
58753W        W25162  37.878  32.954  14.331
58754W        W25163  40.916  24.667   4.598
58755W        W25164  40.879   8.811   2.332
58756W        W25165  33.519  31.188  11.584
58757W        W25166  38.922  11.610   2.240
58758W        W25167  42.545   9.699   0.742
58759W        W25168  30.048   9.895   0.945
58760W        W25169  44.833  24.213  14.583
58761W        W25170   1.043  43.072   1.960
58762W        W25171  43.422  17.861   4.525
58763W        W25172  38.616   3.818   1.173
58764W        W25173   1.248  12.819  14.998
58765W        W25174  25.583   4.391   2.029
58766W        W25175  15.213  24.694   2.105
58767W        W25176  22.193   0.415  11.038
58768W        W25177   4.721  22.765   0.938
58769W        W25178  23.661   1.464   2.352
58770W        W25179  23.646  41.674   4.129
58771W        W25180  28.992  13.251  13.633
58772W        W25181  40.818  41.560   1.549
58773W        W25182  16.188  19.586   3.759
58774W        W25183  14.542   5.223   1.578
58775W        W25184   5.983  15.835  14.528
58776W        W25185  29.634  44.555  13.384
58777W        W25186  25.962   4.695   4.805
58778W        W25187   7.202  18.999   2.206
58779W        W25188  44.943  39.886  14.823
58780W        W25189   7.322  24.920  14.387
58781W        W25190  39.423   6.417  11.621
58782W        W25191  33.694  13.727  11.633
58783W        W25192  19.254   8.184   3.077
58784W        W25193  16.274  27.664  12.349
58785W        W25194  14.212  38.270   0.276
58786W        W25195  39.725  26.323   1.772
58787W        W25196  43.400   6.986  10.720
58788W        W25197  26.090  29.458   4.786
58789W        W25198  24.603  25.213   0.288
58790W        W25199  21.216  12.682  11.176
58791W        W25200  21.304  37.024  13.910
58792W        W25201  43.510  13.968   2.715
58793W        W25202  28.584  29.124  14.743
58794W        W25203  33.390  42.496  12.474
58795W        W25204  38.782  20.620   0.238
58796W        W25205   1.481  22.670   4.167
58797W        W25206  19.524  29.581  14.480
58798W        W25207  27.706  35.295  12.558
58799W        W25208  22.584  27.697  13.219
58800W        W25209  40.556  10.402   0.403
58801W        W25210  10.128   4.460  12.861
58802W        W25211  32.492   9.835  14.081
58803W        W25212   5.153  25.239   0.696
58804W        W25213   3.429  13.534  11.075
58805W        W25214   1.448   8.597   5.033
58806W        W25215   4.812  34.376  13.763
58807W        W25216   4.335  44.441   0.709
58808W        W25217  43.307  12.358  14.318
58809W        W25218  21.241  27.513   1.710
58810W        W25219   1.763  29.632   3.244
58811W        W25220  22.480  26.962   0.864
58812W        W25221  12.212  16.790  13.744
58813W        W25222  21.673  33.319   3.772
58814W        W25223  16.862   6.668   1.259
58815W        W25224   6.578  42.560   2.852
58816W        W25225  44.804   6.580   3.925
58817W        W25226   6.223  19.435  10.279
58818W        W25227  30.894   3.415   1.960
58819W        W25228  34.357  19.726  10.721
58820W        W25229  18.376  36.976   9.864
58821W        W25230  33.332  19.547  10.774
58822W        W25231  36.665  13.815   4.595
58823W        W25232  41.799  27.845  14.871
58824W        W25233  24.522  38.778   4.888
58825W        W25234  22.212  14.099  12.427
58826W        W25235  18.334  16.902   4.126
58827W        W25236  24.817  42.973   4.001
58828W        W25237  31.577  18.231   2.320
58829W        W25238  38.612  20.658   4.619
58830W        W25239  27.113  43.170  11.979
58831W        W25240   9.233  41.069  14.475
58832W        W25241  32.356  18.970   1.195
58833W        W25242  19.308  34.545   0.955
58834W        W25243   9.283  44.357   4.232
58835W        W25244  28.451  39.412  14.989
58836W        W25245  31.134  21.053  12.871
58837W        W25246  39.914  14.419  10.802
58838W        W25247  33.933  39.544  11.490
58839W        W25248  12.641  43.811  11.207
58840W        W25249  11.873  39.900   9.785
58841W        W25250  43.970  36.082   0.303
58842W        W25251  33.464  34.950   3.603
58843W        W25252  36.407   9.135  14.713
58844W        W25253  38.811  19.605  11.886
58845W        W25254  13.693  36.015   0.960
58846W        W25255   9.372  42.840   0.307
58847W        W25256  34.993  43.884   3.101
58848W        W25257  40.702  43.237   2.691
58849W        W25258   0.463  10.621  10.293
58850W        W25259  41.150   3.296  13.331
58851W        W25260  27.060   0.458   0.818
58852W        W25261  12.126  37.138  10.418
58853W        W25262  20.002  22.630   2.639
58854W        W25263  39.315  41.301   2.170
58855W        W25264  38.097  36.025  13.963
58856W        W25265  38.370  12.955   0.856
58857W        W25266  43.080  37.985   1.703
58858W        W25267   9.097  43.414   4.628
58859W        W25268  37.852  32.126  12.975
58860W        W25269  33.087   0.741  14.426
58861W        W25270   2.737   3.227  14.427
58862W        W25271  27.418  20.447   3.099
58863W        W25272  39.543   9.208   2.535
58864W        W25273   0.012  27.734   1.110
58865W        W25274  32.001  24.753  13.981
58866W        W25275   9.432  18.878   2.741
58867W        W25276   9.751  38.570  12.067
58868W        W25277   0.266  16.042  13.758
58869W        W25278  32.386  33.414  13.874
58870W        W25279  11.311   9.099  14.327
58871W        W25280  20.755  28.444   0.714
58872W        W25281  23.498  10.380   0.895
58873W        W25282  29.678   7.195   0.358
58874W        W25283  37.538  29.728   2.668
58875W        W25284  36.053  31.902  13.406
58876W        W25285  41.452  35.091  14.874
58877W        W25286   6.296  43.732  12.031
58878W        W25287  36.537  18.060   0.263
58879W        W25288  11.501  44.628  13.905
58880W        W25289  30.466   1.480  13.966
58881W        W25290  13.014  10.579   1.823
58882W        W25291  17.783   4.226  12.387
58883W        W25292  38.622  39.095  14.455
58884W        W25293   9.919  14.271   2.350
58885W        W25294  17.248  32.968  13.802
58886W        W25295  12.714  26.483   3.110
58887W        W25296  44.961  11.767  12.927
58888W        W25297  16.057  18.618   0.713
58889W        W25298  11.444  31.545   2.673
58890W        W25299   5.860  30.015  12.051
58891W        W25300  25.009   4.736   2.668
58892W        W25301   0.759   3.876  14.793
58893W        W25302   3.885  14.580  10.791
58894W        W25303  23.172  14.471  12.522
58895W        W25304   3.132  27.573   4.764
58896W        W25305  38.457  42.991  14.481
58897W        W25306  21.107  23.965  10.854
58898W        W25307  42.238  40.028  11.511
58899W        W25308  17.276  40.507  10.539
58900W        W25309  16.719  16.136  12.878
58901W        W25310  25.793  22.157   3.284
58902W        W25311  19.692  20.126   3.294
58903W        W25312  30.930  31.992  12.063
58904W        W25313  25.076  30.303   1.093
58905W        W25314  25.548  40.909  10.743
58906W        W25315   2.597   3.898  11.625
58907W        W25316  43.479  17.794  14.380
58908W        W25317  37.802   9.141   0.870
58909W        W25318  44.439   0.780   4.026
58910W        W25319  30.949  30.508   0.170
58911W        W25320   8.317  33.922   3.314
58912W        W25321  26.440  18.549  11.571
58913W        W25322  12.688  33.374  12.378
58914W        W25323  38.437  16.117  11.836
58915W        W25324  43.812  32.113  13.151
58916W        W25325  31.717  11.313   0.001
58917W        W25326   8.248  14.537   0.278
58918W        W25327  37.291  42.524  12.081
58919W        W25328   0.025   5.204  13.000
58920W        W25329   5.878  35.581   2.765
58921W        W25330  31.458  32.131  12.552
58922W        W25331  17.265  10.403   5.101
58923W        W25332   8.181  18.767  12.555
58924W        W25333  33.079   8.775   2.257
58925W        W25334  38.095  23.461  10.782
58926W        W25335   8.548  13.666  13.445
58927W        W25336   6.063  21.630  14.376
58928W        W25337  32.977   7.772   0.022
58929W        W25338  10.494  39.551  13.769
58930W        W25339   1.588  43.470   1.466
58931W        W25340  18.145  20.287  10.642
58932W        W25341  15.424  20.044   0.943
58933W        W25342   5.391   2.201   0.207
58934W        W25343  22.771   2.455   2.758
58935W        W25344  41.545   2.403   1.164
58936W        W25345  18.225  28.416   1.759
58937W        W25346  35.963  24.675   4.712
58938W        W25347  10.336  23.109   3.570
58939W        W25348  19.354   2.867  13.143
58940W        W25349  19.177  41.472  10.813
58941W        W25350  42.314  42.971   1.523
58942W        W25351  40.428  32.488   2.331
58943W        W25352   2.278  13.594   2.130
58944W        W25353  43.591  18.474   2.188
58945W        W25354  34.661   1.350   3.276
58946W        W25355  20.042  24.394  11.529
58947W        W25356  29.678  12.168   9.976
58948W        W25357  16.519  41.386   4.326
58949W        W25358  43.004  22.639   1.214
58950W        W25359  24.623  14.252   3.526
58951W        W25360  16.133  21.748   2.680
58952W        W25361   3.501   5.747  10.498
58953W        W25362   0.994   1.868  13.501
58954W        W25363  22.284  27.859   0.824
58955W        W25364  12.266  15.678   0.999
58956W        W25365  35.000   2.649   0.385
58957W        W25366  18.630  14.265   1.176
58958W        W25367  40.925  25.892  11.041
58959W        W25368  37.148  41.876  10.725
58960W        W25369  21.650  13.970  11.492
58961W        W25370  25.151   1.816   0.046
58962W        W25371  42.445   6.302   3.258
58963W        W25372  37.487  22.432   4.835
58964W        W25373  44.944  22.631   4.813
58965W        W25374   7.198  24.105   1.403
58966W        W25375  24.878  14.787  11.017
58967W        W25376   7.660  29.692   4.301
58968W        W25377  18.858  16.582   0.749
58969W        W25378   9.384  21.518  14.381
58970W        W25379   4.908   0.481   4.112
58971W        W25380  26.543  30.152   0.466
58972W        W25381  25.261  29.364  11.125
58973W        W25382  27.488  33.088   4.579
58974W        W25383  31.997  15.795  12.997
58975W        W25384   8.118  43.431   4.318
58976W        W25385  23.234  26.459   1.692
58977W        W25386  43.927   9.944  12.529
58978W        W25387  11.065  27.038   4.609
58979W        W25388  30.032  37.775  10.704
58980W        W25389   9.766   7.697   4.740
58981W        W25390  40.496  41.873  14.929
58982W        W25391  23.293  15.249  11.567
58983W        W25392  33.237  43.983  10.667
58984W        W25393  26.451   9.850  13.407
58985W        W25394  41.494   3.701  14.846
58986W        W25395  12.373  28.996   2.696
58987W        W25396  43.563  24.315  13.909
58988W        W25397   9.869   9.145   0.462
58989W        W25398  36.369  11.648   0.430
58990W        W25399  20.635   5.141   1.413
58991W        W25400  35.986   2.493   3.397
58992W        W25401  22.733  21.999   1.421
58993W        W25402  25.419   9.825   4.054
58994W        W25403  16.086  37.580  12.615
58995W        W25404  32.552  31.968  13.741
58996W        W25405  25.612  20.812  13.439
58997W        W25406  35.899  11.065   0.550
58998W        W25407  35.005   5.397  13.975
58999W        W25408  41.538  36.061   4.537
59000W        W25409  30.133  25.450   3.643
59001W        W25410  10.028  11.739   1.368
59002W        W25411  24.482  21.034  11.024
59003W        W25412  25.006   4.716  14.916
59004W        W25413  32.105  12.062   5.044
59005W        W25414   1.975  14.228   0.495
59006W        W25415  40.322  13.730   1.848
59007W        W25416   1.673  22.311  11.686
59008W        W25417  24.921  21.027   1.266
59009W        W25418   3.895  42.540   0.790
59010W        W25419  36.168  14.650   1.016
59011W        W25420   7.423   2.756   0.564
59012W        W25421   9.678  20.040   4.168
59013W        W25422  20.277  34.964   3.230
59014W        W25423  18.182  39.240  13.490
59015W        W25424  44.851  41.935   4.146
59016W        W25425   7.510  16.318  10.687
59017W        W25426  12.937  40.456  11.550
59018W        W25427  27.030  24.649   1.666
59019W        W25428  22.718  27.200   2.785
59020W        W25429  28.474  44.793  12.039
59021W        W25430  41.380  41.919  13.440
59022W        W25431  25.731  43.393   1.695
59023W        W25432  17.403   4.616   1.737
59024W        W25433  35.925  37.480   3.156
59025W        W25434  11.621  26.515   4.137
59026W        W25435  30.954  12.936  14.729
59027W        W25436  31.870  27.523   2.441
59028W        W25437  23.343   7.321  11.454
59029W        W25438  19.951  29.391  11.058
59030W        W25439  16.939  40.023   0.939
59031W        W25440  37.055  20.401   1.350
59032W        W25441  43.883   7.167  10.717
59033W        W25442   5.338  28.737   0.388
59034W        W25443  17.896   0.741  13.124
59035W        W25444  28.010  35.298  14.516
59036W        W25445   3.585   6.773   0.470
59037W        W25446  14.907  15.267  12.836
59038W        W25447  38.907  12.784  12.020
59039W        W25448  39.936   1.436  12.512
59040W        W25449  37.251  16.163   3.514
59041W        W25450  12.413  29.892   2.909
59042W        W25451   5.486  12.532   3.226
59043W        W25452  13.263  36.535  12.670
59044W        W25453  29.128  41.193   3.245
59045W        W25454  37.859  28.361   1.378
59046W        W25455  34.348   8.873   0.741
59047W        W25456  28.507   3.440   3.967
59048W        W25457  41.756  34.175  11.848
59049W        W25458   7.685  10.559  14.973
59050W        W25459  33.058  13.982   2.378
59051W        W25460   5.363  34.648  14.295
59052W        W25461  15.691  18.142  11.103
59053W        W25462  42.220  26.481   2.789
59054W        W25463   6.874   8.147   3.036
59055W        W25464   9.159  19.031  10.992
59056W        W25465  39.390  43.030  12.492
59057W        W25466  32.283  26.165   1.901
59058W        W25467  25.930  18.290  13.961
59059W        W25468   0.263   9.835   1.280
59060W        W25469  27.597  44.917  11.280
59061W        W25470  25.410  32.068   1.303
59062W        W25471  29.861  29.666   3.716
59063W        W25472  15.341  31.139   0.838
59064W        W25473   7.692   6.675  13.935
59065W        W25474   2.796   0.248  14.285
59066W        W25475  22.738  12.288   1.652
59067W        W25476   9.134  27.868   3.043
59068W        W25477  19.460  25.306  13.079
59069W        W25478  19.297  26.766   0.191
59070W        W25479   0.254  13.609  14.915
59071W        W25480  32.889  31.906   0.942
59072W        W25481  34.996  27.075   4.720
59073W        W25482  34.636  35.923  14.335
59074W        W25483  36.853  21.018  12.104
59075W        W25484  14.343  12.369   2.784
59076W        W25485  38.295   9.150  12.084
59077W        W25486  38.586  22.638   3.786
59078W        W25487  44.559   9.465  11.480
59079W        W25488   0.805  15.631   1.875
59080W        W25489  31.591  15.548  12.745
59081W        W25490  12.674  27.914   3.091
59082W        W25491  14.643   9.382   3.907
59083W        W25492  20.600  42.055   3.526
59084W        W25493  39.031  11.715   0.806
59085W        W25494   9.219   5.845  11.999
59086W        W25495  33.626  40.988   1.825
59087W        W25496  13.744  15.063   3.162
59088W        W25497  23.299  17.503   4.493
59089W        W25498  40.761  39.298  12.888
59090W        W25499  11.314  22.590  13.568
59091W        W25500  13.536  13.713   0.299
59092W        W25501  22.568  23.688  12.094
59093W        W25502   6.697  16.178   0.534
59094W        W25503   8.029  13.360   4.798
59095W        W25504  44.137  14.789   5.067
59096W        W25505  23.562  41.653  12.576
59097W        W25506  12.728  39.357  12.919
59098W        W25507  33.606  41.748  13.956
59099W        W25508  42.586  12.061   2.691
59100W        W25509  39.394  17.381  15.000
59101W        W25510  29.095  14.595   3.794
59102W        W25511  13.826   8.660  14.871
59103W        W25512  27.037  35.536  11.749
59104W        W25513  25.034  27.795  11.510
59105W        W25514   6.014   3.967   4.233
59106W        W25515  31.914  34.460  12.576
59107W        W25516  20.244  20.455  12.661
59108W        W25517   1.018  14.582  11.540
59109W        W25518   3.317  16.648   2.491
59110W        W25519  34.009   8.436   0.407
59111W        W25520  32.616   5.824  10.698
59112W        W25521   3.860  19.009  11.145
59113W        W25522   5.610  15.520  12.509
59114W        W25523   2.234  11.834  11.135
59115W        W25524  13.088  12.193  13.516
59116W        W25525  28.029  35.233  13.379
59117W        W25526  43.753  38.910  10.661
59118W        W25527  26.523  33.529   4.226
59119W        W25528  33.392   0.263  10.678
59120W        W25529  38.923   8.086  13.302
59121W        W25530   6.181  23.109  13.010
59122W        W25531  30.452  20.236  11.473
59123W        W25532  28.635  21.772   9.994
59124W        W25533  13.025  24.389   1.921
59125W        W25534   6.381  14.332  10.695
59126W        W25535   1.393  27.548  11.225
59127W        W25536  31.538   0.449  12.186
59128W        W25537   2.958  15.100   2.685
59129W        W25538   7.160   0.855   1.675
59130W        W25539  23.035  29.914   4.853
59131W        W25540  29.293  17.588  14.821
59132W        W25541  29.511  36.936  10.444
59133W        W25542  13.864  31.066   4.752
59134W        W25543  31.014  39.522   4.171
59135W        W25544  42.183   8.675   1.035
59136W        W25545  26.309  12.216   3.838
59137W        W25546   5.853  37.584   3.665
59138W        W25547  19.572   8.950  12.249
59139W        W25548   0.146   8.639   3.210
59140W        W25549  25.192  14.659  14.699
59141W        W25550  33.319  41.357   4.186
59142W        W25551  19.802  27.980  14.359
59143W        W25552  13.505  24.154   1.935
59144W        W25553  42.761  40.540  11.058
59145W        W25554  15.074  25.191  13.786
59146W        W25555  24.370   1.352   1.171
59147W        W25556  44.906  25.057   4.754
59148W        W25557  20.688  20.075  13.425
59149W        W25558   8.620   0.459   1.736
59150W        W25559  38.297  32.627   2.913
59151W        W25560  23.602  31.657  12.533
59152W        W25561  40.836  39.461   3.323
59153W        W25562  41.743   5.228  12.066
59154W        W25563  29.505  33.818  12.813
59155W        W25564  27.506  26.083  13.119
59156W        W25565  27.838  29.969  13.086
59157W        W25566  27.041  19.619   1.826
59158W        W25567  44.677  13.388  14.217
59159W        W25568  30.515  33.508   3.422
59160W        W25569   4.390   6.584   0.853
59161W        W25570   6.751  14.174   1.744
59162W        W25571  23.496  26.926  12.466
59163W        W25572  44.299  15.430   4.419
59164W        W25573  36.535   0.928  14.306
59165W        W25574  13.667  43.540   3.562
59166W        W25575  18.526  34.200  14.451
59167W        W25576   7.220  42.417  10.659
59168W        W25577  38.061  21.611  11.715
59169W        W25578  44.029  31.610  11.890
59170W        W25579  16.233   3.282   2.661
59171W        W25580  15.364   8.261  12.033
59172W        W25581  19.676  11.380   1.860
59173W        W25582  20.238  39.916  12.383
59174W        W25583  39.968  38.335   3.661
59175W        W25584  20.379   1.757  11.134
59176W        W25585  20.115   9.666   2.392
59177W        W25586  25.030  16.203  14.828
59178W        W25587  42.387  42.257  14.824
59179W        W25588  42.823  28.138  14.330
59180W        W25589  32.156  34.510   1.997
59181W        W25590   3.738  42.805   2.787
59182W        W25591  15.086   5.184  14.987
59183W        W25592   8.248   7.910   0.476
59184W        W25593  31.854  30.038  14.969
59185W        W25594  44.079  17.361   3.212
59186W        W25595  28.606  14.087  10.795
59187W        W25596  13.506  25.061  12.079
59188W        W25597  12.336  21.763   1.930
59189W        W25598  37.089  14.074  14.801
59190W        W25599  21.654   9.796   3.632
59191W        W25600  14.299  24.513  12.507
59192W        W25601  42.961  30.312  13.914
59193W        W25602  31.953  11.656   3.596
59194W        W25603  11.217  19.325  13.707
59195W        W25604   2.915  15.820  12.505
59196W        W25605  11.868  37.733  13.506
59197W        W25606  42.291  24.218  11.127
59198W        W25607   8.734  16.847  11.940
59199W        W25608  14.809  34.549   4.459
59200W        W25609  40.678   7.080  14.787
59201W        W25610  42.009  33.609   2.795
59202W        W25611  28.377  12.438  12.551
59203W        W25612   1.448   0.138  11.117
59204W        W25613  24.555  38.026  10.683
59205W        W25614  42.104  22.571   3.583
59206W        W25615  41.659   0.969  11.673
59207W        W25616  32.456  39.018  12.015
59208W        W25617   1.919  30.922  14.511
59209W        W25618  42.025  11.118   0.462
59210W        W25619  33.293  33.152   3.065
59211W        W25620  13.864  38.325   0.872
59212W        W25621   4.923   2.883  14.712
59213W        W25622   5.344  38.849  10.948
59214W        W25623  10.300   8.744   4.926
59215W        W25624  31.973  44.998   2.803
59216W        W25625  13.208  22.246   4.529
59217W        W25626  19.545  42.840   3.120
59218W        W25627   4.224  24.118   0.398
59219W        W25628  42.939   6.077  12.101
59220W        W25629  37.484  20.746   2.289
59221W        W25630  23.007  34.676   2.120
59222W        W25631  21.002  11.305   2.387
59223W        W25632  38.712  11.361   3.615
59224W        W25633   5.266  20.425  10.755
59225W        W25634  29.365  24.027   3.351
59226W        W25635  26.624  44.015  11.861
59227W        W25636  34.644  14.290   2.275
59228W        W25637  25.313   8.763  12.458
59229W        W25638  23.164  13.453  11.434
59230W        W25639  43.240  20.685   4.762
59231W        W25640  44.760  19.744  11.534
59232W        W25641  27.722  32.851  12.075
59233W        W25642   2.356  12.126  12.534
59234W        W25643   3.152   7.648  13.882
59235W        W25644  37.687  21.565  13.369
59236W        W25645  41.043  22.264  11.533
59237W        W25646   2.814  29.595   1.986
59238W        W25647  29.170  27.820  11.286
59239W        W25648  31.938   4.398  11.611
59240W        W25649  32.540  40.268   0.674
59241W        W25650  41.474  44.757  13.523
59242W        W25651  18.296  10.866   2.417
59243W        W25652  26.531  33.507   0.200
59244W        W25653   3.289  18.808  11.229
59245W        W25654  29.087  23.539  12.648
59246W        W25655   8.982  15.383   3.159
59247W        W25656  26.939  43.260  11.514
59248W        W25657   6.557   0.109  12.893
59249W        W25658   9.415  12.734  12.662
59250W        W25659  40.474  26.649  11.151
59251W        W25660  38.483  23.262  12.094
59252W        W25661   5.662   0.158   2.745
59253W        W25662  20.588  35.667  14.874
59254W        W25663  41.764  23.581  13.757
59255W        W25664  15.595   7.355   0.987
59256W        W25665   5.314  37.029   1.663
59257W        W25666  21.288  27.676  10.307
59258W        W25667   7.267   7.758  14.448
59259W        W25668  41.073  36.575  10.741
59260W        W25669  29.972   7.672  14.111
59261W        W25670  12.778  21.874   2.276
59262W        W25671   0.205   5.850  13.267
59263W        W25672   0.462   9.513   4.323
59264W        W25673   7.421   4.211  13.537
59265W        W25674  23.632  43.385  13.656
59266W        W25675  41.240  38.246  13.481
59267W        W25676  29.134   2.552   0.794
59268W        W25677   6.909   2.792   4.182
59269W        W25678  38.101  33.535   4.569
59270W        W25679   7.416  15.207  12.853
59271W        W25680   0.944  15.601   0.930
59272W        W25681  41.384  27.030  14.335
59273W        W25682  39.507  32.906   1.825
59274W        W25683   2.445   5.471   2.824
59275W        W25684  20.212  11.551   0.894
59276W        W25685  38.067  21.753  12.699
59277W        W25686  18.250  15.066  13.836
59278W        W25687  27.179  39.889  11.140
59279W        W25688  20.327  27.953  14.369
59280W        W25689  10.238  26.033  14.444
59281W        W25690  29.977  39.501   4.489
59282W        W25691  42.800   3.258   3.672
59283W        W25692  13.238  33.907   9.757
59284W        W25693  11.776  36.953   1.922
59285W        W25694  43.393  25.093   1.397
59286W        W25695   2.065  35.225   2.201
59287W        W25696  17.891  22.723  13.939
59288W        W25697  39.580  39.544   0.325
59289W        W25698  19.907  35.492   0.514
59290W        W25699  26.448  32.057  13.848
59291W        W25700   3.362  32.848  10.434
59292W        W25701   7.829  12.670   3.692
59293W        W25702  39.062   1.479  10.764
59294W        W25703  22.032   5.207  12.560
59295W        W25704   6.502  35.600   0.442
59296W        W25705  43.674  35.649   4.554
59297W        W25706  43.821  44.341   3.442
59298W        W25707  41.336  28.497  11.428
59299W        W25708  21.942  19.711   3.996
59300W        W25709  40.800   0.976   2.738
59301W        W25710  39.336  33.113  14.266
59302W        W25711  42.469  18.243   3.150
59303W        W25712  28.418  24.275   3.659
59304W        W25713   2.772   6.654  12.152
59305W        W25714  35.434  23.556   4.196
59306W        W25715   6.238   6.360   1.776
59307W        W25716  23.099  31.738  12.612
59308W        W25717   3.281  43.307   3.237
59309W        W25718  35.344  35.767  13.042
59310W        W25719  42.226  18.209  14.892
59311W        W25720  43.711  30.035  14.451
59312W        W25721  42.895  34.159   3.679
59313W        W25722  38.288  14.621  13.362
59314W        W25723  26.231   5.660  12.958
59315W        W25724  37.397  39.452  13.539
59316W        W25725  28.066   0.714  11.762
59317W        W25726  26.440  10.050  12.535
59318W        W25727   0.175  23.691   1.773
59319W        W25728   5.337  32.363   1.342
59320W        W25729  13.041   9.252   1.311
59321W        W25730  19.241  29.508   4.062
59322W        W25731  12.728  30.151   1.225
59323W        W25732  35.553  24.027   0.995
59324W        W25733  40.942  22.502  11.996
59325W        W25734  23.853  40.472   5.011
59326W        W25735  35.931  11.557   0.716
59327W        W25736  27.475  23.127   3.664
59328W        W25737  36.349  20.006   2.703
59329W        W25738   8.194  23.573  14.704
59330W        W25739  42.032  41.790   3.699
59331W        W25740  31.887  13.524   0.757
59332W        W25741  31.757   0.879   9.760
59333W        W25742  43.782  43.835   3.287
59334W        W25743   8.360   3.724   1.704
59335W        W25744  25.071  11.507   4.928
59336W        W25745   3.241  25.122  11.162
59337W        W25746  30.546  38.579  12.910
59338W        W25747  17.108  29.347  13.943
59339W        W25748  25.341  43.869  11.275
59340W        W25749   6.750   1.826  13.810
59341W        W25750   9.164  10.683   3.704
59342W        W25751  15.157  38.687  12.000
59343W        W25752  23.929  31.454   4.724
59344W        W25753   9.299  18.099   4.042
59345W        W25754  12.857  20.210   1.899
59346W        W25755   5.627  17.557  14.518
59347W        W25756  29.556   3.318   3.734
59348W        W25757  23.740  35.489   2.853
59349W        W25758  41.880  19.837   2.946
59350W        W25759  38.823   6.727  12.605
59351W        W25760  44.973  21.644  10.747
59352W        W25761  15.569  43.032  13.435
59353W        W25762  41.359   9.283  12.010
59354W        W25763  17.364  33.711   2.131
59355W        W25764  30.617  17.101   1.691
59356W        W25765  15.373  28.750  11.169
59357W        W25766   9.939  34.835   4.146
59358W        W25767   1.973  19.648   4.650
59359W        W25768  32.604  29.594   4.601
59360W        W25769  41.451  40.740  12.438
59361W        W25770   2.418   1.346   0.885
59362W        W25771  29.929  26.164   3.205
59363W        W25772  24.001   4.311  10.681
59364W        W25773  15.145  41.784  10.651
59365W        W25774  14.337  20.951   1.223
59366W        W25775  22.033   0.197  12.465
59367W        W25776   8.089   1.289   2.600
59368W        W25777   6.409  20.174  11.179
59369W        W25778  28.213  38.178   0.093
59370W        W25779  27.386   0.744   1.265
59371W        W25780   9.671  17.776   0.532
59372W        W25781  38.134  14.712   3.270
59373W        W25782  41.939  29.966  11.639
59374W        W25783  37.979  26.956   3.063
59375W        W25784  20.377  39.081   4.215
59376W        W25785  30.176  14.644   4.120
59377W        W25786  14.306   9.756   2.773
59378W        W25787  39.879  31.111  11.357
59379W        W25788  11.092  40.944  13.999
59380W        W25789  15.181  26.416   3.581
59381W        W25790   1.962  27.641  11.130
59382W        W25791  34.867  13.829   2.371
59383W        W25792  40.993  29.880  10.972
59384W        W25793   6.479  10.897  11.262
59385W        W25794  23.918  29.100  14.449
59386W        W25795   5.390  19.472  11.176
59387W        W25796  27.653  14.172  13.315
59388W        W25797  34.707  18.561  12.056
59389W        W25798  35.822   7.179   1.689
59390W        W25799  29.654  28.687   0.288
59391W        W25800   1.927  10.622   4.163
59392W        W25801  23.695  13.257  13.241
59393W        W25802  40.090  26.579  10.786
59394W        W25803  24.419   6.808  10.955
59395W        W25804  26.053  40.900  10.846
59396W        W25805   6.408  29.149   4.892
59397W        W25806  11.746  20.785   1.227
59398W        W25807   2.692  27.940   3.585
59399W        W25808   3.734  43.039   4.327
59400W        W25809  22.472  39.816   1.809
59401W        W25810  28.548   8.997   1.904
59402W        W25811  15.881  25.460   2.272
59403W        W25812  14.267  20.438   5.244
59404W        W25813  23.663  30.428  13.823
59405W        W25814   9.769  30.093  13.479
59406W        W25815   6.655  33.434   1.928
59407W        W25816  33.500   8.579   0.369
59408W        W25817   0.166  37.380  14.362
59409W        W25818   4.821  30.026  11.585
59410W        W25819  36.157   0.421  12.669
59411W        W25820  42.336  25.564   4.341
59412W        W25821   7.853  16.356   1.692
59413W        W25822  39.968  23.966  14.716
59414W        W25823  28.938  33.805  14.249
59415W        W25824  24.064  38.471  13.883
59416W        W25825  24.081   8.551  13.362
59417W        W25826  30.184   7.640   2.876
59418W        W25827   7.378  44.930  13.884
59419W        W25828  22.677  33.921   4.127
59420W        W25829  11.107  12.865   2.825
59421W        W25830  22.247  28.576   1.619
59422W        W25831  33.916  23.724   4.191
59423W        W25832  42.522   5.920  14.861
59424W        W25833  24.035  10.787  11.596
59425W        W25834   7.240  15.359   0.726
59426W        W25835  31.096  28.647   4.602
59427W        W25836  16.644  39.386   0.328
59428W        W25837   2.389  21.981  14.862
59429W        W25838  30.998  39.562  13.505
59430W        W25839  38.577  40.084  12.210
59431W        W25840  32.369  27.617   2.400
59432W        W25841  30.637  43.278  14.108
59433W        W25842  18.745  41.494   0.329
59434W        W25843  35.893   8.081   0.188
59435W        W25844   4.389   5.387   1.516
59436W        W25845   3.046   4.385   0.004
59437W        W25846  37.688  24.584  14.078
59438W        W25847  27.087  29.057  13.040
59439W        W25848  39.310  24.621  11.399
59440W        W25849  28.831  31.212   1.242
59441W        W25850  14.668   7.523  13.131
59442W        W25851  15.234  27.380  12.587
59443W        W25852  26.014  34.906   0.008
59444W        W25853  25.100  36.110   2.355
59445W        W25854  12.770  26.500  11.405
59446W        W25855   7.170   9.248   4.748
59447W        W25856  17.222  39.011  12.609
59448W        W25857   2.405  35.201   2.602
59449W        W25858  25.100  42.303   4.198
59450W        W25859   7.947   1.230  11.969
59451W        W25860   6.749  33.652   4.570
59452W        W25861   6.895  32.645   9.748
59453W        W25862  25.698  24.454  11.037
59454W        W25863  41.516   9.692  14.827
59455W        W25864   3.494  12.155  12.436
59456W        W25865  39.598  19.614   5.014
59457W        W25866  22.759  10.741  14.246
59458W        W25867  43.358  44.170   1.890
59459W        W25868  34.535  23.485  13.427
59460W        W25869  36.180  43.049   2.654
59461W        W25870  25.481  10.923  14.162
59462W        W25871  14.355  26.294   3.747
59463W        W25872   1.839   0.665  11.522
59464W        W25873  36.143  21.612  12.040
59465W        W25874   6.369  25.868  11.571
59466W        W25875  26.578  36.182  12.886
59467W        W25876  28.884  10.722  14.496
59468W        W25877  40.206   9.721   1.031
59469W        W25878   0.416  29.169   0.366
59470W        W25879  35.215  34.833   4.468
59471W        W25880  24.515   5.149  11.437
59472W        W25881  13.290   6.153  10.706
59473W        W25882   1.013   1.180  14.040
59474W        W25883  25.685  24.770   4.064
59475W        W25884  13.956   1.785   4.581
59476W        W25885   6.083  13.238   1.723
59477W        W25886  19.311   4.153   2.293
59478W        W25887  20.091  12.584   3.149
59479W        W25888  16.131  34.954  11.957
59480W        W25889  44.433  18.092   0.264
59481W        W25890  13.909  40.731  12.204
59482W        W25891   7.684  11.064  14.846
59483W        W25892   9.910  35.107  14.425
59484W        W25893  27.680  24.778   4.724
59485W        W25894  34.356  38.924  11.234
59486W        W25895  11.188  21.245   3.302
59487W        W25896  21.074   1.880   4.653
59488W        W25897  13.323  35.812   2.327
59489W        W25898   2.926   5.405   3.578
59490W        W25899  37.207  25.563   2.606
59491W        W25900  11.590   7.657   4.656
59492W        W25901   0.666  43.525   4.088
59493W        W25902   7.938  38.860   4.009
59494W        W25903  40.865  41.324   0.015
59495W        W25904  36.859   1.607  12.125
59496W        W25905  12.448  33.391  12.956
59497W        W25906  17.316   3.503  11.412
59498W        W25907  37.537  22.964   4.702
59499W        W25908  14.160  42.084  11.543
59500W        W25909  23.484   2.740   4.434
59501W        W25910  31.863  15.475   4.100
59502W        W25911  42.758  27.609   1.227
59503W        W25912  16.159   5.321   2.428
59504W        W25913  24.895  44.780   4.537
59505W        W25914   6.371   6.931   0.139
59506W        W25915  23.503  23.697   2.739
59507W        W25916  29.304  29.140  11.929
59508W        W25917  24.683  34.983   1.483
59509W        W25918  23.255  30.381  13.523
59510W        W25919  10.203  14.245  13.639
59511W        W25920  22.479  13.764   4.612
59512W        W25921   1.471  44.832  10.700
59513W        W25922   7.687  25.042  12.994
59514W        W25923  10.810  27.236  13.301
59515W        W25924   7.608  14.574   0.752
59516W        W25925  44.919   7.503   0.325
59517W        W25926  43.754  29.501   0.855
59518W        W25927  16.214  33.002   1.661
59519W        W25928  18.574  30.184   3.680
59520W        W25929  23.744  11.072  12.889
59521W        W25930  16.064  31.618  13.035
59522W        W25931  36.343   8.456   4.234
59523W        W25932  23.215  19.506  11.029
59524W        W25933  12.209  11.796   0.416
59525W        W25934  39.137   4.041   3.956
59526W        W25935   1.599   9.279  11.516
59527W        W25936  29.920  24.400   0.943
59528W        W25937  26.149  29.503   2.633
59529W        W25938  29.074   9.758   4.005
59530W        W25939   6.828   0.851  10.718
59531W        W25940  44.067   6.495   4.129
59532W        W25941  42.752  10.598   4.030
59533W        W25942   3.816  20.477  12.219
59534W        W25943  14.787  19.787  11.068
59535W        W25944  38.984  19.615  11.406
59536W        W25945  26.034   8.735   1.238
59537W        W25946  24.483  38.825  12.655
59538W        W25947  22.240  26.991   2.688
59539W        W25948  40.255   7.267   2.281
59540W        W25949  42.857  16.796   1.213
59541W        W25950  30.964  13.300  14.360
59542W        W25951  35.524  11.704   1.721
59543W        W25952   0.796  32.874   2.335
59544W        W25953  13.733  23.710   0.316
59545W        W25954  21.134  22.629  12.184
59546W        W25955  23.283   8.162   4.524
59547W        W25956   4.333   1.758   4.064
59548W        W25957   1.767  28.740   1.279
59549W        W25958  22.786  36.807   2.687
59550W        W25959   3.299   3.847  10.998
59551W        W25960  15.824  44.234  13.911
59552W        W25961  33.811  10.328   3.126
59553W        W25962   2.926  40.745   2.463
59554W        W25963  39.545  39.648   4.363
59555W        W25964   2.891  39.566  13.456
59556W        W25965   8.079  18.725   1.719
59557W        W25966   1.289   4.463  10.698
59558W        W25967  42.130  20.059   4.057
59559W        W25968  33.320   9.130  14.490
59560W        W25969  37.755   5.522  12.077
59561W        W25970   0.053   2.006  11.475
59562W        W25971  35.624  30.438  11.944
59563W        W25972   8.373   5.130   2.403
59564W        W25973   2.934  13.686  11.441
59565W        W25974  43.192  33.604   0.952
59566W        W25975  22.559   4.696   3.989
59567W        W25976  17.556  15.958  14.382
59568W        W25977  31.825  15.142   0.472
59569W        W25978  13.714  11.670   1.152
59570W        W25979  10.741  25.146   4.146
59571W        W25980  17.291  24.882  13.355
59572W        W25981  16.327  11.540   4.212
59573W        W25982  33.924  28.862  10.946
59574W        W25983  41.513  25.960   1.881
59575W        W25984  16.623  25.522  13.493
59576W        W25985   6.463  19.639  12.545
59577W        W25986  10.777  30.962   1.794
59578W        W25987  10.281   8.061  12.482
59579W        W25988  32.546   6.203  13.890
59580W        W25989  36.082  36.286   2.014
59581W        W25990  17.598   0.521   0.394
59582W        W25991   5.480  40.749   1.292
59583W        W25992  20.595  42.501  10.594
59584W        W25993  34.164  43.735   1.214
59585W        W25994  23.924  20.699   4.257
59586W        W25995  28.540  24.676  14.813
59587W        W25996  20.320   8.273  14.306
59588W        W25997  16.318  40.502  14.777
59589W        W25998  15.997   5.014   0.840
59590W        W25999   1.449  31.801  11.159
59591W        W26000  13.786  20.988   1.280
59592W        W26001   7.073  25.912  12.052
59593W        W26002  35.793   8.635   1.409
59594W        W26003  15.540  20.127  11.533
59595W        W26004  15.790  21.824   9.904
59596W        W26005  14.853   0.884   3.147
59597W        W26006  26.770   7.692  12.493
59598W        W26007  42.316  19.529  11.511
59599W        W26008  37.561  39.396   1.637
59600W        W26009  38.099  18.655  12.658
59601W        W26010   8.622  29.962   4.674
59602W        W26011  40.913  20.215   1.567
59603W        W26012  19.820  31.518  12.478
59604W        W26013  41.966  25.101  12.770
59605W        W26014   8.235   5.947  12.452
59606W        W26015  25.984  43.737  13.951
59607W        W26016   5.201  19.188   2.955
59608W        W26017  35.906   4.238  13.056
59609W        W26018  32.355  15.198   0.463
59610W        W26019   8.088  17.300  11.507
59611W        W26020  33.405   1.606   5.032
59612W        W26021   6.182  38.843  14.787
59613W        W26022   8.211  37.329   5.259
59614W        W26023  25.419  30.833  14.916
59615W        W26024  16.354  18.462   3.105
59616W        W26025  43.249   0.292  14.645
59617W        W26026  16.797  42.499   1.958
59618W        W26027  21.482  24.314  14.980
59619W        W26028  18.778  32.678  12.054
59620W        W26029   0.351  38.989   2.280
59621W        W26030  15.534  37.450   2.292
59622W        W26031  36.433  32.085   3.173
59623W        W26032   2.721  34.946  11.529
59624W        W26033   8.198  43.426   4.863
59625W        W26034  29.720  25.097  11.884
59626W        W26035  37.287  39.853   4.010
59627W        W26036  13.161  37.015  12.500
59628W        W26037  18.312  40.102   4.355
59629W        W26038  37.078  21.085   4.549
59630W        W26039  39.771  35.781   2.815
59631W        W26040   3.722   2.665   1.333
59632W        W26041  37.391  37.133   4.211
59633W        W26042  12.119   4.616   3.144
59634W        W26043   8.481  21.711  14.458
59635W        W26044   6.715   3.703  14.053
59636W        W26045   0.977  34.927  14.327
59637W        W26046  10.536  30.351   5.703
59638W        W26047   1.907  12.959  14.417
59639W        W26048  31.656   5.251   3.749
59640W        W26049  14.433   1.242   9.876
59641W        W26050  44.360  32.828  12.158
59642W        W26051   1.945  42.946   0.010
59643W        W26052  38.384  17.803   3.256
59644W        W26053  44.007   5.107  13.123
59645W        W26054   2.638  23.233  13.113
59646W        W26055  17.479  40.088  12.201
59647W        W26056   2.249  43.956   2.484
59648W        W26057  23.266  23.694  11.553
59649W        W26058  39.574  26.596   2.243
59650W        W26059   1.279  31.680  14.388
59651W        W26060  22.471  39.962   0.774
59652W        W26061  14.820  43.574   2.655
59653W        W26062  33.506  29.284  12.074
59654W        W26063   1.531  15.762   1.622
59655W        W26064  11.743  36.582   3.327
59656W        W26065  27.685  10.457   2.239
59657W        W26066  42.461  18.798  12.065
59658W        W26067  12.556  21.910   5.004
59659W        W26068  23.117  22.060  11.727
59660W        W26069  17.325  15.251  11.196
59661W        W26070  25.010  44.930   1.821
59662W        W26071  24.029  22.530  12.563
59663W        W26072  31.658   8.891  12.005
59664W        W26073   6.133  33.064   2.751
59665W        W26074   8.772  40.116  13.450
59666W        W26075   4.273  12.804  13.077
59667W        W26076   9.734  35.172   4.478
59668W        W26077  19.051  22.149   2.170
59669W        W26078  19.240  35.625  13.866
59670W        W26079  11.725  37.358  10.635
59671W        W26080   9.711  20.604   0.287
59672W        W26081  32.042   0.281  10.220
59673W        W26082   9.373  21.673  10.812
59674W        W26083  10.707  35.261   3.312
59675W        W26084   1.750  33.233  12.892
59676W        W26085  26.491  38.221   4.026
59677W        W26086  20.602   3.433   2.168
59678W        W26087  21.765  23.613   0.237
59679W        W26088   5.862   4.835   0.741
59680W        W26089  17.544  31.099   1.433
59681W        W26090  40.310   9.606   4.616
59682W        W26091  24.968  34.498   4.227
59683W        W26092  35.762  37.650   3.650
59684W        W26093  32.198  26.017   3.691
59685W        W26094  26.513  33.596   2.721
59686W        W26095  23.958  35.830   1.869
59687W        W26096   0.976  19.082   2.168
59688W        W26097  16.114   2.533  13.174
59689W        W26098  11.413  15.181  12.677
59690W        W26099  19.118  43.431  12.671
59691W        W26100  40.307  31.932   2.419
59692W        W26101  30.201   6.070  12.307
59693W        W26102   0.567   5.561   3.121
59694W        W26103   7.158  23.591   0.429
59695W        W26104   6.635  13.756  11.183
59696W        W26105   2.751  23.727  14.807
59697W        W26106   7.113  32.597   4.268
59698W        W26107  40.357   1.787   0.451
59699W        W26108   6.952  21.163  13.161
59700W        W26109  14.867  10.381   3.481
59701W        W26110  36.303  34.414   1.331
59702W        W26111   7.784  27.699  13.591
59703W        W26112  36.386  29.585  11.981
59704W        W26113   4.359   0.766   2.312
59705W        W26114   3.387  24.236   9.664
59706W        W26115  14.759   7.373   0.488
59707W        W26116   7.185  37.904  13.175
59708W        W26117  13.703  32.164  14.016
59709W        W26118  36.914  13.306   0.277
59710W        W26119  40.415  41.279   3.176
59711W        W26120  24.595  18.388  13.288
59712W        W26121   2.935   5.087  14.373
59713W        W26122  18.181  18.164  11.683
59714W        W26123  29.559  13.693   1.620
59715W        W26124  17.194  35.649  13.319
59716W        W26125  40.714  13.812  14.464
59717W        W26126  10.864  26.938  11.198
59718W        W26127  16.253  23.145  12.367
59719W        W26128  28.036   5.123   0.984
59720W        W26129  33.534  44.896   2.956
59721W        W26130  22.742  20.763   2.885
59722W        W26131  31.391  36.820   3.733
59723W        W26132  16.229   8.086   2.049
59724W        W26133  31.683   7.732  14.922
59725W        W26134  25.096  15.137   3.384
59726W        W26135  34.128  39.409   0.489
59727W        W26136  18.263  23.481  10.769
59728W        W26137  30.896   9.964   3.989
59729W        W26138   6.317   4.959  11.843
59730W        W26139  14.358  16.877  10.578
59731W        W26140  25.592   9.386   3.787
59732W        W26141  12.396  15.449   4.245
59733W        W26142   2.023  22.735  14.931
59734W        W26143  42.870  18.076   0.896
59735W        W26144  42.284  32.345   3.003
59736W        W26145  10.751  29.866   3.697
59737W        W26146  23.250  15.199  10.663
59738W        W26147   1.910  15.508  12.586
59739W        W26148   2.181  27.773   3.409
59740W        W26149  18.686  31.119  14.223
59741W        W26150  30.956   5.178  13.508
59742W        W26151  36.734   3.200   2.664
59743W        W26152   6.323  12.065   2.940
59744W        W26153  10.205  35.659   5.051
59745W        W26154  41.346   8.945   5.392
59746W        W26155   0.315  43.513   3.058
59747W        W26156  34.091   6.815   2.643
59748W        W26157  36.471  43.918   1.645
59749W        W26158  14.694  39.468   1.193
59750W        W26159  12.391  17.241  12.880
59751W        W26160  18.780  38.950  14.850
59752W        W26161  10.159  12.626   0.281
59753W        W26162  14.602   5.735   1.649
59754W        W26163  27.667  25.688   3.752
59755W        W26164  36.860   2.414  12.034
59756W        W26165  27.631  13.653  14.005
59757W        W26166  35.843  32.199  14.778
59758W        W26167  14.144   0.049   0.786
59759W        W26168  37.655  40.325  13.523
59760W        W26169  44.198  27.065  11.876
59761W        W26170  19.575  15.621  14.129
59762W        W26171  23.103  15.793   3.396
59763W        W26172  39.372  28.149   0.462
59764W        W26173  44.880  39.942   1.209
59765W        W26174   8.733  17.560   3.699
59766W        W26175  26.519  22.000   0.229
59767W        W26176  23.203  13.309   0.096
59768W        W26177  37.812  42.712  11.659
59769W        W26178  43.511   8.184   9.956
59770W        W26179  29.985  38.230   1.553
59771W        W26180   5.610   5.458  12.556
59772W        W26181  36.332  33.626   1.904
59773W        W26182   4.288   7.312  10.731
59774W        W26183  34.913  41.111  13.854
59775W        W26184  36.576  12.589  14.438
59776W        W26185  43.908   8.729  13.903
59777W        W26186  33.440   4.909  14.998
59778W        W26187  41.728   1.797   2.440
59779W        W26188  14.829  30.111   2.871
59780W        W26189  34.591  27.037  12.115
59781W        W26190  18.584  21.483  12.228
59782W        W26191  36.596  42.328  10.555
59783W        W26192   0.443  23.714   1.339
59784W        W26193  11.331  10.360  12.463
59785W        W26194   6.714  40.785  13.932
59786W        W26195  34.989   3.019  12.553
59787W        W26196  29.623  39.924   4.417
59788W        W26197  42.099   8.320  12.486
59789W        W26198  33.049  40.635  11.212
59790W        W26199  36.016  29.603  14.352
59791W        W26200   4.045  30.180  12.351
59792W        W26201  40.964  28.190  11.650
59793W        W26202  34.512  20.630   3.841
59794W        W26203   8.691   3.311  11.534
59795W        W26204  27.974  10.793   0.933
59796W        W26205  10.667  13.562  13.347
59797W        W26206  40.705  16.553   4.283
59798W        W26207  31.639  33.903  13.347
59799W        W26208  26.632  28.991   3.120
59800W        W26209   6.695  23.762  14.280
59801W        W26210  34.591  32.684   0.104
59802W        W26211  34.038  26.753  13.219
59803W        W26212  20.534   5.795  11.408
59804W        W26213  37.562   3.276  11.458
59805W        W26214   6.312  41.972  11.892
59806W        W26215  12.858   4.882  10.118
59807W        W26216  25.321  13.544  11.163
59808W        W26217  35.551  27.229  11.150
59809W        W26218  10.116   7.714  12.033
59810W        W26219  38.500  28.132   2.503
59811W        W26220   4.559  40.396   3.272
59812W        W26221  30.649  42.838  12.045
59813W        W26222  42.993  32.380  14.026
59814W        W26223  26.084  17.169   0.893
59815W        W26224   9.474  37.292  14.047
59816W        W26225  22.168  14.984  11.152
59817W        W26226  11.737  27.990  12.597
59818W        W26227  15.991  22.394  14.802
59819W        W26228  24.738  41.075   1.678
59820W        W26229  36.831  25.571  13.454
59821W        W26230   5.110  25.525  10.204
59822W        W26231  17.866   2.318  13.465
59823W        W26232  12.675  17.824  11.228
59824W        W26233  11.232   0.398  11.319
59825W        W26234  32.082  19.891   5.336
59826W        W26235  15.128  10.728   2.713
59827W        W26236  31.171  32.553   3.169
59828W        W26237  35.622   8.455  14.954
59829W        W26238  32.619  17.458   4.837
59830W        W26239  23.220  35.825  12.424
59831W        W26240  20.445  29.973   2.253
59832W        W26241  32.734  29.489  12.827
59833W        W26242  33.140  11.389  11.984
59834W        W26243  40.802  34.548  12.479
59835W        W26244  23.045  40.975   2.166
59836W        W26245  10.642   1.553   0.817
59837W        W26246  21.233  18.793  12.206
59838W        W26247  39.286  10.728   4.479
59839W        W26248  22.684  13.715  14.468
59840W        W26249  38.547  10.119  13.525
59841W        W26250  22.557   3.701   0.856
59842W        W26251   1.010   0.958  10.539
59843W        W26252  24.686  19.740   0.809
59844W        W26253  20.372  40.948  11.123
59845W        W26254  13.332  21.682   1.030
59846W        W26255   4.392  42.544  14.031
59847W        W26256  34.641  25.042   3.472
59848W        W26257   0.310  13.162   4.372
59849W        W26258  26.187  21.659  12.639
59850W        W26259  23.299  41.135  12.116
59851W        W26260  15.279  42.955  13.838
59852W        W26261  10.482  32.699  14.606
59853W        W26262  38.295   1.382  13.948
59854W        W26263  41.039   9.290  13.759
59855W        W26264   9.597  43.398   4.617
59856W        W26265  41.912   2.928  14.918
59857W        W26266  20.995  15.636  14.776
59858W        W26267  33.061  22.026  14.747
59859W        W26268  37.298  26.053  12.967
59860W        W26269   0.101   6.980  12.796
59861W        W26270   8.885  15.364  11.116
59862W        W26271  38.169  14.182  12.371
59863W        W26272  21.171  13.513  14.912
59864W        W26273  19.723  36.862  11.136
59865W        W26274  24.548   7.256  12.292
59866W        W26275  26.046   1.362   2.405
59867W        W26276   4.175  16.806  14.429
59868W        W26277  34.523  15.629   2.158
59869W        W26278  26.956  24.262  12.024
59870W        W26279  11.291  17.724  10.938
59871W        W26280  15.180  38.011  10.755
59872W        W26281  29.197  22.632   1.408
59873W        W26282   4.005  26.655  14.497
59874W        W26283  41.127   3.427   1.632
59875W        W26284  25.220  24.031   0.318
59876W        W26285  32.371   6.497   1.231
59877W        W26286  34.014  10.221   0.856
59878W        W26287  40.628  12.025   4.936
59879W        W26288  27.754  20.256   2.754
59880W        W26289   5.833  43.956  11.894
59881W        W26290  32.213  41.704   1.840
59882W        W26291   4.930   0.205   0.482
59883W        W26292  41.327  34.188   2.345
59884W        W26293   7.135   3.880  12.059
59885W        W26294  15.932  19.639   5.029
59886W        W26295   4.143   6.526  14.563
59887W        W26296  10.840  30.013   1.705
59888W        W26297  43.743  34.457  12.937
59889W        W26298  20.083  10.766  14.266
59890W        W26299  36.370  16.682  14.118
59891W        W26300  34.172   3.927   4.993
59892W        W26301  31.825   1.331  14.363
59893W        W26302  23.532   8.290   0.532
59894W        W26303  22.932  21.593  11.060
59895W        W26304  12.233  35.297   3.231
59896W        W26305  42.188  14.434   0.951
59897W        W26306   7.778  23.443  12.006
59898W        W26307  30.156  29.886  11.512
59899W        W26308  32.511  36.309  12.097
59900W        W26309  24.734  39.043   0.292
59901W        W26310   5.390   6.503   0.251
59902W        W26311  24.488  37.978   2.215
59903W        W26312   9.458  39.992  13.051
59904W        W26313  15.121  22.739  13.657
59905W        W26314  44.795  28.243  13.488
59906W        W26315  16.721  34.396  12.914
59907W        W26316  13.294  42.728   2.314
59908W        W26317  32.570  12.199  11.099
59909W        W26318  12.810  12.418  11.169
59910W        W26319  33.565  42.999  12.609
59911W        W26320  25.017   8.312   0.624
59912W        W26321  27.720   7.763   5.419
59913W        W26322  12.728  16.621   2.460
59914W        W26323  31.588  12.259  12.656
59915W        W26324  12.856  36.961  13.819
59916W        W26325  29.006  15.880  11.861
59917W        W26326  29.444  20.519   3.123
59918W        W26327   8.276  19.700  13.074
59919W        W26328  17.124   0.960   2.572
59920W        W26329  29.441  39.240  10.158
59921W        W26330  31.547  21.273  12.588
59922W        W26331  39.079   0.891  14.487
59923W        W26332  29.090  28.153  13.008
59924W        W26333   7.360  44.059   4.520
59925W        W26334  43.972  39.587  10.751
59926W        W26335  15.785  42.919   3.173
59927W        W26336  19.093  43.070  10.625
59928W        W26337  40.539   0.958   4.637
59929W        W26338  11.180  20.942   4.292
59930W        W26339  11.631  21.307  13.055
59931W        W26340  10.333  30.411   1.390
59932W        W26341  35.553   6.767  14.467
59933W        W26342   2.566   5.639  10.400
59934W        W26343  16.920  16.499   4.132
59935W        W26344   7.356  25.795  12.997
59936W        W26345  19.583   9.021   3.189
59937W        W26346   5.951  29.504   3.578
59938W        W26347   0.709  41.369   1.738
59939W        W26348   0.381  34.387   0.883
59940W        W26349  30.575  26.626   2.491
59941W        W26350  36.856   1.778   4.557
59942W        W26351  42.502  14.536   0.525
59943W        W26352   3.357  18.193   1.703
59944W        W26353  30.444   4.017  13.128
59945W        W26354  40.593  24.105   3.912
59946W        W26355  14.277  13.346   0.478
59947W        W26356   5.137  15.813   0.856
59948W        W26357  42.730   5.212   0.886
59949W        W26358   5.668  36.896   2.449
59950W        W26359  17.070   1.862   4.234
59951W        W26360   4.711  18.053  14.489
59952W        W26361   7.347   5.851   2.607
59953W        W26362  26.519  31.594  11.644
59954W        W26363   9.851  21.030  13.040
59955W        W26364   0.330  17.734   1.145
59956W        W26365  15.201  23.687  10.372
59957W        W26366   1.277  28.714  11.529
59958W        W26367  44.483  34.416  11.096
59959W        W26368  44.282   4.815   3.181
59960W        W26369  39.535  16.266  11.528
59961W        W26370  24.213  29.557   3.731
59962W        W26371  13.437   3.983   1.870
59963W        W26372  31.925  30.412  14.285
59964W        W26373  40.409   2.333   4.113
59965W        W26374  11.815  21.694   0.745
59966W        W26375  31.007  41.562   4.173
59967W        W26376  11.698   4.807   4.979
59968W        W26377  44.911  19.845  14.308
59969W        W26378   7.944  27.055  14.107
59970W        W26379  36.624  38.854   3.487
59971W        W26380  22.768  17.153   2.673
59972W        W26381   9.906  18.705  10.767
59973W        W26382  40.012  29.346   0.399
59974W        W26383   9.388  29.833   0.865
59975W        W26384  28.189  41.542  13.826
59976W        W26385  20.752  20.252   1.703
59977W        W26386   7.154  33.315  14.228
59978W        W26387  37.569  43.040   1.250
59979W        W26388   1.076   8.419  11.500
59980W        W26389  24.736  29.596  11.725
59981W        W26390   4.479  16.275   2.401
59982W        W26391  30.891   6.250  11.017
59983W        W26392  25.832  37.337   1.457
59984W        W26393  15.069  31.589  11.971
59985W        W26394  29.654  23.610   0.381
59986W        W26395  35.572  26.165  12.562
59987W        W26396  13.582  24.674   1.848
59988W        W26397   2.003  21.642   3.516
59989W        W26398  16.248  10.204  12.032
59990W        W26399  29.714  25.240   2.961
59991W        W26400  40.326   1.934  10.512
59992W        W26401  21.174   8.350   2.626
59993W        W26402  44.577   8.257  10.849
59994W        W26403  44.496  42.951  14.622
59995W        W26404  23.062  37.312   0.002
59996W        W26405  15.351   2.206   4.553
59997W        W26406  33.642  39.300  11.943
59998W        W26407   3.238  10.600   1.894
59999W        W26408  38.049  42.386  12.556
60000W        W26409  12.072  38.054   3.175
60001W        W26410  29.718   0.755   0.875
60002W        W26411  10.888  10.671  11.496
60003W        W26412  24.597  17.510   2.799
60004W        W26413  19.728  19.771  11.179
60005W        W26414  15.664  18.207  13.052
60006W        W26415  22.160  18.729   4.141
60007W        W26416  37.156   0.221   4.541
60008W        W26417  26.266  19.458  11.985
60009W        W26418  18.354  12.742  11.009
60010W        W26419   2.118   7.285  14.520
60011W        W26420  15.122  43.740  12.689
60012W        W26421   9.822  13.415  14.434
60013W        W26422  18.055  43.415   0.817
60014W        W26423   6.202   3.491  11.901
60015W        W26424  13.215  38.478   2.704
60016W        W26425  28.496  41.967  14.965
60017W        W26426  16.931  27.927  14.492
60018W        W26427  11.317   7.849  14.920
60019W        W26428  41.873  14.796  10.717
60020W        W26429  20.232  14.408   2.451
60021W        W26430  29.611  34.589   2.277
60022W        W26431  42.678  13.180  11.415
60023W        W26432   3.341   0.833   2.122
60024W        W26433  18.603  30.938  10.657
60025W        W26434  18.895  35.994  13.894
60026W        W26435   9.883   5.869   2.867
60027W        W26436   7.645  29.011  11.894
60028W        W26437  37.002  38.858   1.933
60029W        W26438  44.563   9.275   2.790
60030W        W26439   9.628   9.277  11.498
60031W        W26440  12.669  44.865   3.712
60032W        W26441  13.620   3.557   2.316
60033W        W26442  41.953  44.868  13.345
60034W        W26443   3.852  25.673   3.196
60035W        W26444  19.344  31.073  10.880
60036W        W26445  11.259   3.710  13.382
60037W        W26446  29.181   2.734  11.204
60038W        W26447  39.512  42.449   4.199
60039W        W26448  23.049   6.893  11.402
60040W        W26449  42.019  44.555   1.483
60041W        W26450  20.360  10.176  14.977
60042W        W26451  28.957  38.339  13.043
60043W        W26452  20.011  34.885  14.527
60044W        W26453   4.921  16.130  14.318
60045W        W26454  43.508  18.616   0.361
60046W        W26455  25.789  18.822  10.966
60047W        W26456   9.772  18.766   3.660
60048W        W26457  31.663  39.595   3.298
60049W        W26458   8.787  20.979   3.705
60050W        W26459  19.523   9.797   0.853
60051W        W26460  12.638  12.620  14.281
60052W        W26461  34.394  39.054   2.802
60053W        W26462  19.710  19.255  11.069
60054W        W26463  30.618  43.020   2.446
60055W        W26464  21.768  38.786  13.129
60056W        W26465  27.295   0.017  12.082
60057W        W26466  27.542  28.621   2.850
60058W        W26467  38.387  18.087   0.802
60059W        W26468  21.602  33.878  13.872
60060W        W26469   4.739  39.146  12.642
60061W        W26470  15.667  24.784   4.080
60062W        W26471  26.332  30.084   0.946
60063W        W26472  32.223  31.052   4.622
60064W        W26473  36.612  14.136  12.098
60065W        W26474  42.985  25.045   3.470
60066W        W26475  44.209  13.956   4.741
60067W        W26476  32.362  29.830  14.008
60068W        W26477  41.632  36.961   4.069
60069W        W26478  18.744  33.492   0.310
60070W        W26479  29.159  40.644   3.160
60071W        W26480  11.229   8.615   2.336
60072W        W26481  40.979   5.128  12.886
60073W        W26482  29.131  15.385   1.766
60074W        W26483  25.924  14.540  11.098
60075W        W26484   9.900   6.242  14.363
60076W        W26485   5.626  37.852   2.340
60077W        W26486  44.436  32.750   1.747
60078W        W26487   5.756  33.662   3.715
60079W        W26488   2.203  11.251  14.069
60080W        W26489  33.385  42.044   4.522
60081W        W26490  14.615  31.810  14.891
60082W        W26491  30.623  15.248   1.710
60083W        W26492  37.956  31.980   4.565
60084W        W26493  35.869   9.657  11.138
60085W        W26494  18.178  40.545   0.849
60086W        W26495  28.199  27.435   0.264
60087W        W26496  34.865  37.627  14.027
60088W        W26497   6.919  28.134   2.753
60089W        W26498  44.754   5.254   1.805
60090W        W26499  15.077  38.493   4.030
60091W        W26500  32.132  36.966  13.958
60092W        W26501  15.805  33.128  12.404
60093W        W26502   4.580  26.794   3.280
60094W        W26503   3.355  28.238   2.323
60095W        W26504  28.587  33.993   0.165
60096W        W26505  42.017   6.343  11.747
60097W        W26506  33.583   7.774   2.415
60098W        W26507   7.263  32.560  12.556
60099W        W26508  12.039   4.811   1.404
60100W        W26509  36.586   3.810   4.468
60101W        W26510  25.661  35.982  14.290
60102W        W26511  22.549   2.676   3.190
60103W        W26512   3.728   0.332  14.752
60104W        W26513  13.854   7.554   2.746
60105W        W26514  18.811  37.625   0.277
60106W        W26515  40.732  44.897  11.611
60107W        W26516  40.031  34.848  11.068
60108W        W26517  44.265  10.741  11.625
60109W        W26518  39.786  31.176   2.193
60110W        W26519  44.490  39.259   0.383
60111W        W26520  26.659  15.585  12.603
60112W        W26521  30.449  29.647   3.947
60113W        W26522  10.203  22.094  13.589
60114W        W26523  27.601  25.934  10.705
60115W        W26524  18.616  18.237  11.415
60116W        W26525  38.465  31.266   4.533
60117W        W26526   4.022  26.898  13.016
60118W        W26527  31.884  25.185   0.334
60119W        W26528   9.216  10.390   2.763
60120W        W26529  40.099  43.926   1.309
60121W        W26530  40.955  32.814   0.365
60122W        W26531  18.349  38.013  10.736
60123W        W26532  18.737  28.524   0.456
60124W        W26533  12.188   8.304  13.555
60125W        W26534   9.918   6.949  11.478
60126W        W26535  13.087  18.785  12.571
60127W        W26536  33.837  24.000  11.558
60128W        W26537  27.741  13.711  13.093
60129W        W26538  16.214   0.423   3.195
60130W        W26539  33.165  27.150   0.739
60131W        W26540  18.301  30.590  13.821
60132W        W26541  34.885  31.291  10.798
60133W        W26542  17.218   7.387   0.198
60134W        W26543  15.280  38.845  13.940
60135W        W26544   3.225  37.818   3.259
60136W        W26545   0.529  41.357   4.754
60137W        W26546  19.994  36.706  13.463
60138W        W26547  38.395  13.749   3.401
60139W        W26548  21.065  19.763   4.226
60140W        W26549  24.800  15.727  14.932
60141W        W26550  35.482   9.214  12.903
60142W        W26551  35.335  40.423  11.565
60143W        W26552  37.161  33.875  10.723
60144W        W26553  28.915  14.221   0.360
60145W        W26554   6.366  39.322  11.065
60146W        W26555  34.040  23.252   4.011
60147W        W26556  13.728  19.076  12.388
60148W        W26557  25.306  36.537  12.056
60149W        W26558  18.058  36.610   2.122
60150W        W26559  18.185  35.435  13.364
60151W        W26560  36.812  16.110  13.883
60152W        W26561  11.072  12.917  12.462
60153W        W26562   2.813  43.836  12.412
60154W        W26563  19.606  39.094  14.485
60155W        W26564  26.742  41.325  10.677
60156W        W26565  23.778  26.853  11.551
60157W        W26566  40.540  36.764  13.541
60158W        W26567   7.833  10.189  13.130
60159W        W26568  24.987  22.330  12.130
60160W        W26569  30.408  38.994  10.720
60161W        W26570  21.707  22.185   1.885
60162W        W26571  12.534   0.812   1.214
60163W        W26572  36.689  11.333  12.088
60164W        W26573  15.606  30.599  11.181
60165W        W26574  32.539   1.364   0.964
60166W        W26575   5.902  42.230   2.094
60167W        W26576  44.236  17.609   0.043
60168W        W26577   4.753  39.170  10.134
60169W        W26578  35.942   6.732   4.046
60170W        W26579  36.956  34.105   2.713
60171W        W26580  43.267  35.153  12.107
60172W        W26581  28.570   0.655   1.896
60173W        W26582  17.572   6.982   0.245
60174W        W26583  10.008  15.115   0.821
60175W        W26584  16.024  14.239  10.772
60176W        W26585  11.667  19.564  13.548
60177W        W26586  26.435  34.427  13.536
60178W        W26587  23.420  17.693  10.745
60179W        W26588  32.568   2.631  10.240
60180W        W26589  19.619  14.278  13.456
60181W        W26590   9.851   5.399  10.945
60182W        W26591  37.345  11.828   4.549
60183W        W26592  17.573  19.056  11.174
60184W        W26593   1.966  41.512  12.024
60185W        W26594  29.092  27.998   4.389
60186W        W26595  44.190  13.491   4.959
60187W        W26596  22.851  43.386  12.565
60188W        W26597  35.395  40.050   3.141
60189W        W26598   7.857  40.988   3.734
60190W        W26599   5.188   8.382   0.800
60191W        W26600  40.099   9.254   0.323
60192W        W26601  43.314   1.891   3.461
60193W        W26602  32.222  35.391   2.378
60194W        W26603   7.824   2.426  14.899
60195W        W26604  42.236  35.362   0.307
60196W        W26605  20.765  27.400  13.568
60197W        W26606  17.713  28.545  12.214
60198W        W26607  44.253  32.624  11.317
60199W        W26608  23.700   9.723   4.625
60200W        W26609  10.443  27.675   4.810
60201W        W26610   6.800   0.955  13.608
60202W        W26611  19.312  23.226   4.304
60203W        W26612  25.708  36.755  13.919
60204W        W26613  16.696  39.167   4.117
60205W        W26614  31.803  23.038  11.665
60206W        W26615  18.469  11.933   4.488
60207W        W26616  22.565  43.362  10.745
60208W        W26617  12.249  36.904   2.174
60209W        W26618  12.806  19.184  11.809
60210W        W26619  18.035   7.873  12.541
60211W        W26620   7.470  23.079  12.881
60212W        W26621  29.011  41.046   1.257
60213W        W26622   0.007   4.723   3.871
60214W        W26623  36.108  16.028   0.279
60215W        W26624  29.976   3.003  11.664
60216W        W26625   0.142   7.223   3.407
60217W        W26626  20.530  32.364   1.978
60218W        W26627  20.566   3.179  12.139
60219W        W26628  27.701  35.977  14.702
60220W        W26629  20.473  40.097  10.670
60221W        W26630  22.726  13.290  14.148
60222W        W26631   9.304  35.493   0.480
60223W        W26632  36.953  33.504   1.138
60224W        W26633   9.268  20.790   4.342
60225W        W26634   9.399  10.023  12.078
60226W        W26635   7.954  39.870   2.419
60227W        W26636   3.662   2.787  12.636
60228W        W26637   0.544  11.799   1.355
60229W        W26638  28.276  16.328  11.870
60230W        W26639  26.532  18.798  12.008
60231W        W26640  37.502  11.853  10.951
60232W        W26641  44.407   5.721   4.681
60233W        W26642   7.450  17.346   2.694
60234W        W26643  30.573  23.625   1.898
60235W        W26644  43.917  18.248   0.256
60236W        W26645  29.180   3.078   0.863
60237W        W26646  13.541  20.036  11.516
60238W        W26647  39.016  21.167   5.661
60239W        W26648   6.179  21.044  14.898
60240W        W26649  20.972  34.564   3.776
60241W        W26650  12.180  21.372   5.085
60242W        W26651  14.709  33.378   2.372
60243W        W26652  33.981  25.221   4.259
60244W        W26653  36.922  16.200   1.132
60245W        W26654  41.486  34.514  12.115
60246W        W26655  25.553  38.598  11.593
60247W        W26656  24.125  41.797  14.333
60248W        W26657  32.638  43.919  14.993
60249W        W26658  31.447  22.582  13.116
60250W        W26659  13.265  27.252   2.140
60251W        W26660  22.425  12.178   3.613
60252W        W26661  25.000  14.430  14.263
60253W        W26662  11.674   7.365  11.594
60254W        W26663   4.662   7.566   0.226
60255W        W26664  13.178  15.632   4.274
60256W        W26665   0.397  15.169   0.321
60257W        W26666   9.259  13.567  11.175
60258W        W26667  27.310  31.894   1.794
60259W        W26668  35.015  27.162   3.609
60260W        W26669  27.514  13.263  10.311
60261W        W26670  15.686  38.319  13.217
60262W        W26671   8.346  30.604  10.304
60263W        W26672  21.224  23.943  10.352
60264W        W26673  15.397  39.988   1.272
60265W        W26674  34.037  36.953   4.621
60266W        W26675  31.343  42.873  10.305
60267W        W26676   6.448  44.405   0.389
60268W        W26677  15.481  29.086   4.159
60269W        W26678  25.722  21.677   3.466
60270W        W26679  36.407  23.669  12.533
60271W        W26680   9.166  21.554   3.764
60272W        W26681  22.317  13.361  11.707
60273W        W26682   8.064  35.217   3.153
60274W        W26683  40.015  36.218   2.928
60275W        W26684   1.730   4.288   0.142
60276W        W26685  15.866  28.617   1.866
60277W        W26686  37.260   2.845  11.504
60278W        W26687  38.032   2.680  13.294
60279W        W26688  33.982   0.389  12.386
60280W        W26689   4.612  13.810  10.283
60281W        W26690  13.065  43.892   1.284
60282W        W26691  35.532   7.306   0.310
60283W        W26692  21.089   0.293   2.831
60284W        W26693  25.636  26.457  10.653
60285W        W26694  31.845  42.144   2.267
60286W        W26695  27.560  29.546  13.975
60287W        W26696  42.982  15.149  11.581
60288W        W26697  37.814  33.137  12.215
60289W        W26698  37.117  27.603   3.288
60290W        W26699  44.436  14.293   0.753
60291W        W26700  15.053  13.785  13.372
60292W        W26701   2.822  35.208  14.851
60293W        W26702   6.681  36.033   0.212
60294W        W26703  34.326  25.922  10.809
60295W        W26704  22.875  34.023   3.661
60296W        W26705  38.801  36.911   0.545
60297W        W26706  26.185  13.805  11.585
60298W        W26707  10.543  37.521  10.282
60299W        W26708  28.118   5.400  11.769
60300W        W26709   8.844  35.335  12.922
60301W        W26710   2.130  40.493   4.715
60302W        W26711   6.647   2.243   3.446
60303W        W26712  39.974  11.102  13.506
60304W        W26713  32.611   5.705  13.098
60305W        W26714   8.906  42.913   4.632
60306W        W26715  16.840  18.663  11.131
60307W        W26716  37.003   7.270   4.575
60308W        W26717  32.803   0.430  14.748
60309W        W26718   4.269   7.828  10.604
60310W        W26719   6.284   8.240   3.825
60311W        W26720  21.001  25.439  11.617
60312W        W26721  11.406  28.662   4.912
60313W        W26722  35.956  30.150  13.052
60314W        W26723  28.027   0.507  11.095
60315W        W26724  31.613  10.001  11.161
60316W        W26725  10.444  27.874  12.645
60317W        W26726  18.597  10.708   3.675
60318W        W26727  12.588  13.166  10.772
60319W        W26728  23.464   8.530   4.191
60320W        W26729  15.301  11.729  14.330
60321W        W26730   2.821   4.410   1.713
60322W        W26731   0.350   8.431   5.320
60323W        W26732  21.127  27.922  10.741
60324W        W26733  26.744  23.291  12.083
60325W        W26734  17.521  10.444   4.129
60326W        W26735  42.412  30.853  11.686
60327W        W26736  42.934  21.151   4.111
60328W        W26737  37.204   4.389   0.534
60329W        W26738   9.890  24.122  10.682
60330W        W26739  44.319  38.616  11.727
60331W        W26740  25.987  17.143  13.204
60332W        W26741  24.202  33.131   2.666
60333W        W26742  29.428  44.459  11.502
60334W        W26743  25.109  15.642  10.997
60335W        W26744  18.339   9.833  11.302
60336W        W26745  12.340  42.967  10.534
60337W        W26746  21.494  24.718  12.963
60338W        W26747  20.778  17.706  11.054
60339W        W26748  22.623  29.361  12.583
60340W        W26749  36.907   5.682   0.819
60341W        W26750  22.911  43.490  12.034
60342W        W26751  29.102   2.063   0.648
60343W        W26752  27.626  27.760  14.153
60344W        W26753  38.182   9.298   4.104
60345W        W26754   5.180  33.908   2.800
60346W        W26755  23.465  43.863  13.797
60347W        W26756  18.631  35.198  14.844
60348W        W26757  40.276   9.557  14.877
60349W        W26758  30.923   8.630  10.974
60350W        W26759  29.657  34.976   3.318
60351W        W26760  37.090  24.134  13.526
60352W        W26761   2.956  22.976   4.296
60353W        W26762  25.415   0.386   3.786
60354W        W26763  27.933  20.823  13.383
60355W        W26764  43.359   4.976   0.237
60356W        W26765  19.532  31.080  14.833
60357W        W26766   7.112  22.233   0.993
60358W        W26767  28.253  12.884  12.111
60359W        W26768  10.664  42.641   2.300
60360W        W26769  24.262  41.040  12.532
60361W        W26770   5.241  34.586   0.807
60362W        W26771  19.541  38.775   4.838
60363W        W26772  33.901  42.180  11.030
60364W        W26773   1.855  28.071   3.154
60365W        W26774  18.350  19.801   3.158
60366W        W26775  26.265  17.550   2.401
60367W        W26776  12.587  22.576  10.530
60368W        W26777  37.341  36.786  13.529
60369W        W26778  34.558   6.799  11.365
60370W        W26779  34.032   9.260  12.989
60371W        W26780  29.007  21.999   4.438
60372W        W26781   7.734  13.792   5.007
60373W        W26782  33.090   6.947   0.569
60374W        W26783  19.797  19.644  12.567
60375W        W26784  10.386  38.320   2.806
60376W        W26785  12.595   2.422   0.294
60377W        W26786  12.872  23.812   1.760
60378W        W26787  38.784   0.006  11.568
60379W        W26788  38.619  33.075   0.363
60380W        W26789   9.814  26.846   0.517
60381W        W26790  39.779  27.100   3.328
60382W        W26791  23.143  40.098   3.474
60383W        W26792  25.950  31.018  10.667
60384W        W26793  14.792  23.242   3.154
60385W        W26794  22.595  19.183  12.355
60386W        W26795  16.744  21.515   0.203
60387W        W26796   5.299  34.664   1.674
60388W        W26797  35.926  12.478   0.583
60389W        W26798  30.074  34.582  14.873
60390W        W26799  40.371  31.185   0.799
60391W        W26800  12.919  32.654  11.140
60392W        W26801  26.125   0.281  10.603
60393W        W26802  13.801  29.118  10.685
60394W        W26803   5.303  35.994  13.524
60395W        W26804   2.408  24.517   4.084
60396W        W26805  13.163  20.652  14.981
60397W        W26806  22.031  39.563   1.677
60398W        W26807   5.676   0.845   3.368
60399W        W26808  35.572  18.492   3.378
60400W        W26809   4.411  33.792  12.076
60401W        W26810   2.386  31.431   0.750
60402W        W26811   2.958  17.521   4.556
60403W        W26812  39.608  32.518  12.538
60404W        W26813  13.569   5.728  12.385
60405W        W26814  22.683   7.246   0.294
60406W        W26815  14.328   4.013  11.879
60407W        W26816   6.593  44.279   4.080
60408W        W26817  44.269  20.181   0.890
60409W        W26818   9.708  44.971  13.201
60410W        W26819  29.732  33.423  14.074
60411W        W26820  25.803   4.222  13.422
60412W        W26821  39.219  23.724  11.470
60413W        W26822  33.815  41.505  14.619
60414W        W26823  20.503  35.663   2.998
60415W        W26824  41.194  14.848   0.174
60416W        W26825  23.378  40.042  13.122
60417W        W26826  16.884  24.166   4.188
60418W        W26827  37.428  36.133  14.721
60419W        W26828  10.287  11.214   2.154
60420W        W26829  18.200  34.809  12.401
60421W        W26830   9.863  10.785  12.936
60422W        W26831  28.629  32.645  14.991
60423W        W26832  38.831  20.890  14.032
60424W        W26833  44.579   6.441   1.366
60425W        W26834  34.751   6.875  13.276
60426W        W26835  21.155  15.560   1.745
60427W        W26836  10.749   5.253  11.652
60428W        W26837  22.155  18.137  13.553
60429W        W26838  41.358   8.127   5.193
60430W        W26839  28.278   5.557  13.069
60431W        W26840  15.344  22.107  14.428
60432W        W26841  42.744  34.935   0.798
60433W        W26842  16.767  27.088   0.656
60434W        W26843  27.118  27.479  13.483
60435W        W26844  17.751   5.722   3.655
60436W        W26845   0.263  12.060  13.835
60437W        W26846  33.487  23.151   4.011
60438W        W26847  20.833  34.262   1.184
60439W        W26848  30.700   0.412  12.056
60440W        W26849  28.066  18.739   3.605
60441W        W26850  21.099  42.108  14.627
60442W        W26851  29.476  30.112   1.190
60443W        W26852  39.280  19.401   0.873
60444W        W26853  39.945  27.410  13.676
60445W        W26854   9.359  15.752  11.958
60446W        W26855  34.581  31.729  11.004
60447W        W26856   9.056  42.191   1.615
60448W        W26857  38.505  30.446  13.524
60449W        W26858  43.580   9.716   0.811
60450W        W26859  24.571  33.952  11.920
60451W        W26860  30.965  30.993   4.528
60452W        W26861  25.084  38.784  14.442
60453W        W26862  15.045  24.124   2.809
60454W        W26863  33.549  37.660   3.695
60455W        W26864  11.550  25.259  13.366
60456W        W26865  14.308  43.989   1.680
60457W        W26866  31.084  43.853   0.987
60458W        W26867  29.628  17.496   0.430
60459W        W26868  18.544  25.247  10.522
60460W        W26869  38.283  22.080  11.576
60461W        W26870   8.382  25.251   2.020
60462W        W26871  11.670  24.021  14.468
60463W        W26872  12.684  11.094   1.489
60464W        W26873   6.375   5.260   2.971
60465W        W26874  29.519  37.054  11.476
60466W        W26875  19.085  26.923   3.073
60467W        W26876  31.680  15.135  11.698
60468W        W26877   7.750   3.746   2.469
60469W        W26878   5.041  39.145   0.379
60470W        W26879  39.905  13.582  12.117
60471W        W26880  12.675   2.975   9.807
60472W        W26881  37.040  15.611  11.923
60473W        W26882  32.654   6.822  14.788
60474W        W26883  40.486   8.024  14.939
60475W        W26884  32.407   0.516  12.003
60476W        W26885  36.531   2.488  12.560
60477W        W26886  44.541  40.941   0.224
60478W        W26887  20.258  19.829   0.456
60479W        W26888  37.590  25.598  12.940
60480W        W26889  23.635  18.182  10.676
60481W        W26890  32.849  29.842   0.884
60482W        W26891  38.358  22.732   4.303
60483W        W26892   3.735  22.056  10.930
60484W        W26893  44.146  13.823  12.805
60485W        W26894  10.926  26.678  14.396
60486W        W26895  42.118  34.495   3.593
60487W        W26896  41.836   0.506   1.326
60488W        W26897  24.500  31.595  12.067
60489W        W26898  12.528   5.624   3.154
60490W        W26899  20.526  18.037  13.501
60491W        W26900  33.157  35.132  10.890
60492W        W26901   1.041  38.460   0.393
60493W        W26902  25.715  24.903  10.643
60494W        W26903  23.012   5.891   1.210
60495W        W26904  43.567  26.164  14.893
60496W        W26905  44.282  41.229   4.966
60497W        W26906  44.356  23.150   0.363
60498W        W26907  31.099  32.075  10.800
60499W        W26908  13.669   3.156   2.693
60500W        W26909   8.139  11.700   3.259
60501W        W26910  23.435  41.783   3.683
60502W        W26911   8.898  26.813  12.526
60503W        W26912  30.247   1.544  10.693
60504W        W26913  41.890  36.784  13.876
60505W        W26914  31.488   1.955  10.107
60506W        W26915  36.120   8.136   2.745
60507W        W26916  16.670  33.238  13.299
60508W        W26917   8.922  26.596   3.307
60509W        W26918  34.888  41.009   0.808
60510W        W26919  33.048  24.511  12.425
60511W        W26920  28.970  21.677   1.269
60512W        W26921  18.541  43.981  11.395
60513W        W26922  29.108  38.175   3.055
60514W        W26923  25.926  14.348   0.274
60515W        W26924   8.126  44.931  14.611
60516W        W26925  21.620  34.531   0.223
60517W        W26926  29.689  37.329   3.523
60518W        W26927   3.157  31.938  13.016
60519W        W26928  28.521   1.631   4.577
60520W        W26929   6.793  19.850  12.884
60521W        W26930  27.907  22.041  10.217
60522W        W26931  31.742  33.993  12.413
60523W        W26932  24.907  27.910  12.875
60524W        W26933  39.978  12.772   3.598
60525W        W26934  24.290  28.430   4.622
60526W        W26935   4.894   9.624   0.467
60527W        W26936  41.546   2.327  13.381
60528W        W26937  28.497   1.470  12.079
60529W        W26938  36.598  31.926   1.269
60530W        W26939  16.182  35.761   2.264
60531W        W26940  37.882  37.502   2.783
60532W        W26941  17.600  31.467  14.935
60533W        W26942  14.322  12.940  12.744
60534W        W26943   6.929  34.654  10.688
60535W        W26944  29.552   7.882  14.915
60536W        W26945  35.323  36.819  12.129
60537W        W26946  27.165  14.640  11.460
60538W        W26947  28.084  18.615   3.105
60539W        W26948  37.562  16.037  13.709
60540W        W26949  40.943  25.498  12.123
60541W        W26950  14.424  35.506  13.425
60542W        W26951  30.022   3.692  14.800
60543W        W26952   3.294   4.013   1.252
60544W        W26953  14.380  18.416   4.761
60545W        W26954  14.622  39.407  14.734
60546W        W26955  32.595  41.173   9.861
60547W        W26956  37.012  39.303  12.578
60548W        W26957  25.182   9.339  11.846
60549W        W26958  32.012  36.760  13.055
60550W        W26959   1.332   1.754   3.596
60551W        W26960  36.425  19.496  11.882
60552W        W26961  41.381   9.294   1.960
60553W        W26962  27.678  35.658   1.169
60554W        W26963  27.950  22.627  12.407
60555W        W26964  21.626   4.216  12.129
60556W        W26965  16.401  25.123   9.665
60557W        W26966   0.508  24.108   3.784
60558W        W26967  19.290  44.095  13.360
60559W        W26968  27.695   4.870   4.981
60560W        W26969  15.208  24.257   3.364
60561W        W26970   4.334  18.839   3.180
60562W        W26971  23.074   6.124  11.036
60563W        W26972   2.001  38.242  12.078
60564W        W26973  43.364  24.804   4.590
60565W        W26974  16.756  25.768   2.196
60566W        W26975  10.447   2.407  11.205
60567W        W26976  36.991  34.038   4.094
60568W        W26977  18.321  37.821   3.129
60569W        W26978  40.989  26.107   4.571
60570W        W26979  37.327   1.201   1.762
60571W        W26980  36.317  42.613  11.973
60572W        W26981  41.534  39.311  13.317
60573W        W26982  28.556  16.100   0.279
60574W        W26983  27.968  27.837   2.723
60575W        W26984  14.830   1.847   1.356
60576W        W26985   0.762  34.967  11.901
60577W        W26986  16.999   4.944  11.632
60578W        W26987  19.325   5.613  13.465
60579W        W26988  31.729  27.900  11.998
60580W        W26989  39.962   1.451  11.611
60581W        W26990   8.388  42.024  12.459
60582W        W26991  32.468  29.379  12.022
60583W        W26992  24.554  30.438  10.705
60584W        W26993  40.741   8.751  10.664
60585W        W26994  42.489  43.537   1.881
60586W        W26995  31.067  33.110  13.559
60587W        W26996  37.262   8.765  11.562
60588W        W26997  20.552  43.461   2.258
60589W        W26998  22.232  24.534   4.383
60590W        W26999  10.179  44.945  11.553
60591W        W27000  37.316   5.010   1.277
60592W        W27001  35.854   3.910  14.239
60593W        W27002  28.147  17.697  12.123
60594W        W27003   9.860  38.412   0.702
60595W        W27004  12.739  41.825  13.033
60596W        W27005   1.771  19.591   2.677
60597W        W27006  27.801  25.680   4.960
60598W        W27007  23.432  27.018  13.458
60599W        W27008  34.415   4.066   1.194
60600W        W27009  36.029   1.398  13.021
60601W        W27010  30.892  42.380   3.192
60602W        W27011  36.912  25.746  11.144
60603W        W27012   5.980   5.411   3.247
60604W        W27013  11.113  31.354   1.808
60605W        W27014   9.365  42.022   0.558
60606W        W27015   3.758  15.788   0.403
60607W        W27016  41.864   4.802  10.277
60608W        W27017  12.357   9.127  11.717
60609W        W27018  43.001   7.325   9.810
60610W        W27019  34.328  15.402   3.106
60611W        W27020  19.753   6.409  11.132
60612W        W27021  12.625  38.885   3.210
60613W        W27022   1.848   7.122   4.787
60614W        W27023  11.607  43.778  11.882
60615W        W27024   5.374  36.921   0.184
60616W        W27025  42.038  38.547  10.794
60617W        W27026  44.869  42.303   3.170
60618W        W27027  19.994  24.113  10.440
60619W        W27028   3.952  10.729  12.513
60620W        W27029  12.614  24.207  13.462
60621W        W27030   3.922   8.298   3.059
60622W        W27031  29.840  21.239   0.047
60623W        W27032  40.034  39.391  10.890
60624W        W27033   4.223   6.081  14.316
60625W        W27034  37.441  44.415   3.119
60626W        W27035  20.968  40.408   1.553
60627W        W27036  38.785   7.155  12.903
60628W        W27037  17.793  31.203  13.928
60629W        W27038  30.441  18.491   4.620
60630W        W27039  41.422  23.969  12.558
60631W        W27040  26.930  33.770  13.921
60632W        W27041  21.012   1.987   4.129
60633W        W27042  20.195  32.508   3.608
60634W        W27043  43.328  12.447   2.318
60635W        W27044  16.214  26.738   4.616
60636W        W27045  22.504  33.505  12.451
60637W        W27046   3.371  15.406  14.793
60638W        W27047  10.654  23.706   4.683
60639W        W27048   0.768  20.454  14.824
60640W        W27049   5.870  39.964  13.305
60641W        W27050  17.058   3.619   1.771
60642W        W27051  18.000  12.234   3.305
60643W        W27052  33.221   8.681  10.629
60644W        W27053  20.104  26.123   3.759
60645W        W27054   3.950  38.430   0.980
60646W        W27055  26.159  13.100   0.844
60647W        W27056  21.643  43.239   4.032
60648W        W27057  16.809  34.181   1.496
60649W        W27058   3.249  24.052  11.035
60650W        W27059  25.601  27.658   3.763
60651W        W27060  44.785  44.423   0.501
60652W        W27061  40.166  44.409  12.449
60653W        W27062  10.495   5.823  13.068
60654W        W27063  11.155  24.774   3.675
60655W        W27064  13.029   3.977  10.979
60656W        W27065   7.224   0.389   0.359
60657W        W27066  41.452  14.622  13.846
60658W        W27067  30.550  31.266  11.539
60659W        W27068  24.453  30.021   3.682
60660W        W27069  12.563  26.557   0.316
60661W        W27070  29.041  17.170   3.295
60662W        W27071  40.415  37.434  12.988
60663W        W27072  35.857   4.975   3.232
60664W        W27073  14.233  26.773   3.832
60665W        W27074  38.626  33.022   1.323
60666W        W27075  33.051  21.515  14.236
60667W        W27076  30.372  40.395  14.748
60668W        W27077  29.491  10.850  13.648
60669W        W27078  44.919  19.948   2.629
60670W        W27079   3.280  41.311  11.234
60671W        W27080  41.974  18.998   1.196
60672W        W27081  33.602  24.748  11.175
60673W        W27082  12.861  25.734   1.072
60674W        W27083  17.419  42.225   3.134
60675W        W27084  41.545  20.260   2.355
60676W        W27085  12.710  41.534   4.547
60677W        W27086  43.115  36.623  12.132
60678W        W27087  30.064  18.532  12.982
60679W        W27088  35.402   1.375  11.554
60680W        W27089  40.107   0.037   4.301
60681W        W27090   5.497  13.491  11.163
60682W        W27091   3.554  22.611  11.083
60683W        W27092  27.316  15.658   4.024
60684W        W27093  30.619  44.971   4.429
60685W        W27094  39.991  34.524  13.106
60686W        W27095  41.312  11.329  13.486
60687W        W27096  32.171  39.056  11.099
60688W        W27097   1.742  10.358  12.931
60689W        W27098  24.022  24.224   3.200
60690W        W27099  29.565  15.518   0.747
60691W        W27100  19.030  17.525  10.775
60692W        W27101   1.514  41.809  14.806
60693W        W27102  24.203  33.104  14.447
60694W        W27103  36.153  15.661  12.483
60695W        W27104   3.763  33.831   2.749
60696W        W27105  40.113  30.923  12.339
60697W        W27106  14.408  30.414   3.879
60698W        W27107  14.834  20.527  12.246
60699W        W27108   4.203   9.821   2.029
60700W        W27109  36.533  32.713  10.857
60701W        W27110  30.013  25.921  10.700
60702W        W27111  16.520  38.851   2.933
60703W        W27112  12.320  19.689   2.266
60704W        W27113  17.590   2.771   1.977
60705W        W27114  28.232  25.621   0.375
60706W        W27115   6.141  24.020  14.784
60707W        W27116  44.208  35.144   1.660
60708W        W27117   9.630   2.539   2.807
60709W        W27118  14.399  27.634  14.888
60710W        W27119  23.062  24.738  11.062
60711W        W27120  14.985  12.087  12.780
60712W        W27121  19.007  31.490   1.179
60713W        W27122  15.532  18.857  10.993
60714W        W27123   6.214   4.445   4.138
60715W        W27124   2.363  35.965  12.912
60716W        W27125  17.752  32.608   2.626
60717W        W27126  31.626  18.168   0.370
60718W        W27127  31.609  36.845   4.537
60719W        W27128  43.326  17.284  11.184
60720W        W27129  22.480   9.770  14.636
60721W        W27130   0.502  39.321  10.984
60722W        W27131   6.766  29.599   3.194
60723W        W27132   0.418  25.032  14.815
60724W        W27133  41.967  34.618   2.644
60725W        W27134  39.962  10.255   1.002
60726W        W27135  18.086  37.697  13.467
60727W        W27136  28.358  11.738  12.913
60728W        W27137   9.868  37.296   3.592
60729W        W27138   3.507   6.326  14.819
60730W        W27139   5.560   8.539   2.805
60731W        W27140   1.016  19.015  11.176
60732W        W27141  20.628  17.684   2.208
60733W        W27142  25.420  13.640   1.856
60734W        W27143  31.879  26.716   0.463
60735W        W27144  26.641  20.642  14.489
60736W        W27145   7.341  23.181  11.982
60737W        W27146  17.521   4.900   3.148
60738W        W27147  29.379  44.837  13.000
60739W        W27148  15.728  43.976  12.562
60740W        W27149  35.618  17.510   3.214
60741W        W27150  16.408  24.090  12.838
60742W        W27151   8.724   7.887  10.719
60743W        W27152  10.901  33.078  13.767
60744W        W27153   9.671  31.300  10.685
60745W        W27154  39.114  32.056   4.705
60746W        W27155  34.097   8.322  12.834
60747W        W27156  40.895  16.922   3.713
60748W        W27157   3.351  20.991   1.898
60749W        W27158  16.833   9.885   2.661
60750W        W27159  17.203  44.253   1.818
60751W        W27160  15.828  31.200   0.605
60752W        W27161  16.473  24.029   2.480
60753W        W27162  15.704  27.477   0.867
60754W        W27163  27.592  40.497  10.693
60755W        W27164   9.715   5.287  12.432
60756W        W27165  21.222  29.570  10.578
60757W        W27166  36.009  37.435  10.733
60758W        W27167  26.871   0.702   1.271
60759W        W27168  23.746  41.124  12.559
60760W        W27169  29.526  28.837   2.652
60761W        W27170   9.606  23.669  10.662
60762W        W27171  11.287  41.495   1.400
60763W        W27172  21.972  39.276  12.024
60764W        W27173  15.299  35.848   4.945
60765W        W27174  18.599  42.819   3.836
60766W        W27175  15.542  36.707  11.889
60767W        W27176  15.385  39.432   2.664
60768W        W27177  38.763  32.367   2.150
60769W        W27178  20.687  40.361   1.985
60770W        W27179  38.392  42.740   3.401
60771W        W27180  36.561  25.818  14.828
60772W        W27181  36.956  36.145   3.426
60773W        W27182  28.412  31.421  14.432
60774W        W27183  28.302   3.718   3.429
60775W        W27184  30.948  43.697   0.525
60776W        W27185   5.946  39.062   0.204
60777W        W27186  22.078  28.672   0.305
60778W        W27187  27.040   8.164   0.425
60779W        W27188  29.170  30.156  11.070
60780W        W27189  15.560  26.991  11.614
60781W        W27190  42.474  43.902  11.171
60782W        W27191   9.253  18.706  11.571
60783W        W27192  36.965  44.456   1.185
60784W        W27193  20.066  28.158  14.778
60785W        W27194  16.627  34.635  10.510
60786W        W27195  11.920  36.303  10.599
60787W        W27196  12.630  22.854  10.969
60788W        W27197  32.005  11.021  10.269
60789W        W27198  43.354  27.117  14.455
60790W        W27199  16.236  19.091  13.517
60791W        W27200  44.432  11.918  14.487
60792W        W27201   2.455  17.512  13.006
60793W        W27202  14.042  43.188  14.039
60794W        W27203  26.361  21.542   4.675
60795W        W27204  37.317  23.068  11.492
60796W        W27205  40.303   5.869   2.618
60797W        W27206  31.380  37.842   2.285
60798W        W27207  43.460   0.563  13.776
60799W        W27208   6.365   5.929  12.583
60800W        W27209   2.464  35.803   4.591
60801W        W27210  23.077  41.283   1.351
60802W        W27211  43.126   9.914  14.829
60803W        W27212  43.810  28.104  14.237
60804W        W27213   9.722  11.858   2.374
60805W        W27214  21.111   8.853   5.092
60806W        W27215  11.170  15.579  12.288
60807W        W27216   1.473   4.401   1.874
60808W        W27217  29.757  34.048   4.654
60809W        W27218  10.739  18.368   2.851
60810W        W27219  41.577  29.910   1.998
60811W        W27220  26.050   8.415  13.078
60812W        W27221  41.282   6.792  14.463
60813W        W27222   0.634   4.420  13.890
60814W        W27223   8.316  13.537   0.370
60815W        W27224  20.531  25.025   0.038
60816W        W27225   7.195  25.560  13.439
60817W        W27226  29.682  29.266   2.938
60818W        W27227  10.738  43.179   1.223
60819W        W27228  18.575  17.336  11.422
60820W        W27229   8.614  22.589  14.596
60821W        W27230   4.703  10.901   2.719
60822W        W27231  41.819  31.473   1.163
60823W        W27232  12.999  44.607   4.838
60824W        W27233  36.482  13.237  14.990
60825W        W27234  14.668   0.368   4.578
60826W        W27235  18.659  31.520   2.789
60827W        W27236  10.119  17.933   0.885
60828W        W27237  20.445  20.104  14.227
60829W        W27238  40.393   4.863   4.540
60830W        W27239  33.188  10.621   3.720
60831W        W27240  21.752  30.360  14.333
60832W        W27241  18.549  23.583   2.697
60833W        W27242  19.993  18.143  10.665
60834W        W27243  25.975  38.418  14.431
60835W        W27244   4.913  37.116   0.376
60836W        W27245  14.285  28.810   1.208
60837W        W27246  35.560  21.495   2.800
60838W        W27247  36.610  12.327  12.797
60839W        W27248  11.343  15.858   0.649
60840W        W27249   5.037  18.083  11.921
60841W        W27250  11.374  15.139   3.189
60842W        W27251  15.120  16.969   2.211
60843W        W27252  11.182  28.845  11.672
60844W        W27253  41.515  21.184   3.950
60845W        W27254  41.002  43.985  11.465
60846W        W27255  37.969  31.099   4.486
60847W        W27256  43.414  37.113  13.404
60848W        W27257  40.386  25.910   3.915
60849W        W27258  32.184  17.627  10.646
60850W        W27259   8.191   7.362  14.315
60851W        W27260  12.215  40.489  14.996
60852W        W27261  14.748  27.947   2.741
60853W        W27262   5.259  20.750  11.551
60854W        W27263  35.367  42.820  10.789
60855W        W27264  26.066  23.332   0.696
60856W        W27265  28.693  24.248   2.158
60857W        W27266  42.328  21.717  10.427
60858W        W27267  32.188  18.199   2.742
60859W        W27268  15.194   2.390   3.228
60860W        W27269  17.264   6.498   0.299
60861W        W27270  11.580  29.498   1.874
60862W        W27271  15.855  32.070   2.693
60863W        W27272  28.338  15.816   5.068
60864W        W27273  33.076  23.030  11.139
60865W        W27274  25.198  14.706   1.850
60866W        W27275  39.545   4.286  12.325
60867W        W27276  23.995  35.676   0.688
60868W        W27277  41.524  29.584   3.989
60869W        W27278   6.928  30.934  14.375
60870W        W27279  15.221  41.088  11.547
60871W        W27280  43.775  24.171  12.515
60872W        W27281  15.214  40.293  11.975
60873W        W27282   8.032  43.844   1.021
60874W        W27283  17.895  25.144   5.025
60875W        W27284   5.928  38.228  13.049
60876W        W27285  30.495  39.636   4.091
60877W        W27286  22.843  36.915   4.607
60878W        W27287   2.442  21.974   0.377
60879W        W27288  42.582  13.982  12.548
60880W        W27289  40.950  43.237   2.207
60881W        W27290  19.015  10.706   0.594
60882W        W27291  18.484   9.367   1.870
60883W        W27292  15.426  42.622  12.459
60884W        W27293  10.612  24.483  14.929
60885W        W27294  33.351  17.576  14.537
60886W        W27295  13.653   6.622  14.058
60887W        W27296   7.665  26.649  13.603
60888W        W27297   2.734  29.896   0.390
60889W        W27298  34.870  25.887   1.777
60890W        W27299  11.861  31.839  12.086
60891W        W27300  31.454  33.168  14.466
60892W        W27301  17.525  29.216  14.786
60893W        W27302  42.563   9.213  14.001
60894W        W27303  14.115  28.470  12.523
60895W        W27304  20.986  27.508  14.954
60896W        W27305  14.242   7.918   2.805
60897W        W27306  32.425  34.070  11.893
60898W        W27307   2.402  27.132   4.471
60899W        W27308  42.528  20.535  11.541
60900W        W27309  14.110   0.197  11.524
60901W        W27310   7.440  38.386   2.822
60902W        W27311  43.775   1.971  12.120
60903W        W27312   0.286  19.942  10.941
60904W        W27313  29.630  20.042  14.937
60905W        W27314  20.489  33.038   4.734
60906W        W27315  31.100  20.061   3.147
60907W        W27316  23.074  35.467   4.735
60908W        W27317  13.650  19.210  13.343
60909W        W27318  38.791  19.002   4.941
60910W        W27319   1.941  15.060   2.212
60911W        W27320  15.893   1.437   1.825
60912W        W27321  27.308  38.914  13.764
60913W        W27322  29.238  31.077  14.737
60914W        W27323   2.409  10.317   1.987
60915W        W27324   7.630  40.269   3.641
60916W        W27325  21.322  37.767   0.964
60917W        W27326  12.818  30.558  13.924
60918W        W27327   6.125  43.341   2.639
60919W        W27328  41.919  21.832   3.453
60920W        W27329  27.076  16.569  14.515
60921W        W27330  29.241   7.693   3.660
60922W        W27331  38.048  25.666   3.844
60923W        W27332  38.885   6.845   1.914
60924W        W27333  40.754  32.159  12.444
60925W        W27334   5.758   7.867  13.708
60926W        W27335  22.153  41.957  10.840
60927W        W27336  36.325  20.075  11.130
60928W        W27337   0.888  30.929   1.892
60929W        W27338  33.077  21.338   1.246
60930W        W27339  23.668  26.560   0.460
60931W        W27340  22.683  25.739  10.953
60932W        W27341  38.081  44.972   3.238
60933W        W27342  24.610  29.361   1.494
60934W        W27343  32.630   4.700   1.014
60935W        W27344  25.083   0.378   4.201
60936W        W27345  24.480  19.317  13.486
60937W        W27346  12.800  42.494  12.840
60938W        W27347  14.812  28.995   1.350
60939W        W27348  11.681  37.348   9.713
60940W        W27349  38.539  11.233   1.455
60941W        W27350  10.305  30.730  13.038
60942W        W27351  41.072   4.955  14.301
60943W        W27352  22.266  16.374  12.579
60944W        W27353  10.866  16.161   2.015
60945W        W27354  15.259   1.391  11.088
60946W        W27355  36.504  26.922  11.413
60947W        W27356  28.900   1.584   2.816
60948W        W27357  36.819  17.116  12.608
60949W        W27358  34.049  16.572   2.428
60950W        W27359   8.219   2.830  14.411
60951W        W27360  13.610  40.786  13.849
60952W        W27361  41.833  39.383  12.903
60953W        W27362   1.192  37.116   5.297
60954W        W27363  23.014  26.039  12.355
60955W        W27364   0.649  17.322  13.362
60956W        W27365  24.667  41.831  10.745
60957W        W27366   9.071  40.928  14.949
60958W        W27367  40.483  29.664   3.614
60959W        W27368  38.274  20.437   0.203
60960W        W27369   2.364  40.277   1.682
60961W        W27370  40.528   4.502   2.337
60962W        W27371  21.000  16.632  14.467
60963W        W27372  30.051  44.344  10.389
60964W        W27373  33.409  32.507   0.306
60965W        W27374  27.959  19.745  13.419
60966W        W27375  18.792   4.385   0.336
60967W        W27376  23.891  12.329   4.844
60968W        W27377   4.879   2.040  12.014
60969W        W27378   8.415   5.837   4.649
60970W        W27379  25.200  13.607   0.917
60971W        W27380   5.434  43.459   0.750
60972W        W27381  30.616  39.143   4.144
60973W        W27382  33.338  26.675   4.314
60974W        W27383  21.968  43.021  13.964
60975W        W27384  39.570  36.589   1.418
60976W        W27385   1.950  23.175  12.392
60977W        W27386  18.724   8.593  12.312
60978W        W27387  10.666  30.503  14.416
60979W        W27388  31.428   2.011  11.652
60980W        W27389   0.201  18.895   3.321
60981W        W27390  25.902  21.603   1.862
60982W        W27391  35.877  35.376   3.300
60983W        W27392   8.773  44.273   3.434
60984W        W27393  23.208  10.742  12.634
60985W        W27394   8.677  33.517  13.291
60986W        W27395  12.237   0.418  14.433
60987W        W27396  31.554  36.993   2.174
60988W        W27397   9.450  20.316  10.982
60989W        W27398  11.941  31.139  11.606
60990W        W27399  10.807  23.687   3.247
60991W        W27400  33.228  12.705  10.696
60992W        W27401  15.497  19.720   1.930
60993W        W27402  11.276   2.923   1.311
60994W        W27403  36.900  17.162   1.638
60995W        W27404  20.250  19.880   3.238
60996W        W27405  12.825  18.683   4.961
60997W        W27406   4.247  30.722   4.189
60998W        W27407  13.344  16.660  12.460
60999W        W27408   2.753  20.378   1.685
61000W        W27409  20.661  33.026  14.820
61001W        W27410  42.633  33.573  11.896
61002W        W27411  19.030   0.378  10.376
61003W        W27412  37.556  15.247  13.357
61004W        W27413  39.468  34.327   0.483
61005W        W27414  23.767   2.232   4.516
61006W        W27415  16.633   8.701  14.245
61007W        W27416  15.618  24.828  14.762
61008W        W27417  22.648   8.457  10.489
61009W        W27418  34.085  40.470  10.193
61010W        W27419  28.589   3.212  14.347
61011W        W27420  26.525  35.040   0.048
61012W        W27421  30.155  42.681   4.249
61013W        W27422  26.614   9.360  13.254
61014W        W27423  17.283   4.292  12.513
61015W        W27424  17.601   2.797  14.237
61016W        W27425  12.411  17.318  10.522
61017W        W27426  35.960  11.775  14.369
61018W        W27427  20.319  28.603  13.900
61019W        W27428  35.982   8.116   1.278
61020W        W27429   3.993   9.111  10.648
61021W        W27430  28.912  41.050  12.053
61022W        W27431  38.942  38.703  11.555
61023W        W27432  44.313  11.858   2.673
61024W        W27433  15.124  10.915   0.971
61025W        W27434  31.975   9.832  13.335
61026W        W27435  24.274  25.473  14.984
61027W        W27436  30.172  10.309   0.681
61028W        W27437  42.867  33.344  12.675
61029W        W27438  15.863  39.495  11.680
61030W        W27439  17.052   2.581  14.893
61031W        W27440  16.758  35.400  14.927
61032W        W27441  35.620  14.360   2.444
61033W        W27442  26.426  21.613   1.842
61034W        W27443  44.312   1.031  10.606
61035W        W27444  27.152  19.341  10.683
61036W        W27445  28.050  44.678   2.174
61037W        W27446  19.497  26.952   2.793
61038W        W27447  11.576  37.395  13.833
61039W        W27448  35.568  31.682   1.979
61040W        W27449   2.830  15.594   5.110
61041W        W27450  31.490  12.080   4.625
61042W        W27451  30.886  34.827   2.926
61043W        W27452  33.378  33.124   0.964
61044W        W27453   5.283  36.866   4.206
61045W        W27454  28.025   3.263  10.173
61046W        W27455   5.783  15.827   4.324
61047W        W27456  26.002  35.167   1.429
61048W        W27457  37.065  28.987  10.804
61049W        W27458  14.263  32.804  11.607
61050W        W27459  38.922  39.250   1.656
61051W        W27460  12.691  18.164  14.699
61052W        W27461  21.491  20.179  12.937
61053W        W27462  14.343  25.788   1.713
61054W        W27463  38.771  10.411   4.668
61055W        W27464  13.350  33.935   2.200
61056W        W27465  12.195  19.170   3.458
61057W        W27466  42.283  28.676  13.611
61058W        W27467  33.128  43.914   2.166
61059W        W27468   3.583  42.045   2.118
61060W        W27469  38.968   8.154  11.834
61061W        W27470   1.732  12.800   4.198
61062W        W27471  24.509  43.364   3.290
61063W        W27472  19.122   3.374   4.955
61064W        W27473  11.574  23.181  14.052
61065W        W27474  30.396  38.383   4.702
61066W        W27475  11.833  15.718  14.455
61067W        W27476  19.977   5.106   0.032
61068W        W27477   3.852  21.574  13.957
61069W        W27478   1.195   0.557   4.230
61070W        W27479  11.299  35.636  13.974
61071W        W27480  14.303  11.780   3.460
61072W        W27481   9.151  13.740   2.990
61073W        W27482  36.501  27.387   1.797
61074W        W27483  16.578  38.515   3.509
61075W        W27484  17.384  28.678  11.863
61076W        W27485  23.501  39.973   1.797
61077W        W27486  12.834  30.816  10.632
61078W        W27487  27.568   8.469   2.708
61079W        W27488   1.742   5.009   4.025
61080W        W27489  15.792  24.595  11.995
61081W        W27490   6.612  34.166  13.667
61082W        W27491  14.342  29.037   2.784
61083W        W27492  17.846  19.535   0.420
61084W        W27493  10.312  14.088  14.884
61085W        W27494  13.376  37.062  13.910
61086W        W27495  21.720  39.586  14.799
61087W        W27496  35.978  31.406  13.450
61088W        W27497  30.902  34.738   1.751
61089W        W27498  22.117   3.505   4.693
61090W        W27499  28.450  17.194  10.625
61091W        W27500  35.385  14.483  14.197
61092W        W27501   7.657   2.321   3.324
61093W        W27502   3.410  41.043   3.287
61094W        W27503  37.271  31.426   2.299
61095W        W27504  28.105  31.144  14.050
61096W        W27505  18.685  15.286  12.911
61097W        W27506  37.134  35.126   1.049
61098W        W27507  27.037  18.621   2.858
61099W        W27508   5.756  30.638  13.516
61100W        W27509  24.069  31.522   2.379
61101W        W27510  30.416   3.232   3.478
61102W        W27511  43.344  21.007   2.662
61103W        W27512  20.748  35.989  14.483
61104W        W27513  41.438   3.797   4.684
61105W        W27514  34.598   7.034  12.797
61106W        W27515  29.822  10.949  13.279
61107W        W27516  37.501  36.781  14.324
61108W        W27517  22.233  42.878  11.103
61109W        W27518  41.906  32.655  14.508
61110W        W27519  22.462  19.295  10.508
61111W        W27520  31.701  38.038  13.512
61112W        W27521  33.004  26.087   1.477
61113W        W27522  30.491  29.928  12.886
61114W        W27523   3.209  34.054  12.521
61115W        W27524  35.827  18.223   2.141
61116W        W27525  15.697  13.780   1.411
61117W        W27526  20.600  43.446  10.587
61118W        W27527  16.158  26.820   1.963
61119W        W27528  36.793  25.310   0.385
61120W        W27529  26.525  11.922  10.167
61121W        W27530  23.553  20.051   3.274
61122W        W27531  29.193  30.148   3.290
61123W        W27532   5.337  22.385  10.207
61124W        W27533   2.244  27.747  12.009
61125W        W27534  19.263  20.075   0.500
61126W        W27535  30.402  27.935  13.214
61127W        W27536  10.395  21.168   2.033
61128W        W27537   7.880  44.189  13.969
61129W        W27538  36.143  10.342  11.492
61130W        W27539  32.373  31.436   4.286
61131W        W27540  43.890  40.951   0.799
61132W        W27541  22.532  43.985   0.361
61133W        W27542  29.896  27.719  14.613
61134W        W27543  38.574  29.151  14.303
61135W        W27544  23.055  39.546  12.042
61136W        W27545  44.263  22.115  11.527
61137W        W27546  37.385  15.173   0.277
61138W        W27547  22.105  33.901  12.989
61139W        W27548  38.328  34.955  13.043
61140W        W27549  43.990  38.456  12.835
61141W        W27550  14.701  20.266   9.739
61142W        W27551  24.725  30.994   2.907
61143W        W27552   7.759  31.141  14.174
61144W        W27553  24.157   2.145   2.239
61145W        W27554   9.275  28.756  10.832
61146W        W27555   1.061  10.840   1.134
61147W        W27556  44.709  22.730   3.028
61148W        W27557  44.033  36.440   3.378
61149W        W27558  32.715  17.254  11.545
61150W        W27559  35.300   1.736  13.540
61151W        W27560  43.464  21.306  12.020
61152W        W27561  24.882  24.657  10.779
61153W        W27562  42.368   7.706   0.733
61154W        W27563   9.118  24.199  11.795
61155W        W27564  36.396  27.349  10.988
61156W        W27565  43.519  40.817   3.392
61157W        W27566  17.264   4.274  10.182
61158W        W27567  14.684   6.826  11.137
61159W        W27568  32.614  15.555  14.182
61160W        W27569  44.478  44.348   4.056
61161W        W27570  19.222   3.300  10.563
61162W        W27571  41.202  10.177   2.735
61163W        W27572  19.348  27.957  13.009
61164W        W27573  33.161  32.543  14.830
61165W        W27574  38.780   3.512   2.226
61166W        W27575  40.309  10.906  10.313
61167W        W27576  22.615  40.267  11.622
61168W        W27577   9.447  44.841  14.363
61169W        W27578   3.764  16.660   2.175
61170W        W27579  18.171  18.607   4.919
61171W        W27580  11.849  12.808   2.283
61172W        W27581  13.118   9.796   1.332
61173W        W27582  14.729  27.872   0.687
61174W        W27583  41.040   4.132  11.704
61175W        W27584  43.316  30.420  10.737
61176W        W27585  17.091  34.605  11.195
61177W        W27586  43.861  36.978  12.036
61178W        W27587  38.363   1.523  14.455
61179W        W27588  41.042  18.727   1.029
61180W        W27589  39.796  38.051   1.235
61181W        W27590   0.802  14.250  11.893
61182W        W27591  39.584  25.709   0.914
61183W        W27592  40.104  20.500   3.301
61184W        W27593  30.708   8.437  14.398
61185W        W27594  21.922  14.032  11.053
61186W        W27595  27.546  30.928   4.262
61187W        W27596  22.673  29.002  13.925
61188W        W27597  32.000  12.869  12.860
61189W        W27598   9.416  36.534   1.460
61190W        W27599  33.001   5.366   1.675
61191W        W27600  40.733  38.014   1.454
61192W        W27601  14.383   3.215   0.448
61193W        W27602   6.737  25.373  10.847
61194W        W27603   2.936  39.331   1.638
61195W        W27604  32.898  44.713  11.982
61196W        W27605  27.988  20.665   4.889
61197W        W27606  28.681  42.861  14.060
61198W        W27607   6.453   8.839  11.621
61199W        W27608  32.062  28.609  11.264
61200W        W27609  18.536   5.748   1.938
61201W        W27610  38.599  20.279   2.916
61202W        W27611  24.518   4.914  13.709
61203W        W27612   5.488  27.568   1.735
61204W        W27613  22.002  11.001  11.282
61205W        W27614  34.868  44.047  13.947
61206W        W27615  34.035  31.075   3.770
61207W        W27616  35.918  20.303   2.809
61208W        W27617   7.735  16.668   3.875
61209W        W27618  31.159  27.768  14.524
61210W        W27619   4.698   6.178   2.821
61211W        W27620  28.412  20.499  14.183
61212W        W27621   1.845  35.930  12.920
61213W        W27622   6.140  40.485   5.095
61214W        W27623  43.510  13.320   0.817
61215W        W27624  37.102  25.735   0.380
61216W        W27625  43.778  30.444  14.946
61217W        W27626  12.823  40.329  12.844
61218W        W27627   9.098  11.067  11.613
61219W        W27628  17.564   7.967  12.362
61220W        W27629  26.991  11.327   0.223
61221W        W27630  30.134  18.078  11.539
61222W        W27631  25.685  19.484   5.850
61223W        W27632   1.020  29.439  14.268
61224W        W27633  21.750  10.664   2.867
61225W        W27634  40.262  35.937   3.293
61226W        W27635  41.844   4.575   1.961
61227W        W27636  17.618  35.842   4.470
61228W        W27637  22.503  33.031   4.825
61229W        W27638  35.744  16.756  12.003
61230W        W27639  42.434  14.083  13.024
61231W        W27640  29.370  34.145  14.495
61232W        W27641  29.670  44.962   0.480
61233W        W27642   2.394  10.140   2.932
61234W        W27643  14.257  25.485  12.174
61235W        W27644   6.613  22.511  13.974
61236W        W27645  18.311  29.837  13.084
61237W        W27646   1.897   4.814   4.497
61238W        W27647  40.138   5.661   0.283
61239W        W27648  36.956   1.316  11.293
61240W        W27649   9.140  35.568  14.585
61241W        W27650  35.482  11.561  14.376
61242W        W27651  36.566  21.562  10.701
61243W        W27652  13.064  28.731  10.738
61244W        W27653   8.644  43.372   0.342
61245W        W27654   0.489  26.015  14.798
61246W        W27655  26.800  22.103  11.107
61247W        W27656  17.549  12.159  14.353
61248W        W27657  43.731  24.653   3.662
61249W        W27658   0.542   7.377  13.732
61250W        W27659  13.862  19.198   2.741
61251W        W27660   5.107  22.323   3.157
61252W        W27661  15.588  14.024   3.025
61253W        W27662  25.492  23.552  13.921
61254W        W27663   4.329  16.252   3.271
61255W        W27664  20.208  20.258   2.415
61256W        W27665  32.468  12.526   4.184
61257W        W27666   0.050  29.058  13.447
61258W        W27667  31.698   8.650  10.633
61259W        W27668  42.968  19.944  10.413
61260W        W27669  42.760   4.842   3.254
61261W        W27670   0.948  22.685   3.190
61262W        W27671  31.146  29.461   0.325
61263W        W27672  32.995  36.891   2.384
61264W        W27673  35.116  27.714  11.624
61265W        W27674   0.260  43.945   3.351
61266W        W27675   1.228  30.852  11.486
61267W        W27676  41.038  11.366   4.442
61268W        W27677  27.033  11.244   2.214
61269W        W27678  44.803  25.729  12.126
61270W        W27679  40.175   4.391  12.517
61271W        W27680   3.452  33.202  11.431
61272W        W27681  23.227   1.932  11.799
61273W        W27682  37.834  38.463   3.843
61274W        W27683  37.376  27.531   3.742
61275W        W27684  37.816  17.272  12.579
61276W        W27685  18.805  15.831   2.818
61277W        W27686  31.107   7.489   3.243
61278W        W27687   8.574  15.791  13.062
61279W        W27688  29.261   6.495  13.849
61280W        W27689  28.894  39.648   4.373
61281W        W27690  26.164   5.778   4.706
61282W        W27691  42.222   7.652   4.465
61283W        W27692  24.366  17.537   1.418
61284W        W27693  20.661  26.392   0.194
61285W        W27694  16.530  33.412   1.743
61286W        W27695  24.645   3.653  11.527
61287W        W27696  26.546  24.271   1.491
61288W        W27697  22.160  34.700   1.907
61289W        W27698   8.377   1.218  13.846
61290W        W27699  26.144  44.712   0.338
61291W        W27700   0.233  17.659  13.960
61292W        W27701  26.105   4.251   5.005
61293W        W27702  18.200  31.014   1.672
61294W        W27703  16.975   1.874  14.367
61295W        W27704   2.364  26.083  10.726
61296W        W27705  29.972  28.951   4.432
61297W        W27706   3.694   0.187  11.209
61298W        W27707  14.003  26.006  13.553
61299W        W27708  13.405  44.822  11.101
61300W        W27709   6.315  31.502  13.484
61301W        W27710  37.310   6.742  12.056
61302W        W27711  19.777  11.448  11.640
61303W        W27712  39.152  42.427   1.606
61304W        W27713  15.555  24.531  11.143
61305W        W27714  39.466  43.974   1.742
61306W        W27715  41.789   6.452   4.642
61307W        W27716  41.657  28.650  12.967
61308W        W27717   0.205  39.215  13.496
61309W        W27718  24.130  16.621   1.016
61310W        W27719   9.206  30.487   1.884
61311W        W27720  29.172  32.069  14.850
61312W        W27721  14.263  43.430   4.328
61313W        W27722   7.751  31.210  12.815
61314W        W27723   5.331  35.435  10.851
61315W        W27724  43.840  41.688  14.944
61316W        W27725  32.931  15.824   1.881
61317W        W27726  40.455  11.312  11.882
61318W        W27727   9.421  38.021  13.372
61319W        W27728  17.854   3.206   2.065
61320W        W27729  41.965  21.258   2.730
61321W        W27730  10.294  23.928   2.952
61322W        W27731  17.100   0.554   3.736
61323W        W27732  35.677  42.943  14.520
61324W        W27733  36.940  38.096  11.138
61325W        W27734  29.136  31.405   0.858
61326W        W27735   7.856  14.823   0.369
61327W        W27736  33.641  31.475  11.026
61328W        W27737  31.724  33.492   2.375
61329W        W27738  37.292   1.749  13.146
61330W        W27739  36.531   6.026   0.951
61331W        W27740  27.861  33.756   0.833
61332W        W27741  43.961  39.899   2.888
61333W        W27742   1.032  14.978  12.960
61334W        W27743  41.262  22.485   4.098
61335W        W27744  25.176  43.952  12.880
61336W        W27745  44.165  44.911   1.962
61337W        W27746   8.339  37.126  13.569
61338W        W27747  28.250  13.867   2.328
61339W        W27748  41.715  25.915  13.583
61340W        W27749  30.459  18.187  12.267
61341W        W27750  11.793  22.629  11.387
61342W        W27751  23.813  40.820   1.886
61343W        W27752   6.374  17.368   1.191
61344W        W27753  15.867  23.754  14.547
61345W        W27754  36.070  26.225  10.719
61346W        W27755   0.186  37.610  11.998
61347W        W27756  40.965   3.590   4.547
61348W        W27757   9.427  40.019   3.784
61349W        W27758   1.371  12.204  11.448
61350W        W27759  34.005  21.151  11.461
61351W        W27760  20.666   6.710   4.583
61352W        W27761  31.100  44.819   0.911
61353W        W27762  32.934  16.754  10.659
61354W        W27763  29.681  13.447  10.702
61355W        W27764  33.082  19.846   3.225
61356W        W27765  18.534   2.333  14.949
61357W        W27766  17.058  29.296   2.413
61358W        W27767  26.682   3.039  12.444
61359W        W27768  14.522  26.804   2.850
61360W        W27769  14.184  12.109   0.346
61361W        W27770  28.036  19.175  12.444
61362W        W27771   1.362  27.040   3.957
61363W        W27772  33.926   2.419  13.473
61364W        W27773  32.310  33.606   4.170
61365W        W27774  42.144  23.871   4.980
61366W        W27775  10.176  39.283  14.668
61367W        W27776  39.952  20.577   2.443
61368W        W27777  13.241  38.303  11.544
61369W        W27778  19.892   5.077   3.623
61370W        W27779  17.552   6.726   0.695
61371W        W27780   3.407   9.131  12.938
61372W        W27781  21.262  35.951   4.888
61373W        W27782  32.537  39.406   4.148
61374W        W27783   2.384  32.526   1.633
61375W        W27784  10.762  11.432   1.355
61376W        W27785  15.636  13.267   1.422
61377W        W27786  37.930   6.729  14.014
61378W        W27787  30.765  27.426  14.642
61379W        W27788   8.054  34.307   4.166
61380W        W27789  44.218   6.729   1.612
61381W        W27790  20.059  24.572  10.662
61382W        W27791   3.828   6.377   0.234
61383W        W27792   9.794  15.420   0.457
61384W        W27793  14.384   7.270   3.618
61385W        W27794   4.284  13.694   0.849
61386W        W27795   1.282  10.211   0.087
61387W        W27796   6.628  24.844   3.246
61388W        W27797  31.063  23.665   3.383
61389W        W27798   9.226  36.688  12.500
61390W        W27799  26.978  20.716   0.473
61391W        W27800  27.856   1.956   0.899
61392W        W27801  20.459  26.740   4.958
61393W        W27802  25.031  15.729  12.378
61394W        W27803   6.909  26.227   2.813
61395W        W27804  27.321   2.413   3.053
61396W        W27805  39.130  31.454   4.078
61397W        W27806  13.289  36.160  12.308
61398W        W27807  28.081  23.019  12.063
61399W        W27808  22.726  26.577  10.278
61400W        W27809   3.301  11.196  14.061
61401W        W27810  16.786   8.186  11.101
61402W        W27811  20.729  32.327  14.265
61403W        W27812  14.344  23.512  11.686
61404W        W27813   0.274   0.431   3.904
61405W        W27814  25.992  10.777  13.356
61406W        W27815  44.556   0.452  12.589
61407W        W27816   4.543  24.256   2.722
61408W        W27817   7.483   2.496  10.718
61409W        W27818  34.796   9.710  12.643
61410W        W27819  30.898  39.137  14.913
61411W        W27820  38.404  34.874   3.677
61412W        W27821  34.030  18.229   3.145
61413W        W27822   1.778  38.633  12.332
61414W        W27823  24.952   9.678  10.606
61415W        W27824  12.213  14.658   1.175
61416W        W27825  10.661  28.446  12.808
61417W        W27826  39.259  44.015   3.300
61418W        W27827  15.786   1.865  14.715
61419W        W27828   0.431   2.899  14.775
61420W        W27829  18.837  26.452  11.192
61421W        W27830  12.033   0.669  10.777
61422W        W27831  25.460  21.152   2.178
61423W        W27832   4.227  38.772   1.299
61424W        W27833  39.317   8.176   0.436
61425W        W27834  30.895   4.631   1.187
61426W        W27835   9.026  19.156  11.472
61427W        W27836  11.911  19.509   0.360
61428W        W27837  43.325  35.510   1.049
61429W        W27838  12.336  25.590  13.820
61430W        W27839  22.382  22.233  13.055
61431W        W27840  33.648  27.512   2.649
61432W        W27841  14.394  42.040  11.083
61433W        W27842  42.734  39.721  13.079
61434W        W27843  37.809  31.542   3.213
61435W        W27844  17.306  26.132   2.796
61436W        W27845  44.746  37.718   3.312
61437W        W27846  42.925   4.821  12.904
61438W        W27847  43.968  24.894   0.412
61439W        W27848  33.926   6.254  12.307
61440W        W27849   7.836  43.226  12.981
61441W        W27850  21.607  11.355  10.991
61442W        W27851  42.076   3.426   2.916
61443W        W27852  24.589  20.046   9.733
61444W        W27853  10.880  30.630  10.707
61445W        W27854  23.695  38.450   3.205
61446W        W27855  30.221  18.819   0.007
61447W        W27856   0.634  38.519  10.535
61448W        W27857  33.757  22.585  11.532
61449W        W27858  43.108  12.902   2.267
61450W        W27859  24.697   5.112   0.089
61451W        W27860  42.190  40.767   2.393
61452W        W27861  29.855  41.795   1.954
61453W        W27862   6.237  22.665  10.245
61454W        W27863  34.419  24.406  10.839
61455W        W27864   4.145   8.239   1.476
61456W        W27865  22.152  30.626   1.701
61457W        W27866  41.578  30.833   4.488
61458W        W27867  34.608  40.871   4.342
61459W        W27868  22.109  36.465   3.084
61460W        W27869  24.708  25.316  12.497
61461W        W27870  14.531  27.050  13.703
61462W        W27871   5.780  20.127   0.683
61463W        W27872   4.761  44.666   0.914
61464W        W27873  23.184  43.019   2.187
61465W        W27874   9.340  13.165  14.396
61466W        W27875  44.502  25.805  14.541
61467W        W27876   8.776  11.494  14.055
61468W        W27877  34.948  21.097   0.499
61469W        W27878  44.086  18.142  11.395
61470W        W27879  33.303  30.232  12.386
61471W        W27880  29.059  24.178   0.903
61472W        W27881  33.126  15.792   3.491
61473W        W27882  38.609  44.368   2.698
61474W        W27883  30.937  43.956   3.119
61475W        W27884  12.579   7.493  11.503
61476W        W27885  17.185  18.695  11.520
61477W        W27886   5.905  22.410   5.454
61478W        W27887  41.404  44.684   0.328
61479W        W27888  22.654   2.974   2.758
61480W        W27889  16.379   4.490   2.744
61481W        W27890  28.593  35.336   3.691
61482W        W27891  11.653  13.153   3.225
61483W        W27892  36.045  18.729   3.274
61484W        W27893  31.991  22.123  13.027
61485W        W27894  34.524  39.601   1.018
61486W        W27895  13.804  15.341  10.546
61487W        W27896   3.971  27.455   4.152
61488W        W27897  19.088  25.435  13.717
61489W        W27898   8.330  41.791  12.018
61490W        W27899   2.002   6.498  13.688
61491W        W27900  21.242  41.583   2.947
61492W        W27901  27.997  25.203  12.953
61493W        W27902   0.329  25.237   1.158
61494W        W27903  11.063  34.607   5.155
61495W        W27904  32.990  29.473   0.499
61496W        W27905   3.701  24.828  11.096
61497W        W27906   8.373  18.070  10.665
61498W        W27907  19.099  17.028  12.158
61499W        W27908   1.669  39.470  12.461
61500W        W27909  43.326  29.181   2.795
61501W        W27910  26.896  26.970   1.844
61502W        W27911  12.230  13.275   1.452
61503W        W27912  25.664  16.298   2.285
61504W        W27913   6.300  28.380   4.211
61505W        W27914  26.158  24.491   1.244
61506W        W27915  24.462  22.234  12.118
61507W        W27916   3.728   5.491   0.739
61508W        W27917  14.944  38.116  14.310
61509W        W27918  11.044  37.655   3.291
61510W        W27919  22.972   5.766  14.338
61511W        W27920   8.170  12.072   0.519
61512W        W27921  11.667   2.544  12.518
61513W        W27922   1.705  21.758   4.580
61514W        W27923  36.505  41.314  10.738
61515W        W27924  28.948   4.414   3.091
61516W        W27925   8.904  11.766   3.795
61517W        W27926  15.296   5.918  12.496
61518W        W27927  18.308   3.044  11.934
61519W        W27928  15.400   8.244  11.171
61520W        W27929  25.679   7.302  14.408
61521W        W27930  38.477  27.143  14.825
61522W        W27931  28.134   0.852  10.745
61523W        W27932  21.361  44.223   9.934
61524W        W27933  39.313  15.133   9.751
61525W        W27934   2.958  26.083   3.161
61526W        W27935  25.518  42.178  14.876
61527W        W27936  16.283  32.998   3.976
61528W        W27937  36.617  39.281   4.217
61529W        W27938  14.587  43.714   4.005
61530W        W27939  26.917  34.904   2.811
61531W        W27940  29.410  16.661  11.820
61532W        W27941  14.157  43.913   4.185
61533W        W27942  31.759  29.712  12.965
61534W        W27943   4.155  43.065  14.935
61535W        W27944   3.496  43.921  13.009
61536W        W27945  38.866  29.576   1.358
61537W        W27946  30.328  30.392   2.704
61538W        W27947  40.656   3.347   4.177
61539W        W27948  23.011  23.851  12.569
61540W        W27949   7.330   8.217   2.815
61541W        W27950   7.363  16.359   3.680
61542W        W27951  31.877  19.009   0.435
61543W        W27952  18.622  11.429   4.534
61544W        W27953  36.025  17.595  12.902
61545W        W27954  32.914  26.039  13.467
61546W        W27955   9.926   1.850   0.577
61547W        W27956   9.302  15.349  12.839
61548W        W27957  11.887  24.790  11.420
61549W        W27958  25.542  24.055  10.678
61550W        W27959   1.443  34.809   2.642
61551W        W27960  17.615  32.144  10.072
61552W        W27961  24.224  30.257   4.114
61553W        W27962  20.504  30.008  12.124
61554W        W27963  33.455   8.220   4.410
61555W        W27964  32.630  24.812   0.112
61556W        W27965   3.020   0.340   4.310
61557W        W27966  37.463  44.172  13.140
61558W        W27967  21.268  20.728  14.720
61559W        W27968  22.915  11.469  11.962
61560W        W27969  22.202  27.181   1.365
61561W        W27970   0.795  15.945  12.905
61562W        W27971  43.398  41.017  11.543
61563W        W27972  26.022  19.513   2.514
61564W        W27973  36.973  22.282  11.393
61565W        W27974  36.164  38.924  14.039
61566W        W27975  22.267  43.685   4.048
61567W        W27976  41.493  35.339  11.654
61568W        W27977  17.213  22.225  13.615
61569W        W27978  17.079  35.784   2.359
61570W        W27979  19.943  21.741  12.003
61571W        W27980  42.813  12.497   5.199
61572W        W27981  16.167   6.904   4.181
61573W        W27982   4.622   4.924   2.388
61574W        W27983  36.452   0.005   1.207
61575W        W27984   4.704   4.200   0.434
61576W        W27985  37.886  28.990  11.062
61577W        W27986  35.392  30.575  13.321
61578W        W27987   3.041  14.715   4.960
61579W        W27988   9.215  30.581  10.341
61580W        W27989  21.334   6.191  11.807
61581W        W27990  11.128   7.701  13.064
61582W        W27991  11.615  44.322   0.909
61583W        W27992  37.432  27.618   2.888
61584W        W27993  23.042  16.368  11.087
61585W        W27994  32.662  38.828   4.838
61586W        W27995  13.157   4.765  14.375
61587W        W27996  29.493  19.268  11.188
61588W        W27997  19.775  35.165   2.486
61589W        W27998  27.591  23.810  11.957
61590W        W27999  42.252  30.985   2.282
61591W        W28000  21.331  32.873   1.913
61592W        W28001  33.089   1.825  12.199
61593W        W28002  17.968  11.163   4.243
61594W        W28003  17.150  37.483  14.424
61595W        W28004  38.393  11.761   2.274
61596W        W28005  20.417   6.559  12.033
61597W        W28006  37.597  31.381   0.264
61598W        W28007  43.543  35.698  12.837
61599W        W28008  15.634  36.526  14.165
61600W        W28009   3.440  36.398  13.875
61601W        W28010  24.227  36.435  14.948
61602W        W28011  43.199   9.753  10.812
61603W        W28012  15.314  22.112   2.630
61604W        W28013   5.071  38.488   4.249
61605W        W28014  10.673  16.643   0.431
61606W        W28015  38.897  13.556   4.085
61607W        W28016   4.440   7.555   1.249
61608W        W28017  40.789  13.856  11.742
61609W        W28018   3.174   5.880  12.471
61610W        W28019  13.794  23.337   1.772
61611W        W28020   4.488  20.651  14.683
61612W        W28021   0.999  25.047   3.678
61613W        W28022   6.932  36.359  12.929
61614W        W28023   8.799   1.996   2.807
61615W        W28024  17.638  22.950   2.750
61616W        W28025  42.425  44.236   3.186
61617W        W28026  10.179  21.359   0.655
61618W        W28027   8.412  27.500   4.132
61619W        W28028  30.465  13.300   3.097
61620W        W28029  18.808  30.694  13.965
61621W        W28030  20.081   8.684  10.149
61622W        W28031  20.760   8.033  13.320
61623W        W28032   1.060  29.717   1.355
61624W        W28033  43.814   5.779   0.434
61625W        W28034  17.741   3.359   4.641
61626W        W28035  33.098  24.267  11.164
61627W        W28036  29.821  22.732   0.048
61628W        W28037   9.862  16.720  10.413
61629W        W28038  32.304  33.435   3.298
61630W        W28039  11.190  15.739   1.129
61631W        W28040   9.398  27.977   2.612
61632W        W28041  16.208   4.780   4.097
61633W        W28042  29.143  21.057   2.893
61634W        W28043  14.113  31.786   5.016
61635W        W28044  43.006  41.294  14.467
61636W        W28045  25.640  37.757  14.806
61637W        W28046   4.217  33.036   3.322
61638W        W28047  41.536   1.972   2.929
61639W        W28048  34.412  41.522  12.279
61640W        W28049   6.575  22.506  14.859
61641W        W28050   6.270  40.380   3.613
61642W        W28051  23.002  20.014   3.269
61643W        W28052  41.924  36.972   2.367
61644W        W28053  39.349  27.539  11.948
61645W        W28054   8.216  41.595   1.038
61646W        W28055  40.368  37.955   4.735
61647W        W28056  36.586  12.694   3.289
61648W        W28057  18.158  28.906   1.879
61649W        W28058  14.882  28.058  10.767
61650W        W28059   3.894  32.016   2.327
61651W        W28060  16.513  22.691  11.744
61652W        W28061  24.057  13.363   1.403
61653W        W28062  44.963  43.681   0.804
61654W        W28063  12.749  28.362  12.958
61655W        W28064  12.717  10.868  12.015
61656W        W28065  19.289   5.917  13.050
61657W        W28066  28.550  30.533   4.663
61658W        W28067   7.623  31.928  13.429
61659W        W28068  31.970  17.822  13.412
61660W        W28069  17.413  32.512  14.041
61661W        W28070  22.586  42.862   5.073
61662W        W28071  32.136   9.691   2.697
61663W        W28072  28.974  19.290   1.092
61664W        W28073  23.608  16.337  12.486
61665W        W28074  42.141  12.781  12.089
61666W        W28075  40.874  35.581  10.937
61667W        W28076  31.417  11.153  13.980
61668W        W28077  27.999  20.227   1.203
61669W        W28078  37.102   2.373   2.450
61670W        W28079  23.517  37.142  11.112
61671W        W28080  26.977  22.489   0.784
61672W        W28081   6.446  41.453  10.758
61673W        W28082  41.365  17.670  13.509
61674W        W28083  38.102  41.884  11.267
61675W        W28084  14.857   8.396  13.336
61676W        W28085  37.618  31.872   3.616
61677W        W28086  25.402  42.410  12.982
61678W        W28087  28.088  14.547   0.834
61679W        W28088   5.717  22.202  11.057
61680W        W28089  16.061  38.035   3.852
61681W        W28090  28.544  29.180  10.645
61682W        W28091  30.967   8.565  12.311
61683W        W28092  30.594  44.411  11.114
61684W        W28093  32.354  27.870   1.121
61685W        W28094  18.076  44.288  13.046
61686W        W28095  40.328  26.065   2.437
61687W        W28096  18.741  32.458  12.516
61688W        W28097  37.435  26.170  10.670
61689W        W28098   1.890  40.109  14.516
61690W        W28099  16.271  16.086   2.138
61691W        W28100   3.590  14.634  12.197
61692W        W28101  20.026  41.020  14.464
61693W        W28102  36.814  10.248   3.448
61694W        W28103  22.083  43.351  11.004
61695W        W28104  28.470  18.247   1.376
61696W        W28105   7.315   4.718  13.497
61697W        W28106  20.726  41.998  13.090
61698W        W28107  28.354  15.404  11.952
61699W        W28108   4.793  24.950   0.430
61700W        W28109  40.697  39.876   3.607
61701W        W28110   5.166  30.030   3.789
61702W        W28111   8.820  24.430  14.566
61703W        W28112  34.689  28.442  14.327
61704W        W28113  33.333  44.687   5.039
61705W        W28114  31.230  39.413  12.169
61706W        W28115   3.405   7.430  11.982
61707W        W28116  38.536  36.734  11.683
61708W        W28117  33.743  16.178   3.853
61709W        W28118  10.426  20.191   0.034
61710W        W28119   7.980   7.923  14.549
61711W        W28120  38.151  35.726   5.279
61712W        W28121  43.447  32.166  14.891
61713W        W28122  14.731  44.729   0.392
61714W        W28123   9.684  16.579  13.790
61715W        W28124  41.435   5.950  12.563
61716W        W28125   1.765  25.960  14.270
61717W        W28126  38.455  19.263   2.799
61718W        W28127  42.964  31.049   0.946
61719W        W28128  38.929  18.520   5.143
61720W        W28129   0.139  16.003  14.898
61721W        W28130  15.826  14.716  13.050
61722W        W28131  40.539  11.508   3.759
61723W        W28132  30.352  23.360  13.595
61724W        W28133  28.175  26.529   3.699
61725W        W28134  18.216  11.295   1.843
61726W        W28135   0.779  21.999   2.773
61727W        W28136   4.939  28.114  10.618
61728W        W28137   0.955  21.623  14.113
61729W        W28138   6.300   6.464   4.559
61730W        W28139  13.538  20.032  12.397
61731W        W28140   9.275  30.344  12.182
61732W        W28141  26.150  20.957  12.096
61733W        W28142  34.634   9.397   3.278
61734W        W28143  40.317   6.311  10.283
61735W        W28144  43.049  30.663   3.162
61736W        W28145  13.797  18.641  14.358
61737W        W28146  42.367  31.534   1.184
61738W        W28147  38.489  21.472   3.563
61739W        W28148  13.682  15.111   1.474
61740W        W28149  32.417  30.919   2.286
61741W        W28150  21.036   0.494   1.671
61742W        W28151   0.374  27.752   3.214
61743W        W28152   2.413   4.791  14.439
61744W        W28153  38.898  23.415  13.834
61745W        W28154   0.829   6.328  14.475
61746W        W28155  29.107   2.980   3.227
61747W        W28156   3.009  30.963  11.119
61748W        W28157  17.079  22.662   0.788
61749W        W28158  11.848  43.698  10.705
61750W        W28159   5.606  22.097   5.156
61751W        W28160   5.960  12.306  14.277
61752W        W28161  39.554  10.869  14.849
61753W        W28162  10.858  22.474  14.991
61754W        W28163  31.972   7.229   0.642
61755W        W28164  29.494  12.191  10.524
61756W        W28165  38.009  43.073   0.408
61757W        W28166  39.508  42.907   0.335
61758W        W28167  33.047  33.039  10.727
61759W        W28168   7.404  17.596  14.838
61760W        W28169  38.569   3.777   2.647
61761W        W28170  41.551  30.495  13.905
61762W        W28171  32.912   9.771  13.777
61763W        W28172  23.916  25.280   2.374
61764W        W28173  22.019  18.986  11.537
61765W        W28174   1.395  21.528  14.356
61766W        W28175  19.234  13.938   0.411
61767W        W28176   2.955  30.165  14.863
61768W        W28177  26.965   5.690  12.456
61769W        W28178   2.785  27.874  10.480
61770W        W28179  35.604  29.383  13.060
61771W        W28180  20.210  28.398   0.198
61772W        W28181  11.710   5.789   0.026
61773W        W28182  28.611  32.971   1.791
61774W        W28183  26.574   6.862   1.700
61775W        W28184  12.899  26.132   2.217
61776W        W28185  33.111  14.335   0.713
61777W        W28186  43.859  20.664  12.141
61778W        W28187  14.401  41.379   1.155
61779W        W28188  20.605  28.121  14.776
61780W        W28189  35.489  13.116  10.577
61781W        W28190  40.443  28.491  12.634
61782W        W28191  18.149  31.432   2.687
61783W        W28192  39.207  44.280   4.588
61784W        W28193   0.107  31.045  14.488
61785W        W28194  34.409  35.832   4.275
61786W        W28195   6.874  19.621  13.330
61787W        W28196  29.982  17.618  11.365
61788W        W28197   3.527  22.362  13.985
61789W        W28198  23.478  26.727   4.276
61790W        W28199  16.552  38.133  14.347
61791W        W28200  26.087  20.642   2.582
61792W        W28201  36.188   6.884   0.964
61793W        W28202  15.938  41.519  13.012
61794W        W28203   9.227  43.916  13.859
61795W        W28204  43.133   2.351   5.305
61796W        W28205  22.801  38.961   4.367
61797W        W28206  43.395  12.361   4.255
61798W        W28207  40.095  30.471  14.939
61799W        W28208  24.495  37.523  11.819
61800W        W28209  22.145  39.895   1.246
61801W        W28210   7.497  38.016  13.562
61802W        W28211  28.436  41.265  12.069
61803W        W28212  11.312  43.286   2.200
61804W        W28213   8.161  31.139   0.994
61805W        W28214  31.898  10.726   0.792
61806W        W28215  23.599  35.622  14.481
61807W        W28216   1.554  14.320   2.664
61808W        W28217  24.270   2.194   4.660
61809W        W28218  30.947  23.769  12.150
61810W        W28219  16.085  10.195   4.546
61811W        W28220  20.080  19.864  14.943
61812W        W28221  12.588  11.136   0.179
61813W        W28222  32.189   7.405  11.126
61814W        W28223  24.927  34.075   4.608
61815W        W28224  28.698  36.398   0.017
61816W        W28225   9.963  43.878  10.713
61817W        W28226  15.626   2.882  10.158
61818W        W28227   5.826   6.762  10.777
61819W        W28228   6.225  15.770   4.636
61820W        W28229   9.564  21.960   3.155
61821W        W28230  26.763  40.415  13.092
61822W        W28231  35.654  12.806   1.913
61823W        W28232  33.065  36.388   3.339
61824W        W28233  19.124  36.486   0.043
61825W        W28234  12.700   5.801  14.832
61826W        W28235  29.917  36.325   2.753
61827W        W28236   9.441   1.361  13.834
61828W        W28237  40.802  27.373  12.633
61829W        W28238  20.253  26.982  11.585
61830W        W28239  18.504  21.748   3.137
61831W        W28240   2.402   3.692  13.569
61832W        W28241  21.136  21.010  12.761
61833W        W28242  29.547  35.833   3.629
61834W        W28243  28.466  23.021  10.689
61835W        W28244  27.200  34.388  13.005
61836W        W28245  42.509  23.340  14.292
61837W        W28246   3.613  31.011  13.719
61838W        W28247  23.756  16.190  14.212
61839W        W28248  24.577  23.262  12.259
61840W        W28249  20.679  12.733   0.414
61841W        W28250  31.892  31.730  11.264
61842W        W28251  21.567  12.597   5.060
61843W        W28252   3.354   4.645  14.267
61844W        W28253  30.827  10.365   1.327
61845W        W28254  30.257  22.554   3.922
61846W        W28255  35.983  17.031   4.900
61847W        W28256   0.037  26.611   3.493
61848W        W28257  44.177  42.122   4.075
61849W        W28258  12.718  43.545  14.261
61850W        W28259   1.408  26.561  12.016
61851W        W28260   8.377  26.296  11.603
61852W        W28261   7.232   7.830   3.186
61853W        W28262   9.128  22.123  12.992
61854W        W28263  23.529  32.981   2.039
61855W        W28264   9.746  41.797  10.452
61856W        W28265  23.237   9.503   2.581
61857W        W28266  33.449  17.876  11.240
61858W        W28267  18.846  39.953  12.454
61859W        W28268  12.956  20.924   4.062
61860W        W28269  44.027  31.041   1.788
61861W        W28270  40.796  14.841   4.491
61862W        W28271  39.178   5.262  11.086
61863W        W28272  31.001   1.985  13.489
61864W        W28273  37.695   4.192   0.464
61865W        W28274  26.042  34.661   2.800
61866W        W28275  18.286  18.666  12.511
61867W        W28276  23.145  40.029   3.988
61868W        W28277  27.733  41.736  13.943
61869W        W28278   6.336  11.384  11.298
61870W        W28279  27.574  13.391   3.481
61871W        W28280  11.204  36.015   3.038
61872W        W28281  11.662  43.296   4.659
61873W        W28282   1.189  19.423   0.860
61874W        W28283  32.109  28.158  13.019
61875W        W28284  44.914   6.692   2.297
61876W        W28285  34.606  38.651  10.433
61877W        W28286   0.092  21.740   3.652
61878W        W28287   3.801  37.221  10.096
61879W        W28288  35.548  18.385   0.374
61880W        W28289  22.452  41.940   3.880
61881W        W28290   0.888   1.737   1.915
61882W        W28291  13.719   5.145   0.817
61883W        W28292  32.062  26.965  14.861
61884W        W28293   7.666  17.677   0.262
61885W        W28294  42.289  20.106  13.883
61886W        W28295  12.125   8.215  10.665
61887W        W28296  12.135  31.848  13.042
61888W        W28297  11.703  10.184   4.963
61889W        W28298   0.201  20.761  11.537
61890W        W28299   9.352  27.110   1.381
61891W        W28300  28.913  31.331  14.410
61892W        W28301  11.598  41.010  13.976
61893W        W28302   8.613  22.358   2.390
61894W        W28303  15.057   5.406   3.651
61895W        W28304  12.060  27.077  12.861
61896W        W28305  36.864  33.152  10.811
61897W        W28306  32.973  23.302  12.184
61898W        W28307  36.411  20.511   2.650
61899W        W28308  13.090  19.838  13.949
61900W        W28309  22.386   8.838   1.250
61901W        W28310   6.394  21.475   0.819
61902W        W28311  41.024   8.174   4.770
61903W        W28312  30.079  16.066  11.567
61904W        W28313  36.842  35.357  14.895
61905W        W28314   6.018  33.079  11.424
61906W        W28315  27.617  39.418  14.549
61907W        W28316   1.834   7.203  12.412
61908W        W28317  12.372   1.735   1.976
61909W        W28318  35.977  43.266   0.015
61910W        W28319  39.353  28.135  11.377
61911W        W28320  35.503   0.590   2.886
61912W        W28321  44.342  25.017   4.685
61913W        W28322  20.869  16.159  12.908
61914W        W28323  18.140  21.607   0.693
61915W        W28324  24.557  17.768   3.261
61916W        W28325  38.829  19.860  10.606
61917W        W28326  21.242  15.297   1.314
61918W        W28327   3.316  22.050  13.568
61919W        W28328  43.767  13.726  13.118
61920W        W28329  14.117  17.803  10.594
61921W        W28330  38.403  13.305   4.665
61922W        W28331  11.204  15.882  13.789
61923W        W28332   6.003  36.418   1.672
61924W        W28333   4.683  34.149   9.864
61925W        W28334  17.858   3.890   4.499
61926W        W28335   8.171  20.098   4.183
61927W        W28336  29.659  39.361   3.231
61928W        W28337   3.384   4.013  10.512
61929W        W28338  35.624   5.716  10.495
61930W        W28339   9.966  31.819   9.878
61931W        W28340  39.129   6.867  11.664
61932W        W28341  13.382   7.123  14.893
61933W        W28342   1.485  18.294  12.044
61934W        W28343  11.059   5.428   1.765
61935W        W28344  40.117  35.025  13.545
61936W        W28345  28.720  39.155  14.085
61937W        W28346  39.260  22.378   0.360
61938W        W28347  23.995  23.470   2.609
61939W        W28348   3.977  17.146   2.211
61940W        W28349  14.728  24.996   3.728
61941W        W28350   3.959   0.010  12.533
61942W        W28351  33.049  44.639   4.171
61943W        W28352  36.017   9.992   4.629
61944W        W28353  35.524  30.081  13.397
61945W        W28354  20.404  18.231   3.816
61946W        W28355  16.798  32.017  11.710
61947W        W28356  44.325  44.941   4.679
61948W        W28357  12.102  12.381   2.123
61949W        W28358  37.027   6.601  12.497
61950W        W28359  25.215  29.631  11.554
61951W        W28360   0.913  22.192  12.389
61952W        W28361   8.243  19.725  13.599
61953W        W28362  36.650   0.008  13.416
61954W        W28363  12.297  34.542   1.858
61955W        W28364  43.540  32.211   0.681
61956W        W28365  36.488  41.606   0.870
61957W        W28366  12.096  44.597  11.991
61958W        W28367  24.853  15.087  14.736
61959W        W28368  26.606  19.018   4.085
61960W        W28369  35.003  20.239   4.284
61961W        W28370  34.910  30.787  10.743
61962W        W28371  25.196   1.343   2.768
61963W        W28372  17.601   2.943   3.365
61964W        W28373   5.058  36.469   4.002
61965W        W28374   9.174  35.658   1.229
61966W        W28375   8.156  18.529   3.749
61967W        W28376  24.735  28.171   2.878
61968W        W28377  36.838  28.499   1.290
61969W        W28378  32.608  26.231  13.074
61970W        W28379  17.982  22.806  12.056
61971W        W28380  18.060  42.979   3.132
61972W        W28381  27.367  16.775   4.781
61973W        W28382  28.422   0.966   1.501
61974W        W28383  21.160  43.460  13.918
61975W        W28384  42.578  37.573  14.953
61976W        W28385   6.501   5.689   1.327
61977W        W28386   8.326  41.401  13.984
61978W        W28387   8.540  31.019   1.327
61979W        W28388   4.290  24.954   0.582
61980W        W28389  44.043  25.128   1.997
61981W        W28390  22.217  21.957  13.690
61982W        W28391  44.956  33.202   1.433
61983W        W28392  15.061  44.565  12.479
61984W        W28393  41.179  32.178  11.238
61985W        W28394  26.669  21.185   3.228
61986W        W28395  25.710  34.336  14.948
61987W        W28396   5.886  14.209  10.629
61988W        W28397  10.792  17.043  12.545
61989W        W28398  18.793   8.225   3.283
61990W        W28399  24.386   2.429   3.263
61991W        W28400   0.534  25.682   3.319
61992W        W28401  23.684  13.581   4.192
61993W        W28402  10.227   8.511  11.654
61994W        W28403   1.181  16.646  14.455
61995W        W28404  40.470  41.861   0.449
61996W        W28405  10.103  19.413   4.325
61997W        W28406  44.489   7.951  13.029
61998W        W28407  33.850   9.031   3.072
61999W        W28408  36.921  40.431   4.730
62000W        W28409  32.186  10.286   4.016
62001W        W28410  29.279  32.868   3.729
62002W        W28411  35.116   7.778   2.047
62003W        W28412   7.473  14.366   2.589
62004W        W28413  36.339  18.510  12.610
62005W        W28414  10.060  11.096  11.580
62006W        W28415  19.579   2.756  14.997
62007W        W28416   4.252  44.818   3.325
62008W        W28417  42.287   4.290   4.545
62009W        W28418  29.967   4.879  11.930
62010W        W28419  30.606  12.257  10.872
62011W        W28420   5.498  28.135   5.009
62012W        W28421  25.930  28.734  11.049
62013W        W28422  27.360   0.858  12.089
62014W        W28423  28.189   8.871  14.735
62015W        W28424  38.712   4.371   4.090
62016W        W28425   6.709   3.512   3.163
62017W        W28426  19.539  29.794   4.815
62018W        W28427  35.906  13.787   2.150
62019W        W28428  10.353  37.740   2.229
62020W        W28429   5.397  19.527   1.104
62021W        W28430   0.106  14.135  12.034
62022W        W28431  30.550  23.956  13.002
62023W        W28432  15.178   8.316  14.470
62024W        W28433  25.382  35.349   3.609
62025W        W28434  38.878  31.059  11.542
62026W        W28435  40.376  16.335  12.469
62027W        W28436   2.593  33.369  14.286
62028W        W28437   1.774  37.007   1.150
62029W        W28438  27.182  23.584  10.731
62030W        W28439   4.424  23.755   2.654
62031W        W28440   7.635  42.593   3.882
62032W        W28441   2.505   0.013   3.850
62033W        W28442  22.512   3.813   1.790
62034W        W28443   0.282  21.557   0.777
62035W        W28444   1.025  13.707   0.419
62036W        W28445  29.148  34.764   3.174
62037W        W28446   3.834  26.013  13.118
62038W        W28447  33.506  35.500   4.438
62039W        W28448   0.740  43.005   4.211
62040W        W28449  34.894  16.197  11.125
62041W        W28450  38.585  27.780   3.204
62042W        W28451   2.110  24.355   3.627
62043W        W28452   1.766  24.239   2.348
62044W        W28453  32.705  10.681   2.379
62045W        W28454  27.000  34.843   0.159
62046W        W28455  40.286  14.648  11.920
62047W        W28456  32.783  12.678   2.687
62048W        W28457  25.938  36.075  13.825
62049W        W28458   4.887  16.086  10.972
62050W        W28459   4.052  32.907   4.603
62051W        W28460  22.045  22.524  10.488
62052W        W28461  19.728  11.652   0.321
62053W        W28462   4.221  39.936  12.025
62054W        W28463  10.747  43.983   0.859
62055W        W28464  24.050  18.676  11.513
62056W        W28465   5.062  39.409  12.937
62057W        W28466  18.613  36.625  11.456
62058W        W28467  11.693  39.884   3.261
62059W        W28468   2.336  28.112  13.707
62060W        W28469  42.993  15.398   4.651
62061W        W28470  18.522   2.974  13.457
62062W        W28471  22.119   3.941   1.215
62063W        W28472   8.791  28.608  11.536
62064W        W28473  41.043  24.041   3.100
62065W        W28474   0.500   8.698   9.759
62066W        W28475   3.273  29.707   2.270
62067W        W28476  18.591   4.468   2.679
62068W        W28477  34.564  38.821   0.401
62069W        W28478   5.441  34.463   3.738
62070W        W28479  23.271  25.232   0.729
62071W        W28480   5.757  19.928   2.464
62072W        W28481   3.695   2.956   4.050
62073W        W28482  37.455  23.739   3.176
62074W        W28483   8.200  44.783   2.419
62075W        W28484  12.826   7.425   2.778
62076W        W28485   5.746  26.655   4.196
62077W        W28486  24.704  36.616   3.720
62078W        W28487  28.649  14.881   4.648
62079W        W28488  42.836  12.649  10.531
62080W        W28489   0.844  11.593  12.142
62081W        W28490  37.622  38.442  12.041
62082W        W28491   9.978  32.096  14.175
62083W        W28492  24.025  32.057   4.190
62084W        W28493   9.215  20.670  10.707
62085W        W28494  23.710   9.797  10.257
62086W        W28495  16.601  40.441   4.657
62087W        W28496   6.253  32.374   3.507
62088W        W28497  33.944  14.175  11.677
62089W        W28498   6.031  40.126   0.579
62090W        W28499   5.828  22.206   0.377
62091W        W28500   8.814  13.270   3.258
62092W        W28501  21.755   4.706   9.855
62093W        W28502  21.086  43.127   9.999
62094W        W28503   0.348  29.921   2.525
62095W        W28504   7.432  31.084   0.461
62096W        W28505  43.947   2.341  13.617
62097W        W28506  24.303  41.411   3.602
62098W        W28507   3.936  11.743  10.605
62099W        W28508  28.971   0.034   4.551
62100W        W28509   3.364  31.430  14.909
62101W        W28510  38.879  30.524  14.663
62102W        W28511  17.556  14.199  10.701
62103W        W28512  43.700  21.527   3.209
62104W        W28513  43.861  23.315  12.642
62105W        W28514  18.011   7.365   2.414
62106W        W28515   4.953  24.070   4.133
62107W        W28516  44.803  16.440  10.227
62108W        W28517  26.969  10.423  14.594
62109W        W28518  33.508  29.500   2.239
62110W        W28519  30.343  20.731  13.088
62111W        W28520  11.885  17.089   3.739
62112W        W28521  19.197  23.021  11.889
62113W        W28522   3.336   2.054   4.804
62114W        W28523  27.394   2.848  11.981
62115W        W28524  36.820  10.411  12.043
62116W        W28525   0.869  21.251   0.906
62117W        W28526  44.286   7.369  10.387
62118W        W28527  35.562  12.356  12.081
62119W        W28528  19.056  15.741  11.471
62120W        W28529  42.825  12.629  13.517
62121W        W28530  30.630  33.960  10.694
62122W        W28531   7.385  36.074  13.038
62123W        W28532  19.580  29.264  11.586
62124W        W28533  20.068  18.644   3.838
62125W        W28534  19.487  20.310   2.873
62126W        W28535  34.596  28.264   0.801
62127W        W28536   2.667  20.784   0.947
62128W        W28537  36.867  13.885  11.067
62129W        W28538  23.523  41.408   3.264
62130W        W28539  41.419  23.133   0.135
62131W        W28540  23.756  17.067  14.219
62132W        W28541  11.713   4.691   1.810
62133W        W28542  31.377  40.033  10.674
62134W        W28543  40.500  42.212   2.820
62135W        W28544  13.643   0.628   2.158
62136W        W28545   4.892  30.143   0.398
62137W        W28546  41.019  36.484   2.168
62138W        W28547   4.651  43.193  14.826
62139W        W28548   2.514  15.772  12.173
62140W        W28549  13.396  11.299   1.404
62141W        W28550  12.797  44.710  10.672
62142W        W28551  17.501  42.411  11.596
62143W        W28552   7.791   3.529  12.869
62144W        W28553  38.378  44.702   1.781
62145W        W28554  15.440  15.143   4.416
62146W        W28555  18.160  36.049  14.826
62147W        W28556   6.842  36.677  12.517
62148W        W28557  33.347  34.973   2.596
62149W        W28558  34.650  24.090  14.848
62150W        W28559  34.432  30.669   4.323
62151W        W28560  15.344  19.243   4.229
62152W        W28561   7.561  40.247   4.452
62153W        W28562  37.876  21.150   0.537
62154W        W28563  13.165  42.806   4.535
62155W        W28564  18.623   5.328   1.657
62156W        W28565   2.281   4.707   2.293
62157W        W28566  37.505  30.928  11.632
62158W        W28567  12.047  23.735   3.608
62159W        W28568   8.851   8.909  10.577
62160W        W28569  33.851  22.302   0.364
62161W        W28570  31.917  41.249  14.712
62162W        W28571  22.321   2.063  13.834
62163W        W28572  36.542  20.335  12.394
62164W        W28573  14.089  19.526  12.163
62165W        W28574  13.041  43.154   2.213
62166W        W28575  27.928  11.242   1.670
62167W        W28576  33.208   7.772  12.027
62168W        W28577  17.671  20.546   5.512
62169W        W28578  33.092  31.094  12.506
62170W        W28579  41.862  25.557   1.400
62171W        W28580  32.857  12.359   2.306
62172W        W28581  42.945  31.567  13.564
62173W        W28582  12.754  25.744  13.545
62174W        W28583  28.567  29.937   4.061
62175W        W28584   1.439  32.853   0.778
62176W        W28585   2.929  38.956   1.277
62177W        W28586  23.475  37.465  12.016
62178W        W28587  17.998   4.368   4.240
62179W        W28588  39.802  21.631  14.253
62180W        W28589  41.331   6.321   0.353
62181W        W28590  22.983  33.567   4.405
62182W        W28591  24.706  28.908  14.924
62183W        W28592  32.375  13.751   1.082
62184W        W28593   5.553  37.367   4.885
62185W        W28594  18.709  34.059  12.713
62186W        W28595   3.359  20.825  11.422
62187W        W28596  12.770  40.301  13.926
62188W        W28597  14.504   0.274   5.037
62189W        W28598  38.175  21.827  13.177
62190W        W28599  41.047  14.114  14.780
62191W        W28600  25.676  27.971   1.175
62192W        W28601  42.248  27.929  10.700
62193W        W28602  11.333  35.866   0.714
62194W        W28603  10.310  13.725   4.048
62195W        W28604  39.019  21.725  10.103
62196W        W28605  32.389  32.043  12.274
62197W        W28606  40.437  40.023  13.052
62198W        W28607  23.774  41.357   1.831
62199W        W28608  17.742  33.789   1.772
62200W        W28609  34.297  18.072  10.811
62201W        W28610  38.180  19.735  14.231
62202W        W28611  12.265  18.721  13.527
62203W        W28612  41.566  31.204  14.994
62204W        W28613  16.932  18.068   4.087
62205W        W28614  14.500  33.834  14.234
62206W        W28615  23.639  23.340  11.438
62207W        W28616  11.707  40.283  13.524
62208W        W28617  23.206   3.893   3.223
62209W        W28618   5.824  12.231  11.375
62210W        W28619  43.529  25.560  14.464
62211W        W28620  41.848  24.946   2.716
62212W        W28621  38.147   4.965  10.616
62213W        W28622  10.693  22.996  14.966
62214W        W28623  38.486   4.752  13.687
62215W        W28624  23.584  12.892  11.090
62216W        W28625  10.945   9.283  13.087
62217W        W28626  23.559  20.026  14.462
62218W        W28627  26.987  18.124   1.509
62219W        W28628   8.460   5.966  11.543
62220W        W28629  33.898  40.241   2.527
62221W        W28630  23.707  24.185   2.749
62222W        W28631  13.177  27.705  11.533
62223W        W28632   4.888  29.151  10.455
62224W        W28633  43.794  22.521  13.332
62225W        W28634   3.838  20.775   0.233
62226W        W28635   0.960  16.153   1.187
62227W        W28636  34.909  40.828  10.407
62228W        W28637   8.121  38.336  11.913
62229W        W28638  18.268   2.191  12.657
62230W        W28639   7.845  36.864  12.014
62231W        W28640  10.373  17.495   0.958
62232W        W28641  42.030  12.719  11.184
62233W        W28642  17.988  20.295  11.584
62234W        W28643   4.449  33.065  10.606
62235W        W28644  12.977  33.704   3.185
62236W        W28645   2.011  41.838   4.183
62237W        W28646  40.921  31.023   3.328
62238W        W28647  21.326   2.427   3.947
62239W        W28648  35.127  28.988   0.805
62240W        W28649  22.666  11.397  13.432
62241W        W28650  16.265   6.772  12.906
62242W        W28651  44.228  11.859   3.359
62243W        W28652  14.376  44.322   0.363
62244W        W28653  30.201  22.555   1.307
62245W        W28654   1.558   3.274   0.367
62246W        W28655   3.670  26.741  11.669
62247W        W28656  35.595  20.161  11.509
62248W        W28657  32.026  35.576   3.621
62249W        W28658   7.852  19.037  13.050
62250W        W28659  18.922  38.792   3.288
62251W        W28660  38.162  19.179   0.529
62252W        W28661   0.874   5.398  13.921
62253W        W28662  33.416  12.087  12.963
62254W        W28663  14.671   2.339   1.939
62255W        W28664  10.399  33.304  11.029
62256W        W28665  27.867  39.253  11.583
62257W        W28666  37.368  32.836   4.408
62258W        W28667  33.479  16.083  10.550
62259W        W28668   5.984  28.428   5.040
62260W        W28669   9.837  37.428   5.045
62261W        W28670  43.379  13.824  12.534
62262W        W28671   0.784  22.124  14.215
62263W        W28672  43.412  38.259   1.268
62264W        W28673  25.237  25.629  11.533
62265W        W28674  32.758   6.357  13.406
62266W        W28675  25.030  29.762  12.440
62267W        W28676   9.833  44.777  11.211
62268W        W28677  39.016   9.285   3.744
62269W        W28678  30.417  15.353  12.648
62270W        W28679  31.584  27.121  14.022
62271W        W28680  21.005  24.714   2.272
62272W        W28681   1.214  37.410   0.909
62273W        W28682   2.508  40.834   3.610
62274W        W28683  26.032  12.068  13.956
62275W        W28684  38.749  43.956   3.298
62276W        W28685  21.484  13.211   4.095
62277W        W28686   1.229  40.388   0.822
62278W        W28687  10.027   5.362   1.739
62279W        W28688  27.952  30.280  14.436
62280W        W28689  18.562  23.139  13.114
62281W        W28690  43.444  12.208   3.263
62282W        W28691   2.306  20.451   4.590
62283W        W28692  23.091  43.166  14.410
62284W        W28693  33.375  27.170   4.056
62285W        W28694  25.525  36.497   3.300
62286W        W28695   6.258   2.231  12.097
62287W        W28696  17.622  24.062  14.488
62288W        W28697  31.929  43.217   0.738
62289W        W28698  32.659  11.260  14.919
62290W        W28699   9.771  29.538   1.135
62291W        W28700   0.617  13.468  14.472
62292W        W28701  34.101   9.269  12.243
62293W        W28702   8.698  23.684  10.608
62294W        W28703  33.877  12.765  12.543
62295W        W28704  44.211   3.557  14.966
62296W        W28705  36.991  16.865   0.731
62297W        W28706   2.233  24.077   4.281
62298W        W28707  10.791  37.060  11.655
62299W        W28708   7.768   4.969   1.748
62300W        W28709  24.908  33.844   3.656
62301W        W28710  20.697  13.812   4.478
62302W        W28711   3.938  17.261   1.361
62303W        W28712   0.779  33.352  14.585
62304W        W28713   0.662   4.848   0.038
62305W        W28714  17.800   0.318   1.382
62306W        W28715  13.506  34.783   1.217
62307W        W28716  16.702   2.206  13.911
62308W        W28717  14.648   6.734  12.615
62309W        W28718  15.258  43.832   0.227
62310W        W28719   3.214   1.504  14.908
62311W        W28720  34.951  14.009   1.271
62312W        W28721  31.540  17.051   3.553
62313W        W28722   5.186  44.738   0.340
62314W        W28723   5.445   4.414  11.118
62315W        W28724   1.358  29.684  12.512
62316W        W28725  31.882  13.684  12.617
62317W        W28726  36.593  29.218   2.254
62318W        W28727  37.724   5.860  14.739
62319W        W28728  33.308  37.805  11.144
62320W        W28729  35.431  39.037   2.782
62321W        W28730  13.798   7.945  13.537
62322W        W28731  38.746  38.423   2.258
62323W        W28732   2.314   3.833   0.451
62324W        W28733   2.534  25.210   4.932
62325W        W28734  12.768  39.020  13.765
62326W        W28735  25.720  30.945   3.322
62327W        W28736  33.967  41.535  13.656
62328W        W28737  41.536  27.133   3.671
62329W        W28738  24.336  25.339   0.741
62330W        W28739  19.719   9.300  14.925
62331W        W28740  41.489  34.897   2.823
62332W        W28741  20.807  35.950   0.360
62333W        W28742  14.224  36.921  13.471
62334W        W28743  12.442  42.951   9.908
62335W        W28744  10.083  40.848  14.942
62336W        W28745  35.971   9.102   0.415
62337W        W28746   4.832  44.157  10.755
62338W        W28747  18.446  14.313   1.674
62339W        W28748  25.652   1.242   4.116
62340W        W28749  18.039  19.168  13.308
62341W        W28750  27.242  23.677   3.522
62342W        W28751  29.559  17.211   4.632
62343W        W28752  44.432  27.522  11.109
62344W        W28753  17.590  29.109   0.700
62345W        W28754  33.358  34.541   4.586
62346W        W28755  17.554  28.419  14.546
62347W        W28756  20.795  17.507   0.675
62348W        W28757  43.993  14.130  14.373
62349W        W28758  24.462   2.992  14.328
62350W        W28759  41.305  13.824   4.214
62351W        W28760  13.281  32.835   4.729
62352W        W28761  22.520  14.192  10.248
62353W        W28762  38.465  15.168   4.619
62354W        W28763  29.644  37.456   4.637
62355W        W28764  27.786  43.164   2.240
62356W        W28765  10.587  33.165  14.963
62357W        W28766  32.586  39.821   2.473
62358W        W28767   7.176  39.380   4.166
62359W        W28768   4.918   3.928  13.276
62360W        W28769   2.328  39.527   2.379
62361W        W28770   6.651  30.941   3.700
62362W        W28771  22.588  38.297  13.586
62363W        W28772  11.017  28.026  11.968
62364W        W28773  35.957   2.943   3.112
62365W        W28774  22.025  14.886  13.921
62366W        W28775   7.733  14.806  12.887
62367W        W28776  30.545  25.722  13.990
62368W        W28777  13.097  31.165   1.707
62369W        W28778  29.948  10.226  12.944
62370W        W28779  27.743  43.914  14.788
62371W        W28780   8.432  21.986  12.556
62372W        W28781  27.753   8.658   1.021
62373W        W28782  42.041   4.320  12.874
62374W        W28783   8.908  41.753   2.450
62375W        W28784  42.993  11.622   4.901
62376W        W28785  20.152  33.573   3.662
62377W        W28786  12.133  42.730   2.439
62378W        W28787  10.361  32.995   4.514
62379W        W28788  16.735   7.145   1.363
62380W        W28789  15.798  21.184  11.536
62381W        W28790  29.395  16.217   0.322
62382W        W28791  18.178   0.466  10.420
62383W        W28792   1.863  19.819  14.388
62384W        W28793  38.265  38.296  12.516
62385W        W28794  15.637  21.247   3.880
62386W        W28795   0.269  30.055   0.307
62387W        W28796  25.058  32.119   2.739
62388W        W28797  14.758  37.954   1.159
62389W        W28798  32.884  15.195  11.800
62390W        W28799  22.480  23.078   0.237
62391W        W28800   0.742  17.648  13.940
62392W        W28801  37.196  25.188  13.533
62393W        W28802   3.661   7.162   3.659
62394W        W28803  15.681  12.161   1.961
62395W        W28804   4.714  34.384   1.797
62396W        W28805  21.820  17.688   2.320
62397W        W28806  14.292  39.010   1.673
62398W        W28807  15.318  38.512   4.510
62399W        W28808  32.529  42.863  11.679
62400W        W28809  32.092  33.649   1.251
62401W        W28810  24.457  34.083   2.882
62402W        W28811  44.706   3.908   4.354
62403W        W28812  26.138  28.407  13.406
62404W        W28813  21.618  10.721   3.385
62405W        W28814  27.957  10.359  11.886
62406W        W28815  22.794  35.849   3.068
62407W        W28816  38.856  20.236  13.070
62408W        W28817  35.378  35.269  12.911
62409W        W28818  21.140  34.074  14.008
62410W        W28819  33.659  22.115  11.060
62411W        W28820  27.976   7.094   0.716
62412W        W28821  44.278   5.385   2.739
62413W        W28822  41.886  11.289   3.792
62414W        W28823  35.215  40.950  14.283
62415W        W28824  38.100  18.928   2.608
62416W        W28825   4.255  25.181  12.018
62417W        W28826  15.123  38.602  13.506
62418W        W28827   2.227  25.378   4.550
62419W        W28828   3.852  39.331   1.839
62420W        W28829   8.633   9.609   2.751
62421W        W28830   7.128  30.081  13.120
62422W        W28831  26.476  21.650  13.482
62423W        W28832  10.401  16.990   0.995
62424W        W28833  19.106  40.125  14.915
62425W        W28834   9.736  10.138  13.074
62426W        W28835  38.998  15.594   5.090
62427W        W28836  31.516  44.471  13.262
62428W        W28837  27.446  18.170  13.809
62429W        W28838  10.691  30.362  11.103
62430W        W28839  16.174  15.712   4.245
62431W        W28840   8.435  43.957   2.749
62432W        W28841   5.224  15.647   1.856
62433W        W28842  42.938  31.900  12.194
62434W        W28843  25.678  30.489  11.623
62435W        W28844  13.128   8.393   2.735
62436W        W28845  30.882  14.412   0.900
62437W        W28846  42.395  21.070   3.665
62438W        W28847  37.949  31.205  11.270
62439W        W28848  40.767   3.854   3.051
62440W        W28849  19.560   8.646  14.282
62441W        W28850  28.767  34.440   3.851
62442W        W28851  20.683  16.614   1.127
62443W        W28852   2.435   5.809   4.121
62444W        W28853  20.095  15.029  13.144
62445W        W28854  14.157  31.348   2.681
62446W        W28855  17.146  15.793   5.179
62447W        W28856   7.896  17.124  13.474
62448W        W28857  38.422  29.543  14.007
62449W        W28858   0.016   7.941   3.699
62450W        W28859  13.451   8.782  14.448
62451W        W28860  23.752  19.273   1.285
62452W        W28861   2.368  42.755  11.677
62453W        W28862  17.354  12.587  11.116
62454W        W28863   3.798  39.841   1.972
62455W        W28864   8.686  41.435   4.137
62456W        W28865   8.953  20.222  12.004
62457W        W28866  27.287  27.557   3.903
62458W        W28867  20.500  29.525   1.712
62459W        W28868  20.643   1.452  14.783
62460W        W28869   8.269   4.033   1.274
62461W        W28870   9.288  14.472   3.875
62462W        W28871  13.081  31.536   4.344
62463W        W28872  38.853  13.472   1.185
62464W        W28873   5.650  20.200  14.660
62465W        W28874   9.836  42.691  14.736
62466W        W28875  23.953  25.674  12.177
62467W        W28876  23.434  25.646  13.651
62468W        W28877   5.980   7.787   2.309
62469W        W28878  23.014  40.838  14.226
62470W        W28879   8.450  16.123  12.123
62471W        W28880  44.727  16.193   3.784
62472W        W28881   2.920  37.984  11.101
62473W        W28882  36.926  27.081  13.336
62474W        W28883  18.743  19.120   4.293
62475W        W28884  24.690  11.165  12.995
62476W        W28885  11.235   9.277   1.778
62477W        W28886   1.472  36.421  14.909
62478W        W28887  17.250  18.083   3.188
62479W        W28888  19.070  29.945  12.973
62480W        W28889  25.528  39.883   4.706
62481W        W28890  11.319  38.593   2.211
62482W        W28891  40.264  35.240   2.030
62483W        W28892  18.542  22.620   3.902
62484W        W28893  34.428  23.765  12.994
62485W        W28894  16.248  17.558   2.315
62486W        W28895  13.334  19.094   0.018
62487W        W28896   8.123   9.379   0.674
62488W        W28897  29.134  20.683  14.881
62489W        W28898  34.207  22.945   3.623
62490W        W28899   2.564   9.874   4.246
62491W        W28900  34.770  42.557  13.321
62492W        W28901   4.389  37.789  12.689
62493W        W28902  20.706  19.077   0.302
62494W        W28903  10.063  44.754  12.450
62495W        W28904  18.892  34.759  10.280
62496W        W28905   3.367   1.813   0.711
62497W        W28906  31.525  42.932  11.746
62498W        W28907  39.455   2.496   0.533
62499W        W28908  19.678  24.947  12.586
62500W        W28909   3.936  17.074  14.810
62501W        W28910   3.178  14.798  11.495
62502W        W28911  43.297  17.757   0.845
62503W        W28912  37.798  34.502  10.487
62504W        W28913  20.742   1.389  10.675
62505W        W28914  34.303  39.403   4.836
62506W        W28915  31.130   9.928   4.662
62507W        W28916   3.673  24.108   4.193
62508W        W28917  43.358  12.144  14.800
62509W        W28918  40.871  44.715   4.557
62510W        W28919  12.293  18.687   3.634
62511W        W28920   4.222  28.656  12.302
62512W        W28921   4.808  42.718  10.420
62513W        W28922  43.875  27.118   0.320
62514W        W28923  37.946  26.461   3.285
62515W        W28924  12.773  10.417  12.954
62516W        W28925  21.215  37.012   1.409
62517W        W28926   9.579  42.373  14.385
62518W        W28927  13.704  28.612  14.332
62519W        W28928   8.139   9.850   1.428
62520W        W28929  28.986  18.585   3.251
62521W        W28930  23.167   3.845  11.719
62522W        W28931   9.250   1.161   4.189
62523W        W28932  31.182  23.097  11.047
62524W        W28933  19.139  11.877   3.755
62525W        W28934  13.489  20.759   0.374
62526W        W28935  35.498  34.501   4.742
62527W        W28936  34.865  20.283   3.605
62528W        W28937  22.944  24.549  11.997
62529W        W28938  12.919  29.911   1.647
62530W        W28939   3.504  23.365  13.256
62531W        W28940  34.264   4.446   3.260
62532W        W28941  12.180  14.980  12.303
62533W        W28942  17.348  13.819  12.895
62534W        W28943  22.851  42.925  14.819
62535W        W28944  17.825  23.346   3.286
62536W        W28945  15.095  16.744   1.705
62537W        W28946  17.853  41.251  12.865
62538W        W28947  25.092  19.173   0.014
62539W        W28948  29.316   4.633   2.423
62540W        W28949   2.484  38.628   1.406
62541W        W28950  36.460  19.303   4.576
62542W        W28951  33.555  18.273   2.342
62543W        W28952   2.000  30.355   5.200
62544W        W28953  22.535  35.431   1.905
62545W        W28954  25.827  35.597   3.716
62546W        W28955  37.298  14.129   3.381
62547W        W28956   6.323  18.299   1.001
62548W        W28957  18.640  39.538   0.519
62549W        W28958  41.769  22.797   3.253
62550W        W28959   6.631   9.228  10.660
62551W        W28960   4.179  33.322  12.145
62552W        W28961  18.000  28.226  11.163
62553W        W28962   0.028  17.213   3.686
62554W        W28963  22.087   1.217  13.613
62555W        W28964  32.555  19.430  12.641
62556W        W28965  21.747  10.404   0.216
62557W        W28966  33.383   6.178  11.642
62558W        W28967   5.437  10.091  11.149
62559W        W28968  27.162  21.557   9.682
62560W        W28969   4.182  10.648  14.884
62561W        W28970  41.432  19.342  11.079
62562W        W28971  39.993  17.693  12.641
62563W        W28972   2.224   4.400   4.375
62564W        W28973  32.101  20.800   2.984
62565W        W28974  44.814   0.327  13.047
62566W        W28975  19.122  28.654   3.755
62567W        W28976  18.572  25.737  13.893
62568W        W28977  36.808  24.447  11.619
62569W        W28978  14.881  14.140  13.888
62570W        W28979  38.739   6.796  13.521
62571W        W28980  15.567  38.867  12.355
62572W        W28981  14.630  13.178   1.442
62573W        W28982  42.678  30.592  12.094
62574W        W28983  15.701  24.121   3.257
62575W        W28984  25.573  15.751  10.780
62576W        W28985   5.078  43.261  13.423
62577W        W28986   1.328  22.266   4.742
62578W        W28987  39.009  27.933  14.558
62579W        W28988  27.966  39.307   2.796
62580W        W28989  27.971   5.254   3.296
62581W        W28990  22.603  33.845  11.589
62582W        W28991  24.507  17.047  13.497
62583W        W28992   4.421  44.447  10.947
62584W        W28993  21.059  17.473  14.459
62585W        W28994  27.250  43.936  13.896
62586W        W28995  44.279  21.177  12.577
62587W        W28996  19.671  32.414  12.426
62588W        W28997   2.349  30.481  10.853
62589W        W28998  11.814  19.414  14.443
62590W        W28999   0.471  25.729  12.514
62591W        W29000  17.640  16.964   0.338
62592W        W29001  24.994  13.236   3.209
62593W        W29002  26.406  14.463  13.160
62594W        W29003  28.593  39.515  12.635
62595W        W29004  23.786  27.279  13.801
62596W        W29005  29.144  17.936   1.625
62597W        W29006  36.310   2.688   1.506
62598W        W29007  12.559  15.144   0.317
62599W        W29008  30.374  14.314  14.892
62600W        W29009  20.657  34.698   2.668
62601W        W29010  15.743  26.514   1.856
62602W        W29011  15.164   4.493  10.505
62603W        W29012   3.661  41.236  10.316
62604W        W29013  18.291   8.747  12.604
62605W        W29014  30.585   7.801  11.376
62606W        W29015  17.767  31.730   3.112
62607W        W29016  16.746  31.000   0.780
62608W        W29017  23.601   9.306  13.558
62609W        W29018  30.321  44.240  12.566
62610W        W29019   1.406  21.319   4.516
62611W        W29020   2.700  21.637   1.091
62612W        W29021  20.465  39.580  14.346
62613W        W29022  27.858  42.839   1.418
62614W        W29023  37.399   8.672  10.438
62615W        W29024  23.781  37.604  13.296
62616W        W29025  40.329  26.461   1.151
62617W        W29026   0.305  26.212   3.269
62618W        W29027  35.863  29.157  14.998
62619W        W29028  12.301  43.890  12.555
62620W        W29029  44.446  22.148  14.021
62621W        W29030  37.490  36.823   2.414
62622W        W29031  35.524  19.685   3.298
62623W        W29032  31.992  40.709  14.850
62624W        W29033  20.956  39.938   1.781
62625W        W29034  10.481  31.886   4.676
62626W        W29035  27.091  10.357  10.212
62627W        W29036  37.070  27.977   0.293
62628W        W29037  43.356  15.811  11.328
62629W        W29038  42.965  16.513   0.768
62630W        W29039  24.290  41.279   4.529
62631W        W29040  24.137  28.959   3.343
62632W        W29041  10.247  14.623  12.399
62633W        W29042  26.670   0.528  13.560
62634W        W29043  19.259  44.389  11.098
62635W        W29044  26.526   2.254  13.874
62636W        W29045  42.775   8.391   4.094
62637W        W29046  31.633  12.557   0.634
62638W        W29047  33.159  42.900   3.773
62639W        W29048  26.464  43.889  11.399
62640W        W29049  28.040  39.338   3.359
62641W        W29050   8.844  23.960   0.476
62642W        W29051   6.330   4.425   1.851
62643W        W29052  16.087  36.507  13.891
62644W        W29053  27.248  41.731  13.397
62645W        W29054   5.925  37.544   4.555
62646W        W29055  21.441   0.690  12.096
62647W        W29056  36.101  15.816   0.783
62648W        W29057   0.473  24.162  14.774
62649W        W29058  18.256  38.326   5.754
62650W        W29059  27.418   5.308   4.182
62651W        W29060  28.725   2.266   0.948
62652W        W29061   4.369  24.293  10.741
62653W        W29062  35.845   8.657   4.106
62654W        W29063  34.908   2.414   2.668
62655W        W29064  13.886  28.237   2.931
62656W        W29065   7.899  18.494  12.189
62657W        W29066  14.896  11.235  11.427
62658W        W29067  36.020  10.412   2.728
62659W        W29068  16.654  44.202   1.298
62660W        W29069  38.174  32.887  11.504
62661W        W29070  40.396  34.571  13.501
62662W        W29071  38.361  25.181  13.907
62663W        W29072  38.706  41.404  13.538
62664W        W29073  27.265  35.476   3.644
62665W        W29074  21.486   8.600  13.279
62666W        W29075  13.096  15.668  10.884
62667W        W29076  24.050  20.336  12.413
62668W        W29077  13.283  24.454   1.470
62669W        W29078  26.584  35.953   2.667
62670W        W29079  33.837  30.201   3.849
62671W        W29080  38.570  39.908   4.182
62672W        W29081  24.977  37.305   0.881
62673W        W29082   4.148  36.421  12.876
62674W        W29083   7.367  32.694   0.494
62675W        W29084  20.718  44.917   2.274
62676W        W29085  26.521  19.522   0.000
62677W        W29086   9.413  11.222  14.920
62678W        W29087   4.711   7.298  14.404
62679W        W29088  38.930  20.578   2.667
62680W        W29089  34.366  28.200   2.416
62681W        W29090  42.844   0.858  14.285
62682W        W29091  39.047  10.161   1.385
62683W        W29092  38.522  21.502  12.945
62684W        W29093  38.581   2.929  10.479
62685W        W29094  42.065   5.927  13.428
62686W        W29095  31.894   8.658  12.501
62687W        W29096  34.031  32.463  14.554
62688W        W29097  12.968  34.658   3.179
62689W        W29098  13.375  26.119  12.498
62690W        W29099  17.533  21.208   3.797
62691W        W29100  25.251  35.736  13.011
62692W        W29101  10.971  39.497   1.029
62693W        W29102  17.533  12.656   1.089
62694W        W29103  20.210  16.341   1.127
62695W        W29104  40.925  34.801   4.717
62696W        W29105  31.391  41.369  13.972
62697W        W29106  32.147  10.261   0.819
62698W        W29107  21.037  29.671   3.168
62699W        W29108  36.146   4.341  11.563
62700W        W29109  22.466   9.707  11.589
62701W        W29110  35.087   8.921   2.787
62702W        W29111   8.204   4.114  13.746
62703W        W29112  22.280   4.938   1.036
62704W        W29113   5.204  35.171   1.687
62705W        W29114  19.639  13.068   2.239
62706W        W29115  44.367   5.303  13.468
62707W        W29116  13.700   1.601  10.590
62708W        W29117  26.234   2.796  14.581
62709W        W29118  33.989  32.500   4.139
62710W        W29119  30.191  35.101  14.924
62711W        W29120   6.731  22.271   1.337
62712W        W29121   4.551  32.089  11.523
62713W        W29122  36.079  37.863  11.018
62714W        W29123  11.669  28.639   1.183
62715W        W29124  31.091  38.887   4.950
62716W        W29125  43.512  22.197  11.064
62717W        W29126  32.435   3.876  14.345
62718W        W29127  35.130  26.770   5.153
62719W        W29128   8.874  17.398  12.035
62720W        W29129  42.430  31.423   2.552
62721W        W29130   8.294  11.530  11.578
62722W        W29131  30.255  20.553  12.085
62723W        W29132   4.568   4.879  11.567
62724W        W29133   2.401  37.189   2.384
62725W        W29134  25.376   0.016   2.649
62726W        W29135   5.310   3.345  11.983
62727W        W29136   4.972   9.669   0.989
62728W        W29137  36.070  14.859   4.154
62729W        W29138  13.381  41.091   3.657
62730W        W29139  30.180  11.908  13.481
62731W        W29140  36.444  44.461   0.301
62732W        W29141  17.788   1.127   3.160
62733W        W29142  18.225  36.928  12.590
62734W        W29143  10.276  25.315   3.996
62735W        W29144  20.955  23.011   2.772
62736W        W29145  16.547  14.968   0.871
62737W        W29146  23.565  36.856   4.066
62738W        W29147  12.718  26.610  11.933
62739W        W29148   5.858  34.012  11.250
62740W        W29149  44.793   3.504  13.425
62741W        W29150   7.900  12.546   2.242
62742W        W29151   8.346   1.477  10.669
62743W        W29152  26.484  17.669   4.274
62744W        W29153  36.821   8.837  11.255
62745W        W29154   9.351  44.283  14.277
62746W        W29155  10.761   6.012  11.909
62747W        W29156  30.166  30.662  14.932
62748W        W29157   9.782  28.448   1.012
62749W        W29158   3.410  14.546  12.716
62750W        W29159   2.635   3.177   1.129
62751W        W29160  22.191  14.864  12.591
62752W        W29161  44.815  15.141   0.977
62753W        W29162  38.429  20.926   4.208
62754W        W29163   6.362   7.178   1.147
62755W        W29164  42.989  42.849  13.788
62756W        W29165  28.564  12.818   4.842
62757W        W29166  16.270   3.265  11.534
62758W        W29167  28.382   2.462  14.978
62759W        W29168   3.920  35.134  11.155
62760W        W29169  39.964   1.138   2.175
62761W        W29170   2.721  34.901   1.711
62762W        W29171  13.726  42.903   1.384
62763W        W29172   9.754  31.200   1.744
62764W        W29173  13.915  44.821   3.822
62765W        W29174   3.297  42.872   0.837
62766W        W29175   8.337  44.547   1.330
62767W        W29176  24.701  25.991  13.198
62768W        W29177   2.460  18.365  11.689
62769W        W29178  12.195  33.976  10.749
62770W        W29179  26.521  25.829   4.983
62771W        W29180  18.131  25.135   0.204
62772W        W29181  31.582  24.910   0.942
62773W        W29182  34.456  25.530   4.324
62774W        W29183  18.087  44.963  12.386
62775W        W29184  24.710  40.570  11.957
62776W        W29185  16.020  10.460  12.413
62777W        W29186  40.517  26.576   0.640
62778W        W29187  24.816  28.121  13.654
62779W        W29188  34.937  24.200   3.803
62780W        W29189   6.126   9.022   1.429
62781W        W29190  15.936  19.109   4.279
62782W        W29191  27.126  32.479   0.947
62783W        W29192  19.068  23.275   4.785
62784W        W29193  14.384  27.504   1.309
62785W        W29194  38.887  22.613  10.680
62786W        W29195  27.020   2.196   4.578
62787W        W29196  10.793  12.428  13.021
62788W        W29197   2.314   4.885  11.032
62789W        W29198   3.532  29.521  14.410
62790W        W29199  13.624  11.374   4.104
62791W        W29200  39.952   7.891  12.508
62792W        W29201  14.392   1.900   2.828
62793W        W29202  20.592  44.540  11.594
62794W        W29203  12.798  23.381  12.610
62795W        W29204   1.733  36.008   0.791
62796W        W29205  31.102  38.827   0.282
62797W        W29206  21.612   3.946  12.617
62798W        W29207  42.113  27.420  14.884
62799W        W29208  40.411   0.658   2.869
62800W        W29209  40.524  25.190  12.191
62801W        W29210  39.435  11.674   2.115
62802W        W29211  13.722  32.608  14.878
62803W        W29212  39.103  16.510  13.412
62804W        W29213  22.700   2.159  12.023
62805W        W29214  21.983   8.898   3.711
62806W        W29215  30.547   2.030   4.087
62807W        W29216  36.961  12.388   0.015
62808W        W29217  33.104  12.673  11.581
62809W        W29218  31.040  11.865   2.607
62810W        W29219  39.773  10.829   4.222
62811W        W29220  41.900  35.867   1.334
62812W        W29221  30.536  33.915   3.743
62813W        W29222  18.319   9.689  14.356
62814W        W29223   8.325  10.450  11.940
62815W        W29224   8.959   9.701  10.938
62816W        W29225   1.569  30.540  14.350
62817W        W29226  25.183   2.360  13.104
62818W        W29227  26.449   1.883   2.777
62819W        W29228  16.143   1.721  14.392
62820W        W29229  32.885  40.944  14.882
62821W        W29230  24.217   3.304   0.712
62822W        W29231   3.321  36.218   0.224
62823W        W29232  20.577   1.283   1.750
62824W        W29233  37.297  24.407  11.332
62825W        W29234  15.679  18.211   5.595
62826W        W29235   4.875  10.737  10.810
62827W        W29236   4.688  25.112   0.929
62828W        W29237   3.816  11.136  12.830
62829W        W29238  41.439  26.794   2.589
62830W        W29239   2.353  27.557  12.519
62831W        W29240   1.871   5.312  10.800
62832W        W29241   8.791  42.298   4.012
62833W        W29242   9.856  15.185  13.929
62834W        W29243   5.980   7.111   3.177
62835W        W29244  36.861  12.738   1.204
62836W        W29245  39.231  24.731   1.564
62837W        W29246  35.044  16.298  13.480
62838W        W29247  31.080  36.042   2.231
62839W        W29248  17.510   6.757  14.332
62840W        W29249  16.249  20.782  11.470
62841W        W29250  18.116   3.907  11.548
62842W        W29251  10.298   9.360   1.753
62843W        W29252   1.586   8.362  11.616
62844W        W29253  19.527  28.620  13.563
62845W        W29254   7.969  17.480   4.285
62846W        W29255  19.576  36.700  13.138
62847W        W29256  26.053   7.888   2.819
62848W        W29257  19.174  14.575  12.759
62849W        W29258  13.209   2.414   2.839
62850W        W29259  40.506  34.018  12.459
62851W        W29260  39.516  44.262  11.651
62852W        W29261  23.511  10.817  10.706
62853W        W29262   2.591   1.198  11.302
62854W        W29263  26.704  22.494   0.234
62855W        W29264  23.471  32.087  10.745
62856W        W29265  43.864  20.269   0.549
62857W        W29266  21.004   7.179   3.715
62858W        W29267  36.623  21.515   3.161
62859W        W29268  20.925  38.964  11.443
62860W        W29269  21.672   8.499   2.552
62861W        W29270  13.331  44.970  11.989
62862W        W29271  38.106  33.003   0.245
62863W        W29272  30.865  16.746   0.805
62864W        W29273  12.246  34.520  11.686
62865W        W29274  29.633   5.490   3.622
62866W        W29275  12.396  35.184  12.435
62867W        W29276  28.278  13.422  11.932
62868W        W29277  15.186  10.787   4.527
62869W        W29278  13.712  43.722  14.488
62870W        W29279  14.361  24.095   1.618
62871W        W29280  28.178  28.695  11.553
62872W        W29281   2.521  43.156  13.938
62873W        W29282  32.395  33.028  13.514
62874W        W29283   8.605   5.198   0.439
62875W        W29284  18.628  34.821  12.004
62876W        W29285  17.381  25.128  10.214
62877W        W29286  21.776  15.959  14.476
62878W        W29287  34.117   5.294  12.535
62879W        W29288   3.500   6.399   1.723
62880W        W29289  11.597  12.171  12.544
62881W        W29290  26.038  23.585   1.741
62882W        W29291  19.821  40.524   1.814
62883W        W29292   4.219   1.068   3.148
62884W        W29293   4.660   4.878   3.263
62885W        W29294  30.898  19.832   2.734
62886W        W29295  18.231  44.551   1.369
62887W        W29296  37.433  34.091  14.896
62888W        W29297  42.333   1.332  12.973
62889W        W29298  18.511  32.654  11.193
62890W        W29299   9.469  22.804  11.230
62891W        W29300   8.065  38.279  12.915
62892W        W29301  41.323  30.593  13.443
62893W        W29302  29.638  21.682  10.630
62894W        W29303  18.051  16.856  14.430
62895W        W29304   1.254  38.958  14.964
62896W        W29305  32.119   8.009  14.815
62897W        W29306  11.091  28.628   3.448
62898W        W29307  14.109   7.451   3.999
62899W        W29308  43.468   8.363  11.126
62900W        W29309   7.756  35.484   2.201
62901W        W29310  13.868  13.189  14.542
62902W        W29311  39.153  23.335   3.709
62903W        W29312  18.229  41.554  12.699
62904W        W29313  22.058   8.342  12.701
62905W        W29314   8.886  44.621   1.683
62906W        W29315   0.983  17.212  13.774
62907W        W29316  40.488  29.318   4.023
62908W        W29317  10.277  20.578  10.997
62909W        W29318  29.601  32.975  13.836
62910W        W29319  36.883  35.056  12.560
62911W        W29320  24.239  10.469   3.168
62912W        W29321   7.157   4.414  14.963
62913W        W29322  12.415  21.223  11.541
62914W        W29323   5.459  20.095   4.159
62915W        W29324  16.033  31.481   0.991
62916W        W29325  24.983  37.325   1.800
62917W        W29326  42.370  27.113  11.699
62918W        W29327  29.012  16.576   3.989
62919W        W29328  12.409   5.546   4.132
62920W        W29329  26.697   5.646   5.047
62921W        W29330  36.057   9.265   3.059
62922W        W29331  14.276  42.908   0.300
62923W        W29332  34.562  22.944  10.587
62924W        W29333  29.245  40.780  11.733
62925W        W29334   3.293  43.902   4.316
62926W        W29335  33.935  17.168   4.293
62927W        W29336  34.841  20.487  12.979
62928W        W29337   1.258  11.658  12.428
62929W        W29338  27.970  30.550   3.087
62930W        W29339   0.446  38.594  12.882
62931W        W29340   2.364  13.747   3.107
62932W        W29341  33.957  29.409  14.295
62933W        W29342   0.744  33.104  12.950
62934W        W29343   8.578  32.625   1.888
62935W        W29344  41.539  16.550   0.358
62936W        W29345  36.104  19.347  14.798
62937W        W29346   7.980   0.228   3.811
62938W        W29347  12.264  20.717  10.698
62939W        W29348   0.318  40.285   3.319
62940W        W29349  28.493  20.600  12.652
62941W        W29350  44.784  17.176  10.082
62942W        W29351  15.140  40.722   3.362
62943W        W29352  17.784  37.126   5.134
62944W        W29353   4.898  10.492  12.202
62945W        W29354   9.408  32.079   3.203
62946W        W29355  44.334   1.166   4.826
62947W        W29356  15.733  21.916  14.955
62948W        W29357   4.744  12.630   2.642
62949W        W29358   7.360   6.690  13.522
62950W        W29359  10.868  43.248  12.572
62951W        W29360  19.787  40.277  12.455
62952W        W29361   4.842  29.574  10.940
62953W        W29362   9.422  20.591   5.011
62954W        W29363  19.969  25.157  12.981
62955W        W29364  17.690  26.727   0.931
62956W        W29365  44.295  25.246   0.676
62957W        W29366  22.300  28.619   2.124
62958W        W29367  15.615   2.150  13.490
62959W        W29368  39.134   9.555  13.312
62960W        W29369  33.004  41.464   2.240
62961W        W29370  36.068  36.230  13.441
62962W        W29371  13.582  33.040   3.137
62963W        W29372  10.155  44.778   0.781
62964W        W29373  20.367   8.423   0.789
62965W        W29374  32.576  40.241   4.027
62966W        W29375  28.082  16.358  10.418
62967W        W29376  37.447  37.510   1.235
62968W        W29377  44.759  21.527   0.831
62969W        W29378  16.757  38.854  12.783
62970W        W29379  38.944  10.224   0.796
62971W        W29380  12.323  29.437  13.776
62972W        W29381  35.414   2.265   2.677
62973W        W29382  10.828  10.580  12.371
62974W        W29383  35.949   3.807  13.767
62975W        W29384  25.057  26.386  13.454
62976W        W29385  25.581  43.910   2.444
62977W        W29386  18.134  21.295   5.090
62978W        W29387  13.809  34.380   1.333
62979W        W29388   3.530  19.226  11.471
62980W        W29389   6.852   0.476  11.910
62981W        W29390  43.271  39.585  12.171
62982W        W29391  29.141  20.139   0.254
62983W        W29392  24.949  34.095  14.533
62984W        W29393  20.246  43.462   0.499
62985W        W29394  28.661  17.074   1.427
62986W        W29395  33.889  10.652   1.684
62987W        W29396  33.526  26.577   1.410
62988W        W29397  37.892  34.096   0.820
62989W        W29398  17.569  34.096   0.445
62990W        W29399  39.114  41.098   3.644
62991W        W29400  13.589  11.734   1.657
62992W        W29401  36.354  18.356   0.670
62993W        W29402  35.118  41.998   4.092
62994W        W29403  10.651  17.010  10.729
62995W        W29404   6.780  32.098  11.033
62996W        W29405  33.524  22.607   2.634
62997W        W29406  39.479  38.019  11.507
62998W        W29407  11.941  15.331  11.889
62999W        W29408  31.476   9.370  11.722
63000W        W29409  23.862   7.094  13.538
63001W        W29410  34.073  16.659   0.980
63002W        W29411  28.943   4.969   2.320
63003W        W29412  35.594  20.724   3.171
63004W        W29413  30.921  39.260   3.733
63005W        W29414  19.149  42.631  13.872
63006W        W29415  31.592  12.388   3.232
63007W        W29416  36.022  13.003  13.753
63008W        W29417  27.441  10.754  10.284
63009W        W29418  11.567  33.901   2.984
63010W        W29419  14.578   3.068  12.942
63011W        W29420  41.502  35.158  13.966
63012W        W29421   1.718  27.921  14.455
63013W        W29422   8.212  10.655   4.508
63014W        W29423  27.314   6.424   5.058
63015W        W29424  29.818  39.924   3.416
63016W        W29425   9.303   9.489   4.650
63017W        W29426  10.662  21.963   1.739
63018W        W29427  10.803  11.901   0.219
63019W        W29428  31.373  43.745   4.609
63020W        W29429  28.149  38.636  14.756
63021W        W29430  41.521  29.443  10.553
63022W        W29431   6.743   3.739   2.358
63023W        W29432  25.598   5.806  13.986
63024W        W29433  18.113  23.868  14.246
63025W        W29434  36.843   9.217   4.172
63026W        W29435  14.595   6.824  13.114
63027W        W29436  40.308  44.760   3.874
63028W        W29437  23.040  43.299   3.140
63029W        W29438   2.066  32.836  11.124
63030W        W29439  16.241  29.969  11.124
63031W        W29440   9.391  16.694   1.997
63032W        W29441   1.742  21.025  12.900
63033W        W29442  17.320  39.010  10.830
63034W        W29443  40.817  36.699   0.173
63035W        W29444  41.980  27.610   2.191
63036W        W29445  22.298  44.694   2.763
63037W        W29446  25.099  40.057  14.894
63038W        W29447  20.125  40.151  11.071
63039W        W29448  15.857  16.339  13.103
63040W        W29449   6.408  22.149  12.616
63041W        W29450   8.432  24.992   9.744
63042W        W29451   9.553  36.031   1.240
63043W        W29452  21.665  33.666   2.307
63044W        W29453  44.929  13.155  13.069
63045W        W29454  17.470  22.702  10.268
63046W        W29455  15.233   2.443  14.407
63047W        W29456  21.226  30.495   1.244
63048W        W29457  27.594  17.716   4.131
63049W        W29458  19.542  12.154   3.305
63050W        W29459   2.224  41.066  12.031
63051W        W29460  43.901  36.882  13.390
63052W        W29461   4.045  42.225   4.145
63053W        W29462  24.136  27.225   3.810
63054W        W29463  32.052  15.993  12.506
63055W        W29464  11.395  15.047   0.265
63056W        W29465  27.920   8.755  13.742
63057W        W29466  24.587  19.731   1.827
63058W        W29467  34.528  17.334  13.052
63059W        W29468  26.290  19.899  13.009
63060W        W29469  35.622  17.142  11.675
63061W        W29470  29.633  30.485  12.027
63062W        W29471  21.505  26.458   2.279
63063W        W29472  28.197  40.102   2.667
63064W        W29473  30.988  42.474   4.365
63065W        W29474  20.719  18.177   0.443
63066W        W29475  20.109  30.519   3.129
63067W        W29476   0.991  14.907   0.198
63068W        W29477  40.190  22.217   4.537
63069W        W29478   3.409  31.053  12.034
63070W        W29479  20.112  15.892   0.880
63071W        W29480  30.217  38.748   0.307
63072W        W29481  21.739  43.815   0.921
63073W        W29482   2.451  19.315  11.072
63074W        W29483  22.285  32.472  12.909
63075W        W29484  32.085  32.624  13.575
63076W        W29485  11.458   9.008  10.952
63077W        W29486  25.066  12.869   5.045
63078W        W29487   5.694  44.112   2.769
63079W        W29488   2.274   9.825   3.783
63080W        W29489  14.365  43.052   3.999
63081W        W29490   6.782   4.637   4.947
63082W        W29491  35.810  36.662   1.802
63083W        W29492  24.729  20.073  12.515
63084W        W29493  44.931   1.275   1.425
63085W        W29494   3.785   2.793   3.571
63086W        W29495  44.722  12.736   0.955
63087W        W29496  24.213  25.477  12.577
63088W        W29497  39.550  24.292   0.311
63089W        W29498  35.954   5.330  14.510
63090W        W29499  39.003  19.806   3.712
63091W        W29500   1.341  21.746  10.373
63092W        W29501  41.869  30.676   0.437
63093W        W29502  28.679  44.013  14.355
63094W        W29503  33.110   4.841   0.955
63095W        W29504  37.466  32.874  10.594
63096W        W29505  30.243  17.210  11.206
63097W        W29506  35.957  33.542  10.797
63098W        W29507  12.297  26.648   1.192
63099W        W29508  26.475   5.191  11.508
63100W        W29509  16.092  28.509   1.391
63101W        W29510  16.132   4.766   2.349
63102W        W29511  36.519   7.199  10.944
63103W        W29512  17.897  13.379   3.329
63104W        W29513  26.368  40.460  10.932
63105W        W29514  37.293   9.071  12.030
63106W        W29515  41.518  14.544   3.555
63107W        W29516  21.952   7.566   3.459
63108W        W29517  41.008   6.764  10.676
63109W        W29518  31.834  28.975   3.416
63110W        W29519  33.167   6.905  14.022
63111W        W29520  35.000   5.406   1.262
63112W        W29521  42.719  30.044  14.313
63113W        W29522   4.621  38.253   4.759
63114W        W29523   9.558  26.509   1.366
63115W        W29524  10.090  37.384  13.324
63116W        W29525  43.995   0.800   4.655
63117W        W29526  10.367  11.300  14.756
63118W        W29527  16.141   4.974  12.945
63119W        W29528  35.811  25.739   1.389
63120W        W29529   1.990   6.806   4.400
63121W        W29530  23.771  12.349   1.827
63122W        W29531  15.655   2.844   3.784
63123W        W29532  11.655  11.426  10.709
63124W        W29533  13.793  20.199  11.110
63125W        W29534   3.762  11.329  13.877
63126W        W29535  25.274  36.428   1.948
63127W        W29536  16.352   4.309   2.141
63128W        W29537  34.925  31.465   0.454
63129W        W29538  10.725  18.609   1.403
63130W        W29539  42.014  29.952   4.133
63131W        W29540  27.577  20.111  10.535
63132W        W29541  27.553  25.048   1.182
63133W        W29542  36.665  33.834  11.919
63134W        W29543   5.812   3.486  14.478
63135W        W29544  16.521   9.883   2.270
63136W        W29545  11.564  32.881  12.578
63137W        W29546  14.710  10.852  13.415
63138W        W29547  38.236  26.621  13.780
63139W        W29548  23.081  26.731   2.167
63140W        W29549   6.669  19.848   2.964
63141W        W29550  13.838  33.208  10.559
63142W        W29551  13.191   4.365   4.514
63143W        W29552  14.932   1.748  14.849
63144W        W29553  32.104   6.970  11.445
63145W        W29554  15.098  13.443  11.070
63146W        W29555  21.818  19.590  12.564
63147W        W29556   3.030  23.522   0.192
63148W        W29557  10.963  33.960  11.572
63149W        W29558   2.477  14.039   0.505
63150W        W29559  24.519  37.509  10.772
63151W        W29560  17.638  41.257  14.862
63152W        W29561   5.935   1.842   4.607
63153W        W29562  35.541  33.339  14.472
63154W        W29563  35.556   5.884  12.879
63155W        W29564  38.559  25.198   1.975
63156W        W29565  16.665   3.257   1.822
63157W        W29566  28.180  20.168   4.938
63158W        W29567   1.970   3.759  11.606
63159W        W29568  34.760   6.171  14.406
63160W        W29569  37.050  39.300  14.480
63161W        W29570  44.410  15.606  13.910
63162W        W29571  42.715  42.865   2.812
63163W        W29572  42.874   2.252   3.385
63164W        W29573  29.082   8.719  14.491
63165W        W29574   6.856  37.544   1.502
63166W        W29575   0.803  10.357   2.294
63167W        W29576  25.612  31.276   2.420
63168W        W29577   9.670  25.015   3.580
63169W        W29578  23.658  12.850   3.677
63170W        W29579  14.585  43.443  11.977
63171W        W29580  20.021  31.813  12.120
63172W        W29581  37.905  21.083   3.348
63173W        W29582   9.961   7.516  11.437
63174W        W29583  15.261  29.778  12.477
63175W        W29584  20.437   7.912   0.864
63176W        W29585  17.075  37.840   3.862
63177W        W29586   4.701   9.628  11.941
63178W        W29587  10.843  32.561   0.842
63179W        W29588  31.554  27.520   4.297
63180W        W29589  36.907  37.073  13.516
63181W        W29590   2.883  38.770  10.680
63182W        W29591   0.444  32.027   4.193
63183W        W29592   8.401  29.692  10.658
63184W        W29593  14.327  39.833   1.234
63185W        W29594   5.266  31.439   0.391
63186W        W29595   9.748  25.532  14.201
63187W        W29596  42.415  38.420   3.829
63188W        W29597  17.735  42.543  11.146
63189W        W29598  16.658   8.720   5.002
63190W        W29599  35.088   1.415  12.711
63191W        W29600  23.996  10.382   0.683
63192W        W29601  43.223  25.138  11.735
63193W        W29602   6.900  44.463  10.390
63194W        W29603   9.060  30.563   5.335
63195W        W29604   6.210  41.063  14.951
63196W        W29605  29.744  13.823   3.687
63197W        W29606  26.086  27.213   0.913
63198W        W29607   5.420   5.352  14.339
63199W        W29608  31.634  41.330   1.970
63200W        W29609   7.150   3.382  14.320
63201W        W29610  30.185  22.283   3.141
63202W        W29611  42.929  33.811  12.312
63203W        W29612  41.831   1.882   4.433
63204W        W29613  17.381  13.199  11.642
63205W        W29614  29.431  39.591  10.706
63206W        W29615   3.167  35.102  13.590
63207W        W29616  35.359  17.545  13.584
63208W        W29617  40.329  11.852  10.261
63209W        W29618  19.135   8.950  14.427
63210W        W29619   4.823  27.573   3.615
63211W        W29620  28.573  35.914   0.252
63212W        W29621  39.022   0.455   2.508
63213W        W29622  11.716  17.825  14.454
63214W        W29623  36.398  20.376  12.891
63215W        W29624  30.683   5.697   4.203
63216W        W29625  44.907  15.983  12.033
63217W        W29626  40.757  27.383   0.927
63218W        W29627   4.311  25.570  11.235
63219W        W29628  40.590  35.755   1.307
63220W        W29629  44.790  39.401   1.274
63221W        W29630  11.568   1.054  13.439
63222W        W29631  10.085  34.731  14.883
63223W        W29632   4.842  22.756   1.829
63224W        W29633   0.783  14.754  12.137
63225W        W29634   4.124  37.393   3.047
63226W        W29635   6.288  42.334   1.200
63227W        W29636  33.082  30.149   2.699
63228W        W29637  22.214   8.879  13.470
63229W        W29638  34.149  24.282   4.713
63230W        W29639  19.045   3.942   1.898
63231W        W29640  43.921   1.064   3.655
63232W        W29641   2.304   4.163  13.371
63233W        W29642   8.448  34.039   1.413
63234W        W29643  18.140  31.945  12.198
63235W        W29644  42.877  38.431   1.939
63236W        W29645  39.485   8.904  11.347
63237W        W29646  18.810  12.768   4.518
63238W        W29647  11.751  40.402   2.360
63239W        W29648   9.759  28.629   0.025
63240W        W29649  27.921  44.393  12.521
63241W        W29650  18.487  31.622   1.228
63242W        W29651  39.379  17.731  13.330
63243W        W29652  35.687  22.156  10.780
63244W        W29653  14.551   8.791   0.533
63245W        W29654   8.180  36.525   4.890
63246W        W29655  20.467  37.063   4.141
63247W        W29656  10.585   3.445  13.802
63248W        W29657   1.789  39.756  12.024
63249W        W29658  25.454  39.884  10.735
63250W        W29659  33.962  30.652   4.065
63251W        W29660  18.586  43.702   2.187
63252W        W29661  11.716  37.886  10.435
63253W        W29662  24.124  17.636   2.957
63254W        W29663  37.379  23.286   1.425
63255W        W29664   5.312   1.941  12.359
63256W        W29665  10.586  36.098  14.958
63257W        W29666  27.430  19.578  14.071
63258W        W29667  32.174  36.435  13.467
63259W        W29668   6.343  38.497  13.309
63260W        W29669  12.826  36.427   2.567
63261W        W29670  42.298  24.110  12.552
63262W        W29671  17.370  16.122   4.087
63263W        W29672  11.889   8.374   0.952
63264W        W29673  16.535  18.238   2.257
63265W        W29674  11.700  26.221   0.708
63266W        W29675  11.688  36.543  10.109
63267W        W29676  40.949  18.643  10.238
63268W        W29677  29.867  41.932   0.411
63269W        W29678  32.399  26.610  12.059
63270W        W29679  42.306  40.654   4.130
63271W        W29680  43.508  41.930   1.804
63272W        W29681  38.677  18.463   2.156
63273W        W29682   8.161  24.505   2.308
63274W        W29683  13.973  27.015  10.650
63275W        W29684  32.814   0.869   2.433
63276W        W29685  10.139  38.304   3.262
63277W        W29686   5.275   3.736   3.250
63278W        W29687  35.850  33.628  11.699
63279W        W29688  21.812  43.161  12.985
63280W        W29689  27.430   4.883  13.487
63281W        W29690  24.995  34.331   0.999
63282W        W29691  18.676  41.514   4.217
63283W        W29692   3.950  14.192   3.166
63284W        W29693  12.676   5.895   0.967
63285W        W29694  39.325  10.642  13.901
63286W        W29695   6.217  11.944  10.235
63287W        W29696  17.800  12.233   3.779
63288W        W29697  22.984  34.834  11.146
63289W        W29698  11.641  30.538   0.890
63290W        W29699  27.539  36.898   2.732
63291W        W29700  24.120  30.586  11.601
63292W        W29701   7.420  35.628   3.883
63293W        W29702   9.778  31.318   9.967
63294W        W29703  11.829   9.896  10.621
63295W        W29704  27.083   5.344   1.378
63296W        W29705  22.650  23.630   0.300
63297W        W29706  14.167  13.140   2.382
63298W        W29707  37.263  39.386   0.452
63299W        W29708  42.016   7.660  12.004
63300W        W29709   3.329  13.949  14.375
63301W        W29710  33.134   0.365   3.314
63302W        W29711  32.429  14.813   4.525
63303W        W29712  36.324   4.599  11.140
63304W        W29713  19.612  25.927   3.839
63305W        W29714  43.268  35.346   1.548
63306W        W29715  27.013  20.561   1.880
63307W        W29716  18.126  22.070  13.856
63308W        W29717  10.176  20.589   2.849
63309W        W29718  37.060  11.623  11.132
63310W        W29719  19.289  14.387   2.254
63311W        W29720  37.102  28.185  13.826
63312W        W29721  25.144  33.430  12.921
63313W        W29722  43.390  11.278   4.094
63314W        W29723  31.667  15.517   3.395
63315W        W29724  41.315  28.945  14.276
63316W        W29725  36.239   9.215   2.183
63317W        W29726  35.984  29.855   4.479
63318W        W29727  41.109   5.822   0.251
63319W        W29728  13.768  10.347  11.547
63320W        W29729   4.278  36.503  13.833
63321W        W29730  11.668  16.978   1.308
63322W        W29731  42.031  30.575  10.556
63323W        W29732  20.772  25.740  13.786
63324W        W29733  44.821  35.043  11.188
63325W        W29734  30.877   2.900   3.627
63326W        W29735  44.974  10.362  14.766
63327W        W29736  35.066  17.862   4.679
63328W        W29737  17.820   3.453   3.310
63329W        W29738  18.373  41.965   0.887
63330W        W29739  41.476  40.383   1.239
63331W        W29740  31.384  33.990  12.059
63332W        W29741  26.969  20.741  12.371
63333W        W29742  23.538  26.580   2.372
63334W        W29743   9.711  32.326  12.564
63335W        W29744   7.438  19.262   3.817
63336W        W29745  41.461  35.877   2.136
63337W        W29746  27.388  11.037   3.756
63338W        W29747  25.941  40.024   0.377
63339W        W29748  14.053  11.538  13.894
63340W        W29749  34.896   2.519   1.813
63341W        W29750  29.650  33.540   2.244
63342W        W29751  29.418   6.323   0.573
63343W        W29752  21.512  39.110   4.506
63344W        W29753  32.431  14.989  12.498
63345W        W29754   5.082  15.458   2.334
63346W        W29755  33.928  31.168   1.085
63347W        W29756  21.024  34.113  11.148
63348W        W29757  17.692   4.615  14.030
63349W        W29758   7.908  25.975   0.842
63350W        W29759  37.931  22.612   4.592
63351W        W29760  28.644  11.207   0.863
63352W        W29761  20.085  24.505   2.340
63353W        W29762  40.106  34.207  13.869
63354W        W29763  22.475  27.928   4.068
63355W        W29764   6.665  43.725   0.511
63356W        W29765  28.449  15.102  12.519
63357W        W29766  11.914  13.781  13.431
63358W        W29767  21.579  24.507  11.577
63359W        W29768   5.628  33.491   1.954
63360W        W29769  24.229  11.823  13.948
63361W        W29770  15.270  12.860   1.304
63362W        W29771  29.847  44.444  12.357
63363W        W29772  41.169  23.175  12.894
63364W        W29773  26.549  10.854   4.154
63365W        W29774  17.673   9.066   3.945
63366W        W29775  16.989  32.320   1.061
63367W        W29776  12.226   2.447  11.219
63368W        W29777  15.636  42.371  10.896
63369W        W29778  15.633  28.565  10.723
63370W        W29779   5.265  33.832  12.999
63371W        W29780  12.836  38.389   4.049
63372W        W29781   6.161  32.944   1.650
63373W        W29782  40.575  39.675   4.374
63374W        W29783  37.496  24.541  12.803
63375W        W29784  43.738  24.112   4.829
63376W        W29785   9.648   7.643   2.520
63377W        W29786   6.928  15.692  14.171
63378W        W29787  22.947  11.229  14.350
63379W        W29788  35.277  31.086  12.523
63380W        W29789   2.481  25.862   3.280
63381W        W29790  12.405  27.149  12.471
63382W        W29791  14.643  39.252  13.386
63383W        W29792  27.827  36.582   1.002
63384W        W29793  40.032  39.779   3.666
63385W        W29794  15.121  35.807   1.321
63386W        W29795  11.252  26.974   0.882
63387W        W29796  13.153  38.749   2.237
63388W        W29797  20.167  39.473  11.486
63389W        W29798  24.706  36.625  10.596
63390W        W29799  38.937  40.447  12.409
63391W        W29800  38.582  38.260  14.108
63392W        W29801  14.231  17.238   4.128
63393W        W29802  12.261  41.029   1.926
63394W        W29803  14.201   4.830  14.916
63395W        W29804  13.700  21.763  14.282
63396W        W29805  28.245  23.731  12.981
63397W        W29806   1.879  41.775   0.793
63398W        W29807  38.545   8.552  14.622
63399W        W29808   7.153   2.156  13.891
63400W        W29809   7.886  18.849  10.814
63401W        W29810  37.368  38.935  11.914
63402W        W29811  33.525   2.504   3.631
63403W        W29812  22.208  12.704  10.099
63404W        W29813   3.458  34.712   0.444
63405W        W29814  10.799   5.139   1.313
63406W        W29815  42.063   7.469  13.395
63407W        W29816  24.009  28.527  12.014
63408W        W29817   5.385  13.674   1.873
63409W        W29818  24.130   6.629   3.233
63410W        W29819  32.191  21.671   4.107
63411W        W29820  26.520  28.974  12.423
63412W        W29821  44.994   4.793   4.377
63413W        W29822   2.297   1.554  14.255
63414W        W29823  32.653  17.785  12.414
63415W        W29824  23.970  11.182   1.289
63416W        W29825  37.037  26.641   2.267
63417W        W29826  33.810   7.633   0.142
63418W        W29827  17.366  16.610  12.723
63419W        W29828  44.354  32.451  13.150
63420W        W29829  15.924  40.053   1.270
63421W        W29830   3.689  21.285   3.502
63422W        W29831  34.179  32.729  12.269
63423W        W29832  11.780  17.218   2.859
63424W        W29833  27.042   2.267  14.974
63425W        W29834  33.526  43.778  14.953
63426W        W29835  27.766  20.479   2.241
63427W        W29836  27.649   0.930   4.340
63428W        W29837  18.036  25.016   0.711
63429W        W29838  24.466  42.729   1.762
63430W        W29839   2.062  42.913   1.836
63431W        W29840  14.006   1.740   1.884
63432W        W29841   0.360  27.011   2.807
63433W        W29842  36.940   9.187  13.890
63434W        W29843  30.199   4.961   0.548
63435W        W29844  35.872   5.460   0.902
63436W        W29845  38.633  28.717   0.080
63437W        W29846  17.153   6.760  12.378
63438W        W29847  13.210   5.832  14.825
63439W        W29848  35.019  18.262   3.307
63440W        W29849  23.930  30.106   3.699
63441W        W29850  39.997   6.329   0.706
63442W        W29851   7.389  12.282   1.216
63443W        W29852  11.917  42.341   1.276
63444W        W29853  37.503  42.016  12.446
63445W        W29854   2.908  34.398   2.760
63446W        W29855  21.456   2.182  13.008
63447W        W29856  43.803  37.312  13.687
63448W        W29857  44.254  40.339   3.264
63449W        W29858   4.258  28.689   2.290
63450W        W29859   6.264   0.862   2.858
63451W        W29860  34.708  11.328   3.226
63452W        W29861  29.935  35.381   4.601
63453W        W29862  10.197  21.279  12.737
63454W        W29863  32.184   0.367  11.131
63455W        W29864   3.046  18.169  14.893
63456W        W29865   1.782   7.966   2.172
63457W        W29866  17.737   5.742  11.152
63458W        W29867  37.017  19.604   1.348
63459W        W29868  30.461  21.514  14.248
63460W        W29869  34.938   9.790   3.130
63461W        W29870  30.183  29.989   3.450
63462W        W29871  43.460   3.103  11.637
63463W        W29872  29.293   8.298   0.937
63464W        W29873   7.965   0.807  14.648
63465W        W29874  41.182  37.295   1.747
63466W        W29875   3.224  33.863   3.348
63467W        W29876  27.943  19.706   1.174
63468W        W29877  22.456  28.080   3.199
63469W        W29878  43.026  28.961   0.848
63470W        W29879  29.558  37.984   0.747
63471W        W29880   3.929  21.001   5.095
63472W        W29881  16.643  15.203   3.084
63473W        W29882  17.637  17.254   0.799
63474W        W29883  16.145  10.637   3.053
63475W        W29884  35.208   6.103   0.762
63476W        W29885  22.912  32.007   4.939
63477W        W29886   2.432  18.260   4.516
63478W        W29887  11.221  10.663   2.852
63479W        W29888  12.370  12.721   3.187
63480W        W29889  30.445   0.352   1.513
63481W        W29890   8.098   7.728   0.031
63482W        W29891  37.103  12.585  14.534
63483W        W29892  28.564  26.175  11.591
63484W        W29893  20.014  20.075  10.077
63485W        W29894   0.379   8.823   2.761
63486W        W29895   0.267   7.885  12.579
63487W        W29896  28.961  22.749   3.847
63488W        W29897  23.527  42.092   2.317
63489W        W29898   8.743  27.617   0.452
63490W        W29899  26.940  12.604  14.849
63491W        W29900  25.805  19.410   9.723
63492W        W29901   8.156  24.787  12.979
63493W        W29902  36.399  23.309   1.446
63494W        W29903  40.897  40.215   0.864
63495W        W29904  20.577  29.996   4.084
63496W        W29905  31.766  26.084  10.861
63497W        W29906  38.814   9.261   0.820
63498W        W29907   1.559  41.418   0.148
63499W        W29908  22.605  40.762   4.492
63500W        W29909  31.862  38.000  13.019
63501W        W29910  29.962  23.367  11.959
63502W        W29911  31.651  39.854  14.865
63503W        W29912  20.242  40.828   3.172
63504W        W29913  23.021  12.979   0.470
63505W        W29914   3.261  41.693   2.414
63506W        W29915  13.622  22.216  10.285
63507W        W29916  21.190   6.913  10.628
63508W        W29917  22.529  29.214  14.380
63509W        W29918  29.436   4.434   9.850
63510W        W29919   4.019  10.634  11.620
63511W        W29920  41.932  11.356   0.008
63512W        W29921  42.502  21.771  11.950
63513W        W29922  13.163  41.669  11.617
63514W        W29923  41.280  12.581  10.723
63515W        W29924  13.925  34.056  12.980
63516W        W29925   6.764  12.308  11.243
63517W        W29926  39.209   9.521  11.404
63518W        W29927   2.397  23.968  12.556
63519W        W29928  30.583  32.489  13.159
63520W        W29929   6.382  40.420  14.781
63521W        W29930  44.796   9.989  13.024
63522W        W29931   4.069   9.846   4.076
63523W        W29932  27.541   3.447   4.302
63524W        W29933  25.209   6.944   0.333
63525W        W29934  29.730  14.854   1.318
63526W        W29935  32.966   4.866   3.840
63527W        W29936  41.496  18.250  10.842
63528W        W29937  31.142  27.229  11.480
63529W        W29938  19.159  30.639   0.772
63530W        W29939  28.144  24.002   5.079
63531W        W29940  41.739  28.665  12.121
63532W        W29941  15.611  30.545   0.212
63533W        W29942   0.365  10.959   2.770
63534W        W29943  44.869   7.610  11.620
63535W        W29944   9.744  18.054  11.904
63536W        W29945  17.564   9.585   3.870
63537W        W29946  38.031  30.494   3.655
63538W        W29947  44.545  41.295  13.891
63539W        W29948  15.052  13.139  10.656
63540W        W29949   8.873   0.684   0.888
63541W        W29950  10.311  28.028   2.151
63542W        W29951   2.320  41.836   1.930
63543W        W29952  22.637  16.404   0.414
63544W        W29953   7.684  21.040   3.625
63545W        W29954  23.638  38.145   1.723
63546W        W29955   2.204  38.124  10.805
63547W        W29956   4.925  14.311  10.948
63548W        W29957  10.588   3.238   0.890
63549W        W29958   5.300  37.186  13.337
63550W        W29959  11.614  18.513  13.737
63551W        W29960  35.172  18.996   5.151
63552W        W29961  24.805  40.604   0.880
63553W        W29962  34.568   8.095  13.068
63554W        W29963  22.293  38.444  14.951
63555W        W29964  23.696  40.603  14.751
63556W        W29965  17.202   1.509  13.023
63557W        W29966  10.473  27.677  14.443
63558W        W29967  15.576   5.317   0.880
63559W        W29968  24.425  43.501   1.390
63560W        W29969  15.263  26.379  14.563
63561W        W29970   1.215  27.321   2.975
63562W        W29971  13.852  35.427  12.522
63563W        W29972  16.251  41.373   0.201
63564W        W29973  21.800   1.180  10.748
63565W        W29974  24.626   8.889  12.066
63566W        W29975  39.044  29.504   2.711
63567W        W29976   7.928   6.019   3.203
63568W        W29977  44.624   9.458  13.064
63569W        W29978  24.750   1.524   2.507
63570W        W29979  29.809  23.545   2.312
63571W        W29980  13.405  44.785   3.139
63572W        W29981  30.292  14.207  10.566
63573W        W29982   1.710  20.597   3.272
63574W        W29983  21.316  14.371   1.259
63575W        W29984  43.732  33.039   1.246
63576W        W29985  33.431  28.414  12.489
63577W        W29986  25.073  42.495   2.406
63578W        W29987   7.652  33.571  12.426
63579W        W29988  23.058   0.990   1.348
63580W        W29989  41.422  32.009  11.640
63581W        W29990  18.088  30.642  12.591
63582W        W29991   4.141  42.500   1.252
63583W        W29992   9.206   9.136  13.761
63584W        W29993  42.300  17.843   1.878
63585W        W29994  42.850  32.060   4.649
63586W        W29995  26.672  36.492  13.284
63587W        W29996   3.778  33.916   1.880
63588W        W29997  37.215   5.863  14.832
63589W        W29998  20.522  11.447  10.818
63590W        W29999  36.368  24.637   4.346
63591W        W30000  24.958  21.098  14.859
63592W        W30001  44.931  42.617   3.578
63593W        W30002   5.716  19.595  10.804
63594W        W30003  29.620  40.839   1.888
63595W        W30004  16.500  42.385  14.509
63596W        W30005  30.691   0.841   4.085
63597W        W30006  22.500  41.339  14.991
63598W        W30007  28.203  37.863  10.698
63599W        W30008  31.381  44.281   4.489
63600W        W30009  12.553   8.497  10.582
63601W        W30010   4.308  37.887   0.499
63602W        W30011  36.146  42.853   1.584
63603W        W30012   5.702  25.113  14.858
63604W        W30013  36.076   5.974  10.514
63605W        W30014  13.103  44.824  12.900
63606W        W30015  24.238  37.087  14.103
63607W        W30016  28.546   4.241  10.629
63608W        W30017  39.521  19.016  12.841
63609W        W30018  38.002  15.224   4.913
63610W        W30019  12.566  25.686  12.363
63611W        W30020  37.738  38.484   0.735
63612W        W30021   7.309  14.248   3.086
63613W        W30022  30.468  17.920   1.935
63614W        W30023  43.263  30.922   0.276
63615W        W30024  41.332   8.048  12.936
63616W        W30025  21.269   3.987   1.305
63617W        W30026   6.952  34.344   0.784
63618W        W30027  13.854   8.237   2.186
63619W        W30028  27.212  40.925   0.168
63620W        W30029  18.517  42.806   0.349
63621W        W30030  44.986  22.733   2.136
63622W        W30031  32.355  37.640  11.513
63623W        W30032  23.996  11.251   2.835
63624W        W30033   4.661   9.403  14.466
63625W        W30034  44.242   5.255   1.870
63626W        W30035  14.676  44.788  14.483
63627W        W30036  36.576  19.302   1.785
63628W        W30037   5.820  28.921   0.251
63629W        W30038  43.267  24.708   2.837
63630W        W30039  29.448  38.910   0.648
63631W        W30040   3.721   1.012   3.265
63632W        W30041   7.211  43.226  14.142
63633W        W30042  40.038  19.153   4.486
63634W        W30043  27.073   6.228  12.054
63635W        W30044  29.836  15.176  13.326
63636W        W30045  32.470  38.635   3.164
63637W        W30046  21.539  28.621  10.995
63638W        W30047   3.401  18.973   1.816
63639W        W30048   5.191  26.895  14.266
63640W        W30049  38.641  17.957  14.937
63641W        W30050  28.424  19.709  13.006
63642W        W30051  29.357   2.650  12.483
63643W        W30052  14.203  18.450  14.855
63644W        W30053  21.223  41.734  12.064
63645W        W30054  35.505  10.767  13.141
63646W        W30055  35.776  28.551  12.433
63647W        W30056  41.315  43.371   3.244
63648W        W30057   7.729  32.547  12.789
63649W        W30058  15.424   2.802  11.486
63650W        W30059  32.582   2.276  11.173
63651W        W30060  42.890  10.749   1.807
63652W        W30061  40.042  25.326   5.064
63653W        W30062   3.984  30.189   3.263
63654W        W30063  43.917   4.634  12.901
63655W        W30064  17.220  14.623   0.300
63656W        W30065  43.332   6.191  13.056
63657W        W30066  26.092  21.141  12.592
63658W        W30067  19.486  22.988  14.402
63659W        W30068  43.590  26.479   4.969
63660W        W30069  14.016   0.017   4.973
63661W        W30070   8.181  35.500   1.283
63662W        W30071  37.959  30.608   4.626
63663W        W30072   1.318   1.455   2.004
63664W        W30073  18.760  29.054  12.139
63665W        W30074  20.812  24.704   4.665
63666W        W30075  22.139   0.519  11.536
63667W        W30076  18.508  21.462  13.484
63668W        W30077  40.313  35.131   3.603
63669W        W30078  18.620   9.318   4.238
63670W        W30079   7.222  36.444  13.403
63671W        W30080  22.967  30.492   0.355
63672W        W30081  26.528  17.636   0.313
63673W        W30082  18.618  25.344   3.891
63674W        W30083   3.267   0.921  12.572
63675W        W30084  43.779  30.079  12.579
63676W        W30085  19.044   5.926   4.241
63677W        W30086  33.209  42.747   5.060
63678W        W30087  16.114  21.118  14.106
63679W        W30088  28.576  41.375  12.995
63680W        W30089  19.987   6.807  12.308
63681W        W30090  24.202   1.415   2.750
63682W        W30091  14.130  26.544  10.402
63683W        W30092   3.285  32.591  12.602
63684W        W30093  29.431  26.443  13.401
63685W        W30094   3.799  30.629   3.038
63686W        W30095   2.827  24.983  12.020
63687W        W30096  31.361  41.481   3.813
63688W        W30097  14.833  35.373  10.747
63689W        W30098  42.298  28.468  10.699
63690W        W30099  14.266  31.554   3.144
63691W        W30100   5.977  10.832   4.519
63692W        W30101  30.364  35.930  11.730
63693W        W30102   2.493  28.721   3.255
63694W        W30103  10.159  23.694  14.651
63695W        W30104   4.817  30.934   1.853
63696W        W30105   5.221  39.003   1.732
63697W        W30106   7.642  32.383  10.880
63698W        W30107  31.646  40.778  12.091
63699W        W30108  42.713  38.937   4.528
63700W        W30109  13.699   7.134  14.057
63701W        W30110   9.844   4.290   2.554
63702W        W30111   2.954  19.501  11.146
63703W        W30112  23.317  44.621   4.243
63704W        W30113  35.567  33.101  14.974
63705W        W30114  12.290   8.902   0.241
63706W        W30115  26.621  35.765  10.509
63707W        W30116  34.477  36.875   0.274
63708W        W30117  22.173  35.144  14.085
63709W        W30118  24.698  41.987   4.015
63710W        W30119  23.852   5.472  14.096
63711W        W30120  22.243  18.788  14.781
63712W        W30121   5.465  41.124  14.511
63713W        W30122  10.519   1.756   1.327
63714W        W30123  15.973  17.673   4.811
63715W        W30124  40.968  25.036  12.419
63716W        W30125   8.965  19.647   0.840
63717W        W30126  30.418   7.151   2.860
63718W        W30127   1.355  43.096  13.689
63719W        W30128  27.240   0.937   3.701
63720W        W30129  10.871  16.159   0.599
63721W        W30130   6.968  36.629   1.865
63722W        W30131   8.804  29.830   0.064
63723W        W30132  33.482   7.437   3.696
63724W        W30133  37.977  20.990   2.371
63725W        W30134  17.636  12.222   1.380
63726W        W30135  36.620   7.810   3.161
63727W        W30136   4.277  32.812  11.015
63728W        W30137   9.704  42.855  10.513
63729W        W30138  22.035   1.962   4.872
63730W        W30139  18.110  33.334  14.442
63731W        W30140  17.983   5.859  13.465
63732W        W30141  21.406   4.407   2.449
63733W        W30142  33.811   0.358   4.581
63734W        W30143  24.931   8.322   4.073
63735W        W30144   4.249   0.330  14.799
63736W        W30145  42.760  21.665  14.804
63737W        W30146  32.117  36.497  12.452
63738W        W30147  28.628  15.329   0.968
63739W        W30148  33.924  39.250   2.814
63740W        W30149   6.302  10.338   2.746
63741W        W30150  36.312  31.999  14.518
63742W        W30151   3.755  18.312  12.558
63743W        W30152  28.992  22.923   0.355
63744W        W30153  10.164  11.356  14.270
63745W        W30154  26.510  15.172   1.850
63746W        W30155  15.075  33.780   3.648
63747W        W30156  26.650  16.685  14.229
63748W        W30157   7.183  23.792   1.898
63749W        W30158  38.459  38.508  10.390
63750W        W30159  24.505  32.495   4.057
63751W        W30160   2.975  27.395  12.556
63752W        W30161  42.494  13.402   4.230
63753W        W30162  15.586  31.992   4.072
63754W        W30163  34.324   8.446   4.188
63755W        W30164  20.789  13.669   0.290
63756W        W30165  42.693  39.347  11.859
63757W        W30166   9.317  24.825   1.883
63758W        W30167  11.424   2.514  10.769
63759W        W30168  13.411  16.856  10.837
63760W        W30169  16.282  43.942   2.866
63761W        W30170   3.941  32.023  10.672
63762W        W30171  36.601  21.740   4.167
63763W        W30172  19.010  16.764  11.465
63764W        W30173  42.722  21.607   1.760
63765W        W30174  26.118  42.880  12.501
63766W        W30175   3.746  38.106   2.395
63767W        W30176  34.300  32.155  11.003
63768W        W30177  17.330   0.317  11.854
63769W        W30178  42.447   3.979  14.477
63770W        W30179  24.498  29.988  11.486
63771W        W30180  41.318  21.131   0.880
63772W        W30181  32.179  33.279   1.628
63773W        W30182   4.292  39.862   0.383
63774W        W30183  11.652  43.344   1.373
63775W        W30184  23.889  21.203   1.708
63776W        W30185  22.514  38.952   3.930
63777W        W30186  10.273  34.449  14.242
63778W        W30187  34.903  42.779  12.447
63779W        W30188  19.778  43.560  10.920
63780W        W30189   8.282  21.293  13.331
63781W        W30190  41.043  21.497  11.162
63782W        W30191   0.432  39.388   0.339
63783W        W30192  37.526  44.577   4.089
63784W        W30193   8.086   5.337  11.966
63785W        W30194  36.398   6.279  14.134
63786W        W30195  17.161  35.556  14.401
63787W        W30196  26.288  37.443   3.688
63788W        W30197  37.895  17.524  13.949
63789W        W30198  24.106  33.504   3.621
63790W        W30199  22.293   9.277  14.927
63791W        W30200  16.241  24.145   0.492
63792W        W30201  28.541  27.501  14.418
63793W        W30202  22.369   6.287  14.645
63794W        W30203  29.997  10.875   1.272
63795W        W30204   8.354  10.966  10.231
63796W        W30205  22.079  38.592   3.830
63797W        W30206  39.746  34.445  10.703
63798W        W30207  44.397  19.150   2.912
63799W        W30208  23.694  21.170   2.672
63800W        W30209   7.243  35.171   2.034
63801W        W30210   0.845  20.260  12.490
63802W        W30211   2.563  24.645  10.001
63803W        W30212  22.477   7.168   3.590
63804W        W30213  33.455  35.863  10.516
63805W        W30214  24.098  17.876  13.825
63806W        W30215  18.027   8.357  10.991
63807W        W30216  17.562  36.317  14.942
63808W        W30217   4.380  15.172  10.726
63809W        W30218  14.339   1.319   1.787
63810W        W30219  26.182  14.794  13.508
63811W        W30220   1.691  13.562  14.948
63812W        W30221   9.844  26.072   1.197
63813W        W30222  24.611  17.929   0.265
63814W        W30223  12.399   7.935  12.590
63815W        W30224  38.322  13.202  12.411
63816W        W30225  42.361   3.991  10.730
63817W        W30226  43.406   7.129   3.138
63818W        W30227  11.208  13.360  11.884
63819W        W30228  23.168  26.875  14.350
63820W        W30229  16.696  33.917  10.711
63821W        W30230  18.410  29.395  13.416
63822W        W30231  20.081   6.876  13.332
63823W        W30232   5.338  30.223   1.409
63824W        W30233  35.411   7.640  11.057
63825W        W30234  27.018  43.756   1.799
63826W        W30235  12.372  33.526  11.605
63827W        W30236  25.491  14.161   4.073
63828W        W30237  25.652   9.040   3.144
63829W        W30238  27.869  37.872  14.426
63830W        W30239  29.452  32.044   3.052
63831W        W30240  29.599  16.458   3.359
63832W        W30241  39.329   6.758   3.862
63833W        W30242  11.147  10.433   4.284
63834W        W30243  24.782  30.924  11.882
63835W        W30244  32.697   5.317   2.120
63836W        W30245  25.765  37.490   2.675
63837W        W30246  43.313  37.017   3.610
63838W        W30247  26.284   8.093   3.717
63839W        W30248  29.929  26.300   2.284
63840W        W30249  42.892  14.213   0.781
63841W        W30250  34.595  40.793  14.467
63842W        W30251  20.506   7.259  11.642
63843W        W30252  40.887  28.429  11.144
63844W        W30253  29.497  44.051  13.470
63845W        W30254  42.324  31.635   3.654
63846W        W30255  28.913  19.143  12.290
63847W        W30256  14.750  21.898  12.831
63848W        W30257  10.851  35.192   4.601
63849W        W30258  40.976   4.049  10.534
63850W        W30259  30.432  38.736  11.162
63851W        W30260  22.429  30.329  11.220
63852W        W30261  26.699  37.485  11.112
63853W        W30262  42.365  19.180  13.525
63854W        W30263  24.666   7.403  11.432
63855W        W30264  30.553  40.882  11.153
63856W        W30265   3.452  37.949   1.951
63857W        W30266  36.921  34.103   3.586
63858W        W30267   8.396   7.304   3.707
63859W        W30268   8.489  25.680   3.279
63860W        W30269   7.376   0.478   3.419
63861W        W30270  25.022  18.228   2.780
63862W        W30271  33.549   0.346   3.756
63863W        W30272  13.845  10.088   4.870
63864W        W30273  31.393   8.177  13.249
63865W        W30274   5.612  21.020  12.980
63866W        W30275  14.231  33.293  11.481
63867W        W30276  34.159  33.069   1.415
63868W        W30277  33.960  19.885  12.328
63869W        W30278  17.518  16.476   1.308
63870W        W30279   3.900  11.206  11.380
63871W        W30280  22.498  25.736   4.629
63872W        W30281  11.943  26.928  12.376
63873W        W30282  27.922  29.143  11.847
63874W        W30283  43.758  41.669   1.284
63875W        W30284  19.357  10.789   2.446
63876W        W30285  26.727  18.225  13.150
63877W        W30286   8.833   0.079  10.308
63878W        W30287  29.824  40.512   0.310
63879W        W30288  24.496  25.963   9.811
63880W        W30289   7.955  43.425  13.498
63881W        W30290   6.138  16.880   1.233
63882W        W30291  32.085  28.723   0.759
63883W        W30292   9.314   0.501  14.914
63884W        W30293   0.382  19.705   4.612
63885W        W30294   9.545  39.466  12.309
63886W        W30295  21.357  20.378   1.655
63887W        W30296   0.537   0.697  14.678
63888W        W30297  25.603  16.882   1.498
63889W        W30298  17.200   1.453  10.935
63890W        W30299  24.552   4.752  14.697
63891W        W30300  26.973  23.246   3.566
63892W        W30301   5.077  34.818  13.871
63893W        W30302  15.649  21.549  12.633
63894W        W30303   7.339  29.411  11.828
63895W        W30304   0.217  40.939   2.641
63896W        W30305  25.537   1.273   0.982
63897W        W30306   2.691   7.730  14.127
63898W        W30307  38.863  34.581  12.143
63899W        W30308  35.130  20.071  13.367
63900W        W30309  43.945  12.365   0.799
63901W        W30310  22.281   1.796  10.969
63902W        W30311  17.296  10.042   3.872
63903W        W30312  41.319   6.384   0.885
63904W        W30313  10.661   1.143   3.473
63905W        W30314  28.700  32.387   3.329
63906W        W30315  23.423  33.173  14.693
63907W        W30316  41.342   3.043   2.207
63908W        W30317  10.746  30.257  10.223
63909W        W30318  32.363  18.692   2.872
63910W        W30319   0.780  17.592   2.191
63911W        W30320  15.059  36.235   3.249
63912W        W30321  36.717  18.113   0.970
63913W        W30322   0.554   9.753   9.845
63914W        W30323  38.675  31.860   5.070
63915W        W30324   3.821  21.744   3.275
63916W        W30325  22.538  31.930  12.842
63917W        W30326  34.103  28.483  13.075
63918W        W30327  40.587  35.251   1.229
63919W        W30328  27.077  33.379   1.896
63920W        W30329  32.927  30.098  12.032
63921W        W30330  22.469   1.797  13.009
63922W        W30331  18.573  35.957   4.570
63923W        W30332  39.765   7.271   1.190
63924W        W30333  36.463  39.612   3.799
63925W        W30334  33.780  14.999  14.741
63926W        W30335   4.809  44.258   3.710
63927W        W30336  13.761  14.751   3.602
63928W        W30337  44.934  40.824  14.811
63929W        W30338  23.873   8.830   4.114
63930W        W30339   2.091  33.909   1.944
63931W        W30340  44.145  30.882   3.777
63932W        W30341  40.060  15.673   0.184
63933W        W30342  24.666   5.785  13.821
63934W        W30343   3.840  23.664  10.252
63935W        W30344  40.478   1.891  13.827
63936W        W30345  27.268   5.679   0.534
63937W        W30346   5.617  34.575   3.265
63938W        W30347  29.624  11.897   0.307
63939W        W30348  32.145  13.045  13.628
63940W        W30349  23.045  34.447  14.538
63941W        W30350  26.321  16.143  11.298
63942W        W30351  15.078  12.278  12.069
63943W        W30352  22.211  13.347   2.776
63944W        W30353  37.526   7.191   4.527
63945W        W30354   3.918   2.064   4.138
63946W        W30355   6.388  22.238   0.312
63947W        W30356  31.157   3.464   2.762
63948W        W30357   6.521  23.999  11.565
63949W        W30358  37.941  44.551   4.617
63950W        W30359   2.845  41.845   0.380
63951W        W30360  30.540  31.753  12.381
63952W        W30361   9.929  26.087   2.073
63953W        W30362  38.342  40.873  10.717
63954W        W30363  16.205  17.539  13.596
63955W        W30364   1.875  44.525   0.027
63956W        W30365  10.647  21.022  14.391
63957W        W30366  14.758  17.345  12.629
63958W        W30367  13.359  23.490   2.314
63959W        W30368  28.003  39.038   0.041
63960W        W30369   5.920  34.694   2.432
63961W        W30370  44.217  37.319   4.521
63962W        W30371  35.832  36.495   0.675
63963W        W30372   3.391  42.524  12.969
63964W        W30373  17.142  36.263   1.838
63965W        W30374   8.141  34.406   2.707
63966W        W30375  11.265  17.199   2.952
63967W        W30376  11.182  26.425   3.294
63968W        W30377  34.513  43.603   2.097
63969W        W30378  29.509  27.753   1.310
63970W        W30379  38.891  35.877   4.524
63971W        W30380  31.139  23.964  10.690
63972W        W30381   7.351  40.885   3.734
63973W        W30382  24.882   6.018  11.086
63974W        W30383   6.843  33.149  13.857
63975W        W30384   1.898  41.196   0.896
63976W        W30385  22.147  33.658   1.832
63977W        W30386  44.566  15.311  11.111
63978W        W30387  32.324  43.393  13.383
63979W        W30388  34.005  29.768  13.918
63980W        W30389  33.379  40.791  14.770
63981W        W30390  34.879  24.572  12.163
63982W        W30391   0.375  34.628  11.857
63983W        W30392   3.911   5.470  13.494
63984W        W30393  25.946  11.764  12.981
63985W        W30394   6.141  41.033  10.643
63986W        W30395  18.707  43.442  14.214
63987W        W30396  37.316  24.872   4.729
63988W        W30397  38.484  40.884  13.328
63989W        W30398  19.208  31.579  14.842
63990W        W30399  15.345  39.008   3.682
63991W        W30400  43.716  12.953  12.520
63992W        W30401  24.149  34.987  14.757
63993W        W30402  30.643   9.229  13.887
63994W        W30403  44.958  19.511   1.742
63995W        W30404  28.968  23.421  11.171
63996W        W30405  34.245  24.019   3.210
63997W        W30406  12.758  11.603   0.351
63998W        W30407   6.912  17.076  12.553
63999W        W30408  21.767  44.410   3.737
64000W        W30409  26.145  37.785   1.415
64001W        W30410  35.487  12.198  10.432
64002W        W30411  21.242  26.915  11.620
64003W        W30412  21.231  44.220   2.703
64004W        W30413  10.330   8.276   0.021
64005W        W30414  39.843  35.805  12.051
64006W        W30415  19.348  27.493   2.240
64007W        W30416  11.856  39.276  13.963
64008W        W30417   9.783   4.320   4.648
64009W        W30418   8.313  37.598   0.314
64010W        W30419  24.661   9.598   4.982
64011W        W30420   0.883  21.532   0.065
64012W        W30421   0.662  31.373   0.137
64013W        W30422  11.137  38.992  14.408
64014W        W30423  22.215  40.034  14.750
64015W        W30424  10.362  33.715   3.584
64016W        W30425   9.866   5.653   3.702
64017W        W30426  23.670   4.504  13.957
64018W        W30427  28.233  41.064   0.711
64019W        W30428  42.385  10.455   2.230
64020W        W30429   8.369   8.931   1.921
64021W        W30430  20.307  21.370  11.170
64022W        W30431   2.369  24.239   0.233
64023W        W30432  34.872  27.119   1.240
64024W        W30433  14.091  37.063  14.893
64025W        W30434  40.984  44.299  12.082
64026W        W30435  34.963  14.519   0.258
64027W        W30436  17.098  26.228  14.837
64028W        W30437  19.715   6.168   0.300
64029W        W30438  37.389   2.898   2.372
64030W        W30439  20.074  27.930  12.543
64031W        W30440  31.823   3.251   3.408
64032W        W30441  11.918  32.023   3.097
64033W        W30442  26.032  24.243  11.488
64034W        W30443   6.853  29.404  11.937
64035W        W30444  36.559  31.117   1.785
64036W        W30445  11.401  21.488   0.267
64037W        W30446   5.412  19.799  14.425
64038W        W30447  16.157  28.769   0.730
64039W        W30448  34.460  11.519   2.307
64040W        W30449  41.382  12.225   4.583
64041W        W30450  38.546  16.695   0.057
64042W        W30451  18.638  20.344  10.420
64043W        W30452  39.207  10.846  11.205
64044W        W30453  38.520  44.932  13.807
64045W        W30454  12.420  10.325   2.618
64046W        W30455  40.566  31.092   2.670
64047W        W30456  11.743  32.187  13.037
64048W        W30457  27.912  28.544  10.630
64049W        W30458  39.637  20.961   2.786
64050W        W30459  34.611  20.310  14.460
64051W        W30460   2.251  21.239   5.060
64052W        W30461  28.853   8.916   0.385
64053W        W30462  12.043  28.561  12.521
64054W        W30463   8.734   0.490  13.436
64055W        W30464   2.513  22.763   4.092
64056W        W30465  33.753   0.745  13.710
64057W        W30466  42.242  16.182   2.402
64058W        W30467   6.850  39.009   2.045
64059W        W30468  22.227  11.823   0.524
64060W        W30469  32.701  41.047  11.206
64061W        W30470  30.946  41.839  13.365
64062W        W30471  41.413  18.766   1.864
64063W        W30472   9.778  23.653   4.123
64064W        W30473  11.017  44.213  12.688
64065W        W30474   4.864  44.278   1.299
64066W        W30475  20.469  23.429   3.538
64067W        W30476  41.171   0.205  13.567
64068W        W30477  19.065  30.130   2.954
64069W        W30478  43.559   6.601   0.818
64070W        W30479  25.140  13.138   3.722
64071W        W30480   3.575  26.386   2.163
64072W        W30481   6.402   9.855   1.715
64073W        W30482  14.273  17.066   0.308
64074W        W30483  10.892   2.337  12.932
64075W        W30484  25.041  22.728   0.823
64076W        W30485   8.298  28.900  10.960
64077W        W30486  10.897   6.923   2.761
64078W        W30487   6.317  22.273   3.577
64079W        W30488  17.318  24.943  14.308
64080W        W30489  16.277   4.462  14.460
64081W        W30490  33.436   6.870  13.239
64082W        W30491  26.642  36.251  10.701
64083W        W30492  30.000  15.565   3.705
64084W        W30493  15.047  27.050  11.594
64085W        W30494  36.244  38.397   4.630
64086W        W30495  26.927  15.665  13.059
64087W        W30496  39.871  17.230  12.428
64088W        W30497   2.937  36.982  10.520
64089W        W30498   2.349  12.896  12.884
64090W        W30499  26.446  14.967  13.066
64091W        W30500   4.251  10.262  14.025
64092W        W30501   3.784   3.300   3.277
64093W        W30502  14.397  20.723  13.048
64094W        W30503  14.649   7.157  13.513
64095W        W30504  44.277  37.750  10.672
64096W        W30505  30.052  26.952  14.927
64097W        W30506  29.030   5.434   2.101
64098W        W30507  17.754  37.763   4.535
64099W        W30508  17.501   7.782  10.567
64100W        W30509  34.331  40.400   3.182
64101W        W30510  11.015  42.701  11.152
64102W        W30511  42.457  35.291   4.164
64103W        W30512   0.371   7.151  12.297
64104W        W30513  15.786  11.372  12.512
64105W        W30514  25.534  39.417  10.977
64106W        W30515   8.488   1.972  11.622
64107W        W30516  20.279  37.563  13.886
64108W        W30517   9.852  28.016   4.371
64109W        W30518  11.412  25.301  11.654
64110W        W30519  33.333   3.558  10.814
64111W        W30520   0.740  38.569  12.302
64112W        W30521  30.901  28.668   0.663
64113W        W30522  17.067  19.543   0.660
64114W        W30523  31.864  44.858  10.457
64115W        W30524   6.758  19.039  13.949
64116W        W30525  18.204  15.059  12.946
64117W        W30526  23.307   4.924  12.929
64118W        W30527  23.543  11.037   2.829
64119W        W30528  19.507  44.848   3.322
64120W        W30529  42.719  25.590   0.002
64121W        W30530  23.011   4.769  13.317
64122W        W30531  42.012  11.414  12.653
64123W        W30532  16.120  15.729  14.470
64124W        W30533  16.507  31.852   3.249
64125W        W30534  14.227  26.118   3.235
64126W        W30535  44.551  26.577   4.750
64127W        W30536  31.864  27.229   0.295
64128W        W30537  35.943   8.128   4.142
64129W        W30538   2.201  22.610   1.949
64130W        W30539   6.724  25.601   2.119
64131W        W30540  12.341  19.608   3.697
64132W        W30541   6.246  36.878   2.150
64133W        W30542  18.312  31.434  14.351
64134W        W30543   3.243   1.301   1.509
64135W        W30544  12.697  39.808   1.786
64136W        W30545  38.074  41.608   2.672
64137W        W30546  30.068   5.035   2.236
64138W        W30547  19.763   3.801   4.134
64139W        W30548  11.323  27.979  10.675
64140W        W30549  40.114  14.860  13.383
64141W        W30550  26.710  23.302  11.208
64142W        W30551   1.169  14.221   0.841
64143W        W30552   7.340  41.350   1.143
64144W        W30553  27.855   8.633  13.241
64145W        W30554   8.104  26.602  13.872
64146W        W30555  17.236  33.181   4.741
64147W        W30556  40.995  16.591  13.002
64148W        W30557  32.878   6.297   4.169
64149W        W30558  24.713  20.742   1.872
64150W        W30559  16.659  11.155   1.437
64151W        W30560  36.721  26.770  10.385
64152W        W30561   7.190   4.334   4.398
64153W        W30562  20.444  14.260  14.083
64154W        W30563  43.962  22.109   0.947
64155W        W30564  36.531  32.272   4.278
64156W        W30565  40.039  37.878  13.517
64157W        W30566  42.327  18.241   3.667
64158W        W30567  14.881  16.765  11.922
64159W        W30568   6.809  29.520   4.604
64160W        W30569   7.087  32.962   4.680
64161W        W30570  35.259  39.533  11.256
64162W        W30571  23.637   2.807   2.834
64163W        W30572   5.261   7.889   0.789
64164W        W30573  27.569  40.253   2.713
64165W        W30574   8.074   3.323   0.764
64166W        W30575  12.936  22.661   4.688
64167W        W30576  36.380  23.906   3.660
64168W        W30577  39.169  13.267  12.955
64169W        W30578   2.118  30.622   1.181
64170W        W30579  32.322   2.882  14.819
64171W        W30580  18.136  18.536   2.758
64172W        W30581  12.282  11.367   1.231
64173W        W30582  15.185  21.806  11.201
64174W        W30583  43.201  37.720  12.863
64175W        W30584  39.237  41.450  13.461
64176W        W30585  17.778  39.251  14.034
64177W        W30586  22.483  27.172   1.797
64178W        W30587  14.747  40.300  11.659
64179W        W30588   5.554  32.085  11.326
64180W        W30589   1.047   9.495   2.361
64181W        W30590  38.670  33.465  14.323
64182W        W30591   4.214  31.529  12.410
64183W        W30592  17.382   9.536   2.210
64184W        W30593  25.380   6.913  11.120
64185W        W30594  16.596  41.627  12.114
64186W        W30595  17.768  27.532   1.355
64187W        W30596  33.237  17.496  14.009
64188W        W30597   1.055  44.282  12.101
64189W        W30598  30.121   4.947   2.753
64190W        W30599  26.218  23.084  14.795
64191W        W30600  15.523  43.715  10.663
64192W        W30601  32.156   3.767  12.914
64193W        W30602  41.863  32.941  11.485
64194W        W30603  23.233  26.745  12.884
64195W        W30604  32.429  15.434  13.563
64196W        W30605  11.106  39.571  12.423
64197W        W30606  39.665  25.131  13.425
64198W        W30607  30.374   2.194   3.646
64199W        W30608  14.933  43.306  14.614
64200W        W30609  12.372  28.402   0.939
64201W        W30610  15.516  40.227   3.333
64202W        W30611  23.072  16.600  10.630
64203W        W30612   8.435  29.892  13.043
64204W        W30613   7.203   5.534   0.445
64205W        W30614  30.151  33.457  12.014
64206W        W30615  31.124  33.944  10.865
64207W        W30616  32.512  11.222   4.051
64208W        W30617  42.052   3.297  10.522
64209W        W30618   6.724  34.650   0.399
64210W        W30619  31.922  19.335  11.905
64211W        W30620  36.002  41.498   4.313
64212W        W30621  11.855   6.638   4.575
64213W        W30622  25.246  13.136   0.685
64214W        W30623  41.694  44.825  10.700
64215W        W30624   5.071   1.853   0.713
64216W        W30625  36.522  39.118   1.637
64217W        W30626   0.404  17.507   2.612
64218W        W30627  12.792  41.603   4.014
64219W        W30628  12.898  42.198   1.015
64220W        W30629  29.059  29.932  13.772
64221W        W30630  20.541  16.592  12.914
64222W        W30631  20.312  15.260   2.324
64223W        W30632  19.207   7.824  12.500
64224W        W30633  25.162  13.210   1.704
64225W        W30634   4.821   6.169  10.465
64226W        W30635   0.007  29.455   1.869
64227W        W30636  35.398   1.884  13.056
64228W        W30637  28.877  37.037   4.519
64229W        W30638   0.822   5.273  13.405
64230W        W30639   6.683  37.843  13.957
64231W        W30640  40.888  32.030   1.212
64232W        W30641   1.264  15.202   2.784
64233W        W30642  28.063  27.563  10.861
64234W        W30643  43.598  40.096   1.675
64235W        W30644  22.797  14.862   1.918
64236W        W30645  37.487  25.366  11.758
64237W        W30646  32.360   1.910   4.142
64238W        W30647  37.866  36.963   4.017
64239W        W30648  43.452   7.216  13.303
64240W        W30649  12.764  17.487   2.776
64241W        W30650  26.020  38.816   4.414
64242W        W30651  26.078  35.517  12.370
64243W        W30652   6.601   5.799  13.988
64244W        W30653  40.364  42.082  11.141
64245W        W30654  22.702  11.062  13.835
64246W        W30655  37.002  22.773   0.513
64247W        W30656  29.954  35.981  14.780
64248W        W30657  34.153  33.405  13.046
64249W        W30658  20.305   6.682   3.260
64250W        W30659   4.886  43.750  10.427
64251W        W30660  21.116   6.259  13.611
64252W        W30661  10.242  15.365   4.670
64253W        W30662  17.992   7.154  11.963
64254W        W30663  43.863  23.304  13.162
64255W        W30664  32.676   3.885   0.951
64256W        W30665  12.048  33.731   3.142
64257W        W30666  29.061  18.128  10.608
64258W        W30667   4.321  39.387   0.941
64259W        W30668  15.757  40.990  10.364
64260W        W30669  33.157  17.527   0.086
64261W        W30670  34.151  27.479   0.740
64262W        W30671  16.316  16.295  11.143
64263W        W30672  30.853  31.164   2.184
64264W        W30673  21.697  14.668   0.578
64265W        W30674  17.136   7.892  11.447
64266W        W30675  44.799  39.594  14.424
64267W        W30676  35.472  42.979   0.789
64268W        W30677  18.141  17.122   1.397
64269W        W30678  20.751  24.082   0.977
64270W        W30679   6.454   9.651   4.526
64271W        W30680   1.186  22.510   0.270
64272W        W30681  32.435  28.199   4.226
64273W        W30682  43.846  26.549  11.035
64274W        W30683   8.879   0.064   1.918
64275W        W30684  15.887  37.285  14.961
64276W        W30685  35.868  10.677  13.488
64277W        W30686  35.916  16.558  13.904
64278W        W30687  25.064  43.960  14.852
64279W        W30688  34.732  26.133  11.039
64280W        W30689   9.951  31.469  11.097
64281W        W30690  37.592  36.926   1.899
64282W        W30691   7.781  35.417   3.565
64283W        W30692  42.441  33.624  12.875
64284W        W30693  36.574  44.795   4.548
64285W        W30694   6.221   7.251   9.903
64286W        W30695   6.106  42.507  13.497
64287W        W30696  36.751  29.556  10.792
64288W        W30697  19.742   1.386  13.433
64289W        W30698  14.751  30.533   4.256
64290W        W30699  42.312  34.473  12.552
64291W        W30700  15.751  39.619  13.560
64292W        W30701  19.094   5.359   1.966
64293W        W30702  28.409  17.629   3.247
64294W        W30703  14.577  29.061  13.314
64295W        W30704   3.498  42.481  14.014
64296W        W30705   2.420  11.071   0.365
64297W        W30706  19.191  17.019  10.772
64298W        W30707  42.223  25.053  11.492
64299W        W30708  13.592  34.062   1.760
64300W        W30709  19.974  16.715   2.736
64301W        W30710  17.145  37.149   0.830
64302W        W30711  39.880  37.363   0.004
64303W        W30712  24.573  40.419  13.368
64304W        W30713  39.065  41.141   4.567
64305W        W30714  32.585   2.801  12.532
64306W        W30715  24.844   4.760  11.475
64307W        W30716  25.756   9.766   2.708
64308W        W30717   5.877  42.004  12.559
64309W        W30718  22.455  42.293   0.350
64310W        W30719  37.846  22.168  14.059
64311W        W30720  33.917   4.211   4.059
64312W        W30721  16.826  42.635   2.481
64313W        W30722  18.157  18.017   1.207
64314W        W30723  37.098  33.462   4.604
64315W        W30724  31.633  39.548   1.283
64316W        W30725  37.869  42.386   4.066
64317W        W30726  39.005   7.331  14.759
64318W        W30727  16.078  30.874  11.204
64319W        W30728   9.278  39.122   2.737
64320W        W30729  35.486  43.260  13.895
64321W        W30730  15.627  18.360   0.486
64322W        W30731  13.189  36.872   3.778
64323W        W30732  17.837  28.537   0.959
64324W        W30733  19.597  12.379  14.862
64325W        W30734  44.703  37.863   1.275
64326W        W30735  15.207  38.062   0.865
64327W        W30736  12.450  18.205   0.203
64328W        W30737   7.839   1.974   1.914
64329W        W30738  38.820  25.987   2.144
64330W        W30739  31.497  34.887   3.185
64331W        W30740  26.493  19.754   3.647
64332W        W30741   8.844  36.086   3.186
64333W        W30742  21.918  23.594   3.682
64334W        W30743  33.968  28.247   1.198
64335W        W30744  16.141   9.423  13.048
64336W        W30745  37.599  19.052  12.023
64337W        W30746  14.422  22.670   5.017
64338W        W30747   1.449  14.617   3.898
64339W        W30748  39.169  14.062  12.525
64340W        W30749   0.316  18.962  12.682
64341W        W30750  35.046  30.195  11.546
64342W        W30751   6.353   9.498   1.299
64343W        W30752  10.778  15.621  13.806
64344W        W30753  34.930  32.393   3.332
64345W        W30754  40.959   1.799  14.888
64346W        W30755  19.531   0.319   0.498
64347W        W30756  25.464  24.641  14.528
64348W        W30757  15.049  43.486  10.645
64349W        W30758  43.848  12.695   0.240
64350W        W30759  39.367   8.177   4.184
64351W        W30760  31.375   6.215   4.314
64352W        W30761  21.285  41.225  12.046
64353W        W30762  42.339  21.818   4.965
64354W        W30763  39.349  18.934  12.359
64355W        W30764  14.975  18.518   4.088
64356W        W30765  14.125  26.391  13.226
64357W        W30766   7.327  15.036   2.499
64358W        W30767   6.701  12.186   4.968
64359W        W30768  38.835  13.155   2.265
64360W        W30769  16.166  11.269  14.363
64361W        W30770   0.524  14.683  11.454
64362W        W30771  12.836   2.413  14.380
64363W        W30772  25.440  15.963  12.132
64364W        W30773  42.559  38.979   3.031
64365W        W30774  14.625  42.795  13.326
64366W        W30775  37.348  11.413  10.715
64367W        W30776  12.005   8.569  14.360
64368W        W30777  34.052   0.674   1.872
64369W        W30778  34.996  31.609   3.665
64370W        W30779  25.513  40.847   2.697
64371W        W30780   9.428  20.214   0.034
64372W        W30781  27.320  22.947   2.284
64373W        W30782  36.030   5.307  11.716
64374W        W30783  31.027   8.744   3.740
64375W        W30784  28.349   3.817   1.862
64376W        W30785  24.042  22.124   2.719
64377W        W30786  36.929  38.319   0.298
64378W        W30787  35.076  43.388   0.879
64379W        W30788  28.426  44.845   0.488
64380W        W30789   3.370   1.549   4.850
64381W        W30790  19.837  31.853  14.276
64382W        W30791  27.715  21.956   2.165
64383W        W30792  18.491   8.252   2.856
64384W        W30793  25.656  21.189  12.070
64385W        W30794   4.823  41.971   3.247
64386W        W30795  41.565  33.141  11.082
64387W        W30796  44.443  44.920  11.322
64388W        W30797   5.317   6.945   4.595
64389W        W30798  26.597  19.270  14.006
64390W        W30799  39.792  17.326  14.251
64391W        W30800  40.838  34.116  13.544
64392W        W30801  23.525  20.693  11.077
64393W        W30802   5.172  25.140  12.096
64394W        W30803  16.332   6.843   1.244
64395W        W30804  24.737  29.432   3.789
64396W        W30805  39.777  10.842   0.760
64397W        W30806   5.204  12.801   2.776
64398W        W30807  11.929  36.913   4.405
64399W        W30808  19.693  28.382  10.122
64400W        W30809  29.640  15.485   1.807
64401W        W30810  30.438  17.883   3.680
64402W        W30811  28.303  16.115  13.490
64403W        W30812  16.223   8.222  13.709
64404W        W30813  34.593  16.562   4.181
64405W        W30814  44.593  17.281  12.944
64406W        W30815  33.419  18.969  14.271
64407W        W30816   4.875   4.708   0.534
64408W        W30817   9.897  17.595  14.537
64409W        W30818   1.056  29.416  11.526
64410W        W30819  44.311   0.502  13.034
64411W        W30820  25.715   9.648  12.855
64412W        W30821  20.173  13.134   2.421
64413W        W30822  34.862  20.723   4.824
64414W        W30823  44.426  25.705  10.330
64415W        W30824  44.975  21.251  11.098
64416W        W30825  18.263  40.502  10.676
64417W        W30826  18.045  12.065  14.430
64418W        W30827  17.309  26.470   0.682
64419W        W30828  34.631  30.419  14.371
64420W        W30829   4.358   2.790  12.054
64421W        W30830  22.223  35.432   1.381
64422W        W30831   8.481  14.284   5.004
64423W        W30832  21.349  36.856   2.360
64424W        W30833   2.767  19.324  12.012
64425W        W30834  16.493  29.587  10.911
64426W        W30835  24.947  29.998   1.760
64427W        W30836  23.091  38.326   0.345
64428W        W30837  29.023  14.145  11.118
64429W        W30838  37.113  18.552   2.370
64430W        W30839  29.674  44.095   5.105
64431W        W30840   9.708  28.343   0.494
64432W        W30841   9.996  18.629   4.110
64433W        W30842  17.426  23.651   2.390
64434W        W30843  24.976   1.857   4.100
64435W        W30844  21.574  24.956  10.406
64436W        W30845   4.561  44.293   2.145
64437W        W30846  33.414  44.962  14.306
64438W        W30847  32.356  19.731   2.800
64439W        W30848   4.030  39.810   2.839
64440W        W30849  21.217  33.656   3.171
64441W        W30850  26.611  23.581  11.648
64442W        W30851  27.868  21.991   2.708
64443W        W30852  15.114  27.839   3.791
64444W        W30853  23.948  10.053   9.861
64445W        W30854  17.777  16.035  11.153
64446W        W30855  44.428  27.070   2.422
64447W        W30856  18.329  14.701   2.378
64448W        W30857  36.986   5.684   4.242
64449W        W30858   1.189  24.713   1.464
64450W        W30859  24.909  11.679   3.586
64451W        W30860   4.004   1.043   0.326
64452W        W30861  33.802   3.535   2.380
64453W        W30862  29.657  43.805  12.017
64454W        W30863  17.908  34.720   1.932
64455W        W30864  35.845   1.912  14.204
64456W        W30865  28.219   2.847   4.757
64457W        W30866  35.625  21.205  12.922
64458W        W30867  16.608   5.194  14.032
64459W        W30868  12.146  30.177   4.890
64460W        W30869  11.291  19.662  10.943
64461W        W30870   3.498  15.608   1.547
64462W        W30871   7.381  19.099   4.775
64463W        W30872  44.283  15.265  11.542
64464W        W30873  41.940  29.417   4.291
64465W        W30874  25.579  34.590   1.748
64466W        W30875  42.220  41.132   0.470
64467W        W30876  38.628  29.121  10.465
64468W        W30877  11.660  33.465   3.341
64469W        W30878   8.712  39.941   1.248
64470W        W30879   4.118  24.125  12.879
64471W        W30880  38.239   4.579  14.473
64472W        W30881  20.001  37.755  11.990
64473W        W30882   5.239   3.552   1.274
64474W        W30883  29.246  35.877   2.205
64475W        W30884  34.065  43.390   1.948
64476W        W30885  10.800   4.473  11.002
64477W        W30886  25.664   6.467  11.083
64478W        W30887  43.426  25.898   3.168
64479W        W30888  18.171  30.385   0.271
64480W        W30889  19.322   4.893   4.677
64481W        W30890   7.721  25.121   0.736
64482W        W30891  25.900  19.112   3.342
64483W        W30892  13.821  12.135  14.831
64484W        W30893   2.625  38.892  11.120
64485W        W30894  14.019  27.015  11.557
64486W        W30895   8.177  16.222   0.909
64487W        W30896   8.664  23.620  14.969
64488W        W30897   4.916  43.395  12.940
64489W        W30898   5.006   7.366   1.964
64490W        W30899  21.064  14.747   2.180
64491W        W30900   8.926  37.950  11.987
64492W        W30901  11.559   5.420  13.764
64493W        W30902  30.451  34.161   4.627
64494W        W30903  43.271  41.367  12.020
64495W        W30904  23.077  42.476   1.222
64496W        W30905  36.889   7.921  12.063
64497W        W30906  21.302   1.585   1.494
64498W        W30907   0.046   8.203   1.900
64499W        W30908  19.472  25.415  12.561
64500W        W30909  44.996  24.068  12.114
64501W        W30910  15.092  39.565   4.616
64502W        W30911   6.800  32.361  12.698
64503W        W30912   7.239  14.363  12.580
64504W        W30913  23.544  12.090   0.389
64505W        W30914   6.768  31.106  11.418
64506W        W30915  30.138  29.552  11.917
64507W        W30916  36.445  13.691  14.287
64508W        W30917  27.621  15.311   3.784
64509W        W30918  42.262  32.756   3.300
64510W        W30919  27.141  21.471   0.882
64511W        W30920  33.868  34.469  12.600
64512W        W30921  18.946  12.732   5.018
64513W        W30922  26.184  11.788   2.824
64514W        W30923  34.611  35.488  11.650
64515W        W30924  15.327  24.746  12.138
64516W        W30925  35.160  10.291   1.604
64517W        W30926  28.962   2.377  13.919
64518W        W30927  21.989  14.367  11.439
64519W        W30928  29.034  30.934  11.587
64520W        W30929  24.538  39.044  13.104
64521W        W30930  41.976  27.688  13.038
64522W        W30931  44.298  27.396   0.531
64523W        W30932  24.469  39.097  11.764
64524W        W30933   2.228  15.765  14.313
64525W        W30934   2.333  43.529  14.730
64526W        W30935  22.198  17.725   0.537
64527W        W30936  24.284  29.454  11.154
64528W        W30937  14.531   6.802   1.684
64529W        W30938   4.840  17.242  14.956
64530W        W30939   6.553  28.384   1.911
64531W        W30940   8.737  29.478   4.544
64532W        W30941   4.200  14.501   3.567
64533W        W30942  11.741  37.959   4.733
64534W        W30943   8.682  31.852   4.915
64535W        W30944  23.488  37.609  13.724
64536W        W30945  12.818   0.482  13.347
64537W        W30946  15.808  15.213   1.921
64538W        W30947  43.199  41.787  14.467
64539W        W30948  27.820  26.793   2.706
64540W        W30949  16.654  17.787  11.279
64541W        W30950  33.695  43.007  13.493
64542W        W30951   4.768   6.436   2.382
64543W        W30952  19.174  12.724  10.771
64544W        W30953  34.173  11.763   4.151
64545W        W30954  21.015  10.761  14.411
64546W        W30955  34.892  33.259   1.765
64547W        W30956  22.543  35.076   3.122
64548W        W30957  23.538  17.318   0.182
64549W        W30958  36.356  36.423  12.889
64550W        W30959  35.157  14.287  13.365
64551W        W30960  15.977  25.996  12.545
64552W        W30961   3.819  34.047  11.408
64553W        W30962   8.549   9.175  12.363
64554W        W30963  25.209   5.313  13.682
64555W        W30964  34.399  43.612  11.968
64556W        W30965  43.283  43.203  11.112
64557W        W30966  27.453   3.812  12.041
64558W        W30967  12.800   0.359   1.912
64559W        W30968  37.587  34.145  12.099
64560W        W30969   0.405  32.802   4.762
64561W        W30970  10.251   7.313   0.744
64562W        W30971  23.683  31.754  14.952
64563W        W30972   0.791  29.164  12.030
64564W        W30973   7.935  12.693   0.863
64565W        W30974  41.998  31.992   4.205
64566W        W30975  41.745  11.433   1.986
64567W        W30976  37.925  28.030  14.777
64568W        W30977  33.603  12.856  11.620
64569W        W30978  26.468  44.885   0.743
64570W        W30979  23.024   4.707  11.689
64571W        W30980  37.990  13.569  11.545
64572W        W30981  39.903  16.485  11.832
64573W        W30982   8.459  33.388   0.136
64574W        W30983   3.945  25.503   1.207
64575W        W30984  33.995   4.228  11.663
64576W        W30985  19.056  18.048  10.682
64577W        W30986   9.163  42.248   3.652
64578W        W30987  31.293  37.315  14.089
64579W        W30988  14.250  35.777  12.469
64580W        W30989  29.958  21.587  12.445
64581W        W30990  41.049  23.560  14.973
64582W        W30991  42.309   1.426  13.880
64583W        W30992  17.317  16.777  12.008
64584W        W30993   2.711  30.208   2.776
64585W        W30994   0.473  15.186  13.713
64586W        W30995  21.612  32.002  10.395
64587W        W30996  42.619  33.823   1.970
64588W        W30997  28.287   2.448  11.815
64589W        W30998  12.705  41.901  11.637
64590W        W30999  34.240   4.414   2.511
64591W        W31000  30.122  44.978  11.210
64592W        W31001   7.860  31.620  13.786
64593W        W31002  24.399  39.137  14.907
64594W        W31003  33.454  12.788   3.809
64595W        W31004  13.856  30.091   3.084
64596W        W31005  20.573  15.498  11.188
64597W        W31006  37.427  22.831  14.963
64598W        W31007  42.529  33.078   3.599
64599W        W31008   5.416  44.210   3.172
64600W        W31009   2.465  23.144  13.594
64601W        W31010  15.685  37.787  14.963
64602W        W31011  34.156  15.984  11.592
64603W        W31012  36.004  15.537  13.897
64604W        W31013  21.809  22.178  11.031
64605W        W31014  11.792  18.625   3.437
64606W        W31015  43.949   2.245   0.446
64607W        W31016  32.336  27.695  13.102
64608W        W31017  14.140  38.941  11.604
64609W        W31018  21.214  42.923   1.344
64610W        W31019   6.926   5.828   3.699
64611W        W31020  31.837   9.643   0.956
64612W        W31021   7.761  29.578  11.154
64613W        W31022  44.386  22.416   3.725
64614W        W31023  26.454  25.664  11.958
64615W        W31024  16.018   7.817   4.827
64616W        W31025  25.867   7.900  10.995
64617W        W31026  34.836  36.669  12.032
64618W        W31027  37.288  13.865   1.840
64619W        W31028  15.582  14.691   0.008
64620W        W31029  11.356   8.711   2.829
64621W        W31030  30.410   2.034  10.689
64622W        W31031  12.635  43.454   2.299
64623W        W31032  43.786   1.932   3.234
64624W        W31033  17.805  23.610  11.687
64625W        W31034  38.130  41.420  12.651
64626W        W31035  41.898   8.759   0.048
64627W        W31036   7.349   2.434   2.779
64628W        W31037  33.629  33.368  11.235
64629W        W31038  24.289   7.694  12.366
64630W        W31039   3.656  14.784  11.717
64631W        W31040   5.735  21.382   1.423
64632W        W31041   3.204  18.811   3.744
64633W        W31042  38.539  10.778  10.571
64634W        W31043  32.829  27.871   4.371
64635W        W31044  34.833   3.932  14.184
64636W        W31045  32.520  14.227   1.324
64637W        W31046   2.640  15.569   2.291
64638W        W31047  35.500   4.708   0.023
64639W        W31048  13.618   0.728  14.724
64640W        W31049   9.928  29.896  13.046
64641W        W31050  19.495  30.162   0.458
64642W        W31051  43.293  20.005  12.097
64643W        W31052  25.245  32.582  12.322
64644W        W31053  14.738  23.718   0.197
64645W        W31054  15.073  42.614  11.622
64646W        W31055  34.457   9.207   0.314
64647W        W31056   4.715  19.165   3.275
64648W        W31057  38.159  25.008  12.465
64649W        W31058   5.931  39.183  13.858
64650W        W31059  40.459  38.454   2.911
64651W        W31060  28.000   2.066  12.038
64652W        W31061  35.420  37.591   1.927
64653W        W31062  32.791  15.112  13.756
64654W        W31063   2.712  42.205   1.854
64655W        W31064  41.944  17.212   1.316
64656W        W31065  20.477  13.364   5.048
64657W        W31066   0.622  20.219   1.417
64658W        W31067  24.484  20.968  11.540
64659W        W31068  39.794  13.286   0.329
64660W        W31069   6.624   4.066  14.430
64661W        W31070  23.820  19.931   0.795
64662W        W31071  39.405  42.576  14.282
64663W        W31072   3.511  26.922  13.206
64664W        W31073   9.888  26.700   3.648
64665W        W31074  14.508  39.618  11.132
64666W        W31075  35.653  37.585  11.072
64667W        W31076  44.754  24.448   3.459
64668W        W31077  28.603  15.083   0.510
64669W        W31078  26.989  29.160   4.930
64670W        W31079   1.945  32.496  11.694
64671W        W31080   6.728  33.419  12.427
64672W        W31081  27.411   8.467   4.507
64673W        W31082  41.133  35.096  13.281
64674W        W31083  16.465  19.783   2.394
64675W        W31084  44.657   7.971   1.658
64676W        W31085   2.230   9.667  10.648
64677W        W31086  35.164   0.167   4.655
64678W        W31087   4.203  20.760  12.021
64679W        W31088  28.189  22.786   2.362
64680W        W31089  30.198  33.827  13.314
64681W        W31090  15.252  30.547  12.947
64682W        W31091  43.779  10.315   1.986
64683W        W31092  17.347  16.165   0.783
64684W        W31093  14.817   3.809   2.287
64685W        W31094  33.975  12.311  12.279
64686W        W31095  10.620  25.041   4.647
64687W        W31096  14.735  33.605  10.703
64688W        W31097  19.520  42.991   0.461
64689W        W31098  37.320  37.661   4.240
64690W        W31099   4.411  35.862   3.298
64691W        W31100  44.757  33.571  14.836
64692W        W31101  37.993  35.410   4.172
64693W        W31102  22.626  43.047  12.905
64694W        W31103  13.790   8.464   1.729
64695W        W31104  19.180   1.158   3.613
64696W        W31105  15.323   2.621   2.187
64697W        W31106  38.588  19.637   3.141
64698W        W31107   3.830  44.869   3.016
64699W        W31108  20.326  34.634   0.416
64700W        W31109   9.367  24.733   1.384
64701W        W31110   5.976  37.303   4.082
64702W        W31111  20.512  36.099  11.949
64703W        W31112  41.755  16.766  13.630
64704W        W31113  20.079   6.793  10.962
64705W        W31114  26.684  18.895  14.340
64706W        W31115   7.362  12.752  10.640
64707W        W31116  19.337   7.401   2.442
64708W        W31117   2.741  36.855   1.560
64709W        W31118  43.504  34.863  10.752
64710W        W31119  39.789   8.389  13.381
64711W        W31120  22.472  11.132  11.084
64712W        W31121  34.473  37.055   2.248
64713W        W31122  18.273  28.027   2.650
64714W        W31123  19.010  32.028   1.888
64715W        W31124  23.952  42.788   1.702
64716W        W31125  17.332  30.504  14.402
64717W        W31126  11.778  41.216  14.921
64718W        W31127  24.544  17.722  14.053
64719W        W31128  22.579  15.252   3.440
64720W        W31129  43.865  33.978  13.888
64721W        W31130   4.930  22.023  13.357
64722W        W31131  27.664  34.217   0.308
64723W        W31132  16.618  11.086  10.735
64724W        W31133  17.105  40.000  14.645
64725W        W31134  19.774  35.417  13.893
64726W        W31135  21.965   3.533   2.901
64727W        W31136  22.058  13.678  13.293
64728W        W31137  27.954  35.934  10.489
64729W        W31138  42.353  15.441   0.666
64730W        W31139  29.165  21.921   4.929
64731W        W31140   0.461  10.406   2.722
64732W        W31141  44.784   4.982   1.286
64733W        W31142  29.850  44.478   3.303
64734W        W31143  11.363  27.412   0.661
64735W        W31144   2.208   4.819   3.146
64736W        W31145  24.867   1.252  10.757
64737W        W31146  11.673   3.164   0.851
64738W        W31147   1.390  30.778   2.808
64739W        W31148  10.258  25.424   0.360
64740W        W31149  11.771  35.640  14.445
64741W        W31150  38.277   3.446   1.343
64742W        W31151   9.686  11.703   2.859
64743W        W31152  18.539  40.903  10.532
64744W        W31153  18.693  12.390  14.955
64745W        W31154  28.743  24.410  11.063
64746W        W31155   4.886  19.051  14.338
64747W        W31156  23.823  18.139  12.338
64748W        W31157  15.245  37.865  11.723
64749W        W31158  20.583  30.799  10.678
64750W        W31159  32.123   6.314   0.377
64751W        W31160   8.236  44.807  12.331
64752W        W31161  17.089  41.122  13.371
64753W        W31162  17.298  37.633   0.343
64754W        W31163  21.563  18.582  13.046
64755W        W31164  18.208  14.637  10.464
64756W        W31165   9.885  14.638  13.860
64757W        W31166  18.738   3.180  11.629
64758W        W31167  38.363  41.745  10.371
64759W        W31168  11.633  44.664   5.309
64760W        W31169  15.074  25.182  11.991
64761W        W31170   7.877  27.283   9.983
64762W        W31171  24.065  43.424  10.521
64763W        W31172  29.415  42.879   3.685
64764W        W31173   4.714  24.675  14.095
64765W        W31174  29.440  26.446   3.222
64766W        W31175  24.157  30.729  13.677
64767W        W31176  17.674  40.281   3.367
64768W        W31177  24.572  14.124  14.416
64769W        W31178  26.287  31.643   3.715
64770W        W31179  26.326   6.887   1.234
64771W        W31180  42.380  10.849   1.681
64772W        W31181  23.976  32.644   3.562
64773W        W31182   6.208  26.939  14.831
64774W        W31183  39.472  31.575   0.197
64775W        W31184  19.552  35.882  12.116
64776W        W31185   9.681  14.507  10.814
64777W        W31186  22.830  44.147   0.990
64778W        W31187  11.213  25.597  10.477
64779W        W31188  14.577  42.509  12.869
64780W        W31189  24.842   8.912   1.188
64781W        W31190  23.645  29.913  13.873
64782W        W31191  24.364  36.523   0.830
64783W        W31192  35.375  18.151  11.516
64784W        W31193  23.135  17.613   0.346
64785W        W31194  31.984  33.588  13.039
64786W        W31195   7.719  15.141  11.211
64787W        W31196  36.318  25.256  14.963
64788W        W31197  29.569   1.502   0.493
64789W        W31198   4.434  28.388  11.923
64790W        W31199   4.348  21.865  11.630
64791W        W31200   2.765  41.702   3.620
64792W        W31201  24.887  11.286  10.651
64793W        W31202  44.722   9.678  12.608
64794W        W31203  30.631  13.025   0.119
64795W        W31204   3.420  43.827   3.222
64796W        W31205  42.250  10.481   9.447
64797W        W31206  38.588  37.455   2.027
64798W        W31207  20.474  17.029   1.436
64799W        W31208  31.500  19.627   4.498
64800W        W31209   5.163  29.923  13.476
64801W        W31210   6.976  15.422  11.039
64802W        W31211  30.423   1.168   3.579
64803W        W31212  20.673   8.746  13.746
64804W        W31213   0.634   0.373  13.360
64805W        W31214  21.212   3.750  12.325
64806W        W31215  23.598  32.873  11.529
64807W        W31216   3.553  44.976   2.590
64808W        W31217  19.158  21.517  13.027
64809W        W31218  14.605  42.754   0.919
64810W        W31219  44.051  39.428   2.100
64811W        W31220  10.104  22.103   0.409
64812W        W31221  11.754  22.465   0.352
64813W        W31222  20.799  36.411  13.621
64814W        W31223  27.187  19.495  11.981
64815W        W31224  10.280   5.239   1.303
64816W        W31225  24.139  21.042  13.488
64817W        W31226  37.352   5.152   4.253
64818W        W31227  31.944   1.842  14.311
64819W        W31228   5.282  23.779   3.229
64820W        W31229  25.024  35.064  11.937
64821W        W31230  22.654  29.167   0.268
64822W        W31231  15.550  33.347   2.862
64823W        W31232   6.612  41.096   3.245
64824W        W31233  30.601   9.856  14.475
64825W        W31234   5.204  17.681   0.749
64826W        W31235   3.665  31.516   0.455
64827W        W31236  23.584  40.094  14.877
64828W        W31237  36.048   1.072   3.248
64829W        W31238  41.579   0.291  12.648
64830W        W31239  26.155  36.932   3.576
64831W        W31240  42.874  33.993   4.271
64832W        W31241   1.942  10.864  11.483
64833W        W31242  12.414   6.842   0.306
64834W        W31243  39.227  40.497  11.998
64835W        W31244  43.832  39.431  12.900
64836W        W31245  35.891   4.928   0.292
64837W        W31246   4.852  16.286  13.836
64838W        W31247  40.000  13.640   1.422
64839W        W31248  18.682  41.352  10.725
64840W        W31249  21.733  27.665   0.781
64841W        W31250  21.957  18.066  14.040
64842W        W31251  21.914  38.095   3.679
64843W        W31252  23.296  36.966  13.001
64844W        W31253   8.939  26.684  11.607
64845W        W31254   6.299  13.494  12.068
64846W        W31255   7.856  41.170   1.117
64847W        W31256  33.250   3.972  12.936
64848W        W31257  31.948   0.750  12.062
64849W        W31258   1.943  19.142   1.437
64850W        W31259   7.375   6.639  11.305
64851W        W31260  28.404  32.605  11.519
64852W        W31261   9.721  37.182   9.679
64853W        W31262  28.938  21.584   3.665
64854W        W31263   5.853  41.674   0.318
64855W        W31264  20.109  33.499   3.158
64856W        W31265  21.848  26.317  11.789
64857W        W31266  20.240   7.686   4.194
64858W        W31267  24.064  25.233   1.220
64859W        W31268  36.280  40.000   2.813
64860W        W31269  22.348  11.908  14.008
64861W        W31270   1.178  16.276  12.977
64862W        W31271  13.376   6.144  13.135
64863W        W31272  34.384  35.587  13.125
64864W        W31273  34.039  28.005   4.651
64865W        W31274  14.256  23.200   2.918
64866W        W31275   2.538   2.475  13.949
64867W        W31276  19.719  17.468  11.176
64868W        W31277  11.817  44.064   2.290
64869W        W31278   3.931   8.439   4.174
64870W        W31279  15.313  11.805   0.494
64871W        W31280  12.670  40.716  14.807
64872W        W31281  37.001  31.634  13.388
64873W        W31282  37.415  43.126  11.253
64874W        W31283  19.027  39.581   4.174
64875W        W31284  32.979  39.093   0.476
64876W        W31285   5.187  31.364  11.119
64877W        W31286  39.949  36.573  13.289
64878W        W31287  41.081   8.612  14.398
64879W        W31288  38.396  21.524  10.370
64880W        W31289   0.235  41.141   3.113
64881W        W31290  35.901  33.426   2.200
64882W        W31291   6.406  42.851   1.957
64883W        W31292  32.432  12.084  13.565
64884W        W31293  12.735  25.970   3.254
64885W        W31294  33.444   4.221  11.592
64886W        W31295  10.673   1.529   1.762
64887W        W31296   3.101   7.983   5.213
64888W        W31297   1.704  20.624  10.614
64889W        W31298   5.164  15.785   2.820
64890W        W31299  41.840  15.194   2.175
64891W        W31300  36.285  14.255  10.797
64892W        W31301  26.039  37.498   1.007
64893W        W31302  40.017  15.007  13.891
64894W        W31303  40.762  14.863   0.961
64895W        W31304  14.665  31.562   1.894
64896W        W31305  14.602  18.489   0.664
64897W        W31306  37.382   1.525  12.135
64898W        W31307  13.810  23.719   2.150
64899W        W31308  13.733  17.224   2.718
64900W        W31309   6.221  23.980   2.370
64901W        W31310   1.408  19.702   2.313
64902W        W31311  22.015  17.237  10.889
64903W        W31312  29.176  23.523   1.678
64904W        W31313   2.885  13.331  13.272
64905W        W31314  41.837   8.694  13.638
64906W        W31315  34.683  38.314   1.503
64907W        W31316  42.923  36.592   1.728
64908W        W31317  40.559  37.469   0.223
64909W        W31318   8.120  22.008  10.738
64910W        W31319  30.082  13.719  14.327
64911W        W31320  25.569  44.584   4.613
64912W        W31321  26.116  26.108  11.121
64913W        W31322  25.235  31.372  14.965
64914W        W31323  23.157  10.595   2.220
64915W        W31324   3.288  39.915   2.159
64916W        W31325  26.317  43.535  10.509
64917W        W31326   1.029  31.222  12.501
64918W        W31327   8.131  13.435   3.210
64919W        W31328  21.226  39.557  10.055
64920W        W31329   6.870  29.846   0.927
64921W        W31330  43.749   6.893  12.415
64922W        W31331  26.233  15.064  14.834
64923W        W31332  41.393  43.138  10.766
64924W        W31333   6.662  29.993   1.418
64925W        W31334  40.025   3.640  10.497
64926W        W31335  28.668   1.932   3.160
64927W        W31336  38.077  43.946  10.674
64928W        W31337  20.298  36.266   0.382
64929W        W31338  24.022  17.151  13.356
64930W        W31339  19.445  33.857   4.752
64931W        W31340   4.646  26.731   4.212
64932W        W31341  37.344  14.979   1.510
64933W        W31342   6.110  43.848   2.708
64934W        W31343  10.961  28.995  12.097
64935W        W31344  35.414  33.605  14.917
64936W        W31345   9.193  12.193   0.844
64937W        W31346  11.663   2.320   4.016
64938W        W31347  28.722  27.196   3.100
64939W        W31348   5.729  28.059  11.548
64940W        W31349  36.508  28.433  13.065
64941W        W31350   3.721  16.008  13.055
64942W        W31351  21.259  43.580   4.027
64943W        W31352  21.223  21.272   0.646
64944W        W31353   0.742   0.316   1.472
64945W        W31354   3.029  25.413   4.963
64946W        W31355  25.429  44.700  10.372
64947W        W31356  24.490  14.783  13.815
64948W        W31357  17.097  16.538  11.585
64949W        W31358  24.425   5.385   3.121
64950W        W31359  13.368  41.869   4.073
64951W        W31360   8.788  24.166  14.132
64952W        W31361  13.953  34.596  12.039
64953W        W31362   0.339  44.494   0.424
64954W        W31363  37.797   6.828   2.367
64955W        W31364  38.079  15.337  12.024
64956W        W31365  20.743  13.855  12.121
64957W        W31366  27.944   0.406   2.800
64958W        W31367  42.288   3.544   0.380
64959W        W31368  28.014  34.592   0.149
64960W        W31369  35.938  18.608   0.888
64961W        W31370  39.594  24.903  11.079
64962W        W31371  14.991  36.972  11.058
64963W        W31372  24.973  15.616   3.114
64964W        W31373   1.355  25.207   4.382
64965W        W31374   4.236  37.936   2.423
64966W        W31375  19.023  21.012   3.667
64967W        W31376   7.812  10.410  12.128
64968W        W31377   6.332  41.330   4.575
64969W        W31378  36.333  28.601  13.956
64970W        W31379  40.943  11.320  14.321
64971W        W31380   9.296  17.731  11.958
64972W        W31381   7.416  14.276  10.707
64973W        W31382  24.664  13.064   1.844
64974W        W31383  31.837  11.174  11.651
64975W        W31384   0.973  29.655   3.897
64976W        W31385   4.197  17.123   4.156
64977W        W31386  19.030   0.250  12.339
64978W        W31387  21.119  34.016   3.596
64979W        W31388  27.810  33.665   2.871
64980W        W31389  22.552  37.984   4.378
64981W        W31390   1.979  21.248  12.448
64982W        W31391   8.358  39.844   0.897
64983W        W31392  27.902  41.451   4.545
64984W        W31393   6.227  36.456  12.980
64985W        W31394  32.524  34.375  14.884
64986W        W31395  44.209  41.293   3.298
64987W        W31396   1.684   6.707   3.394
64988W        W31397  35.184  30.555  12.817
64989W        W31398  25.544  28.726  10.674
64990W        W31399  43.007  32.107   4.166
64991W        W31400  30.532  40.459  12.584
64992W        W31401  27.530   9.578   0.566
64993W        W31402   8.707  19.733  10.709
64994W        W31403  27.177  29.745  12.459
64995W        W31404  40.819  22.772  13.479
64996W        W31405  25.202  18.991  14.511
64997W        W31406  19.513  22.575   3.391
64998W        W31407  17.731  10.911   1.789
64999W        W31408  21.892  10.360  12.181
65000W        W31409  15.998  36.369   3.341
65001W        W31410  37.396   5.969  13.920
65002W        W31411  23.500  35.948   2.743
65003W        W31412  22.362  16.366   2.125
65004W        W31413   1.032  28.619   3.891
65005W        W31414  18.660  44.959  13.023
65006W        W31415  39.573  39.837   3.391
65007W        W31416  12.636   2.261   4.736
65008W        W31417  38.317   5.934   2.330
65009W        W31418   6.469   1.429   3.325
65010W        W31419  34.409  21.982   3.324
65011W        W31420  18.860  13.593  12.432
65012W        W31421  19.347  16.095  11.977
65013W        W31422  40.594   8.192   2.193
65014W        W31423   2.934   6.361  13.508
65015W        W31424  28.606   8.630  12.596
65016W        W31425  27.360  26.975  14.291
65017W        W31426  32.193  22.066  12.562
65018W        W31427  18.215  37.599   1.455
65019W        W31428  21.548  20.511  12.517
65020W        W31429   2.336  20.833  12.960
65021W        W31430  43.337  15.394  12.304
65022W        W31431  43.272  32.481   0.309
65023W        W31432  39.368   3.876  13.961
65024W        W31433   3.202  33.344  10.560
65025W        W31434   8.275   9.402   1.163
65026W        W31435   8.100  43.847   1.848
65027W        W31436  39.128  15.124   0.835
65028W        W31437   4.699  28.030  14.889
65029W        W31438  26.458  39.885  14.275
65030W        W31439  39.662   1.764  14.268
65031W        W31440  26.840  30.006   0.964
65032W        W31441   0.562  12.404   5.312
65033W        W31442  11.653  17.335   1.776
65034W        W31443  31.411  15.322  14.104
65035W        W31444  33.661   6.416  11.305
65036W        W31445  10.070   4.508   4.263
65037W        W31446   1.004  21.294  14.595
65038W        W31447  16.621   6.780   3.968
65039W        W31448  43.953  23.979   0.649
65040W        W31449  27.783  35.968   3.676
65041W        W31450  13.297  16.789   1.759
65042W        W31451  32.374  30.953  11.134
65043W        W31452  44.388   2.179   0.701
65044W        W31453   2.931   4.964  13.441
65045W        W31454   7.160  33.322   3.671
65046W        W31455  24.126  27.179   1.295
65047W        W31456  30.826  12.588  12.506
65048W        W31457  38.844  36.186   2.679
65049W        W31458  22.150   5.067  14.264
65050W        W31459  35.564  17.759   4.821
65051W        W31460  23.970  37.393   0.511
65052W        W31461  41.260   6.236  13.853
65053W        W31462  34.010  14.161   5.084
65054W        W31463  16.102   3.731  12.472
65055W        W31464   3.419  44.101  13.884
65056W        W31465  24.527  15.719   0.367
65057W        W31466  15.920   0.075  13.566
65058W        W31467  29.664   7.888   0.914
65059W        W31468  32.090  24.045  10.488
65060W        W31469   9.373   4.357  14.401
65061W        W31470   8.737  30.212  13.516
65062W        W31471  12.927  26.499  14.954
65063W        W31472  40.149   7.427   4.449
65064W        W31473  29.777   8.420   5.388
65065W        W31474  40.682  16.231  13.386
65066W        W31475   1.470   5.907  11.881
65067W        W31476  19.766  27.186   2.264
65068W        W31477  17.498  19.645  13.804
65069W        W31478  30.569  11.217   4.182
65070W        W31479  44.361  35.897   4.379
65071W        W31480  11.810  13.273  12.683
65072W        W31481  19.705  34.027  14.805
65073W        W31482  29.419  21.749   1.541
65074W        W31483   9.641  19.656   2.659
65075W        W31484   1.649  19.368   4.049
65076W        W31485  44.032  19.145  11.580
65077W        W31486  21.258  21.689   9.998
65078W        W31487  43.657  44.910   2.027
65079W        W31488  38.451  20.771   2.774
65080W        W31489  24.617  13.550   1.236
65081W        W31490  17.199   8.732  12.051
65082W        W31491   6.095  18.082  10.137
65083W        W31492  32.182  40.891  13.441
65084W        W31493  13.138  17.364  13.754
65085W        W31494   0.807  10.505  13.065
65086W        W31495   3.746  32.525   2.265
65087W        W31496   3.354  32.868  13.026
65088W        W31497  24.152  27.654   1.509
65089W        W31498  12.823  43.781   0.847
65090W        W31499  10.612   5.986   0.025
65091W        W31500  19.511  20.352   1.635
65092W        W31501  11.172  38.094  14.301
65093W        W31502  30.671  31.259   3.328
65094W        W31503  17.135  28.601  14.182
65095W        W31504  38.743  37.938   4.916
65096W        W31505  11.392   2.716   4.294
65097W        W31506  11.918  18.706  11.929
65098W        W31507   9.307  18.202  12.174
65099W        W31508  22.926   8.321   2.280
65100W        W31509  24.802  39.471   4.544
65101W        W31510  15.407  35.984   1.730
65102W        W31511  27.211  38.117   0.385
65103W        W31512  27.586  24.676   3.366
65104W        W31513  21.183  37.516   4.554
65105W        W31514  26.259  15.183  11.113
65106W        W31515  36.342  18.707  13.503
65107W        W31516  31.953  19.569   1.799
65108W        W31517  17.328  18.552   0.707
65109W        W31518  19.188  38.525  11.047
65110W        W31519  32.435  44.998  11.941
65111W        W31520  38.489  22.627  14.095
65112W        W31521  35.452  14.298   4.681
65113W        W31522  19.279   4.905  12.955
65114W        W31523  39.745   3.634   4.093
65115W        W31524  14.122  21.446  14.365
65116W        W31525  10.626  31.228  10.360
65117W        W31526   7.357  29.852   0.505
65118W        W31527  39.055   2.192   4.246
65119W        W31528  30.083  43.413  14.049
65120W        W31529  43.209  10.531  14.084
65121W        W31530  42.093  14.741  12.481
65122W        W31531  41.794  37.082  12.030
65123W        W31532  16.605   3.527   1.359
65124W        W31533  35.098  30.186  14.475
65125W        W31534  31.313  18.108   1.842
65126W        W31535  11.219  23.056  12.911
65127W        W31536  10.815  12.735   0.794
65128W        W31537  39.841  38.512  10.657
65129W        W31538  26.248  15.567  14.824
65130W        W31539  25.262  19.754  11.130
65131W        W31540  28.124  27.000  14.974
65132W        W31541  19.102  33.373  12.889
65133W        W31542  42.226  11.325   1.825
65134W        W31543   0.186  44.840   1.726
65135W        W31544  11.368  29.856   3.429
65136W        W31545  22.469   0.241   4.073
65137W        W31546   8.682  42.766   1.479
65138W        W31547   6.725  33.658  13.808
65139W        W31548  29.218  30.589   4.082
65140W        W31549   8.238  20.493  10.570
65141W        W31550  39.015   7.904  14.020
65142W        W31551  12.188  11.687   4.890
65143W        W31552  43.251  11.960   4.606
65144W        W31553  24.678  12.677  14.090
65145W        W31554  42.140  27.575  11.624
65146W        W31555  25.966  35.587  14.453
65147W        W31556  33.341  20.885  11.975
65148W        W31557  29.548  30.045  12.848
65149W        W31558  15.398  14.838   3.152
65150W        W31559  30.365  16.742   0.900
65151W        W31560  31.756  19.266   3.146
65152W        W31561  24.898  44.322  12.520
65153W        W31562  16.176  36.271  10.201
65154W        W31563  41.300  26.785  11.939
65155W        W31564  30.372  23.245  14.092
65156W        W31565  29.889  34.998  11.157
65157W        W31566  25.083  19.358   2.395
65158W        W31567  16.917   5.807  12.528
65159W        W31568   2.021   9.443   2.314
65160W        W31569  27.964  22.500  14.434
65161W        W31570  19.551  41.837   1.461
65162W        W31571  22.650  15.034   1.111
65163W        W31572  25.492  35.257  12.917
65164W        W31573  41.566  20.795  13.308
65165W        W31574  24.985  13.236   2.205
65166W        W31575  39.062  26.145   3.837
65167W        W31576   1.572   8.105   1.362
65168W        W31577  19.576  22.167  14.796
65169W        W31578  21.070  32.878   2.669
65170W        W31579  19.561  13.615  14.946
65171W        W31580   1.381   7.407   0.030
65172W        W31581  26.003  38.788   3.316
65173W        W31582  41.609  29.362  12.917
65174W        W31583   6.462  24.961  12.314
65175W        W31584  19.626  38.765   2.808
65176W        W31585  23.999  23.635   4.545
65177W        W31586  28.507   9.161  14.448
65178W        W31587  35.925  14.305  12.287
65179W        W31588  25.405  34.709  13.589
65180W        W31589  35.361  20.274  11.963
65181W        W31590  26.385  42.305   4.777
65182W        W31591   1.270   4.908  12.036
65183W        W31592  35.237   3.542  12.157
65184W        W31593  26.946   6.390   4.152
65185W        W31594  41.808  13.097  11.485
65186W        W31595  36.333   7.671  12.826
65187W        W31596  12.822  26.112   0.315
65188W        W31597  29.562  20.278  12.446
65189W        W31598  24.385  44.117  11.196
65190W        W31599  27.914  40.908   2.439
65191W        W31600  16.200   5.890   2.484
65192W        W31601  20.980  27.716   1.305
65193W        W31602  40.512  15.670  14.431
65194W        W31603  29.917  18.915   4.157
65195W        W31604  23.207  44.358  11.914
65196W        W31605  37.909  23.223  11.211
65197W        W31606  34.128   2.444  11.115
65198W        W31607   5.008  12.445  13.427
65199W        W31608  38.332   7.744  14.780
65200W        W31609  15.668  43.348  11.922
65201W        W31610  30.134   2.329  13.031
65202W        W31611  40.712  11.481  10.218
65203W        W31612   0.172  40.036  13.783
65204W        W31613  41.228   3.948  14.070
65205W        W31614  38.198  30.569  12.404
65206W        W31615  43.612   1.673   4.268
65207W        W31616  43.643   2.862  12.061
65208W        W31617  35.031  29.376  12.459
65209W        W31618   0.679  11.139  11.384
65210W        W31619  37.523  19.265  13.770
65211W        W31620  33.032  34.061  13.588
65212W        W31621  26.950   1.215  12.097
65213W        W31622  35.323   0.738  14.945
65214W        W31623  17.170  17.959  12.613
65215W        W31624  16.828  26.232   4.162
65216W        W31625  23.707  39.850  11.027
65217W        W31626   4.735  11.275  10.633
65218W        W31627  22.207  43.356   0.967
65219W        W31628   4.902   9.853  14.309
65220W        W31629   9.610  13.569   2.219
65221W        W31630  27.955  20.385   4.042
65222W        W31631  19.088   7.242   2.881
65223W        W31632  34.937   7.232   3.250
65224W        W31633  13.761  12.428   4.036
65225W        W31634   1.707  32.734  13.021
65226W        W31635  39.478  41.630   0.427
65227W        W31636  26.460  23.785  11.212
65228W        W31637   3.368  44.371   3.203
65229W        W31638  19.195  18.074   3.293
65230W        W31639  36.647  21.312  11.443
65231W        W31640  39.813  25.135  14.283
65232W        W31641  12.335  42.763  14.468
65233W        W31642  15.316  31.119   4.562
65234W        W31643   7.357   2.754  13.000
65235W        W31644   0.524  38.802  11.183
65236W        W31645  15.353  31.621  12.494
65237W        W31646  41.902   7.836   4.835
65238W        W31647  10.029  31.993  13.552
65239W        W31648  40.855  37.917   4.538
65240W        W31649   7.387  19.651  14.585
65241W        W31650  13.899  43.984   3.436
65242W        W31651  29.405  26.367   4.983
65243W        W31652  25.550  33.346  13.231
65244W        W31653  39.619  30.022   0.727
65245W        W31654  35.561   4.924  12.359
65246W        W31655  43.922   0.803  11.400
65247W        W31656   1.929  31.983   0.012
65248W        W31657  22.600  23.125  13.933
65249W        W31658  32.888  35.088  13.300
65250W        W31659   6.716  18.089   3.760
65251W        W31660  37.540   6.373   2.419
65252W        W31661   1.104  30.495   4.118
65253W        W31662  29.427   0.654   1.742
65254W        W31663  37.886  27.650   3.742
65255W        W31664  19.917  41.143  11.223
65256W        W31665  26.696   8.394   3.793
65257W        W31666  29.368  40.061   3.570
65258W        W31667  20.531  37.926   4.492
65259W        W31668  43.870  17.613   4.532
65260W        W31669   2.295   5.253   0.744
65261W        W31670  37.825  13.155  12.556
65262W        W31671   8.890  42.693   3.688
65263W        W31672  19.661   2.559   2.783
65264W        W31673   7.668  20.103   2.207
65265W        W31674  16.065  36.715  14.408
65266W        W31675  36.081  18.147   1.109
65267W        W31676  21.549  37.916   3.323
65268W        W31677  25.485   7.927  13.586
65269W        W31678  41.317  43.515  14.776
65270W        W31679  22.626  39.513  12.364
65271W        W31680  30.655  23.532   0.529
65272W        W31681  25.287   5.132   0.027
65273W        W31682   1.189  10.028   2.359
65274W        W31683   9.203  28.248  11.478
65275W        W31684  14.457  25.994   2.215
65276W        W31685  38.183  26.144   0.967
65277W        W31686  33.178  11.761   0.478
65278W        W31687  28.450  41.428  11.581
65279W        W31688   8.936  43.762   4.175
65280W        W31689  40.358  27.055   1.812
65281W        W31690  34.256   7.448  10.581
65282W        W31691  10.691  23.062   2.247
65283W        W31692  16.322  14.295  14.936
65284W        W31693   2.811   0.229  11.536
65285W        W31694  29.876  30.174   3.834
65286W        W31695  40.981  28.878   0.102
65287W        W31696  25.650  12.215  12.148
65288W        W31697  25.492   4.828   1.715
65289W        W31698  39.302  38.964  11.210
65290W        W31699  25.285  29.621   2.393
65291W        W31700  25.581  13.912  11.788
65292W        W31701  40.961  44.351  14.437
65293W        W31702  19.430  41.164   0.749
65294W        W31703  43.768  28.892   2.743
65295W        W31704   1.735  35.517  11.110
65296W        W31705  17.922  34.782   1.002
65297W        W31706  26.806  27.562  10.309
65298W        W31707   6.974  11.181  13.807
65299W        W31708  40.870  32.285   0.364
65300W        W31709  10.215  28.505   3.641
65301W        W31710  26.943   8.415  14.972
65302W        W31711   2.609  25.262  14.575
65303W        W31712   2.476  33.092   0.205
65304W        W31713  44.737  12.124   2.515
65305W        W31714   5.879   5.052  12.353
65306W        W31715  12.919  37.387   1.174
65307W        W31716  37.380  30.773  13.464
65308W        W31717  30.087  21.710  10.921
65309W        W31718  11.413   4.613   0.836
65310W        W31719  37.958   3.207  13.423
65311W        W31720   1.213  25.537   3.855
65312W        W31721  24.225  29.399  12.478
65313W        W31722   1.708  23.862   1.884
65314W        W31723  27.102   6.081   4.632
65315W        W31724  11.748  17.252  14.443
65316W        W31725  24.643  20.622   5.498
65317W        W31726   7.173  27.129   3.583
65318W        W31727  11.815   9.059  14.432
65319W        W31728  19.513  24.620   3.792
65320W        W31729   9.171  34.111  14.207
65321W        W31730  20.027  43.713   4.285
65322W        W31731   0.418  19.946   2.365
65323W        W31732  24.624  44.426   0.464
65324W        W31733  22.611  39.383   4.617
65325W        W31734  25.017   4.808  13.865
65326W        W31735  31.696   0.334  11.232
65327W        W31736   9.277   3.932   0.648
65328W        W31737  42.544   6.157   2.753
65329W        W31738   4.301  25.922  12.665
65330W        W31739  42.713  19.501  10.248
65331W        W31740  35.766  21.212   3.189
65332W        W31741  15.167  42.001   3.926
65333W        W31742  13.738  16.621  12.127
65334W        W31743  25.421   4.563  13.088
65335W        W31744  31.843  13.795   4.200
65336W        W31745  17.434   5.874  12.574
65337W        W31746  36.892   6.846  13.057
65338W        W31747  40.185  26.968   2.300
65339W        W31748  30.570  33.396  13.491
65340W        W31749  21.700   3.796   0.564
65341W        W31750   1.028  21.020   3.653
65342W        W31751  42.402  44.566   1.835
65343W        W31752  33.190   7.293   4.101
65344W        W31753   3.208  21.479  10.557
65345W        W31754  42.823  25.002   2.121
65346W        W31755  37.599  29.826   0.929
65347W        W31756  16.160   5.473  11.199
65348W        W31757  34.914  14.817  14.235
65349W        W31758   4.448  24.176   4.301
65350W        W31759  15.880  15.224  12.047
65351W        W31760  43.088  26.593   0.322
65352W        W31761  39.487  25.514   3.620
65353W        W31762  30.538  22.944   0.008
65354W        W31763  18.590  20.542   5.036
65355W        W31764  16.287  35.339  13.442
65356W        W31765  34.799  44.500  13.316
65357W        W31766  26.350  30.074   1.471
65358W        W31767  32.123  14.061   1.972
65359W        W31768  29.532  37.568  14.372
65360W        W31769  10.857  20.812   3.349
65361W        W31770  16.597  11.147  12.546
65362W        W31771  35.603   8.233   2.762
65363W        W31772   3.772  30.955   4.331
65364W        W31773  15.596  20.943  11.121
65365W        W31774  34.473  14.336   0.422
65366W        W31775  42.529  40.934   3.713
65367W        W31776  24.073   7.302  13.106
65368W        W31777  40.537   6.991  10.555
65369W        W31778  44.273  41.983   2.610
65370W        W31779  36.396  11.186   0.684
65371W        W31780  41.496  28.420  14.317
65372W        W31781  36.048  32.968  13.838
65373W        W31782  25.787   9.171   2.197
65374W        W31783  22.921   9.686   2.203
65375W        W31784  30.952  31.956   1.731
65376W        W31785  44.707  14.069   4.621
65377W        W31786  21.308  35.409   1.139
65378W        W31787  28.886  31.049  11.008
65379W        W31788  10.775  39.373   3.646
65380W        W31789  22.060  37.079   1.844
65381W        W31790  33.147  19.270   0.812
65382W        W31791  15.735  11.818   2.353
65383W        W31792  25.454   7.958   0.503
65384W        W31793  30.470  32.478   1.277
65385W        W31794  20.200  26.711  11.136
65386W        W31795  10.801  11.672   4.312
65387W        W31796  25.425  14.786  12.898
65388W        W31797  39.076  23.578   1.073
65389W        W31798  13.601   7.672   0.838
65390W        W31799   6.977  32.996  11.671
65391W        W31800  32.541  18.481  14.323
65392W        W31801  15.217  33.650  10.941
65393W        W31802  22.565  18.661  10.393
65394W        W31803   6.369  44.189   2.363
65395W        W31804  24.721  24.017  11.530
65396W        W31805  17.232  29.940  11.065
65397W        W31806  15.666  23.917  10.359
65398W        W31807  43.995   6.161  10.566
65399W        W31808  19.091  33.539   4.529
65400W        W31809  10.265  23.535  13.612
65401W        W31810   2.199  19.636  10.721
65402W        W31811  16.075  27.923   4.701
65403W        W31812  25.097  35.755  12.515
65404W        W31813  43.100  29.352  13.040
65405W        W31814  11.448  24.084  10.483
65406W        W31815   3.650  20.781   4.217
65407W        W31816  11.858  22.296  11.018
65408W        W31817  30.944  40.837   3.367
65409W        W31818  21.142   7.452   0.459
65410W        W31819  29.368   6.141  10.757
65411W        W31820  33.435   2.246  13.450
65412W        W31821  15.661  41.926  11.650
65413W        W31822   4.521  40.726   3.736
65414W        W31823  35.061  34.610  14.505
65415W        W31824   2.704   4.151  14.341
65416W        W31825  15.677   8.110  14.814
65417W        W31826   6.059  39.660  14.015
65418W        W31827  20.574  40.387  14.227
65419W        W31828   1.762  40.085   0.452
65420W        W31829  10.594  26.127   3.635
65421W        W31830  43.960  29.584  14.508
65422W        W31831  15.784   2.837  12.934
65423W        W31832  16.416  38.398  14.776
65424W        W31833  26.798   0.749   2.408
65425W        W31834  33.944  26.631  11.159
65426W        W31835  15.690   4.240  13.823
65427W        W31836  20.852   8.199   3.558
65428W        W31837  16.288  30.420   3.423
65429W        W31838  34.504   7.897  10.569
65430W        W31839  26.990   2.660  10.707
65431W        W31840   6.164  38.316  14.785
65432W        W31841   9.905   8.411   1.356
65433W        W31842   8.635   6.324   2.814
65434W        W31843  12.538   9.629   0.574
65435W        W31844  13.165  27.254  11.721
65436W        W31845  34.746  44.798   3.302
65437W        W31846  27.952  10.640  11.170
65438W        W31847   3.320  16.335  12.835
65439W        W31848  26.469  27.972  13.838
65440W        W31849  11.180  36.319  14.795
65441W        W31850  20.454   4.149   5.059
65442W        W31851  23.788  38.863  12.076
65443W        W31852  23.789  38.306  14.793
65444W        W31853  22.107  43.514  13.806
65445W        W31854  30.535   4.757   4.140
65446W        W31855  34.400  29.446  11.562
65447W        W31856  36.985  27.184   1.701
65448W        W31857  34.723  33.070   0.454
65449W        W31858   8.842  18.442   0.806
65450W        W31859   8.793  36.287   2.689
65451W        W31860   0.505  12.474  12.545
65452W        W31861  19.516  44.492  10.662
65453W        W31862  14.107  32.025   1.362
65454W        W31863   5.870   8.225   0.541
65455W        W31864  23.641  34.913   0.615
65456W        W31865  38.894  26.745  12.031
65457W        W31866   5.352   7.634  13.431
65458W        W31867  11.374  38.962  13.207
65459W        W31868  27.580  13.577  14.916
65460W        W31869   9.692  23.817  11.132
65461W        W31870   9.218  32.958   0.817
65462W        W31871  29.221  35.760   5.476
65463W        W31872  44.334  13.710  10.284
65464W        W31873  42.996  31.277   1.788
65465W        W31874   0.851   6.762   2.775
65466W        W31875  12.821   7.766   4.091
65467W        W31876   1.785  38.939   2.268
65468W        W31877  14.588   5.861  13.375
65469W        W31878  40.425  24.961   4.905
65470W        W31879  30.682  40.580  14.348
65471W        W31880  25.090  34.792  10.454
65472W        W31881  29.975   8.620  11.327
65473W        W31882   9.651  35.435  10.233
65474W        W31883  13.798  42.263   2.798
65475W        W31884  18.503  38.612   2.355
65476W        W31885   1.285  42.731   2.289
65477W        W31886  25.165  29.139   2.591
65478W        W31887  40.809  33.769   4.772
65479W        W31888  36.784  27.133   4.104
65480W        W31889  16.006  21.493  14.929
65481W        W31890  42.438  37.895   3.821
65482W        W31891  43.228   9.640  12.476
65483W        W31892  23.233  14.631  14.317
65484W        W31893   6.202   9.649  10.721
65485W        W31894  43.556   5.896   2.708
65486W        W31895   6.880  23.587   4.588
65487W        W31896  17.008   7.921  13.049
65488W        W31897  24.352  24.235  14.076
65489W        W31898  10.734   1.035   0.335
65490W        W31899  35.607  24.733  13.450
65491W        W31900   9.701  42.004   1.866
65492W        W31901  16.664   9.640  14.258
65493W        W31902  31.062  26.047  14.565
65494W        W31903  33.404  16.173  11.051
65495W        W31904  15.916  40.085   0.450
65496W        W31905  40.713  29.656   4.376
65497W        W31906  21.641  29.335   0.622
65498W        W31907   7.375  22.178  14.966
65499W        W31908   1.799  25.910  11.627
65500W        W31909  38.274   1.518   0.755
65501W        W31910  44.996  31.692   4.103
65502W        W31911  12.598  23.564   9.830
65503W        W31912  33.481  43.150   5.264
65504W        W31913  36.875  36.055   4.788
65505W        W31914  19.537  34.855  14.741
65506W        W31915   7.757  31.162  12.309
65507W        W31916  40.109  30.125  11.939
65508W        W31917  36.353  43.508  11.988
65509W        W31918  44.472   9.190  11.904
65510W        W31919  15.616  32.452   2.954
65511W        W31920  44.994  33.983  13.927
65512W        W31921  42.290  37.579  10.978
65513W        W31922  33.044  39.620  11.172
65514W        W31923  13.153  16.841  13.840
65515W        W31924  17.280  13.350  13.956
65516W        W31925  26.505  38.646  14.980
65517W        W31926  26.272  32.192  11.230
65518W        W31927  12.658  13.432   3.404
65519W        W31928  39.649  17.212  13.067
65520W        W31929  21.996   3.506  10.053
65521W        W31930  33.038  22.682  12.569
65522W        W31931  21.171  23.086  13.408
65523W        W31932  35.402   1.166   9.871
65524W        W31933  19.678  12.137   1.191
65525W        W31934  29.455  30.958  11.849
65526W        W31935   0.496   3.008   1.852
65527W        W31936  36.118  32.944   2.196
65528W        W31937  10.750  42.138   2.332
65529W        W31938  26.239   1.952   3.260
65530W        W31939  39.316  29.768  14.907
65531W        W31940  35.844  18.378   2.908
65532W        W31941  42.266  17.783   3.333
65533W        W31942  19.800  18.030   2.784
65534W        W31943   6.935  30.906   2.379
65535W        W31944  27.869  18.999  11.499
65536W        W31945  14.783  27.890   1.246
65537W        W31946  34.087  37.534   2.702
65538W        W31947  12.409   8.665  13.126
65539W        W31948   7.700  19.649  12.023
65540W        W31949  38.495  25.412  11.614
65541W        W31950  15.723   9.241  11.417
65542W        W31951  43.288  10.328  12.965
65543W        W31952  20.455  11.683  11.928
65544W        W31953  37.838  18.503   2.967
65545W        W31954  23.662   3.987  10.955
65546W        W31955   0.207  25.205   4.270
65547W        W31956   7.851  17.844  10.666
65548W        W31957  15.663  40.093   2.698
65549W        W31958   4.942  23.941   2.645
65550W        W31959  19.797   9.808  12.485
65551W        W31960   1.878  16.325  14.857
65552W        W31961  32.112  17.109  10.696
65553W        W31962  21.129  17.620   1.466
65554W        W31963  17.676   0.358  11.203
65555W        W31964  18.594  30.238  11.111
65556W        W31965   7.676  10.202  11.680
65557W        W31966  17.147  38.874   4.938
65558W        W31967  19.172  31.997   1.002
65559W        W31968  13.684  40.534   4.286
65560W        W31969   6.383   8.736  12.900
65561W        W31970  37.081   8.795  10.815
65562W        W31971  30.065  31.278  13.134
65563W        W31972  33.874   5.479  14.412
65564W        W31973  32.063   0.352  12.567
65565W        W31974  13.109  17.901  10.826
65566W        W31975  26.916  13.670  12.088
65567W        W31976  21.136   6.382  12.764
65568W        W31977   4.488   2.243  13.802
65569W        W31978  25.343  30.608  10.309
65570W        W31979  40.045  22.684   0.277
65571W        W31980  42.287  43.112  11.283
65572W        W31981  41.368  11.207  14.768
65573W        W31982  28.008  12.966  13.466
65574W        W31983  13.683  13.324   2.419
65575W        W31984  43.371  24.811  12.110
65576W        W31985   7.811   2.494  12.951
65577W        W31986  14.884  28.237  14.289
65578W        W31987  30.102  40.473  10.733
65579W        W31988  18.244  17.473   1.015
65580W        W31989  43.847  25.545   4.093
65581W        W31990   1.859   0.824   2.845
65582W        W31991   4.786  30.077   2.084
65583W        W31992   0.335  27.222  13.947
65584W        W31993   7.874  10.211   1.761
65585W        W31994   1.298  20.732  10.306
65586W        W31995   2.816  22.624   4.657
65587W        W31996  23.862  16.263   1.798
65588W        W31997  23.144  11.204  12.390
65589W        W31998  16.979   9.197   1.829
65590W        W31999   4.304  33.196   4.951
65591W        W32000  32.904  22.609  13.049
65592W        W32001  42.322  18.010  11.125
65593W        W32002  33.911  16.992  11.565
65594W        W32003  21.253  18.282  11.571
65595W        W32004  19.344  41.951   3.225
65596W        W32005  33.012  43.187  11.962
65597W        W32006   2.221  39.791  13.711
65598W        W32007  30.095  38.788   4.501
65599W        W32008  18.189  30.090  13.979
65600W        W32009  35.912  35.525  14.065
65601W        W32010  41.020  19.065  13.836
65602W        W32011  19.403   1.020   4.562
65603W        W32012  33.549  24.952  14.965
65604W        W32013  30.337   9.852   4.073
65605W        W32014  14.791  38.806   3.624
65606W        W32015  29.952  23.420   3.918
65607W        W32016  39.561  33.386  12.677
65608W        W32017  15.305  11.359   1.163
65609W        W32018  15.571  39.859  13.994
65610W        W32019  11.204   5.583  14.370
65611W        W32020  38.031   0.352   0.069
65612W        W32021  35.233  33.055   0.504
65613W        W32022  19.261   1.939  13.971
65614W        W32023  17.119   7.789   3.559
65615W        W32024  35.114  11.927  14.929
65616W        W32025  36.064   6.882  14.442
65617W        W32026   2.312  42.955  10.692
65618W        W32027  19.711  43.460   1.386
65619W        W32028  12.422  13.108  13.555
65620W        W32029  14.346  22.683  14.251
65621W        W32030  34.556  17.607  12.619
65622W        W32031  33.496  22.187  13.073
65623W        W32032  40.150   7.274  14.746
65624W        W32033  44.911  29.638  10.678
65625W        W32034  14.637  15.018   0.298
65626W        W32035  39.516  10.992  12.577
65627W        W32036   7.541  33.191   2.434
65628W        W32037  34.624  36.915  11.621
65629W        W32038  29.648   9.657   3.355
65630W        W32039  11.091  13.766   2.778
65631W        W32040   9.384   6.915  14.743
65632W        W32041  32.566   1.061   5.315
65633W        W32042  17.195  32.193  12.644
65634W        W32043  29.352   4.197   1.864
65635W        W32044   8.949   3.983   5.310
65636W        W32045  37.377  36.008   2.772
65637W        W32046   7.176   0.009   2.244
65638W        W32047  33.481  40.838  11.437
65639W        W32048  35.022  16.035  13.023
65640W        W32049  28.374  19.052  13.922
65641W        W32050  19.561  17.293   3.381
65642W        W32051   7.948  15.658  14.452
65643W        W32052  15.793  25.825   3.958
65644W        W32053  26.696  31.182  12.497
65645W        W32054   9.808  34.601  14.462
65646W        W32055  18.809   5.099   4.731
65647W        W32056   0.517  25.321  12.097
65648W        W32057  44.537   7.899  14.923
65649W        W32058  10.669  32.729  14.091
65650W        W32059  31.014  32.577  13.457
65651W        W32060  37.576  33.174  13.005
65652W        W32061  44.791  38.398  11.579
65653W        W32062  35.858  39.367   2.649
65654W        W32063  31.518  40.067  12.369
65655W        W32064  35.950   8.103   0.724
65656W        W32065  25.782  15.330   5.071
65657W        W32066  22.184  10.080  10.349
65658W        W32067   9.405  43.793   4.965
65659W        W32068  26.980  18.782   4.385
65660W        W32069   7.154  22.797   2.171
65661W        W32070  11.390  43.400  10.603
65662W        W32071  42.791  29.394   3.169
65663W        W32072  10.746  40.825   4.055
65664W        W32073  36.459  40.956  14.756
65665W        W32074  16.344  16.703   3.945
65666W        W32075   2.248  30.142   1.474
65667W        W32076  11.840  24.046   5.089
65668W        W32077   1.474   8.511   4.519
65669W        W32078  10.758  25.723   2.175
65670W        W32079  20.241  28.973  13.048
65671W        W32080  10.332  34.724   5.552
65672W        W32081  20.945  43.675  14.368
65673W        W32082   7.202  36.839   3.696
65674W        W32083   3.658  35.463  11.608
65675W        W32084  14.583  23.438  13.646
65676W        W32085  34.243   2.002  11.363
65677W        W32086  13.842  28.061  11.762
65678W        W32087  37.555  41.807   1.347
65679W        W32088  31.464  36.421  14.216
65680W        W32089  20.602   6.243  11.646
65681W        W32090  15.194   8.650   2.250
65682W        W32091   4.723   1.751   1.824
65683W        W32092   9.455  30.815   4.026
65684W        W32093  44.472  44.601   2.292
65685W        W32094  12.708  19.093  12.828
65686W        W32095  13.818  34.278   0.815
65687W        W32096  29.002  23.957   1.383
65688W        W32097  20.272  41.770   0.790
65689W        W32098   7.833  34.080  14.300
65690W        W32099  22.995  25.146   3.238
65691W        W32100  10.487  33.672   2.283
65692W        W32101  14.860   8.064   4.264
65693W        W32102  12.414  41.780  14.331
65694W        W32103  33.178  20.089  13.522
65695W        W32104   8.851  36.129  14.352
65696W        W32105  30.441  19.158  12.412
65697W        W32106  40.119  44.704  12.022
65698W        W32107   4.621  21.990   2.767
65699W        W32108  10.155   2.238  13.406
65700W        W32109  36.078  18.273  13.506
65701W        W32110  23.393  10.882   0.849
65702W        W32111  39.278  16.754   1.742
65703W        W32112   8.860  35.847  12.887
65704W        W32113  38.332  44.914  12.444
65705W        W32114  40.336  23.684   0.476
65706W        W32115  39.312  29.322   1.353
65707W        W32116  26.571  39.087  11.157
65708W        W32117  19.511  18.768  12.185
65709W        W32118  44.523   1.694   3.002
65710W        W32119  42.307  38.786  10.418
65711W        W32120   1.112   0.673   1.280
65712W        W32121  11.345   2.412  11.590
65713W        W32122   3.753  17.829   1.798
65714W        W32123  41.714   0.336  10.715
65715W        W32124   4.817  36.744  10.674
65716W        W32125  44.745  30.953   4.630
65717W        W32126  39.379  31.498  10.485
65718W        W32127  24.079  19.290  13.978
65719W        W32128  29.872  26.651  11.940
65720W        W32129  39.006  20.041  11.126
65721W        W32130  10.382  42.072   3.694
65722W        W32131  42.196  22.647   2.196
65723W        W32132   9.355  36.010  14.344
65724W        W32133  41.208  27.565   1.099
65725W        W32134   1.681   8.169   9.738
65726W        W32135  16.225  29.445   1.465
65727W        W32136   3.664  36.441  14.385
65728W        W32137  16.695  19.734   3.790
65729W        W32138  15.766  28.991  13.180
65730W        W32139  12.733  18.729  10.661
65731W        W32140  16.006  31.236  12.033
65732W        W32141  18.239  12.352  11.880
65733W        W32142   6.282  14.056   1.897
65734W        W32143  11.254   5.151   3.705
65735W        W32144  17.739  36.442   0.829
65736W        W32145  38.261  28.362   4.077
65737W        W32146  21.623  29.826  14.368
65738W        W32147  30.785  42.842  13.345
65739W        W32148  38.396  15.574   3.316
65740W        W32149  32.309  14.279  14.051
65741W        W32150   7.924  37.677  14.668
65742W        W32151  16.349  35.196   0.220
65743W        W32152  25.214  39.249   4.291
65744W        W32153  18.326  28.588  11.544
65745W        W32154  20.210  28.075   3.662
65746W        W32155  19.086  29.019   0.897
65747W        W32156  38.162  19.352  10.379
65748W        W32157  32.508  22.502  10.660
65749W        W32158  22.236   1.689  13.480
65750W        W32159  17.106  25.059   1.775
65751W        W32160  28.695  40.025  12.437
65752W        W32161   1.827  10.723  12.503
65753W        W32162  37.159  41.827   0.946
65754W        W32163  28.916  44.900   0.974
65755W        W32164  15.582  40.379   2.238
65756W        W32165  13.748  26.307  14.539
65757W        W32166  10.733  17.345   3.673
65758W        W32167  42.198  16.724   5.378
65759W        W32168  21.515  33.846   2.776
65760W        W32169  12.173  35.214   1.398
65761W        W32170   5.230  34.753   5.028
65762W        W32171  16.613  37.015   1.465
65763W        W32172  31.056  38.323   0.298
65764W        W32173  36.010  16.825   0.850
65765W        W32174  32.870  30.450   0.316
65766W        W32175  16.646  31.400   4.255
65767W        W32176   5.352   9.013   3.231
65768W        W32177  15.029  17.698   4.590
65769W        W32178  20.028  11.656  11.043
65770W        W32179  12.147  11.250   3.199
65771W        W32180   5.757  25.678  13.344
65772W        W32181   6.304  19.612  14.496
65773W        W32182   6.280  32.952   4.280
65774W        W32183  37.006  22.947  10.316
65775W        W32184  22.750  14.221  14.237
65776W        W32185   1.382  17.775   2.857
65777W        W32186   5.724  27.420   0.449
65778W        W32187  31.101  43.303   3.179
65779W        W32188  36.845  22.636   0.989
65780W        W32189  29.936   0.329  11.544
65781W        W32190   0.076   4.183  11.172
65782W        W32191  27.036  35.533  14.299
65783W        W32192   0.389  17.050   1.701
65784W        W32193  10.806  28.904   1.348
65785W        W32194  20.431  24.905   4.371
65786W        W32195   1.907  14.787  10.977
65787W        W32196  15.448  21.285  10.738
65788W        W32197  27.145  37.847  13.340
65789W        W32198  37.711   9.250  11.174
65790W        W32199  23.449  40.904  11.675
65791W        W32200  28.404  18.176   0.504
65792W        W32201  42.595  41.313   3.218
65793W        W32202  35.616  43.360   2.740
65794W        W32203  25.304  38.567   1.989
65795W        W32204   0.756  19.539   2.299
65796W        W32205  30.636  16.160  10.699
65797W        W32206  11.342  11.765   4.286
65798W        W32207  18.741   9.566  13.312
65799W        W32208  22.274   8.147   4.667
65800W        W32209  34.278  26.517   3.321
65801W        W32210   3.493  22.790  14.630
65802W        W32211   8.731   8.401  14.931
65803W        W32212  20.090  30.301  11.908
65804W        W32213  38.833  23.689   2.713
65805W        W32214  18.128  19.925  14.926
65806W        W32215  24.142  17.918  11.964
65807W        W32216   0.781  11.676   2.765
65808W        W32217  14.578  36.517   3.639
65809W        W32218   2.364   7.460   1.258
65810W        W32219  20.937   2.002   3.199
65811W        W32220  18.939   5.446  11.437
65812W        W32221   4.779  34.160  11.985
65813W        W32222  39.015  26.368   3.374
65814W        W32223   6.078  13.290  12.497
65815W        W32224  33.117  14.464  11.240
65816W        W32225   5.955  12.747  10.594
65817W        W32226  40.866  40.379  10.771
65818W        W32227  26.140  39.498   0.387
65819W        W32228  12.844  43.385  11.407
65820W        W32229  39.914   3.923  12.330
65821W        W32230  18.616  35.154  13.472
65822W        W32231   8.881  19.043  12.790
65823W        W32232  42.944  17.145   5.245
65824W        W32233  39.207  35.572   1.116
65825W        W32234  36.880  26.209   0.331
65826W        W32235   3.196  44.327   5.171
65827W        W32236   6.895  15.041   3.720
65828W        W32237   4.531  34.810   4.192
65829W        W32238   5.660  14.156  12.521
65830W        W32239  34.414  23.470   0.931
65831W        W32240   6.381  12.260   3.698
65832W        W32241  21.069  31.426   1.258
65833W        W32242  24.969  12.770   4.068
65834W        W32243  41.926  13.878  13.877
65835W        W32244  19.478  17.312  13.451
65836W        W32245  25.805  39.420   4.845
65837W        W32246   9.193  15.835   3.333
65838W        W32247  17.796  33.817   3.654
65839W        W32248  20.001  42.817   4.016
65840W        W32249  12.199  37.598  12.058
65841W        W32250  33.129  42.710   1.184
65842W        W32251   8.827  26.924   1.060
65843W        W32252  40.036   4.907   1.648
65844W        W32253  37.661  33.432  14.352
65845W        W32254   2.632   8.670  12.039
65846W        W32255  29.425   5.118   3.286
65847W        W32256  30.891  22.590  10.331
65848W        W32257  16.090   1.903  12.066
65849W        W32258   2.393  44.777  10.858
65850W        W32259  40.796  13.814  12.248
65851W        W32260   0.455  36.017   4.140
65852W        W32261   8.931  18.175  10.749
65853W        W32262  39.364   3.303  11.324
65854W        W32263  23.972  17.248   1.617
65855W        W32264  13.534  13.074  13.854
65856W        W32265  28.123   5.726   2.199
65857W        W32266  44.960  20.952   1.366
65858W        W32267  41.440  42.240  12.467
65859W        W32268  31.495  16.783   1.690
65860W        W32269  40.576  44.584  12.170
65861W        W32270  32.352  35.153  11.239
65862W        W32271  41.176   8.776   0.909
65863W        W32272  42.813  12.379   2.364
65864W        W32273   9.291   3.734   3.186
65865W        W32274  37.337   0.032   4.111
65866W        W32275  37.916  23.784   0.695
65867W        W32276   2.525  21.752  14.198
65868W        W32277  32.087  18.509   3.292
65869W        W32278   9.758   5.807   4.651
65870W        W32279  29.798  36.074  12.561
65871W        W32280  16.515  32.008   1.931
65872W        W32281   2.929  39.829   1.810
65873W        W32282  20.917  25.010   4.222
65874W        W32283  25.132  30.615  11.605
65875W        W32284  39.571  31.450   1.749
65876W        W32285  21.102  21.613   2.475
65877W        W32286  38.771   5.263  14.290
65878W        W32287  44.052  33.503   4.219
65879W        W32288   0.680  30.099  10.602
65880W        W32289  12.407  12.100   0.786
65881W        W32290   0.250  31.498   1.910
65882W        W32291  34.985  21.245   0.011
65883W        W32292   4.946  29.959   4.274
65884W        W32293  43.855  26.922   4.838
65885W        W32294  31.395  24.724   1.693
65886W        W32295  43.926  31.698   1.280
65887W        W32296  34.821   8.536  12.092
65888W        W32297  19.746  14.394  12.053
65889W        W32298  34.494   0.860   5.007
65890W        W32299  40.812  22.269  13.337
65891W        W32300  32.908  39.647   2.866
65892W        W32301  12.332  38.046  13.474
65893W        W32302  13.634  41.284  13.046
65894W        W32303  41.395   2.811  12.560
65895W        W32304  15.663   7.134  12.504
65896W        W32305  26.744  15.347   3.289
65897W        W32306  44.887  26.878  13.967
65898W        W32307   9.189   4.785   0.688
65899W        W32308   2.866  30.500   4.670
65900W        W32309  26.116  19.184   2.880
65901W        W32310  15.139  15.824  10.295
65902W        W32311  27.248  39.663   4.911
65903W        W32312   3.493   3.504  10.688
65904W        W32313  34.127  23.592  11.483
65905W        W32314  30.097  36.423   3.755
65906W        W32315  13.736   0.054   2.864
65907W        W32316   1.248  33.676   1.664
65908W        W32317  29.531   7.212  14.238
65909W        W32318  33.924  40.846  13.880
65910W        W32319  16.563  37.214  12.700
65911W        W32320   4.380  28.454  14.708
65912W        W32321  10.231  14.385   1.271
65913W        W32322  34.137  42.566  12.017
65914W        W32323  31.412  37.937  11.282
65915W        W32324  25.607  27.109  11.027
65916W        W32325  13.984   4.940  11.602
65917W        W32326  42.956  26.887  12.539
65918W        W32327  23.737   9.813   5.121
65919W        W32328   6.374  12.077  12.535
65920W        W32329  14.839   9.264  13.836
65921W        W32330  27.903  44.811   0.392
65922W        W32331   1.023  13.693  10.994
65923W        W32332  30.636  34.514  12.630
65924W        W32333   7.061  43.863   2.762
65925W        W32334  27.988  32.893   3.709
65926W        W32335  43.342  24.057  11.035
65927W        W32336   5.356   2.719  10.938
65928W        W32337  42.467  33.843   2.793
65929W        W32338   7.878  32.436   1.232
65930W        W32339  33.625   4.256  13.371
65931W        W32340  42.512   6.608  12.872
65932W        W32341   0.469  39.400   4.685
65933W        W32342   7.385  10.891  13.947
65934W        W32343   1.353   3.841   4.583
65935W        W32344  40.977  38.434   4.625
65936W        W32345  11.126  32.972  14.275
65937W        W32346   1.960  38.357   4.019
65938W        W32347  22.990   9.462  11.508
65939W        W32348  19.789  36.418  12.769
65940W        W32349  23.726  42.984   4.277
65941W        W32350  21.948  35.572   3.315
65942W        W32351  44.739  18.780  14.406
65943W        W32352  15.305   0.855  13.324
65944W        W32353   5.301  18.866  12.979
65945W        W32354  40.999   5.679   1.228
65946W        W32355  35.945  13.815   1.632
65947W        W32356  42.338  40.581  12.553
65948W        W32357  37.433   4.824   5.157
65949W        W32358  14.447   4.646   4.453
65950W        W32359   7.346   5.277   0.905
65951W        W32360  44.037   0.439   4.199
65952W        W32361  32.098   7.511  14.697
65953W        W32362  29.354  11.593   0.614
65954W        W32363  38.010  15.024  13.545
65955W        W32364  22.422   7.142  12.561
65956W        W32365  10.037  10.303  10.575
65957W        W32366  38.272  17.651  13.612
65958W        W32367  42.451  29.308  10.888
65959W        W32368  12.114  21.244  10.065
65960W        W32369  19.712  24.231   0.859
65961W        W32370  37.954  12.606   4.523
65962W        W32371   5.452   2.882  13.954
65963W        W32372  22.449  11.698  14.968
65964W        W32373  12.835  36.058  12.098
65965W        W32374  22.876  35.541  13.686
65966W        W32375  17.678   1.298   4.687
65967W        W32376  30.130  35.080  10.699
65968W        W32377  23.645  17.048  13.697
65969W        W32378  24.889  40.908  11.591
65970W        W32379  17.017  36.361  11.537
65971W        W32380  29.407  31.550   3.796
65972W        W32381  20.059  40.311   2.252
65973W        W32382   6.174  36.877   3.813
65974W        W32383  13.056   5.430  11.138
65975W        W32384  31.887  21.645   1.720
65976W        W32385  23.821  41.929   0.828
65977W        W32386  33.503  35.797  11.076
65978W        W32387  13.788   6.718  12.271
65979W        W32388   6.342   9.169   3.784
65980W        W32389  15.051  42.911   1.621
65981W        W32390  36.274  33.137  10.745
65982W        W32391  35.381   3.222  13.363
65983W        W32392   3.391  17.757   3.175
65984W        W32393  32.996   8.884   0.424
65985W        W32394  40.446   1.834  11.004
65986W        W32395  23.708  26.929  12.968
65987W        W32396  32.459  15.716   2.795
65988W        W32397  35.822  18.544  12.535
65989W        W32398   3.845   1.242   4.625
65990W        W32399  21.220  35.429  12.105
65991W        W32400  20.940  31.367   2.645
65992W        W32401   4.462  43.186   3.266
65993W        W32402  29.374  39.793  14.125
65994W        W32403  11.395  37.895   2.191
65995W        W32404   9.418   7.093  11.590
65996W        W32405   2.434   6.248  13.895
65997W        W32406  33.793   1.733  11.481
65998W        W32407   6.391   2.715   3.200
65999W        W32408  37.890   4.519  11.946
66000W        W32409  35.423   7.256   4.400
66001W        W32410  16.872   5.254  14.914
66002W        W32411  16.805  30.116  14.908
66003W        W32412  40.873   2.763  12.650
66004W        W32413  24.491  19.634   4.383
66005W        W32414  28.173  29.592  11.552
66006W        W32415  35.078  16.056   0.310
66007W        W32416   4.687  14.801   4.099
66008W        W32417   3.153  41.240   2.181
66009W        W32418  18.109  27.935   1.885
66010W        W32419  38.534  12.797  14.993
66011W        W32420  38.332  36.577   3.741
66012W        W32421   5.090  34.689  12.913
66013W        W32422  30.498  22.316   2.183
66014W        W32423   8.707  41.926   4.355
66015W        W32424  33.104  20.165  11.583
66016W        W32425  12.175  10.350   3.121
66017W        W32426  23.536  41.792   0.431
66018W        W32427  18.129  31.163   2.193
66019W        W32428  17.265  39.368   1.391
66020W        W32429  22.146  12.658  14.452
66021W        W32430  29.988  30.776   2.583
66022W        W32431  40.016  30.013  12.432
66023W        W32432  21.356   3.022   2.425
66024W        W32433   1.797  23.215  12.871
66025W        W32434   5.376   0.045  14.015
66026W        W32435   0.347   9.969   2.978
66027W        W32436  38.687   4.948  10.443
66028W        W32437  18.122  37.118  11.195
66029W        W32438   2.825   5.949  11.682
66030W        W32439  13.570  31.606  14.818
66031W        W32440  13.342  33.368   2.819
66032W        W32441   2.215  39.123   2.053
66033W        W32442  17.109   4.772   4.106
66034W        W32443   0.804  21.604  11.173
66035W        W32444  13.826   4.342  14.053
66036W        W32445  10.317  34.154  11.150
66037W        W32446  39.520  38.865  12.199
66038W        W32447  26.466  22.595  13.384
66039W        W32448  24.257   0.669  13.568
66040W        W32449  21.626   9.686   0.837
66041W        W32450  29.044  27.694  12.759
66042W        W32451  33.307  28.297   1.791
66043W        W32452  33.527  27.020   2.770
66044W        W32453  29.238  33.556   4.790
66045W        W32454  30.615  18.148   4.269
66046W        W32455  10.644   8.747  11.043
66047W        W32456  28.282  17.306  14.844
66048W        W32457   7.672  17.849  14.426
66049W        W32458  32.487  40.559  13.858
66050W        W32459  25.871  10.829  11.615
66051W        W32460  22.084  43.450  10.494
66052W        W32461  19.986  36.971  12.996
66053W        W32462   5.010  21.666  12.550
66054W        W32463  31.238  24.146   3.301
66055W        W32464  33.635  33.768   4.253
66056W        W32465  32.815  37.458  11.611
66057W        W32466  11.790  13.927  12.904
66058W        W32467  38.474  32.559  13.388
66059W        W32468  18.490   0.746  11.176
66060W        W32469   4.391  37.039  10.635
66061W        W32470   9.615  17.247   4.215
66062W        W32471  32.879  11.359  13.871
66063W        W32472  32.075   4.736  11.990
66064W        W32473  14.967  17.678   0.714
66065W        W32474  39.840  33.528   2.899
66066W        W32475  41.526  38.083   0.895
66067W        W32476  34.224  42.331  10.674
66068W        W32477  43.900   1.319   4.535
66069W        W32478  27.006  32.573  12.646
66070W        W32479  38.859  18.357  14.677
66071W        W32480  37.508  23.301   2.301
66072W        W32481  25.711  10.140  12.028
66073W        W32482  14.159  33.179   1.662
66074W        W32483   2.581  42.480  13.810
66075W        W32484  19.503  21.417   2.842
66076W        W32485  32.572  44.224  12.362
66077W        W32486  30.209  30.487   2.210
66078W        W32487   8.474  26.201   2.387
66079W        W32488   1.774  21.508  10.588
66080W        W32489  27.203   5.728  12.005
66081W        W32490  28.108  23.927   2.861
66082W        W32491  28.057  17.736  10.701
66083W        W32492  23.329  35.906   4.567
66084W        W32493  41.562  40.087  11.555
66085W        W32494  22.076  44.495  12.951
66086W        W32495  16.308   2.672   2.418
66087W        W32496  35.808  44.459   3.890
66088W        W32497   6.418  26.747   3.634
66089W        W32498  34.997   4.218   0.726
66090W        W32499  39.047  10.178   2.463
66091W        W32500  19.966  20.774   0.433
66092W        W32501   8.827  10.343   1.880
66093W        W32502  34.319  12.664   3.720
66094W        W32503  12.233  32.353  12.966
66095W        W32504  16.623  43.716  11.076
66096W        W32505  14.341   1.474  14.946
66097W        W32506  40.509   7.499   4.826
66098W        W32507  28.670  42.298   1.406
66099W        W32508  36.235  30.624  11.139
66100W        W32509   9.196   7.921  12.508
66101W        W32510  14.982  32.466  11.985
66102W        W32511  32.429  11.647  10.793
66103W        W32512  44.936  28.936  12.892
66104W        W32513  43.179  15.607  10.253
66105W        W32514   6.374  36.456  12.459
66106W        W32515  33.465  32.335  10.509
66107W        W32516  14.017   7.176  11.950
66108W        W32517  43.835  40.453   3.603
66109W        W32518  30.644  39.045   0.391
66110W        W32519  14.001  44.830   2.061
66111W        W32520  44.774  10.741  11.727
66112W        W32521   0.950  12.409  12.294
66113W        W32522  18.131  39.898  10.478
66114W        W32523  17.776  30.130   1.630
66115W        W32524  26.181  14.094  13.434
66116W        W32525  27.375  22.081   2.556
66117W        W32526  22.842  20.199  12.179
66118W        W32527  10.617   8.192  11.514
66119W        W32528  36.442  16.292   1.384
66120W        W32529  42.047  33.977  14.023
66121W        W32530  12.814  32.378   3.230
66122W        W32531  11.788  10.413  12.786
66123W        W32532  40.518  43.039  13.474
66124W        W32533  19.231  13.199  12.095
66125W        W32534  14.299  44.220  12.601
66126W        W32535  28.152  34.219  11.028
66127W        W32536  25.774  31.961   1.671
66128W        W32537   5.329   4.739  12.550
66129W        W32538  17.326  36.991   3.248
66130W        W32539  43.873  32.884   2.382
66131W        W32540   2.215  38.436  14.637
66132W        W32541   7.092  12.740   1.191
66133W        W32542  38.426   7.480  13.971
66134W        W32543  38.562  21.649   4.920
66135W        W32544  35.573  43.152   4.123
66136W        W32545  26.141  24.958   5.083
66137W        W32546   3.650  42.112   0.944
66138W        W32547   4.321  30.854   3.670
66139W        W32548  20.010   9.385   4.473
66140W        W32549  44.917  27.496   3.067
66141W        W32550  35.527  13.902  12.528
66142W        W32551   3.501  43.214  10.402
66143W        W32552  29.964  15.210  12.473
66144W        W32553  37.475  35.517   0.289
66145W        W32554   9.360  10.892  14.514
66146W        W32555  21.055  19.274   4.384
66147W        W32556   6.140  35.955   2.222
66148W        W32557  14.683  12.062  14.916
66149W        W32558  12.684  12.959  11.228
66150W        W32559  43.522   4.245  11.992
66151W        W32560  28.340  12.286  12.045
66152W        W32561  13.686   6.954  13.117
66153W        W32562  13.296   5.529   2.833
66154W        W32563   1.476  18.777   2.901
66155W        W32564  41.831  44.154   3.826
66156W        W32565  40.324   2.044  12.953
66157W        W32566  15.784  28.153   3.686
66158W        W32567   1.106  23.169  13.467
66159W        W32568  35.102  19.954  11.655
66160W        W32569  19.313  22.498   0.929
66161W        W32570  26.728   8.888  14.206
66162W        W32571   1.230   5.790  11.248
66163W        W32572  36.040  16.794   3.948
66164W        W32573  21.139  38.337   0.300
66165W        W32574  31.157  14.665   4.978
66166W        W32575   5.388  35.610   4.617
66167W        W32576  10.321  11.062   2.664
66168W        W32577  28.654   4.424   1.244
66169W        W32578   3.161  39.300   3.564
66170W        W32579   8.385   6.965   1.597
66171W        W32580  41.132   4.773   0.171
66172W        W32581  32.619  33.419  11.023
66173W        W32582  43.331  44.663   4.848
66174W        W32583  26.895   5.802  11.106
66175W        W32584  44.086  34.939   0.866
66176W        W32585  17.671  28.224   3.798
66177W        W32586  16.269   6.931  10.843
66178W        W32587  15.296  28.359   4.602
66179W        W32588  12.157  29.540  12.509
66180W        W32589  26.409  30.906   1.298
66181W        W32590   6.995  41.601  10.806
66182W        W32591   7.216  20.257  10.503
66183W        W32592  27.174  37.235  14.719
66184W        W32593   9.043  27.981  12.043
66185W        W32594  33.121  36.545  12.460
66186W        W32595  10.425  43.074   2.511
66187W        W32596  15.668  33.876   2.906
66188W        W32597  12.690  36.423   4.612
66189W        W32598  17.971   0.064   4.155
66190W        W32599  27.917  14.366   2.246
66191W        W32600  26.685  17.536   4.743
66192W        W32601  14.122  35.446   3.739
66193W        W32602  29.353  16.026  12.605
66194W        W32603  41.847  11.265   1.453
66195W        W32604   3.000  26.518   0.787
66196W        W32605  43.245  30.945  14.419
66197W        W32606  42.673  35.661   3.810
66198W        W32607  33.838  17.105   1.711
66199W        W32608  33.423  21.457   9.726
66200W        W32609  44.229  35.149  11.757
66201W        W32610  24.965  44.510   3.305
66202W        W32611  11.255  26.014   2.342
66203W        W32612  37.814  37.184  14.478
66204W        W32613  20.485  18.098   2.466
66205W        W32614  16.512  12.011  14.906
66206W        W32615  18.684  23.979   1.073
66207W        W32616  29.961  28.173  13.175
66208W        W32617  38.037  38.063  12.932
66209W        W32618   4.959  37.621   0.433
66210W        W32619   2.701  18.703   2.204
66211W        W32620  18.486  12.802  11.943
66212W        W32621  12.698  27.958   4.944
66213W        W32622   3.180  36.298   1.882
66214W        W32623  35.857  20.151   0.255
66215W        W32624  32.556  26.504   1.552
66216W        W32625  35.777  35.582   2.748
66217W        W32626  20.233   7.673  10.757
66218W        W32627   8.363  23.165   0.186
66219W        W32628  25.751   4.345  13.960
66220W        W32629   1.822  27.087   2.367
66221W        W32630   9.189  31.011   3.584
66222W        W32631  33.539   1.280   0.942
66223W        W32632   9.691   6.586   1.589
66224W        W32633   2.270  41.359  13.514
66225W        W32634  16.066  13.682   2.221
66226W        W32635  16.117  16.082  11.604
66227W        W32636  36.897  36.979  14.959
66228W        W32637  16.385  28.937   1.386
66229W        W32638   3.911  15.274   1.464
66230W        W32639  21.280  39.608  12.821
66231W        W32640  42.961  36.148   0.212
66232W        W32641  16.297  20.331   4.266
66233W        W32642  21.161  27.270   2.343
66234W        W32643   1.722  32.125  14.523
66235W        W32644  25.867  17.238  12.389
66236W        W32645  30.679   7.744   2.409
66237W        W32646   8.882  23.803   4.988
66238W        W32647  29.926  25.243  14.514
66239W        W32648   1.365  26.181  11.649
66240W        W32649  27.949  39.995   2.212
66241W        W32650   5.042  26.763   4.552
66242W        W32651  42.064  13.177   2.942
66243W        W32652  21.650  23.085   5.438
66244W        W32653  14.138   1.032   3.834
66245W        W32654  23.713  32.339   3.244
66246W        W32655  11.187   3.572  14.337
66247W        W32656   8.811   4.433  10.650
66248W        W32657  30.660  31.414  14.986
66249W        W32658  16.288  29.809  12.159
66250W        W32659   9.183   6.690  13.934
66251W        W32660  43.883  25.125  14.956
66252W        W32661  38.858  18.514   1.352
66253W        W32662  24.248  20.234  10.500
66254W        W32663  34.145  11.295  11.944
66255W        W32664  44.418  28.018   5.068
66256W        W32665  37.328  30.264   0.774
66257W        W32666  25.145  44.356   0.399
66258W        W32667  33.854  11.334   4.197
66259W        W32668  19.220   2.462  10.395
66260W        W32669  11.821   9.072  12.473
66261W        W32670  22.116  24.765   2.287
66262W        W32671  33.691  39.136   4.964
66263W        W32672   5.924  20.236  11.033
66264W        W32673  39.820  26.125  11.646
66265W        W32674  37.385  38.399  14.382
66266W        W32675   1.428  11.028   5.030
66267W        W32676  25.665  16.232  13.062
66268W        W32677  36.386  24.948   0.393
66269W        W32678  38.319  39.854   2.818
66270W        W32679  37.963  14.067  13.556
66271W        W32680  38.828  36.594  12.088
66272W        W32681  10.714  19.265  12.978
66273W        W32682   9.314  17.829   2.804
66274W        W32683   8.120   7.903   3.092
66275W        W32684  27.660   9.125   0.793
66276W        W32685  24.604   7.295   2.835
66277W        W32686  42.505  20.764  13.044
66278W        W32687  25.176  21.299   1.727
66279W        W32688  25.583   1.560   0.530
66280W        W32689  20.532   5.632   1.255
66281W        W32690   0.471  27.567  11.209
66282W        W32691  11.179  42.596   3.014
66283W        W32692   9.673  36.115   3.504
66284W        W32693  43.210  29.446   0.897
66285W        W32694   4.303  14.219   0.972
66286W        W32695  17.547  22.061   2.639
66287W        W32696  34.882  14.244   1.764
66288W        W32697   4.896   7.302  10.039
66289W        W32698  31.940  39.932   0.299
66290W        W32699  24.814  23.946   3.662
66291W        W32700  25.782  37.537   3.657
66292W        W32701  32.610   5.270  12.528
66293W        W32702   9.178  25.278  10.371
66294W        W32703  24.598  19.792   4.871
66295W        W32704  12.601  13.989   3.417
66296W        W32705  30.981  15.408  13.514
66297W        W32706  39.763  33.629   5.023
66298W        W32707   8.641   5.513  13.272
66299W        W32708  14.143  14.737  12.477
66300W        W32709  13.819  24.502   0.810
66301W        W32710   0.418  13.524   2.475
66302W        W32711  20.768   4.712   3.631
66303W        W32712  32.149  18.110  11.582
66304W        W32713  30.412   2.083   2.541
66305W        W32714  29.414  37.032   3.850
66306W        W32715  40.290  44.480  10.803
66307W        W32716  33.892  42.814   0.514
66308W        W32717  35.382   5.746  13.934
66309W        W32718   3.844  12.654  11.850
66310W        W32719   1.396   4.718  13.497
66311W        W32720  10.196  23.467   3.905
66312W        W32721  23.472   6.524  12.083
66313W        W32722  38.624  18.794   1.753
66314W        W32723  32.619  31.864   2.368
66315W        W32724  24.278   0.484  12.007
66316W        W32725  36.542  19.194  13.502
66317W        W32726   2.243  12.070   0.397
66318W        W32727  31.612  29.492   4.499
66319W        W32728  29.481  21.603  14.865
66320W        W32729  39.401   7.970  10.338
66321W        W32730  20.578   1.937   4.488
66322W        W32731  39.503   7.715   3.419
66323W        W32732  16.137   2.006   0.793
66324W        W32733   1.871  21.754  12.539
66325W        W32734  12.782  28.187   0.749
66326W        W32735  13.167  35.920   0.859
66327W        W32736  23.756   1.858  12.366
66328W        W32737  18.640  21.045  14.420
66329W        W32738  44.350  20.700  12.366
66330W        W32739  11.652  12.172   3.165
66331W        W32740   2.682  40.500  12.535
66332W        W32741  35.994   9.415   1.753
66333W        W32742  16.450   0.396  14.216
66334W        W32743  10.699  13.310  11.604
66335W        W32744   1.065   5.829  10.765
66336W        W32745  19.291   3.953   3.299
66337W        W32746  26.550   8.926  11.928
66338W        W32747   6.792  32.919  14.340
66339W        W32748  19.048  40.865   3.916
66340W        W32749   0.875  28.582   2.228
66341W        W32750   6.107  17.764   1.975
66342W        W32751   5.748  27.130  14.975
66343W        W32752  26.475  30.003  11.536
66344W        W32753  16.274  12.791   1.432
66345W        W32754  42.189  36.831   1.927
66346W        W32755  16.616   9.146   0.129
66347W        W32756   0.824  26.940   0.258
66348W        W32757  13.288   3.701   3.161
66349W        W32758   5.813  22.455  11.588
66350W        W32759  34.844  31.889  12.419
66351W        W32760   9.886  35.979  13.532
66352W        W32761   0.734   6.093   4.157
66353W        W32762  29.028   4.741   9.799
66354W        W32763  32.403   0.108   1.314
66355W        W32764   9.287  18.315   1.049
66356W        W32765  14.660  43.286  13.172
66357W        W32766  25.420   4.370   4.330
66358W        W32767  23.002  18.275  14.794
66359W        W32768  28.892   9.314  13.001
66360W        W32769   3.728  23.138  11.154
66361W        W32770  40.074  37.816   3.598
66362W        W32771  12.638  40.815   5.192
66363W        W32772  12.118  30.407  11.976
66364W        W32773  22.467  31.319   0.878
66365W        W32774   9.123  30.848   2.707
66366W        W32775  15.588  38.613   0.384
66367W        W32776  22.757   8.352  12.995
66368W        W32777   8.948  30.765  10.875
66369W        W32778  44.182   8.141  10.548
66370W        W32779  23.645  23.024  14.064
66371W        W32780  21.242  34.791  14.050
66372W        W32781  13.634  31.890   0.645
66373W        W32782   3.808  41.876   1.404
66374W        W32783  15.092  10.088   1.228
66375W        W32784  19.765   1.206   2.320
66376W        W32785   4.414  36.016  14.865
66377W        W32786  40.913  17.388   3.067
66378W        W32787  41.549  36.921  10.331
66379W        W32788  23.505   0.332  10.992
66380W        W32789   0.318   5.369  13.433
66381W        W32790   5.379  28.131  11.128
66382W        W32791  21.877   7.349  13.920
66383W        W32792  16.873  43.880  14.359
66384W        W32793  29.062  42.237   3.242
66385W        W32794  34.326  11.835   1.223
66386W        W32795  39.160  39.452  11.220
66387W        W32796  10.790  40.781   2.665
66388W        W32797  15.263  18.083   4.312
66389W        W32798  33.554  21.260   2.863
66390W        W32799  10.802   3.685   3.665
66391W        W32800   0.768  29.312   1.283
66392W        W32801  27.069   9.620   0.850
66393W        W32802  11.243  11.118  14.174
66394W        W32803  19.436  27.729  13.815
66395W        W32804  13.584  41.995   3.193
66396W        W32805  33.720  39.153  14.732
66397W        W32806  30.516  31.680   1.813
66398W        W32807  14.771   9.776   1.914
66399W        W32808  16.239  15.075   4.730
66400W        W32809  34.468  36.133   4.683
66401W        W32810  44.809   2.715  13.986
66402W        W32811  41.750  28.723  11.211
66403W        W32812  29.195  13.136  14.993
66404W        W32813   0.420   3.384   0.936
66405W        W32814  37.167  22.083  13.186
66406W        W32815   6.137   2.328   3.421
66407W        W32816  32.928  24.196  14.082
66408W        W32817   6.703  31.108   0.953
66409W        W32818  20.160  42.576  13.740
66410W        W32819  32.435  20.138  11.016
66411W        W32820  14.941  18.808   5.343
66412W        W32821  38.057  34.849   1.393
66413W        W32822   0.460  17.179   4.009
66414W        W32823   8.568  40.784   0.006
66415W        W32824  27.260  23.493   2.651
66416W        W32825  35.401  19.997  14.761
66417W        W32826  39.500  20.236   4.266
66418W        W32827  12.316   6.365  13.902
66419W        W32828  11.223   7.334  11.832
66420W        W32829  43.337  29.107  11.508
66421W        W32830  21.006  15.729  11.765
66422W        W32831  34.503  12.297   4.934
66423W        W32832  15.097  31.176  14.045
66424W        W32833   8.949  17.660  10.725
66425W        W32834   1.255  29.124  14.869
66426W        W32835   1.864  31.464   0.743
66427W        W32836   1.400  39.851   3.695
66428W        W32837  41.519  34.385   2.793
66429W        W32838   2.490  21.268   1.843
66430W        W32839   4.184   0.483   4.670
66431W        W32840  13.087   7.464   0.173
66432W        W32841  20.053  36.853   3.909
66433W        W32842  10.357  40.495   4.195
66434W        W32843  37.549   7.311  12.488
66435W        W32844  39.940  19.719  11.536
66436W        W32845  10.339   7.180   4.045
66437W        W32846  23.391  32.133   2.730
66438W        W32847  27.435   2.955  13.563
66439W        W32848  16.670  16.455  13.401
66440W        W32849  25.829   2.895   4.764
66441W        W32850  11.648  39.375   3.240
66442W        W32851  20.292   9.172   2.246
66443W        W32852  27.258   7.232   0.371
66444W        W32853  41.399  40.377  11.020
66445W        W32854  16.183  18.202  13.052
66446W        W32855   3.172   5.883   3.129
66447W        W32856  13.466  24.032   1.208
66448W        W32857  41.341  29.041  11.396
66449W        W32858  27.129   5.309   2.369
66450W        W32859  19.240  24.042  13.378
66451W        W32860  37.389  38.543   0.352
66452W        W32861  17.192  16.461   2.343
66453W        W32862  23.250  31.386   3.864
66454W        W32863  11.306   5.865   1.942
66455W        W32864  10.370  35.687  10.693
66456W        W32865  10.650  44.923   0.958
66457W        W32866  27.112  13.061  11.524
66458W        W32867  21.119  33.062  10.731
66459W        W32868  43.530  16.367  10.570
66460W        W32869  38.113  14.865  11.666
66461W        W32870  22.228  19.600  10.889
66462W        W32871   1.756  44.993  14.816
66463W        W32872  37.877   0.689   2.484
66464W        W32873   0.458  33.362   1.409
66465W        W32874  43.800  18.958   2.190
66466W        W32875  31.577  31.464  13.114
66467W        W32876  23.607  14.212   3.635
66468W        W32877  24.534  10.842  11.449
66469W        W32878  14.433  11.871  13.527
66470W        W32879  18.620  41.885  12.512
66471W        W32880  38.859  41.514  10.233
66472W        W32881  19.005  14.800  14.502
66473W        W32882  14.322  17.835  14.072
66474W        W32883  44.493  12.176   5.038
66475W        W32884  19.582  17.742   3.170
66476W        W32885  22.885  32.672  13.813
66477W        W32886   1.389  30.890  14.004
66478W        W32887  30.588  39.585   0.357
66479W        W32888   5.647   5.324  13.864
66480W        W32889   1.407  28.150   2.599
66481W        W32890   5.270   1.720  14.296
66482W        W32891  39.935  43.600   2.873
66483W        W32892  24.691  16.218   4.619
66484W        W32893  43.056  20.044   2.472
66485W        W32894  43.907   0.332   0.269
66486W        W32895   5.269  31.139   3.343
66487W        W32896  20.242   8.757   2.921
66488W        W32897  39.937   3.885  14.705
66489W        W32898  30.197  18.497   0.511
66490W        W32899   3.291  26.910  11.288
66491W        W32900   9.510  16.133   4.425
66492W        W32901  16.552  23.101  14.560
66493W        W32902  11.278  25.923   3.263
66494W        W32903  17.415  29.085  11.566
66495W        W32904  34.630  23.035   3.359
66496W        W32905  29.101   2.453  12.946
66497W        W32906  38.371  20.774  14.361
66498W        W32907  14.593  38.380  14.872
66499W        W32908  18.868  31.178  11.049
66500W        W32909   6.457  24.084  13.554
66501W        W32910  29.499  28.471   0.747
66502W        W32911   2.978  20.966  12.589
66503W        W32912   0.470  39.864   3.680
66504W        W32913   6.100  22.161   5.024
66505W        W32914   2.775   1.453   1.714
66506W        W32915  17.558   1.525  11.642
66507W        W32916   1.503   9.302   5.711
66508W        W32917  43.438  14.671   3.248
66509W        W32918  23.572  19.285  13.362
66510W        W32919   5.906  44.427   2.405
66511W        W32920  29.125  21.626  13.059
66512W        W32921   9.387  36.427   3.827
66513W        W32922  15.347  11.204   2.594
66514W        W32923   9.822  39.117   3.443
66515W        W32924  16.563   0.404   1.895
66516W        W32925  25.567  10.192   0.350
66517W        W32926   9.331  13.696  12.169
66518W        W32927  27.642   1.532   3.141
66519W        W32928  22.011  42.470   3.153
66520W        W32929   0.306  12.148   3.883
66521W        W32930   9.299   5.175   2.205
66522W        W32931  26.022  44.343  13.112
66523W        W32932   4.224  13.727  12.549
66524W        W32933   1.295   4.859  11.115
66525W        W32934  25.278  26.636   9.888
66526W        W32935  23.644   4.493   2.893
66527W        W32936   3.156   7.321   2.759
66528W        W32937  26.634   9.898  12.056
66529W        W32938  27.588  17.766  12.823
66530W        W32939  38.012  34.516  13.780
66531W        W32940  14.683  18.339   2.432
66532W        W32941  13.343  28.991   9.886
66533W        W32942   6.353  31.715  12.999
66534W        W32943  13.360  41.496   1.405
66535W        W32944   1.011   4.997   4.011
66536W        W32945  11.874  21.690  10.195
66537W        W32946   6.446  35.193  14.568
66538W        W32947  13.722  29.924   3.577
66539W        W32948   0.250  14.773  12.369
66540W        W32949  37.743  39.406  13.126
66541W        W32950  14.544  25.434   0.828
66542W        W32951  40.862  10.765   3.828
66543W        W32952  29.756  16.311  11.880
66544W        W32953   8.912  28.145   2.689
66545W        W32954   9.828  13.207   3.172
66546W        W32955  29.022   0.941   3.553
66547W        W32956  37.591  32.848   0.257
66548W        W32957   5.290   6.753  14.003
66549W        W32958   3.924  33.447  12.578
66550W        W32959  15.096  36.594   3.641
66551W        W32960   4.156   0.903  11.564
66552W        W32961  10.146  44.151   0.826
66553W        W32962  43.906   0.558   3.717
66554W        W32963   9.964   9.471   4.061
66555W        W32964  19.455  42.065  13.362
66556W        W32965  28.840  43.494   3.620
66557W        W32966  16.691  21.147   3.242
66558W        W32967  11.429  19.405   2.387
66559W        W32968  42.065   6.646   3.106
66560W        W32969  11.198  34.436  11.578
66561W        W32970  24.062   8.628  10.687
66562W        W32971  19.021  43.962  12.029
66563W        W32972  12.296  32.486  10.178
66564W        W32973  31.938  12.235   2.708
66565W        W32974  33.237  32.681   3.741
66566W        W32975  27.719  38.466   3.672
66567W        W32976  11.247  36.762  10.282
66568W        W32977  33.202   9.309  12.572
66569W        W32978  15.367  15.452  13.041
66570W        W32979  41.871  20.125  12.070
66571W        W32980  21.841  13.203  11.588
66572W        W32981  20.200   5.312  12.051
66573W        W32982  29.315  10.780  13.170
66574W        W32983  18.460   9.735   3.584
66575W        W32984  21.782  32.238   2.384
66576W        W32985  31.522  22.477   3.189
66577W        W32986  23.246  19.345  12.766
66578W        W32987  44.818  23.611   3.765
66579W        W32988  37.154   1.892  12.442
66580W        W32989  20.526  24.524  12.932
66581W        W32990   3.275   6.918  11.943
66582W        W32991   6.403  14.806   3.740
66583W        W32992   3.836  40.929   0.216
66584W        W32993   6.199  32.938  10.673
66585W        W32994  36.563  15.686  11.228
66586W        W32995  41.665  16.682   4.541
66587W        W32996  33.105   3.223  13.453
66588W        W32997  43.824  22.012  14.092
66589W        W32998   9.846  32.695   2.097
66590W        W32999  30.450   1.761  10.242
66591W        W33000   9.145  27.516  13.702
66592W        W33001  16.681   7.258  10.387
66593W        W33002  25.775  21.550  11.409
66594W        W33003  43.160   3.670   2.217
66595W        W33004  35.674  24.927   3.892
66596W        W33005  20.505   3.787   1.813
66597W        W33006  27.058  40.288   2.716
66598W        W33007  39.710   0.012  11.529
66599W        W33008  25.199  23.371   5.020
66600W        W33009  42.279  26.431   1.941
66601W        W33010  16.027   7.728  14.929
66602W        W33011  17.706  26.548  14.250
66603W        W33012  26.080  25.977  12.056
66604W        W33013   4.140  38.021  13.607
66605W        W33014  44.538  43.360   2.645
66606W        W33015  16.628  10.276   0.999
66607W        W33016  11.708  44.862   3.862
66608W        W33017  43.268  40.459   3.112
66609W        W33018  14.244   3.741   1.905
66610W        W33019   9.456  43.374   2.104
66611W        W33020  15.874   6.499  13.122
66612W        W33021  21.049   8.485   0.394
66613W        W33022  32.314  25.252  14.411
66614W        W33023  44.326  26.088   0.563
66615W        W33024  38.772  29.463   3.149
66616W        W33025  38.723   4.392  14.491
66617W        W33026  21.145   1.047   4.068
66618W        W33027  32.829  18.436  14.933
66619W        W33028  20.626  20.295  12.974
66620W        W33029  19.578   6.900   3.525
66621W        W33030  20.638  10.420   1.138
66622W        W33031  41.634  23.290  13.099
66623W        W33032  31.346  29.619   4.064
66624W        W33033  12.092  21.050   5.470
66625W        W33034   0.011   6.505   1.652
66626W        W33035  12.620  20.786   1.342
66627W        W33036   6.653  14.593   2.640
66628W        W33037  32.844  19.112   1.299
66629W        W33038  12.868  23.024  13.040
66630W        W33039  12.934   3.978   1.760
66631W        W33040   9.115  18.513  11.106
66632W        W33041  14.408  18.217  10.646
66633W        W33042  20.157  21.951   1.012
66634W        W33043  14.798   6.883   0.319
66635W        W33044   2.032  10.507   5.062
66636W        W33045  31.135  34.246  12.431
66637W        W33046   5.670  31.044  13.886
66638W        W33047  14.367  31.667  14.417
66639W        W33048  29.611   2.018   0.492
66640W        W33049  20.560  41.182  13.351
66641W        W33050  15.285  10.873  10.578
66642W        W33051  36.809  35.129  13.937
66643W        W33052  30.414  15.721  11.370
66644W        W33053  25.139  10.318   2.388
66645W        W33054  28.914  24.174   3.578
66646W        W33055   7.549   0.027  14.709
66647W        W33056   7.290   7.195   3.524
66648W        W33057  16.997  30.548  11.551
66649W        W33058  12.325   5.782   1.812
66650W        W33059  42.788  36.730   2.238
66651W        W33060  43.471  31.132  14.843
66652W        W33061  32.493  28.528   2.317
66653W        W33062  25.507  38.817  14.723
66654W        W33063  35.102   5.625   3.181
66655W        W33064  35.044  18.090  12.880
66656W        W33065  30.757  26.026   1.863
66657W        W33066  41.075   5.855  13.515
66658W        W33067   9.467  43.838  10.577
66659W        W33068   6.322  26.260  10.728
66660W        W33069  35.451  41.867   1.117
66661W        W33070   4.513  18.172  12.060
66662W        W33071  11.417  37.459  13.014
66663W        W33072  40.498  16.088  12.902
66664W        W33073  18.762  18.202   4.655
66665W        W33074  44.905   7.341  12.072
66666W        W33075  22.570  40.897   0.266
66667W        W33076  11.244  36.385   0.706
66668W        W33077   0.953   8.263  13.065
66669W        W33078   8.334  44.121   0.713
66670W        W33079   5.342  10.397   2.896
66671W        W33080  23.511  10.288   1.950
66672W        W33081  17.914  42.267  12.052
66673W        W33082   7.324  24.555  12.453
66674W        W33083  15.725  15.519  13.491
66675W        W33084  25.221  35.968   0.230
66676W        W33085  24.132  34.669  11.743
66677W        W33086  44.434  10.533   5.449
66678W        W33087  13.851  31.455   0.804
66679W        W33088  25.567   0.347   1.444
66680W        W33089  36.470  33.478   0.953
66681W        W33090  17.266  38.684  11.211
66682W        W33091  31.919  30.169   4.532
66683W        W33092  32.776  11.784   4.636
66684W        W33093  41.414  34.632  11.189
66685W        W33094   5.432  22.637   1.199
66686W        W33095  28.010  17.746  14.775
66687W        W33096  19.016  40.216   0.474
66688W        W33097  12.032  29.248  14.668
66689W        W33098   6.777  14.330  13.624
66690W        W33099   4.809  30.855   3.263
66691W        W33100  43.318  12.832  10.614
66692W        W33101  19.258  30.784   4.114
66693W        W33102  10.867  13.360   2.481
66694W        W33103  10.557  38.439  11.316
66695W        W33104   1.261  39.208  13.062
66696W        W33105   0.918  31.541  14.732
66697W        W33106  38.015  23.460  13.883
66698W        W33107  32.630  36.507   1.427
66699W        W33108  27.444  30.397  13.764
66700W        W33109   8.167  25.461   2.795
66701W        W33110  41.581  27.443  14.596
66702W        W33111   9.222   0.297   4.092
66703W        W33112  44.291  10.612   3.477
66704W        W33113   2.986  24.068   1.509
66705W        W33114  30.646   2.395  13.545
66706W        W33115  29.168  26.690  14.332
66707W        W33116  37.605  10.401  12.452
66708W        W33117   7.233  12.872   0.417
66709W        W33118  35.569   7.291   1.238
66710W        W33119  44.021  43.469   3.568
66711W        W33120  41.778   5.824   1.641
66712W        W33121  21.674   2.132   2.357
66713W        W33122  24.869  34.943   4.952
66714W        W33123  11.011  23.109   1.831
66715W        W33124   1.356  17.198   4.095
66716W        W33125  35.085  18.647  12.924
66717W        W33126   1.835  13.699   0.809
66718W        W33127  10.040  32.004  11.724
66719W        W33128  28.894   7.895  10.305
66720W        W33129  23.591  10.709   1.321
66721W        W33130  30.573  21.717  10.707
66722W        W33131  43.196  24.644  12.554
66723W        W33132   7.468  14.062   0.673
66724W        W33133  43.564  33.975  14.335
66725W        W33134  43.887  35.294  14.998
66726W        W33135  19.066   5.415   3.938
66727W        W33136   8.443  11.716   0.766
66728W        W33137  33.584  38.777  14.378
66729W        W33138   8.340  44.277   2.342
66730W        W33139  42.827  42.825   1.406
66731W        W33140  41.437  19.883  11.941
66732W        W33141  27.962  21.193   9.706
66733W        W33142  11.081  23.063  11.896
66734W        W33143  25.213  22.257   2.740
66735W        W33144  36.166   5.798  13.412
66736W        W33145  30.585  17.183  13.768
66737W        W33146  36.629   4.734   4.488
66738W        W33147  44.839  15.166   3.872
66739W        W33148  36.881  16.732  14.815
66740W        W33149  28.596  26.731  12.481
66741W        W33150  18.619  18.263  14.274
66742W        W33151  42.748   0.422  14.755
66743W        W33152  23.466   3.688  12.623
66744W        W33153  42.558   4.302   0.819
66745W        W33154  33.868  19.613  13.217
66746W        W33155  22.702  20.796   3.740
66747W        W33156  14.864  19.129  13.717
66748W        W33157  10.074  16.898   3.650
66749W        W33158  19.685  12.249   4.608
66750W        W33159   0.251  21.002  12.387
66751W        W33160  26.521  35.955   1.751
66752W        W33161   0.715  24.321   0.726
66753W        W33162  15.427  44.360   2.418
66754W        W33163  21.106   6.830   2.928
66755W        W33164  42.013  21.995  11.842
66756W        W33165  32.396  17.565  12.001
66757W        W33166  14.814  20.096  11.926
66758W        W33167   4.599  12.244   3.402
66759W        W33168  30.523  28.618  12.460
66760W        W33169  27.451  18.190   4.805
66761W        W33170  29.997  37.418  14.185
66762W        W33171   3.488  37.612   0.448
66763W        W33172  35.884  28.088  11.206
66764W        W33173  36.567  24.448   0.330
66765W        W33174  16.808  34.089  13.537
66766W        W33175  34.083  35.044  10.733
66767W        W33176  14.740  28.224   4.331
66768W        W33177   0.258  42.238  14.952
66769W        W33178  21.192  24.399   0.979
66770W        W33179  40.323  35.390  12.521
66771W        W33180  20.508  36.639   3.220
66772W        W33181  40.349  30.174   3.596
66773W        W33182  20.115  19.371   4.209
66774W        W33183   4.216  10.302   4.242
66775W        W33184   6.369  44.552  11.079
66776W        W33185   9.800  12.826  11.426
66777W        W33186   5.985  12.634   4.908
66778W        W33187   8.706  20.735  10.638
66779W        W33188  44.777   2.790   2.152
66780W        W33189  13.168  34.515   3.613
66781W        W33190  15.359  23.543   2.615
66782W        W33191  36.916  22.542   2.950
66783W        W33192  40.999  40.387  14.917
66784W        W33193  20.436  31.237   2.689
66785W        W33194   6.921  27.277   4.591
66786W        W33195  14.096  41.112   0.742
66787W        W33196  40.913  40.954  13.283
66788W        W33197  37.335  33.415  14.757
66789W        W33198   2.342  16.558   2.940
66790W        W33199   6.391  41.202   1.239
66791W        W33200  25.786  33.143  11.171
66792W        W33201  24.824  35.668  11.125
66793W        W33202  24.046  29.599  13.773
66794W        W33203  41.514  14.364   1.803
66795W        W33204  17.988   9.611  13.931
66796W        W33205   5.768   6.656   4.444
66797W        W33206   7.927  18.011   4.205
66798W        W33207  34.360  43.997   2.522
66799W        W33208  26.459  36.943  13.390
66800W        W33209   2.540  16.530   1.289
66801W        W33210  37.307  44.278   0.818
66802W        W33211   2.247  15.755  11.242
66803W        W33212   9.304  13.428   3.364
66804W        W33213  37.830   6.366   3.292
66805W        W33214   2.417  11.347  14.935
66806W        W33215  26.407  15.787  14.385
66807W        W33216  13.568  21.934   2.701
66808W        W33217  12.351  26.302  11.647
66809W        W33218  13.991  36.015   1.837
66810W        W33219  14.491  24.456   2.011
66811W        W33220  27.960   7.037  12.182
66812W        W33221  22.748  17.066  11.567
66813W        W33222  11.765   8.706   4.987
66814W        W33223  30.360  32.997   0.999
66815W        W33224  26.294  17.043   4.204
66816W        W33225  22.013  17.201   3.207
66817W        W33226  39.808  44.023  13.781
66818W        W33227  16.281   8.904   3.669
66819W        W33228   5.385  20.316   2.157
66820W        W33229  16.052  24.687  13.867
66821W        W33230  18.801  17.291   4.779
66822W        W33231   0.514   1.778   2.287
66823W        W33232  12.524  41.714   0.933
66824W        W33233   1.721  43.944  13.860
66825W        W33234   2.135   7.108  11.963
66826W        W33235  30.607  34.935  14.368
66827W        W33236  39.864  40.830   2.604
66828W        W33237  40.472  33.427  13.065
66829W        W33238  44.815  40.558  10.563
66830W        W33239  33.991  30.690  10.658
66831W        W33240  11.172   4.882   4.120
66832W        W33241   8.943  40.419  14.913
66833W        W33242  37.857  19.029   3.045
66834W        W33243  16.334  20.328  11.717
66835W        W33244  17.769   4.874  11.222
66836W        W33245  33.909  12.751   0.967
66837W        W33246  36.840   4.793   2.220
66838W        W33247  11.247  11.851  14.829
66839W        W33248  30.054  13.625   4.123
66840W        W33249  41.145  22.652  12.487
66841W        W33250   2.778   6.739   3.443
66842W        W33251  44.344  38.698   1.140
66843W        W33252  39.577  39.657  14.315
66844W        W33253  27.648   6.773   3.556
66845W        W33254   8.187  12.439  13.101
66846W        W33255   6.927  44.799  12.500
66847W        W33256  26.342   3.494  13.966
66848W        W33257  14.269  39.777  12.334
66849W        W33258  26.997  27.709   4.318
66850W        W33259  30.679  15.365  11.688
66851W        W33260  28.614  25.793  13.541
66852W        W33261   1.526  14.417  12.414
66853W        W33262   2.327  14.743  13.413
66854W        W33263  41.990  31.455   4.202
66855W        W33264   5.908  15.169  10.736
66856W        W33265   6.677  10.435   2.289
66857W        W33266   1.738  25.263  10.796
66858W        W33267  30.651   9.865  13.431
66859W        W33268  15.125  27.501   2.683
66860W        W33269  37.314  44.864  11.522
66861W        W33270   9.925   0.794  12.618
66862W        W33271  35.401  43.025   3.150
66863W        W33272  14.793  37.423   2.760
66864W        W33273  10.739   0.237   1.380
66865W        W33274  29.386   1.351  11.036
66866W        W33275  37.344  10.621  12.067
66867W        W33276  12.204   3.419  10.953
66868W        W33277  15.242   5.888  14.261
66869W        W33278  21.064  21.640   4.443
66870W        W33279  41.075  15.038   5.015
66871W        W33280  34.394  13.046  12.603
66872W        W33281  38.876  13.812   3.637
66873W        W33282  37.872  30.975   4.997
66874W        W33283  27.690  29.252   0.330
66875W        W33284  40.518  34.820   1.487
66876W        W33285   6.796   5.923  13.436
66877W        W33286   0.227   4.441  14.516
66878W        W33287  35.768  41.662  12.548
66879W        W33288   0.780  24.345   4.155
66880W        W33289   6.315   3.265  14.166
66881W        W33290   6.867  21.619  13.389
66882W        W33291  44.375  28.883   1.306
66883W        W33292  17.046  13.185   0.310
66884W        W33293  31.344  43.732   3.311
66885W        W33294   2.852   3.182   4.074
66886W        W33295  28.184  27.591   0.789
66887W        W33296  17.522   3.042  11.655
66888W        W33297   9.079   2.785  14.700
66889W        W33298  29.227  36.545  10.641
66890W        W33299  15.580  44.708  10.533
66891W        W33300   4.173  25.441   0.321
66892W        W33301  10.113  41.360  10.500
66893W        W33302  41.842   1.460  12.477
66894W        W33303  11.147   2.365  13.396
66895W        W33304  28.022   5.268   2.410
66896W        W33305  27.514  43.547   1.911
66897W        W33306  34.585  36.968   1.714
66898W        W33307  12.578  37.870   4.971
66899W        W33308  32.674  37.177  12.026
66900W        W33309  42.326   6.245  10.956
66901W        W33310  30.448  38.602  12.075
66902W        W33311  36.491  22.908  10.036
66903W        W33312  43.272  12.196   5.100
66904W        W33313   9.229  18.200   3.185
66905W        W33314  22.904  10.694   0.883
66906W        W33315  21.561   5.584   2.686
66907W        W33316  39.886  36.542   4.813
66908W        W33317   6.396  39.117   4.020
66909W        W33318  24.140  41.918  10.801
66910W        W33319  33.892  18.079  10.488
66911W        W33320  16.599  22.721   2.170
66912W        W33321  31.110  21.712  10.625
66913W        W33322  35.335   8.753   3.200
66914W        W33323  38.845  26.061  10.753
66915W        W33324  14.802  39.204   1.618
66916W        W33325  27.713  24.555   1.356
66917W        W33326  31.505  37.421  14.985
66918W        W33327  24.777  14.512   1.613
66919W        W33328  18.257  13.143   3.601
66920W        W33329  25.023  27.855  10.710
66921W        W33330  32.903  13.261  14.918
66922W        W33331  17.646  26.913   0.431
66923W        W33332  18.500   6.152  10.695
66924W        W33333  21.554   8.219   0.386
66925W        W33334  11.774  29.006  12.493
66926W        W33335  40.615   2.391   4.582
66927W        W33336  33.869   9.392   3.730
66928W        W33337  44.005  33.685  14.371
66929W        W33338   8.170  21.482   4.707
66930W        W33339   6.456  20.686   2.086
66931W        W33340  15.183  34.754   2.221
66932W        W33341   9.048   6.941  13.479
66933W        W33342  40.755  24.723   0.381
66934W        W33343  19.943  12.207   2.399
66935W        W33344  43.510  25.972   2.143
66936W        W33345  31.187  39.117  11.738
66937W        W33346  12.043   5.341  13.931
66938W        W33347  21.291   5.229   4.119
66939W        W33348  31.065   8.049  12.158
66940W        W33349  40.495  43.407   4.221
66941W        W33350  33.648  20.033  10.781
66942W        W33351  32.375  35.338   1.881
66943W        W33352  23.197  17.326  12.868
66944W        W33353  29.712  20.671   0.924
66945W        W33354  30.039  12.728   4.622
66946W        W33355   8.419   8.406   0.365
66947W        W33356  33.650  15.306  11.165
66948W        W33357   4.327  10.488   3.388
66949W        W33358  13.702   7.343   4.270
66950W        W33359  21.769  35.547   0.276
66951W        W33360  32.153  42.939  14.961
66952W        W33361  16.852  40.490  10.913
66953W        W33362  21.834  18.129   4.400
66954W        W33363  33.769   0.236  13.999
66955W        W33364  40.544  35.228   4.960
66956W        W33365   3.102  29.981   1.795
66957W        W33366  38.007  40.735  11.613
66958W        W33367  18.652  13.605   3.138
66959W        W33368   0.368  43.188  11.565
66960W        W33369  40.154  42.862   3.577
66961W        W33370  16.529  16.084  14.550
66962W        W33371  43.859  34.928   3.348
66963W        W33372  11.913   1.872  10.295
66964W        W33373  31.741  24.065   4.244
66965W        W33374  22.047  16.392  11.173
66966W        W33375  12.209  10.865   1.214
66967W        W33376   4.917   7.156  10.569
66968W        W33377  28.963   6.670   2.685
66969W        W33378  14.161   0.331   3.283
66970W        W33379   9.849  10.873  14.786
66971W        W33380  38.873  39.753  11.488
66972W        W33381   2.788  24.464  11.955
66973W        W33382  14.763  42.207   2.842
66974W        W33383  40.037  38.323   4.244
66975W        W33384  17.801  10.159   2.354
66976W        W33385  33.575   5.839   3.207
66977W        W33386  12.759  41.569  13.486
66978W        W33387  23.025  25.443  11.939
66979W        W33388  13.639  33.560  13.665
66980W        W33389  30.185   3.979  11.452
66981W        W33390  13.677   3.953  14.349
66982W        W33391  30.938  34.162   4.460
66983W        W33392  19.261  25.774  12.868
66984W        W33393   4.687  22.224   5.402
66985W        W33394  44.908   2.805   1.628
66986W        W33395  41.763   8.530  11.161
66987W        W33396  30.607   2.146   1.336
66988W        W33397  38.342  44.202  13.559
66989W        W33398  37.358  22.518   0.978
66990W        W33399  15.110  38.837   0.373
66991W        W33400  41.328  23.495  13.483
66992W        W33401  18.717  20.661   2.177
66993W        W33402  13.925   1.156  14.854
66994W        W33403  13.139  43.237   4.822
66995W        W33404  10.877  24.673  11.640
66996W        W33405  35.507  23.504  10.354
66997W        W33406   1.146   4.498  13.921
66998W        W33407  19.619  30.460  12.478
66999W        W33408  27.115  40.279   0.871
67000W        W33409  25.226  23.897   5.008
67001W        W33410  42.336   2.274   3.306
67002W        W33411  31.274  11.100   1.298
67003W        W33412  27.991   0.057  13.929
67004W        W33413  38.839  43.387   3.716
67005W        W33414  13.013   3.744  14.013
67006W        W33415  34.307  10.780  11.111
67007W        W33416   2.524  39.525   1.907
67008W        W33417   6.773  41.310  11.169
67009W        W33418  27.029  41.012   2.382
67010W        W33419   6.974  10.914  12.510
67011W        W33420   8.636  36.694   4.616
67012W        W33421   4.039  14.119  10.981
67013W        W33422  30.909  27.320   0.944
67014W        W33423  23.333  21.804  12.979
67015W        W33424   4.474  30.176   3.401
67016W        W33425   7.450   5.834   3.702
67017W        W33426   7.662  40.318  13.150
67018W        W33427   3.184  40.119  13.034
67019W        W33428  10.687  44.624  14.911
67020W        W33429  44.077  38.156   9.970
67021W        W33430  12.021  27.731  11.476
67022W        W33431  14.740  17.349   1.438
67023W        W33432  38.243  15.479  13.539
67024W        W33433   9.996  24.329   0.955
67025W        W33434  20.038  19.182  12.403
67026W        W33435  37.515  44.907   3.640
67027W        W33436  21.984  23.951  14.915
67028W        W33437  31.649  25.553  13.321
67029W        W33438  41.201   6.265   1.824
67030W        W33439   6.979  17.136   2.798
67031W        W33440   3.842  21.200   3.995
67032W        W33441  19.128  30.776  13.553
67033W        W33442   9.332   8.413   2.903
67034W        W33443  11.056  39.970  11.571
67035W        W33444  34.582  22.840   2.845
67036W        W33445  12.105  26.441  13.467
67037W        W33446  21.678  29.936   0.441
67038W        W33447   9.846  39.027   2.049
67039W        W33448  25.589   1.444   4.626
67040W        W33449  34.804  11.900   1.379
67041W        W33450  14.709  36.608   1.420
67042W        W33451  37.880  13.867   3.461
67043W        W33452  14.829  13.322   4.039
67044W        W33453  14.368  11.667   4.128
67045W        W33454  22.265  39.803  12.141
67046W        W33455  44.765   1.510   4.000
67047W        W33456  21.986   2.337   0.896
67048W        W33457  34.120  23.054  14.245
67049W        W33458  19.763  42.380   3.315
67050W        W33459  36.857  24.751   4.528
67051W        W33460  36.349  21.778  12.946
67052W        W33461  35.130  32.493  11.855
67053W        W33462  38.101  32.854   3.755
67054W        W33463  11.282   9.220   4.091
67055W        W33464  21.643  24.235  12.093
67056W        W33465  20.670   4.264   1.922
67057W        W33466  27.580  19.690   1.913
67058W        W33467  43.458  36.420  14.484
67059W        W33468  26.885  38.392   1.217
67060W        W33469  29.885   1.503  11.151
67061W        W33470  37.017  17.894   0.505
67062W        W33471  28.321  26.278   4.140
67063W        W33472  31.365   2.795   0.761
67064W        W33473   4.540  21.732   1.769
67065W        W33474  25.069  15.088   3.916
67066W        W33475   1.555  14.736  10.594
67067W        W33476  37.171   3.920   5.012
67068W        W33477  29.255  33.104  12.144
67069W        W33478  19.877  25.466  13.381
67070W        W33479  22.914  10.824  11.462
67071W        W33480  24.041  15.691   2.616
67072W        W33481  15.606  10.362   0.505
67073W        W33482  30.525  13.672  11.966
67074W        W33483   7.826  43.398   2.376
67075W        W33484   4.368   3.843   2.216
67076W        W33485  24.642  37.956  13.585
67077W        W33486   1.435  39.945  11.664
67078W        W33487   7.079   9.718   2.780
67079W        W33488   4.851  15.969  10.477
67080W        W33489  11.578  11.365  14.524
67081W        W33490   0.959   0.300   1.948
67082W        W33491   9.718   6.425  13.069
67083W        W33492  16.240  34.706   0.345
67084W        W33493  22.017  44.114  11.528
67085W        W33494  38.411  31.381  12.897
67086W        W33495  13.786  11.582   2.315
67087W        W33496  25.204  27.801  12.462
67088W        W33497   3.879  41.769  13.944
67089W        W33498   5.505  14.710   3.609
67090W        W33499  31.298  32.675  14.343
67091W        W33500  33.855  41.468   1.115
67092W        W33501  14.084  20.213  10.685
67093W        W33502  41.827  39.115   3.524
67094W        W33503  21.218  37.477   4.052
67095W        W33504   3.700  20.105   2.919
67096W        W33505   1.810  30.343  13.439
67097W        W33506   4.385  24.571   3.633
67098W        W33507  16.159  31.422   1.497
67099W        W33508  21.442  29.502   4.448
67100W        W33509  16.775  40.303   3.237
67101W        W33510  16.032  30.984   3.254
67102W        W33511  13.355  27.667  14.963
67103W        W33512   3.444   4.386  12.143
67104W        W33513  19.806  25.025   3.925
67105W        W33514  39.066  16.135  12.472
67106W        W33515  33.870  27.431   0.012
67107W        W33516   7.697  27.726   1.334
67108W        W33517  43.818  27.975   1.183
67109W        W33518  13.639  32.531  12.349
67110W        W33519  17.796  16.528  11.934
67111W        W33520  44.272  33.976  11.742
67112W        W33521   7.929  27.339  10.548
67113W        W33522   7.423  26.101  12.373
67114W        W33523  12.868   7.362   3.726
67115W        W33524  44.868  30.607   1.500
67116W        W33525  10.872  17.869  13.821
67117W        W33526  29.080   1.299   0.440
67118W        W33527   5.198  10.883   2.875
67119W        W33528  34.467   2.752   1.634
67120W        W33529  31.081  27.906  11.106
67121W        W33530   1.326  38.455  14.469
67122W        W33531  13.407  18.041   3.875
67123W        W33532  25.053   0.048  11.873
67124W        W33533  42.325  29.527   0.559
67125W        W33534  26.966  19.605   3.788
67126W        W33535  18.543  34.530   2.339
67127W        W33536  14.525  22.773   0.201
67128W        W33537  19.752  39.757  12.387
67129W        W33538  32.639  22.131  11.180
67130W        W33539  27.543  36.427  14.424
67131W        W33540  22.703  26.737   2.552
67132W        W33541  34.500  11.779   5.053
67133W        W33542  21.608  27.638  10.716
67134W        W33543  15.562  42.828   4.503
67135W        W33544  10.669  35.429   5.078
67136W        W33545   6.144  31.234   4.548
67137W        W33546  30.502  31.259  12.327
67138W        W33547   4.862  41.232   3.598
67139W        W33548  19.564  38.617   0.722
67140W        W33549  12.674  32.901   3.169
67141W        W33550  42.310  18.669   2.352
67142W        W33551  27.450  19.554   0.965
67143W        W33552  29.892  19.475   2.950
67144W        W33553  11.553   3.001   3.505
67145W        W33554  29.587  43.298  12.913
67146W        W33555  24.775   4.461  11.905
67147W        W33556  13.324  13.305   2.822
67148W        W33557   1.404  11.671   2.350
67149W        W33558  30.155  37.637  12.066
67150W        W33559  39.456   0.855  12.731
67151W        W33560  41.229  33.434  12.004
67152W        W33561  42.149   9.750   2.757
67153W        W33562  13.741  41.792  13.041
67154W        W33563  38.981  41.721  14.382
67155W        W33564  10.844   5.771   4.640
67156W        W33565  41.498  15.654  12.162
67157W        W33566   3.919  43.464  13.083
67158W        W33567  22.503   5.933  13.484
67159W        W33568  26.126   0.842   2.273
67160W        W33569   4.534  13.238   0.811
67161W        W33570   3.151  36.872   3.764
67162W        W33571  41.686  14.405  12.498
67163W        W33572  10.316  17.200  12.522
67164W        W33573   0.413  44.075  14.446
67165W        W33574  20.544  43.484  13.141
67166W        W33575  21.755  40.031  14.506
67167W        W33576   5.052  30.144  12.023
67168W        W33577  40.013  35.628  10.678
67169W        W33578  30.980  11.351   0.345
67170W        W33579  20.842  25.482  12.798
67171W        W33580   6.886  43.036   3.690
67172W        W33581  41.739  24.714  12.267
67173W        W33582  40.985  19.073  11.022
67174W        W33583  16.952   7.354  14.754
67175W        W33584  22.642   5.397   2.766
67176W        W33585  44.924  25.262  11.060
67177W        W33586  17.394  21.303  13.896
67178W        W33587  44.534  29.443  12.355
67179W        W33588  29.539   7.325   3.411
67180W        W33589  40.100  39.022  12.346
67181W        W33590  32.364  38.034  12.949
67182W        W33591  12.815  17.712  13.040
67183W        W33592  41.041  16.547   2.884
67184W        W33593  31.884  21.946   0.994
67185W        W33594   1.253  38.362   3.816
67186W        W33595  34.982  13.798  13.468
67187W        W33596  14.213  44.338   4.479
67188W        W33597  10.309  37.136  14.861
67189W        W33598  13.908  15.855  11.269
67190W        W33599  17.181  16.942   4.700
67191W        W33600  35.006  27.836   3.343
67192W        W33601  11.666   8.169  12.838
67193W        W33602  38.481  19.672   3.663
67194W        W33603  21.426  24.732  12.034
67195W        W33604  37.938   6.402  13.383
67196W        W33605  22.395  35.436   2.403
67197W        W33606  40.371   3.296   1.490
67198W        W33607   5.113  41.552  11.244
67199W        W33608  39.733   0.954   4.095
67200W        W33609  38.878  36.671   1.739
67201W        W33610  22.170   8.483  11.213
67202W        W33611  13.130  19.258  13.135
67203W        W33612  27.366  28.592  10.384
67204W        W33613  42.596  10.653  12.959
67205W        W33614  32.033  28.045  11.243
67206W        W33615  33.959  19.232   3.652
67207W        W33616  38.900  34.053   2.708
67208W        W33617  38.063   9.315  11.610
67209W        W33618  23.700   8.223  11.625
67210W        W33619  10.658  15.977  14.772
67211W        W33620   5.519  25.418   0.238
67212W        W33621   1.170  14.486  12.903
67213W        W33622   5.913  33.293   3.170
67214W        W33623   3.422   6.500   2.776
67215W        W33624  32.989  13.146   2.693
67216W        W33625  18.762   6.315   5.097
67217W        W33626  32.670   3.145  10.318
67218W        W33627  32.705  31.374   1.466
67219W        W33628  35.633  20.730  13.141
67220W        W33629  35.336  25.981  11.873
67221W        W33630  24.901  24.164  13.963
67222W        W33631   7.359  21.495  11.074
67223W        W33632  28.080  40.841   0.221
67224W        W33633   2.481  36.196   2.426
67225W        W33634  35.388  41.526   1.521
67226W        W33635  26.797  22.833   4.415
67227W        W33636   5.139  43.707   4.520
67228W        W33637  29.177  41.882   4.528
67229W        W33638  33.677  32.635  14.884
67230W        W33639  34.128  32.088  13.333
67231W        W33640  22.734  42.882   1.363
67232W        W33641  34.129  11.316   3.192
67233W        W33642  37.392  31.628  10.697
67234W        W33643  36.722  37.797  14.561
67235W        W33644  18.689  16.624   2.433
67236W        W33645  43.877  44.855   1.536
67237W        W33646  24.486  40.302  10.654
67238W        W33647   7.432   8.450   0.532
67239W        W33648  15.770  28.218  11.999
67240W        W33649  13.750   9.197  13.896
67241W        W33650  42.392  11.585  14.828
67242W        W33651  31.111  10.708   2.829
67243W        W33652  41.317  32.637   1.222
67244W        W33653   3.895   6.964   0.936
67245W        W33654  16.122  29.738   2.615
67246W        W33655  44.499  33.439  14.371
67247W        W33656  20.210  10.149  12.627
67248W        W33657   7.130  33.953   4.245
67249W        W33658  20.141  42.975   0.307
67250W        W33659  32.565  15.816   2.268
67251W        W33660  35.573   6.389  10.517
67252W        W33661  29.345  42.809   4.591
67253W        W33662  12.024  38.773   3.766
67254W        W33663  34.150  41.318   3.850
67255W        W33664  36.140  17.698   1.374
67256W        W33665   7.129  28.622   4.987
67257W        W33666  12.604  29.471   3.726
67258W        W33667  22.737  40.060  14.804
67259W        W33668  24.659   1.215   2.881
67260W        W33669  28.664  29.784  12.422
67261W        W33670   9.717  32.588   2.627
67262W        W33671  23.144  11.680   4.123
67263W        W33672  43.335  17.547   2.513
67264W        W33673  16.726  30.008  11.890
67265W        W33674  34.567   7.608   1.262
67266W        W33675   0.192  24.664  11.126
67267W        W33676  30.004  25.969  12.648
67268W        W33677  40.079  12.000  12.861
67269W        W33678  18.498   1.065   2.500
67270W        W33679  38.485  24.777   1.657
67271W        W33680  15.579  15.635   1.769
67272W        W33681  28.871   1.792   1.122
67273W        W33682  43.491  22.043   0.721
67274W        W33683  25.532  43.384   4.443
67275W        W33684  11.088  36.014   1.555
67276W        W33685  43.964  37.836  13.390
67277W        W33686  12.198  17.203  10.967
67278W        W33687   6.654  44.506  11.838
67279W        W33688   2.235  38.523   3.371
67280W        W33689  12.091  44.987   2.064
67281W        W33690   5.182   0.042   2.914
67282W        W33691  13.371  29.488  13.113
67283W        W33692  13.691   1.107  12.870
67284W        W33693   6.005  25.632  11.245
67285W        W33694  26.632  38.270  11.602
67286W        W33695  11.418  23.174  10.719
67287W        W33696  10.279  16.633  11.650
67288W        W33697  35.855  27.138   0.876
67289W        W33698  10.097  20.820  11.420
67290W        W33699   7.917   5.344  10.687
67291W        W33700   8.310  21.662  14.968
67292W        W33701   7.278  38.068   4.167
67293W        W33702   6.840  10.110  14.051
67294W        W33703  37.978  24.554  13.320
67295W        W33704  12.105  31.605  14.849
67296W        W33705  20.718  13.127   0.797
67297W        W33706  42.044  31.222  10.809
67298W        W33707   1.532  10.677   0.292
67299W        W33708  37.211   4.468  13.606
67300W        W33709  41.988  44.264  10.144
67301W        W33710  22.193   6.224  11.726
67302W        W33711  39.507   3.783  13.152
67303W        W33712  39.432  22.323   3.917
67304W        W33713  44.099  21.381  13.037
67305W        W33714  10.892  26.504  11.485
67306W        W33715   1.455  15.173   2.289
67307W        W33716  10.827  20.925   0.767
67308W        W33717  11.508   9.713   1.869
67309W        W33718  19.270  18.107   1.962
67310W        W33719   2.235  37.996   1.332
67311W        W33720  21.570  22.625   3.133
67312W        W33721   9.044   2.007   4.600
67313W        W33722  36.701  44.380  14.298
67314W        W33723  26.683  18.103  11.532
67315W        W33724  34.991  37.350  11.552
67316W        W33725  24.024   7.579  13.539
67317W        W33726   0.344  38.453   0.699
67318W        W33727  40.814  31.357   0.569
67319W        W33728  16.160  24.060  12.377
67320W        W33729   3.783   7.762  13.307
67321W        W33730  32.680  15.671   1.338
67322W        W33731  11.719  42.119   3.386
67323W        W33732   6.933  22.584   1.711
67324W        W33733   4.496  29.406   3.663
67325W        W33734  12.684   2.922  13.539
67326W        W33735  18.503  35.507   1.534
67327W        W33736   9.187  39.790  14.001
67328W        W33737  18.858  37.626  11.071
67329W        W33738  38.961  18.184  13.903
67330W        W33739   3.223  21.233   4.238
67331W        W33740  20.685  36.496  12.676
67332W        W33741  31.111  36.083  10.662
67333W        W33742  37.508  41.894   4.714
67334W        W33743   4.358  19.328   4.541
67335W        W33744  39.554   9.542   2.119
67336W        W33745  37.382  23.163   3.199
67337W        W33746  43.759  35.326  12.482
67338W        W33747  19.772  29.458   1.249
67339W        W33748  40.083   8.206   1.329
67340W        W33749  14.560  22.582   2.911
67341W        W33750  39.466  20.707  10.176
67342W        W33751  36.384  44.433  13.450
67343W        W33752   5.270   4.982   1.298
67344W        W33753   9.952  33.766   0.717
67345W        W33754  24.600  13.749  13.996
67346W        W33755  30.448  31.565  11.115
67347W        W33756  43.521  16.568   2.289
67348W        W33757  36.312  12.796   2.843
67349W        W33758  12.657  16.530   0.988
67350W        W33759   2.469  18.151   2.260
67351W        W33760  43.474  31.973   3.196
67352W        W33761  31.894  17.355  14.847
67353W        W33762  26.770  10.583   4.996
67354W        W33763   7.774   9.686  13.142
67355W        W33764  38.797   8.606   0.438
67356W        W33765  11.843   3.493  12.143
67357W        W33766  32.341  16.254   3.409
67358W        W33767  36.609   2.036  13.986
67359W        W33768  21.562  32.268   1.433
67360W        W33769  25.228   2.963  14.739
67361W        W33770   0.924  44.054   4.009
67362W        W33771   5.535  21.795   0.591
67363W        W33772  38.948   9.615   0.056
67364W        W33773  36.961  19.490   4.515
67365W        W33774  17.148  27.278  11.493
67366W        W33775  27.666  19.180  12.816
67367W        W33776  44.611   2.931  11.620
67368W        W33777   2.026  41.570   1.239
67369W        W33778  10.067  25.279  10.278
67370W        W33779  40.213  43.779   0.530
67371W        W33780   9.228  12.611   2.044
67372W        W33781  19.532  17.786   2.298
67373W        W33782   9.651  39.372  13.451
67374W        W33783  37.814   8.231   3.309
67375W        W33784  43.492  39.458   2.874
67376W        W33785   8.451  38.652   4.576
67377W        W33786  13.851  40.522  12.674
67378W        W33787  37.537   1.234  11.661
67379W        W33788  16.044  28.923   3.137
67380W        W33789  41.738  43.810  13.859
67381W        W33790  32.445   0.094   0.406
67382W        W33791   9.294  14.239   4.632
67383W        W33792  20.190  24.731   3.187
67384W        W33793  15.661  13.075   5.444
67385W        W33794  34.939  27.876  13.266
67386W        W33795  31.145  30.191  12.124
67387W        W33796  23.270  19.777   3.638
67388W        W33797  36.831  32.541   4.636
67389W        W33798   4.917   1.779   3.545
67390W        W33799  32.930  40.393  11.669
67391W        W33800  32.328  35.641   0.953
67392W        W33801   2.888  15.381  12.141
67393W        W33802  26.747  31.263  13.910
67394W        W33803  41.448  28.917   1.183
67395W        W33804  28.073  28.145   2.337
67396W        W33805   5.812  25.686   2.665
67397W        W33806   4.833  42.142   3.742
67398W        W33807  22.761  26.172   4.658
67399W        W33808  26.041  12.438   4.681
67400W        W33809  43.447  12.823   4.532
67401W        W33810  13.808  22.149   3.084
67402W        W33811   4.011  16.760   3.731
67403W        W33812  13.139  10.263   4.154
67404W        W33813   7.335  17.636  10.687
67405W        W33814  29.678   3.439  12.189
67406W        W33815  42.382  27.118   1.784
67407W        W33816  38.317  32.550  12.135
67408W        W33817   2.520  11.611  14.441
67409W        W33818   4.346  19.270   0.580
67410W        W33819  44.777  40.019   4.843
67411W        W33820  27.855  35.517   3.414
67412W        W33821   6.270  34.568  13.562
67413W        W33822  44.253  43.424   0.747
67414W        W33823  30.492  24.070   0.470
67415W        W33824   3.264  13.159  13.877
67416W        W33825   9.412  17.120   2.394
67417W        W33826  41.307  19.268   0.924
67418W        W33827  43.588   7.610   5.597
67419W        W33828   5.049  10.189   3.352
67420W        W33829  42.292  13.925   2.339
67421W        W33830  12.870  30.021   2.708
67422W        W33831  37.286  34.072  12.510
67423W        W33832  16.067  32.391  14.859
67424W        W33833  20.126   5.650   3.203
67425W        W33834  18.345  39.874  12.328
67426W        W33835   4.086  22.383  13.895
67427W        W33836   9.729  13.124  14.914
67428W        W33837  38.013  15.204   2.115
67429W        W33838  18.938  38.622  14.010
67430W        W33839  16.705  38.154  11.655
67431W        W33840  30.596  30.151   2.127
67432W        W33841  44.306  35.161  14.336
67433W        W33842  38.055   1.049  11.677
67434W        W33843   8.335  26.040   4.156
67435W        W33844  40.243  27.427  14.128
67436W        W33845  20.198   5.266  13.511
67437W        W33846   2.915   4.588  14.516
67438W        W33847  27.314  16.284  11.841
67439W        W33848   8.847  19.975  12.529
67440W        W33849  26.741  28.046   4.666
67441W        W33850  37.816  25.051   3.162
67442W        W33851   7.998  19.042  11.379
67443W        W33852  20.168  37.625   3.172
67444W        W33853  17.326  19.210   2.759
67445W        W33854  21.713  42.326  12.417
67446W        W33855  29.244  13.049  14.494
67447W        W33856  44.758  31.906  12.395
67448W        W33857  23.599  36.433  10.886
67449W        W33858  15.679  27.504  12.298
67450W        W33859   3.614  36.423  13.014
67451W        W33860   6.770  23.654   5.476
67452W        W33861  42.165  30.898  14.472
67453W        W33862  40.568  21.192   4.581
67454W        W33863  22.678   4.198   0.822
67455W        W33864  44.970   1.436  14.442
67456W        W33865  22.459  33.828  13.782
67457W        W33866  29.742   6.756  11.582
67458W        W33867  18.836   6.469   1.640
67459W        W33868  19.719  31.395   2.455
67460W        W33869   9.865  44.443   0.481
67461W        W33870   8.669  25.079  13.046
67462W        W33871  41.889  16.564   2.280
67463W        W33872  23.207  35.099  11.603
67464W        W33873   1.895  11.642  13.868
67465W        W33874  18.109   3.990  13.344
67466W        W33875  38.959   8.831   3.525
67467W        W33876  21.085  23.902  12.904
67468W        W33877  19.494  25.609   1.802
67469W        W33878  32.339  24.833  11.658
67470W        W33879   6.205  44.768  11.969
67471W        W33880  42.484  43.035  12.138
67472W        W33881  25.436   1.487   3.238
67473W        W33882  22.215  13.179   4.555
67474W        W33883  27.239  28.065   0.440
67475W        W33884  37.821  29.973  11.163
67476W        W33885  44.781  26.187   3.249
67477W        W33886  32.426  42.378  11.039
67478W        W33887   5.198  40.833  10.759
67479W        W33888  15.723  13.611   3.279
67480W        W33889  10.615  30.842   1.282
67481W        W33890  31.241  38.567  13.349
67482W        W33891  32.609  40.311   2.644
67483W        W33892  40.915  39.293   5.005
67484W        W33893   7.565  22.836   0.887
67485W        W33894  15.346  18.154   2.742
67486W        W33895   7.824  26.404  11.571
67487W        W33896   9.464  38.862  13.472
67488W        W33897   1.352  31.352   0.672
67489W        W33898  15.549  15.056  13.313
67490W        W33899   7.268  39.466   3.624
67491W        W33900  43.416  43.888   2.841
67492W        W33901   2.741  24.021  10.994
67493W        W33902  39.468  22.233   2.224
67494W        W33903  39.482  10.578   3.572
67495W        W33904  44.420   9.650   3.127
67496W        W33905  40.295  21.081   0.871
67497W        W33906   3.685  25.813   0.594
67498W        W33907  28.679  14.243   5.030
67499W        W33908  43.383  17.034  14.823
67500W        W33909  42.091  15.243   4.599
67501W        W33910   3.501  41.349   0.379
67502W        W33911  23.003   1.949   3.864
67503W        W33912  24.077  25.143   0.332
67504W        W33913  29.565  10.256   2.058
67505W        W33914  34.619   9.874   0.982
67506W        W33915  26.588  20.779   0.810
67507W        W33916  42.236   7.824  12.445
67508W        W33917  11.597  30.411   3.678
67509W        W33918  41.908  31.023   0.901
67510W        W33919  23.149  37.650  10.467
67511W        W33920  35.952  24.660  11.009
67512W        W33921  25.113  10.612  14.326
67513W        W33922   2.641  27.829   2.726
67514W        W33923  27.607   6.363   0.426
67515W        W33924  19.659  23.206  10.628
67516W        W33925  22.747  19.645   1.906
67517W        W33926  33.505  28.697   3.584
67518W        W33927  23.210  12.866  11.520
67519W        W33928  13.593  13.126   1.311
67520W        W33929  15.413  27.076  13.001
67521W        W33930  18.169  11.344   3.266
67522W        W33931  19.929  11.699   1.285
67523W        W33932  24.967  31.343   1.817
67524W        W33933  19.956  11.818   4.968
67525W        W33934   0.122  10.792  10.762
67526W        W33935  30.629  29.711  14.058
67527W        W33936  26.982  43.798  11.564
67528W        W33937  38.716  39.387   4.046
67529W        W33938  12.350   4.147   3.062
67530W        W33939  30.051  22.789   3.174
67531W        W33940  41.208  41.925   3.332
67532W        W33941  17.277  28.040   4.994
67533W        W33942  15.061  25.702  13.823
67534W        W33943  30.875  10.215  12.060
67535W        W33944  34.464  11.881   0.715
67536W        W33945  22.749  20.304  11.278
67537W        W33946  30.018   2.659   5.012
67538W        W33947  25.438  21.166   1.206
67539W        W33948  31.975  20.986  12.557
67540W        W33949  40.815  32.033  14.542
67541W        W33950  39.579  13.641  12.994
67542W        W33951  32.894   6.500   1.326
67543W        W33952   0.945  17.562   4.186
67544W        W33953   0.886  13.855   4.601
67545W        W33954   7.904  10.881  10.486
67546W        W33955  27.523  11.913   3.352
67547W        W33956  29.682   5.176   4.075
67548W        W33957  44.517   2.297   2.349
67549W        W33958  37.830  34.044   0.237
67550W        W33959  42.324  27.422   1.018
67551W        W33960  11.103  35.140   0.482
67552W        W33961  16.257   2.976  10.962
67553W        W33962  24.128  35.523  12.098
67554W        W33963  40.802  23.546   4.285
67555W        W33964  14.584  37.354   3.224
67556W        W33965   6.359  30.545   2.703
67557W        W33966  36.862  39.282  11.666
67558W        W33967  26.967  19.129   0.188
67559W        W33968  26.569  14.356  14.822
67560W        W33969  16.163  18.174   4.822
67561W        W33970  31.372   4.981  13.767
67562W        W33971  17.550  44.171  14.824
67563W        W33972   3.368  23.182  14.296
67564W        W33973  36.999  10.195   1.850
67565W        W33974  39.819  11.709  10.344
67566W        W33975  20.051  26.441   3.299
67567W        W33976  26.287  36.479   3.839
67568W        W33977  41.428  21.134   2.938
67569W        W33978  25.630  28.360   0.690
67570W        W33979  23.553  13.076   0.439
67571W        W33980   5.065  31.194  13.119
67572W        W33981   6.025   3.486  11.364
67573W        W33982  11.866  18.156  10.368
67574W        W33983   5.903   8.697   0.297
67575W        W33984   8.149  22.400  12.815
67576W        W33985  40.264  35.621   2.889
67577W        W33986  17.245  20.805   2.669
67578W        W33987  12.305  18.369  10.622
67579W        W33988  20.813   5.844  10.986
67580W        W33989   5.131  35.969   0.369
67581W        W33990  14.983  33.152   1.428
67582W        W33991  39.069  24.929   5.048
67583W        W33992  21.102  37.676  10.667
67584W        W33993  34.615   4.789  13.577
67585W        W33994  15.142   0.824  10.480
67586W        W33995  39.287  40.589   1.446
67587W        W33996  41.676  20.215  11.597
67588W        W33997  39.749  33.057  10.793
67589W        W33998   7.392  26.064   4.280
67590W        W33999  18.663  37.791   1.250
67591W        W34000  21.819  39.884  10.905
67592W        W34001  12.243  11.629  14.848
67593W        W34002   8.741   2.470  12.946
67594W        W34003  43.916  31.625   4.095
67595W        W34004  23.518  22.119   3.512
67596W        W34005  19.607  13.204   3.120
67597W        W34006  18.549  16.104  13.397
67598W        W34007  37.916  21.313   1.026
67599W        W34008  13.705   4.887   2.208
67600W        W34009  32.875   5.267  12.960
67601W        W34010  25.819  11.784  14.367
67602W        W34011   9.726  26.931   1.035
67603W        W34012  39.617   1.312   1.425
67604W        W34013  19.266  31.659  11.568
67605W        W34014  20.236  44.832   2.426
67606W        W34015  43.273  44.344  14.427
67607W        W34016  35.144  35.914  11.608
67608W        W34017  37.035  38.023  13.567
67609W        W34018  24.631  28.542  12.842
67610W        W34019   4.041  18.494   4.065
67611W        W34020  40.410  26.519   3.652
67612W        W34021  38.654  37.310   3.248
67613W        W34022  25.626  28.716   2.022
67614W        W34023  25.128   5.934   2.773
67615W        W34024  42.492  41.482   4.479
67616W        W34025  13.391  41.216  13.663
67617W        W34026  31.431   1.107  10.113
67618W        W34027  29.022  31.516   4.145
67619W        W34028  26.618   3.086   1.250
67620W        W34029  35.888  28.993   2.157
67621W        W34030  34.100  35.447   2.464
67622W        W34031  42.879  37.804   0.866
67623W        W34032   1.339  25.952   2.548
67624W        W34033   0.787  15.023   2.688
67625W        W34034  11.663  31.096   2.786
67626W        W34035   6.646  26.125  11.193
67627W        W34036  21.896  24.201   0.380
67628W        W34037  32.433  28.750   4.191
67629W        W34038  39.921  33.928  14.252
67630W        W34039  24.102  22.609   2.256
67631W        W34040  11.117  11.122   2.677
67632W        W34041  40.424  28.704  13.554
67633W        W34042  37.096  13.110  13.870
67634W        W34043  16.212   9.911   1.819
67635W        W34044   8.348  19.282  14.424
67636W        W34045  10.788  44.763   4.201
67637W        W34046  22.674  33.541  14.359
67638W        W34047  24.817   7.346  14.135
67639W        W34048  39.719  14.369  11.346
67640W        W34049  21.061  41.254   1.623
67641W        W34050  37.010  31.123  13.534
67642W        W34051  20.777  16.815  10.752
67643W        W34052  10.184  43.785  11.167
67644W        W34053  28.555  19.178   4.668
67645W        W34054  26.128  22.253   0.777
67646W        W34055  20.212  38.508   0.007
67647W        W34056  31.956  15.131   2.222
67648W        W34057   5.699  21.468  11.797
67649W        W34058  17.312  18.922  12.915
67650W        W34059  14.031  16.391   0.822
67651W        W34060  33.463  34.768  12.093
67652W        W34061  44.833   2.827   4.056
67653W        W34062  44.262  14.892  11.104
67654W        W34063   9.925  12.532  11.810
67655W        W34064  20.962  15.836   3.982
67656W        W34065  23.298  38.833  11.902
67657W        W34066  21.913   0.950  14.763
67658W        W34067  27.339  37.445  10.735
67659W        W34068  32.835  10.588  13.443
67660W        W34069  36.482  41.738  13.737
67661W        W34070  15.661  29.969   1.701
67662W        W34071   5.754  40.745  10.828
67663W        W34072  12.720  11.262   4.199
67664W        W34073   3.272  38.255   2.336
67665W        W34074  26.667  16.273   3.725
67666W        W34075  13.875   4.848  10.569
67667W        W34076  43.809   6.210  11.477
67668W        W34077  20.280  42.528  11.510
67669W        W34078  33.080  38.243  11.345
67670W        W34079  32.590   3.068  12.078
67671W        W34080   8.754   8.593   1.720
67672W        W34081  29.105  15.665   4.523
67673W        W34082  15.537  11.636   2.800
67674W        W34083   1.716  11.317   0.480
67675W        W34084  38.879  42.980   3.307
67676W        W34085  14.649  24.399   4.990
67677W        W34086  15.638  28.878   0.952
67678W        W34087   1.956  31.391  12.062
67679W        W34088  26.473  43.310  12.606
67680W        W34089  36.115  42.292  10.773
67681W        W34090   2.865  18.012   1.870
67682W        W34091  22.457  39.043  12.471
67683W        W34092  16.293  23.181  11.869
67684W        W34093  19.966  35.452   3.800
67685W        W34094  44.497  35.574   1.744
67686W        W34095   9.779  10.749  10.658
67687W        W34096  31.308  16.287  13.428
67688W        W34097  31.021  20.058  10.325
67689W        W34098  12.205  22.124  13.272
67690W        W34099  44.551   8.373   2.848
67691W        W34100  40.537  38.666   2.442
67692W        W34101  16.549  18.801  14.578
67693W        W34102  44.790  17.152  11.871
67694W        W34103  14.281   2.931  10.931
67695W        W34104   3.016  29.750   3.997
67696W        W34105  24.538  28.556   3.841
67697W        W34106  31.856   2.674  14.826
67698W        W34107  17.821  14.263  14.965
67699W        W34108  31.941  26.419  10.170
67700W        W34109  21.035   6.616  11.964
67701W        W34110  32.137   0.255   3.306
67702W        W34111  21.951  26.682  14.868
67703W        W34112  30.459   4.917  13.566
67704W        W34113  39.292  21.317  11.808
67705W        W34114   7.334   4.207  13.028
67706W        W34115  40.018  10.618   2.009
67707W        W34116  35.961  19.618   4.728
67708W        W34117  29.139  32.063  13.996
67709W        W34118  14.761   8.524  14.707
67710W        W34119  18.682  21.975  12.038
67711W        W34120  22.641  28.177  12.349
67712W        W34121  21.408  35.674   3.003
67713W        W34122  41.310  37.064  13.022
67714W        W34123  41.573  11.673  14.757
67715W        W34124  11.624   8.383  11.469
67716W        W34125   7.188  27.271  11.042
67717W        W34126  15.822   4.443   3.941
67718W        W34127  30.941  17.013   1.243
67719W        W34128  16.430  17.539   4.568
67720W        W34129   5.779  42.071  11.699
67721W        W34130  27.005  41.389   0.361
67722W        W34131   1.049  19.661  10.380
67723W        W34132  38.839  23.429  11.734
67724W        W34133  22.045   5.543  14.454
67725W        W34134  16.123  39.026   3.238
67726W        W34135  38.889   0.020  13.414
67727W        W34136   9.325  37.203  12.409
67728W        W34137  24.900  14.548   4.694
67729W        W34138  22.566  22.980   3.445
67730W        W34139  29.358  22.360   5.121
67731W        W34140   5.022  44.077  11.571
67732W        W34141  21.090  11.595  14.017
67733W        W34142  42.508  31.936  10.537
67734W        W34143  29.481  34.300  13.534
67735W        W34144  31.470   5.823  13.730
67736W        W34145  36.067  32.449  14.344
67737W        W34146  14.258  23.006   2.402
67738W        W34147   0.868  30.850   4.962
67739W        W34148   6.695   4.770   1.835
67740W        W34149  34.871  14.182   0.769
67741W        W34150  25.642   0.079   0.253
67742W        W34151  12.295  43.954  10.717
67743W        W34152  30.458  17.862  13.005
67744W        W34153  41.813  40.878   4.107
67745W        W34154  31.149  24.851  11.965
67746W        W34155  13.382  42.330   4.500
67747W        W34156  14.263  31.162  14.547
67748W        W34157  25.918  21.074  11.642
67749W        W34158  44.898  16.570   0.723
67750W        W34159  13.945   4.875   0.356
67751W        W34160   2.502  25.967   1.469
67752W        W34161  39.144  25.765  12.007
67753W        W34162  24.977  18.786   1.353
67754W        W34163  10.869  43.811   0.388
67755W        W34164  33.710  29.078   4.654
67756W        W34165  24.155  31.720   3.796
67757W        W34166   5.259  30.974   4.238
67758W        W34167  36.264  13.713  11.832
67759W        W34168   5.651  29.913  12.951
67760W        W34169  42.294  21.272   1.793
67761W        W34170  17.509   8.336   1.587
67762W        W34171  41.384  19.855  11.120
67763W        W34172  34.488  30.863   3.849
67764W        W34173  24.465  37.091   0.464
67765W        W34174  33.198  10.815   2.352
67766W        W34175   1.319  38.493  12.133
67767W        W34176  24.635  35.077   0.007
67768W        W34177  20.591  28.515  14.336
67769W        W34178  34.437  21.656  13.486
67770W        W34179  23.058  17.097   2.203
67771W        W34180   4.734   0.454  13.311
67772W        W34181  23.661  28.098  14.466
67773W        W34182  27.466  34.592  13.437
67774W        W34183  24.446   0.758   2.788
67775W        W34184   5.357  42.920   3.772
67776W        W34185  38.837  22.619   2.670
67777W        W34186  10.996  17.698  11.751
67778W        W34187  28.053   2.645   2.477
67779W        W34188  38.849  33.750   4.036
67780W        W34189   4.216   8.792   0.019
67781W        W34190  11.820  14.348  11.645
67782W        W34191  34.440   2.231   1.730
67783W        W34192  38.061  13.673   4.728
67784W        W34193  25.796   1.209  10.686
67785W        W34194  43.390  28.993  11.013
67786W        W34195  32.637  23.009  10.418
67787W        W34196   4.327  15.563   0.324
67788W        W34197  10.711   2.931   2.471
67789W        W34198  11.848   4.336   1.368
67790W        W34199  24.745  21.010  13.060
67791W        W34200   9.148  27.093  10.714
67792W        W34201  29.013  27.557   4.125
67793W        W34202  39.076  35.202  13.561
67794W        W34203  40.440   7.491  10.460
67795W        W34204  25.529   2.752   2.855
67796W        W34205  25.680  27.050  11.958
67797W        W34206  26.531  18.168   4.503
67798W        W34207  27.297  14.298   5.153
67799W        W34208   3.969  36.977   4.470
67800W        W34209  34.909  21.219   4.219
67801W        W34210  25.128  37.548   1.353
67802W        W34211  33.367  37.203  14.364
67803W        W34212   4.543  11.198   1.334
67804W        W34213  31.842  25.074   4.603
67805W        W34214   6.691   0.823  12.597
67806W        W34215   3.925   2.268  11.573
67807W        W34216  24.700   7.898  13.965
67808W        W34217  43.757  43.333   2.232
67809W        W34218  27.596   8.615   1.816
67810W        W34219   3.857  16.054  10.762
67811W        W34220  32.859  41.800  13.024
67812W        W34221  18.205  34.132   3.591
67813W        W34222  38.856  44.406   4.159
67814W        W34223  19.804  23.927  11.725
67815W        W34224   6.192   7.393   2.635
67816W        W34225   2.156   6.821  14.282
67817W        W34226  38.098  23.153  14.283
67818W        W34227  22.634  17.158   4.553
67819W        W34228  14.873  37.702  12.072
67820W        W34229  26.096   0.134  11.125
67821W        W34230  41.634  41.300  14.507
67822W        W34231  39.923   0.655  12.916
67823W        W34232   9.177  25.037  13.971
67824W        W34233  35.950   9.687   2.744
67825W        W34234  15.832   7.369  10.401
67826W        W34235  35.075  26.154   4.009
67827W        W34236  19.292  21.397   1.638
67828W        W34237  29.884  22.199   3.990
67829W        W34238  44.166  43.728   2.341
67830W        W34239  11.470  35.822  12.387
67831W        W34240  18.307  15.046   3.170
67832W        W34241  43.725  25.564  13.953
67833W        W34242   8.256  30.932   4.526
67834W        W34243   5.283   9.898  12.997
67835W        W34244  14.285  17.270   1.706
67836W        W34245   4.318  16.329  14.938
67837W        W34246  24.166  12.828   4.574
67838W        W34247  14.712  24.436  10.973
67839W        W34248  39.598   9.408  13.457
67840W        W34249   3.012  31.098   3.819
67841W        W34250   4.646   7.695  14.731
67842W        W34251   5.897  26.230  13.826
67843W        W34252  32.599   1.312  13.429
67844W        W34253  22.592   7.198   4.629
67845W        W34254  12.665  38.900   2.382
67846W        W34255  26.956  10.278   4.625
67847W        W34256  27.391  43.487  11.479
67848W        W34257  18.375  11.544  11.737
67849W        W34258   9.083  23.220   1.420
67850W        W34259  17.935  20.688  11.973
67851W        W34260   3.982   0.521   0.208
67852W        W34261  33.898  31.996  14.715
67853W        W34262  24.240  10.478   2.441
67854W        W34263  24.708  25.760   0.009
67855W        W34264  30.057   2.206   4.124
67856W        W34265   0.669  16.340  13.829
67857W        W34266  39.515  31.826  13.092
67858W        W34267  42.936  28.628   4.899
67859W        W34268  22.900  35.383   2.283
67860W        W34269  40.844  37.468  13.857
67861W        W34270   0.248  16.057   4.167
67862W        W34271  33.148  25.071   4.715
67863W        W34272  34.281  38.828  14.844
67864W        W34273  11.217  30.420   4.093
67865W        W34274  27.136  20.762  13.382
67866W        W34275  43.216  43.250  12.002
67867W        W34276  26.416  14.140   0.304
67868W        W34277  19.023  28.639  10.923
67869W        W34278  13.136  41.502   0.145
67870W        W34279  23.769  38.153  11.134
67871W        W34280  16.796  20.027  11.084
67872W        W34281  11.403  15.100   1.593
67873W        W34282  17.681  15.339   2.893
67874W        W34283  26.962  12.643   3.306
67875W        W34284  10.063   2.997   4.561
67876W        W34285   1.809   5.356  11.675
67877W        W34286   1.213  19.488  12.535
67878W        W34287  43.841  15.224   4.380
67879W        W34288   8.221  39.984   2.866
67880W        W34289   4.684   7.669  12.393
67881W        W34290  16.652   3.924  11.228
67882W        W34291  22.590  12.357   1.150
67883W        W34292   2.316  31.572   4.241
67884W        W34293  30.486  28.183   1.784
67885W        W34294  31.403  29.218   3.280
67886W        W34295  19.558   1.420   0.941
67887W        W34296  34.116  28.654  10.508
67888W        W34297  39.556  25.897   3.945
67889W        W34298   9.908  36.951  13.002
67890W        W34299  33.145  13.523  14.367
67891W        W34300   6.455  15.687  14.417
67892W        W34301  44.337  21.735  14.345
67893W        W34302  12.380   3.473  10.484
67894W        W34303  44.662  16.335  11.253
67895W        W34304  36.460  35.786  14.523
67896W        W34305  25.347   0.042   4.521
67897W        W34306  42.350   8.386  11.844
67898W        W34307  42.988   2.267   2.883
67899W        W34308  17.805  17.786   2.167
67900W        W34309  30.968  12.887  10.793
67901W        W34310  44.634  19.649   2.975
67902W        W34311  38.938   0.220  12.928
67903W        W34312  26.211  24.479  11.062
67904W        W34313  32.100  34.135  14.992
67905W        W34314  29.594  22.652   0.490
67906W        W34315   6.248   6.442   0.043
67907W        W34316  28.120  31.454   0.779
67908W        W34317  33.085  30.592  12.031
67909W        W34318  26.408  22.461  13.892
67910W        W34319  25.139  43.786   2.150
67911W        W34320  24.972   4.696   1.718
67912W        W34321  39.542  26.690   0.663
67913W        W34322  36.355   2.741   2.386
67914W        W34323  11.128  38.222  11.955
67915W        W34324  34.143   5.034  12.094
67916W        W34325   1.538  14.847  12.846
67917W        W34326   6.046  26.413   0.703
67918W        W34327   7.135   1.325   2.290
67919W        W34328  31.684  36.195  10.083
67920W        W34329  39.437  24.643   4.292
67921W        W34330  10.252   9.135   5.268
67922W        W34331  23.227   7.731   3.059
67923W        W34332  11.851   1.762   1.786
67924W        W34333  42.950  14.195  12.870
67925W        W34334   5.982  16.896   0.741
67926W        W34335  13.230  15.786   4.745
67927W        W34336   2.976  34.406  14.641
67928W        W34337  29.551  31.992   0.791
67929W        W34338  12.592  24.990  13.077
67930W        W34339   5.126  21.662  14.194
67931W        W34340   7.358  12.808  13.597
67932W        W34341  18.508  24.670   2.209
67933W        W34342   5.935   7.983   1.384
67934W        W34343   6.279  23.625  13.342
67935W        W34344   4.534  16.625  11.676
67936W        W34345   3.921  29.997   2.187
67937W        W34346  18.247   3.732  14.329
67938W        W34347  27.018  35.072  13.396
67939W        W34348  30.135  29.650  11.049
67940W        W34349  33.010  28.269  13.190
67941W        W34350  24.453   2.735  12.865
67942W        W34351  36.903   0.189  13.955
67943W        W34352  43.757  11.361  14.768
67944W        W34353  21.647  26.707   9.889
67945W        W34354  12.590  23.185  13.463
67946W        W34355  36.818  33.876  13.028
67947W        W34356  10.304  12.536  13.563
67948W        W34357  39.829  39.370   3.384
67949W        W34358  35.551   8.110  13.903
67950W        W34359  35.754   1.157   1.649
67951W        W34360  27.520  21.563   1.243
67952W        W34361   4.297   6.252   0.463
67953W        W34362   2.489  35.982   0.368
67954W        W34363  39.627  11.858   1.659
67955W        W34364  23.250  41.265  14.295
67956W        W34365  23.103  12.262   1.268
67957W        W34366  22.547  20.119  10.824
67958W        W34367  42.448  13.646  14.880
67959W        W34368   5.345  33.840  10.815
67960W        W34369  41.014  20.544  11.028
67961W        W34370  17.158  27.012   3.596
67962W        W34371  25.476  29.598   3.378
67963W        W34372  41.411   3.449  13.805
67964W        W34373   9.331   9.694  12.502
67965W        W34374  32.936  40.365   1.220
67966W        W34375  12.178  15.537   2.837
67967W        W34376  11.659  15.454  14.027
67968W        W34377  26.285  12.077   0.898
67969W        W34378  41.175  29.022   4.688
67970W        W34379  41.969  33.761  13.026
67971W        W34380  10.664  16.232  11.736
67972W        W34381  28.985  21.073   4.383
67973W        W34382   8.380   7.842  11.105
67974W        W34383   8.188  35.713   3.237
67975W        W34384  33.509  27.467  13.094
67976W        W34385  19.644  20.355   5.322
67977W        W34386  29.459  21.900   3.023
67978W        W34387  15.810  39.144   4.355
67979W        W34388  39.776  24.619   2.446
67980W        W34389  22.443   9.848   2.346
67981W        W34390   8.507  11.402  14.485
67982W        W34391  10.964  20.571  14.439
67983W        W34392  31.261  19.003  13.038
67984W        W34393  28.098  41.354   0.302
67985W        W34394  17.613  12.784  10.713
67986W        W34395   0.166  37.153   4.526
67987W        W34396  14.860  38.389   3.137
67988W        W34397  23.691  13.384   1.828
67989W        W34398  36.405   5.926   3.679
67990W        W34399  10.810  19.908   1.610
67991W        W34400  30.777   7.528   4.146
67992W        W34401  23.929  26.960  13.424
67993W        W34402  28.050   3.175   1.362
67994W        W34403   1.090  25.517  13.556
67995W        W34404   0.005  28.901   4.504
67996W        W34405  26.498  36.148  13.869
67997W        W34406  27.011  21.201   2.323
67998W        W34407  36.317   8.727   1.459
67999W        W34408  36.040  32.629  12.035
68000W        W34409  22.323  33.484   0.303
68001W        W34410  14.674   2.242  11.995
68002W        W34411  39.772  18.402  12.223
68003W        W34412  35.126  16.025   2.584
68004W        W34413   9.331  25.421  12.961
68005W        W34414  13.081  36.178   4.377
68006W        W34415  25.429  26.985   3.271
68007W        W34416  25.523   3.871   3.576
68008W        W34417  25.718  18.804  14.433
68009W        W34418  36.885   7.338  11.300
68010W        W34419  19.090  35.419  11.547
68011W        W34420  18.308  29.778   3.076
68012W        W34421   6.869  12.470  14.453
68013W        W34422  32.466  36.823   2.219
68014W        W34423   2.094  12.611  12.530
68015W        W34424  32.344  42.324   4.216
68016W        W34425  22.028  20.925  13.983
68017W        W34426  25.188  43.849   0.347
68018W        W34427  40.129  35.560   1.036
68019W        W34428  34.362  16.328  14.237
68020W        W34429  39.510  42.154   3.771
68021W        W34430  35.687   0.604  11.979
68022W        W34431  20.244   4.722   0.932
68023W        W34432  29.139  44.337  10.688
68024W        W34433   3.947   0.988  13.945
68025W        W34434  29.603   6.693  14.258
68026W        W34435  23.731  33.110   2.885
68027W        W34436  37.361  42.738   1.748
68028W        W34437  13.908  15.065   2.310
68029W        W34438   3.698  16.822   4.829
68030W        W34439  37.101  43.038   3.082
68031W        W34440   2.303  18.588  14.075
68032W        W34441   7.462  20.191   4.151
68033W        W34442  13.149  35.327   2.236
68034W        W34443  17.222   6.990   1.029
68035W        W34444   4.912   5.324  14.408
68036W        W34445  10.084  21.476  14.832
68037W        W34446  33.719   2.958  13.879
68038W        W34447  38.220  44.713  13.430
68039W        W34448  38.962  22.773   4.790
68040W        W34449  19.769  44.927  10.641
68041W        W34450  41.390  35.568  12.108
68042W        W34451  21.667   2.218  14.082
68043W        W34452  18.118  11.261   3.761
68044W        W34453  13.037  21.615   3.589
68045W        W34454   5.177  17.189  12.082
68046W        W34455  19.240  30.646  14.308
68047W        W34456  28.633  17.326   3.731
68048W        W34457  28.038  22.649   4.306
68049W        W34458  19.716  26.691   2.417
68050W        W34459  36.334  33.540  10.432
68051W        W34460  14.111  28.259   2.074
68052W        W34461  20.578  34.682   4.093
68053W        W34462   5.794  41.469   3.851
68054W        W34463   8.043  30.001   1.236
68055W        W34464   3.190  29.865  12.709
68056W        W34465  16.549  42.549   0.385
68057W        W34466   6.572  23.640   4.999
68058W        W34467  19.673   3.115  10.337
68059W        W34468  10.570  22.650   3.636
68060W        W34469  34.162  15.948  13.933
68061W        W34470  20.430   8.413   4.317
68062W        W34471  41.713  13.117   1.376
68063W        W34472   1.934   1.322   3.361
68064W        W34473  16.460  19.643  10.609
68065W        W34474  33.416  38.944  13.416
68066W        W34475   7.080  12.129  10.515
68067W        W34476  20.850  30.840   4.359
68068W        W34477  39.120  25.469   0.418
68069W        W34478  18.560  37.294   4.587
68070W        W34479  20.258   1.917   0.545
68071W        W34480  41.537  22.545   2.833
68072W        W34481  30.443  39.864  13.329
68073W        W34482  23.090   5.368   0.648
68074W        W34483  34.853  34.952  13.754
68075W        W34484  32.856  15.300   5.334
68076W        W34485  11.403  30.757  11.596
68077W        W34486   1.682  11.278  11.632
68078W        W34487  20.251  28.590   2.119
68079W        W34488  11.237   1.868  13.594
68080W        W34489   4.290  31.091   0.935
68081W        W34490  16.597  30.905  12.811
68082W        W34491  16.243  25.826   2.239
68083W        W34492  34.571   9.355  14.816
68084W        W34493   0.488  30.178   3.531
68085W        W34494  17.309   7.000   3.167
68086W        W34495   5.743   5.767  14.126
68087W        W34496  37.552  40.678  12.097
68088W        W34497  23.303  17.762  13.950
68089W        W34498  19.488  11.040   1.325
68090W        W34499  19.842  14.769   3.399
68091W        W34500  27.053  16.573  12.653
68092W        W34501  18.587  23.164  12.591
68093W        W34502  36.280  40.479  11.233
68094W        W34503  35.632  15.608   4.097
68095W        W34504  10.599  19.759  14.811
68096W        W34505  16.848   3.381  10.628
68097W        W34506  38.460  29.987  12.242
68098W        W34507  15.632  40.183  11.432
68099W        W34508   7.399   2.275  13.457
68100W        W34509  10.693  15.382  14.839
68101W        W34510  19.573  31.418   0.244
68102W        W34511  21.248  26.204   0.068
68103W        W34512  23.523  31.553  13.606
68104W        W34513   0.404  20.893  12.857
68105W        W34514  20.061  13.444   3.264
68106W        W34515  14.049   7.113   3.124
68107W        W34516   4.183  44.472   0.226
68108W        W34517  16.260  37.948   2.361
68109W        W34518  10.258  40.458   1.298
68110W        W34519  14.337  24.747  11.114
68111W        W34520   1.580  34.315   2.719
68112W        W34521  11.731  23.493  11.555
68113W        W34522  39.251  14.864   4.435
68114W        W34523   1.092  34.838   4.089
68115W        W34524  20.557  22.067  13.139
68116W        W34525  32.083  14.075  11.329
68117W        W34526  37.753  31.278   4.055
68118W        W34527   3.241  30.064  13.188
68119W        W34528   7.818  23.881   3.515
68120W        W34529  18.118  27.663   4.123
68121W        W34530   2.420  30.190   4.582
68122W        W34531  36.926   4.792   3.607
68123W        W34532  24.427  22.278   3.606
68124W        W34533  23.028  24.469  13.249
68125W        W34534  16.842  27.140  11.960
68126W        W34535   4.699   8.223   0.754
68127W        W34536  23.940  27.563  12.817
68128W        W34537  10.360   2.032  14.653
68129W        W34538   8.650  11.347   4.874
68130W        W34539  38.124  29.947  14.144
68131W        W34540   6.672  27.025  10.324
68132W        W34541  27.568  17.402   3.666
68133W        W34542  26.111  19.665   1.044
68134W        W34543  34.818  21.465   3.600
68135W        W34544  14.972  33.185   4.996
68136W        W34545  30.066   6.808   3.401
68137W        W34546  28.676  38.825  10.690
68138W        W34547  22.512  44.007   4.410
68139W        W34548  41.377   4.798   2.830
68140W        W34549   4.175   5.955   3.175
68141W        W34550  21.090  44.967  10.948
68142W        W34551  20.678   3.810   3.352
68143W        W34552  29.138  21.977  12.519
68144W        W34553   6.236  33.866  13.870
68145W        W34554  25.123  31.687  11.523
68146W        W34555  13.747  11.937  12.209
68147W        W34556  24.419  17.794   4.231
68148W        W34557  15.046  27.936   4.802
68149W        W34558  10.298  38.058   3.704
68150W        W34559  25.133  42.429  13.420
68151W        W34560  32.148   7.915   1.421
68152W        W34561  28.618   9.761  13.192
68153W        W34562  22.337   0.407   1.744
68154W        W34563  20.114  40.793   3.691
68155W        W34564  25.956  20.221   4.269
68156W        W34565  20.370  32.609   0.267
68157W        W34566  43.833  12.318   2.181
68158W        W34567  37.013   7.369  13.101
68159W        W34568  26.608  35.033   3.286
68160W        W34569  33.045  40.228   4.839
68161W        W34570  38.575  27.873   0.852
68162W        W34571  14.809  33.638   0.349
68163W        W34572  36.885   2.358   1.357
68164W        W34573   4.280  27.254  13.318
68165W        W34574   2.463   4.846   0.480
68166W        W34575  21.168   4.137   2.091
68167W        W34576  44.752  16.830   3.290
68168W        W34577  44.492  11.828   4.218
68169W        W34578  30.125  20.116   2.329
68170W        W34579   0.888  16.083  11.519
68171W        W34580  28.954   8.920   2.234
68172W        W34581  25.964  24.865  11.578
68173W        W34582  39.285  30.586   0.472
68174W        W34583  15.501   3.015   1.231
68175W        W34584  29.322  25.403   3.262
68176W        W34585  15.374  16.174  11.097
68177W        W34586  26.960  33.126  13.426
68178W        W34587  30.737  23.157   4.103
68179W        W34588   9.628   9.803   4.375
68180W        W34589   5.005  18.266  14.115
68181W        W34590  35.579  13.977   3.795
68182W        W34591  12.112  36.605   1.745
68183W        W34592  11.608  24.440   2.978
68184W        W34593  42.896  30.111  12.096
68185W        W34594   5.329  15.584  12.081
68186W        W34595  12.055  35.598  11.156
68187W        W34596  22.259  12.769   1.236
68188W        W34597  16.214  43.403   4.635
68189W        W34598  12.202  18.731   3.120
68190W        W34599  14.061  14.840  11.983
68191W        W34600   7.542  41.783   3.241
68192W        W34601  16.935  17.715   0.430
68193W        W34602   2.374  12.315  11.193
68194W        W34603  43.292  22.196  12.539
68195W        W34604  35.951  40.589  10.852
68196W        W34605  38.971   5.966   4.482
68197W        W34606   0.341  16.350  12.442
68198W        W34607   2.948  14.607  14.809
68199W        W34608  28.454  18.821  10.968
68200W        W34609  21.573  32.081   4.472
68201W        W34610  33.599  39.419   0.219
68202W        W34611  39.427  11.182  14.458
68203W        W34612  41.443   6.219  11.938
68204W        W34613  25.584  42.394   0.458
68205W        W34614  39.543   7.269   3.173
68206W        W34615  43.982  21.763  14.913
68207W        W34616  43.579  14.229   1.847
68208W        W34617   2.408   4.665  11.463
68209W        W34618  18.606  20.112   0.180
68210W        W34619   5.209   0.037   1.779
68211W        W34620  34.004  36.551  11.986
68212W        W34621  16.016  35.608  13.848
68213W        W34622  43.522  39.377  10.587
68214W        W34623  26.625  13.203  10.764
68215W        W34624  22.295  21.015   2.655
68216W        W34625  38.877  12.653  14.082
68217W        W34626   4.520  16.979   1.785
68218W        W34627  28.285  34.629   1.446
68219W        W34628  25.031  15.582   0.365
68220W        W34629  30.243   8.658   5.418
68221W        W34630  37.597  43.719   2.640
68222W        W34631  39.894   2.802   5.026
68223W        W34632  26.475  27.654   3.417
68224W        W34633  11.179  44.504  14.983
68225W        W34634  10.788  42.386  12.423
68226W        W34635  22.887  30.534  11.151
68227W        W34636  24.066  12.650   0.950
68228W        W34637  16.774  10.693  13.255
68229W        W34638  21.134   4.267  11.998
68230W        W34639  39.940  33.190   4.221
68231W        W34640  41.023  29.000   4.150
68232W        W34641   4.281  25.898   4.617
68233W        W34642  18.359  36.185   1.309
68234W        W34643  15.828  44.121   2.624
68235W        W34644   1.362  18.780  12.947
68236W        W34645  16.558  21.169   3.743
68237W        W34646   1.429  12.692   3.223
68238W        W34647  43.270   1.886  11.018
68239W        W34648  27.607  31.018  13.975
68240W        W34649   8.404  30.449   2.290
68241W        W34650  34.136   0.168   1.791
68242W        W34651  23.897  28.050  12.633
68243W        W34652  32.991   7.027  11.398
68244W        W34653  13.446  31.523   1.481
68245W        W34654  12.419  41.102  11.113
68246W        W34655  43.089  26.665   4.675
68247W        W34656  44.462   5.769   3.052
68248W        W34657  17.317  11.763   1.475
68249W        W34658  12.428  37.963   5.500
68250W        W34659  38.495  30.909   3.626
68251W        W34660  42.865  25.751   1.618
68252W        W34661  15.138  13.288  13.957
68253W        W34662   8.349   6.005  14.968
68254W        W34663  41.026  11.967  11.990
68255W        W34664  38.107   2.895  12.444
68256W        W34665  40.912  25.644   3.380
68257W        W34666  30.711  30.502  13.403
68258W        W34667  10.106   9.129   2.240
68259W        W34668  15.579  25.472   1.852
68260W        W34669   1.723   4.959  14.669
68261W        W34670   7.086  15.208   2.920
68262W        W34671   0.520  27.715   0.396
68263W        W34672   0.892  41.316   0.836
68264W        W34673   4.579  29.682   0.365
68265W        W34674  31.445  33.076   1.964
68266W        W34675   2.440   5.326   4.323
68267W        W34676   4.002   9.750   0.353
68268W        W34677  36.432  44.874   3.808
68269W        W34678  20.089  24.118   4.334
68270W        W34679  32.645   7.367   3.247
68271W        W34680  28.718  39.659   0.371
68272W        W34681  37.711  36.587  11.237
68273W        W34682  26.454  10.957  13.571
68274W        W34683  38.898  10.409  11.303
68275W        W34684  16.785  20.680  13.437
68276W        W34685   5.496  29.600   0.859
68277W        W34686  28.622  30.974  11.874
68278W        W34687   2.766  20.262  14.310
68279W        W34688  10.326  29.108  11.366
68280W        W34689  22.777   3.489  10.582
68281W        W34690  13.717   7.393  13.436
68282W        W34691  44.381  23.756   0.893
68283W        W34692  43.603  13.725   2.261
68284W        W34693  12.733  43.250  10.914
68285W        W34694  38.307  32.015   4.117
68286W        W34695  34.940  35.104   1.386
68287W        W34696  36.551   2.561  13.946
68288W        W34697  20.551  25.698   4.160
68289W        W34698  17.086  28.948   0.675
68290W        W34699  31.569  38.770   2.663
68291W        W34700  34.787  18.225  10.681
68292W        W34701   7.352  13.350   2.462
68293W        W34702  28.751  38.461  12.546
68294W        W34703  29.673   0.772   4.075
68295W        W34704  29.352  22.563   0.927
68296W        W34705  22.695  12.217   0.659
68297W        W34706  24.253  39.977   2.296
68298W        W34707  38.966   0.741  12.084
68299W        W34708  28.181   9.754  13.952
68300W        W34709  16.365   5.332   1.011
68301W        W34710   0.698  32.095  14.380
68302W        W34711  33.371  33.171  13.406
68303W        W34712  11.861  32.409   0.907
68304W        W34713  30.950  37.704  10.633
68305W        W34714  22.041  28.617  12.993
68306W        W34715  27.638   6.891   0.359
68307W        W34716   0.338   5.488   3.586
68308W        W34717  36.653  42.960   9.963
68309W        W34718  34.957  13.240  11.778
68310W        W34719  12.841  34.848   0.402
68311W        W34720   8.604   3.802  11.665
68312W        W34721  25.727  23.365   4.963
68313W        W34722   8.705  28.667  10.682
68314W        W34723   9.959  15.186   1.829
68315W        W34724  12.086  11.317  11.667
68316W        W34725   0.358  22.927   0.720
68317W        W34726  42.818  19.710  12.227
68318W        W34727   0.536  38.608   4.265
68319W        W34728  23.938  15.906  11.154
68320W        W34729   7.653  43.960  12.626
68321W        W34730  28.281  20.424   2.173
68322W        W34731  21.430  15.571  11.028
68323W        W34732  30.095  35.859   4.764
68324W        W34733   8.548  41.455   2.226
68325W        W34734  36.471  16.835  13.587
68326W        W34735  32.320   7.864  11.382
68327W        W34736   5.356  21.748   2.365
68328W        W34737  29.626  12.096   1.402
68329W        W34738   5.688   8.775  13.904
68330W        W34739   4.445   0.233   4.292
68331W        W34740  39.560  22.198  12.013
68332W        W34741  14.055  43.052  14.844
68333W        W34742   7.228  19.562   3.394
68334W        W34743   7.619   9.586  13.619
68335W        W34744   0.882   7.460   0.375
68336W        W34745  19.189  25.091   2.704
68337W        W34746  36.464  28.179   2.348
68338W        W34747  42.676  43.583  14.835
68339W        W34748  35.539   4.180  12.678
68340W        W34749   0.038   1.944  14.408
68341W        W34750   4.565  15.629   3.805
68342W        W34751  36.479  22.161   0.813
68343W        W34752  18.438   9.345   0.430
68344W        W34753   3.826  35.773   3.727
68345W        W34754  15.407   0.923  11.300
68346W        W34755  33.411  40.589   5.033
68347W        W34756  36.403  24.198   2.325
68348W        W34757  26.698  40.919  13.540
68349W        W34758  28.141  15.032   4.634
68350W        W34759   0.213  21.093   0.027
68351W        W34760  41.177  20.121  11.559
68352W        W34761  26.416   7.892  11.056
68353W        W34762  36.418  16.334   4.866
68354W        W34763   1.551  23.155  14.262
68355W        W34764  44.192  33.552   0.722
68356W        W34765  22.320  33.325  11.199
68357W        W34766  44.455  26.450   2.346
68358W        W34767  22.767  43.694  13.590
68359W        W34768   6.522  15.229  10.864
68360W        W34769   6.285  33.148  14.456
68361W        W34770  36.843   2.371   3.811
68362W        W34771  12.148   3.389  12.968
68363W        W34772  27.958   4.490   2.778
68364W        W34773  10.840   7.434   1.758
68365W        W34774   0.190  12.220  12.878
68366W        W34775   3.678  30.442   5.022
68367W        W34776  43.938   3.655  14.301
68368W        W34777  29.225  12.119   0.887
68369W        W34778   0.827  43.540   1.772
68370W        W34779   7.911  43.880   4.103
68371W        W34780  21.602  42.241   0.924
68372W        W34781  30.419  42.981  13.766
68373W        W34782  39.414  30.430  11.962
68374W        W34783  18.448  29.643   2.239
68375W        W34784  16.580  29.470   2.469
68376W        W34785  29.898  37.085   0.169
68377W        W34786  16.985   0.749   1.212
68378W        W34787  41.914  34.906   0.058
68379W        W34788  41.592  44.228   4.965
68380W        W34789  36.495  23.437   0.257
68381W        W34790  31.028  25.281   0.172
68382W        W34791  33.283  44.412   1.752
68383W        W34792  17.799  35.202   1.749
68384W        W34793  25.876  28.424   4.667
68385W        W34794   2.293   6.114  12.910
68386W        W34795  27.161   1.217  13.500
68387W        W34796  25.914  12.193  11.652
68388W        W34797  32.786  30.303   3.573
68389W        W34798  20.244  33.095  10.952
68390W        W34799  39.493   6.697  12.859
68391W        W34800  42.048  24.487   2.792
68392W        W34801  18.283  42.637  13.785
68393W        W34802   9.881   0.432  12.995
68394W        W34803  31.717  29.669   2.709
68395W        W34804  28.361  40.777  11.147
68396W        W34805   8.702  25.241   4.481
68397W        W34806  33.376   6.917   3.723
68398W        W34807   0.271  41.845   2.737
68399W        W34808  28.879  14.112  11.984
68400W        W34809  32.977  10.522   1.938
68401W        W34810  34.997  34.492   2.183
68402W        W34811  40.949   8.736   1.383
68403W        W34812  31.059  24.957  14.769
68404W        W34813  34.672  19.223  14.208
68405W        W34814   8.700   8.868  14.709
68406W        W34815  16.770   7.930  14.053
68407W        W34816  32.011  39.439   2.137
68408W        W34817  33.497  17.785   0.488
68409W        W34818  35.008  44.343   4.108
68410W        W34819  28.245  40.196   3.171
68411W        W34820  35.791  24.353   5.298
68412W        W34821   3.474  20.458   4.594
68413W        W34822  44.769  24.060  12.587
68414W        W34823  35.493   0.380   3.369
68415W        W34824  29.024  29.241   3.464
68416W        W34825  44.773  30.235   5.319
68417W        W34826  39.130  41.466  11.619
68418W        W34827  30.405  42.536  13.469
68419W        W34828   7.412  24.064   0.396
68420W        W34829  31.930  39.783  13.542
68421W        W34830  19.003  24.984  13.948
68422W        W34831  25.959  21.686  13.477
68423W        W34832  36.102  38.311   4.152
68424W        W34833  21.643  23.113  14.371
68425W        W34834  31.321  18.217   0.789
68426W        W34835  20.196  43.991  12.412
68427W        W34836   9.193  19.221  11.962
68428W        W34837  10.303  33.204   3.562
68429W        W34838   9.625   7.841  14.781
68430W        W34839   6.427  10.078   4.216
68431W        W34840  29.878  31.574  13.532
68432W        W34841   7.691  31.376   1.810
68433W        W34842  26.383  39.974  13.745
68434W        W34843  40.631  25.024  13.233
68435W        W34844  41.766   6.680  12.028
68436W        W34845  13.718  36.680  11.899
68437W        W34846  20.214  25.436  11.984
68438W        W34847   3.404  35.425   3.759
68439W        W34848  41.867  26.847   2.846
68440W        W34849  10.480  31.910   3.194
68441W        W34850   7.855  42.947   9.932
68442W        W34851  20.222  19.290   1.551
68443W        W34852   1.651   0.745   3.306
68444W        W34853   4.511  36.769  11.110
68445W        W34854  11.815   7.977   4.306
68446W        W34855  18.190   0.077  13.782
68447W        W34856   0.779  21.002   4.105
68448W        W34857  22.765   7.271   2.206
68449W        W34858   4.000  29.477   1.265
68450W        W34859  28.133  42.070  13.829
68451W        W34860  11.263  16.035  11.997
68452W        W34861   6.218  38.124   3.319
68453W        W34862   0.832  10.049  14.512
68454W        W34863  10.694  16.548   0.945
68455W        W34864  33.084  35.657  10.835
68456W        W34865  24.521   2.480  14.228
68457W        W34866  26.577   6.712   0.803
68458W        W34867  23.206  30.183  14.014
68459W        W34868  15.324   7.391  14.238
68460W        W34869  31.548  12.706  13.886
68461W        W34870   5.039  40.135  11.078
68462W        W34871  24.956  32.600  12.768
68463W        W34872  25.518   8.368   0.852
68464W        W34873  20.579  20.456   3.651
68465W        W34874   1.237  13.179   1.318
68466W        W34875   3.806   1.512  12.060
68467W        W34876  17.141  40.795   2.149
68468W        W34877   7.899  12.244   4.379
68469W        W34878   8.909  14.853  11.085
68470W        W34879   1.524   6.337   3.735
68471W        W34880  32.959   7.262   3.648
68472W        W34881  31.172   1.470   1.778
68473W        W34882  23.207  34.633   0.573
68474W        W34883  20.176   5.574   1.900
68475W        W34884   3.636  42.329   2.558
68476W        W34885  33.533  23.254  11.893
68477W        W34886  17.875  36.203   2.505
68478W        W34887  35.470   8.792  12.574
68479W        W34888   3.320  26.086   1.751
68480W        W34889  11.315  12.894  10.623
68481W        W34890  40.043  18.250   2.737
68482W        W34891  36.499  44.310  11.693
68483W        W34892   2.034  11.271   1.407
68484W        W34893  40.928  29.465  12.133
68485W        W34894  39.809  32.960  14.374
68486W        W34895   7.489  27.882   1.803
68487W        W34896  30.737  28.154   3.714
68488W        W34897  26.548  29.006  12.948
68489W        W34898  24.727  41.989   4.530
68490W        W34899  36.377   5.574   2.397
68491W        W34900  22.469   8.907  11.151
68492W        W34901  18.594  21.986  14.096
68493W        W34902  12.246   7.453   0.465
68494W        W34903  39.102   4.681  14.070
68495W        W34904  26.226  40.097  11.963
68496W        W34905  37.908  40.476   3.400
68497W        W34906  23.004  25.925   1.524
68498W        W34907   9.679  41.473   0.636
68499W        W34908  31.140  23.546   0.965
68500W        W34909  44.554   3.248  11.083
68501W        W34910  27.546  40.122   1.396
68502W        W34911  19.293  38.828  11.881
68503W        W34912  18.295  25.465  11.824
68504W        W34913  31.419  37.275   3.467
68505W        W34914  36.339  19.485   2.722
68506W        W34915  17.200  24.281  11.534
68507W        W34916  19.543  41.556  13.373
68508W        W34917  33.644   2.259   3.188
68509W        W34918  25.186  15.088  13.251
68510W        W34919  17.127  23.936  14.325
68511W        W34920  25.510  31.103   1.211
68512W        W34921  29.686  26.044   1.877
68513W        W34922  11.621   1.244   1.637
68514W        W34923   2.792  13.288   2.491
68515W        W34924  30.534  32.074  12.848
68516W        W34925  34.720  30.470   0.781
68517W        W34926  22.968  43.567  11.519
68518W        W34927  22.381  16.900  12.588
68519W        W34928  10.575  42.318  13.441
68520W        W34929  10.928  27.997  12.834
68521W        W34930  23.028  25.668   0.496
68522W        W34931  33.429   1.730  13.473
68523W        W34932  19.178  26.967   4.490
68524W        W34933  18.700  29.494  11.846
68525W        W34934  13.526  16.656   0.060
68526W        W34935  27.504   0.441  11.153
68527W        W34936  16.502  25.893  12.570
68528W        W34937   2.422   1.715  10.999
68529W        W34938  42.520  29.594   3.852
68530W        W34939  27.638   9.824   4.749
68531W        W34940   3.882  14.134   4.217
68532W        W34941  40.805  36.427  11.162
68533W        W34942  16.710   5.349   3.466
68534W        W34943  32.924  20.602   0.588
68535W        W34944  31.418  11.838  14.516
68536W        W34945   9.842  13.358  13.452
68537W        W34946   6.271  19.626   1.792
68538W        W34947  39.562   6.837   2.893
68539W        W34948  16.533  25.289  12.252
68540W        W34949  32.213   8.457   0.064
68541W        W34950   5.459  38.472   4.589
68542W        W34951  31.643  41.821   1.349
68543W        W34952   6.949  38.369  10.808
68544W        W34953  37.898   3.021  12.906
68545W        W34954   3.235   6.437  11.039
68546W        W34955   8.408  11.161   4.285
68547W        W34956  41.996  17.674   4.685
68548W        W34957   3.799  36.464  13.506
68549W        W34958  24.369  26.734   3.884
68550W        W34959   7.623  16.449  14.442
68551W        W34960   1.952  20.064   2.116
68552W        W34961   4.344  17.434   0.662
68553W        W34962   3.093  23.759   3.114
68554W        W34963  19.535   4.619   2.282
68555W        W34964  14.602  24.900  13.812
68556W        W34965   7.363  26.481  14.550
68557W        W34966   9.683  34.943   1.373
68558W        W34967   3.936  34.993   0.436
68559W        W34968   0.143  23.493  10.654
68560W        W34969   2.813  32.974   3.709
68561W        W34970  44.497   6.849   4.236
68562W        W34971   0.717  41.527  11.551
68563W        W34972  26.602  17.140  13.964
68564W        W34973  11.686  34.032   3.463
68565W        W34974  14.802  44.189  10.145
68566W        W34975  27.311   0.813   3.204
68567W        W34976   5.778  38.077   1.432
68568W        W34977  40.514  25.153   2.925
68569W        W34978  22.486  32.812  10.850
68570W        W34979  14.309   5.391   2.607
68571W        W34980   4.401  40.802  11.128
68572W        W34981  11.973  16.749   4.549
68573W        W34982   8.433  25.419  10.508
68574W        W34983   6.691  37.320   3.258
68575W        W34984  28.911  14.217   2.610
68576W        W34985  42.337   7.386  13.835
68577W        W34986  35.440  31.696   3.388
68578W        W34987  19.549  35.390  11.270
68579W        W34988   2.579  36.093   2.924
68580W        W34989  20.353  40.472   4.188
68581W        W34990  18.310   5.437  13.473
68582W        W34991  32.770  44.995   2.170
68583W        W34992  36.011  25.719  12.562
68584W        W34993   6.902   7.381  12.558
68585W        W34994  44.361  36.700   0.745
68586W        W34995   7.073  18.305  12.985
68587W        W34996  40.843  33.736  11.818
68588W        W34997  20.639  35.082   1.706
68589W        W34998  21.821  32.821   1.705
68590W        W34999  13.073  38.803  11.640
68591W        W35000  34.959   7.152   4.187
68592W        W35001   8.297   0.480  10.727
68593W        W35002   5.188  32.579   2.291
68594W        W35003   1.744  25.975   0.409
68595W        W35004  25.110  27.310   2.369
68596W        W35005   2.150  21.148  14.926
68597W        W35006   6.489  11.165   3.874
68598W        W35007  10.196  37.052  12.581
68599W        W35008  26.097  38.001  14.718
68600W        W35009   4.821  39.366  13.419
68601W        W35010  27.559  40.637  12.553
68602W        W35011  32.145  19.355   3.764
68603W        W35012  37.417  19.733   1.996
68604W        W35013  41.580  42.202  10.450
68605W        W35014  42.247   5.234  13.733
68606W        W35015  42.619  33.848  14.523
68607W        W35016  19.583  14.269  12.948
68608W        W35017  17.078  37.608  12.544
68609W        W35018  33.102  26.197  13.021
68610W        W35019  43.078  27.413   4.303
68611W        W35020  18.156  33.193   4.148
68612W        W35021  32.522  35.986   5.135
68613W        W35022  38.795  16.251   3.738
68614W        W35023  35.833  33.669   1.755
68615W        W35024  32.175  21.563   2.590
68616W        W35025  28.436  34.774  12.705
68617W        W35026  32.160   6.702   0.744
68618W        W35027  10.029   4.646   2.245
68619W        W35028  25.245  11.125  11.011
68620W        W35029  36.513  24.019  11.550
68621W        W35030  37.908  18.203  12.020
68622W        W35031  27.102  11.177  13.327
68623W        W35032  20.822  20.656  11.456
68624W        W35033  23.293  41.440  12.968
68625W        W35034  44.842  17.268  10.859
68626W        W35035  30.503  43.437   0.615
68627W        W35036  21.805  44.982   0.765
68628W        W35037  17.507  10.943   4.245
68629W        W35038  36.667   0.922   0.183
68630W        W35039  13.279  19.469  13.597
68631W        W35040  23.292   8.675   1.304
68632W        W35041  17.536  44.240   3.701
68633W        W35042  15.961  10.253   2.744
68634W        W35043  31.636  22.939   0.489
68635W        W35044  10.670  20.783   2.859
68636W        W35045  31.746  10.867   1.271
68637W        W35046  10.104  38.594   2.280
68638W        W35047  20.403  42.886   3.693
68639W        W35048  33.084  11.514   3.230
68640W        W35049  33.298  11.331   2.801
68641W        W35050  24.445   8.888   3.698
68642W        W35051   7.855  33.274  12.834
68643W        W35052  26.890   4.849  14.351
68644W        W35053   9.736   8.624  10.606
68645W        W35054  11.250   4.829  12.658
68646W        W35055  25.398  33.733   3.744
68647W        W35056  36.358   4.635  13.969
68648W        W35057   5.050  17.557  13.665
68649W        W35058   0.273  13.998   2.374
68650W        W35059  10.272   4.471   2.772
68651W        W35060  24.956  20.086  12.034
68652W        W35061  17.386  29.087  12.970
68653W        W35062  29.121   3.343  10.539
68654W        W35063  25.282  22.285   0.934
68655W        W35064   0.694  43.892   3.082
68656W        W35065  42.669  41.105  13.009
68657W        W35066  27.501  21.137   3.633
68658W        W35067   6.857  23.480   0.018
68659W        W35068   9.417  40.419  12.367
68660W        W35069  40.334  37.480  14.763
68661W        W35070  40.755  39.778   4.873
68662W        W35071  31.182  22.657   0.477
68663W        W35072  18.571  38.458   1.863
68664W        W35073  35.810  31.997   0.263
68665W        W35074  11.741   4.430  10.702
68666W        W35075  22.264   2.391   4.709
68667W        W35076   0.030  41.281  11.020
68668W        W35077   8.570  17.046  11.464
68669W        W35078  25.475  22.498  13.979
68670W        W35079  27.281  15.974  10.949
68671W        W35080  16.587   0.701  12.894
68672W        W35081  26.787  36.887  12.411
68673W        W35082  29.426  30.300   2.816
68674W        W35083  44.848  29.421  13.107
68675W        W35084  32.388  12.137   4.601
68676W        W35085  19.204  28.955  11.375
68677W        W35086  19.304   1.864  11.723
68678W        W35087  28.991  34.629   0.837
68679W        W35088  32.651  13.510  14.529
68680W        W35089  13.828   3.863   4.736
68681W        W35090  33.500  23.750  13.034
68682W        W35091  34.911  44.915   0.875
68683W        W35092  37.927  11.906  12.166
68684W        W35093  25.684  12.174  14.713
68685W        W35094  10.553   8.874   4.069
68686W        W35095  42.401  44.819   0.497
68687W        W35096  19.275   6.809  14.900
68688W        W35097   4.370  29.666   3.188
68689W        W35098   1.499   6.721   4.537
68690W        W35099   7.140  43.621  10.681
68691W        W35100  42.372  32.923  10.632
68692W        W35101   3.290  32.704   9.442
68693W        W35102  18.242  44.061  13.521
68694W        W35103  18.484  44.501  10.643
68695W        W35104  28.405  18.118  12.002
68696W        W35105   5.166  38.918  13.517
68697W        W35106  30.313   2.755  13.340
68698W        W35107  15.759  30.142   2.796
68699W        W35108  24.069  15.739   3.641
68700W        W35109  26.734  15.796  14.790
68701W        W35110  35.984  28.482  10.619
68702W        W35111  30.969   1.802   3.228
68703W        W35112  20.865  13.573  14.497
68704W        W35113  39.305  40.319  12.874
68705W        W35114   0.352  15.285  10.677
68706W        W35115   0.250  13.142   1.672
68707W        W35116  14.208  26.307  14.819
68708W        W35117  44.170  41.341   1.431
68709W        W35118  38.082   2.898   3.055
68710W        W35119   9.735  10.935   0.819
68711W        W35120  36.154  26.517   0.951
68712W        W35121  16.210  24.041  11.540
68713W        W35122  41.741  41.568  11.980
68714W        W35123  10.200  35.078   3.209
68715W        W35124  44.802   9.653   0.373
68716W        W35125   1.188  17.461  14.802
68717W        W35126  32.507  20.530   3.201
68718W        W35127  23.013  19.586   4.061
68719W        W35128   2.387  15.552   0.468
68720W        W35129  10.394  28.269   0.761
68721W        W35130   1.985  42.525  10.623
68722W        W35131  20.063   2.284   2.243
68723W        W35132  44.614  33.575   4.201
68724W        W35133  32.999  12.102   1.760
68725W        W35134  12.925  27.884  12.891
68726W        W35135  11.210  12.407  13.365
68727W        W35136  35.492  13.270  11.063
68728W        W35137  40.859   4.553   3.615
68729W        W35138  40.241   9.872   2.618
68730W        W35139  17.404  34.201  11.228
68731W        W35140  24.787  20.045  13.049
68732W        W35141  15.067  38.915   1.231
68733W        W35142  25.717  41.739  13.609
68734W        W35143  29.135  43.067   2.368
68735W        W35144   8.831  43.851   0.565
68736W        W35145  31.610  11.868   1.427
68737W        W35146  29.576  28.122  12.803
68738W        W35147   1.894  12.874  13.886
68739W        W35148   4.707  30.962  10.842
68740W        W35149  41.127  27.533   0.571
68741W        W35150  28.433  37.512   3.081
68742W        W35151  32.332  12.640  11.042
68743W        W35152   7.790  31.452  11.278
68744W        W35153   9.410  28.416   1.769
68745W        W35154  29.868  44.504   0.318
68746W        W35155  18.700  12.501  10.732
68747W        W35156  22.077  11.840  12.955
68748W        W35157  36.225  14.676   3.714
68749W        W35158  44.973  37.014   2.563
68750W        W35159  20.306  15.636  12.017
68751W        W35160  18.235  16.603  14.866
68752W        W35161  10.812  11.633   4.859
68753W        W35162  36.929   0.959  13.111
68754W        W35163  13.333  10.864   3.046
68755W        W35164   0.684  13.684   3.604
68756W        W35165  41.845  18.467   3.720
68757W        W35166  23.309   3.387  14.032
68758W        W35167  43.003  26.655  11.736
68759W        W35168  11.855  31.078  13.408
68760W        W35169  33.527  43.547  12.634
68761W        W35170  37.417  17.497  12.103
68762W        W35171   8.407  13.395  13.024
68763W        W35172   5.292  28.329   1.416
68764W        W35173  39.664  17.155   1.682
68765W        W35174  40.017  36.461   0.761
68766W        W35175  23.720  19.080  11.553
68767W        W35176  19.186  42.355   2.793
68768W        W35177  35.926  19.287   0.653
68769W        W35178  12.169  12.182   3.066
68770W        W35179  35.609  10.114  14.507
68771W        W35180  24.995  40.647  12.885
68772W        W35181  12.523  39.186   3.606
68773W        W35182  37.813  33.391   1.907
68774W        W35183  23.171  44.618   0.356
68775W        W35184  12.835  14.735  12.620
68776W        W35185  18.252  32.537   2.424
68777W        W35186  20.243  13.646   4.665
68778W        W35187  31.166   1.335   4.996
68779W        W35188  22.393  44.275  11.208
68780W        W35189  27.499  12.419  13.339
68781W        W35190  10.626  33.725  11.210
68782W        W35191  40.779   6.834  14.340
68783W        W35192  43.006   1.410   1.392
68784W        W35193   6.171  44.392  13.545
68785W        W35194  14.013  34.404   3.289
68786W        W35195  23.507  10.641  13.072
68787W        W35196   8.424  22.097  11.179
68788W        W35197  40.321  40.291  11.520
68789W        W35198   1.538  23.072  11.114
68790W        W35199  19.777   7.669   1.722
68791W        W35200  37.936  20.108  11.663
68792W        W35201  18.667  24.070   3.775
68793W        W35202   7.253  20.172   4.633
68794W        W35203  41.212   3.859   1.287
68795W        W35204  41.277  14.255   3.196
68796W        W35205  32.890  32.965  13.362
68797W        W35206  24.532  28.346  14.839
68798W        W35207  37.846  42.949  10.363
68799W        W35208  38.379  19.548   0.208
68800W        W35209  27.776   7.907   0.063
68801W        W35210  33.000  39.523   1.776
68802W        W35211  14.672  17.263   2.388
68803W        W35212  34.158  25.624   1.002
68804W        W35213  19.785  26.052   1.971
68805W        W35214  29.445  21.708  13.996
68806W        W35215   3.589  38.490  12.821
68807W        W35216  26.892  17.028   2.721
68808W        W35217  16.099  44.486   0.204
68809W        W35218  16.520  29.862   4.334
68810W        W35219  34.849   7.158  11.595
68811W        W35220  24.911  42.035   2.493
68812W        W35221   5.878  36.993   2.912
68813W        W35222  17.258  14.230  13.531
68814W        W35223   8.236  19.306   3.251
68815W        W35224   4.187   2.876   2.213
68816W        W35225   0.441  29.176  14.432
68817W        W35226  34.116  10.900  11.579
68818W        W35227  23.083   9.325  10.665
68819W        W35228   0.329   6.182  14.541
68820W        W35229  31.569  13.112   2.157
68821W        W35230   8.059  21.705  10.137
68822W        W35231  17.705  44.388  13.417
68823W        W35232  29.091  38.069   0.931
68824W        W35233   2.425  43.670  12.092
68825W        W35234  30.045  23.841  12.845
68826W        W35235  25.215  27.914  13.324
68827W        W35236  33.955  20.791  11.065
68828W        W35237   1.352  27.332  12.708
68829W        W35238  24.943   1.900   2.774
68830W        W35239  21.820  33.722  14.346
68831W        W35240   1.186  35.017  12.937
68832W        W35241  44.578  19.228   4.299
68833W        W35242  11.254  34.106   0.439
68834W        W35243  44.710  39.338  11.368
68835W        W35244   6.514   0.602   3.223
68836W        W35245  15.561  35.520   4.641
68837W        W35246  41.749   4.392  10.720
68838W        W35247  33.410  31.983   0.254
68839W        W35248  15.513  28.246   3.239
68840W        W35249  27.955   1.277  12.945
68841W        W35250  25.248  28.708  14.431
68842W        W35251  34.868   6.895   3.744
68843W        W35252   7.132  14.621  14.905
68844W        W35253  16.093  35.912   0.781
68845W        W35254  32.616  42.901  12.679
68846W        W35255  29.576   7.152  11.985
68847W        W35256   7.949   8.676  11.497
68848W        W35257   4.695  17.989   0.423
68849W        W35258  43.478   1.563   4.762
68850W        W35259  36.875  33.231   0.683
68851W        W35260  42.930  20.195  12.445
68852W        W35261  28.280  39.487  14.155
68853W        W35262  19.148   7.837  10.693
68854W        W35263  17.004  42.531  14.852
68855W        W35264  26.075  25.589   0.470
68856W        W35265  27.912  15.095  14.311
68857W        W35266  13.224  13.784   4.691
68858W        W35267  23.550  10.125  13.994
68859W        W35268   8.219  36.481  12.426
68860W        W35269  11.637  29.805  13.997
68861W        W35270   1.931  21.205  11.515
68862W        W35271  21.669   2.700   3.655
68863W        W35272  37.024  38.859  10.673
68864W        W35273  18.489  20.256  11.439
68865W        W35274   8.178  38.991  10.667
68866W        W35275  34.536   1.739  12.515
68867W        W35276   9.888  35.616  11.572
68868W        W35277  21.177  22.262  11.414
68869W        W35278  43.784   3.486   1.819
68870W        W35279   5.020  25.534   4.148
68871W        W35280   9.163  36.900  13.825
68872W        W35281  32.379  36.915   0.721
68873W        W35282  28.529  12.369   3.619
68874W        W35283  37.301  40.239   1.345
68875W        W35284  21.763  32.838  14.711
68876W        W35285  39.875  24.635   2.975
68877W        W35286  26.356  32.061   0.262
68878W        W35287  44.259   8.347  13.729
68879W        W35288  30.047  27.912   1.886
68880W        W35289  44.425  29.594  12.840
68881W        W35290  24.254  34.073   2.334
68882W        W35291  35.795  38.846  14.928
68883W        W35292   3.973  22.152  12.309
68884W        W35293  13.810  34.905   0.311
68885W        W35294  20.062  17.664   1.322
68886W        W35295  21.671   1.462  11.632
68887W        W35296  35.495  14.390   1.494
68888W        W35297  31.096  17.166  10.667
68889W        W35298  13.071  32.380   9.742
68890W        W35299   2.339   8.675  12.517
68891W        W35300  29.956   8.355  12.801
68892W        W35301  20.627  13.068   4.128
68893W        W35302  18.760  24.022   2.501
68894W        W35303  42.477  30.436   3.676
68895W        W35304  21.313   9.865   0.431
68896W        W35305  24.988  25.892   5.369
68897W        W35306  16.876   8.912  13.788
68898W        W35307  18.030  40.371   1.327
68899W        W35308  36.447  33.500  12.339
68900W        W35309  22.074  37.352   4.774
68901W        W35310   8.157   6.676  13.735
68902W        W35311  11.520  42.862  11.173
68903W        W35312   1.008  24.978   3.157
68904W        W35313   2.744  36.633   3.575
68905W        W35314  38.714   1.656  13.832
68906W        W35315  44.447  23.241  14.468
68907W        W35316  28.931   5.001   1.787
68908W        W35317  23.462  38.252  13.014
68909W        W35318  32.188  37.053  14.877
68910W        W35319  32.932   7.771  10.606
68911W        W35320  35.455   0.930   3.827
68912W        W35321  24.796   5.779   4.240
68913W        W35322   7.366   4.154  11.683
68914W        W35323  31.688  25.117   3.288
68915W        W35324  26.575  38.054  12.117
68916W        W35325   8.804   9.280   1.301
68917W        W35326  31.737  33.478   1.839
68918W        W35327  30.738  24.225  12.460
68919W        W35328  22.106  32.105   4.588
68920W        W35329  18.254   6.994   2.702
68921W        W35330  43.048   2.268  11.659
68922W        W35331  13.551   5.875  14.407
68923W        W35332  44.674  12.808   3.342
68924W        W35333  37.864  19.824  12.946
68925W        W35334  41.141  29.102  10.670
68926W        W35335  12.191  38.839  10.480
68927W        W35336  19.207  43.907  12.889
68928W        W35337  40.117  16.784   2.793
68929W        W35338  22.491   5.831   1.321
68930W        W35339  30.480  20.465  13.945
68931W        W35340  41.252  40.095  13.868
68932W        W35341  23.110  38.327   2.597
68933W        W35342  18.741  40.460  11.041
68934W        W35343  24.677  35.221   3.354
68935W        W35344   5.228  38.716   2.472
68936W        W35345  44.789   2.166   3.331
68937W        W35346  23.102  20.711  14.543
68938W        W35347   9.311  23.457  13.837
68939W        W35348  35.879  33.043   3.694
68940W        W35349  18.689  42.288   3.724
68941W        W35350  42.235   1.085  12.525
68942W        W35351  44.859  32.387  12.635
68943W        W35352  23.556  29.461  10.756
68944W        W35353  34.953  19.814  14.978
68945W        W35354  16.944   8.946   1.364
68946W        W35355  39.549  33.624   3.306
68947W        W35356  27.242  10.665   3.021
68948W        W35357  23.219  20.001   5.338
68949W        W35358  44.186   5.334  10.630
68950W        W35359   3.089  36.581  12.061
68951W        W35360  17.721  42.676  10.552
68952W        W35361   0.312  32.360  12.895
68953W        W35362  28.587  35.383   1.814
68954W        W35363  22.178  27.537  12.916
68955W        W35364   1.908  25.515   0.962
68956W        W35365   7.903  31.625  14.327
68957W        W35366  42.487  32.674   0.779
68958W        W35367  27.110  22.895  14.858
68959W        W35368  26.552  34.169   2.036
68960W        W35369  42.890   5.802   1.702
68961W        W35370  36.144   1.506   2.380
68962W        W35371   1.151  40.425  12.493
68963W        W35372  38.713  16.522   0.896
68964W        W35373  26.657  28.104   0.227
68965W        W35374  21.257  16.626   3.285
68966W        W35375  30.545   2.453  12.124
68967W        W35376   6.286  18.246   2.032
68968W        W35377  22.341  11.378   4.077
68969W        W35378  13.036   2.514   3.753
68970W        W35379  23.741  10.683   4.037
68971W        W35380  37.115  11.366   2.764
68972W        W35381   7.160  30.375  10.914
68973W        W35382  39.756  25.156  10.656
68974W        W35383  38.020   9.839   1.217
68975W        W35384  29.600  40.659   2.822
68976W        W35385  11.864  40.961   3.663
68977W        W35386  20.089   4.768  13.438
68978W        W35387  21.539  10.770  14.280
68979W        W35388  26.629  34.538   0.355
68980W        W35389   1.181  43.546  13.484
68981W        W35390  25.537  13.829   3.672
68982W        W35391  27.787  13.807   1.364
68983W        W35392  18.539  44.708  14.045
68984W        W35393  15.789  36.093   2.184
68985W        W35394  42.109   1.311   3.019
68986W        W35395  13.662  13.518  13.019
68987W        W35396  22.133  23.190   1.238
68988W        W35397  22.089  22.444   1.683
68989W        W35398   0.134  26.131  12.359
68990W        W35399   0.494  21.988  14.915
68991W        W35400  37.502  31.982   0.021
68992W        W35401  18.990   0.340   2.839
68993W        W35402  43.657   7.792   2.687
68994W        W35403  17.252  25.455  14.247
68995W        W35404  11.315  35.376  14.442
68996W        W35405  28.275  32.496  13.458
68997W        W35406  17.016  28.360   2.962
68998W        W35407  24.993  30.464  12.081
68999W        W35408  36.428  11.729  13.975
69000W        W35409  32.571  33.449  12.851
69001W        W35410   6.279  44.083   3.247
69002W        W35411  40.588  10.762  14.998
69003W        W35412  13.605  43.060   0.891
69004W        W35413  44.454  25.419  13.320
69005W        W35414  25.284  12.635   3.676
69006W        W35415  25.744  44.867   4.994
69007W        W35416  13.538  21.224   0.885
69008W        W35417  16.610  41.809  12.595
69009W        W35418   9.243   5.816  13.459
69010W        W35419   3.017   2.868  14.852
69011W        W35420  43.753  43.525   0.648
69012W        W35421   9.318  41.607   4.922
69013W        W35422  10.825   2.416   2.321
69014W        W35423  14.129  24.844   1.997
69015W        W35424  39.501  14.765   0.760
69016W        W35425  24.960  38.184   2.113
69017W        W35426  21.062  40.408  14.041
69018W        W35427  33.560  28.648  13.643
69019W        W35428  43.952  43.870   1.367
69020W        W35429   5.416  28.127  12.063
69021W        W35430   7.889  12.208  14.301
69022W        W35431  31.220   7.418  14.759
69023W        W35432   0.406  10.683  14.920
69024W        W35433   4.837  31.613   1.196
69025W        W35434  40.360   1.343  11.160
69026W        W35435  25.174  40.323  14.263
69027W        W35436  44.581  21.749   1.276
69028W        W35437  20.220  43.473  12.353
69029W        W35438   0.440   0.980  12.469
69030W        W35439  36.568  20.233   1.416
69031W        W35440  10.962  31.770   4.946
69032W        W35441  26.058  44.360   4.298
69033W        W35442  33.394   7.336   0.024
69034W        W35443  32.595   1.380  10.625
69035W        W35444  10.718   9.964   2.318
69036W        W35445  22.637   8.386  12.440
69037W        W35446   9.075  34.951   0.386
69038W        W35447  26.058  38.325   4.703
69039W        W35448  41.327  16.553  13.855
69040W        W35449  30.422  37.007   3.614
69041W        W35450   9.263  25.995   0.311
69042W        W35451  18.230  25.031   1.218
69043W        W35452   2.154  11.292   0.761
69044W        W35453  25.721  25.484  11.410
69045W        W35454  23.996  28.500  11.204
69046W        W35455   0.486  14.381  14.649
69047W        W35456  16.031  31.813   4.969
69048W        W35457  43.407  41.791   3.678
69049W        W35458  42.044  36.658   4.180
69050W        W35459  44.175   9.174  13.169
69051W        W35460  27.599   6.175  13.371
69052W        W35461  22.515  35.100  11.182
69053W        W35462  28.523  36.793  12.923
69054W        W35463  39.470  38.343   3.256
69055W        W35464   7.817   0.927   0.118
69056W        W35465  28.730  30.726   2.309
69057W        W35466   5.909   7.455   1.482
69058W        W35467  38.604  43.427   3.230
69059W        W35468   5.977  28.154   0.681
69060W        W35469  12.327  22.491   1.964
69061W        W35470  32.119   7.916   2.283
69062W        W35471  30.087   1.355  11.602
69063W        W35472  33.975  23.087  11.579
69064W        W35473   0.289   6.504  12.963
69065W        W35474  12.265  39.701   4.831
69066W        W35475   6.692  31.877  14.525
69067W        W35476  40.022  16.579   0.427
69068W        W35477  14.799  23.126   1.575
69069W        W35478  11.545   5.522   2.256
69070W        W35479  18.770  32.940   1.809
69071W        W35480  17.030  10.945   0.507
69072W        W35481  14.278   8.059   0.337
69073W        W35482  33.849  19.393  12.501
69074W        W35483  37.929  25.754   2.127
69075W        W35484  11.926  40.814   0.334
69076W        W35485  42.950  34.747  13.358
69077W        W35486   4.360   9.142  13.374
69078W        W35487  11.661  23.208  13.545
69079W        W35488   6.079   1.979   2.349
69080W        W35489  30.375  44.551   3.355
69081W        W35490  21.095   5.282  12.590
69082W        W35491  36.379   7.330  11.467
69083W        W35492  28.573   1.150   4.794
69084W        W35493  43.874   7.994  13.016
69085W        W35494  20.745  18.586   3.670
69086W        W35495  42.809  20.127   1.716
69087W        W35496  19.166  38.578   4.020
69088W        W35497  39.766  26.538  13.880
69089W        W35498   4.062   8.263   1.988
69090W        W35499  43.293  35.490   2.873
69091W        W35500  33.818  42.522  11.608
69092W        W35501  31.416   7.368   3.682
69093W        W35502  19.641  43.841   3.102
69094W        W35503   4.825   5.132   3.813
69095W        W35504  15.072  21.666   2.736
69096W        W35505  12.753   5.145  11.442
69097W        W35506  42.838  32.919   1.082
69098W        W35507  14.752  15.026   1.804
69099W        W35508  41.838  18.576   2.104
69100W        W35509  43.570  23.246   2.715
69101W        W35510  32.545  10.045  11.309
69102W        W35511  34.178  14.769   0.469
69103W        W35512  43.740  39.839   2.139
69104W        W35513  28.432  42.582  12.460
69105W        W35514  12.196  33.148  13.333
69106W        W35515  23.095  41.440  12.492
69107W        W35516  16.072  10.670  13.672
69108W        W35517  16.107  34.583  11.180
69109W        W35518   7.923  40.381  14.825
69110W        W35519  39.287  31.008   1.725
69111W        W35520   8.969   4.963  13.210
69112W        W35521   7.174  19.300   4.311
69113W        W35522  40.999  14.232  12.030
69114W        W35523   4.571  12.785   4.806
69115W        W35524  42.320  36.525  11.424
69116W        W35525  15.540  29.089   3.073
69117W        W35526  33.589  27.695  14.415
69118W        W35527  30.784  32.601  14.437
69119W        W35528  26.127  35.466  11.867
69120W        W35529  31.453  10.566  12.821
69121W        W35530   3.853  22.034  14.211
69122W        W35531   6.287  41.813   1.187
69123W        W35532   0.838  27.540   3.292
69124W        W35533  34.547  16.348  10.756
69125W        W35534   9.340  19.828   4.554
69126W        W35535   0.938  16.663   3.727
69127W        W35536  17.047  16.126  14.405
69128W        W35537  27.458  23.523  12.488
69129W        W35538  36.127  44.817  11.128
69130W        W35539  30.671  11.563   2.833
69131W        W35540  42.776  20.064   3.867
69132W        W35541  42.912  39.327  13.368
69133W        W35542   6.447  25.936   4.005
69134W        W35543   4.043  40.420   3.270
69135W        W35544   0.189  43.318   4.037
69136W        W35545  21.497  28.235   4.030
69137W        W35546  16.838  38.549  14.491
69138W        W35547  29.650  37.469   2.122
69139W        W35548  31.640   7.443  14.450
69140W        W35549  38.862  20.043   3.296
69141W        W35550  44.559   6.868  11.173
69142W        W35551  41.752  25.642  10.949
69143W        W35552  17.324  23.102  10.577
69144W        W35553   7.242  18.051   3.169
69145W        W35554  28.009  35.613  14.939
69146W        W35555   2.752  17.178   3.738
69147W        W35556  26.448  19.357   2.261
69148W        W35557   2.824  35.640   2.669
69149W        W35558   9.324  40.492  10.564
69150W        W35559  26.231  24.712  14.032
69151W        W35560  30.346  14.050   4.895
69152W        W35561  11.486  43.692   9.733
69153W        W35562  41.506  38.430  10.777
69154W        W35563  40.440  44.000  10.846
69155W        W35564  13.592  34.397   0.360
69156W        W35565  41.536   4.295  12.904
69157W        W35566   1.298  30.432  14.873
69158W        W35567   1.344   6.123   2.293
69159W        W35568  29.019   1.731  14.332
69160W        W35569  10.775  16.679   1.902
69161W        W35570  43.115   1.343   2.871
69162W        W35571  35.453  34.712  14.170
69163W        W35572  13.791  23.019  13.906
69164W        W35573  15.756  15.155   2.897
69165W        W35574  26.541  13.579   1.762
69166W        W35575  20.051  15.392   0.826
69167W        W35576  43.101  10.783  12.750
69168W        W35577  39.833  44.321   1.058
69169W        W35578   1.405  24.605   1.920
69170W        W35579  40.516  20.548   3.667
69171W        W35580  15.138  29.470   2.224
69172W        W35581   8.854  34.643   3.725
69173W        W35582  30.897  36.942   3.841
69174W        W35583  40.859  22.193  12.404
69175W        W35584  14.615  32.818   0.843
69176W        W35585  22.093   2.765  10.758
69177W        W35586   7.886  41.336  12.965
69178W        W35587  35.909  16.880  14.311
69179W        W35588  39.889   0.160  12.840
69180W        W35589  35.342   7.902  11.494
69181W        W35590  27.536  25.391  10.516
69182W        W35591  30.966  37.860   1.388
69183W        W35592  37.484  39.865  13.882
69184W        W35593   6.825  35.206   0.299
69185W        W35594  23.043  43.314  11.067
69186W        W35595  40.108   2.912   3.410
69187W        W35596  35.955  44.435   2.353
69188W        W35597  18.643  35.868   3.612
69189W        W35598   4.047   7.784   2.260
69190W        W35599  30.921   3.837  10.716
69191W        W35600  28.735  21.657  10.522
69192W        W35601   4.420   9.719  12.587
69193W        W35602  13.121  19.164  10.640
69194W        W35603  14.282   3.959   2.851
69195W        W35604  35.827  38.422   0.726
69196W        W35605  28.239  25.528  13.312
69197W        W35606  28.535  22.225  11.783
69198W        W35607  40.716  36.153   3.358
69199W        W35608  41.389  30.099  13.404
69200W        W35609  29.221  22.084  13.426
69201W        W35610   3.343   3.011   1.287
69202W        W35611  26.704   9.932  14.410
69203W        W35612  24.478  41.033   4.112
69204W        W35613  41.791  36.399  14.799
69205W        W35614   2.297  41.398  11.633
69206W        W35615  38.035  11.273  14.289
69207W        W35616  18.536  36.620   3.426
69208W        W35617  41.839  22.076   0.834
69209W        W35618  24.826  44.445  12.020
69210W        W35619  10.992   5.455   3.376
69211W        W35620   7.343  27.592  13.828
69212W        W35621   6.459  33.721  13.368
69213W        W35622  32.219  26.569   3.159
69214W        W35623  44.879  18.286  14.470
69215W        W35624  31.991   5.675  11.498
69216W        W35625  26.983   1.837  14.269
69217W        W35626  12.066  34.510  13.551
69218W        W35627  26.656  32.480   2.842
69219W        W35628   4.379   6.822   4.047
69220W        W35629  42.319  24.682   1.485
69221W        W35630  26.568   0.131   3.196
69222W        W35631  24.244  27.511   0.495
69223W        W35632   0.406   5.909   1.916
69224W        W35633  14.656  35.556   1.440
69225W        W35634  27.224   9.253  13.454
69226W        W35635   6.390  12.768  10.912
69227W        W35636  31.612   7.875   1.341
69228W        W35637   2.831   7.673   3.846
69229W        W35638  41.816  40.852   0.246
69230W        W35639   3.468  19.581   1.266
69231W        W35640  16.697   6.603  13.406
69232W        W35641  17.496  25.550  11.491
69233W        W35642  42.695   5.641  12.916
69234W        W35643  43.509  20.794   3.521
69235W        W35644  34.010  26.948  14.893
69236W        W35645  34.471  15.209   1.788
69237W        W35646  13.788  40.577  10.848
69238W        W35647   5.269  31.005   1.622
69239W        W35648  27.527  12.159   2.885
69240W        W35649  27.992  37.925  12.099
69241W        W35650  32.859  41.754   0.891
69242W        W35651   8.454  39.446   1.673
69243W        W35652  21.712  15.036   2.894
69244W        W35653  18.215  39.764   0.287
69245W        W35654  16.855  42.776  11.058
69246W        W35655  32.568  24.769  14.527
69247W        W35656  10.510  20.455   3.225
69248W        W35657  32.032  13.940  13.076
69249W        W35658  21.510   3.397   4.682
69250W        W35659   9.242  23.077  14.886
69251W        W35660  19.191  33.015   0.897
69252W        W35661  44.279  36.932  12.846
69253W        W35662  23.169  43.819  11.041
69254W        W35663  40.492  30.278  12.253
69255W        W35664  33.569   3.464  13.903
69256W        W35665  35.558   5.403  11.495
69257W        W35666  26.136  25.347  11.683
69258W        W35667  32.363  33.876  14.632
69259W        W35668   1.417  32.919  11.884
69260W        W35669  39.056  10.323   2.956
69261W        W35670  21.290  19.798  13.233
69262W        W35671  36.427  18.307  13.078
69263W        W35672  40.029  16.118   3.261
69264W        W35673  41.833  16.590   5.026
69265W        W35674   8.804   0.952  11.848
69266W        W35675   7.690  28.055  11.020
69267W        W35676  34.464  26.467   1.352
69268W        W35677   9.269   0.465   5.049
69269W        W35678  13.694  19.301   0.317
69270W        W35679  29.591   3.800   0.906
69271W        W35680  42.009  25.963   1.684
69272W        W35681  44.960  15.085   2.415
69273W        W35682   0.210  33.922   2.613
69274W        W35683  44.755   5.963  10.923
69275W        W35684  31.071   8.439   5.074
69276W        W35685  29.456   2.010  13.072
69277W        W35686   1.209   2.251   0.465
69278W        W35687  30.103  38.268  11.608
69279W        W35688  41.966  43.504  11.462
69280W        W35689  20.274  38.323   0.522
69281W        W35690  41.311  40.916  14.267
69282W        W35691  14.900   6.714   3.030
69283W        W35692  24.134  21.546  13.515
69284W        W35693  27.474  33.033   1.832
69285W        W35694   0.009  42.971   2.629
69286W        W35695  21.136  32.674   3.149
69287W        W35696   7.981  44.904  11.485
69288W        W35697  42.964  22.878   3.718
69289W        W35698  31.815  31.813   0.464
69290W        W35699  38.783  10.975   4.689
69291W        W35700  35.537  12.597   3.181
69292W        W35701   5.194   0.425  11.487
69293W        W35702  38.600  41.904   1.043
69294W        W35703  43.790  44.223   2.941
69295W        W35704   2.107  28.141   0.457
69296W        W35705  37.655  21.159   3.783
69297W        W35706  16.513   1.237   3.675
69298W        W35707  22.209  31.642   0.519
69299W        W35708   0.648  44.421   3.062
69300W        W35709   3.001  32.087   4.605
69301W        W35710  18.849  39.769  14.642
69302W        W35711  43.526  32.980   3.588
69303W        W35712  24.649  27.047  14.156
69304W        W35713  43.897   6.284   3.627
69305W        W35714  36.586  36.372   3.131
69306W        W35715  35.905  37.209  14.328
69307W        W35716  35.224  11.247   0.759
69308W        W35717  14.589   6.468  14.966
69309W        W35718  17.196  27.994   3.673
69310W        W35719  17.748  39.339   3.676
69311W        W35720  20.282  42.225   1.085
69312W        W35721  33.581  35.402  10.755
69313W        W35722  44.877  30.638  12.942
69314W        W35723  14.794   2.566   2.424
69315W        W35724  35.017  19.575  11.322
69316W        W35725  25.355  28.285   4.515
69317W        W35726  35.463  27.929   0.341
69318W        W35727  13.283  23.923   3.609
69319W        W35728  35.971   4.987   1.692
69320W        W35729  20.452  19.334  10.671
69321W        W35730   8.387  12.732  10.424
69322W        W35731  16.106  14.020   3.168
69323W        W35732  42.392   0.296   0.707
69324W        W35733  15.551   3.180  10.950
69325W        W35734   9.979  37.373   1.222
69326W        W35735  32.970  42.296  12.247
69327W        W35736  18.749  22.591   4.976
69328W        W35737   6.020   2.947  13.866
69329W        W35738  30.134   2.355  12.492
69330W        W35739  15.676  12.894   2.148
69331W        W35740   8.404   4.399   2.700
69332W        W35741  31.792  10.464   2.120
69333W        W35742  35.456  26.683  12.026
69334W        W35743   0.266   8.416  11.923
69335W        W35744  11.286  19.630   1.011
69336W        W35745  34.030  33.860  12.812
69337W        W35746  35.884  37.425   2.146
69338W        W35747  26.590  44.260  13.502
69339W        W35748  16.079  37.942   1.409
69340W        W35749   7.397  16.650  11.070
69341W        W35750  23.906  11.159  10.772
69342W        W35751  12.740   2.173   0.810
69343W        W35752  17.795  22.331  12.130
69344W        W35753  13.094  24.146  12.372
69345W        W35754   6.387  25.636   1.718
69346W        W35755  35.829  15.224  12.547
69347W        W35756  29.486  30.053  10.491
69348W        W35757  15.768  32.237  10.189
69349W        W35758   6.928  12.439   0.795
69350W        W35759  35.291  10.383   2.405
69351W        W35760  16.876  30.623   2.196
69352W        W35761  28.052  23.384   5.396
69353W        W35762  13.865  40.568  14.687
69354W        W35763   9.466  25.148  12.074
69355W        W35764  20.679  32.542   1.522
69356W        W35765  25.701  43.351  14.574
69357W        W35766  11.833  27.172  11.935
69358W        W35767  20.072   3.006  12.524
69359W        W35768   1.324   2.411   2.444
69360W        W35769  15.500  18.660  12.910
69361W        W35770  14.388  14.122   2.358
69362W        W35771  25.437  30.459  12.931
69363W        W35772  32.567  35.081   4.243
69364W        W35773   4.319  14.756  11.005
69365W        W35774  36.865   7.876   0.246
69366W        W35775  33.030  16.143   0.140
69367W        W35776   5.416  10.752   1.817
69368W        W35777  36.913  31.643   2.030
69369W        W35778  16.110  24.759   2.834
69370W        W35779   6.397  20.246   1.327
69371W        W35780  25.709   8.611  12.139
69372W        W35781  15.329   8.792  11.153
69373W        W35782  21.546   4.567   0.786
69374W        W35783  39.355  24.119  11.161
69375W        W35784  11.885   0.310   0.632
69376W        W35785  36.408  21.096  11.836
69377W        W35786  39.436  40.769   3.375
69378W        W35787  40.465  36.153  12.838
69379W        W35788  17.258  43.751   1.727
69380W        W35789   0.156  35.664   2.195
69381W        W35790  28.551   9.279   2.330
69382W        W35791  12.571  21.031   5.167
69383W        W35792   8.743  30.274  14.503
69384W        W35793  23.654   7.217   1.815
69385W        W35794   2.584   7.268   4.154
69386W        W35795  25.640  37.798   1.232
69387W        W35796  14.167  21.982   0.331
69388W        W35797  35.971  13.850   4.107
69389W        W35798  26.499  21.525   2.766
69390W        W35799  21.202  22.284   0.780
69391W        W35800  37.080  14.334  11.170
69392W        W35801  43.440  30.606   2.686
69393W        W35802  27.583  13.285   2.959
69394W        W35803  10.627  24.058   3.598
69395W        W35804  25.138  23.247   0.816
69396W        W35805  19.793  39.739  11.134
69397W        W35806  19.492   5.716   4.141
69398W        W35807  20.600  19.594   3.946
69399W        W35808   6.860   1.377  11.984
69400W        W35809  17.546  36.183  12.503
69401W        W35810  38.300  10.196  10.548
69402W        W35811  27.393  10.606  14.293
69403W        W35812  22.952   1.006   3.906
69404W        W35813   3.291  44.686  11.010
69405W        W35814  38.094   3.753   4.586
69406W        W35815  13.298  32.275  10.205
69407W        W35816  15.282  44.514  12.011
69408W        W35817  22.982  36.099   1.694
69409W        W35818  38.857  32.049  12.544
69410W        W35819  36.858  38.754  14.927
69411W        W35820  21.023   2.699   2.017
69412W        W35821  18.841   7.939   4.477
69413W        W35822  28.811  11.942  13.840
69414W        W35823  34.424   3.021   2.085
69415W        W35824   4.511  34.487  11.617
69416W        W35825  43.794  12.131  13.077
69417W        W35826  25.260   5.218  14.181
69418W        W35827  10.254  26.259  13.147
69419W        W35828  30.546  34.252   4.121
69420W        W35829  22.022  39.396   2.193
69421W        W35830   8.384  37.796   1.366
69422W        W35831  32.688  14.021   0.772
69423W        W35832  39.620   0.198   4.933
69424W        W35833  22.354  30.278  13.582
69425W        W35834  14.417   6.907  10.701
69426W        W35835  43.800  26.538   2.780
69427W        W35836  34.560  21.391   2.666
69428W        W35837  10.531   5.675   3.350
69429W        W35838  18.728  19.650   3.901
69430W        W35839  10.859  29.981   2.697
69431W        W35840  38.074  42.584   0.258
69432W        W35841  19.574  21.050   4.558
69433W        W35842  24.450  15.798   1.255
69434W        W35843   8.702   9.987   4.227
69435W        W35844  44.531  25.032   2.113
69436W        W35845  26.424  17.288   1.711
69437W        W35846  15.530  33.624  11.908
69438W        W35847  17.822  20.367  10.253
69439W        W35848  28.658  26.016  10.726
69440W        W35849  29.020  33.103   4.093
69441W        W35850  29.225   2.237  12.131
69442W        W35851   9.336  37.537   3.705
69443W        W35852  40.892  32.182  10.432
69444W        W35853  18.848  31.637  13.433
69445W        W35854  18.180   1.033  13.458
69446W        W35855  37.358  12.224  14.280
69447W        W35856  10.814  14.800   4.083
69448W        W35857  26.250  38.885  14.295
69449W        W35858  41.940  17.207  10.609
69450W        W35859   6.503  28.818   9.948
69451W        W35860  12.161  13.660  11.051
69452W        W35861  23.168   9.613  12.355
69453W        W35862  13.669   7.467   3.222
69454W        W35863  27.682  24.218   3.016
69455W        W35864  34.605   3.627  12.093
69456W        W35865  34.129   4.744   0.854
69457W        W35866   7.143   9.293   0.809
69458W        W35867   8.281  33.117   1.240
69459W        W35868  21.705  18.123  14.483
69460W        W35869  36.343  11.926  13.496
69461W        W35870  14.329   2.387  10.650
69462W        W35871  14.564  23.974  11.595
69463W        W35872  20.616  26.453   1.352
69464W        W35873   7.425   7.992  13.944
69465W        W35874   6.418   1.373   2.808
69466W        W35875  16.097  28.023   2.713
69467W        W35876  25.750  15.251   0.236
69468W        W35877  11.705  18.124  13.406
69469W        W35878  25.906  30.916   4.022
69470W        W35879  41.441   2.299   3.335
69471W        W35880  15.332  33.587   0.406
69472W        W35881   1.400  34.314  13.840
69473W        W35882  11.775  20.014   0.486
69474W        W35883   2.832   9.022  14.615
69475W        W35884  26.721   7.955   4.085
69476W        W35885  29.092   7.224   4.351
69477W        W35886  15.104  17.455   0.253
69478W        W35887  36.045  23.993   4.046
69479W        W35888  25.572  44.375   5.114
69480W        W35889   1.673  16.008   2.819
69481W        W35890  18.237  44.797   4.509
69482W        W35891  38.906   3.698   4.265
69483W        W35892  36.357  30.922  10.735
69484W        W35893  11.111  21.600  12.278
69485W        W35894  33.104  44.591  13.979
69486W        W35895  24.934   7.173   4.094
69487W        W35896  13.883  38.068   3.166
69488W        W35897  24.752  16.168   0.261
69489W        W35898  23.726  21.702  12.130
69490W        W35899   7.701  43.276  10.690
69491W        W35900  24.102   9.979  12.658
69492W        W35901  28.193  11.217   1.209
69493W        W35902   9.682   4.977   2.526
69494W        W35903  27.627  12.265   2.378
69495W        W35904  24.962  35.331  12.827
69496W        W35905  44.528  13.865  11.117
69497W        W35906   8.650  41.220  14.748
69498W        W35907   1.850  16.960  12.707
69499W        W35908  25.176  16.052   2.902
69500W        W35909  16.150  12.862  13.345
69501W        W35910  26.375  43.294   2.357
69502W        W35911   2.314  22.683   0.805
69503W        W35912   3.656  40.036   4.071
69504W        W35913  37.609  43.546  12.487
69505W        W35914  43.436  40.393   1.258
69506W        W35915  30.407  37.980   2.415
69507W        W35916   9.744  40.885  14.490
69508W        W35917  43.596  36.451   0.300
69509W        W35918  32.067  17.681  13.968
69510W        W35919  43.893  11.127   4.118
69511W        W35920  23.976  23.490   3.713
69512W        W35921  37.336  15.368   1.148
69513W        W35922   4.044  21.581  11.041
69514W        W35923  14.138  42.217  14.529
69515W        W35924  26.446  37.272   4.998
69516W        W35925   4.885  20.959   1.446
69517W        W35926  31.395  42.859  14.074
69518W        W35927  44.612   7.465  14.455
69519W        W35928  33.522  13.373  13.470
69520W        W35929  39.005  36.987   2.163
69521W        W35930  39.452  40.631  12.458
69522W        W35931  23.174  21.033   3.290
69523W        W35932  42.534  28.450  11.683
69524W        W35933  24.504   5.796   4.666
69525W        W35934  37.525  44.868   4.605
69526W        W35935  27.505  34.986  12.156
69527W        W35936  23.849  34.381  12.107
69528W        W35937  23.324  33.668   4.780
69529W        W35938   5.533  35.088   2.113
69530W        W35939   1.080  14.315   9.882
69531W        W35940   5.309  42.192   3.171
69532W        W35941  42.919  11.891   5.334
69533W        W35942  21.485  21.737  14.299
69534W        W35943   8.771   5.731  14.816
69535W        W35944  35.160  22.175  10.890
69536W        W35945  16.071  39.996  13.396
69537W        W35946   0.175  43.870  12.006
69538W        W35947  15.354   4.441  14.369
69539W        W35948  23.264  17.609   3.148
69540W        W35949  27.971   4.903  14.376
69541W        W35950   9.094  33.886  12.867
69542W        W35951  20.778  23.504   3.133
69543W        W35952   7.746   8.176  11.607
69544W        W35953  42.473  13.762   0.431
69545W        W35954  23.763  19.680   2.714
69546W        W35955  23.611  31.385  14.573
69547W        W35956  35.913  12.096   4.583
69548W        W35957  17.705  34.676  14.567
69549W        W35958  39.176  37.296  11.921
69550W        W35959  34.390  11.710  11.091
69551W        W35960  35.294  21.992  12.126
69552W        W35961  19.996   9.836   0.244
69553W        W35962  29.011   5.822  11.550
69554W        W35963  19.769   4.703   0.689
69555W        W35964  15.343  15.125   2.468
69556W        W35965   8.345  11.667   1.778
69557W        W35966  29.552  19.248   1.922
69558W        W35967   5.555  33.731   4.205
69559W        W35968  41.263  36.922   0.364
69560W        W35969  19.000  19.729   4.723
69561W        W35970   3.768   7.963   4.083
69562W        W35971  34.032  26.085  10.356
69563W        W35972  30.671   5.742  11.690
69564W        W35973   0.757  36.044   4.740
69565W        W35974  40.434  43.741   1.670
69566W        W35975  11.392   3.519   4.426
69567W        W35976  25.048  18.846  13.989
69568W        W35977  43.585  43.534  14.029
69569W        W35978  28.612   3.964   0.470
69570W        W35979  33.806  42.938   1.827
69571W        W35980  34.920  24.280   5.115
69572W        W35981  12.682  43.396   3.311
69573W        W35982  19.246  16.851   4.125
69574W        W35983  32.028  35.298   4.137
69575W        W35984  13.172  21.350  13.501
69576W        W35985  25.016  10.676  10.884
69577W        W35986  29.021  14.525   3.091
69578W        W35987  35.249  34.362   1.631
69579W        W35988  21.784  31.019   3.608
69580W        W35989  10.568  38.808   2.217
69581W        W35990  14.839  18.574   3.124
69582W        W35991  30.806  39.776   3.690
69583W        W35992  34.575  30.796   2.963
69584W        W35993  28.239   5.027  13.001
69585W        W35994  36.972  16.823   4.226
69586W        W35995  35.084   6.842   1.383
69587W        W35996   3.779  41.666   2.417
69588W        W35997  40.377   3.655  12.099
69589W        W35998  24.314  42.513  12.584
69590W        W35999  15.219  14.366   3.153
69591W        W36000  24.252   2.397   4.185
69592W        W36001  17.700  26.022   3.181
69593W        W36002  26.236  12.692   2.738
69594W        W36003  18.207   8.387  10.511
69595W        W36004   7.033  25.640  14.820
69596W        W36005  16.467  18.092  11.694
69597W        W36006  41.973   1.459  13.354
69598W        W36007  35.176  27.381   4.250
69599W        W36008  17.547  31.028   4.783
69600W        W36009  19.579  44.350   3.216
69601W        W36010  31.846   3.312  11.659
69602W        W36011  40.072  29.512  13.983
69603W        W36012  10.392  32.308  11.995
69604W        W36013   3.810  41.191   2.199
69605W        W36014  34.277  21.646  12.988
69606W        W36015   2.285  14.842  14.376
69607W        W36016  30.847  33.079   0.366
69608W        W36017  14.149   2.545  11.978
69609W        W36018  44.483  20.740   2.283
69610W        W36019  19.189  24.494   4.208
69611W        W36020  24.245  12.364   4.390
69612W        W36021   2.759  13.165   3.019
69613W        W36022  43.551  12.499  12.749
69614W        W36023  25.439   1.817   2.810
69615W        W36024   4.543  30.123  12.206
69616W        W36025  14.495  10.046  14.695
69617W        W36026  26.660  15.608   2.164
69618W        W36027  23.604  29.117   3.315
69619W        W36028   7.195  12.338  12.803
69620W        W36029  24.440  27.127   4.221
69621W        W36030  38.872   9.663  11.773
69622W        W36031  26.000  32.641  11.170
69623W        W36032  41.241  26.131  14.462
69624W        W36033  34.943  33.797   4.629
69625W        W36034  30.990  28.420   3.226
69626W        W36035  13.247  24.537   0.450
69627W        W36036  26.134  26.357  10.678
69628W        W36037  44.490  31.020  12.518
69629W        W36038  17.139   9.178  12.375
69630W        W36039  32.117   7.450  14.204
69631W        W36040  44.416  22.320   2.203
69632W        W36041   6.839   4.259  12.812
69633W        W36042  35.809  21.459   0.014
69634W        W36043   8.515  38.375  12.677
69635W        W36044  41.019  14.892  10.542
69636W        W36045  25.889   7.636  13.514
69637W        W36046  36.470  39.725  10.608
69638W        W36047  12.657  37.128  14.311
69639W        W36048   6.813   5.800  11.001
69640W        W36049  25.694  30.032  12.851
69641W        W36050  24.733   7.081   2.375
69642W        W36051  31.819  38.171  11.007
69643W        W36052  24.037   1.704  10.733
69644W        W36053  16.527  13.143   0.244
69645W        W36054  24.688   0.711  12.968
69646W        W36055  32.534  15.034   0.968
69647W        W36056  27.520   4.427   3.632
69648W        W36057  43.205  30.529  12.057
69649W        W36058   4.255  16.112   3.775
69650W        W36059  41.859  29.908  12.533
69651W        W36060   4.157   9.114   1.331
69652W        W36061  32.456  20.622   0.887
69653W        W36062  21.080  16.304  10.408
69654W        W36063  31.254  33.574   2.129
69655W        W36064  13.696  12.593  13.286
69656W        W36065  25.857   3.392   4.642
69657W        W36066   3.889  28.901   0.357
69658W        W36067  23.854  37.834   5.079
69659W        W36068  23.538  20.538  13.145
69660W        W36069   6.115  39.038  14.309
69661W        W36070   5.710  21.131   0.528
69662W        W36071  17.320  13.672   1.344
69663W        W36072   3.828  24.288   4.982
69664W        W36073  19.265  43.712   1.011
69665W        W36074   9.795  28.647  10.974
69666W        W36075  37.422  23.033  12.943
69667W        W36076  29.539  22.434   3.178
69668W        W36077  11.089  40.377   3.673
69669W        W36078  36.943   5.033  11.984
69670W        W36079  22.679  14.615   4.117
69671W        W36080  22.506  41.126  10.491
69672W        W36081  30.945  14.139   1.363
69673W        W36082  32.488  37.232   2.555
69674W        W36083  38.621   7.606  12.636
69675W        W36084  24.058   3.718   2.631
69676W        W36085  40.015  12.272   4.160
69677W        W36086  19.615  15.738   1.904
69678W        W36087  23.250  12.901   1.866
69679W        W36088  26.077  15.767  10.020
69680W        W36089  39.314  17.622  11.804
69681W        W36090  37.843  33.605  13.859
69682W        W36091  16.015  23.167   1.698
69683W        W36092  28.757  23.319   3.306
69684W        W36093  36.074  24.929  11.873
69685W        W36094  19.741  32.306   2.287
69686W        W36095  37.681   1.177  10.942
69687W        W36096  20.186  40.757  10.310
69688W        W36097  43.285  13.772  11.653
69689W        W36098  41.068  33.265  13.969
69690W        W36099  36.792  43.736  12.496
69691W        W36100   0.684  36.450  12.012
69692W        W36101  17.772  14.038   3.823
69693W        W36102  27.933   5.388   3.795
69694W        W36103  28.474  16.985  14.477
69695W        W36104   2.915  37.562  13.470
69696W        W36105   5.076  34.900  12.143
69697W        W36106  41.337   3.465   2.498
69698W        W36107   1.543   7.424  12.871
69699W        W36108  36.924  19.765   0.773
69700W        W36109  18.721   7.388   0.291
69701W        W36110   4.095  34.499   9.947
69702W        W36111  26.587  19.236  13.471
69703W        W36112  23.363  21.005   1.845
69704W        W36113  43.926  20.768   0.036
69705W        W36114  20.525  31.249  13.810
69706W        W36115  16.752  43.629   3.668
69707W        W36116  36.918  32.006   2.934
69708W        W36117   1.182  24.078   0.678
69709W        W36118  26.158  11.646   4.544
69710W        W36119  41.913  32.794   0.956
69711W        W36120  41.454  17.844  14.963
69712W        W36121  42.447  10.349  11.742
69713W        W36122  11.932  25.476   1.054
69714W        W36123   3.069   1.591  10.485
69715W        W36124  30.570  13.541  12.663
69716W        W36125  18.669  18.606   4.156
69717W        W36126  16.245  35.523   3.007
69718W        W36127  24.427  17.629  10.755
69719W        W36128  43.830  31.570  12.366
69720W        W36129  26.287  24.932  14.566
69721W        W36130  29.445  19.324   4.786
69722W        W36131  21.173  29.527  14.265
69723W        W36132   0.230   5.311   4.069
69724W        W36133  32.430  35.865   3.796
69725W        W36134  23.561   2.425   0.294
69726W        W36135  34.438   0.504  10.666
69727W        W36136  10.085  29.076  14.072
69728W        W36137   4.850  42.916  12.669
69729W        W36138   3.256  10.721   0.871
69730W        W36139  30.498  26.397  11.064
69731W        W36140  22.445  43.983  14.481
69732W        W36141  12.821  17.738   2.315
69733W        W36142  37.810  11.324  14.770
69734W        W36143   4.700   5.858  14.469
69735W        W36144  41.553  10.179  13.961
69736W        W36145   1.241   5.024  13.895
69737W        W36146   8.263  37.804   2.383
69738W        W36147  30.556  36.004  10.775
69739W        W36148  22.591  17.284  14.990
69740W        W36149  22.835  29.134   2.817
69741W        W36150  42.396  13.109  13.930
69742W        W36151   2.714   5.152   1.282
69743W        W36152  33.888  25.510  12.639
69744W        W36153  36.589  38.519  11.149
69745W        W36154  30.264  43.902  13.267
69746W        W36155  10.643  35.805   4.267
69747W        W36156  35.024  37.447  12.486
69748W        W36157   2.855  25.168   4.531
69749W        W36158  32.803  21.746  11.530
69750W        W36159   8.266  43.326   3.830
69751W        W36160  16.159   2.771   0.411
69752W        W36161   5.363  32.981  14.762
69753W        W36162  22.693   1.748  14.007
69754W        W36163  32.647  28.155   3.383
69755W        W36164  41.095   3.650   2.095
69756W        W36165   8.930  40.846   2.781
69757W        W36166  36.305  14.135   5.200
69758W        W36167   3.050   2.345   0.235
69759W        W36168   4.025   1.991  12.182
69760W        W36169  27.428  23.749   4.294
69761W        W36170   9.262  29.347   3.173
69762W        W36171   3.924  34.300  13.912
69763W        W36172  18.259  37.903   4.637
69764W        W36173   3.358   8.271   0.314
69765W        W36174  32.330  10.216   1.354
69766W        W36175  38.834   6.775   4.710
69767W        W36176  20.678  34.778   1.236
69768W        W36177  28.209  23.042  12.581
69769W        W36178  39.953  20.896   5.052
69770W        W36179  25.521   5.940   1.756
69771W        W36180   8.617  29.643   3.578
69772W        W36181  30.819  22.192   2.881
69773W        W36182  24.799  43.022  12.109
69774W        W36183  32.171  12.446   1.703
69775W        W36184  37.146  19.962  13.135
69776W        W36185   1.508  33.091  14.262
69777W        W36186  28.199   7.166   0.263
69778W        W36187   2.420   8.436  14.836
69779W        W36188  38.689   3.215   4.084
69780W        W36189  12.332  20.593   3.529
69781W        W36190  30.204  39.301   2.204
69782W        W36191  34.621  18.076   2.314
69783W        W36192  43.412  38.529   1.729
69784W        W36193  39.329  37.827   3.208
69785W        W36194  32.026  34.041  10.688
69786W        W36195  32.599   9.759   3.218
69787W        W36196  36.290  43.967  12.466
69788W        W36197  35.838  43.774  14.943
69789W        W36198  44.544  28.326   3.293
69790W        W36199  37.870  11.557   4.623
69791W        W36200  17.429  29.699  13.465
69792W        W36201  41.833  25.188   3.188
69793W        W36202  44.002  22.592   2.381
69794W        W36203  23.083  21.292   0.100
69795W        W36204  36.546   7.004  14.595
69796W        W36205  12.698   7.968   1.117
69797W        W36206  10.440  28.121   3.134
69798W        W36207  14.307  29.940   1.666
69799W        W36208  19.320   2.947  13.994
69800W        W36209  22.543  28.087  11.453
69801W        W36210  38.295  22.269   4.055
69802W        W36211  19.818   6.257  13.912
69803W        W36212   6.082  39.010   4.970
69804W        W36213  33.374  11.293  13.753
69805W        W36214  11.212  30.519  12.514
69806W        W36215  27.284  26.074   1.780
69807W        W36216   0.847   2.669  12.337
69808W        W36217  32.127  20.799  12.092
69809W        W36218   7.074  22.554  14.682
69810W        W36219   6.112  36.593  13.470
69811W        W36220  33.395   9.643  14.375
69812W        W36221   1.380  41.966   3.585
69813W        W36222  35.418  34.312   0.364
69814W        W36223  11.963  39.927   2.387
69815W        W36224  38.279   2.437  12.858
69816W        W36225  22.380  16.137   1.662
69817W        W36226   8.672   8.100   1.857
69818W        W36227  35.583  40.016   3.614
69819W        W36228  38.659  30.882  12.075
69820W        W36229  42.141  43.080  13.303
69821W        W36230  32.634  18.791  12.114
69822W        W36231  19.513  40.747  12.523
69823W        W36232  28.727  28.501   2.660
69824W        W36233  11.686   6.394   1.179
69825W        W36234   3.193   1.953   3.281
69826W        W36235  10.225   7.910   2.714
69827W        W36236  27.722  11.716   1.827
69828W        W36237  10.165   6.893   0.449
69829W        W36238   0.767   8.625  11.103
69830W        W36239  23.272  37.093   3.260
69831W        W36240   6.354  17.716  14.034
69832W        W36241  35.910   3.510   2.884
69833W        W36242  14.331  37.014  12.095
69834W        W36243  12.382  44.722   3.228
69835W        W36244  17.362  28.716   1.093
69836W        W36245  20.161   2.930  14.886
69837W        W36246   0.197   1.035  12.930
69838W        W36247  18.057   6.949  12.432
69839W        W36248  40.320  25.561   3.185
69840W        W36249  34.468  24.569   4.346
69841W        W36250  16.773  43.934   4.106
69842W        W36251  34.719   6.189   0.905
69843W        W36252   3.739  18.397   0.354
69844W        W36253   8.019  24.691   1.475
69845W        W36254   4.970   6.221  11.435
69846W        W36255  11.046   2.933  10.739
69847W        W36256  26.821  30.500   0.750
69848W        W36257  28.610  39.037  11.632
69849W        W36258  22.192  11.701   3.668
69850W        W36259  38.674  34.429  13.614
69851W        W36260  42.329  20.328  12.088
69852W        W36261  18.846  17.240   2.183
69853W        W36262  30.544  22.989   3.270
69854W        W36263  20.782  36.481   0.280
69855W        W36264  42.091  39.323  11.147
69856W        W36265  23.174  38.375   1.457
69857W        W36266   9.336  27.046  11.976
69858W        W36267  36.012  15.333  14.379
69859W        W36268  18.308  15.617   1.016
69860W        W36269  44.877  29.079   0.316
69861W        W36270  36.119  25.531   4.485
69862W        W36271  22.879  44.251  11.063
69863W        W36272  39.516  41.988   2.821
69864W        W36273   9.382  13.122  13.452
69865W        W36274   8.860  30.096   2.862
69866W        W36275   6.562  34.645  12.423
69867W        W36276  13.596  29.041  13.268
69868W        W36277  38.347   4.829  11.951
69869W        W36278  24.098   3.362  12.113
69870W        W36279  30.194  35.896  11.221
69871W        W36280  20.514  37.996   3.028
69872W        W36281   2.760  23.533  14.235
69873W        W36282  42.081  31.960   1.237
69874W        W36283  29.846  43.922  10.682
69875W        W36284  11.711  13.736   2.103
69876W        W36285  34.477  17.678   0.731
69877W        W36286  22.600  25.917   0.828
69878W        W36287  41.558  33.808  12.641
69879W        W36288  44.497  14.685  14.779
69880W        W36289  15.518   6.838   0.908
69881W        W36290  34.559   7.457   2.184
69882W        W36291  22.568  10.107  12.065
69883W        W36292   9.953   3.276  14.531
69884W        W36293  28.097   3.992  12.798
69885W        W36294  42.891  24.109   0.734
69886W        W36295  15.210   7.610   0.392
69887W        W36296  25.530  29.168  11.597
69888W        W36297  15.126  30.947  13.594
69889W        W36298  43.525  26.392   3.208
69890W        W36299  32.726   3.910  13.000
69891W        W36300  23.138  35.848   3.848
69892W        W36301  44.853   3.954   2.728
69893W        W36302  35.693  26.501  14.677
69894W        W36303  34.080  29.087   4.250
69895W        W36304  13.382  13.888   1.155
69896W        W36305   8.375  25.558  13.881
69897W        W36306   0.478   1.722  13.517
69898W        W36307  14.649   1.767  11.218
69899W        W36308  41.574  23.575  11.551
69900W        W36309  19.818  20.855  12.775
69901W        W36310  11.524  24.563  13.846
69902W        W36311  12.668  32.395   5.482
69903W        W36312  22.574   7.487  13.421
69904W        W36313   8.845  26.014   0.944
69905W        W36314  28.528  24.173   2.646
69906W        W36315  34.843  39.414  14.350
69907W        W36316   7.141  13.988  11.037
69908W        W36317   0.790  14.110  14.956
69909W        W36318  32.928  30.208   1.752
69910W        W36319  42.667  29.604  11.237
69911W        W36320  13.967  16.220  12.375
69912W        W36321   3.787   3.194   5.412
69913W        W36322  22.583  34.880  13.882
69914W        W36323  20.641  31.179  11.043
69915W        W36324  40.501  19.485   1.376
69916W        W36325  13.337  28.558  12.117
69917W        W36326  39.450  19.165   1.310
69918W        W36327  29.227  11.644   0.067
69919W        W36328  25.685  30.012   0.443
69920W        W36329  19.803  41.447  14.283
69921W        W36330  19.487   9.111   2.643
69922W        W36331   1.078  39.456   1.963
69923W        W36332   4.938  23.756  13.944
69924W        W36333  24.107  13.609  13.887
69925W        W36334  42.926   7.747  11.544
69926W        W36335  22.482  41.436   5.115
69927W        W36336  33.231   2.915   3.088
69928W        W36337  14.750  39.830  13.428
69929W        W36338  36.568  19.561  11.144
69930W        W36339  38.807  23.619  14.693
69931W        W36340  11.114  22.161   3.398
69932W        W36341   5.902  32.421  12.049
69933W        W36342   0.315  18.640   4.221
69934W        W36343  21.375   9.159  13.962
69935W        W36344  15.202  18.477  11.244
69936W        W36345  44.053   6.405   0.786
69937W        W36346  44.882   1.071   3.722
69938W        W36347   0.481  27.549   3.679
69939W        W36348  41.342   3.355  11.175
69940W        W36349  39.132  42.827  14.904
69941W        W36350  29.989  22.211   2.286
69942W        W36351  35.883   4.654  13.328
69943W        W36352  21.257  43.530  14.855
69944W        W36353   0.843  12.879  12.460
69945W        W36354  13.882  38.799   2.550
69946W        W36355   4.684  21.058  14.927
69947W        W36356   5.293  13.140   1.175
69948W        W36357   5.312  32.723   4.083
69949W        W36358  10.825  21.962   0.840
69950W        W36359  35.903  36.018  13.898
69951W        W36360  12.261  43.259   0.299
69952W        W36361   1.999  30.945  10.950
69953W        W36362   0.003  11.854   4.277
69954W        W36363  17.570  25.168   3.657
69955W        W36364  22.235   9.886  11.162
69956W        W36365  16.781   2.277   0.935
69957W        W36366  22.204   3.731  10.654
69958W        W36367  32.482  22.828   3.786
69959W        W36368  27.431  23.666  14.794
69960W        W36369  19.320  39.134  12.887
69961W        W36370  20.750  13.772   1.378
69962W        W36371   1.334  22.998   2.309
69963W        W36372  32.885  15.365   3.375
69964W        W36373  39.547  44.653   4.592
69965W        W36374  16.294  43.412   3.655
69966W        W36375  24.928  32.160  14.831
69967W        W36376  13.215  40.310   4.139
69968W        W36377  35.042  25.208   2.354
69969W        W36378  40.759  19.163  11.520
69970W        W36379   9.075  11.171   3.811
69971W        W36380  37.886  25.784  11.577
69972W        W36381  39.637  35.131   4.670
69973W        W36382   0.775  42.589   0.772
69974W        W36383  42.395  27.451  14.033
69975W        W36384  42.813   8.033   1.428
69976W        W36385  24.520  11.044  12.538
69977W        W36386  33.154   3.702   3.823
69978W        W36387  30.104  26.793  13.272
69979W        W36388  17.484  31.626   1.405
69980W        W36389  33.771  21.754  12.995
69981W        W36390  15.480  34.866   3.312
69982W        W36391  33.873  12.379   3.704
69983W        W36392  31.684  27.167   0.777
69984W        W36393  26.911  23.317   2.324
69985W        W36394  30.984  34.039   1.940
69986W        W36395  33.244  29.179   4.901
69987W        W36396  27.050  37.065  12.810
69988W        W36397  10.637  18.297  11.137
69989W        W36398  38.915  31.622  14.314
69990W        W36399   2.374  22.972   1.247
69991W        W36400  13.183  34.811   1.634
69992W        W36401  19.240  42.461  12.442
69993W        W36402  31.890  44.231  12.974
69994W        W36403  11.414  11.563   3.770
69995W        W36404  23.442  15.208  14.957
69996W        W36405   3.944  34.268   3.678
69997W        W36406  12.435   5.365   2.707
69998W        W36407  43.374  23.475   3.113
69999W        W36408   7.460  19.265   1.830
70000W        W36409  43.309  23.836   4.658
70001W        W36410   8.899   5.164  11.527
70002W        W36411  11.667  24.372  11.584
70003W        W36412  18.133  26.434   0.977
70004W        W36413  38.006  37.936  13.578
70005W        W36414  13.584  31.453   0.346
70006W        W36415  16.498  29.583   1.021
70007W        W36416  10.012  14.272  11.151
70008W        W36417   4.326  14.342   2.248
70009W        W36418  35.157  24.313  14.308
70010W        W36419   1.778   3.922  14.781
70011W        W36420  18.476  41.252  10.140
70012W        W36421  42.166  29.838   1.557
70013W        W36422  36.171  30.294   4.884
70014W        W36423  39.278  24.667   2.391
70015W        W36424  22.192  21.429   1.820
70016W        W36425  15.174   5.851   1.700
70017W        W36426   5.954  14.061  12.969
70018W        W36427  34.911  31.924   1.789
70019W        W36428  44.931  39.331  13.072
70020W        W36429  28.286  30.466  11.480
70021W        W36430   6.300  41.515  11.235
70022W        W36431  12.437   0.913   1.736
70023W        W36432   8.711  13.899  12.146
70024W        W36433  34.714   8.577  13.012
70025W        W36434   7.636   2.789  11.129
70026W        W36435  35.133  36.161  13.344
70027W        W36436   5.713  28.626   0.752
70028W        W36437  12.689  27.999   3.626
70029W        W36438   0.940  25.807  14.566
70030W        W36439  20.022   1.214   1.221
70031W        W36440  30.184  23.707   3.554
70032W        W36441  44.929  26.586   4.374
70033W        W36442  12.969  31.733  12.704
70034W        W36443  12.342  13.724   4.517
70035W        W36444  21.854  29.025  12.103
70036W        W36445  37.196  36.852   5.073
70037W        W36446  40.294  24.804   0.163
70038W        W36447   6.527   4.520  13.658
70039W        W36448  32.169  15.601   1.308
70040W        W36449   4.213  37.569  13.879
70041W        W36450   8.715  27.533   1.933
70042W        W36451  38.161  26.023   3.471
70043W        W36452  20.510  19.203  11.527
70044W        W36453  21.917  40.446   4.818
70045W        W36454   8.813   7.153   4.545
70046W        W36455  11.193  40.475   2.789
70047W        W36456  36.952  24.199   1.167
70048W        W36457   2.160  39.331  13.285
70049W        W36458  37.767  10.450   3.764
70050W        W36459  25.981  39.646  12.098
70051W        W36460  11.282   8.222  14.534
70052W        W36461  18.057  37.163  14.413
70053W        W36462   1.450  30.754  11.992
70054W        W36463  25.991  27.741  12.857
70055W        W36464  41.835  20.847  13.761
70056W        W36465   7.892  36.357  12.958
70057W        W36466  35.838  35.645   1.385
70058W        W36467  40.002   0.684  10.888
70059W        W36468  37.940  14.796  14.818
70060W        W36469  15.873  27.998  11.544
70061W        W36470  19.083  11.855   1.509
70062W        W36471  43.074  44.369  12.429
70063W        W36472  42.997  21.542  11.999
70064W        W36473  18.216  28.681  10.615
70065W        W36474   2.418  42.428   1.122
70066W        W36475  24.985  42.311   1.544
70067W        W36476  18.484  43.240  10.133
70068W        W36477  38.956  29.563  14.390
70069W        W36478  10.968  32.952  12.953
70070W        W36479   3.347  17.093   2.761
70071W        W36480  14.742  21.415  12.705
70072W        W36481  42.435   8.176   3.627
70073W        W36482   9.469  43.206   3.343
70074W        W36483  21.669  40.419   1.964
70075W        W36484  42.875   3.149  13.792
70076W        W36485  31.834  20.141   1.768
70077W        W36486  43.944  27.873  12.893
70078W        W36487  43.108  42.529  12.805
70079W        W36488  28.708  27.688   0.418
70080W        W36489  38.996  16.788  14.321
70081W        W36490  41.895  37.262   3.686
70082W        W36491  44.372  18.083  14.307
70083W        W36492  31.772  40.144  10.328
70084W        W36493   5.143  22.621   2.253
70085W        W36494  38.100   4.187  13.205
70086W        W36495  33.371  19.144  11.970
70087W        W36496  43.297  30.914  10.878
70088W        W36497  11.311  24.479   4.696
70089W        W36498   2.825  28.842   1.703
70090W        W36499  12.560  10.288   0.794
70091W        W36500  33.083  39.403   4.126
70092W        W36501  19.787  17.069   2.395
70093W        W36502  21.955   4.228   0.296
70094W        W36503  36.944   3.003   4.571
70095W        W36504  20.852   4.175   4.700
70096W        W36505  32.057  23.320   2.264
70097W        W36506  12.293  43.021   1.722
70098W        W36507  39.083  34.244  10.137
70099W        W36508  32.956  19.111  14.145
70100W        W36509  31.210  32.039   3.688
70101W        W36510  10.052  12.891   2.444
70102W        W36511   0.203  35.522  13.321
70103W        W36512  27.714  23.138  13.440
70104W        W36513  15.136   3.162  12.223
70105W        W36514  15.714  42.069  13.099
70106W        W36515   5.734  17.912  11.896
70107W        W36516  36.628   3.790   3.547
70108W        W36517   6.957  15.379   2.421
70109W        W36518  40.608  23.347  12.884
70110W        W36519  37.298  28.023   4.491
70111W        W36520  35.147   4.340  11.591
70112W        W36521  31.197  43.288   0.328
70113W        W36522  19.524  22.490   3.884
70114W        W36523  22.429  36.857   0.781
70115W        W36524  39.946  20.094   0.052
70116W        W36525   5.236   6.723  12.339
70117W        W36526  29.374  39.535   3.643
70118W        W36527  10.406   3.960  13.010
70119W        W36528  30.947  40.339   0.396
70120W        W36529   6.790  31.121  10.930
70121W        W36530  41.751  24.469  13.413
70122W        W36531  11.679  43.812  13.782
70123W        W36532  33.362   8.204   4.940
70124W        W36533   1.349  43.494   1.911
70125W        W36534  15.328  43.297   1.797
70126W        W36535   9.595  43.475   1.622
70127W        W36536  40.867   1.038  12.760
70128W        W36537  20.063   3.014   1.380
70129W        W36538  24.916  13.558  13.199
70130W        W36539   5.154  33.382   2.717
70131W        W36540  30.106  11.327  13.472
70132W        W36541  35.329  25.563   4.652
70133W        W36542  23.927   3.383   4.857
70134W        W36543  23.682   4.765  11.882
70135W        W36544   5.833   5.915  12.691
70136W        W36545  20.473  22.635  12.950
70137W        W36546  15.804  42.312  12.654
70138W        W36547  39.393  24.996  13.007
70139W        W36548  36.781  43.264   1.156
70140W        W36549   9.673  23.336   9.831
70141W        W36550  43.952  32.372   2.508
70142W        W36551   3.279   7.804   4.280
70143W        W36552   3.574   0.324   2.967
70144W        W36553   3.714   0.228  12.054
70145W        W36554  29.543   6.623  13.402
70146W        W36555  12.856  22.729   4.168
70147W        W36556  14.859   3.709   3.160
70148W        W36557   0.562  16.219   3.372
70149W        W36558  44.941  13.888   2.918
70150W        W36559  21.635  31.365  14.225
70151W        W36560  39.918  32.556   4.785
70152W        W36561  19.779  32.996  14.543
70153W        W36562   0.001   3.033  13.461
70154W        W36563  13.316  22.441  11.134
70155W        W36564  31.048  29.951  11.685
70156W        W36565  15.647  33.633   2.414
70157W        W36566  33.763  34.041  13.439
70158W        W36567   5.615  18.702  11.423
70159W        W36568  17.260  12.349   1.756
70160W        W36569  43.547  14.241   4.109
70161W        W36570  19.622  25.171   2.429
70162W        W36571   6.913  20.187  13.905
70163W        W36572  44.511   6.214  11.941
70164W        W36573  25.526  34.023   0.915
70165W        W36574  13.784  32.707  14.060
70166W        W36575   6.066   8.735   3.691
70167W        W36576  39.549  40.280  11.128
70168W        W36577   6.385   0.092   3.191
70169W        W36578  26.099  27.526  12.399
70170W        W36579  19.104  27.643   3.808
70171W        W36580  29.440  18.060  12.855
70172W        W36581   8.920   4.305   0.551
70173W        W36582   7.613   3.236   2.339
70174W        W36583  35.344  23.959  13.894
70175W        W36584  32.867   5.876   0.030
70176W        W36585   0.416   2.686  13.435
70177W        W36586  38.831  15.322  11.604
70178W        W36587   7.578  35.516   9.916
70179W        W36588  12.702  44.527  13.014
70180W        W36589  22.524  26.931  13.616
70181W        W36590  28.153  26.592   4.603
70182W        W36591  24.201  20.730  10.414
70183W        W36592   7.023  23.626   3.830
70184W        W36593  14.713  34.859   0.816
70185W        W36594   0.028  24.896  10.705
70186W        W36595  34.391  21.093  10.533
70187W        W36596  35.502  23.761   0.049
70188W        W36597   1.918  19.316  14.447
70189W        W36598   5.697  20.212   3.683
70190W        W36599  21.408  42.083   5.082
70191W        W36600  34.338   5.235  14.291
70192W        W36601  25.286  15.117  11.003
70193W        W36602   3.694  20.117  14.557
70194W        W36603  28.837  27.838  12.317
70195W        W36604  36.047  32.677   1.754
70196W        W36605   2.994  23.065  13.441
70197W        W36606  13.108  43.444  11.931
70198W        W36607   6.683  21.087  14.987
70199W        W36608  20.224   6.130  11.168
70200W        W36609  10.245  41.755  13.873
70201W        W36610  25.464  37.610  12.940
70202W        W36611   4.817  10.619   3.138
70203W        W36612   8.834   9.125  11.948
70204W        W36613  16.431  31.871   4.190
70205W        W36614  16.991  15.066  10.299
70206W        W36615   8.136  27.941   3.035
70207W        W36616  29.211  16.160  13.986
70208W        W36617  30.663  35.253  14.766
70209W        W36618  21.743  39.258  12.924
70210W        W36619  35.398  35.939   1.449
70211W        W36620  35.015   6.274  13.962
70212W        W36621  33.702  23.393   4.862
70213W        W36622   6.995  23.766   2.443
70214W        W36623   9.650   1.408   0.684
70215W        W36624  43.874  36.490  11.055
70216W        W36625   1.851  13.713   4.166
70217W        W36626  39.376   8.251   0.934
70218W        W36627  27.694   6.960  11.061
70219W        W36628   8.232   8.765  14.993
70220W        W36629  38.817  31.500   2.381
70221W        W36630  10.985  12.160  12.038
70222W        W36631  36.361   1.766  12.016
70223W        W36632   3.871  20.238  10.488
70224W        W36633  30.058  14.763  11.510
70225W        W36634  13.383  38.619  10.349
70226W        W36635  44.810   0.830   1.698
70227W        W36636  42.007  16.355  11.602
70228W        W36637  26.135  14.060  14.854
70229W        W36638  11.668  30.602   2.890
70230W        W36639  33.880  22.581  11.031
70231W        W36640   3.181  41.378  13.476
70232W        W36641  10.706  31.363   4.208
70233W        W36642  10.297  30.060   1.782
70234W        W36643  18.603  33.975   0.409
70235W        W36644  26.178   8.114   1.619
70236W        W36645  29.028   9.226   2.652
70237W        W36646   3.366   3.720   0.819
70238W        W36647   2.087  10.112   4.177
70239W        W36648  35.449  26.480   3.757
70240W        W36649  16.378  15.368  12.075
70241W        W36650  26.956   3.773  12.125
70242W        W36651  43.164  15.856   0.493
70243W        W36652   1.218   3.687   0.375
70244W        W36653  32.484  26.097  11.750
70245W        W36654  36.030  40.353   0.652
70246W        W36655  40.318   5.632  11.547
70247W        W36656  13.837  20.541   3.113
70248W        W36657  35.550  19.362   0.992
70249W        W36658   1.065  10.346   4.154
70250W        W36659  36.501  31.562  14.299
70251W        W36660  37.594  35.991  13.873
70252W        W36661  12.452  38.697   1.960
70253W        W36662   9.966  17.629  11.486
70254W        W36663  18.161  10.648  13.033
70255W        W36664  44.393  13.056   1.738
70256W        W36665  22.194  30.124  14.061
70257W        W36666   5.986   2.170  13.427
70258W        W36667  19.477  39.903  10.761
70259W        W36668  11.813  14.411   1.428
70260W        W36669   4.907  32.867   4.611
70261W        W36670  24.657  21.348  10.085
70262W        W36671  18.999  38.041   0.561
70263W        W36672  14.583  17.639   1.911
70264W        W36673  38.574  13.704  13.060
70265W        W36674  40.350  27.652  13.457
70266W        W36675  34.082  41.203  11.988
70267W        W36676  10.864  20.804   3.870
70268W        W36677  37.040   0.846   1.465
70269W        W36678  17.811  26.496   3.399
70270W        W36679   0.983  20.689   0.233
70271W        W36680   8.615  36.164  13.469
70272W        W36681  29.492   0.471   0.498
70273W        W36682  13.793   3.677  12.425
70274W        W36683   0.876  41.297  13.512
70275W        W36684   1.424  10.869  13.753
70276W        W36685  13.213   9.525  11.171
70277W        W36686  32.301  20.941   2.219
70278W        W36687  44.214  13.736   3.711
70279W        W36688  33.406  13.460   4.116
70280W        W36689  15.147  24.542  13.122
70281W        W36690  16.852  12.602   2.874
70282W        W36691  36.441  19.518   0.721
70283W        W36692  32.466   4.279   4.160
70284W        W36693  10.820  20.626  13.082
70285W        W36694  31.148  25.776   2.795
70286W        W36695   7.362  23.590   1.308
70287W        W36696  20.847  42.330  14.246
70288W        W36697  32.663  32.381   0.687
70289W        W36698  18.597   4.769   2.257
70290W        W36699  13.943  27.636  12.033
70291W        W36700  40.675   8.661   9.760
70292W        W36701   2.906   1.797   4.705
70293W        W36702  22.429   3.718  13.939
70294W        W36703  12.906   6.687   0.346
70295W        W36704  31.863  37.126   1.175
70296W        W36705  12.334  19.302  12.570
70297W        W36706  19.337  19.855  14.574
70298W        W36707   7.616  14.588   3.338
70299W        W36708  28.710  28.510  12.885
70300W        W36709  25.451  37.071   1.758
70301W        W36710  34.160  38.551   0.269
70302W        W36711  39.329   7.584   2.068
70303W        W36712  26.867  26.687  12.702
70304W        W36713  25.644  35.709  12.639
70305W        W36714  24.754  32.001   1.908
70306W        W36715  35.066  10.689  14.994
70307W        W36716   3.081  27.086   2.069
70308W        W36717  12.647  35.571   3.096
70309W        W36718  41.424  29.019   2.775
70310W        W36719   7.974   0.757   1.371
70311W        W36720  43.111  18.530  11.507
70312W        W36721   5.970  11.329   1.414
70313W        W36722  20.816  26.894  13.546
70314W        W36723  23.357  44.458  14.366
70315W        W36724   9.122  39.591   3.796
70316W        W36725   7.249   0.446   4.824
70317W        W36726  11.872   2.991  13.815
70318W        W36727  37.544  15.356   4.670
70319W        W36728   9.315   7.662  13.982
70320W        W36729  26.031  24.031   2.991
70321W        W36730   5.499  26.025   4.188
70322W        W36731  23.091  26.309   2.466
70323W        W36732  44.326   8.710   5.437
70324W        W36733  41.948  17.191  14.887
70325W        W36734   4.651   3.282  10.150
70326W        W36735  18.081  39.191   2.106
70327W        W36736   0.486  28.030   2.808
70328W        W36737  33.520  10.285  12.818
70329W        W36738  43.266  21.779  10.887
70330W        W36739  35.974  19.322  14.279
70331W        W36740   4.238  20.495   2.279
70332W        W36741   6.336  41.027  11.119
70333W        W36742  30.503  37.023   0.771
70334W        W36743  39.998  25.003   0.591
70335W        W36744  33.047  44.894   3.144
70336W        W36745  32.476  44.595   0.305
70337W        W36746  32.918  34.991   2.894
70338W        W36747  16.888   9.401   0.940
70339W        W36748  27.175  23.997  12.452
70340W        W36749   3.455  36.019   4.384
70341W        W36750   6.320   2.663  10.578
70342W        W36751  23.388  38.903  14.013
70343W        W36752  38.529  14.246   1.211
70344W        W36753  27.441  14.205  11.962
70345W        W36754   8.400   9.424   1.651
70346W        W36755  16.436   3.428   4.704
70347W        W36756  41.523  17.316  10.326
70348W        W36757  38.919  18.657   5.648
70349W        W36758  39.677  21.377   3.628
70350W        W36759  40.054  11.682  14.352
70351W        W36760  42.929  20.701  12.619
70352W        W36761   3.910  25.584  12.811
70353W        W36762  29.194  27.180   3.342
70354W        W36763  36.038   3.844  12.336
70355W        W36764  20.011   5.785   2.342
70356W        W36765   5.869  34.084   4.006
70357W        W36766  22.090  17.296  14.757
70358W        W36767   2.960   7.296  11.733
70359W        W36768  28.698   3.964   0.997
70360W        W36769  32.910  25.153  11.325
70361W        W36770  23.144   7.821   1.629
70362W        W36771   5.808  40.470   3.399
70363W        W36772  31.445  36.961   2.688
70364W        W36773  41.194   9.300   3.794
70365W        W36774  17.807  16.651   2.718
70366W        W36775  16.673  42.705  13.956
70367W        W36776  18.343  43.537  13.595
70368W        W36777   1.760  18.247  12.465
70369W        W36778  32.816  33.944   2.485
70370W        W36779  17.288  39.017  13.994
70371W        W36780  44.310   6.739   3.745
70372W        W36781  31.173  21.982   4.628
70373W        W36782  16.675   6.170   2.430
70374W        W36783  37.496  43.789  14.842
70375W        W36784  30.697  15.072  14.358
70376W        W36785  27.120  41.677   5.169
70377W        W36786  27.956  30.039  12.548
70378W        W36787  30.903  41.967  14.286
70379W        W36788  10.370  20.183   0.546
70380W        W36789  16.683  43.452   2.303
70381W        W36790  21.418   0.151  14.380
70382W        W36791  32.021  26.979  11.647
70383W        W36792  44.030  25.411  12.991
70384W        W36793  42.381  14.015   4.919
70385W        W36794  11.156   5.848   1.433
70386W        W36795  10.826  42.026  12.023
70387W        W36796  27.225  13.195   4.510
70388W        W36797  26.118  34.439   0.293
70389W        W36798   5.380  31.485  13.395
70390W        W36799   8.425  16.164   3.500
70391W        W36800  23.589  37.591   4.533
70392W        W36801  20.222  27.529  12.958
70393W        W36802  11.165  23.159   4.311
70394W        W36803   2.426  28.551  13.422
70395W        W36804  25.499  10.701   4.606
70396W        W36805  40.338  40.792   1.381
70397W        W36806   6.771  16.052  12.679
70398W        W36807  34.678  25.893   3.514
70399W        W36808  19.432   0.922  12.955
70400W        W36809  11.382  19.293  14.716
70401W        W36810  14.400   6.690  13.589
70402W        W36811   2.245  36.891  12.151
70403W        W36812  35.465  25.930  14.056
70404W        W36813  14.720  24.576   1.262
70405W        W36814  13.983  24.179   1.244
70406W        W36815   7.148  38.381  15.000
70407W        W36816  21.508   5.801   3.373
70408W        W36817  22.644  40.536  14.016
70409W        W36818  40.536  42.522   3.767
70410W        W36819   7.943  19.384   3.861
70411W        W36820  39.136  32.034  13.913
70412W        W36821  36.318   9.205   1.241
70413W        W36822  34.703  29.762  12.417
70414W        W36823  44.878  37.995   1.756
70415W        W36824  36.972  28.208  12.940
70416W        W36825   7.546   0.612  12.620
70417W        W36826   2.739  12.405  13.336
70418W        W36827  16.546   7.794  13.596
70419W        W36828  11.837  19.980   2.817
70420W        W36829  13.218  21.227  12.084
70421W        W36830  10.262  38.811   0.853
70422W        W36831   5.579  18.430  11.878
70423W        W36832  33.285  44.368  11.023
70424W        W36833  41.389  17.761   1.783
70425W        W36834  28.802  19.667  13.372
70426W        W36835   6.269   3.952   2.052
70427W        W36836  39.756  33.707  11.951
70428W        W36837  33.001  34.883  13.941
70429W        W36838  18.736  10.108  14.448
70430W        W36839  18.481  31.042   2.559
70431W        W36840   8.359   7.164  14.799
70432W        W36841   9.162  25.002   3.603
70433W        W36842  28.858  26.588  11.739
70434W        W36843  30.549  14.380  11.389
70435W        W36844   4.648  26.050   3.644
70436W        W36845  11.215  36.922   5.069
70437W        W36846  17.259   1.061  14.741
70438W        W36847  41.823   1.479  11.119
70439W        W36848  23.325  40.027  12.120
70440W        W36849   6.379  33.760   5.169
70441W        W36850  11.110  29.073  10.782
70442W        W36851  29.561  34.084   2.415
70443W        W36852  44.585  39.818   3.453
70444W        W36853  36.949  40.266  11.656
70445W        W36854  42.599  22.986  14.663
70446W        W36855  34.557   2.447  11.448
70447W        W36856  18.002  37.148  13.475
70448W        W36857  18.809  37.873  10.589
70449W        W36858  42.908  37.121   0.472
70450W        W36859  38.559  34.427   0.838
70451W        W36860  31.928  37.762   0.412
70452W        W36861  40.914  31.214  12.879
70453W        W36862  42.724  40.285  12.361
70454W        W36863  21.165  40.867   4.639
70455W        W36864   9.834  24.579   3.244
70456W        W36865  36.422   5.872   2.832
70457W        W36866  33.035  22.812  12.075
70458W        W36867   3.305  14.620   1.304
70459W        W36868  17.041   3.214  11.086
70460W        W36869  13.175   2.477   0.861
70461W        W36870  35.553  10.589   2.840
70462W        W36871  38.848  23.470  11.204
70463W        W36872   5.509  44.696   1.190
70464W        W36873  10.171  16.083   1.847
70465W        W36874  21.080  12.047  14.911
70466W        W36875  41.674  10.947   5.021
70467W        W36876   4.470  17.561  12.479
70468W        W36877  44.984   3.724  12.967
70469W        W36878  32.136  15.350   1.777
70470W        W36879  19.070  14.111   0.895
70471W        W36880   5.895  27.741   2.536
70472W        W36881   5.766  20.074   4.719
70473W        W36882  39.404   5.174   0.467
70474W        W36883  27.589   9.860   0.984
70475W        W36884   8.473  22.783  12.948
70476W        W36885  16.584  31.673  13.810
70477W        W36886  10.127  43.406   3.662
70478W        W36887  12.619  31.483   4.614
70479W        W36888   6.879  37.836   3.606
70480W        W36889  15.111  19.991   4.453
70481W        W36890  21.651  28.619   2.165
70482W        W36891   1.389  43.190  13.158
70483W        W36892  20.751  10.858   3.440
70484W        W36893  38.618  40.389  13.357
70485W        W36894   3.278   1.209  10.747
70486W        W36895  40.855  23.115  12.488
70487W        W36896  12.705  19.174   1.184
70488W        W36897  27.063  41.018  11.954
70489W        W36898   1.515  34.524   1.764
70490W        W36899   1.986   7.243   1.963
70491W        W36900   7.911  44.894   0.074
70492W        W36901   3.707  27.209  11.263
70493W        W36902  19.536  13.443  13.406
70494W        W36903  19.473   0.433  11.129
70495W        W36904  22.639  16.619   3.732
70496W        W36905  11.639   2.103  13.311
70497W        W36906  37.333  31.819   3.209
70498W        W36907  18.736  39.849   4.559
70499W        W36908  31.109  41.412   3.244
70500W        W36909  18.332   7.294   3.385
70501W        W36910  11.568   8.851   4.522
70502W        W36911  20.117  29.231   5.026
70503W        W36912  42.871  40.843   1.781
70504W        W36913  26.213   3.202   3.814
70505W        W36914  44.556  29.486   0.408
70506W        W36915   2.268  19.696  12.542
70507W        W36916  34.402  26.561  11.970
70508W        W36917  21.365   9.129  12.432
70509W        W36918  16.894   1.272  12.037
70510W        W36919  22.792  33.150   2.506
70511W        W36920  33.794  35.892   1.704
70512W        W36921  30.872   2.234   2.357
70513W        W36922  41.734  12.786   3.277
70514W        W36923  13.360  14.699  10.772
70515W        W36924  39.508  20.049  14.254
70516W        W36925  20.761  42.392  12.356
70517W        W36926  25.684  22.528   0.715
70518W        W36927   3.209  29.677   3.214
70519W        W36928  23.120  10.409  14.075
70520W        W36929  41.283   0.970  10.499
70521W        W36930  37.545  38.067   4.030
70522W        W36931  14.480  17.705  11.476
70523W        W36932  17.585  22.113   2.118
70524W        W36933  10.627  21.228   2.549
70525W        W36934  27.061  40.526  11.941
70526W        W36935  26.057  33.404  10.694
70527W        W36936   4.280  22.835   2.872
70528W        W36937  38.395  27.115  13.352
70529W        W36938  29.644   3.320  13.113
70530W        W36939  32.762   3.593   5.041
70531W        W36940  38.628  12.577   3.894
70532W        W36941  40.942   3.956   1.726
70533W        W36942  20.707  19.067   1.415
70534W        W36943  41.196  35.048   2.413
70535W        W36944  30.262   8.934   4.176
70536W        W36945  40.898  35.271  11.334
70537W        W36946  41.222   4.326  12.470
70538W        W36947   1.937  33.926   2.789
70539W        W36948  21.959  27.073   1.864
70540W        W36949  10.131   4.924  11.932
70541W        W36950   2.254   7.369   3.660
70542W        W36951  29.540  28.081   1.706
70543W        W36952   8.404  10.316   0.728
70544W        W36953  14.190   4.892   2.433
70545W        W36954   7.076  33.588   0.065
70546W        W36955  33.524  27.164   2.243
70547W        W36956   2.129  15.741   2.310
70548W        W36957   9.304   0.484   3.591
70549W        W36958  36.432   9.411   3.371
70550W        W36959  43.172  22.249   0.361
70551W        W36960  36.217  29.507   4.808
70552W        W36961  14.067   9.329  14.904
70553W        W36962  28.982  40.006   1.426
70554W        W36963  37.769  38.054  11.673
70555W        W36964  41.358   3.879  13.110
70556W        W36965  15.265  29.548  12.026
70557W        W36966  35.782  17.392  14.374
70558W        W36967  28.537   5.239  12.021
70559W        W36968   1.590  42.474  12.562
70560W        W36969  17.725  41.495   0.316
70561W        W36970  21.666   9.361   3.956
70562W        W36971   7.917   0.517  12.987
70563W        W36972  25.022  38.319  13.546
70564W        W36973   6.809  33.950  11.637
70565W        W36974  19.010  44.526  14.995
70566W        W36975  16.226  40.663   4.363
70567W        W36976   5.461  28.590  14.886
70568W        W36977  30.119  28.950  14.045
70569W        W36978  37.073  14.836  12.452
70570W        W36979   5.565  25.681  14.792
70571W        W36980  21.510   9.185  11.241
70572W        W36981  42.910   9.720   3.224
70573W        W36982  20.551  42.527   3.344
70574W        W36983  20.643  22.621   1.914
70575W        W36984  41.367  26.116   4.211
70576W        W36985  43.206  43.532  14.864
70577W        W36986  44.541  43.973   0.885
70578W        W36987  31.900  15.834   1.716
70579W        W36988  27.958  44.314  11.491
70580W        W36989   3.383  16.646   3.005
70581W        W36990  40.713  19.494  13.900
70582W        W36991  20.706  33.435   1.997
70583W        W36992  21.317  12.200  11.013
70584W        W36993  40.006  41.279   2.873
70585W        W36994  25.257  21.108   3.138
70586W        W36995  33.432  40.349  11.559
70587W        W36996  31.146   6.625   4.131
70588W        W36997  21.555   2.935   0.322
70589W        W36998  28.022   1.265   3.807
70590W        W36999  13.745   5.398  11.641
70591W        W37000  15.373  10.159  13.906
70592W        W37001  40.502  17.232   1.462
70593W        W37002  16.360  11.763   3.188
70594W        W37003  28.590  31.971  12.841
70595W        W37004   5.524  39.758   4.106
70596W        W37005  10.694  19.250  12.025
70597W        W37006  37.897   3.723   4.107
70598W        W37007  29.388  42.817   0.466
70599W        W37008  24.257  14.871  11.610
70600W        W37009   8.433  18.297  13.035
70601W        W37010  17.760  29.163   2.801
70602W        W37011  20.790  44.848  10.543
70603W        W37012  15.719   3.444   1.380
70604W        W37013  22.917  17.634  10.775
70605W        W37014   0.093  10.346  10.036
70606W        W37015  32.623  18.281  11.436
70607W        W37016  29.597  12.492  13.903
70608W        W37017   0.518   2.144   1.311
70609W        W37018  18.318  31.619  13.476
70610W        W37019  42.263  24.258  14.909
70611W        W37020  14.592  37.030   2.343
70612W        W37021  38.809  28.394   0.466
70613W        W37022  18.149  34.205   1.912
70614W        W37023  24.448  34.980   0.998
70615W        W37024  19.548  34.447   0.047
70616W        W37025  22.040  43.573  13.182
70617W        W37026   5.346   3.140   4.943
70618W        W37027   7.148  11.565   2.821
70619W        W37028  24.370  37.262  10.008
70620W        W37029  38.757  32.043  13.552
70621W        W37030  25.959   7.695   3.754
70622W        W37031  11.200   0.334   3.116
70623W        W37032  18.722  42.348  13.888
70624W        W37033  14.426  38.357  14.366
70625W        W37034   8.791  33.516  14.261
70626W        W37035  39.057   1.758  12.975
70627W        W37036  27.373  19.467   3.107
70628W        W37037   1.208  31.621   1.415
70629W        W37038  25.137  31.928   0.835
70630W        W37039  39.275   3.168   1.330
70631W        W37040  41.046   8.285  12.574
70632W        W37041   3.354   9.149   4.503
70633W        W37042   0.001  25.597   2.382
70634W        W37043  18.550  26.460  10.767
70635W        W37044  17.204   2.168  13.997
70636W        W37045  40.111  21.054  14.861
70637W        W37046  12.944   8.756   1.492
70638W        W37047  12.156  32.132   1.261
70639W        W37048   0.506   2.673  14.306
70640W        W37049   1.754  42.826  12.924
70641W        W37050  44.978  42.065  12.915
70642W        W37051  31.167  42.170  14.688
70643W        W37052   3.847   4.850  12.546
70644W        W37053  34.692  21.358  12.472
70645W        W37054  22.701  42.379   3.924
70646W        W37055  15.318   1.955  14.528
70647W        W37056  15.794  24.216   0.780
70648W        W37057   0.528  19.170  10.737
70649W        W37058  44.980  33.072  14.870
70650W        W37059  29.036   4.728   4.558
70651W        W37060  25.703  21.621  14.874
70652W        W37061  12.785   2.399   4.243
70653W        W37062  30.602  20.987   0.370
70654W        W37063  32.657  31.234  14.981
70655W        W37064  41.330  39.607  11.524
70656W        W37065  27.456   7.318  12.812
70657W        W37066   3.478   2.437   3.265
70658W        W37067  26.095  39.814   1.723
70659W        W37068  40.313  43.257   0.505
70660W        W37069  29.895  35.380  14.538
70661W        W37070  11.766  29.062   4.936
70662W        W37071  15.307  24.983  13.342
70663W        W37072  29.190  44.018  11.411
70664W        W37073  23.919  12.679   4.118
70665W        W37074  36.304  22.271   3.563
70666W        W37075  32.828   2.476  12.930
70667W        W37076   0.949   3.337   2.843
70668W        W37077  39.518  25.604  14.499
70669W        W37078   2.921   6.947   4.433
70670W        W37079  40.218  44.991  10.824
70671W        W37080  44.780   5.673   2.101
70672W        W37081  32.210  34.391  13.931
70673W        W37082  34.540   1.519   3.732
70674W        W37083  20.144  22.023  12.457
70675W        W37084  12.828  44.317  14.068
70676W        W37085  37.501  24.835   2.348
70677W        W37086  16.906  31.055   3.340
70678W        W37087  31.507  27.721  12.734
70679W        W37088  28.701  10.033   1.822
70680W        W37089  26.540   1.759  12.396
70681W        W37090   5.558  11.757   0.859
70682W        W37091  33.955   0.435  13.342
70683W        W37092   8.054  33.543   0.470
70684W        W37093   6.271  22.143   1.147
70685W        W37094  39.434  32.058   0.403
70686W        W37095  42.280   2.648   3.790
70687W        W37096  35.828  12.997   2.878
70688W        W37097   2.336  28.213  11.714
70689W        W37098   3.118  28.884   2.800
70690W        W37099   0.349  13.562   2.971
70691W        W37100  37.930  26.005  10.646
70692W        W37101  30.565  15.369   2.714
70693W        W37102   1.949  18.176   1.840
70694W        W37103  18.215  13.625  11.166
70695W        W37104  35.962  32.725   2.663
70696W        W37105   0.348  44.525   2.151
70697W        W37106  31.347  32.343   9.907
70698W        W37107  21.082  30.601  10.819
70699W        W37108  29.233  43.363  14.700
70700W        W37109   5.696  16.054  12.533
70701W        W37110  26.518  33.541  10.850
70702W        W37111  32.067  40.248  11.636
70703W        W37112  13.684  33.816   3.797
70704W        W37113  39.502   4.100  14.904
70705W        W37114  23.594   4.035  10.429
70706W        W37115  13.391  39.941   2.279
70707W        W37116   9.887  36.513  14.361
70708W        W37117   7.966  26.709   3.716
70709W        W37118  27.002  14.747  14.464
70710W        W37119  17.075  15.066  13.555
70711W        W37120   6.400  10.770   3.066
70712W        W37121  13.670   6.154   0.744
70713W        W37122   5.806  22.629   9.722
70714W        W37123  11.112  24.925   4.501
70715W        W37124   9.852  32.218   2.295
70716W        W37125   1.527  36.084   2.182
70717W        W37126  15.351  10.799  14.393
70718W        W37127  33.775  37.009   0.789
70719W        W37128  25.494  17.468   2.638
70720W        W37129  16.832  42.237  10.911
70721W        W37130  30.509  36.064   4.542
70722W        W37131   5.459   0.182   0.414
70723W        W37132  12.525  44.204   0.740
70724W        W37133  31.526  38.799   3.194
70725W        W37134  42.480  38.078   3.346
70726W        W37135   4.845  16.103   4.596
70727W        W37136  25.612  25.565   0.212
70728W        W37137  13.949  28.416   1.122
70729W        W37138  22.475  42.548  10.790
70730W        W37139  34.943  14.328  12.495
70731W        W37140  25.912   4.445   0.248
70732W        W37141  24.736  28.649  14.479
70733W        W37142  16.874  11.607  12.520
70734W        W37143  19.279   2.307   5.108
70735W        W37144  28.801   8.187  12.421
70736W        W37145  42.918  18.103  12.427
70737W        W37146  27.183  21.286   3.240
70738W        W37147  16.509  12.619   0.178
70739W        W37148  28.165  34.042   1.149
70740W        W37149  44.372  36.329  11.161
70741W        W37150  14.199  16.755  13.618
70742W        W37151  14.667   4.413   4.045
70743W        W37152  15.132  24.841  14.136
70744W        W37153  11.043  16.629   3.647
70745W        W37154   4.120  41.843  12.899
70746W        W37155  34.278  25.233  12.404
70747W        W37156   6.331   7.867  14.336
70748W        W37157   4.740  11.748   2.644
70749W        W37158  43.395  25.379  11.256
70750W        W37159  35.765   6.669  11.119
70751W        W37160  13.410  27.627  12.012
70752W        W37161  34.044  29.467   2.284
70753W        W37162   5.505  10.267   1.989
70754W        W37163  23.698  34.276   3.300
70755W        W37164   7.964  19.605   0.732
70756W        W37165  33.562   3.033  12.135
70757W        W37166  24.653  14.847   0.590
70758W        W37167  21.060  15.980  13.524
70759W        W37168  44.500  14.580  10.773
70760W        W37169  32.338  27.568  12.157
70761W        W37170  25.075  38.443  14.046
70762W        W37171   5.171  36.415  12.801
70763W        W37172  13.348   9.673  12.060
70764W        W37173  43.425   3.781  13.577
70765W        W37174  39.016  17.632   5.058
70766W        W37175  40.752   9.249   4.063
70767W        W37176  17.666  40.094   2.314
70768W        W37177  32.475  23.815   0.489
70769W        W37178  34.897  10.715   1.468
70770W        W37179  29.233  18.383   4.323
70771W        W37180  38.627  30.736   1.158
70772W        W37181  34.913  19.804   4.560
70773W        W37182  15.808  15.847  11.139
70774W        W37183  31.975  29.223   4.780
70775W        W37184  36.887  14.843  13.427
70776W        W37185  13.604  36.976  11.506
70777W        W37186  24.018  34.723  11.252
70778W        W37187   4.075  13.683   3.457
70779W        W37188  16.603  15.314  12.540
70780W        W37189   0.293   1.285   2.381
70781W        W37190   3.196  27.932   4.170
70782W        W37191  33.375  33.704   5.054
70783W        W37192  30.665  39.173   1.753
70784W        W37193   2.396  16.024   3.174
70785W        W37194   1.358  42.588  14.506
70786W        W37195   9.454   4.981  13.021
70787W        W37196   5.561  22.018   5.664
70788W        W37197  27.173  28.720  14.754
70789W        W37198  23.524  26.429   3.684
70790W        W37199  16.565  17.230  13.835
70791W        W37200  31.722  13.564  11.587
70792W        W37201  14.672  30.660   2.824
70793W        W37202   9.144  43.340   0.336
70794W        W37203   5.187  43.565  13.826
70795W        W37204  12.778  32.456  12.182
70796W        W37205  38.835  34.856   2.208
70797W        W37206   0.763  10.139  12.705
70798W        W37207   4.709  28.772  14.439
70799W        W37208   3.891  38.657   3.771
70800W        W37209  38.852  20.311   1.056
70801W        W37210  41.548  42.031  12.015
70802W        W37211   2.662  39.781   4.129
70803W        W37212  22.893  18.133  10.548
70804W        W37213  24.100   9.544  10.037
70805W        W37214  32.173  28.220   0.792
70806W        W37215  24.031  13.861   2.446
70807W        W37216  25.769  24.902   1.887
70808W        W37217  23.436  42.437   3.419
70809W        W37218  27.124  15.433   1.919
70810W        W37219  11.442   1.784   0.950
70811W        W37220  13.297  21.509   0.016
70812W        W37221  14.063  13.184   4.592
70813W        W37222  10.974   5.161   2.652
70814W        W37223  31.969  28.009   1.939
70815W        W37224  42.208   3.442  11.642
70816W        W37225  32.981  30.470   4.930
70817W        W37226  12.320  43.415  13.903
70818W        W37227   2.610  41.021   2.141
70819W        W37228   3.964  27.738  14.312
70820W        W37229  36.617  37.019   4.404
70821W        W37230  16.263  36.109   1.888
70822W        W37231  27.973  23.280   0.512
70823W        W37232  37.542  27.290   3.288
70824W        W37233  23.973  14.237   1.691
70825W        W37234   0.775  39.478   1.545
70826W        W37235   3.205  14.475  11.882
70827W        W37236  40.214   5.256   3.572
70828W        W37237  26.502  41.416   3.204
70829W        W37238  42.037   2.405  14.285
70830W        W37239  26.083  12.538  14.892
70831W        W37240   6.071   9.890  10.258
70832W        W37241  23.973  44.274   3.330
70833W        W37242  34.011  18.537   2.684
70834W        W37243   0.765  15.017   1.758
70835W        W37244  32.414  29.203   1.862
70836W        W37245  38.843  43.350   0.694
70837W        W37246  13.477  10.835   1.737
70838W        W37247  26.682  39.422   4.201
70839W        W37248  35.453   6.541   2.217
70840W        W37249  35.826  15.544   4.548
70841W        W37250  15.140  21.220  11.177
70842W        W37251  25.778  25.710  10.956
70843W        W37252  24.179  35.551   3.183
70844W        W37253  32.453  43.763   1.783
70845W        W37254  22.997  38.992   4.859
70846W        W37255  38.806  40.414   1.399
70847W        W37256   9.827  28.464   3.994
70848W        W37257  26.700  35.033   0.558
70849W        W37258  31.346  29.129   4.259
70850W        W37259   6.459  37.324   0.171
70851W        W37260   9.429   2.712   3.387
70852W        W37261  13.651  10.272   0.204
70853W        W37262  35.358  43.853   2.728
70854W        W37263  33.534  35.359   3.938
70855W        W37264   0.462  37.065  14.024
70856W        W37265   4.676  39.524   0.487
70857W        W37266   2.938   7.293  14.963
70858W        W37267  18.014  37.027   2.687
70859W        W37268  18.675  14.878  10.566
70860W        W37269   3.271  29.735   4.427
70861W        W37270   3.907   7.227  14.050
70862W        W37271  13.579  35.035  12.954
70863W        W37272  36.536  36.322   4.501
70864W        W37273  26.234  21.974   2.734
70865W        W37274   5.947  36.675  10.957
70866W        W37275  37.494  22.550  13.976
70867W        W37276   7.794   1.705  12.153
70868W        W37277  18.819  27.610   2.928
70869W        W37278  44.637  27.677   0.270
70870W        W37279  31.553  33.580   1.282
70871W        W37280   2.501  19.663   4.531
70872W        W37281  31.914  22.590   1.787
70873W        W37282  42.721   6.496  14.033
70874W        W37283  30.150  22.626  13.332
70875W        W37284  26.645  12.174  10.614
70876W        W37285   3.205  32.037  12.118
70877W        W37286  14.748  17.746  11.006
70878W        W37287  33.776  30.251   4.354
70879W        W37288  36.901  31.563   4.299
70880W        W37289  29.954  30.198  14.978
70881W        W37290  22.818  30.105  13.401
70882W        W37291  40.980   7.630  13.766
70883W        W37292  32.467  41.870  14.441
70884W        W37293   7.825  13.269   1.388
70885W        W37294  37.426   4.775   3.665
70886W        W37295  37.805   6.069  10.382
70887W        W37296  32.901  43.470   0.911
70888W        W37297  35.458  28.654   4.282
70889W        W37298  14.557   5.408  13.953
70890W        W37299  21.320  44.832   4.521
70891W        W37300  22.319  18.245   4.248
70892W        W37301  26.578  25.729  12.598
70893W        W37302   0.862   1.703   3.414
70894W        W37303  11.222  38.132   0.278
70895W        W37304  29.967  20.539  11.228
70896W        W37305   9.785  30.212   1.760
70897W        W37306  22.704   9.882   3.199
70898W        W37307  24.582  43.225   1.832
70899W        W37308  43.675  43.065   0.403
70900W        W37309   2.259  32.099  11.791
70901W        W37310  28.148  16.232  10.904
70902W        W37311  43.656  30.932   3.581
70903W        W37312  16.161   0.682   1.179
70904W        W37313  33.146   3.779   0.815
70905W        W37314   7.640  31.726   4.460
70906W        W37315   6.748   9.437  12.437
70907W        W37316  38.058  13.679  13.264
70908W        W37317   9.862  23.884   0.066
70909W        W37318  13.158  17.693   3.615
70910W        W37319  19.078  42.053   1.460
70911W        W37320  13.225  11.780  10.789
70912W        W37321  10.692   4.771   2.812
70913W        W37322   4.446  14.325  11.261
70914W        W37323  39.846  16.878   2.368
70915W        W37324  20.697  43.958   2.130
70916W        W37325  31.375  23.505  12.990
70917W        W37326  42.983  36.254   2.168
70918W        W37327   4.825  38.979   2.255
70919W        W37328  23.753  34.580   2.836
70920W        W37329  18.263  36.098  12.123
70921W        W37330  10.900   9.833   2.787
70922W        W37331  40.421  11.269  14.248
70923W        W37332   4.898   1.347  11.641
70924W        W37333  29.778   8.103   4.976
70925W        W37334  17.725  21.726   4.417
70926W        W37335   9.387   4.420   0.350
70927W        W37336  29.117  28.424   1.467
70928W        W37337  15.097  20.276   1.315
70929W        W37338  24.981  33.999   0.052
70930W        W37339  10.201  29.059   1.287
70931W        W37340  30.993  41.448  14.275
70932W        W37341  21.198   2.125   0.150
70933W        W37342  34.599  15.834  14.199
70934W        W37343  27.508  32.128   2.234
70935W        W37344  28.520  27.691  14.935
70936W        W37345   5.254  41.814  12.563
70937W        W37346  31.152  20.362  13.461
70938W        W37347  30.416  15.405   4.733
70939W        W37348   5.602  41.457   0.764
70940W        W37349   2.002  10.908   3.749
70941W        W37350   2.835  17.595   4.055
70942W        W37351   9.359  30.484  11.695
70943W        W37352  35.048  14.169  14.915
70944W        W37353  42.976  44.947   3.194
70945W        W37354   7.814  39.263  13.038
70946W        W37355  21.218  28.570  12.323
70947W        W37356  27.846  34.437   2.770
70948W        W37357  20.038   5.448  13.015
70949W        W37358  41.872  31.203  12.924
70950W        W37359  31.202  14.873   0.851
70951W        W37360  21.731  34.861   3.681
70952W        W37361  39.499  34.064   0.022
70953W        W37362  11.056  36.060  12.599
70954W        W37363   9.673   9.643  14.354
70955W        W37364  43.561  26.600  10.628
70956W        W37365   9.618  34.468   5.049
70957W        W37366   8.460  14.623  11.193
70958W        W37367  43.566  13.277  12.901
70959W        W37368  37.858   9.510  14.847
70960W        W37369  13.328   6.734   2.172
70961W        W37370  14.571   6.640  10.279
70962W        W37371  31.083  26.926  14.845
70963W        W37372  25.370   9.419  10.031
70964W        W37373  23.603  38.897  11.507
70965W        W37374  25.600  18.750   2.351
70966W        W37375  30.459  20.454   1.194
70967W        W37376   4.327  29.886  14.732
70968W        W37377   1.452   4.143   4.161
70969W        W37378  13.760  26.345   3.945
70970W        W37379  25.006   7.918  10.620
70971W        W37380  29.831  32.676  11.705
70972W        W37381  31.612  39.785   2.339
70973W        W37382  27.469   8.933  13.031
70974W        W37383  17.140  18.051   4.559
70975W        W37384  33.911  13.172  14.806
70976W        W37385   0.919  44.913  13.346
70977W        W37386  40.197  34.727  13.995
70978W        W37387  14.609  10.181   0.163
70979W        W37388  22.995  36.321   2.330
70980W        W37389  40.856   7.687  13.279
70981W        W37390  44.997  32.527   3.063
70982W        W37391  43.695  18.735   3.070
70983W        W37392  25.961  13.106  12.917
70984W        W37393   2.318  21.091   0.453
70985W        W37394  27.696  23.072  12.495
70986W        W37395  39.083  12.236   0.924
70987W        W37396  30.538  43.503  13.064
70988W        W37397  40.255   0.964  14.866
70989W        W37398  14.746  15.474  11.467
70990W        W37399  43.559   1.891   0.402
70991W        W37400  23.045   9.310   0.779
70992W        W37401  10.900  37.092   0.986
70993W        W37402  24.207  33.503  14.806
70994W        W37403  34.915  20.277   3.062
70995W        W37404  35.798  17.246   4.056
70996W        W37405   3.776  22.551   0.459
70997W        W37406  35.138   7.252  10.780
70998W        W37407   9.614  15.021   1.151
70999W        W37408  17.690  28.566   4.176
71000W        W37409  18.752  28.979   2.830
71001W        W37410  15.266  16.672  11.048
71002W        W37411  10.758  30.579   3.791
71003W        W37412  30.627  30.166  13.813
71004W        W37413  19.555  10.453   2.092
71005W        W37414  37.599  24.067   1.014
71006W        W37415   7.101   3.442   1.347
71007W        W37416  42.989  24.004   3.058
71008W        W37417   0.447  39.750  10.674
71009W        W37418  21.113  30.660   2.165
71010W        W37419  32.087  18.172   2.188
71011W        W37420  40.695  34.265   0.435
71012W        W37421   6.975   9.111   2.832
71013W        W37422   7.221  36.985  14.332
71014W        W37423  17.717  36.318   3.870
71015W        W37424  44.432  39.041   2.579
71016W        W37425  21.415  38.356  11.949
71017W        W37426  26.500  11.207   1.382
71018W        W37427   7.760  41.516  14.341
71019W        W37428  10.783  13.794   3.240
71020W        W37429  19.037  33.249   3.215
71021W        W37430  31.919  15.114  12.535
71022W        W37431  23.233  21.458  10.661
71023W        W37432  32.061  25.920   0.922
71024W        W37433  28.313  15.259   3.321
71025W        W37434  28.175  15.841  14.952
71026W        W37435   4.571  37.131  14.447
71027W        W37436   3.436  14.857   1.782
71028W        W37437  29.508  20.312  11.089
71029W        W37438  43.567  20.248   2.425
71030W        W37439  37.539  13.691  13.420
71031W        W37440  34.062   9.130  11.754
71032W        W37441  20.630   9.873  10.669
71033W        W37442  40.336  41.880   1.453
71034W        W37443  15.375   7.565   3.673
71035W        W37444  23.609  23.499   2.242
71036W        W37445  16.796  32.101  10.304
71037W        W37446  15.177  37.070  10.567
71038W        W37447   5.216  38.291  14.839
71039W        W37448  11.856  39.896  10.788
71040W        W37449  25.665  17.538   3.693
71041W        W37450  37.881  38.351  10.741
71042W        W37451  32.916   0.800  10.298
71043W        W37452  11.433  27.972  13.026
71044W        W37453   1.424   8.803  12.587
71045W        W37454  16.085  26.689  11.973
71046W        W37455   1.144  38.528   3.335
71047W        W37456   6.649  17.671  14.465
71048W        W37457  44.430  19.729   1.078
71049W        W37458  15.649  44.672  11.044
71050W        W37459  28.417  11.379   2.851
71051W        W37460  30.000   6.796   0.438
71052W        W37461  35.604  41.089  11.197
71053W        W37462  11.599  41.068  13.078
71054W        W37463  42.922  34.967   3.157
71055W        W37464  17.804  32.526   2.110
71056W        W37465   1.337  36.534   4.327
71057W        W37466  15.371  23.638  13.387
71058W        W37467  29.916  22.315  12.982
71059W        W37468  39.931  20.009  12.065
71060W        W37469  14.840  31.674  11.505
71061W        W37470   5.754   7.973  12.702
71062W        W37471  13.369   9.186   3.162
71063W        W37472  43.286  15.170  14.485
71064W        W37473  11.131  44.684   1.753
71065W        W37474  18.783  43.817  13.390
71066W        W37475  35.886  32.839   0.851
71067W        W37476  15.213   7.059  13.281
71068W        W37477  31.746   5.600  11.965
71069W        W37478  18.100  12.171   4.207
71070W        W37479  42.644   4.684   4.579
71071W        W37480  29.433   1.316  14.200
71072W        W37481  32.096  11.769  13.810
71073W        W37482  14.081  10.815  14.859
71074W        W37483   6.256   3.386   0.246
71075W        W37484   9.158  16.309  13.656
71076W        W37485  14.348  10.665   2.288
71077W        W37486  39.818  37.983   3.171
71078W        W37487  39.822  28.330  14.347
71079W        W37488  38.596  38.053   1.301
71080W        W37489  18.685   6.503   3.091
71081W        W37490  41.066   2.330  11.424
71082W        W37491   6.194   1.614   1.345
71083W        W37492  21.181  33.440   4.557
71084W        W37493   2.286  20.624  14.278
71085W        W37494  39.799  17.753  11.626
71086W        W37495  36.380  33.863  14.247
71087W        W37496  35.567  10.742  10.761
71088W        W37497  23.773  37.707   1.469
71089W        W37498  26.569  26.687   2.850
71090W        W37499  27.613   0.578   4.696
71091W        W37500  19.614  43.310  13.937
71092W        W37501  38.995  21.699  13.152
71093W        W37502  18.558  10.874  12.786
71094W        W37503  18.160  36.647   1.017
71095W        W37504   9.519  14.082  11.091
71096W        W37505  14.714  44.429   4.567
71097W        W37506  24.743   9.102  12.514
71098W        W37507  18.977   6.697   2.172
71099W        W37508  37.586  38.580  11.116
71100W        W37509  11.638  34.059  10.795
71101W        W37510  19.148  14.050   4.710
71102W        W37511   0.123   7.514  14.366
71103W        W37512  33.454  41.027  12.569
71104W        W37513  36.600   2.763  13.439
71105W        W37514  17.882   2.229  11.059
71106W        W37515  11.099  32.454   2.837
71107W        W37516  25.807  12.349  10.692
71108W        W37517  27.768   9.378  10.676
71109W        W37518   1.056  34.979   2.303
71110W        W37519  37.591  37.951   2.794
71111W        W37520  31.614  13.317   1.682
71112W        W37521  26.605  15.313  14.520
71113W        W37522  23.653   7.617   3.792
71114W        W37523  40.047  30.199   0.931
71115W        W37524  25.653  14.848  14.892
71116W        W37525  44.258   5.750  12.093
71117W        W37526   0.828  23.920   2.809
71118W        W37527  35.060  15.766  14.433
71119W        W37528  16.095  15.335  12.494
71120W        W37529  33.002  27.236  13.077
71121W        W37530   7.019  30.078  14.140
71122W        W37531  29.621  41.281  12.953
71123W        W37532  35.141  40.431   2.874
71124W        W37533  28.116  44.764  14.506
71125W        W37534   4.921  11.340   2.947
71126W        W37535  13.253   7.215   4.068
71127W        W37536  27.796   6.874  12.874
71128W        W37537  33.083  43.424  12.432
71129W        W37538  27.960   3.700  11.981
71130W        W37539  26.115  10.738   0.889
71131W        W37540  40.243  16.140  14.379
71132W        W37541  22.141  15.522  10.790
71133W        W37542   9.974  27.671   1.888
71134W        W37543  12.190  27.634  10.981
71135W        W37544  17.515  28.020   1.383
71136W        W37545   3.665  15.313   1.936
71137W        W37546  23.631   6.046  12.026
71138W        W37547  14.269  22.525   2.171
71139W        W37548  22.148  44.430   1.899
71140W        W37549   4.938  41.150  12.089
71141W        W37550  40.577  30.871  13.123
71142W        W37551  37.901   5.653  11.233
71143W        W37552  23.280   3.933   0.566
71144W        W37553   9.616  22.380   1.657
71145W        W37554  18.742  12.797  13.956
71146W        W37555  21.821  38.996   4.108
71147W        W37556   8.435  16.631  10.750
71148W        W37557  33.361  14.547  10.771
71149W        W37558  35.152  19.021   0.839
71150W        W37559   9.385   3.760   4.047
71151W        W37560  17.515  30.394  11.506
71152W        W37561  17.086  34.169   0.253
71153W        W37562  11.662  32.341   4.323
71154W        W37563  30.193  21.240  13.147
71155W        W37564  20.588   2.242  11.099
71156W        W37565  19.634  34.931  11.469
71157W        W37566  10.646  24.594  10.714
71158W        W37567   2.935  10.434   3.629
71159W        W37568  27.531  37.280  13.934
71160W        W37569  36.079  14.820  14.360
71161W        W37570   9.290  30.118   2.286
71162W        W37571  44.081  38.882  14.471
71163W        W37572   0.659   9.834  13.610
71164W        W37573  42.753   9.135  14.947
71165W        W37574  30.955  18.321  14.381
71166W        W37575  20.601  11.063  14.210
71167W        W37576  15.239  20.443   5.074
71168W        W37577  44.583  42.454   2.750
71169W        W37578  31.703  20.217  14.913
71170W        W37579  25.561  31.131  13.625
71171W        W37580  11.329  21.952   4.359
71172W        W37581  12.554  38.646   0.907
71173W        W37582  29.960   5.413   0.461
71174W        W37583  31.876  32.846   1.685
71175W        W37584  40.966   0.803  13.862
71176W        W37585  10.156  21.209   4.499
71177W        W37586   4.331  41.085   0.063
71178W        W37587   2.689  43.381  14.385
71179W        W37588  42.831  37.343   2.413
71180W        W37589  15.247  33.901  12.421
71181W        W37590  12.231  43.837   5.526
71182W        W37591   0.998  34.577  10.063
71183W        W37592  32.102  34.566   2.762
71184W        W37593   9.729  44.453  14.588
71185W        W37594  35.459  42.523   4.778
71186W        W37595   4.470  13.621  13.628
71187W        W37596  27.591   5.238  10.576
71188W        W37597   7.985  43.809  14.958
71189W        W37598   9.634  30.111   4.153
71190W        W37599  12.527  31.019   0.707
71191W        W37600  15.778  24.028   0.284
71192W        W37601  42.469  28.225   3.912
71193W        W37602  36.423  15.357   2.814
71194W        W37603  19.864  42.382  13.335
71195W        W37604  33.119  31.151   2.741
71196W        W37605   8.467  23.620  13.988
71197W        W37606  40.468  26.221  13.890
71198W        W37607  25.358   9.679   0.447
71199W        W37608  33.366  15.185   2.959
71200W        W37609  42.615   0.904   1.743
71201W        W37610   1.959   8.974  12.656
71202W        W37611   6.411  44.950   0.235
71203W        W37612  28.424  26.637  14.783
71204W        W37613  15.130   0.014   3.997
71205W        W37614   0.737  18.725   2.657
71206W        W37615  34.548   0.486   3.752
71207W        W37616   2.667  25.527   0.023
71208W        W37617  14.708   7.946   2.126
71209W        W37618  26.104  31.613   0.944
71210W        W37619  34.583  38.885  14.402
71211W        W37620   0.823   6.420   1.252
71212W        W37621   0.119  40.264   5.150
71213W        W37622  34.040  25.979   1.389
71214W        W37623  26.168  25.073  13.636
71215W        W37624  39.850   4.845  13.115
71216W        W37625   2.158  41.310   3.156
71217W        W37626  40.964  36.534   1.160
71218W        W37627   7.845   0.990   0.939
71219W        W37628   7.256  13.353  13.009
71220W        W37629  29.050  21.657  14.369
71221W        W37630  11.983  29.381   2.355
71222W        W37631  37.074  40.416   2.823
71223W        W37632   9.147  43.425   2.722
71224W        W37633  27.884  19.575   3.180
71225W        W37634  10.969  27.745  13.291
71226W        W37635  14.610  15.186   4.787
71227W        W37636   7.756  13.057   2.329
71228W        W37637  25.026  37.313   2.645
71229W        W37638   7.964  34.588   1.734
71230W        W37639  40.494  25.509  11.757
71231W        W37640   6.836   4.861  10.519
71232W        W37641  34.622  10.239   1.687
71233W        W37642  15.925   5.776   5.145
71234W        W37643   6.674  22.668   9.963
71235W        W37644  35.510   5.676   2.858
71236W        W37645  12.106  23.033  11.153
71237W        W37646  31.435  13.648   1.311
71238W        W37647   5.268   2.285   0.922
71239W        W37648  35.462  39.523  11.739
71240W        W37649   4.797  41.397   1.907
71241W        W37650  18.295  11.744   2.324
71242W        W37651  44.682  38.512  10.762
71243W        W37652   2.831  44.425  10.769
71244W        W37653  19.281   3.869   4.842
71245W        W37654   4.937   6.299   0.453
71246W        W37655  10.237  16.445  12.936
71247W        W37656   7.475   1.709   1.624
71248W        W37657  40.980  17.899  11.971
71249W        W37658  39.937  44.538  11.571
71250W        W37659  27.705  12.306  12.857
71251W        W37660  34.816  13.594  14.994
71252W        W37661  42.160   1.675  14.876
71253W        W37662  32.890  18.650   3.674
71254W        W37663  41.774  39.355   3.099
71255W        W37664   2.035  20.583  13.815
71256W        W37665  24.691  14.737  12.536
71257W        W37666  19.513  10.615  11.540
71258W        W37667  10.191   8.871  11.308
71259W        W37668  25.632   2.937  10.760
71260W        W37669  44.568  36.940   1.177
71261W        W37670  32.853   7.128  12.813
71262W        W37671  26.591  33.869  12.973
71263W        W37672  44.836   8.896  10.337
71264W        W37673  43.309   8.154   4.092
71265W        W37674  27.347  34.094  14.297
71266W        W37675  11.852  21.179   2.138
71267W        W37676   7.223  28.510  10.645
71268W        W37677   6.869   8.683  12.823
71269W        W37678   0.321  33.794   1.703
71270W        W37679  40.434  40.940  13.487
71271W        W37680  18.615  34.358   3.805
71272W        W37681  35.889  16.171   1.281
71273W        W37682  16.883   6.228   1.931
71274W        W37683   6.468  37.571  10.297
71275W        W37684  28.900  43.568   0.056
71276W        W37685  31.591  32.714  10.657
71277W        W37686  10.049  26.518  14.172
71278W        W37687  22.036  43.945   3.633
71279W        W37688  38.415  40.696   0.052
71280W        W37689   5.903  12.079  13.432
71281W        W37690  38.898  20.666  12.288
71282W        W37691  12.731   7.650   3.242
71283W        W37692  17.209  16.602   3.345
71284W        W37693  29.306  30.052  11.964
71285W        W37694  40.439  21.732  10.476
71286W        W37695  44.208  20.272  13.051
71287W        W37696  25.696  36.030   0.632
71288W        W37697  24.508  38.064   1.689
71289W        W37698  32.559  38.210   2.174
71290W        W37699  24.273  33.824   0.321
71291W        W37700   4.645  23.983  10.446
71292W        W37701  43.472  40.362   4.595
71293W        W37702   5.721  25.687   1.405
71294W        W37703  42.804  11.341  10.285
71295W        W37704  42.478  13.226   1.787
71296W        W37705  37.396   5.879   0.723
71297W        W37706   0.534  18.802   1.017
71298W        W37707  21.484   7.732  14.552
71299W        W37708  41.303  33.441  10.676
71300W        W37709   4.345  15.008   0.247
71301W        W37710  10.692  30.943   4.537
71302W        W37711  10.478   2.312  12.025
71303W        W37712  24.549  10.407   3.797
71304W        W37713  43.742   0.491  14.781
71305W        W37714  12.109  11.310   0.273
71306W        W37715  22.539  14.825  12.194
71307W        W37716  22.304   6.252   1.807
71308W        W37717  12.286  44.045   1.745
71309W        W37718  43.934   6.163  13.364
71310W        W37719  18.259  30.455  12.123
71311W        W37720   8.294  33.894   2.806
71312W        W37721  39.158  22.197   2.648
71313W        W37722  14.780  33.594   1.289
71314W        W37723  15.400  39.074   5.477
71315W        W37724  21.010   3.395  11.086
71316W        W37725  25.662   5.500  14.408
71317W        W37726  21.754   2.369  10.779
71318W        W37727  15.662   9.170  12.806
71319W        W37728  27.371  42.414  11.681
71320W        W37729  24.562  10.125   4.831
71321W        W37730  30.567  20.653  14.927
71322W        W37731  19.147   0.374   1.518
71323W        W37732  10.271  32.886   3.979
71324W        W37733   7.350  10.339  10.481
71325W        W37734  44.265  27.920   0.542
71326W        W37735   6.258  43.526  14.712
71327W        W37736  26.070   5.272  11.164
71328W        W37737  10.200  35.064  14.017
71329W        W37738  24.200  28.975   4.575
71330W        W37739   6.060  29.322   2.639
71331W        W37740   9.289  17.780   4.461
71332W        W37741   0.293  23.802  13.065
71333W        W37742  42.817  28.539   3.033
71334W        W37743  19.089  38.009   0.021
71335W        W37744  11.811  37.491  11.126
71336W        W37745   9.922  43.187  14.855
71337W        W37746  30.522  26.149  11.495
71338W        W37747   2.259  23.761  14.969
71339W        W37748  25.249  35.461  14.961
71340W        W37749   7.018   0.434  10.349
71341W        W37750   0.573   0.433  14.232
71342W        W37751  23.170  23.196  11.728
71343W        W37752  35.084   1.725   0.331
71344W        W37753  30.642  44.026  12.919
71345W        W37754   9.229  40.950  11.312
71346W        W37755   3.232  25.803   3.892
71347W        W37756  33.160  28.002   0.949
71348W        W37757  21.222  44.954  12.373
71349W        W37758  14.764  14.612   3.083
71350W        W37759  25.587  25.832   0.664
71351W        W37760  39.800  25.631   3.190
71352W        W37761  26.773  42.910  11.180
71353W        W37762  30.819  18.139   1.639
71354W        W37763  24.075  13.139  14.568
71355W        W37764  14.041  10.177  11.076
71356W        W37765  28.925  22.959  10.908
71357W        W37766  39.315  33.514  11.755
71358W        W37767  12.753   0.740  12.035
71359W        W37768  44.906  26.207   3.768
71360ION    NA+37769   3.392  28.828   4.145
71361ION    NA+37770   7.910  23.550   4.372
71362ION    NA+37771  16.539  31.390  12.951
71363ION    NA+37772  38.294  28.250   1.711
71364ION    NA+37773  10.174  18.697  11.934
71365ION    NA+37774  19.131  15.864   4.260
71366ION    NA+37775  37.441  16.756   9.824
71367ION    NA+37776  22.794  32.569   0.389
71368ION    NA+37777  24.521   4.221  14.699
71369ION    NA+37778  42.033  42.121   4.117
71370ION    NA+37779   1.053  26.036  13.551
71371ION    NA+37780  38.966  22.957   3.415
71372ION    NA+37781  36.825  11.430  10.698
71373ION    NA+37782  22.456  23.446  10.585
71374ION    NA+37783  27.896  10.778   5.378
71375ION    NA+37784  13.459  11.989   2.398
71376ION    NA+37785   1.591  13.355  12.209
71377ION    NA+37786  28.287  22.454  11.381
71378ION    NA+37787  33.537  38.276  11.100
71379ION    NA+37788  21.884  43.477   0.556
71380ION    NA+37789  38.023  43.795  13.507
71381ION    NA+37790  35.188  33.171  12.117
71382ION    NA+37791  21.595  11.703   9.839
71383ION    NA+37792  30.988  37.844  14.013
71384ION    NA+37793  21.909   2.673   4.471
71385ION    NA+37794  34.413  17.408   4.364
71386ION    NA+37795  18.037  18.182  14.502
71387ION    NA+37796  28.450  38.550   4.139
71388ION    NA+37797  33.910  32.062   1.952
71389ION    NA+37798  20.982  24.197   1.429
71390ION    NA+37799  15.084  15.600   1.621
71391ION    NA+37800  26.122   5.948  14.061
71392ION    NA+37801  34.852  33.791   1.684
71393ION    NA+37802  12.295  25.470  14.324
71394ION    NA+37803  28.668   5.500   1.710
71395ION    NA+37804   8.413  19.519   3.680
71396ION    NA+37805  32.429   4.126  14.821
71397ION    NA+37806  19.717  34.972  12.450
71398ION    NA+37807  28.496  22.679   4.089
71399ION    NA+37808  44.842  14.584  12.040
71400ION    NA+37809  14.719  25.227   3.266
71401ION    NA+37810   6.914   4.939   1.414
71402ION    NA+37811  20.521  13.346  14.825
71403ION    NA+37812  33.224   4.533  13.599
71404ION    NA+37813  19.233   4.473   3.521
71405ION    NA+37814  20.025  32.939  12.102
71406ION    NA+37815  27.161  25.734   3.614
71407ION    NA+37816  28.957  33.897   1.596
71408ION    NA+37817   6.880  18.856  12.966
71409ION    NA+37818  18.339  23.610  12.555
71410ION    NA+37819   2.500   9.187  13.394
71411ION    NA+37820   8.107   6.214  12.952
71412ION    NA+37821  32.863  15.721  13.088
71413ION    NA+37822   2.685  25.665  10.807
71414ION    NA+37823  24.120   9.087  13.151
71415ION    NA+37824  12.481  43.892  14.964
71416ION    NA+37825  18.726   1.677   4.130
71417ION    NA+37826   0.859  30.323  12.715
71418ION    NA+37827   2.304  22.284   4.200
71419ION    NA+37828  25.002   3.374   2.932
71420ION    NA+37829  41.264  17.248  14.303
71421ION    NA+37830  15.235  22.886   1.401
71422ION    NA+37831  38.036   8.634  11.159
71423ION    NA+37832  36.525  11.032  14.639
71424ION    NA+37833  23.472  40.311  10.862
71425ION    NA+37834  24.188  15.458   4.319
71426ION    NA+37835  18.673  28.517   1.993
71427ION    NA+37836   0.473  19.816   0.160
71428ION    NA+37837  12.220  19.943   4.543
71429ION    NA+37838  11.175  22.425   1.510
71430ION    NA+37839   9.575  42.947   1.652
71431ION    NA+37840  44.049   7.538   4.205
71432ION    NA+37841  11.554   6.733  13.994
71433ION    NA+37842  34.342  17.136   1.633
71434ION    NA+37843   1.099  30.372   4.621
71435ION    NA+37844  14.536  35.520  10.332
71436ION    NA+37845  22.770  14.755  13.446
71437ION    NA+37846   7.111  29.217  13.101
71438ION    NA+37847  17.934  22.992   0.726
71439ION    NA+37848   7.138  41.066  14.882
71440ION    NA+37849   5.171   5.216  12.475
71441ION    NA+37850  19.398  42.815   2.615
71442ION    NA+37851  20.465  27.612  14.954
71443ION    NA+37852  36.769  21.783  13.299
71444ION    NA+37853   2.671   8.207  13.557
71445ION    NA+37854  13.893   3.883  12.983
71446ION    NA+37855  10.106  29.763   3.088
71447ION    NA+37856  13.080  44.170  12.990
71448ION    NA+37857   8.964  35.727   2.838
71449ION    NA+37858  44.574   2.415   1.433
71450ION    NA+37859   6.278  39.906   3.401
71451ION    NA+37860  11.022  20.714   1.907
71452ION    NA+37861  43.555  35.912  14.494
71453ION    NA+37862   5.699   9.315  13.526
71454ION    NA+37863  27.393   2.002  12.731
71455ION    NA+37864  19.611  41.873  11.671
71456ION    NA+37865  31.650  24.744   0.379
71457ION    NA+37866  20.752  15.918   4.773
71458ION    NA+37867  27.392  39.172  12.309
71459ION    NA+37868  23.844  40.025  12.745
71460ION    NA+37869  17.741   4.861   4.430
71461ION    NA+37870  13.154  25.729  13.883
71462ION    NA+37871  14.270  28.108   4.005
71463ION    NA+37872  20.208   3.383  13.939
71464ION    NA+37873  28.640  22.317   3.135
71465ION    NA+37874  37.927  19.294   0.074
71466ION    NA+37875  20.537  27.979   1.422
71467ION    NA+37876  20.914  19.554   1.349
71468ION    NA+37877   3.295  24.742   1.361
71469ION    NA+37878   3.468  37.468  10.405
71470ION    NA+37879   5.368  27.432  10.526
71471ION    NA+37880   0.753  20.501   3.211
71472ION    NA+37881  24.340   4.367   1.477
71473ION    NA+37882  22.921   0.545   4.124
71474ION    NA+37883   0.210  13.134  14.376
71475ION    NA+37884   2.188  23.091   1.740
71476ION    NA+37885  39.078  11.202  12.772
71477ION    NA+37886  39.090  17.326   3.260
71478ION    NA+37887  27.927  11.529   9.981
71479ION    NA+37888  15.077  38.268   4.899
71480ION    NA+37889  35.130   2.287   2.213
71481ION    NA+37890  22.571  22.130   2.435
71482ION    NA+37891  22.231  42.059   4.883
71483ION    NA+37892  21.182  34.089   0.477
71484ION    NA+37893  34.779  35.044   4.323
71485ION    NA+37894  41.289   5.913  14.388
71486ION    NA+37895  14.398  18.822   3.987
71487ION    NA+37896  33.272  22.656   3.858
71488ION    NA+37897  26.479  14.968  13.940
71489ION    NA+37898  37.845  33.405  12.635
71490ION    NA+37899  14.206  11.553   1.014
71491ION    NA+37900  12.631  29.724  12.395
71492ION    NA+37901  33.304   5.242  13.260
71493ION    NA+37902  40.239  41.042  14.353
71494ION    NA+37903  26.524  17.492   3.302
71495ION    NA+37904  15.453  16.519  11.503
71496ION    NA+37905  27.336  16.624  12.220
71497ION    NA+37906  13.843  31.252  10.728
71498ION    NA+37907  15.720   4.259  11.667
71499ION    NA+37908  18.811  33.165  11.185
71500ION    NA+37909  13.016  25.282   3.563
71501ION    NA+37910  25.928  38.497   1.378
71502ION    NA+37911  22.575  29.131  13.415
71503ION    NA+37912   8.760   3.527   4.690
71504ION    NA+37913  39.277  34.406   2.957
71505ION    NA+37914  36.846  21.988   1.672
71506ION    NA+37915  28.375  21.512  13.465
71507ION    NA+37916  11.426  44.939   3.386
71508ION    NA+37917  14.688  12.798  11.602
71509ION    NA+37918  11.919  26.435   3.692
71510ION    NA+37919  28.023  14.204   3.316
71511ION    NA+37920  40.832  14.544  10.896
71512ION    NA+37921   5.299   6.668  13.472
71513ION    NA+37922  38.905  19.090  13.615
71514ION    NA+37923   5.469  35.456  12.387
71515ION    NA+37924   9.947   2.482  13.004
71516ION    NA+37925   6.800  43.634  12.694
71517ION    NA+37926  15.726  24.226  14.763
71518ION    NA+37927  20.787  29.546   1.244
71519ION    NA+37928  16.263   7.400  10.666
71520ION    NA+37929  41.403  27.754  11.882
71521ION    NA+37930  18.093   0.441   3.254
71522ION    NA+37931  13.639  20.993  12.722
71523ION    NA+37932  27.034  19.853  11.630
71524ION    NA+37933  24.948   6.760  13.500
71525ION    NA+37934   6.160  40.864  12.704
71526ION    NA+37935   9.659  25.222   0.670
71527ION    NA+37936   8.843  15.772   0.475
71528ION    NA+37937  44.070   9.246   3.518
71529ION    NA+37938  32.963   6.607   4.552
71530ION    NA+37939  37.950  11.983   3.732
71531ION    NA+37940   1.692  33.861  11.685
71532ION    NA+37941  17.156  25.533   3.511
71533ION    NA+37942  23.778  10.209  12.333
71534ION    NA+37943   9.715  31.722  13.894
71535ION    NA+37944  10.288   6.752   1.461
71536ION    NA+37945  22.516  42.897  11.527
71537ION    NA+37946  24.484   2.451  12.423
71538ION    NA+37947  41.481  38.958  10.755
71539ION    NA+37948  12.780  14.970  13.476
71540ION    NA+37949   8.739  42.186   0.015
71541ION    NA+37950  36.077  42.555   2.617
71542ION    NA+37951  12.134  28.123  14.121
71543ION    NA+37952  29.296  14.773  10.888
71544ION    NA+37953  37.514  11.288   1.885
71545ION    NA+37954  40.050   6.678  12.875
71546ION    NA+37955   3.348   6.938  11.069
71547ION    NA+37956  19.088  23.774   1.384
71548ION    NA+37957  43.801  17.273  12.052
71549ION    NA+37958  44.898   7.643   2.393
71550ION    NA+37959  28.592  20.099   3.585
71551ION    NA+37960  11.370  43.612  14.732
71552ION    NA+37961  17.568   2.001   4.314
71553ION    NA+37962  30.178  18.562   1.315
71554ION    NA+37963  37.023  19.679   3.200
71555ION    NA+37964  34.523  29.509   4.953
71556ION    NA+37965   8.675   5.841  10.702
71557ION    NA+37966  25.656  25.608   4.820
71558ION    NA+37967  10.578  16.908   9.813
71559ION    NA+37968   1.262  42.655  11.866
71560ION    NA+37969  23.064  35.586   1.829
71561ION    NA+37970  40.829   5.763   2.613
71562ION    NA+37971  31.531  18.622  14.015
71563ION    NA+37972  29.184  25.694   2.826
71564ION    NA+37973  37.974  41.569   0.593
71565ION    NA+37974   5.648  36.095   3.509
71566ION    NA+37975  34.718  34.202  14.825
71567ION    NA+37976  44.318  20.196  14.074
71568ION    NA+37977   9.821  38.381   4.615
71569ION    NA+37978  33.049  36.526   5.085
71570ION    NA+37979  12.578  10.252  11.206
71571ION    NA+37980  22.499  34.894  14.770
71572ION    NA+37981   4.265  17.866  14.700
71573ION    NA+37982  26.267  18.555  12.425
71574ION    NA+37983  35.474  34.184  14.089
71575ION    NA+37984  29.561   7.143   1.769
71576ION    NA+37985  35.002   1.319  10.220
71577ION    NA+37986  25.379   0.530  13.802
71578ION    NA+37987  42.172  27.775   3.856
71579ION    NA+37988  42.031  21.008  14.761
71580ION    NA+37989  44.598  28.007  11.079
71581ION    NA+37990  34.726  25.190  10.906
71582ION    NA+37991  17.236   3.342   3.749
71583ION    NA+37992   6.411   1.584   0.370
71584ION    NA+37993  41.010  26.710   2.832
71585ION    NA+37994  27.744  40.270   3.212
71586ION    NA+37995  19.818  22.200   3.202
71587ION    NA+37996   0.372  15.590  14.014
71588ION    NA+37997  21.130  40.076   2.900
71589ION    NA+37998  40.685   9.841  11.786
71590ION    NA+37999  42.275  42.609  12.437
71591ION    NA+38000   3.179   8.593   2.932
71592ION    NA+38001  37.199  41.447   0.333
71593ION    NA+38002  43.673  41.501   4.471
71594ION    NA+38003   1.838   0.882   0.230
71595ION    NA+38004  18.558  10.389  12.259
71596ION    NA+38005  42.309   1.439   2.029
71597ION    NA+38006  25.700  38.567   0.407
71598ION    NA+38007  24.273   2.161  14.548
71599ION    NA+38008  38.756  15.983   3.270
71600ION    NA+38009  43.290  37.650   2.148
71601ION    NA+38010  10.406  15.616  13.440
71602ION    NA+38011  40.133  27.954   3.311
71603ION    NA+38012  14.292  19.711   3.541
71604ION    NA+38013  19.192   6.162   1.368
71605ION    NA+38014  34.711  43.629  11.576
71606ION    NA+38015  23.704   5.301  11.145
71607ION    NA+38016  44.659  43.568   1.227
71608ION    NA+38017  22.383  34.740   4.292
71609ION    NA+38018  21.774   8.426   3.051
71610ION    NA+38019  41.767  18.871  12.799
71611ION    NA+38020   7.237  43.683   1.710
71612ION    NA+38021   9.237  14.155   2.685
71613ION    NA+38022  30.610   2.852  14.723
71614ION    NA+38023   2.863   7.409   4.629
71615ION    NA+38024   4.107  37.370   4.786
71616ION    NA+38025  34.133   3.665  11.349
71617ION    NA+38026  27.120  33.873  13.024
71618ION    NA+38027  23.349   2.465  14.821
71619ION    NA+38028   7.671  16.535  12.023
71620ION    NA+38029   7.881  41.327   3.339
71621ION    NA+38030  14.304   2.089   0.354
71622ION    NA+38031  28.810  33.443   0.873
71623ION    NA+38032  41.436  38.863   2.416
71624ION    NA+38033  44.265  15.406  12.092
71625ION    NA+38034  40.658  15.581   2.146
71626ION    NA+38035  32.763  14.134  14.285
71627ION    NA+38036  25.968  17.187  10.956
71628ION    NA+38037   3.795  25.019   2.566
71629ION    NA+38038  24.915   8.099   9.623
71630ION    NA+38039  22.394   2.855   2.309
71631ION    NA+38040  38.866  37.643  13.420
71632ION    NA+38041  18.601  36.932   1.809
71633ION    NA+38042   3.956   3.195  10.306
71634ION    NA+38043  33.945  41.337  10.660
71635ION    NA+38044  22.151  21.985  10.694
71636ION    NA+38045  43.396  15.580   3.860
71637ION    NA+38046  40.174  24.436  14.806
71638ION    NA+38047  40.454   7.406   3.158
71639ION    NA+38048   3.698   1.954   3.279
71640ION    NA+38049   5.762  27.106   3.886
71641ION    NA+38050   1.165   1.086   4.383
71642ION    NA+38051  30.172  12.945   0.523
71643ION    NA+38052   9.761  22.312   3.484
71644ION    NA+38053  20.769  30.901   2.488
71645ION    NA+38054  36.311   9.199   4.737
71646ION    NA+38055  14.833  16.716   3.794
71647ION    NA+38056  40.032  37.471   4.340
71648ION    NA+38057   5.856  14.664   0.389
71649ION    NA+38058   6.159  17.454   3.946
71650ION    NA+38059  10.055   5.963   3.339
71651ION    NA+38060  37.286  25.118  12.781
71652ION    NA+38061   7.172  39.485   2.033
71653ION    NA+38062  24.792  40.976  12.529
71654ION    NA+38063   9.804  24.556   4.841
71655ION    NA+38064  18.731   9.960   3.186
71656ION    NA+38065  18.781  42.729  13.507
71657ION    NA+38066   7.689   8.916  12.954
71658ION    NA+38067   3.344  17.159   5.045
71659ION    NA+38068  13.005  23.477   3.690
71660ION    NA+38069  26.246  28.305  11.143
71661ION    NA+38070   3.943  10.036   3.621
71662ION    NA+38071  31.164   5.412   1.361
71663ION    NA+38072   1.551  42.373  13.088
71664ION    NA+38073   3.718   9.020   3.676
71665ION    NA+38074  26.125   3.023   4.317
71666ION    NA+38075  13.508  35.766   3.605
71667ION    NA+38076  24.938   9.666   9.565
71668ION    NA+38077   1.758  32.865  12.524
71669ION    NA+38078  16.645   4.824  14.417
71670ION    NA+38079  12.780   6.385   4.333
71671ION    NA+38080  35.962  10.987  13.039
71672ION    NA+38081  10.119  23.579  14.145
71673ION    NA+38082  11.317  44.174  14.139
71674ION    NA+38083  37.122  35.293  10.757
71675ION    NA+38084   2.220  33.247  14.656
71676ION    NA+38085   6.331  36.880   2.650
71677ION    NA+38086   3.246  19.044  13.326
71678ION    NA+38087  14.624  12.366   0.347
71679ION    NA+38088  14.786  21.484  13.220
71680ION    NA+38089  18.421  21.176   2.159
71681ION    NA+38090   3.415  20.035   0.416
71682ION    NA+38091  31.440   4.467  11.525
71683ION    NA+38092  25.875  41.816   1.508
71684ION    NA+38093  28.228  12.849   0.521
71685ION    NA+38094  35.508  43.766  14.511
71686ION    NA+38095  17.311  31.292  14.305
71687ION    NA+38096  37.701  24.892  13.662
71688ION    NA+38097   5.005  23.197  10.286
71689ION    NA+38098   0.364   0.780   2.551
71690ION    NA+38099  43.208  13.676   3.844
71691ION    NA+38100   6.340  22.951  14.040
71692ION    NA+38101  38.372   0.372  11.539
71693ION    NA+38102  21.979  21.499   3.311
71694ION    NA+38103  32.848  18.173  13.797
71695ION    NA+38104  22.048  19.488   0.727
71696ION    NA+38105   0.920  24.963  11.106
71697ION    NA+38106   3.227  27.203  14.398
71698ION    NA+38107  39.248  22.837   0.145
71699ION    NA+38108  34.643   8.405  13.515
71700ION    NA+38109  40.170   0.499   0.499
71701ION    NA+38110  31.101  16.119  12.903
71702ION    NA+38111  37.989  30.912  10.812
71703ION    NA+38112  34.515  15.850  12.839
71704ION    NA+38113  36.436  33.485   3.185
71705ION    NA+38114  31.678  10.678   4.961
71706ION    NA+38115  44.886  35.815   4.246
71707ION    NA+38116  26.428  10.432   2.809
71708ION    NA+38117  42.425  25.198   1.509
71709ION    NA+38118  11.260  31.676   2.201
71710ION    NA+38119  38.093   6.156   2.746
71711ION    NA+38120  29.597  40.939  14.845
71712ION    NA+38121   4.165   4.979   1.292
71713ION    NA+38122  15.192  44.751  12.953
71714ION    NA+38123  18.225  42.866  14.328
71715ION    NA+38124  20.024  14.974  12.644
71716ION    NA+38125  44.789   6.761  10.731
71717ION    NA+38126  13.092  11.243   0.077
71718ION    NA+38127  10.391   7.162  13.142
71719ION    NA+38128  37.741  38.119  14.617
71720ION    NA+38129  18.689  24.256  11.601
71721ION    NA+38130  29.696  35.653   1.448
71722ION    NA+38131   1.704  43.425  10.732
71723ION    NA+38132  35.608  13.818  11.627
71724ION    NA+38133  14.432  29.856  12.004
71725ION    NA+38134  15.558   6.437   2.559
71726ION    NA+38135  18.298  23.734   2.266
71727ION    NA+38136  22.586   1.703   3.606
71728ION    NA+38137  15.062   8.986   3.299
71729ION    NA+38138  27.018   3.257  13.415
71730ION    NA+38139   0.811  17.634   3.223
71731ION    NA+38140  20.580   2.271  13.471
71732ION    NA+38141  39.377  38.555  10.910
71733ION    NA+38142   9.201  38.983  10.557
71734ION    NA+38143  31.748  33.209  13.274
71735ION    NA+38144   5.857  24.408   1.673
71736ION    NA+38145   5.879  21.478  14.857
71737ION    NA+38146  19.172   8.347  10.603
71738ION    NA+38147  37.307  42.819  11.643
71739ION    NA+38148  17.272  35.108  10.986
71740ION    NA+38149  36.971  23.252   0.345
71741ION    NA+38150  19.470  15.690  12.675
71742ION    NA+38151  22.528  42.589  13.091
71743ION    NA+38152  15.666  32.710   1.763
71744ION    NA+38153   8.913   8.261   4.473
71745ION    NA+38154  20.635  10.427  12.755
71746ION    NA+38155  25.238  16.459  12.134
71747ION    NA+38156   8.406  23.520  11.603
71748ION    NA+38157   3.207  44.976   1.162
71749ION    NA+38158  43.052  25.951   0.297
71750ION    NA+38159  27.034  22.464   2.608
71751ION    NA+38160  31.544  44.834  12.308
71752ION    NA+38161  34.586   9.224  12.945
71753ION    NA+38162  15.596  31.487   4.245
71754ION    NA+38163  44.605  42.013  11.161
71755ION    NA+38164  31.884  34.557   1.533
71756ION    NA+38165   2.894  21.706   3.534
71757ION    NA+38166   6.538  25.659  10.447
71758ION    NA+38167   1.015  18.600   3.063
71759ION    NA+38168  30.263  22.269   4.347
71760ION    NA+38169  42.715   3.677  13.966
71761ION    NA+38170  23.925  37.428   1.052
71762ION    NA+38171  35.961  38.417   3.135
71763ION    NA+38172  41.924   2.749  12.943
71764ION    NA+38173   1.805  44.717  13.028
71765ION    NA+38174   9.914  21.679  10.780
71766ION    NA+38175  23.764  23.319  12.291
71767ION    NA+38176  30.462  23.787   4.552
71768ION    NA+38177  29.496   9.323   1.954
71769ION    NA+38178  17.854  38.245   3.952
71770ION    NA+38179   6.393  26.844  13.419
71771ION    NA+38180  34.469  12.563  11.511
71772ION    NA+38181  32.733  26.859   0.231
71773ION    NA+38182  43.170  32.609   1.368
71774ION    NA+38183  25.223   8.128   5.544
71775ION    NA+38184  42.248  34.314  10.692
71776ION    NA+38185  32.840  37.376   3.210
71777ION    NA+38186   8.921   0.291  13.986
71778ION    NA+38187  32.479  13.916   0.135
71779ION    NA+38188   8.415   5.465  12.364
71780ION    NA+38189  38.408  39.501  11.611
71781ION    NA+38190  32.484   7.725  10.858
71782ION    NA+38191  10.346  24.424  13.579
71783ION    NA+38192  31.131  44.005   1.481
71784ION    NA+38193  10.749  24.973  14.866
71785ION    NA+38194  18.774  30.752   1.125
71786ION    NA+38195  17.976  30.350   4.213
71787ION    NA+38196  28.882  28.774   1.134
71788ION    NA+38197   9.691  32.039   0.497
71789ION    NA+38198  38.253  41.201  11.691
71790ION    NA+38199  17.128  23.098  13.319
71791ION    NA+38200  40.053  24.158   1.239
71792ION    NA+38201   2.509   2.889  14.754
71793ION    NA+38202   8.395  36.305   0.928
71794ION    NA+38203  10.871   8.271  11.070
71795ION    NA+38204  24.903  15.460  14.353
71796ION    NA+38205  43.528  28.113  13.767
71797ION    NA+38206   0.587  27.594  13.127
71798ION    NA+38207   8.597  43.627   1.816
71799ION    NA+38208  37.096  38.529  13.972
71800ION    NA+38209   4.106  28.616  13.778
71801ION    NA+38210  44.115  18.819  13.231
71802ION    NA+38211   4.325  23.022   3.351
71803ION    NA+38212  23.754  19.105   4.537
71804ION    NA+38213  21.938  25.496   1.855
71805ION    NA+38214  38.901  34.667   3.738
71806ION    NA+38215   8.666  17.762  13.495
71807ION    NA+38216   9.997  25.956  12.618
71808ION    NA+38217  43.501  37.152   2.852
71809ION    NA+38218  35.979  18.537  13.033
71810ION    NA+38219  43.438  23.629  13.113
71811ION    NA+38220  33.769  25.584   0.642
71812ION    NA+38221  25.741  25.542   1.271
71813ION    NA+38222  19.728  24.129   2.387
71814ION    NA+38223  24.363  10.503   0.999
71815ION    NA+38224  29.110  12.834  12.383
71816ION    NA+38225  12.981  21.821  11.826
71817ION    NA+38226  34.579  25.697  13.155
71818ION    NA+38227  39.011   9.980   5.381
71819ION    NA+38228  41.240  25.224  10.802
71820ION    NA+38229  23.200   2.048   1.875
71821ION    NA+38230  28.975   5.278   3.074
71822ION    NA+38231  43.279  25.771  12.061
71823ION    NA+38232   8.791  34.891  14.857
71824ION    NA+38233  40.316  38.854  11.122
71825ION    NA+38234  41.899  33.696   3.660
71826ION    NA+38235   0.625  40.433   5.196
71827ION    NA+38236  27.847   2.347  13.455
71828ION    NA+38237   5.749  24.244  13.736
71829ION    NA+38238   3.854  35.340  14.285
71830ION    NA+38239  43.276  12.108  12.911
71831ION    NA+38240  25.077   7.396  12.064
71832ION    NA+38241  41.071  13.488  14.247
71833ION    NA+38242  14.114   6.432   2.554
71834ION    NA+38243  16.749  14.295   2.938
71835ION    NA+38244   3.471  24.338   4.632
71836ION    NA+38245  22.141  41.237   0.361
71837ION    NA+38246  41.817  30.437   4.184
71838ION    NA+38247  26.259  11.776  13.535
71839ION    NA+38248  29.865   0.853  10.301
71840ION    NA+38249   2.772   0.423  11.073
71841ION    NA+38250  26.980  30.482  12.996
71842ION    NA+38251   0.616  43.585  10.796
71843ION    NA+38252  40.418  33.576   0.947
71844ION    NA+38253  37.317   9.338   2.221
71845ION    NA+38254  18.791  42.669   1.323
71846ION    NA+38255  41.084  30.408   0.059
71847ION    NA+38256  41.312  15.621  13.854
71848ION    NA+38257  14.148  14.920   3.919
71849ION    NA+38258  21.988  37.016  14.488
71850ION    NA+38259   9.795  28.006  13.248
71851ION    NA+38260  26.043   5.929   3.353
71852ION    NA+38261  28.482   8.548   1.082
71853ION    NA+38262  29.635  12.961  11.481
71854ION    NA+38263  37.324  37.264  14.308
71855ION    NA+38264  33.658   6.638  12.497
71856ION    NA+38265  38.325  18.800   3.044
71857ION    NA+38266   4.219  13.198  11.374
71858ION    NA+38267   7.907  43.011   4.631
71859ION    NA+38268  21.759  29.530  12.140
71860ION    NA+38269   4.883  40.090   2.848
71861ION    NA+38270  27.037   8.147  14.530
71862ION    NA+38271  28.769  15.394  12.818
71863ION    NA+38272  10.196   0.309   4.500
71864ION    NA+38273  30.688  44.398  14.858
71865ION    NA+38274  39.117   8.664  12.017
71866ION    NA+38275  17.166  23.672   0.656
71867ION    NA+38276  11.314  10.759   2.321
71868ION    NA+38277  33.545  28.439  11.079
71869ION    NA+38278   5.233   5.475   4.627
71870ION    NA+38279  32.608  19.290  14.461
71871ION    NA+38280  19.270   3.855   4.306
71872ION    NA+38281  27.723   6.070  12.294
71873ION    NA+38282  16.850  34.525   4.547
71874ION    NA+38283  35.845  16.594   0.310
71875ION    NA+38284   5.415   2.391  12.588
71876ION    NA+38285   9.848  23.203   1.717
71877ION    NA+38286  23.035  41.747   0.501
71878ION    NA+38287  32.126   4.974  10.665
71879ION    NA+38288   1.485  10.195   2.848
71880ION    NA+38289  14.130  37.265   2.437
71881ION    NA+38290  11.420   8.295  11.929
71882ION    NA+38291  31.077  15.523   2.635
71883ION    NA+38292  26.064  23.063   1.874
71884ION    NA+38293  27.640  26.156   5.107
71885ION    NA+38294  31.632   6.171  10.654
71886ION    NA+38295  35.709  28.661   3.424
71887ION    NA+38296  14.108  32.396   2.788
71888ION    NA+38297  15.690   4.033   4.638
71889ION    NA+38298   4.293  38.083  13.107
71890ION    NA+38299  36.765  30.159   2.603
71891ION    NA+38300  34.242  43.046  12.240
71892ION    NA+38301  31.453  44.340  13.764
71893ION    NA+38302  35.982  13.049  13.229
71894ION    NA+38303  21.355  35.930   3.468
71895ION    NA+38304  33.481   0.794   3.035
71896ION    NA+38305  32.666  33.157   1.344
71897ION    NA+38306  17.392  33.004  12.477
71898ION    NA+38307  18.617  41.951  14.429
71899ION    NA+38308   5.273  20.319   0.932
71900ION    NA+38309  17.196  20.780  12.601
71901ION    NA+38310  15.147  12.400  13.526
71902ION    NA+38311  39.884  12.328   0.351
71903ION    NA+38312  32.368  39.520  10.683
71904ION    NA+38313  17.139   8.608   9.675
71905ION    NA+38314  12.496   6.128   3.410
71906ION    NA+38315  42.827  26.289   2.158
71907ION    NA+38316  28.801  20.246  13.292
71908ION    NA+38317   7.395  26.110   2.293
71909ION    NA+38318  20.679  30.058  11.605
71910ION    NA+38319  36.315   3.861  14.462
71911ION    NA+38320  15.366  44.916  14.802
71912ION    NA+38321  40.997  37.197  14.277
71913ION    NA+38322  18.291  29.963   1.085
71914ION    NA+38323  42.386  29.206   0.139
71915ION    NA+38324  11.607  42.755   9.596
71916ION    NA+38325  24.073  26.545  10.593
71917ION    NA+38326  41.725  28.621   2.999
71918ION    NA+38327   6.580  27.743  12.831
71919ION    NA+38328  44.411  39.385  13.124
71920ION    NA+38329  25.652  27.450   4.809
71921ION    NA+38330  33.647  23.166  14.075
71922ION    NA+38331  13.295  41.358   3.235
71923ION    NA+38332  23.097  16.768  12.083
71924ION    NA+38333  44.521  44.102   2.228
71925ION    NA+38334  40.802  21.040  14.181
71926ION    NA+38335   1.564  18.342  10.753
71927ION    NA+38336  13.125   5.418   3.725
71928ION    NA+38337   2.749  33.602  13.843
71929ION    NA+38338  22.101   6.521  13.148
71930ION    NA+38339  43.441  27.591   2.993
71931ION    NA+38340  10.385  13.048   0.145
71932ION    NA+38341  11.624   5.686   4.515
71933ION    NA+38342  38.510  44.470  11.130
71934ION    NA+38343  31.479  40.864   4.521
71935ION    NA+38344  37.342  29.877   1.829
71936ION    NA+38345  34.650   8.593   4.592
71937ION    NA+38346  18.225   8.774  11.619
71938ION    NA+38347  38.343  22.601  10.524
71939ION    NA+38348   6.786  28.879   3.440
71940ION    NA+38349  41.379  24.353  14.259
71941ION    NA+38350  32.709  13.321   0.905
71942ION    NA+38351  38.388  15.565  12.889
71943ION    NA+38352  15.302  41.753   4.603
71944ION    NA+38353  33.887   1.087  14.961
71945ION    NA+38354  34.869  37.000  11.190
71946ION    NA+38355  19.096  34.432  13.049
71947ION    NA+38356  36.383  14.196  14.422
71948ION    NA+38357  35.400  42.426  12.402
71949ION    NA+38358  25.551  24.761   3.551
71950ION    NA+38359  33.908   8.583  12.163
71951ION    NA+38360   2.510  39.847   0.875
71952ION    NA+38361  25.694  38.299   2.220
71953ION    NA+38362  42.023  15.240   1.651
71954ION    NA+38363  36.814  33.758  13.939
71955ION    NA+38364  11.780  12.580   4.420
71956ION    NA+38365  25.661   8.017  10.284
71957ION    NA+38366   6.768  31.985   2.907
71958ION    NA+38367  18.413  27.292  11.335
71959ION    NA+38368  30.626  19.635  14.527
71960ION    NA+38369  34.865  36.578   0.484
71961ION    NA+38370   0.485  17.206  13.838
71962ION    NA+38371  44.607  39.792  11.638
71963ION    NA+38372  18.995  14.999   3.747
71964ION    NA+38373  23.695  34.286  11.094
71965ION    NA+38374  37.716  18.001   2.829
71966ION    NA+38375  35.215  10.868  14.017
71967ION    NA+38376  34.131  17.472  11.572
71968ION    NA+38377   8.835  14.872   5.093
71969ION    NA+38378  30.931  34.406  13.501
71970ION    NA+38379   8.078  34.156  10.947
71971ION    NA+38380   7.405  32.525   1.402
71972ION    NA+38381   4.822  24.680  12.589
71973ION    NA+38382  11.148  44.168   1.795
71974ION    NA+38383  40.283  32.833  14.203
71975ION    NA+38384  24.712  21.370   3.013
71976ION    NA+38385  41.087  33.811  14.868
71977ION    NA+38386  25.598  24.057  12.468
71978ION    NA+38387  25.026  20.499  14.304
71979ION    NA+38388  12.116  12.255  10.750
71980ION    NA+38389  23.214   9.053  13.759
71981ION    NA+38390  34.326   5.714   0.792
71982ION    NA+38391  28.637  14.088  14.179
71983ION    NA+38392  32.738  25.669   0.969
71984ION    NA+38393  43.312  34.749  12.984
71985ION    NA+38394  41.599  23.468   0.856
71986ION    NA+38395  17.527   3.385   2.411
71987ION    NA+38396   1.069  12.643  10.580
71988ION    NA+38397  22.686  27.983  12.807
71989ION    NA+38398   2.556  11.276   1.542
71990ION    NA+38399   7.408  36.577  12.917
71991ION    NA+38400  28.879   2.724   3.608
71992ION    NA+38401  27.645  18.219   4.282
71993ION    NA+38402  44.875  42.509   4.405
71994ION    NA+38403   1.213  18.570   4.446
71995ION    NA+38404  11.216   7.388  12.391
71996ION    NA+38405  35.712  14.708   3.767
71997ION    NA+38406  33.215  20.975   2.575
71998ION    NA+38407   6.485  13.678   1.022
71999ION    NA+38408  28.675   1.827  13.880
72000ION    NA+38409   9.104  36.923   2.126
72001ION    NA+38410  36.865  30.157  11.431
72002ION    NA+38411   7.622  11.672  13.492
72003ION    NA+38412   4.571  21.475   4.602
72004ION    NA+38413   7.163  30.744  11.333
72005ION    NA+38414  18.188   1.402   2.270
72006ION    NA+38415   6.437  12.645   0.888
72007ION    NA+38416  10.456  20.932  11.804
72008ION    NA+38417  30.430  14.705  11.839
72009ION    NA+38418  37.755  30.574   0.772
72010ION    NA+38419  27.435   7.126  11.510
72011ION    NA+38420  31.266  15.709  11.614
72012ION    NA+38421   4.911  12.465   0.710
72013ION    NA+38422   8.761  14.820   1.646
72014ION    NA+38423  35.583  44.070  11.906
72015ION    NA+38424  44.562  12.987  11.800
72016ION    NA+38425   6.218  14.828   2.851
72017ION    NA+38426  19.509  21.162   9.575
72018ION    NA+38427   9.673   7.136  12.375
72019ION    NA+38428  37.692  41.918  14.904
72020ION    NA+38429   8.558  14.872   2.528
72021ION    NA+38430  22.208  17.681  11.074
72022ION    NA+38431  40.147   6.969   0.949
72023ION    NA+38432   2.280  27.617   0.611
72024ION    NA+38433  40.486  28.627  14.111
72025ION    NA+38434  34.626  11.415   1.417
72026ION    NA+38435  41.575  44.310   1.274
72027ION    NA+38436   9.074   3.466   0.740
72028ION    NA+38437   2.533  27.201   2.999
72029ION    NA+38438  42.149   8.207  11.053
72030ION    NA+38439  23.174   3.454   3.508
72031ION    NA+38440   6.738  41.560   1.352
72032ION    NA+38441  23.103  20.787   4.550
72033ION    NA+38442  23.408  43.101  13.236
72034ION    NA+38443  16.897  40.404   0.369
72035ION    NA+38444  18.858  35.434   1.923
72036ION    NA+38445  10.989  43.742  10.472
72037ION    NA+38446  28.962  15.187   2.418
72038ION    NA+38447  44.761   4.872  11.459
72039ION    NA+38448  30.683  24.674  14.149
72040ION    NA+38449   9.317  29.312   0.932
72041ION    NA+38450  36.628  24.140  12.614
72042ION    NA+38451  27.132   5.311  14.354
72043ION    NA+38452  29.626  40.027   0.256
72044ION    NA+38453   8.226  40.738   0.412
72045ION    NA+38454  32.892  43.215   4.161
72046ION    NA+38455   8.385  10.183  13.720
72047ION    NA+38456  39.690  31.858  12.202
72048ION    NA+38457  13.747  30.577   2.896
72049ION    NA+38458  11.495  23.253   1.051
72050ION    NA+38459  25.133   5.886   3.824
72051ION    NA+38460  16.758  21.907  14.840
72052ION    NA+38461  41.237  37.955   1.312
72053ION    NA+38462  31.852   6.989   1.072
72054ION    NA+38463   5.944  19.860  13.332
72055ION    NA+38464  23.047  15.855   1.189
72056ION    NA+38465  43.280   3.373   1.778
72057ION    NA+38466  25.691  35.049   3.317
72058ION    NA+38467  39.301  16.172   0.571
72059ION    NA+38468  24.229  39.405   1.983
72060ION    NA+38469  35.975  30.568  13.362
72061ION    NA+38470  32.577  31.835   3.106
72062ION    NA+38471  43.981   6.933   0.797
72063ION    NA+38472  33.304  42.982  14.322
72064ION    NA+38473  35.326   6.392  11.221
72065ION    NA+38474   7.883  12.840  11.961
72066ION    NA+38475  17.074  33.240   0.580
72067ION    NA+38476   6.506   8.922   2.838
72068ION    NA+38477   7.500  43.985  11.943
72069ION    NA+38478  26.741  17.155   0.060
72070ION    NA+38479  30.979  35.465   1.041
72071ION    NA+38480  21.904  25.597  14.072
72072ION    NA+38481  44.133   3.003   0.004
72073ION    NA+38482  36.051  24.366   3.620
72074ION    NA+38483  38.325   0.724   2.754
72075ION    NA+38484   9.369   9.158   0.193
72076ION    NA+38485  37.795  10.191  12.868
72077ION    NA+38486  42.724  23.433   3.805
72078ION    NA+38487   9.056  30.933  14.006
72079ION    NA+38488  19.931  41.129   4.026
72080ION    NA+38489  13.813  18.219   3.628
72081ION    NA+38490  39.669  14.483  10.323
72082ION    NA+38491  30.707  27.695  13.579
72083ION    NA+38492  34.140  27.056  13.985
72084ION    NA+38493   1.645  13.606   1.278
72085ION    NA+38494  15.435  26.195   2.120
72086ION    NA+38495  23.922  29.313  12.890
72087ION    NA+38496  13.256  42.155  11.517
72088ION    NA+38497  38.180  30.885  12.015
72089ION    NA+38498  13.290  29.953   2.420
72090ION    NA+38499   5.157  25.722   0.526
72091ION    NA+38500  42.826   2.203  13.749
72092ION    NA+38501  13.859   7.657  14.904
72093ION    NA+38502  41.862  35.873  14.850
72094ION    NA+38503  27.233  44.315  13.434
72095ION    NA+38504  40.682  11.420   0.891
72096ION    NA+38505  19.711  40.117   4.124
72097ION    NA+38506  33.596  12.118  11.160
72098ION    NA+38507  15.953   4.874   3.654
72099ION    NA+38508  15.185  11.514  10.552
72100ION    NA+38509  33.678  42.845   3.665
72101ION    NA+38510  16.254  43.344  14.170
72102ION    NA+38511  20.085  29.749   4.112
72103ION    NA+38512  34.191  27.771  11.449
72104ION    NA+38513   4.672   4.681   4.126
72105ION    NA+38514  19.068  38.521  14.872
72106ION    NA+38515  14.918  32.964   2.639
72107ION    NA+38516  43.591  43.491  11.659
72108ION    NA+38517  24.975  24.480   4.156
72109ION    NA+38518  13.019  36.960  14.874
72110ION    NA+38519  28.878  37.064   1.831
72111ION    NA+38520  30.025  14.762   0.912
72112ION    NA+38521  43.180  44.151   0.972
72113ION    NA+38522  18.694  36.776  12.733
72114ION    NA+38523   1.702  40.973  11.872
72115ION    NA+38524   6.965  24.189  13.495
72116ION    NA+38525  32.277  20.924   1.284
72117ION    NA+38526  10.176  21.036   4.969
72118ION    NA+38527   4.305  30.854   1.887
72119ION    NA+38528  15.179  28.048   0.445
72120ION    NA+38529  15.182   9.084   1.297
72121ION    NA+38530  34.707  15.841  11.465
72122ION    NA+38531   9.730  27.960   3.880
72123ION    NA+38532  10.588   8.941  13.279
72124ION    NA+38533  33.014  34.086   1.213
72125ION    NA+38534  16.919  36.805  10.609
72126ION    NA+38535  36.086   7.321   1.219
72127ION    NA+38536  20.739  15.556  13.509
72128ION    NA+38537  10.650  34.960   1.426
72129ION    NA+38538  38.168  43.035  10.767
72130ION    NA+38539  19.156  21.714   2.596
72131ION    NA+38540  16.520  22.948   1.653
72132ION    NA+38541  12.636  32.414  10.799
72133ION    NA+38542  44.701  19.657   4.549
72134ION    NA+38543  13.369  25.278  10.278
72135ION    NA+38544  37.195  36.431   2.552
72136ION    NA+38545  21.633  44.980   2.331
72137ION    NA+38546  26.428  41.851   2.340
72138ION    NA+38547   0.380  14.065  10.677
72139ION    NA+38548  10.022  29.731   0.700
72140ION    NA+38549   9.396  31.093   0.794
72141ION    NA+38550   1.756  23.199  14.789
72142ION    NA+38551  41.930  18.473  13.702
72143ION    NA+38552  13.817  10.164  13.843
72144ION    NA+38553  19.844  39.153   1.772
72145ION    NA+38554  29.665  21.442  13.212
72146ION    NA+38555  22.088  40.266  11.335
72147ION    NA+38556  38.871  24.042   0.980
72148ION    NA+38557  22.357  42.249  12.272
72149ION    NA+38558  21.101  42.475   0.770
72150ION    NA+38559   6.305  18.845  14.863
72151ION    NA+38560  13.529  34.475  14.281
72152ION    NA+38561   0.025  42.661  10.777
72153ION    NA+38562   6.042  44.096   0.978
72154ION    NA+38563  38.272  11.694  10.816
72155ION    NA+38564  42.394  30.200   1.257
72156ION    NA+38565  22.246   5.711  12.543
72157ION    NA+38566   0.973   0.535  10.856
72158ION    NA+38567  29.113   6.566  12.693
72159ION    NA+38568  35.547  19.053  14.196
72160ION    NA+38569  33.364   8.827   1.789
72161ION    NA+38570  15.975  41.761   3.658
72162ION    NA+38571  20.674  36.137   1.658
72163ION    NA+38572   0.591   7.955   1.119
72164ION    NA+38573  20.010   3.812  10.784
72165ION    NA+38574  38.840  12.360   0.467
72166ION    NA+38575  11.712  38.864  10.789
72167ION    NA+38576   8.330  28.755   2.666
72168ION    NA+38577  37.835  33.330   1.391
72169ION    NA+38578  37.104   6.687   1.645
72170ION    NA+38579  39.462  25.540  10.834
72171ION    NA+38580  37.501   6.761  14.319
72172ION    NA+38581   7.190  41.331   3.943
72173ION    NA+38582  14.426   4.697  12.551
72174ION    NA+38583  38.376  31.670   1.501
72175ION    NA+38584  25.606   8.116  11.611
72176ION    NA+38585  37.073   5.805  11.373
72177ION    NA+38586  29.095   9.185  13.753
72178ION    NA+38587  16.872  41.707   4.096
72179ION    NA+38588  33.196  27.672  11.436
72180ION    NA+38589  34.022  44.364  11.568
72181ION    NA+38590  18.503  13.228  12.616
72182ION    NA+38591  12.615  24.926   1.913
72183ION    NA+38592  15.403  21.988  12.818
72184ION    NA+38593  44.747  25.477   4.050
72185ION    NA+38594  38.122  38.221   1.148
72186ION    NA+38595  36.758  14.140  13.439
72187ION    NA+38596  32.981  25.229  13.860
72188ION    NA+38597  40.991  43.797  13.005
72189ION    NA+38598  30.817  14.500  10.940
72190ION    NA+38599  31.632  41.282  12.070
72191ION    NA+38600  43.701  39.001   3.653
72192ION    NA+38601  15.036  34.576  10.958
72193ION    NA+38602   5.905   6.163   4.350
72194ION    NA+38603  30.472   4.065  10.617
72195ION    NA+38604   3.903  34.185  10.336
72196ION    NA+38605  10.770  36.780   3.471
72197ION    NA+38606  36.486   3.356   5.282
72198ION    NA+38607  31.292  19.514   5.313
72199ION    NA+38608  26.530  41.725  14.064
72200ION    NA+38609   8.292  14.099  13.503
72201ION    NA+38610  27.442  21.021  14.964
72202ION    NA+38611  34.500  31.851   0.157
72203ION    NA+38612  16.898   1.126   1.601
72204ION    NA+38613   8.538  11.888   2.958
72205ION    NA+38614  41.100  44.884   1.940
72206ION    NA+38615   3.429  14.262   2.367
72207ION    NA+38616  33.116   5.856  10.906
72208ION    NA+38617  28.461   5.955   3.600
72209ION    NA+38618  30.012  27.811   1.114
72210ION    NA+38619  17.370  36.508   1.442
72211ION    NA+38620   8.084  35.805  12.554
72212ION    NA+38621  28.076  41.843   1.674
72213ION    NA+38622  44.802   1.848   0.642
72214ION    NA+38623  35.891  43.531  13.139
72215ION    NA+38624  27.012   4.351   3.707
72216ION    NA+38625   9.905  33.334  11.676
72217ION    NA+38626  13.783  34.113   5.690
72218ION    NA+38627   9.766  24.219   2.652
72219ION    NA+38628  21.762  29.575  11.237
72220ION    NA+38629  39.349  10.620  14.432
72221ION    NA+38630  23.394  24.193   1.808
72222ION    NA+38631  21.442  20.672  13.516
72223ION    NA+38632   8.504  37.360   1.597
72224ION    NA+38633  18.754   6.632  12.673
72225ION    NA+38634  24.136   1.724  13.660
72226ION    NA+38635  30.678  37.607  13.182
72227ION    NA+38636   5.744  10.383   4.653
72228ION    NA+38637  30.265  26.074  14.892
72229ION    NA+38638  15.266   5.224   0.477
72230ION    NA+38639  33.177  31.369   4.373
72231ION    NA+38640  10.417  24.571   0.719
72232ION    NA+38641  31.409  22.878   0.034
72233ION    NA+38642  43.376  34.640   0.316
72234ION    NA+38643   2.301  43.252  12.382
72235ION    NA+38644  24.130  37.831  13.584
72236ION    NA+38645  37.580   7.287  10.691
72237ION    NA+38646  41.713  20.987  10.644
72238ION    NA+38647  20.191  37.557   2.657
72239ION    NA+38648  18.686  25.415  11.034
72240ION    NA+38649   4.377   1.930  12.576
72241ION    NA+38650  19.278   5.721  11.167
72242ION    NA+38651  21.999  13.078   0.402
72243ION    NA+38652  11.217  24.920  13.150
72244ION    NA+38653  11.781  21.016  12.099
72245ION    NA+38654   5.852   7.362   3.637
72246ION    NA+38655  26.687  39.004   0.968
72247ION    NA+38656  18.761  40.270   1.818
72248ION    NA+38657  34.716   0.373  10.070
72249ION    NA+38658  29.627  19.837  11.928
72250ION    NA+38659  32.069  16.176   0.716
72251ION    NA+38660   3.426  26.486  12.502
72252ION    NA+38661  16.541   2.765   4.216
72253ION    NA+38662  23.660  29.023  13.989
72254ION    NA+38663  37.677  17.801  11.734
72255ION    NA+38664  30.159   7.690   0.972
72256ION    NA+38665  37.143  20.457  11.452
72257ION    NA+38666  14.886   1.241   3.522
72258ION    NA+38667  22.735  19.811   3.667
72259ION    NA+38668  32.980  29.437  13.976
72260ION    NA+38669  13.549  17.558   0.736
72261ION    NA+38670  33.788  25.317   1.709
72262ION    NA+38671  26.456  32.994   0.344
72263ION    NA+38672  23.414  27.625  13.665
72264ION    NA+38673  19.056  32.372   3.043
72265ION    NA+38674  11.910  17.182   4.256
72266ION    NA+38675  19.624   8.522   4.137
72267ION    NA+38676  25.477  22.464  12.693
72268ION    NA+38677  16.675  41.244   4.960
72269ION    NA+38678  35.043  14.392  10.477
72270ION    NA+38679   3.820  19.170   2.189
72271ION    NA+38680  23.177  38.559   0.977
72272ION    NA+38681  21.324  44.012   3.204
72273ION    NA+38682  13.422  17.268   3.619
72274ION    NA+38683  38.772  21.318   0.932
72275ION    NA+38684  19.620  25.114   1.911
72276ION    NA+38685  28.995  16.564   0.404
72277ION    NA+38686  37.519  23.944  11.528
72278ION    NA+38687  29.677   2.639  14.217
72279ION    NA+38688  21.242  31.425   1.756
72280ION    NA+38689  40.513  12.941  14.872
72281ION    NA+38690  16.001  16.528  13.787
72282ION    NA+38691  20.963  38.229  10.675
72283ION    NA+38692  12.118  30.655   3.757
72284ION    NA+38693   3.515  44.827   4.048
72285ION    NA+38694  19.119  43.366  14.547
72286ION    NA+38695  44.901  18.989   0.261
72287ION    NA+38696  22.776  43.714   4.078
72288ION    NA+38697  38.123  25.650  12.913
72289ION    NA+38698  22.332  32.669  13.869
72290ION    NA+38699  35.424  30.520  11.422
72291ION    NA+38700  44.653  42.695   0.726
72292ION    NA+38701   1.033   0.018   2.384
72293ION    NA+38702   1.528  16.669  11.340
72294ION    NA+38703   5.732  12.322  14.760
72295ION    NA+38704  26.477   8.144   2.653
72296ION    NA+38705  31.344   0.680   3.781
72297ION    NA+38706  34.176  39.148   3.264
72298ION    NA+38707  39.197  30.777  12.383
72299ION    NA+38708  43.284  14.221   0.405
72300ION    NA+38709  40.186  34.354   2.544
72301ION    NA+38710   2.910  35.523  13.274
72302ION    NA+38711  25.934  29.092  12.551
72303ION    NA+38712  20.558  26.161  10.543
72304ION    NA+38713  43.337  44.193   4.652
72305ION    NA+38714  30.422  43.277   2.851
72306ION    NA+38715  13.565  10.337   2.475
72307ION    NA+38716  36.042  19.260   3.121
72308ION    NA+38717  25.775  36.127   0.131
72309ION    NA+38718  32.649   6.676   2.711
72310ION    NA+38719  14.026  34.256   4.290
72311ION    NA+38720  20.144  20.641  13.127
72312ION    NA+38721   3.398  40.142   3.606
72313ION    NA+38722  30.120  44.357  13.050
72314ION    NA+38723  38.854   9.753   3.568
72315ION    NA+38724  43.468   1.111  11.818
72316ION    NA+38725  12.938   7.920   2.783
72317ION    NA+38726  27.288  39.282  13.279
72318ION    NA+38727  42.241  28.263   0.498
72319ION    NA+38728  17.740  18.663   5.435
72320ION    NA+38729  26.785  30.739  11.546
72321ION    NA+38730  14.079  31.507   4.577
72322ION    NA+38731  39.354  11.793  11.117
72323ION    NA+38732  23.188   6.542   3.646
72324ION    NA+38733  21.922  38.920  13.684
72325ION    NA+38734  20.493  17.740   4.727
72326ION    NA+38735  18.550  41.462   1.991
72327ION    NA+38736  24.149  24.473   2.735
72328ION    NA+38737   1.145  40.830   4.034
72329ION    NA+38738  41.406  33.659   2.339
72330ION    NA+38739  27.484  35.823  10.838
72331ION    NA+38740   9.482  19.051  13.521
72332ION    NA+38741   8.507  31.234   0.606
72333ION    NA+38742  42.484  17.770   4.795
72334ION    NA+38743  31.403  42.513   0.858
72335ION    NA+38744  36.046   0.445  14.554
72336ION    NA+38745  34.544  35.456   1.324
72337ION    NA+38746  22.931  14.557   3.084
72338ION    NA+38747  34.785  43.711  12.570
72339ION    NA+38748  10.186  26.908   5.105
72340ION    NA+38749  35.148  26.560  10.762
72341ION    NA+38750  11.352   5.017   1.613
72342ION    NA+38751  22.717  27.732   2.594
72343ION    NA+38752  14.725   0.270  14.265
72344ION    NA+38753  29.554  22.780   4.608
72345ION    NA+38754  43.791   8.064  14.560
72346ION    NA+38755  30.162  26.067   2.696
72347ION    NA+38756  27.427  41.490   4.331
72348ION    NA+38757  29.679  33.198   3.527
72349ION    NA+38758   2.015   8.259  11.144
72350ION    NA+38759  26.426   0.422  14.978
72351ION    NA+38760  24.508  12.251  13.787
72352ION    NA+38761  33.266  24.299   4.322
72353ION    NA+38762  16.877  26.778   2.763
72354ION    NA+38763   0.265  13.622   1.987
72355ION    NA+38764   3.057   5.038   2.108
72356ION    NA+38765  21.664  43.604  11.168
72357ION    NA+38766  41.212  21.648  14.701
72358ION    NA+38767   3.077   0.410  12.346
72359ION    NA+38768  12.208  43.035   0.759
72360ION    NA+38769  16.998  15.453   1.639
72361ION    NA+38770  13.161  12.330   1.078
72362ION    NA+38771   2.737  27.066   1.139
72363ION    NA+38772  43.311   1.540  12.708
72364ION    NA+38773  15.875   8.280   4.606
72365ION    NA+38774  37.112   2.872  12.030
72366ION    NA+38775  29.934  28.063  13.660
72367ION    NA+38776  39.504  10.100   4.830
72368ION    NA+38777   6.136  38.484   1.519
72369ION    NA+38778   3.976  40.517  10.915
72370ION    NA+38779   5.010  32.023  12.446
72371ION    NA+38780   0.729   1.303  10.263
72372ION    NA+38781  11.755   5.804   3.461
72373ION    NA+38782   5.055  15.603  14.194
72374ION    NA+38783   8.850  16.688  13.512
72375ION    NA+38784  40.505   0.825  13.584
72376ION    NA+38785   2.998  22.693  12.907
72377ION    NA+38786  15.780  40.720   4.049
72378ION    NA+38787  27.724  38.234  12.456
72379ION    NA+38788  42.844   5.705   0.727
72380ION    NA+38789   7.172  33.894   0.947
72381ION    NA+38790  15.701  14.340   2.195
72382ION    NA+38791  31.203  23.720   3.885
72383ION    NA+38792   8.248  15.593  12.413
72384ION    NA+38793  40.466  23.135   4.111
72385ION    NA+38794  22.827   9.914  13.191
72386ION    NA+38795   3.620  30.058   4.610
72387ION    NA+38796  34.213   0.234  13.736
72388ION    NA+38797  27.759   1.662   3.620
72389ION    NA+38798  31.316   2.601  14.193
72390ION    NA+38799  26.342  24.464   2.933
72391ION    NA+38800  34.313  24.656   3.359
72392ION    NA+38801  20.567  34.137   2.684
72393ION    NA+38802  29.073  23.536  12.132
72394ION    NA+38803  41.573  40.810  14.737
72395ION    NA+38804   9.283  10.769  10.809
72396ION    NA+38805  24.281  16.826   4.628
72397ION    NA+38806  12.525   6.332   0.379
72398ION    NA+38807  12.888  28.895   2.796
72399ION    NA+38808  43.720  19.082  13.751
72400ION    NA+38809  33.355  23.384   3.326
72401ION    NA+38810  24.718  44.554  13.860
72402ION    NA+38811  30.328   3.833  11.951
72403ION    NA+38812   3.512   7.319   1.790
72404ION    NA+38813   4.809  17.477   0.443
72405ION    NA+38814   3.304  30.023   0.947
72406ION    NA+38815  23.169  30.671  11.635
72407ION    NA+38816  30.862   0.511  14.857
72408ION    NA+38817  22.537  35.901   2.619
72409ION    NA+38818  16.875  32.113   4.020
72410ION    NA+38819  44.518   0.579   9.866
72411ION    NA+38820   6.491   6.804   1.883
72412ION    NA+38821  19.925   6.895   0.566
72413ION    NA+38822  13.279  32.139   3.284
72414ION    NA+38823   7.796   0.510   4.229
72415ION    NA+38824  43.823   0.693  13.039
72416ION    NA+38825   9.582   0.493   2.784
72417ION    NA+38826   0.354  30.105   1.645
72418ION    NA+38827  16.778  40.821   3.642
72419ION    NA+38828  16.120  42.406  13.113
72420ION    NA+38829  35.990  15.508   0.377
72421ION    NA+38830  16.994   3.533   4.700
72422ION    NA+38831  24.731  11.174   3.283
72423ION    NA+38832  20.524   4.458   0.584
72424ION    NA+38833  43.616  19.404  14.693
72425ION    NA+38834   4.614   6.704   0.402
72426ION    NA+38835  36.831  22.991   3.180
72427ION    NA+38836  12.492  44.779  14.096
72428ION    NA+38837   0.787  16.302  13.307
72429ION    NA+38838  38.681  40.448   4.697
72430ION    NA+38839  34.078  36.757   1.542
72431ION    NA+38840  24.114  30.222  13.652
72432ION    NA+38841  28.546  20.725  11.159
72433ION    NA+38842   0.429  20.898   5.114
72434ION    NA+38843   0.823   7.246  12.012
72435ION    NA+38844  25.538  10.408  12.494
72436ION    NA+38845  25.099  20.346   1.712
72437ION    NA+38846  29.166   0.285  14.189
72438ION    NA+38847   5.422  18.841   2.618
72439ION    NA+38848  26.395  30.822   4.170
72440ION    NA+38849  19.697  35.430   0.983
72441ION    NA+38850   7.460  22.536  11.082
72442ION    NA+38851  37.054  42.788  13.449
72443ION    NA+38852  10.295   6.806   4.387
72444ION    NA+38853  38.861  10.634  12.182
72445ION    NA+38854  37.598  18.664   1.940
72446ION    NA+38855  21.228   4.229  14.359
72447ION    NA+38856   3.667  21.615   1.360
72448ION    NA+38857   5.661  17.410  12.082
72449ION    NA+38858   0.206   9.751   2.502
72450ION    NA+38859   7.725   7.824   0.445
72451ION    NA+38860  20.571  42.550  14.621
72452ION    NA+38861  25.280  27.458  11.200
72453ION    NA+38862  21.831   4.381   3.241
72454ION    NA+38863  43.195  38.909   0.778
72455ION    NA+38864  43.872   9.672   0.367
72456ION    NA+38865   4.522  38.551   0.258
72457ION    NA+38866   5.294  35.170  14.184
72458ION    NA+38867  14.276  38.331  12.410
72459ION    NA+38868   5.953  44.477   1.899
72460ION    NA+38869  27.676  29.609  11.703
72461ION    NA+38870  28.152  44.889  10.703
72462ION    NA+38871   2.049   2.168   4.061
72463ION    NA+38872  41.835  16.561  14.099
72464ION    NA+38873  21.983  40.926   4.644
72465ION    NA+38874  17.521  37.356  12.855
72466ION    NA+38875  15.424  21.691   4.033
72467ION    NA+38876   9.347  29.549   0.016
72468ION    NA+38877  12.345  30.623  10.637
72469ION    NA+38878  39.046  38.144   3.513
72470ION    NA+38879  17.958   8.107   3.502
72471ION    NA+38880  10.525  44.693   3.748
72472ION    NA+38881   8.842   4.698   3.221
72473ION    NA+38882  12.555  28.519   3.661
72474ION    NA+38883   9.747  24.383  15.000
72475ION    NA+38884   2.586   0.039   4.353
72476ION    NA+38885  14.566  28.437  13.871
72477ION    NA+38886  34.997  44.638  11.328
72478ION    NA+38887  18.691  18.159   9.920
72479ION    NA+38888   5.213  31.381   2.885
72480ION    NA+38889  42.174  18.795   4.002
72481ION    NA+38890  37.067  17.476   0.190
72482ION    NA+38891  43.869  23.464  10.945
72483ION    NA+38892  20.731   9.796   2.788
72484ION    NA+38893  12.252  22.150  12.246
72485ION    NA+38894  13.561  23.130   4.929
72486ION    NA+38895  14.356  35.262  12.528
72487ION    NA+38896  18.185  32.971  13.797
72488ION    NA+38897  13.303   6.727   2.741
72489ION    NA+38898  21.805  37.917  10.801
72490ION    NA+38899   0.213  43.947  12.983
72491ION    NA+38900  21.241   1.332  13.553
72492ION    NA+38901  37.882  30.004   3.629
72493ION    NA+38902  24.925  38.654  12.919
72494ION    NA+38903  11.473  20.937  11.072
72495ION    NA+38904   9.624  39.259  11.421
72496ION    NA+38905  40.717  23.488  11.094
72497ION    NA+38906  27.461   2.655  11.490
72498ION    NA+38907  21.431  13.516  11.513
72499ION    NA+38908  42.449  27.938   2.892
72500ION    NA+38909   2.429  33.699   1.140
72501ION    NA+38910  29.271   3.984  12.749
72502ION    NA+38911   7.619  20.321   0.063
72503ION    NA+38912  16.346  15.608   2.420
72504ION    NA+38913  12.977   0.994  13.371
72505ION    NA+38914   3.165  17.396  11.649
72506ION    NA+38915  42.201  34.196  12.097
72507ION    NA+38916  36.130  10.241  12.394
72508ION    NA+38917   9.105  25.267  14.839
72509ION    NA+38918  36.685  21.729   0.561
72510ION    NA+38919  34.607   1.233  12.542
72511ION    NA+38920  31.410  37.609  13.635
72512ION    NA+38921  32.862  32.709   3.006
72513ION    NA+38922  17.506  35.533   0.453
72514ION    NA+38923   5.409  30.374  12.326
72515ION    NA+38924  31.017  44.280   4.115
72516ION    NA+38925  17.549  36.169  13.423
72517ION    NA+38926   9.433   5.319   0.005
72518ION    NA+38927  18.093  44.108   2.716
72519ION    NA+38928   5.646   8.459  11.034
72520ION    NA+38929  13.125  15.655   1.629
72521ION    NA+38930  35.867  32.711  14.764
72522ION    NA+38931  43.457  31.662  13.924
72523ION    NA+38932  31.128  29.035   2.883
72524ION    NA+38933  35.371  30.475   3.426
72525ION    NA+38934  13.829  34.145   5.057
72526ION    NA+38935  13.392  19.205   4.061
72527ION    NA+38936   4.803  10.254   3.829
72528ION    NA+38937  44.489   4.816   1.695
72529ION    NA+38938  15.152  32.037   0.726
72530ION    NA+38939  11.215   2.307  12.515
72531ION    NA+38940  32.959  16.362   4.184
72532ION    NA+38941   8.772  29.909   4.173
72533ION    NA+38942  21.023  19.966  12.829
72534ION    NA+38943  42.449  43.923   2.791
72535ION    NA+38944  44.262  24.637   5.349
72536ION    NA+38945   2.491  43.360  11.365
72537ION    NA+38946   9.091  17.905  10.245
72538ION    NA+38947  23.164   7.007   1.923
72539ION    NA+38948  17.131   4.137   3.151
72540ION    NA+38949  24.221  19.177  11.620
72541ION    NA+38950  27.488  27.780  13.209
72542ION    NA+38951  21.984  41.589   1.335
72543ION    NA+38952  26.545   8.878   0.513
72544ION    NA+38953  11.741  31.616   0.319
72545ION    NA+38954  39.358  22.010   1.353
72546ION    NA+38955  26.514  29.460  13.946
72547ION    NA+38956  15.297  11.669  11.558
72548ION    NA+38957  30.537  39.235  11.158
72549ION    NA+38958  20.253  36.529  13.049
72550ION    NA+38959  44.814   6.660  13.111
72551ION    NA+38960  25.264   9.103  14.552
72552ION    NA+38961  26.433   2.976  11.999
72553ION    NA+38962  29.650  13.957  11.669
72554ION    NA+38963  12.170   5.798   2.749
72555ION    NA+38964   2.727  41.533   2.120
72556ION    NA+38965   4.809  19.062   3.800
72557ION    NA+38966  11.364   9.643   2.697
72558ION    NA+38967   7.478  23.906   2.576
72559ION    NA+38968  22.148   7.880  11.427
72560ION    NA+38969  42.565   8.169  12.753
72561ION    NA+38970   1.645  34.015   1.674
72562ION    NA+38971   6.154  34.881  14.204
72563ION    NA+38972  35.832  17.608   0.367
72564ION    NA+38973  12.495  13.137  11.755
72565ION    NA+38974  33.443  39.843  14.446
72566ION    NA+38975   5.827  20.993  11.509
72567ION    NA+38976   2.925  20.699  14.036
72568ION    NA+38977  15.147   5.616   4.094
72569ION    NA+38978  44.227  28.035   2.498
72570ION    NA+38979   9.842   2.521  10.620
72571ION    NA+38980  19.181  44.020   3.262
72572ION    NA+38981  32.008  23.058   3.705
72573ION    NA+38982  24.966   0.083  11.149
72574ION    NA+38983  11.927   4.050   4.309
72575ION    NA+38984   6.066   8.370  12.776
72576ION    NA+38985  33.683   1.385  11.080
72577ION    NA+38986  12.058  19.544   2.676
72578ION    NA+38987   1.399  16.830   3.141
72579ION    NA+38988  35.995  27.632  14.936
72580ION    NA+38989  42.278   4.378  13.337
72581ION    NA+38990  30.243  16.112   2.431
72582ION    NA+38991  42.432  28.449   2.033
72583ION    NA+38992  20.161  10.420   3.095
72584ION    NA+38993   5.906   5.781   0.618
72585ION    NA+38994  43.060  21.242  14.767
72586ION    NA+38995   6.556  24.194   0.654
72587ION    NA+38996  26.163  30.416  14.000
72588ION    NA+38997  15.378  11.774   1.875
72589ION    NA+38998   4.377   1.903   1.281
72590ION    NA+38999  14.716  23.629   2.322
72591ION    NA+39000  31.996  15.918   2.640
72592ION    NA+39001  19.683   7.173  12.108
72593ION    NA+39002  36.181  18.823  14.935
72594ION    NA+39003  22.948  42.827  12.527
72595ION    NA+39004   2.022  30.656  13.096
72596ION    NA+39005  14.568   9.227  14.779
72597ION    NA+39006  43.166  28.455   3.415
72598ION    NA+39007   6.900  17.764  14.915
72599ION    NA+39008  11.916  13.176  14.073
72600ION    NA+39009  43.544  26.564   0.680
72601ION    NA+39010  36.127  10.200  13.759
72602ION    NA+39011   7.115  29.647   2.783
72603ION    NA+39012  11.630  42.472   5.044
72604ION    NA+39013  44.795   2.427  10.753
72605ION    NA+39014   7.410  30.127  12.693
72606ION    NA+39015   9.756  18.227   3.270
72607ION    NA+39016   2.747   0.278  13.341
72608ION    NA+39017  11.321   2.575   3.264
72609ION    NA+39018  39.301  35.343   0.655
72610ION    NA+39019  30.279  28.328   2.734
72611ION    NA+39020   6.711   7.764   5.027
72612ION    NA+39021  41.508   0.452   0.836
72613ION    NA+39022  36.966  43.873   0.785
72614ION    NA+39023   8.599  31.729   4.424
72615ION    NA+39024  35.145  25.939  12.367
72616ION    NA+39025  41.321   1.916   1.153
72617ION    NA+39026   0.423  24.200  11.153
72618ION    NA+39027  39.959  11.598   2.009
72619ION    NA+39028  44.978  10.925  12.606
72620ION    NA+39029   6.738  17.874  13.088
72621ION    NA+39030  32.339  31.593  12.516
72622ION    NA+39031  23.194  42.135  14.731
72623ION    NA+39032  44.227  38.133   1.353
72624ION    NA+39033  21.815  32.323  14.521
72625ION    NA+39034   2.923  22.610   5.223
72626ION    NA+39035  26.196  22.392   3.597
72627ION    NA+39036  19.824  32.924   3.653
72628ION    NA+39037  15.045  15.724  14.631
72629ION    NA+39038  21.425  28.304  14.482
72630ION    NA+39039  30.432  21.248   0.778
72631ION    NA+39040  37.020  15.157   2.215
72632ION    NA+39041  13.408  39.445   3.608
72633ION    NA+39042  38.915   0.024   1.554
72634ION    NA+39043  21.243  13.033  10.793
72635ION    NA+39044   2.519   5.234   3.283
72636ION    NA+39045  39.368   3.085  14.882
72637ION    NA+39046   9.403  37.009  14.836
72638ION    NA+39047  11.726  44.390   0.390
72639ION    NA+39048  39.427  42.923  13.913
72640ION    NA+39049  32.993  36.124   1.173
72641ION    NA+39050   4.284  44.893   1.002
72642ION    NA+39051   5.485  12.989  11.169
72643ION    NA+39052  36.136  22.605  12.677
72644ION    NA+39053  34.433  40.531  12.570
72645ION    NA+39054  33.515   5.231  14.015
72646ION    NA+39055   1.921  11.760   0.692
72647ION    NA+39056  18.483  30.789   2.081
72648ION    NA+39057   9.844  37.768  11.699
72649ION    NA+39058  44.996  35.520  12.055
72650ION    NA+39059  14.213  11.268   4.695
72651ION    NA+39060  20.913  26.857  14.397
72652ION    NA+39061  38.515  11.372  12.188
72653ION    NA+39062   2.490  32.211  12.332
72654ION    NA+39063   7.830  29.007  14.185
72655ION    NA+39064   4.227  19.843   4.648
72656ION    NA+39065  17.730  10.361   3.634
72657ION    NA+39066  22.589   8.557   2.669
72658ION    NA+39067   3.353  17.527  14.266
72659ION    NA+39068  40.699  24.597   2.241
72660ION    NA+39069  27.442  34.600  14.287
72661ION    NA+39070   3.662   9.290  14.539
72662ION    NA+39071  16.532   6.183  10.843
72663ION    NA+39072  21.884  17.305   1.124
72664ION    NA+39073  15.273  40.500  13.376
72665ION    NA+39074  38.170  34.201   1.760
72666ION    NA+39075   3.418  16.568   3.924
72667ION    NA+39076   8.270  11.565   4.582
72668ION    NA+39077  39.350  31.335  13.080
72669ION    NA+39078   8.393  16.166  10.985
72670ION    NA+39079   6.789  21.542   3.624
72671ION    NA+39080   4.296  42.795  13.510
72672ION    NA+39081  42.250  43.146   2.121
72673ION    NA+39082   8.241  17.514  10.683
72674ION    NA+39083  21.292   5.605   4.469
72675ION    NA+39084  29.375  11.764  13.059
72676ION    NA+39085  13.013  33.594  13.235
72677ION    NA+39086   5.437  34.344   1.254
72678ION    NA+39087   2.361  31.440   3.402
72679ION    NA+39088   2.153  43.363   4.126
72680ION    NA+39089  31.747  25.696  12.025
72681ION    NA+39090  24.521  42.434   2.443
72682ION    NA+39091   6.907  21.559   0.080
72683ION    NA+39092  43.836  11.337   0.919
72684ION    NA+39093  17.496  42.345  14.883
72685ION    NA+39094  21.882  24.222  12.738
72686ION    NA+39095   4.186  39.085   3.775
72687ION    NA+39096  13.366  28.746   0.302
72688ION    NA+39097  35.355  24.917   3.498
72689ION    NA+39098  43.780   2.947   1.023
72690ION    NA+39099  15.401  17.614  11.559
72691ION    NA+39100  25.189  21.791   4.124
72692ION    NA+39101   8.954  35.098   4.014
72693ION    NA+39102   7.821  26.759  14.543
72694ION    NA+39103  36.150  42.780   0.116
72695ION    NA+39104  11.041  11.466  13.146
72696ION    NA+39105   2.246  27.124  14.575
72697ION    NA+39106  29.641  34.022  11.442
72698ION    NA+39107  41.829  36.543   2.666
72699ION    NA+39108  16.201  32.170  11.853
72700ION    NA+39109  38.515  27.831  14.788
72701ION    NA+39110  24.570  34.536   1.253
72702ION    NA+39111  16.215   8.545  14.571
72703ION    NA+39112  21.538  24.858  11.184
72704ION    NA+39113  22.369  24.312  11.080
72705ION    NA+39114  27.281  33.157  10.884
72706ION    NA+39115  33.022  21.362   3.382
72707ION    NA+39116  36.757   9.951  13.215
72708ION    NA+39117  19.999  43.387  11.861
72709ION    NA+39118  42.036  31.439  14.954
72710ION    NA+39119  23.137  22.974  10.861
72711ION    NA+39120  22.150   4.557   2.019
72712ION    NA+39121  28.879  32.495  13.924
72713ION    NA+39122  44.654   8.396  13.362
72714ION    NA+39123   5.493  33.658   3.177
72715ION    NA+39124  42.941  34.971  11.486
72716ION    NA+39125  25.326   8.070  14.217
72717ION    NA+39126  32.886  14.080  13.407
72718ION    NA+39127  29.599  16.886   1.682
72719ION    NA+39128  39.759   7.858   2.164
72720ION    NA+39129  30.366  11.591  13.098
72721ION    NA+39130  38.058   5.578   4.102
72722ION    NA+39131  44.244  16.623  11.071
72723ION    NA+39132  35.642   0.089  11.944
72724ION    NA+39133  25.965  26.386   3.621
72725ION    NA+39134  41.718  33.977   0.471
72726ION    NA+39135  44.094  37.818   2.719
72727ION    NA+39136  31.084   9.063   3.323
72728ION    NA+39137  26.837  13.622   1.331
72729ION    NA+39138  26.631   9.689   2.166
72730ION    NA+39139   0.782   2.084  13.006
72731ION    NA+39140  27.335  17.263   4.142
72732ION    NA+39141  34.029  38.017  14.075
72733ION    NA+39142  19.319  27.562  12.073
72734ION    NA+39143  44.075  41.522  14.374
72735ION    NA+39144  42.160  35.998  11.271
72736ION    NA+39145   3.705   6.296  14.337
72737ION    NA+39146  36.113  24.231  11.761
72738ION    NA+39147  35.697  38.697  13.354
72739ION    NA+39148  38.387  22.285  13.299
72740ION    NA+39149  19.241   7.707   4.225
72741ION    NA+39150  12.907   8.426   0.973
72742ION    NA+39151   9.607  22.183   0.340
72743ION    NA+39152  40.800  36.956   1.854
72744ION    NA+39153  16.168   2.577  11.281
72745ION    NA+39154  43.221   4.571   3.345
72746ION    NA+39155  10.564  23.493   0.776
72747ION    NA+39156   0.947  44.392   5.065
72748ION    NA+39157  14.840  34.392  13.103
72749ION    NA+39158   6.133  36.247  14.477
72750ION    NA+39159  43.992  14.782  14.974
72751ION    NA+39160  26.917  32.115   0.146
72752ION    NA+39161   6.206  42.402  12.593
72753ION    NA+39162  39.645   5.113  11.192
72754ION    NA+39163  26.612   9.005   3.212
72755ION    NA+39164  26.181  40.743  11.323
72756ION    NA+39165  14.824  21.813   2.295
72757ION    NA+39166   5.028  37.540   4.929
72758ION    NA+39167  38.776   3.302   1.335
72759ION    NA+39168  43.386  25.078  13.478
72760ION    NA+39169  38.242  33.835   0.490
72761ION    NA+39170  26.656  32.149   4.178
72762ION    NA+39171  12.197  29.330   0.752
72763ION    NA+39172   8.885  15.317  13.137
72764ION    NA+39173   0.942  26.237   2.728
72765ION    NA+39174   1.172  41.509  12.530
72766ION    NA+39175  12.036  42.245  11.988
72767ION    NA+39176   5.817  21.967  11.737
72768ION    NA+39177  10.565   0.660   2.707
72769ION    NA+39178  29.640   5.013   0.384
72770ION    NA+39179  36.438  37.776   0.055
72771ION    NA+39180  12.736   1.903  14.208
72772ION    NA+39181  23.901  16.432  11.216
72773ION    NA+39182  15.078  19.011   2.334
72774ION    NA+39183  16.793  23.781   1.577
72775ION    NA+39184  16.040  24.657   0.925
72776ION    NA+39185  34.832  30.760   4.704
72777ION    NA+39186   7.259   0.259  11.667
72778ION    NA+39187  10.631  43.841  14.455
72779ION    NA+39188  15.017  25.632  10.261
72780ION    NA+39189  20.175  17.926   3.453
72781ION    NA+39190  33.021  27.125   3.543
72782ION    NA+39191  19.628  24.127  11.280
72783ION    NA+39192  33.999  31.771  14.210
72784ION    NA+39193  23.097   8.446   0.802
72785ION    NA+39194  39.480  35.555   3.642
72786ION    NA+39195   0.316  20.727   4.090
72787ION    NA+39196  39.018   8.423  10.268
72788ION    NA+39197  10.127  44.293   4.578
72789ION    NA+39198  39.807  22.690  14.313
72790ION    NA+39199  10.155   5.818   4.323
72791ION    NA+39200   0.259  21.963   3.113
72792ION    NA+39201  17.397  24.630   3.866
72793ION    NA+39202  24.634  32.384   0.495
72794ION    NA+39203  24.220   3.505  12.960
72795ION    NA+39204  37.283  15.328  12.409
72796ION    NA+39205  42.801  34.568   1.131
72797ION    NA+39206   6.694   3.355   0.523
72798ION    NA+39207   9.422  31.958  10.405
72799ION    NA+39208   7.636  17.151   4.027
72800ION    NA+39209  44.618  10.882   0.477
72801ION    NA+39210  12.692  31.465  13.071
72802ION    NA+39211  17.705  25.827  11.076
72803ION    NA+39212  33.108   7.842  11.478
72804ION    NA+39213   6.349   7.397  11.472
72805ION    NA+39214  23.420  21.708  14.475
72806ION    NA+39215  37.888  27.062  14.910
72807ION    NA+39216  35.868  20.222  11.969
72808ION    NA+39217  28.964   3.730  10.876
72809ION    NA+39218   0.524   4.703   2.641
72810ION    NA+39219  43.197  35.636   3.785
72811ION    NA+39220  35.885  24.006  13.919
72812ION    NA+39221  44.834  37.975  10.646
72813ION    NA+39222  19.640  22.528   2.274
72814ION    NA+39223  21.827  12.134  13.321
72815ION    NA+39224  40.438  18.964   4.762
72816ION    NA+39225   8.500   9.476  12.787
72817ION    NA+39226  40.706  41.840   1.105
72818ION    NA+39227   3.951  30.402   2.594
72819ION    NA+39228   7.810  29.016   3.670
72820ION    NA+39229  28.821   2.385  14.696
72821ION    NA+39230  14.082  12.289   1.679
72822ION    NA+39231   0.352  27.196   0.327
72823ION    NA+39232   4.835  41.997   1.221
72824ION    NA+39233  19.245  30.324   1.897
72825ION    NA+39234   0.887   1.248   1.781
72826ION    NA+39235  38.619  40.382  11.800
72827ION    NA+39236  12.569  28.864  12.959
72828ION    NA+39237  29.346  43.200  10.751
72829ION    NA+39238  19.951  31.670   3.764
72830ION    NA+39239  16.966  31.416   5.101
72831ION    NA+39240  38.748  30.471   0.719
72832ION    NA+39241  43.881  34.932   4.577
72833ION    NA+39242  35.038  42.783   5.336
72834ION    NA+39243  29.643  21.086  11.915
72835ION    NA+39244  21.384  10.616  14.747
72836ION    NA+39245   6.220  35.479   0.923
72837ION    NA+39246  18.968  20.403  11.193
72838ION    NA+39247  37.892  12.634   1.234
72839ION    NA+39248  33.526  14.225  12.420
72840ION    NA+39249  21.446  11.352   2.102
72841ION    NA+39250  28.028  36.569  10.827
72842ION    NA+39251  41.027  10.463  11.229
72843ION    NA+39252  44.043   3.174  10.794
72844ION    NA+39253  23.551  42.888   5.351
72845ION    NA+39254   8.830  34.308  12.937
72846ION    NA+39255  37.053   2.753   2.820
72847ION    NA+39256  21.401  18.684   2.438
72848ION    NA+39257  32.035  24.903  13.060
72849ION    NA+39258  15.387  37.101   2.756
72850ION    NA+39259   7.396  15.964  14.432
72851ION    NA+39260  12.697  17.585   0.791
72852ION    NA+39261  29.965  13.892   1.807
72853ION    NA+39262  41.296  29.185   3.705
72854ION    NA+39263   8.802   7.463  14.746
72855ION    NA+39264  40.547   2.650   3.725
72856ION    NA+39265  21.849  15.721  11.731
72857ION    NA+39266  43.241  22.213  10.616
72858ION    NA+39267   5.698  21.677   3.792
72859ION    NA+39268  18.088  26.759   4.600
72860ION    NA+39269  10.638  15.670   3.582
72861ION    NA+39270  42.572  24.984  10.832
72862ION    NA+39271  38.032  40.248  10.703
72863ION    NA+39272  32.518  32.571  13.279
72864ION    NA+39273  14.185  25.483   0.409
72865ION    NA+39274  39.007   7.223  13.387
72866ION    NA+39275  14.816  41.110  12.057
72867ION    NA+39276  29.417  39.523   1.805
72868ION    NA+39277  30.022   0.747   4.446
72869ION    NA+39278   8.822  11.819  10.614
72870ION    NA+39279  16.772  25.259   2.292
72871ION    NA+39280  40.980  17.919   3.653
72872ION    NA+39281  37.453  34.359   0.960
72873ION    NA+39282  42.295  21.018   3.054
72874ION    NA+39283   9.701   5.186  11.939
72875ION    NA+39284   1.800  44.404   4.235
72876ION    NA+39285  40.191  38.807  13.429
72877ION    NA+39286  44.903   5.689  12.845
72878ION    NA+39287  34.818  26.459   2.638
72879ION    NA+39288  26.642  29.712   3.544
72880ION    NA+39289  14.541   0.231   0.539
72881ION    NA+39290  29.700   1.779   0.034
72882ION    NA+39291  40.182  33.721  14.653
72883ION    NA+39292  27.402   6.803   1.304
72884ION    NA+39293  35.536  15.572  14.488
72885ION    NA+39294  11.255   6.591  11.197
72886ION    NA+39295  13.274  44.916   0.860
72887ION    NA+39296  31.712  42.523  12.629
72888ION    NA+39297  33.470   1.947   2.815
72889ION    NA+39298  19.244  12.322  14.476
72890ION    NA+39299  35.650  11.242  12.353
72891ION    NA+39300  24.255  38.514   4.508
72892ION    NA+39301   1.436  31.882   3.793
72893ION    NA+39302  15.500   1.083   5.434
72894ION    NA+39303   7.983  32.067  14.047
72895ION    NA+39304  32.375  21.657  13.867
72896ION    NA+39305  32.464  30.550   1.514
72897ION    NA+39306  30.438   5.173   3.318
72898ION    NA+39307  13.466  43.065  12.816
72899ION    NA+39308  15.881   3.664   2.724
72900ION    NA+39309  20.576  23.979   4.206
72901ION    NA+39310  22.619   0.771  12.106
72902ION    NA+39311  38.639   5.624   0.708
72903ION    NA+39312  22.088  23.707  11.906
72904ION    NA+39313  30.375   1.153   2.879
72905ION    NA+39314  20.273  43.239   3.333
72906ION    NA+39315  19.619  18.825   4.047
72907ION    NA+39316  15.735  19.280  13.806
72908ION    NA+39317  39.279  42.768  12.936
72909ION    NA+39318   0.647  28.882   1.055
72910ION    NA+39319  12.944  42.649  10.677
72911ION    NA+39320   5.848  37.326   1.621
72912ION    NA+39321  34.550  28.899  10.736
72913ION    NA+39322  17.257  29.532  11.368
72914ION    NA+39323  34.284  19.454   0.913
72915ION    NA+39324  32.813   4.080  12.223
72916ION    NA+39325  29.193  31.834   4.518
72917ION    NA+39326  27.475  25.149  12.348
72918ION    NA+39327  24.658  26.194   3.713
72919ION    NA+39328  23.534  44.251  11.521
72920ION    NA+39329  18.214  26.103   3.351
72921ION    NA+39330  14.224  11.474   2.011
72922ION    NA+39331  16.181  37.759  14.315
72923ION    NA+39332  39.962  39.635   0.694
72924ION    NA+39333  27.061  19.046  14.666
72925ION    NA+39334  26.680  37.898   2.741
72926ION    NA+39335   5.375  20.546  14.924
72927ION    NA+39336  23.547  33.379   0.628
72928ION    NA+39337   2.950  18.297  12.068
72929ION    NA+39338  43.765  32.508   4.400
72930ION    NA+39339   2.980  34.883   0.399
72931ION    NA+39340  30.107  24.523   2.860
72932ION    NA+39341   0.601   6.154  12.120
72933ION    NA+39342  27.027  43.664   2.786
72934ION    NA+39343  10.498   2.534   2.698
72935ION    NA+39344   7.968  39.571  14.275
72936ION    NA+39345   6.034   6.886  14.734
72937ION    NA+39346   7.649  35.191  11.719
72938ION    NA+39347  20.414  34.675  13.255
72939ION    NA+39348   2.690   5.658   1.359
72940ION    NA+39349  31.358  25.378  10.442
72941ION    NA+39350  21.792  21.320  12.647
72942ION    NA+39351  12.331  16.492  13.277
72943ION    NA+39352  17.271  34.402  11.695
72944ION    NA+39353  37.053  35.112   2.375
72945ION    NA+39354  14.591   2.672  11.746
72946ION    NA+39355  12.893   2.316   1.282
72947ION    NA+39356  22.550   9.700  14.133
72948ION    NA+39357  34.078  35.412   0.440
72949ION    NA+39358  10.491  18.419   4.072
72950ION    NA+39359  18.107  35.442   2.410
72951ION    NA+39360  39.112  19.088   4.503
72952ION    NA+39361  19.824  33.921   3.317
72953ION    NA+39362  12.112  24.247  14.636
72954ION    NA+39363  22.949   0.739   1.843
72955ION    NA+39364   0.473  31.570  13.334
72956ION    NA+39365   9.662   2.263   0.416
72957ION    NA+39366  33.086   7.726  14.507
72958ION    NA+39367  40.528   3.652   3.742
72959ION    NA+39368  26.598  39.447  12.581
72960ION    NA+39369  11.134  40.981   2.067
72961ION    NA+39370  32.161   5.093  14.768
72962ION    NA+39371  11.025  36.606  13.744
72963ION    NA+39372  19.111  32.100  14.591
72964ION    NA+39373  44.909   2.477   2.931
72965ION    NA+39374  28.927  43.348  14.134
72966ION    NA+39375  16.889   5.188   0.952
72967ION    NA+39376  24.505  42.517  13.889
72968ION    NA+39377  31.159  15.619   1.278
72969ION    NA+39378  27.017  12.172   3.077
72970ION    NA+39379   0.146  34.030  13.439
72971ION    NA+39380  15.392   3.809   1.501
72972ION    NA+39381  29.729  12.807   2.921
72973ION    NA+39382  33.374  32.586   1.425
72974ION    NA+39383   8.182   5.863   1.985
72975ION    NA+39384  15.404  17.279   3.084
72976ION    NA+39385  30.495  33.137  13.972
72977ION    NA+39386  14.034   5.393  13.153
72978ION    NA+39387  42.587  14.846  11.461
72979ION    NA+39388  18.625  17.161   9.908
72980ION    NA+39389   8.078  14.122   3.797
72981ION    NA+39390  23.535  38.588  12.496
72982ION    NA+39391  22.677  15.392   1.994
72983ION    NA+39392  34.881  21.939   3.832
72984ION    NA+39393   5.219  24.925   2.380
72985ION    NA+39394  16.545  43.884   4.621
72986ION    NA+39395  43.245   2.590  14.806
72987ION    NA+39396  38.940  14.201   5.319
72988ION    NA+39397  14.342  33.610   0.567
72989ION    NA+39398  13.342  29.577  13.620
72990ION    NA+39399  15.648  24.625  12.938
72991ION    NA+39400   0.889  22.933   0.381
72992ION    NA+39401   6.773  25.697  12.988
72993ION    NA+39402   3.241  18.054   1.218
72994ION    NA+39403  41.185  22.160   3.175
72995ION    NA+39404  33.897  31.096   4.847
72996ION    NA+39405  11.148  15.468  11.695
72997ION    NA+39406  21.228  16.055  12.472
72998ION    NA+39407  36.712  24.345   1.950
72999ION    NA+39408   6.813  39.175  13.830
73000ION    NA+39409  17.838   7.764  14.907
73001ION    NA+39410  32.402  35.724  14.973
73002ION    NA+39411  35.060   1.483  11.205
73003ION    NA+39412  11.429   0.915  14.482
73004ION    NA+39413   6.594  28.882   2.022
73005ION    NA+39414  36.484  26.572   0.454
73006ION    NA+39415  37.006  36.315   1.577
73007ION    NA+39416  43.964  38.312   0.256
73008ION    NA+39417  20.091  25.735   0.512
73009ION    NA+39418   2.162  40.549   5.281
73010ION    NA+39419  39.996  23.339   2.635
73011ION    NA+39420  40.082  18.845   0.104
73012ION    NA+39421  40.997  18.483   2.419
73013ION    NA+39422   2.192  10.520  13.126
73014ION    NA+39423  25.113   9.802  13.851
73015ION    NA+39424   5.985   9.078   1.953
73016ION    NA+39425  38.185  16.338  12.471
73017ION    NA+39426  26.502   1.051   1.502
73018ION    NA+39427  20.189  44.493  12.912
73019ION    NA+39428  36.415  32.984   4.572
73020ION    NA+39429  25.986  11.229   2.690
73021ION    NA+39430   6.267   7.602  13.385
73022ION    NA+39431  21.827  22.368   3.505
73023ION    NA+39432  18.515   9.631  13.799
73024ION    NA+39433  17.069  20.225  13.331
73025ION    NA+39434  30.540  16.262  11.551
73026ION    NA+39435  22.235   6.534  10.846
73027ION    NA+39436  39.851  20.391   5.038
73028ION    NA+39437   8.906  23.529   1.798
73029ION    NA+39438  12.033  39.938  12.467
73030ION    NA+39439  28.553  23.987  13.823
73031ION    NA+39440  25.776   8.241   3.782
73032ION    NA+39441  12.569   1.533   0.238
73033ION    NA+39442  42.574  26.528  12.632
73034ION    NA+39443  26.743  28.046  12.189
73035ION    NA+39444  32.415  44.943  12.786
73036ION    NA+39445  21.728  37.875   0.683
73037ION    NA+39446  39.158  14.250  11.069
73038ION    NA+39447  21.053  40.702  12.151
73039ION    NA+39448  25.445  11.797  12.954
73040ION    NA+39449  27.278  12.849   1.562
73041ION    NA+39450  12.667  35.965  13.093
73042ION    NA+39451   1.895   4.873   0.152
73043ION    NA+39452  22.086  42.935  14.666
73044ION    NA+39453  10.495   5.423   2.622
73045ION    NA+39454  21.283   4.089   0.797
73046ION    NA+39455  37.657  32.350   4.346
73047ION    NA+39456  16.720  25.982  11.000
73048ION    NA+39457  17.636  13.859   3.193
73049ION    NA+39458  22.652  13.692  10.221
73050ION    NA+39459  13.387  13.201  11.604
73051ION    NA+39460   7.730  39.002  13.472
73052ION    NA+39461  27.962  35.021   3.602
73053ION    NA+39462   8.997  11.229  12.391
73054ION    NA+39463   5.228  40.536   1.702
73055ION    NA+39464  17.735   2.251  12.941
73056ION    NA+39465   7.831   3.498  10.021
73057ION    NA+39466  23.203   6.443  14.767
73058ION    NA+39467  41.984   3.149   5.373
73059ION    NA+39468  35.462  18.028   3.169
73060ION    NA+39469   3.650  39.469   2.809
73061ION    NA+39470  14.695  40.488   2.337
73062ION    NA+39471  16.603  30.036  13.451
73063ION    NA+39472  14.345   1.097   0.781
73064ION    NA+39473  37.885  30.140   2.638
73065ION    NA+39474  25.204  18.643   0.198
73066ION    NA+39475  26.091   4.751  11.918
73067ION    NA+39476  36.044  12.499  14.062
73068ION    NA+39477   7.364  27.533   3.344
73069ION    NA+39478  39.734   8.519   4.075
73070ION    NA+39479  14.254  11.770  11.782
73071ION    NA+39480  23.025  13.665  13.191
73072ION    NA+39481  18.742  11.104  14.297
73073ION    NA+39482  16.352   6.331   4.988
73074ION    NA+39483  16.926  16.016   4.376
73075ION    NA+39484  37.342  38.300  10.762
73076ION    NA+39485  11.507   8.609  14.279
73077ION    NA+39486  40.674  23.700  14.625
73078ION    NA+39487  28.571   9.440   0.961
73079ION    NA+39488   6.363   4.146   1.070
73080ION    NA+39489  31.616  27.053  12.190
73081ION    NA+39490  23.491   3.888  13.910
73082ION    NA+39491  14.409   5.962  14.922
73083ION    NA+39492   1.709   1.758   0.047
73084ION    NA+39493  33.836  44.456  13.440
73085ION    NA+39494  18.643  20.819   3.066
73086ION    NA+39495  35.260  10.626  12.703
73087ION    NA+39496   7.031  38.176  11.684
73088ION    NA+39497   2.946  19.998  13.323
73089ION    NA+39498  42.375   6.947   1.757
73090ION    NA+39499  23.231  17.989   4.312
73091ION    NA+39500  32.733  15.332  12.277
73092ION    NA+39501  26.714  10.890  12.554
73093ION    NA+39502  20.763  19.292  14.294
73094ION    NA+39503   5.165   7.569   0.370
73095ION    NA+39504  29.168  10.218   0.765
73096ION    NA+39505   2.493  40.386  12.045
73097ION    NA+39506  16.814  19.108   1.784
73098ION    NA+39507  40.717   2.248  11.778
73099ION    NA+39508  21.124  19.768   0.096
73100ION    NA+39509  14.124  19.221  10.760
73101ION    NA+39510  41.102  18.229  14.698
73102ION    NA+39511  16.987   9.234  14.185
73103ION    NA+39512  34.872  30.767  12.463
73104ION    NA+39513   7.134  10.223  11.837
73105ION    NA+39514  44.818  39.948   4.328
73106ION    NA+39515   9.139  22.342   1.887
73107ION    NA+39516  18.017   7.328  11.472
73108ION    NA+39517  32.231  24.894   4.307
73109ION    NA+39518  30.608   9.992   2.707
73110ION    NA+39519  29.326  18.907   0.921
73111ION    NA+39520  28.527  24.249  12.858
73112ION    NA+39521  29.126  14.487   1.692
73113ION    NA+39522  44.968   9.828  14.869
73114ION    NA+39523  32.485  41.494   4.596
73115ION    NA+39524  29.647  24.698   3.616
73116ION    NA+39525   5.909   2.719   1.334
73117ION    NA+39526   9.358   8.905   3.818
73118ION    NA+39527  43.433  21.217  13.584
73119ION    NA+39528  39.299  17.394   4.236
73120ION    NA+39529   2.296   3.622  13.038
73121ION    NA+39530  44.805   1.007  10.825
73122ION    NA+39531  23.805  21.840   0.768
73123ION    NA+39532  28.451  26.756   3.300
73124ION    NA+39533  14.779   0.844  12.048
73125ION    NA+39534  18.484  27.428  14.156
73126ION    NA+39535  21.277  24.687   4.409
73127ION    NA+39536  33.473  28.617   2.393
73128ION    NA+39537  36.076  15.135   4.704
73129ION    NA+39538   2.684  15.950  10.735
73130ION    NA+39539  44.251  26.707   3.711
73131ION    NA+39540   7.415  44.629   1.981
73132ION    NA+39541  12.745   0.264   2.420
73133ION    NA+39542  39.932  38.122  12.175
73134ION    NA+39543  11.480  12.323  13.898
73135ION    NA+39544   3.349  11.701  14.810
73136ION    NA+39545  19.817  39.068  11.655
73137ION    NA+39546  20.039  23.991   0.308
73138ION    NA+39547  14.129  31.991  11.355
73139ION    NA+39548  32.348  40.911   3.182
73140ION    NA+39549  42.245   6.442   3.733
73141ION    NA+39550  29.671  26.660  11.089
73142ION    NA+39551   7.295  16.741   2.694
73143ION    NA+39552   3.506  40.177  13.897
73144ION    NA+39553   3.995   7.167   4.056
73145ION    NA+39554  21.276  28.224  13.283
73146ION    NA+39555  32.180   3.724  11.535
73147ION    NA+39556  13.319  12.798  10.569
73148ION    NA+39557  31.245  12.351   0.900
73149ION    NA+39558  20.041  10.888   0.326
73150ION    NA+39559  23.403  26.529   0.914
73151ION    NA+39560  32.569  14.125  12.147
73152ION    NA+39561   4.735  30.861   0.851
73153ION    NA+39562  33.498  32.503  14.396
73154ION    NA+39563  17.659  32.187   3.610
73155ION    NA+39564  17.564   8.088  11.006
73156ION    NA+39565  14.935   7.791   0.803
73157ION    NA+39566  29.556  32.659   4.361
73158ION    NA+39567  30.663  25.548  13.527
73159ION    NA+39568  18.009   2.473  13.985
73160ION    NA+39569  26.415  25.859   4.443
73161ION    NA+39570  10.878  17.693   1.824
73162ION    NA+39571  20.234  17.939   0.431
73163ION    NA+39572  38.675   5.461  11.176
73164ION    NA+39573   0.986   7.209   0.858
73165ION    NA+39574   0.984   7.581   3.046
73166ION    NA+39575   5.974  43.165   1.335
73167ION    NA+39576  25.423  27.369   1.911
73168ION    NA+39577  10.577  13.185   0.982
73169ION    NA+39578  34.047  15.083   1.314
73170ION    NA+39579  20.785   9.986   0.242
73171ION    NA+39580  44.943  44.834  14.269
73172ION    NA+39581  41.332  13.827   1.858
73173ION    NA+39582  19.581  34.030   4.283
73174ION    NA+39583  23.549  18.717  10.639
73175ION    NA+39584  29.331  27.372   2.257
73176ION    NA+39585  22.355  31.460  12.987
73177ION    NA+39586   1.544  10.418   3.829
73178ION    NA+39587  15.895  38.573  14.618
73179ION    NA+39588  25.184  39.940   3.830
73180ION    NA+39589  15.048  16.226  13.766
73181ION    NA+39590  11.064   4.613   2.481
73182ION    NA+39591  39.426   0.290  12.013
73183ION    NA+39592  12.859  24.495   1.164
73184ION    NA+39593  28.978  38.078  14.965
73185ION    CL-39594   8.269   4.461  10.615
73186ION    CL-39595  41.651  27.473  11.638
73187ION    CL-39596  16.025  38.150  14.496
73188ION    CL-39597  27.496   5.534   1.715
73189ION    CL-39598  26.719   4.951   1.477
73190ION    CL-39599   4.811  36.191   2.551
73191ION    CL-39600  11.861  39.673  14.311
73192ION    CL-39601  39.197  15.901   3.279
73193ION    CL-39602   4.538   6.135   3.606
73194ION    CL-39603  21.423  35.487   3.468
73195ION    CL-39604  39.606  29.685  13.093
73196ION    CL-39605   2.228   1.442  13.029
73197ION    CL-39606  32.034  14.839   4.848
73198ION    CL-39607  13.730  14.631   0.694
73199ION    CL-39608  42.472   7.892  13.943
73200ION    CL-39609  41.145  41.796   1.186
73201ION    CL-39610  40.443  19.121   0.136
73202ION    CL-39611  21.267   4.462   4.665
73203ION    CL-39612  20.088  19.635  10.378
73204ION    CL-39613   7.240  16.242  14.755
73205ION    CL-39614  25.923  35.140   2.947
73206ION    CL-39615  14.054  11.428  11.989
73207ION    CL-39616   8.632  14.797   2.085
73208ION    CL-39617  34.891  19.086   3.713
73209ION    CL-39618   7.610  24.283   2.775
73210ION    CL-39619  33.155  23.141  10.595
73211ION    CL-39620  21.764  17.708   0.962
73212ION    CL-39621  38.027  38.127  12.099
73213ION    CL-39622  26.050  36.563  11.571
73214ION    CL-39623  27.268   9.467  10.712
73215ION    CL-39624  38.323  33.991   0.078
73216ION    CL-39625  12.532  13.594   0.230
73217ION    CL-39626   1.095   1.451   4.654
73218ION    CL-39627  21.153  17.050  14.186
73219ION    CL-39628  38.405  43.626   0.769
73220ION    CL-39629  11.770  19.081  10.447
73221ION    CL-39630   4.952  44.313   1.821
73222ION    CL-39631  33.038  32.892   1.321
73223ION    CL-39632   8.897  40.422   4.132
73224ION    CL-39633   3.712  30.119  10.607
73225ION    CL-39634  13.744  21.212   0.400
73226ION    CL-39635  25.265  12.296  10.395
73227ION    CL-39636  44.715  32.862  12.971
73228ION    CL-39637  17.117  41.946  12.787
73229ION    CL-39638  44.180  22.620   0.322
73230ION    CL-39639  40.748  41.672   3.363
73231ION    CL-39640  21.659   5.176  14.408
73232ION    CL-39641  38.923  40.716  14.517
73233ION    CL-39642   9.705  20.790   3.714
73234ION    CL-39643  34.959  28.719  10.736
73235ION    CL-39644  37.853  11.553  10.767
73236ION    CL-39645  12.788  42.802  10.279
73237ION    CL-39646   1.565  19.806  11.258
73238ION    CL-39647   4.992  39.725   0.891
73239ION    CL-39648  24.942  17.639  10.728
73240ION    CL-39649  13.394  37.111  11.975
73241ION    CL-39650  11.950   4.409   4.590
73242ION    CL-39651  27.449  42.579  12.483
73243ION    CL-39652  12.483  42.012  13.447
73244ION    CL-39653  12.080  41.212  12.959
73245ION    CL-39654   4.853  15.782   4.974
73246ION    CL-39655  40.994  21.394  14.393
73247ION    CL-39656  37.329  20.854  11.545
73248ION    CL-39657  13.920  43.245   2.746
73249ION    CL-39658   5.610  30.682  12.580
73250ION    CL-39659  37.106  21.626   0.665
73251ION    CL-39660  11.969  22.059  14.382
73252ION    CL-39661   6.082  29.827  14.519
73253ION    CL-39662  43.443  32.101  13.998
73254ION    CL-39663   3.759  42.129   5.018
73255ION    CL-39664  43.731  37.549   2.787
73256ION    CL-39665  11.436  15.269  11.978
73257ION    CL-39666  16.463  31.332   3.361
73258ION    CL-39667  31.626   2.472  13.888
73259ION    CL-39668  17.297  17.736  10.354
73260ION    CL-39669  25.619  44.564   0.302
73261ION    CL-39670  26.682  21.593  12.481
73262ION    CL-39671  27.250   1.653  12.471
73263ION    CL-39672   0.235  22.761  14.377
73264ION    CL-39673  18.957  32.418   3.478
73265ION    CL-39674   8.719  16.587  13.928
73266ION    CL-39675  18.648  20.717  11.193
73267ION    CL-39676  27.588  33.480   3.310
73268ION    CL-39677  13.743  34.393   4.646
73269ION    CL-39678  26.755   4.588   3.421
73270ION    CL-39679  10.422  12.996   0.597
73271ION    CL-39680  40.431  41.454  12.041
73272ION    CL-39681  35.295  11.357  14.935
73273ION    CL-39682  40.005  26.870  11.202
73274ION    CL-39683  30.252  27.723  13.644
73275ION    CL-39684  15.035  44.011   2.436
73276ION    CL-39685  40.316  20.386   5.121
73277ION    CL-39686  14.738  23.122   4.176
73278ION    CL-39687   6.870   9.874  11.752
73279ION    CL-39688  21.947  11.513   3.241
73280ION    CL-39689   2.775   4.126   1.258
73281ION    CL-39690   4.694  21.473  11.611
73282ION    CL-39691  44.357  29.665   2.908
73283ION    CL-39692   4.688  19.275  12.950
73284ION    CL-39693   4.895  44.959  13.315
73285ION    CL-39694  27.142   1.666   2.428
73286ION    CL-39695  10.514   8.349   2.785
73287ION    CL-39696   4.402   9.875   1.557
73288ION    CL-39697  40.859   3.077   4.606
73289ION    CL-39698  39.285  23.055  12.471
73290ION    CL-39699  10.280  28.121  11.313
73291ION    CL-39700  25.436   1.539  11.983
73292ION    CL-39701  30.936  25.387  10.280
73293ION    CL-39702   8.466   9.196   4.394
73294ION    CL-39703  34.769  11.530   1.007
73295ION    CL-39704  23.111  20.432   0.407
73296ION    CL-39705  19.440  42.202  11.940
73297ION    CL-39706   3.190  22.880   4.931
73298ION    CL-39707  31.564   1.754   2.968
73299ION    CL-39708   6.664   3.982  13.601
73300ION    CL-39709   1.728  38.245  11.640
73301ION    CL-39710  33.434  28.022  11.231
73302ION    CL-39711   7.339  35.170  14.176
73303ION    CL-39712  33.645  29.442   5.110
73304ION    CL-39713  10.557  34.746   3.434
73305ION    CL-39714  41.043  19.248  11.944
73306ION    CL-39715  18.454  28.656   4.574
73307ION    CL-39716  28.642   3.773  10.008
73308ION    CL-39717   6.578  21.220   9.957
73309ION    CL-39718  42.384   3.336   3.324
73310ION    CL-39719  37.405  16.110   4.004
73311ION    CL-39720   9.679  25.107   2.157
73312ION    CL-39721  35.824   2.306  10.410
73313ION    CL-39722  38.837  11.076  12.377
73314ION    CL-39723  36.929   4.415   2.697
73315ION    CL-39724  44.546   8.270  11.368
73316ION    CL-39725  33.344  22.977   3.538
73317ION    CL-39726  24.218  30.490   0.452
73318ION    CL-39727  34.093   2.275   0.299
73319ION    CL-39728   1.190  22.043   1.931
73320ION    CL-39729  21.122   8.692  14.007
73321ION    CL-39730  38.243   5.758   4.477
73322ION    CL-39731  13.095   8.830   0.991
73323ION    CL-39732  13.140  25.678   3.397
73324ION    CL-39733  11.902  13.752  10.402
73325ION    CL-39734   9.596  32.410   0.727
73326ION    CL-39735  42.241  39.655  13.092
73327ION    CL-39736  28.912   0.506   3.801
73328ION    CL-39737  23.181  38.396   3.093
73329ION    CL-39738  18.090  36.026   4.383
73330ION    CL-39739  10.033  12.954   1.857
73331ION    CL-39740  24.348  32.227   5.043
73332ION    CL-39741  42.921  12.178   4.278
73333ION    CL-39742   6.430  15.841   3.718
73334ION    CL-39743  43.434  42.717   1.431
73335ION    CL-39744  21.875  42.543  14.606
73336ION    CL-39745  12.646  32.903   2.363
73337ION    CL-39746  11.621  15.360   0.612
73338ION    CL-39747  17.531   3.496  14.911
73339ION    CL-39748  42.882  32.850   1.609
73340ION    CL-39749  25.162  17.011  13.072
73341ION    CL-39750  42.391  39.744   1.756
73342ION    CL-39751  40.857  40.849   2.806
73343ION    CL-39752   0.032  18.219  11.608
73344ION    CL-39753  33.739  32.143  14.262
73345ION    CL-39754  24.100   4.629   3.195
73346ION    CL-39755  16.332  34.271  10.831
73347ION    CL-39756  26.844  33.172  10.978
73348ION    CL-39757  31.392  20.344  14.446
73349ION    CL-39758   4.176   4.861  11.188
73350ION    CL-39759   0.563  13.292   2.054
73351ION    CL-39760   4.381  24.625   9.760
73352ION    CL-39761  21.852  21.916   3.439
73353ION    CL-39762  15.311  34.233   3.647
73354ION    CL-39763   6.664  11.160  12.848
73355ION    CL-39764  31.475  28.613  12.520
73356ION    CL-39765  11.885  24.628  14.697
73357ION    CL-39766   4.598   8.062   1.266
73358ION    CL-39767  26.341   8.969   0.901
73359ION    CL-39768  30.072  41.341   3.218
73360ION    CL-39769   6.516  16.047   1.511
73361ION    CL-39770   2.979  13.590  13.899
73362ION    CL-39771  10.616  14.648   5.132
73363ION    CL-39772   9.769   4.910  13.784
73364ION    CL-39773  27.532  28.212  13.372
73365ION    CL-39774  15.775  25.952   1.965
73366ION    CL-39775   7.101   3.348   4.096
73367ION    CL-39776  37.216  38.057   2.364
73368ION    CL-39777   3.044  42.268  13.949
73369ION    CL-39778  32.780  15.497  12.699
73370ION    CL-39779  20.668   0.692  12.543
73371ION    CL-39780  39.920  19.595   0.866
73372ION    CL-39781  10.158  29.981  12.600
73373ION    CL-39782  28.959  43.411  10.684
73374ION    CL-39783  35.088   4.711   4.610
73375ION    CL-39784  13.877  43.091  12.613
73376ION    CL-39785  31.673  15.768  11.802
73377ION    CL-39786  32.227  21.061   1.706
73378ION    CL-39787  33.760   7.072  12.477
73379ION    CL-39788  23.689  16.525  13.826
73380ION    CL-39789   8.920  25.564   4.131
73381ION    CL-39790   2.408  19.152   2.206
73382ION    CL-39791  19.009  32.400  14.273
73383ION    CL-39792  39.585  39.567   3.843
73384ION    CL-39793  18.970  41.831  14.183
73385ION    CL-39794   0.695  24.569  11.129
73386ION    CL-39795  44.188  43.526   4.078
73387ION    CL-39796  12.363  17.673   1.088
73388ION    CL-39797  13.774   1.250  14.372
73389ION    CL-39798   4.992   3.619   4.838
73390ION    CL-39799  14.914  44.997  12.702
73391ION    CL-39800  35.503   2.022   4.901
73392ION    CL-39801  11.618  32.692  13.066
73393ION    CL-39802  37.078  17.375   0.625
73394ION    CL-39803  38.067  12.542  14.371
73395ION    CL-39804  28.823  33.786   1.175
73396ION    CL-39805  22.080  22.367  12.199
73397ION    CL-39806  39.316  15.829  14.105
73398ION    CL-39807  36.085  40.851   0.764
73399ION    CL-39808   4.085   2.711   0.002
73400ION    CL-39809  33.260  35.202   2.141
73401ION    CL-39810  31.431  23.759   2.710
73402ION    CL-39811  39.567  44.196   4.944
73403ION    CL-39812   5.805  33.268  11.864
73404ION    CL-39813  16.146  12.011   4.394
73405ION    CL-39814  26.658  18.653   1.812
73406ION    CL-39815  26.058  36.047   1.511
73407ION    CL-39816   6.622   5.463  12.469
73408ION    CL-39817  29.287  16.895   0.316
73409ION    CL-39818   8.704  37.626  11.654
73410ION    CL-39819  35.317   0.606   4.944
73411ION    CL-39820  36.244   4.278  12.096
73412ION    CL-39821  19.593  16.490   3.882
73413ION    CL-39822  32.269  38.670  12.337
73414ION    CL-39823  36.549  22.710  12.537
73415ION    CL-39824  43.008  41.426  10.347
73416ION    CL-39825  40.475  11.008  11.337
73417ION    CL-39826  18.704  11.731  12.586
73418ION    CL-39827  36.703  17.899   3.738
73419ION    CL-39828  27.033  13.200   1.404
73420ION    CL-39829   8.400  12.155   3.298
73421ION    CL-39830  26.381  10.077   3.087
73422ION    CL-39831   1.715   1.311   0.145
73423ION    CL-39832  14.307  17.490  11.942
73424ION    CL-39833  40.364   0.500   0.095
73425ION    CL-39834  29.396   8.583   0.487
73426ION    CL-39835  14.250   0.150   2.802
73427ION    CL-39836  38.631  36.417   0.459
73428ION    CL-39837  30.974   0.084  10.252
73429ION    CL-39838  23.712  36.423  14.854
73430ION    CL-39839   6.971  20.245   2.822
73431ION    CL-39840   7.272   2.984   2.748
73432ION    CL-39841  39.659  11.900  10.810
73433ION    CL-39842  29.614  20.759  10.372
73434ION    CL-39843  35.557  43.507   0.800
73435ION    CL-39844  42.584  23.162  11.241
73436ION    CL-39845  19.671   6.005   4.968
73437ION    CL-39846  44.757  35.676   4.654
73438ION    CL-39847  25.615  27.389   2.343
73439ION    CL-39848  33.398  28.087   9.915
73440ION    CL-39849   3.997  41.263  11.980
73441ION    CL-39850  31.447  37.823  14.034
73442ION    CL-39851   3.504  35.133  14.472
73443ION    CL-39852  29.905   1.534   1.318
73444ION    CL-39853  32.861  27.465  11.662
73445ION    CL-39854  19.029   1.626   3.805
73446ION    CL-39855  40.938  10.154  11.574
73447ION    CL-39856  29.118  43.093   2.879
73448ION    CL-39857  44.273  35.977   1.970
73449ION    CL-39858  29.099  38.031  10.679
73450ION    CL-39859  27.644   2.160  13.090
73451ION    CL-39860  32.533  12.137  14.365
73452ION    CL-39861   0.555   6.670  13.810
73453ION    CL-39862  41.664   8.166   0.463
73454ION    CL-39863  31.870  18.377   3.759
73455ION    CL-39864  29.669   0.664   9.924
73456ION    CL-39865  37.979  29.235  12.449
73457ION    CL-39866  37.747   4.480  12.903
73458ION    CL-39867  20.146   6.525   0.434
73459ION    CL-39868  40.249  11.315   3.183
73460ION    CL-39869  34.396   3.304  12.564
73461ION    CL-39870  30.953  15.595  11.301
73462ION    CL-39871  21.171  28.114   4.881
73463ION    CL-39872  19.080  18.762  13.969
73464ION    CL-39873  12.268  31.963  13.925
73465ION    CL-39874  14.326  33.578   1.010
73466ION    CL-39875  24.044  11.783  12.497
73467ION    CL-39876  29.252  16.614   2.971
73468ION    CL-39877  11.891  11.698   3.116
73469ION    CL-39878  14.841  28.983   5.101
73470ION    CL-39879   5.705  42.833  13.365
73471ION    CL-39880  14.009  36.267   5.103
73472ION    CL-39881  38.609  26.082   1.262
73473ION    CL-39882  33.580  30.978   2.917
73474ION    CL-39883   7.894   8.189   5.053
73475ION    CL-39884  38.024  39.945  13.858
73476ION    CL-39885   9.216   6.321  13.285
73477ION    CL-39886  19.213  20.712   4.687
73478ION    CL-39887  36.853  23.195  11.135
73479ION    CL-39888  35.927  27.193  12.574
73480ION    CL-39889  27.012  34.528  14.382
73481ION    CL-39890  15.359  41.039   0.459
73482ION    CL-39891  26.466  24.543   2.512
73483ION    CL-39892  30.577  41.776  12.978
73484ION    CL-39893  13.147  42.842  13.059
73485ION    CL-39894  23.092  11.549   3.620
73486ION    CL-39895  22.415  19.302   0.546
73487ION    CL-39896   1.198  32.059   3.460
73488ION    CL-39897  17.349   9.894  13.114
73489ION    CL-39898  30.976   2.752  14.473
73490ION    CL-39899   5.407  44.296  11.051
73491ION    CL-39900  33.831  26.674   4.154
73492ION    CL-39901  12.148  24.620  10.948
73493ION    CL-39902   9.414  31.961  14.120
73494ION    CL-39903  28.679  42.576  12.000
73495ION    CL-39904  40.627  36.575  13.062
73496ION    CL-39905  10.975  28.224   9.805
73497ION    CL-39906   7.503   2.520   5.025
73498ION    CL-39907  17.540  44.754  14.005
73499ION    CL-39908   2.396  15.439  14.963
73500ION    CL-39909   6.091  33.321   5.052
73501ION    CL-39910  15.329  17.672  12.024
73502ION    CL-39911  21.527  38.363  12.898
73503ION    CL-39912  24.740   7.427   0.392
73504ION    CL-39913  31.356  33.074  13.111
73505ION    CL-39914   4.845  32.300  14.411
73506ION    CL-39915  22.176  43.372   1.826
73507ION    CL-39916  41.333  23.717  13.022
73508ION    CL-39917   7.606   6.172  11.124
73509ION    CL-39918  40.012  20.690   0.705
73510ION    CL-39919  39.125  30.844  11.939
73511ION    CL-39920  22.103   4.657  11.024
73512ION    CL-39921  27.137  18.824  10.654
73513ION    CL-39922   6.650  14.937  14.070
73514ION    CL-39923   3.221  12.344   3.405
73515ION    CL-39924  22.894  22.180  13.014
73516ION    CL-39925   0.477   1.394   1.914
73517ION    CL-39926  21.390  36.085  12.075
73518ION    CL-39927  40.079  25.977   1.551
73519ION    CL-39928  10.100  41.144   0.713
73520ION    CL-39929  16.126  38.471  12.926
73521ION    CL-39930  18.856  25.246   4.658
73522ION    CL-39931  11.793  42.136  14.896
73523ION    CL-39932  38.561   7.348  12.070
73524ION    CL-39933  39.854  10.145   1.873
73525ION    CL-39934  25.196  22.378  13.030
73526ION    CL-39935  26.435  30.404   9.569
73527ION    CL-39936  13.920  12.079   3.694
73528ION    CL-39937   6.518  43.104  14.885
73529ION    CL-39938  12.933  42.024   0.172
73530ION    CL-39939  42.954  42.244  14.392
73531ION    CL-39940   4.315  16.475   4.997
73532ION    CL-39941  38.332  27.943   2.032
73533ION    CL-39942  32.604  14.018  14.709
73534ION    CL-39943  37.863   0.520   1.349
73535ION    CL-39944   2.790  40.856  14.912
73536ION    CL-39945  30.468  11.157  13.120
73537ION    CL-39946  11.433  18.889   4.302
73538ION    CL-39947  25.817   0.930  11.114
73539ION    CL-39948  13.516  30.271   2.651
73540ION    CL-39949  22.837  18.192   4.375
73541ION    CL-39950  13.210  10.510   2.686
73542ION    CL-39951  12.615  33.820  13.355
73543ION    CL-39952   9.847  15.281   4.972
73544ION    CL-39953  18.541   4.724  11.714
73545ION    CL-39954  43.216   4.141   3.503
73546ION    CL-39955  33.073  21.143   2.988
73547ION    CL-39956  40.619  20.330  10.790
73548ION    CL-39957  13.118  17.554   0.590
73549ION    CL-39958  20.057   3.271  12.046
73550ION    CL-39959  40.297   7.288   1.224
73551ION    CL-39960   6.720  13.798   1.383
73552ION    CL-39961  18.855  20.604   3.394
73553ION    CL-39962  30.350  19.681   0.886
73554ION    CL-39963  10.641  22.372  13.504
73555ION    CL-39964  34.722  21.050   1.607
73556ION    CL-39965   3.352  14.453  14.476
73557ION    CL-39966   5.806  12.126   1.657
73558ION    CL-39967  11.754  27.522  12.898
73559ION    CL-39968   3.805  14.039   1.035
73560ION    CL-39969  31.962  12.797   4.345
73561ION    CL-39970  24.056  13.752   2.934
73562ION    CL-39971  39.026  10.054  13.317
73563ION    CL-39972  41.946   3.946   0.053
73564ION    CL-39973  21.873  15.596  11.301
73565ION    CL-39974  39.921  16.808  13.271
73566ION    CL-39975  31.026   8.929   0.728
73567ION    CL-39976  31.184   7.836   2.275
73568ION    CL-39977  22.686  10.620   2.486
73569ION    CL-39978  31.731  38.615   0.844
73570ION    CL-39979  24.030  20.799   2.439
73571ION    CL-39980   2.282  33.277   1.189
73572ION    CL-39981  10.428  38.498   1.814
73573ION    CL-39982  18.580  10.371  12.703
73574ION    CL-39983  35.417  30.127   3.702
73575ION    CL-39984  14.784  37.076  14.104
73576ION    CL-39985  39.104  34.566   3.346
73577ION    CL-39986  44.371   4.896  14.387
73578ION    CL-39987  10.581  14.082  11.787
73579ION    CL-39988  16.311  16.216  13.715
73580ION    CL-39989  23.052   3.820   1.544
73581ION    CL-39990  12.355  39.756   2.707
73582ION    CL-39991   2.808  33.891   2.556
73583ION    CL-39992  37.731  37.113   3.304
73584ION    CL-39993  21.003  18.938  14.432
73585ION    CL-39994  23.266  25.752   3.751
73586ION    CL-39995  12.716   3.973   0.399
73587ION    CL-39996  25.911  14.051  10.954
73588ION    CL-39997  33.656   3.186  14.349
73589ION    CL-39998  29.905  24.679   3.240
73590ION    CL-39999   3.229  44.582   2.630
73591ION    CL-40000  43.277   5.015   3.252
73592ION    CL-40001  26.068   3.949  11.217
73593ION    CL-40002  18.529  35.443   2.240
73594ION    CL-40003  42.614  25.891   0.401
73595ION    CL-40004  32.222   8.644   9.755
73596ION    CL-40005  18.289  27.285  10.898
73597ION    CL-40006  30.945  34.888   2.419
73598ION    CL-40007  32.836   1.307  12.033
73599ION    CL-40008   0.652  43.966  12.864
73600ION    CL-40009  40.285   2.048   2.295
73601ION    CL-40010  22.162  21.437  11.838
73602ION    CL-40011  36.096  32.128   4.028
73603ION    CL-40012  10.587   9.828   1.820
73604ION    CL-40013  17.321   0.069   9.983
73605ION    CL-40014  38.851   5.427   2.340
73606ION    CL-40015  25.248  24.523   3.793
73607ION    CL-40016  16.373   2.084  13.073
73608ION    CL-40017   2.281   9.740   4.658
73609ION    CL-40018  40.305  15.939  11.131
73610ION    CL-40019  17.221  32.685  12.739
73611ION    CL-40020  22.386  40.621  11.320
73612ION    CL-40021  12.119  10.624   3.744
73613ION    CL-40022  26.244  10.849   2.737
73614ION    CL-40023  42.842  12.322  14.049
73615ION    CL-40024  43.603   3.222  10.860
73616ION    CL-40025   7.495  29.769   2.985
73617ION    CL-40026  17.090  27.641  14.899
73618ION    CL-40027  17.913  33.759  10.336
73619ION    CL-40028   3.238  12.103  14.969
73620ION    CL-40029  10.025   3.277  12.001
73621ION    CL-40030  41.572  29.869  12.968
73622ION    CL-40031  41.877   1.365   2.123
73623ION    CL-40032  34.225  27.381  11.237
73624ION    CL-40033  29.114  26.184   0.647
73625ION    CL-40034   5.274  18.441   2.483
73626ION    CL-40035  36.422  34.771  12.486
73627ION    CL-40036  42.854  18.491  14.499
73628ION    CL-40037  26.588  27.676  12.405
73629ION    CL-40038  23.492   7.929  11.984
73630ION    CL-40039  16.120  10.779   2.565
73631ION    CL-40040  30.224  22.405  11.920
73632ION    CL-40041  37.669   6.103   2.869
73633ION    CL-40042  44.533  12.843  12.218
73634ION    CL-40043  41.450  37.239  11.679
73635ION    CL-40044  25.572  12.563  14.364
73636ION    CL-40045  25.922  42.203   1.287
73637ION    CL-40046  33.306   4.999  13.658
73638ION    CL-40047  37.288  39.897  11.477
73639ION    CL-40048  35.026  16.478   4.930
73640ION    CL-40049  13.096  35.537  10.103
73641ION    CL-40050  23.557  23.473  11.927
73642ION    CL-40051  38.799   0.776   0.510
73643ION    CL-40052  44.297  17.630  14.070
73644ION    CL-40053  12.880  33.368  11.521
73645ION    CL-40054  38.567  13.613   2.395
73646ION    CL-40055  12.894  31.335  13.457
73647ION    CL-40056  41.036  28.145   1.362
73648ION    CL-40057  31.617  38.934  13.438
73649ION    CL-40058  37.763   9.358   2.172
73650ION    CL-40059  27.899  10.980  14.338
73651ION    CL-40060   4.618  29.921   3.857
73652ION    CL-40061  42.087   5.338  11.468
73653ION    CL-40062  39.187  38.185  10.745
73654ION    CL-40063  23.330  25.470  14.125
73655ION    CL-40064  32.611   6.694  11.546
73656ION    CL-40065  15.188  36.026  13.505
73657ION    CL-40066  23.072  19.030  14.189
73658ION    CL-40067  44.733   5.282  11.630
73659ION    CL-40068  21.287  14.214   4.885
73660ION    CL-40069  21.189   6.023  13.113
73661ION    CL-40070  31.507  42.284  13.966
73662ION    CL-40071  17.521  37.112  14.369
73663ION    CL-40072  26.648   5.797   9.993
73664ION    CL-40073  24.676  29.594   1.977
73665ION    CL-40074  26.157  14.848  11.505
73666ION    CL-40075   9.721  21.447  13.974
73667ION    CL-40076  27.103  30.806  12.716
73668ION    CL-40077  15.971  12.962  12.458
73669ION    CL-40078  16.603  20.824   0.817
73670ION    CL-40079  15.166  21.647  13.003
73671ION    CL-40080   0.298  21.083   0.537
73672ION    CL-40081  22.215  29.746   4.874
73673ION    CL-40082  25.965  41.388  12.740
73674ION    CL-40083   2.107  27.079   2.843
73675ION    CL-40084   9.630  30.709   0.872
73676ION    CL-40085  39.248  30.994  12.797
73677ION    CL-40086  16.719  30.188   2.457
73678ION    CL-40087   9.549  25.933  12.592
73679ION    CL-40088  40.614  31.143   1.297
73680ION    CL-40089  15.307  29.894   2.695
73681ION    CL-40090   1.329  36.971  12.432
73682ION    CL-40091   8.056  35.289  11.553
73683ION    CL-40092  32.282  35.308   0.135
73684ION    CL-40093  16.832  29.661  11.311
73685ION    CL-40094  29.164  11.060   4.536
73686ION    CL-40095   0.548   0.496   0.500
73687ION    CL-40096  13.065   2.057   1.601
73688ION    CL-40097  34.639  12.589  13.852
73689ION    CL-40098  17.075  17.053  10.714
73690ION    CL-40099  15.848  35.076   3.627
73691ION    CL-40100  32.800  14.221  13.829
73692ION    CL-40101  40.968  28.772   5.108
73693ION    CL-40102  13.162  27.254   2.646
73694ION    CL-40103   0.790  21.232  12.759
73695ION    CL-40104  15.135   3.871   1.861
73696ION    CL-40105  39.954   3.902   1.898
73697ION    CL-40106  26.153  40.543  11.721
73698ION    CL-40107  18.159  30.642   3.104
73699ION    CL-40108  15.192  14.845  13.661
73700ION    CL-40109  37.459  22.474  11.472
73701ION    CL-40110  25.997  35.791  14.932
73702ION    CL-40111   5.678   9.281  13.080
73703ION    CL-40112  33.536  34.337  10.753
73704ION    CL-40113  42.183  33.817  11.859
73705ION    CL-40114  28.420  24.572   0.514
73706ION    CL-40115   2.800  34.698   0.034
73707ION    CL-40116  10.091  12.565   9.848
73708ION    CL-40117  26.281  21.987   3.426
73709ION    CL-40118  14.767  42.952   0.461
73710ION    CL-40119  38.788  44.708   4.583
73711ION    CL-40120   6.415  16.154  11.185
73712ION    CL-40121  28.988  33.879  14.752
73713ION    CL-40122   3.930   1.388  11.466
73714ION    CL-40123  43.589  19.207  14.287
73715ION    CL-40124  36.859  32.639   0.749
73716ION    CL-40125  42.460  41.527  12.771
73717ION    CL-40126  42.240   0.042  11.557
73718ION    CL-40127  37.206  12.008   5.020
73719ION    CL-40128  44.449  39.733  13.405
73720ION    CL-40129  18.869  13.700   4.053
73721ION    CL-40130   2.460  21.509  13.332
73722ION    CL-40131  37.620  41.649   0.285
73723ION    CL-40132   1.758  29.139  12.008
73724ION    CL-40133   0.766  21.556   4.923
73725ION    CL-40134  42.354  20.875   4.530
73726ION    CL-40135  37.399  28.207  10.705
73727ION    CL-40136  16.441  10.735   1.195
73728ION    CL-40137  34.167  23.548   2.254
73729ION    CL-40138  23.537  23.875   4.535
73730ION    CL-40139  17.595  38.556   4.144
73731ION    CL-40140  41.791  27.350  13.390
73732ION    CL-40141  29.317  16.954   2.023
73733ION    CL-40142  28.937   3.026  13.116
73734ION    CL-40143   7.432   9.279   1.246
73735ION    CL-40144  38.309  28.191   3.001
73736ION    CL-40145  12.565  35.600  12.854
73737ION    CL-40146  34.901  12.014   3.621
73738ION    CL-40147  18.525   2.816  10.734
73739ION    CL-40148  28.574   7.744  12.608
73740ION    CL-40149   6.745  30.134  12.653
73741ION    CL-40150  34.414  15.431  12.724
73742ION    CL-40151  15.766   1.318  12.860
73743ION    CL-40152  28.741  17.036   4.255
73744ION    CL-40153  23.841   3.667   0.650
73745ION    CL-40154  44.590  32.159  11.397
73746ION    CL-40155  10.704  43.394   2.779
73747ION    CL-40156  22.306  21.095   9.977
73748ION    CL-40157  38.784  14.599   1.895
73749ION    CL-40158  44.754  36.090  14.655
73750ION    CL-40159  23.101  41.826   0.056
73751ION    CL-40160   6.394   4.032   1.503
73752ION    CL-40161  35.637   5.547   3.645
73753ION    CL-40162  22.162   8.533   2.834
73754ION    CL-40163   8.979  31.614   4.223
73755ION    CL-40164   3.311  30.202   1.356
73756ION    CL-40165   6.448   2.648  11.814
73757ION    CL-40166  19.072  27.238   2.647
73758ION    CL-40167   9.868  21.654  11.227
73759ION    CL-40168  18.443  42.194  12.094
73760ION    CL-40169   3.397  39.482  13.651
73761ION    CL-40170  39.392  14.631  12.179
73762ION    CL-40171  28.412  33.641  11.754
73763ION    CL-40172   2.507  22.278  13.970
73764ION    CL-40173  31.262   9.807  13.417
73765ION    CL-40174  27.283  35.412  10.859
73766ION    CL-40175  33.491   0.791   3.491
73767ION    CL-40176   5.556  16.647  13.527
73768ION    CL-40177  43.429  41.348   4.131
73769ION    CL-40178   9.840  43.566   3.253
73770ION    CL-40179  30.052  43.516   2.774
73771ION    CL-40180  14.373   2.327  11.562
73772ION    CL-40181  27.772   0.113  10.819
73773ION    CL-40182  41.436   9.452   1.483
73774ION    CL-40183  26.142   0.057   4.060
73775ION    CL-40184  42.995   3.846  11.611
73776ION    CL-40185  20.848   6.309  14.075
73777ION    CL-40186  31.933  20.769   4.945
73778ION    CL-40187  20.675  14.404   3.660
73779ION    CL-40188  23.079  23.863   0.843
73780ION    CL-40189  25.745  11.584  10.934
73781ION    CL-40190  11.937  30.641   3.349
73782ION    CL-40191  23.154  43.080  12.857
73783ION    CL-40192  32.616   2.747   0.292
73784ION    CL-40193  29.681  39.493  11.997
73785ION    CL-40194  34.946  35.276   4.714
73786ION    CL-40195  26.431  42.440   0.356
73787ION    CL-40196   8.798  41.905   1.963
73788ION    CL-40197   5.818  35.181  12.549
73789ION    CL-40198  35.072  28.465   0.749
73790ION    CL-40199   2.904  26.913   2.991
73791ION    CL-40200   1.784  30.994   1.030
73792ION    CL-40201  18.204  35.431   5.178
73793ION    CL-40202   6.244  23.896   0.797
73794ION    CL-40203  26.651  38.557  11.153
73795ION    CL-40204  18.308  18.995   3.463
73796ION    CL-40205  12.138  22.517   2.707
73797ION    CL-40206  23.765  20.581  10.631
73798ION    CL-40207  15.168  24.025   4.186
73799ION    CL-40208   9.597  12.186  13.014
73800ION    CL-40209   9.237  29.170   2.266
73801ION    CL-40210  21.046  42.342   3.526
73802ION    CL-40211  26.315   9.863  11.657
73803ION    CL-40212  18.679   2.262   0.433
73804ION    CL-40213  28.983  15.678   9.920
73805ION    CL-40214  11.266   5.333  12.505
73806ION    CL-40215   3.844  35.653   1.717
73807ION    CL-40216  21.558  11.918  13.038
73808ION    CL-40217   9.652   3.911   3.613
73809ION    CL-40218  13.354  12.828   3.171
73810ION    CL-40219  19.703  28.865  13.077
73811ION    CL-40220  10.254  32.417   1.951
73812ION    CL-40221   9.161  10.864   2.928
73813ION    CL-40222  21.785  20.109  12.017
73814ION    CL-40223   6.144  19.103  14.536
73815ION    CL-40224  27.477  27.322  13.824
73816ION    CL-40225  11.031  43.086  13.271
73817ION    CL-40226  35.500  32.547  14.957
73818ION    CL-40227  38.409  30.185  12.697
73819ION    CL-40228   1.950  42.484  13.263
73820ION    CL-40229  40.962  30.924  12.450
73821ION    CL-40230  27.472  27.505  12.841
73822ION    CL-40231  27.076   4.880  11.754
73823ION    CL-40232  18.664  34.874  13.913
73824ION    CL-40233  36.146  35.977  10.734
73825ION    CL-40234  24.103  35.009  13.679
73826ION    CL-40235  16.098   3.178  13.204
73827ION    CL-40236  41.593  22.299   3.303
73828ION    CL-40237  39.846   7.407  11.603
73829ION    CL-40238   7.799  25.456   3.744
73830ION    CL-40239  16.298  23.798   4.713
73831ION    CL-40240  38.794  15.533   2.355
73832ION    CL-40241  38.927  27.386   3.246
73833ION    CL-40242  43.108   9.270  14.142
73834ION    CL-40243   2.995   8.155  11.426
73835ION    CL-40244  19.125   7.577   1.120
73836ION    CL-40245  44.331   2.138   4.686
73837ION    CL-40246   5.744  42.191   0.290
73838ION    CL-40247  43.497  41.769   3.164
73839ION    CL-40248  10.904  11.505  12.720
73840ION    CL-40249  43.439   0.655  13.260
73841ION    CL-40250  33.353   0.815   2.599
73842ION    CL-40251  13.841   1.841  10.157
73843ION    CL-40252   7.788  31.639  12.475
73844ION    CL-40253  44.846   6.452  11.049
73845ION    CL-40254   4.359   6.833   2.701
73846ION    CL-40255   0.045  39.675  11.622
73847ION    CL-40256  10.621  44.696  13.513
73848ION    CL-40257  33.230  25.557   2.722
73849ION    CL-40258  28.678   3.730  11.225
73850ION    CL-40259  28.973  40.158   3.153
73851ION    CL-40260   9.454  20.698  12.912
73852ION    CL-40261  35.125  32.762  12.292
73853ION    CL-40262  13.269  28.343   0.133
73854ION    CL-40263   0.536  31.856  11.523
73855ION    CL-40264  20.875   3.831  11.889
73856ION    CL-40265  21.619  24.530   2.234
73857ION    CL-40266  26.105  33.846   4.309
73858ION    CL-40267  44.619  39.791   3.959
73859ION    CL-40268  23.248  33.700   0.557
73860ION    CL-40269  22.194  13.757  10.219
73861ION    CL-40270  15.077  14.799  11.047
73862ION    CL-40271  17.185   5.453   2.221
73863ION    CL-40272  22.040  25.750  14.468
73864ION    CL-40273   0.025  10.144   2.610
73865ION    CL-40274  18.957  44.924  14.314
73866ION    CL-40275  25.400  12.095  11.721
73867ION    CL-40276  44.910  42.343  11.083
73868ION    CL-40277   5.109  27.732  12.249
73869ION    CL-40278   4.992  20.446   1.257
73870ION    CL-40279   3.375  15.693  13.812
73871ION    CL-40280  13.034  13.576  14.366
73872ION    CL-40281   2.266  21.539  14.600
73873ION    CL-40282   2.441   5.829   1.031
73874ION    CL-40283  27.490  24.772   3.870
73875ION    CL-40284   0.433  27.548  13.551
73876ION    CL-40285   0.515  13.833  11.035
73877ION    CL-40286  37.435  31.109  13.877
73878ION    CL-40287  30.331   6.595   4.478
73879ION    CL-40288  27.425   9.392   1.151
73880ION    CL-40289  19.897   9.024  13.989
73881ION    CL-40290  37.733  12.975   1.483
73882ION    CL-40291  10.132  34.366   4.256
73883ION    CL-40292  28.490  20.544  13.178
73884ION    CL-40293  15.439  43.650  12.274
73885ION    CL-40294  13.667   6.527   2.557
73886ION    CL-40295  20.884   2.758   1.067
73887ION    CL-40296  11.745   3.698   4.088
73888ION    CL-40297  12.834  14.582   1.647
73889ION    CL-40298  19.684  22.750   1.889
73890ION    CL-40299  15.824  27.921   2.120
73891ION    CL-40300  19.250  20.015  12.942
73892ION    CL-40301  22.031  32.482  14.153
73893ION    CL-40302  17.969   7.975   3.074
73894ION    CL-40303  34.001  44.857  13.587
73895ION    CL-40304   1.036  38.868  11.276
73896ION    CL-40305  20.250  32.977   3.791
73897ION    CL-40306  39.000  34.552  14.066
73898ION    CL-40307   8.487  14.214   9.713
73899ION    CL-40308   0.864  26.312  13.849
73900ION    CL-40309  40.253  10.883  13.898
73901ION    CL-40310  18.992  25.244  10.760
73902ION    CL-40311  36.643  43.453   3.194
73903ION    CL-40312  34.707  41.897   2.017
73904ION    CL-40313  33.239  26.784   3.328
73905ION    CL-40314  17.810  41.548  13.639
73906ION    CL-40315  39.818  44.323   1.579
73907ION    CL-40316  41.024  11.757  13.377
73908ION    CL-40317  16.609  43.406   3.197
73909ION    CL-40318  34.947   5.088   3.086
73910ION    CL-40319  10.006  18.984  11.638
73911ION    CL-40320   1.485  26.216   4.959
73912ION    CL-40321  13.298  12.516   0.695
73913ION    CL-40322  24.254  10.055   0.970
73914ION    CL-40323  32.826  36.044   1.582
73915ION    CL-40324   9.283  39.066  10.103
73916ION    CL-40325  40.646  33.785  14.702
73917ION    CL-40326  31.317   8.762   1.922
73918ION    CL-40327  20.748  29.150  12.151
73919ION    CL-40328  29.688  27.614  12.622
73920ION    CL-40329  25.494  26.968   1.668
73921ION    CL-40330   9.078  11.283   0.336
73922ION    CL-40331  44.341  11.618   2.186
73923ION    CL-40332  30.558  31.770   3.196
73924ION    CL-40333   9.283  30.003  14.934
73925ION    CL-40334  20.013  25.255  13.839
73926ION    CL-40335  20.307  14.877  14.974
73927ION    CL-40336   1.765  23.241   1.728
73928ION    CL-40337  13.939  30.399  14.278
73929ION    CL-40338  14.426   0.663   0.647
73930ION    CL-40339  31.140  31.899   0.854
73931ION    CL-40340   6.766  11.246   2.666
73932ION    CL-40341  32.586  19.086   3.670
73933ION    CL-40342   3.278   1.117   5.085
73934ION    CL-40343  41.946   2.416   4.115
73935ION    CL-40344  27.731  36.226  10.841
73936ION    CL-40345  42.033  16.546   4.207
73937ION    CL-40346  31.446  12.350   1.299
73938ION    CL-40347   2.558   7.695   0.335
73939ION    CL-40348   2.958  35.863   1.304
73940ION    CL-40349  30.943  37.665  13.569
73941ION    CL-40350  17.187  11.442   1.964
73942ION    CL-40351   2.830   2.682  11.246
73943ION    CL-40352  18.738   5.518   5.092
73944ION    CL-40353   3.123   4.333  13.532
73945ION    CL-40354  18.834   6.526  10.550
73946ION    CL-40355  40.197   5.328  12.823
73947ION    CL-40356  24.108  29.751   1.169
73948ION    CL-40357  18.890  34.388   0.317
73949ION    CL-40358  21.696  34.812  10.776
73950ION    CL-40359   1.809  18.501  11.090
73951ION    CL-40360  44.491  23.836   2.262
73952ION    CL-40361  29.070  28.392  12.509
73953ION    CL-40362  26.018  25.649   4.519
73954ION    CL-40363  28.166  19.562   2.735
73955ION    CL-40364   2.762  15.766  11.134
73956ION    CL-40365  18.707  28.023   3.708
73957ION    CL-40366  16.070  39.007  11.616
73958ION    CL-40367   2.876  21.454  12.424
73959ION    CL-40368  17.103  20.506  12.956
73960ION    CL-40369  23.562  16.334   0.455
73961ION    CL-40370  44.147  19.146  13.553
73962ION    CL-40371  34.327  20.765   2.480
73963ION    CL-40372  12.468   0.296   2.767
73964ION    CL-40373  43.617  36.505  12.072
73965ION    CL-40374  27.157   2.243   1.612
73966ION    CL-40375  34.535  43.375  12.374
73967ION    CL-40376  40.995  35.021   1.753
73968ION    CL-40377  35.661  10.896  12.672
73969ION    CL-40378  10.783  20.863  13.554
73970ION    CL-40379  11.575   8.139   3.711
73971ION    CL-40380  33.170  25.503  11.612
73972ION    CL-40381  16.768  21.147  11.543
73973ION    CL-40382  42.379  14.169  13.934
73974ION    CL-40383  15.814  14.257  14.874
73975ION    CL-40384  43.678   7.902  11.033
73976ION    CL-40385  17.500  10.678   1.380
73977ION    CL-40386  40.568   2.182  11.363
73978ION    CL-40387   1.721  23.508   2.720
73979ION    CL-40388  18.497  16.634  13.423
73980ION    CL-40389  24.423  10.934   1.137
73981ION    CL-40390  21.556  37.750   1.755
73982ION    CL-40391  29.899  22.555   4.386
73983ION    CL-40392   5.192  35.655  12.717
73984ION    CL-40393   9.622  29.462   0.623
73985ION    CL-40394  12.604  19.992  13.277
73986ION    CL-40395  11.601  17.696  10.510
73987ION    CL-40396  38.874  30.270   1.101
73988ION    CL-40397  17.786  12.359  14.807
73989ION    CL-40398   7.978  34.100  11.379
73990ION    CL-40399  28.538   8.985   0.956
73991ION    CL-40400  32.845  27.302   3.929
73992ION    CL-40401  15.180  43.317  13.182
73993ION    CL-40402  34.954  35.322  12.430
73994ION    CL-40403  36.698  44.497   2.038
73995ION    CL-40404  41.534  16.919  14.146
73996ION    CL-40405  17.548  16.842  14.247
73997ION    CL-40406  25.303  42.997  14.801
73998ION    CL-40407   4.713  12.722   3.625
73999ION    CL-40408  35.459   1.386   4.131
74000ION    CL-40409  12.531  16.373  12.895
74001ION    CL-40410  17.398   6.371   1.888
74002ION    CL-40411   3.014  24.277   4.706
74003ION    CL-40412   7.573  30.378  13.049
74004ION    CL-40413   6.654  22.768   5.126
74005ION    CL-40414  18.203   7.039  11.188
74006ION    CL-40415  33.770  25.757   1.795
74007ION    CL-40416   8.980  43.252  11.572
74008ION    CL-40417  19.910   0.199   4.601
74009ION    CL-40418  22.507  17.913  10.840
74010ION    CL-40419   3.406  12.783   4.328
74011ION    CL-40420  24.041   8.844   1.763
74012ION    CL-40421  25.441  15.798  12.891
74013ION    CL-40422  32.898  36.713  12.019
74014ION    CL-40423   4.380  29.441   1.652
74015ION    CL-40424  22.202   4.992   2.144
74016ION    CL-40425  34.427  31.437   0.309
74017ION    CL-40426   6.992  28.682   1.999
74018ION    CL-40427  33.353  15.727  11.264
74019ION    CL-40428  15.699   3.379  12.242
74020ION    CL-40429  36.606  14.481  13.197
74021ION    CL-40430  29.377  32.253   4.463
74022ION    CL-40431  27.942   1.612   5.138
74023ION    CL-40432   7.519  15.623  14.158
74024ION    CL-40433  25.731  27.941  14.747
74025ION    CL-40434  13.323  25.367  10.721
74026ION    CL-40435  13.690  18.793   0.252
74027ION    CL-40436   0.391  13.983   3.265
74028ION    CL-40437  20.324  13.615  14.527
74029ION    CL-40438  44.059  15.310   4.993
74030ION    CL-40439  30.389   6.179   1.367
74031ION    CL-40440  13.548  36.207   3.641
74032ION    CL-40441  42.259  43.947  11.651
74033ION    CL-40442   1.235  13.602  12.341
74034ION    CL-40443  10.882  20.126  12.886
74035ION    CL-40444   9.265  39.879  13.496
74036ION    CL-40445  39.250   5.824  14.403
74037ION    CL-40446  13.180  22.037   0.408
74038ION    CL-40447  43.936  20.972   1.420
74039ION    CL-40448  14.628   8.980   3.187
74040ION    CL-40449  13.760  29.484  13.493
74041ION    CL-40450   9.686  15.979   3.241
74042ION    CL-40451  28.283  20.425   3.654
74043ION    CL-40452  22.711  40.349   3.678
74044ION    CL-40453  14.028  11.886   1.912
74045ION    CL-40454   0.538  39.417   3.407
74046ION    CL-40455  19.145   5.124  13.428
74047ION    CL-40456   2.395  17.158  14.431
74048ION    CL-40457  10.122  29.327   2.997
74049ION    CL-40458  31.889  32.226  11.089
74050ION    CL-40459  12.735  11.817  13.355
74051ION    CL-40460  21.180   1.954  14.622
74052ION    CL-40461  33.436  15.582   2.660
74053ION    CL-40462  10.304  17.026  13.336
74054ION    CL-40463  37.157  29.650   1.493
74055ION    CL-40464  20.739  34.379  13.319
74056ION    CL-40465   2.304  19.347  14.837
74057ION    CL-40466  12.620  30.842   4.865
74058ION    CL-40467  26.815  14.070   1.253
74059ION    CL-40468   4.880  26.688   2.884
74060ION    CL-40469   8.919  34.928  11.136
74061ION    CL-40470  23.514  34.693  11.152
74062ION    CL-40471  12.022  29.011   0.475
74063ION    CL-40472  15.738  42.763   0.769
74064ION    CL-40473   3.275  40.239  14.291
74065ION    CL-40474  42.026   4.892   3.755
74066ION    CL-40475  18.876  30.585   1.964
74067ION    CL-40476  28.053   6.159   0.249
74068ION    CL-40477  39.296  29.402   3.198
74069ION    CL-40478  36.508  23.298   3.196
74070ION    CL-40479  30.268  31.627   0.446
74071ION    CL-40480  10.089  37.394  11.711
74072ION    CL-40481  28.864  19.773   3.419
74073ION    CL-40482  40.965  43.426  12.760
74074ION    CL-40483   4.429  28.159   4.764
74075ION    CL-40484  10.923  36.259  13.480
74076ION    CL-40485   3.702  35.579   4.184
74077ION    CL-40486  15.222  23.325   1.317
74078ION    CL-40487  42.498  12.737   1.553
74079ION    CL-40488  34.519  14.317   5.056
74080ION    CL-40489  44.596   7.991  13.546
74081ION    CL-40490  15.087   0.122  14.504
74082ION    CL-40491  22.586  10.917   1.536
74083ION    CL-40492  29.174  28.871   0.803
74084ION    CL-40493  43.687  18.788  13.385
74085ION    CL-40494  14.049  29.574   4.942
74086ION    CL-40495   9.521  16.620   2.491
74087ION    CL-40496  10.483  33.858   5.069
74088ION    CL-40497  33.091  14.454   4.131
74089ION    CL-40498  10.421   3.314  13.316
74090ION    CL-40499  35.994   3.432  11.625
74091ION    CL-40500  19.303  19.140  10.749
74092ION    CL-40501  10.651  20.130   4.139
74093ION    CL-40502  27.464   7.871  10.309
74094ION    CL-40503  20.064  13.538   2.088
74095ION    CL-40504   9.728  36.077   4.011
74096ION    CL-40505  38.402  21.420   1.158
74097ION    CL-40506   7.697  20.977  11.152
74098ION    CL-40507  25.152  14.938   4.937
74099ION    CL-40508  22.640  27.555  12.691
74100ION    CL-40509  30.399   7.707   0.594
74101ION    CL-40510   3.496  41.435   4.645
74102ION    CL-40511  40.513  34.070  11.021
74103ION    CL-40512  21.636  40.201  11.261
74104ION    CL-40513  15.887   5.784  12.446
74105ION    CL-40514  38.879   9.833   3.127
74106ION    CL-40515  30.157  44.362   1.943
74107ION    CL-40516  43.552  39.323   4.592
74108ION    CL-40517  40.314  27.606   4.587
74109ION    CL-40518  31.642  34.471  11.268
74110ION    CL-40519  38.019  10.873  14.631
74111ION    CL-40520  40.912  25.378  11.062
74112ION    CL-40521  26.541  24.999   0.952
74113ION    CL-40522  22.590   9.399   0.374
74114ION    CL-40523  32.061  41.500   0.243
74115ION    CL-40524  15.423  10.645   4.982
74116ION    CL-40525   1.951  38.840   3.862
74117ION    CL-40526  15.842  43.204   1.761
74118ION    CL-40527  28.917   4.494  10.428
74119ION    CL-40528  16.879  23.445  13.456
74120ION    CL-40529  31.317  21.521  13.001
74121ION    CL-40530   0.498  37.802  14.368
74122ION    CL-40531  25.729  11.601   2.664
74123ION    CL-40532   3.804  42.148   0.430
74124ION    CL-40533  17.272  32.262   3.845
74125ION    CL-40534  35.856  29.219  13.463
74126ION    CL-40535  20.149  39.174  11.931
74127ION    CL-40536  28.865   2.238  12.505
74128ION    CL-40537  44.402  26.662   1.306
74129ION    CL-40538  18.983  20.973  12.837
74130ION    CL-40539  14.558  27.769   4.005
74131ION    CL-40540  18.033  29.732   1.391
74132ION    CL-40541  36.011  41.976  13.594
74133ION    CL-40542   7.607  29.842  12.382
74134ION    CL-40543   6.142  41.143  13.052
74135ION    CL-40544   8.266  12.162   1.018
74136ION    CL-40545  25.911   4.268  14.754
74137ION    CL-40546  26.921  33.473  13.044
74138ION    CL-40547   0.476  31.811  14.795
74139ION    CL-40548  41.795  27.865   4.082
74140ION    CL-40549  38.499  40.830  11.785
74141ION    CL-40550  17.197   5.506   0.889
74142ION    CL-40551  25.962  25.488   1.666
74143ION    CL-40552   6.601  35.835  13.757
74144ION    CL-40553   3.610   8.714   2.959
74145ION    CL-40554  20.867  13.408   3.101
74146ION    CL-40555   4.870   9.027   1.299
74147ION    CL-40556  26.389  35.650  13.955
74148ION    CL-40557  22.263  27.408   4.010
74149ION    CL-40558  22.811  23.291  10.838
74150ION    CL-40559  38.970  21.448   2.317
74151ION    CL-40560  12.640  21.988  12.074
74152ION    CL-40561  14.238  22.512   1.635
74153ION    CL-40562  10.697  20.931   1.696
74154ION    CL-40563  28.664  36.054   3.963
74155ION    CL-40564  37.240  34.956   5.076
74156ION    CL-40565  27.626  10.445  13.045
74157ION    CL-40566  39.570   8.317   3.714
74158ION    CL-40567   6.460  35.647  11.941
74159ION    CL-40568  44.029  42.559   3.867
74160ION    CL-40569   2.049  29.624  10.752
74161ION    CL-40570  28.457  11.829  14.592
74162ION    CL-40571   5.798  24.773  11.583
74163ION    CL-40572  30.318  10.260  13.536
74164ION    CL-40573  15.425  22.318  14.895
74165ION    CL-40574   8.483  34.828  14.539
74166ION    CL-40575  11.105  43.873  14.439
74167ION    CL-40576  23.687  12.652  11.612
74168ION    CL-40577   8.581   0.921   0.534
74169ION    CL-40578  21.846  35.463  13.836
74170ION    CL-40579  36.471  17.293  11.614
74171ION    CL-40580   2.241  10.155  14.370
74172ION    CL-40581  44.545  14.848   1.305
74173ION    CL-40582  43.358  26.999  11.550
74174ION    CL-40583   7.214  38.027  12.060
74175ION    CL-40584  31.081  16.132  14.288
74176ION    CL-40585  12.720  22.720  14.366
74177ION    CL-40586  11.158   0.813  12.951
74178ION    CL-40587  44.832   8.539   5.393
74179ION    CL-40588  19.348  15.439   0.287
74180ION    CL-40589  11.624  13.390  14.373
74181ION    CL-40590  27.922  26.932  11.573
74182ION    CL-40591   0.398  31.455   4.345
74183ION    CL-40592  17.809  13.639  14.426
74184ION    CL-40593  17.757   9.778   1.001
74185ION    CL-40594  39.710  18.578   0.093
74186ION    CL-40595   9.341  44.588  12.898
74187ION    CL-40596  29.505  27.875  11.656
74188ION    CL-40597   6.422  38.955  13.821
74189ION    CL-40598  25.191   0.876   5.136
74190ION    CL-40599   3.370  43.671   1.488
74191ION    CL-40600  29.037   6.169  12.888
74192ION    CL-40601  10.917  19.594   0.418
74193ION    CL-40602   2.821  30.811   4.257
74194ION    CL-40603  28.056  40.260  14.322
74195ION    CL-40604  33.176  26.806   0.313
74196ION    CL-40605  18.518  30.378   1.054
74197ION    CL-40606   8.379  14.337   4.066
74198ION    CL-40607   4.160   7.086   3.652
74199ION    CL-40608  18.431  27.200  11.785
74200ION    CL-40609   7.508  41.362   3.616
74201ION    CL-40610  41.295   1.976  10.689
74202ION    CL-40611  11.780  12.655  13.984
74203ION    CL-40612  10.179   2.844   2.758
74204ION    CL-40613  36.148   0.389  14.984
74205ION    CL-40614  24.487  13.364  12.954
74206ION    CL-40615   9.858  36.410  13.069
74207ION    CL-40616  30.566  32.029   2.202
74208ION    CL-40617  29.498  16.206  14.415
74209ION    CL-40618  20.903  42.811  14.475
74210ION    CL-40619  17.745  15.490  14.523
74211ION    CL-40620   3.234  17.294  13.904
74212ION    CL-40621  20.028  23.687  13.931
74213ION    CL-40622  37.360  35.433   2.332
74214ION    CL-40623   0.981  27.275   4.569
74215ION    CL-40624  22.202  34.883   4.691
74216ION    CL-40625   0.718  17.733   0.749
74217ION    CL-40626  22.685  13.147   2.729
74218ION    CL-40627   9.489  22.216   2.136
74219ION    CL-40628  28.570  44.902  10.505
74220ION    CL-40629  38.026  21.779   0.304
74221ION    CL-40630  27.271   4.276   4.070
74222ION    CL-40631  24.209  16.237  11.477
74223ION    CL-40632  17.301   8.718   0.477
74224ION    CL-40633  23.366  31.128   0.729
74225ION    CL-40634  11.035  39.497  13.776
74226ION    CL-40635  23.109  14.843  14.775
74227ION    CL-40636   0.565  13.118  14.100
74228ION    CL-40637  22.094   4.127   1.876
74229ION    CL-40638  10.752  15.961   2.492
74230ION    CL-40639  27.088  17.011  12.266
74231ION    CL-40640  38.211  37.786   1.088
74232ION    CL-40641  27.967   8.428  11.877
74233ION    CL-40642  27.888  11.843  13.073
74234ION    CL-40643  16.803  15.815   4.776
74235ION    CL-40644  26.315  31.776  12.519
74236ION    CL-40645  43.785  40.386   3.018
74237ION    CL-40646   1.450  23.490  14.643
74238ION    CL-40647   9.293   0.312  10.671
74239ION    CL-40648  10.154  42.752  10.788
74240ION    CL-40649  15.295  42.742  10.344
74241ION    CL-40650  27.456  10.893   5.404
74242ION    CL-40651  35.718  42.785   2.759
74243ION    CL-40652  18.372  41.456   2.405
74244ION    CL-40653  26.589  29.270   3.593
74245ION    CL-40654  27.038  39.324  12.561
74246ION    CL-40655  35.872   7.655   1.011
74247ION    CL-40656   8.876  38.296   1.879
74248ION    CL-40657   4.719  36.020  10.773
74249ION    CL-40658  33.957  21.651   1.838
74250ION    CL-40659  13.321  27.673   4.362
74251ION    CL-40660  19.585  33.976   1.780
74252ION    CL-40661  24.850  20.537   1.393
74253ION    CL-40662  12.942  13.192  11.699
74254ION    CL-40663  21.753  43.882   3.206
74255ION    CL-40664  27.479  42.103  14.845
74256ION    CL-40665  31.057  20.782  10.935
74257ION    CL-40666   4.995   7.985   0.352
74258ION    CL-40667   7.246   0.154   9.931
74259ION    CL-40668  30.921   0.917  12.707
74260ION    CL-40669  42.185  16.292  14.207
74261ION    CL-40670  15.542  30.749  14.744
74262ION    CL-40671  24.136  32.191  13.791
74263ION    CL-40672  17.474  34.732  11.918
74264ION    CL-40673  27.592  40.271   0.571
74265ION    CL-40674  37.511   8.729  14.566
74266ION    CL-40675   4.972   1.927  10.758
74267ION    CL-40676  28.484  22.069  11.278
74268ION    CL-40677   0.707   7.560   0.926
74269ION    CL-40678  24.288   4.005   1.737
74270ION    CL-40679  29.328  10.323   1.167
74271ION    CL-40680  30.667  28.586  10.734
74272ION    CL-40681  33.623   7.260   0.488
74273ION    CL-40682  41.245  13.600  13.849
74274ION    CL-40683  20.187   6.836   2.724
74275ION    CL-40684   1.246  33.309  13.867
74276ION    CL-40685  37.057  34.413   1.160
74277ION    CL-40686  30.450  32.700  14.048
74278ION    CL-40687   4.383  19.104   3.648
74279ION    CL-40688  29.814  31.059   3.108
74280ION    CL-40689  24.215  17.859  12.907
74281ION    CL-40690  41.489  33.791   0.123
74282ION    CL-40691   1.599  19.835  13.948
74283ION    CL-40692  29.373  42.856   1.432
74284ION    CL-40693  11.904  14.932   1.540
74285ION    CL-40694  14.641  40.981   1.408
74286ION    CL-40695  29.044  34.141  13.299
74287ION    CL-40696  41.801   1.024   3.312
74288ION    CL-40697  15.838   8.048   4.221
74289ION    CL-40698  24.176  38.371   4.937
74290ION    CL-40699  11.907   3.849  12.957
74291ION    CL-40700  23.515   1.992   2.189
74292ION    CL-40701   9.730  11.353   2.199
74293ION    CL-40702  11.594  42.387  13.711
74294ION    CL-40703   2.660  18.572  12.270
74295ION    CL-40704  13.491  42.116   1.057
74296ION    CL-40705  44.848   4.966   0.394
74297ION    CL-40706  41.072  12.229   4.150
74298ION    CL-40707  35.907   1.353   0.460
74299ION    CL-40708  27.388   0.048   1.743
74300ION    CL-40709   9.198  21.011  11.598
74301ION    CL-40710  35.280  11.134   4.179
74302ION    CL-40711  15.873  28.811  11.121
74303ION    CL-40712  38.800   3.444  10.037
74304ION    CL-40713   1.931  13.090  12.073
74305ION    CL-40714  10.722  36.345   3.382
74306ION    CL-40715  19.029  32.074  11.131
74307ION    CL-40716  42.780  16.036   0.791
74308ION    CL-40717   7.925   7.321   2.778
74309ION    CL-40718  25.464  25.417   0.931
74310ION    CL-40719  38.574  40.318   2.686
74311ION    CL-40720   5.266  34.074   4.648
74312ION    CL-40721  29.334  14.101   1.798
74313ION    CL-40722  28.768  22.529   9.908
74314ION    CL-40723  33.084  41.803  12.182
74315ION    CL-40724  33.199  27.859   4.765
74316ION    CL-40725  26.789  37.404  12.486
74317ION    CL-40726   7.712  11.140   2.358
74318ION    CL-40727   2.613  27.627   3.188
74319ION    CL-40728   7.014  27.867  12.811
74320ION    CL-40729  43.910  24.654   3.189
74321ION    CL-40730  16.251  42.481   4.909
74322ION    CL-40731  42.128  41.698   4.216
74323ION    CL-40732   7.866  16.076  13.335
74324ION    CL-40733  14.353  42.046   0.551
74325ION    CL-40734  32.321  27.033   0.295
74326ION    CL-40735  10.468   3.930   5.441
74327ION    CL-40736  21.114   1.001   3.536
74328ION    CL-40737  27.871  38.428   2.867
74329ION    CL-40738   0.468  27.629  12.691
74330ION    CL-40739   9.954  30.859  10.702
74331ION    CL-40740  35.662  24.579   3.519
74332ION    CL-40741  27.853  14.270  11.049
74333ION    CL-40742  30.853   2.167   4.488
74334ION    CL-40743  11.212  23.014   3.332
74335ION    CL-40744  14.396  17.860  13.533
74336ION    CL-40745  28.915  39.420   3.884
74337ION    CL-40746  16.456  32.490  11.674
74338ION    CL-40747  39.477   7.266  14.486
74339ION    CL-40748  41.407   0.707  10.914
74340ION    CL-40749  19.006   7.246   2.058
74341ION    CL-40750  15.130  13.347   1.458
74342ION    CL-40751  24.500  40.814   2.649
74343ION    CL-40752  16.635   0.979  13.313
74344ION    CL-40753  17.051  14.381  12.491
74345ION    CL-40754  27.884  10.283   2.707
74346ION    CL-40755  15.234  21.753   4.431
74347ION    CL-40756  19.702  23.934   2.789
74348ION    CL-40757  40.212  42.241  13.947
74349ION    CL-40758  19.303  22.537  14.550
74350ION    CL-40759  40.576  33.315  11.684
74351ION    CL-40760   3.899  30.892  11.986
74352ION    CL-40761   3.434  37.018  10.411
74353ION    CL-40762  11.783  18.533   4.937
74354ION    CL-40763  17.068  19.942  13.687
74355ION    CL-40764  42.410   9.889   2.328
74356ION    CL-40765   2.543   6.779   0.737
74357ION    CL-40766  21.140  39.211   4.122
74358ION    CL-40767  17.357  19.561   4.185
74359ION    CL-40768  43.189  37.213   2.077
74360ION    CL-40769  34.441   6.134  13.635
74361ION    CL-40770  43.936  42.864  13.341
74362ION    CL-40771  34.777  34.225   1.767
74363ION    CL-40772  28.628   2.501   4.724
74364ION    CL-40773   8.339  27.231   0.925
74365ION    CL-40774  37.993  32.478   4.630
74366ION    CL-40775   9.421  13.564   3.942
74367ION    CL-40776  12.770  44.822   4.406
74368ION    CL-40777  15.735  33.130   1.901
74369ION    CL-40778  28.010  32.867   0.590
74370ION    CL-40779   0.826  30.761  12.636
74371ION    CL-40780  44.245   9.551  12.420
74372ION    CL-40781  30.780  16.315  11.924
74373ION    CL-40782  32.813  42.734  13.141
74374ION    CL-40783  39.334  37.283   0.894
74375ION    CL-40784  29.235  14.182   4.092
74376ION    CL-40785   5.579  19.628  13.446
74377ION    CL-40786  42.444  13.318   0.741
74378ION    CL-40787  38.521  12.734  12.344
74379ION    CL-40788  36.627  29.036  14.072
74380ION    CL-40789  34.548  18.594   2.389
74381ION    CL-40790  36.167   0.890   5.193
74382ION    CL-40791  14.284   2.190   4.672
74383ION    CL-40792   2.884  28.684   2.356
74384ION    CL-40793  42.728  28.208   1.800
74385ION    CL-40794  22.270  42.686  13.453
74386ION    CL-40795  11.407   9.399  11.375
74387ION    CL-40796  24.612  28.892   1.267
74388ION    CL-40797  41.404  13.389  12.557
74389ION    CL-40798   2.751   7.740   4.340
74390ION    CL-40799   9.059  19.064  13.670
74391ION    CL-40800  22.616  44.961  14.689
74392ION    CL-40801  24.199  17.269  14.783
74393ION    CL-40802   6.702  12.573  11.697
74394ION    CL-40803  16.686  27.479  11.431
74395ION    CL-40804  42.882  38.900  11.050
74396ION    CL-40805  32.705  32.279   3.013
74397ION    CL-40806  15.330   8.575  13.521
74398ION    CL-40807  38.857  25.056   0.250
74399ION    CL-40808   0.150  11.338  12.621
74400ION    CL-40809  39.031  17.580   4.540
74401ION    CL-40810  16.718   4.876  12.089
74402ION    CL-40811   6.932  24.452   0.673
74403ION    CL-40812  14.184  20.424  14.909
74404ION    CL-40813  42.760  12.953   3.134
74405ION    CL-40814  27.664  13.251   4.938
74406ION    CL-40815  41.540   4.046   3.260
74407ION    CL-40816   8.552   2.931   1.978
74408ION    CL-40817  42.945  19.405   4.720
74409ION    CL-40818  19.191  15.989  12.473
74410ION    CL-40819  40.462  24.095  14.715
74411ION    CL-40820  11.907  40.594  13.924
74412ION    CL-40821  38.254  15.981  12.746
74413ION    CL-40822  15.076   3.199  13.062
74414ION    CL-40823  27.938  15.857  13.218
74415ION    CL-40824  42.347  13.099  13.008
74416ION    CL-40825  22.942   0.189   3.855
74417ION    CL-40826  19.562  44.302   1.827
74418ION    CL-40827  35.606   8.542   1.971
74419ION    CL-40828  10.496  23.269   0.396
74420ION    CL-40829  16.085  29.121  14.438
74421ION    CL-40830  40.616  11.031   1.104
74422ION    CL-40831  20.270  39.020   1.808
74423ION    CL-40832  35.345  24.953  13.042
74424ION    CL-40833  15.772  11.263   4.942
74425ION    CL-40834  11.040   4.299   5.396
74426ION    CL-40835  32.549  36.132  14.820
74427ION    CL-40836  39.407  14.384  10.708
74428ION    CL-40837  39.583   9.232  10.462
74429ION    CL-40838  42.093  24.254  12.096
74430ION    CL-40839  21.389  38.087  10.747
74431ION    CL-40840  21.784  40.165   4.372
74432ION    CL-40841   8.356  44.341  13.021
74433ION    CL-40842  36.892  36.976   3.831
74434ION    CL-40843  33.155  16.166   3.835
74435ION    CL-40844  36.181  30.741   4.600
74436ION    CL-40845   1.467  36.327   4.794
74437ION    CL-40846  24.723   3.962  11.936
74438ION    CL-40847   6.076  39.552   3.215
74439ION    CL-40848  17.064   3.734  10.987
74440ION    CL-40849   9.984  21.713  10.327
74441ION    CL-40850  10.793  26.995   2.629
74442ION    CL-40851  20.011  22.705  12.055
74443ION    CL-40852  31.729  25.454  14.802
74444ION    CL-40853  35.082  25.927   1.268
74445ION    CL-40854  44.866  44.012  13.274
74446ION    CL-40855  37.949  34.781  14.540
74447ION    CL-40856  36.360   8.702  12.040
74448ION    CL-40857   3.236   4.652   1.972
74449ION    CL-40858  17.101  27.013   3.069
74450ION    CL-40859  12.648  12.204   3.879
74451ION    CL-40860  15.059  17.439  11.284
74452ION    CL-40861  35.103  24.964  11.032
74453ION    CL-40862  17.836   1.970  11.502
74454ION    CL-40863  40.694  14.700  11.294
74455ION    CL-40864  40.560  23.175   4.555
74456ION    CL-40865   5.659  32.917  10.424
74457ION    CL-40866  31.524  19.061  11.141
74458ION    CL-40867  31.555  33.509  11.961
74459ION    CL-40868  30.860  23.242  11.877
74460ION    CL-40869  29.439  20.618   4.454
74461ION    CL-40870  24.796   2.525   1.974
74462ION    CL-40871  33.947  25.473   5.008
74463ION    CL-40872  33.483  40.222   4.099
74464ION    CL-40873  33.370  20.816   2.177
74465ION    CL-40874   9.272  19.157  14.936
74466ION    CL-40875  35.451  37.363   0.802
74467ION    CL-40876  30.687  14.220  14.466
74468ION    CL-40877   4.273  25.972   3.267
74469ION    CL-40878  20.738  11.481   4.887
74470ION    CL-40879  27.929  15.791  11.082
74471ION    CL-40880  36.255  21.003   4.978
74472ION    CL-40881  10.331   9.904  14.952
74473ION    CL-40882  42.524  28.997  11.992
74474ION    CL-40883   7.246  15.253   1.233
74475ION    CL-40884  35.977  40.241   4.863
74476ION    CL-40885  39.559  16.118   4.690
74477ION    CL-40886  27.620  20.999  12.991
74478ION    CL-40887  15.084  42.227   3.302
74479ION    CL-40888  31.865   6.550   1.145
74480ION    CL-40889  21.276  13.354  11.119
74481ION    CL-40890  27.482  19.039   2.226
74482ION    CL-40891  14.240  38.763  12.520
74483ION    CL-40892  13.798  17.532  12.801
74484ION    CL-40893  13.466  33.747  13.211
74485ION    CL-40894  29.309  35.822   1.305
74486ION    CL-40895  35.442  31.833   2.888
74487ION    CL-40896   4.749  37.392   0.862
74488ION    CL-40897  19.515  29.171   3.185
74489ION    CL-40898   7.602   0.718   0.550
74490ION    CL-40899   0.654  16.448  12.905
74491ION    CL-40900  21.371  20.976  13.837
74492ION    CL-40901   8.883   1.825  12.392
74493ION    CL-40902   9.164  10.942  12.094
74494ION    CL-40903  40.934  27.159   2.809
74495ION    CL-40904  22.381  19.806  10.423
74496ION    CL-40905  34.513  17.004   4.549
74497ION    CL-40906   3.349   2.963   5.174
74498ION    CL-40907   2.962  10.864  14.243
74499ION    CL-40908  43.402  25.300   4.748
74500ION    CL-40909  28.537  43.576  14.132
74501ION    CL-40910  21.803   2.417   4.112
74502ION    CL-40911  14.653  13.679   3.128
74503ION    CL-40912  30.783  14.290  10.538
74504ION    CL-40913  31.674  34.345   1.865
74505ION    CL-40914  44.369  29.242  14.578
74506ION    CL-40915  36.445   6.306   9.833
74507ION    CL-40916   5.772  11.243   3.299
74508ION    CL-40917  24.790  15.883  14.447
74509ION    CL-40918  42.631   1.296   3.870
74510ION    CL-40919  18.164  34.623   3.760
74511ION    CL-40920  19.128   9.609   1.320
74512ION    CL-40921  21.694  13.017   2.698
74513ION    CL-40922  41.059   3.868  14.539
74514ION    CL-40923  40.612   7.302   5.347
74515ION    CL-40924  20.250   5.294   4.829
74516ION    CL-40925   7.248  35.036  11.861
74517ION    CL-40926  23.375  14.027  12.241
74518ION    CL-40927  28.926  32.500  11.538
74519ION    CL-40928  40.782  21.095  12.906
74520ION    CL-40929  16.524   2.798  12.380
74521ION    CL-40930  26.908  32.314  13.897
74522ION    CL-40931   1.043  28.868   1.266
74523ION    CL-40932  30.805   1.147   2.732
74524ION    CL-40933  38.090  29.680   3.853
74525ION    CL-40934  15.818  17.719  11.371
74526ION    CL-40935  10.471  29.820   0.664
74527ION    CL-40936  25.777  38.460   1.804
74528ION    CL-40937  19.223  19.004  12.807
74529ION    CL-40938   2.815  26.641   1.289
74530ION    CL-40939  35.267  38.772  13.254
74531ION    CL-40940   2.956  37.294  13.902
74532ION    CL-40941  33.553  17.795   2.693
74533ION    CL-40942  19.531  43.157   2.359
74534ION    CL-40943  39.872  31.665  11.838
74535ION    CL-40944  39.731  33.638  14.625
74536ION    CL-40945  33.509  22.026  12.562
74537ION    CL-40946  12.667  16.326  14.375
74538ION    CL-40947  29.165   0.712  14.053
74539ION    CL-40948  41.505  15.126  12.140
74540ION    CL-40949  10.683  22.308   2.758
74541ION    CL-40950  18.130  18.460  14.836
74542ION    CL-40951  24.645  36.403  11.567
74543ION    CL-40952   4.904  38.330  14.302
74544ION    CL-40953  16.230  10.712  14.154
74545ION    CL-40954   7.302  35.412   0.146
74546ION    CL-40955  26.876  44.084   2.823
74547ION    CL-40956  22.967  11.627  14.943
74548ION    CL-40957  22.111  14.826  14.886
74549ION    CL-40958  41.197  26.321   2.686
74550ION    CL-40959   2.235  25.763   5.004
74551ION    CL-40960  26.624  41.770  12.092
74552ION    CL-40961  21.719   1.412   0.463
74553ION    CL-40962  21.276  15.780  14.361
74554ION    CL-40963  16.101  39.035   4.945
74555ION    CL-40964  18.392   0.613   3.540
74556ION    CL-40965  29.443  17.560   3.232
74557ION    CL-40966  17.966   4.597  12.690
74558ION    CL-40967  32.809  17.827   1.930
74559ION    CL-40968  42.644  22.359   2.305
74560ION    CL-40969  14.113  18.508   3.818
74561ION    CL-40970  39.566   5.135   5.050
74562ION    CL-40971  19.851   6.901   5.087
74563ION    CL-40972  14.550  35.000   1.310
74564ION    CL-40973  39.507  29.722   5.092
74565ION    CL-40974   4.558  37.483   4.803
74566ION    CL-40975   7.240  31.076  11.632
74567ION    CL-40976  17.560  27.587   5.013
74568ION    CL-40977   1.295   0.651  11.139
74569ION    CL-40978   9.782  22.733   3.329
74570ION    CL-40979   0.429   4.119   5.113
74571ION    CL-40980  22.568  42.517  12.599
74572ION    CL-40981  14.881  40.434  13.172
74573ION    CL-40982  22.784   3.620   3.362
74574ION    CL-40983  15.275  43.374  11.118
74575ION    CL-40984  42.712  36.661  13.984
74576ION    CL-40985  15.706  28.584   2.864
74577ION    CL-40986   4.642  21.576   4.170
74578ION    CL-40987  25.259  23.662   2.708
74579ION    CL-40988  12.197  13.465  13.831
74580ION    CL-40989  15.846  26.242  12.091
74581ION    CL-40990  12.344  40.031  10.034
74582ION    CL-40991  12.808  24.721   1.556
74583ION    CL-40992  32.834  20.008   1.888
74584ION    CL-40993   1.802  25.079  13.817
74585ION    CL-40994  24.744  20.097  10.622
74586ION    CL-40995   0.866  24.143  13.407
74587ION    CL-40996  40.988  11.259   3.921
74588ION    CL-40997  43.956  12.792   1.647
74589ION    CL-40998  34.897   8.834   0.058
74590ION    CL-40999  21.027  18.896   3.377
74591ION    CL-41000  13.027   4.093   9.707
74592ION    CL-41001  36.762  24.689   1.669
74593ION    CL-41002   4.146  30.631   2.252
74594ION    CL-41003   7.297   0.403  11.245
74595ION    CL-41004  30.118  21.128   0.484
74596ION    CL-41005  31.177  35.198   4.589
74597ION    CL-41006  38.149  30.327   2.332
74598ION    CL-41007  33.621  34.286   4.224
74599ION    CL-41008  41.857  13.718  11.412
74600ION    CL-41009  29.967  44.912   3.602
74601ION    CL-41010  30.762   0.864   1.193
74602ION    CL-41011  12.911  33.175  13.044
74603ION    CL-41012   7.734  14.107   3.497
74604ION    CL-41013   7.576  39.563   2.210
74605ION    CL-41014  21.081  25.315   3.308
74606ION    CL-41015  15.810  16.362  11.282
74607ION    CL-41016   1.779  16.305  11.286
74608ION    CL-41017  18.933  41.278   3.631
74609ION    CL-41018  24.407  30.397  13.358
74610ION    CL-41019  21.710   4.126   0.953
74611ION    CL-41020  17.111  30.013   0.792
74612ION    CL-41021  35.713  11.200   1.027
74613ION    CL-41022  22.212  21.277  12.824
74614ION    CL-41023  29.773  36.819   2.899
74615ION    CL-41024  42.735   7.858  12.481
74616ION    CL-41025  39.001  16.434   0.366
74617ION    CL-41026  18.748  14.745   0.988
74618ION    CL-41027  14.736   9.490  10.478
74619ION    CL-41028  40.842  19.965   2.194
74620ION    CL-41029  38.739  36.863  11.129
74621ION    CL-41030  29.589   4.139  13.021
74622ION    CL-41031   1.885  25.211   3.614
74623ION    CL-41032   7.110  30.296  11.403
74624ION    CL-41033   4.647  13.973   4.235
74625ION    CL-41034  37.913  17.815  13.065
74626ION    CL-41035   3.514  18.931   4.113
74627ION    CL-41036   8.787  37.130   1.875
74628ION    CL-41037  26.987  35.798  14.792
74629ION    CL-41038  17.946  11.741  10.988
74630ION    CL-41039  28.454   3.093   1.723
74631ION    CL-41040  29.414   2.921  13.989
74632ION    CL-41041  17.803  30.596   4.548
74633ION    CL-41042  20.418  10.112   2.879
74634ION    CL-41043  11.904   2.064  11.128
74635ION    CL-41044  16.997  10.338   2.890
74636ION    CL-41045  28.964  27.512   5.164
74637ION    CL-41046  37.978  29.612  13.726
74638ION    CL-41047   2.574  12.148   2.282
74639ION    CL-41048  29.861  34.009  11.056
74640ION    CL-41049  36.689  25.045  13.610
74641ION    CL-41050   5.127  25.759   0.081
74642ION    CL-41051   4.188  14.865   3.930
74643ION    CL-41052  44.396  30.708  13.130
74644ION    CL-41053   1.422  31.888  13.927
74645ION    CL-41054  32.993  16.491  11.899
74646ION    CL-41055   4.912  41.105  11.093
74647ION    CL-41056  42.468   6.605  11.710
74648ION    CL-41057  24.778   0.488  11.192
74649ION    CL-41058   4.664   0.381  11.461
74650ION    CL-41059  14.453  34.296   4.157
74651ION    CL-41060   7.611  22.318   0.901
74652ION    CL-41061   9.361  29.212  14.691
74653ION    CL-41062  28.172  30.926   0.755
74654ION    CL-41063  18.828  36.528  14.604
74655ION    CL-41064  30.574  14.573  12.238
74656ION    CL-41065   5.795  21.819  12.158
74657ION    CL-41066  31.378   2.377   2.207
74658ION    CL-41067  44.499  44.931   3.125
74659ION    CL-41068  19.399   8.132   4.202
74660ION    CL-41069   5.714   2.419   3.716
74661ION    CL-41070  32.595  39.429   0.357
74662ION    CL-41071  14.481   7.801   0.752
74663ION    CL-41072  44.602  43.908   2.624
74664ION    CL-41073  16.158  44.344  13.287
74665ION    CL-41074  41.865  20.975  10.204
74666ION    CL-41075  12.623  15.000  11.213
74667ION    CL-41076   1.096   7.942   2.803
74668ION    CL-41077  24.301  24.380   2.323
74669ION    CL-41078   4.729  27.388  13.107
74670ION    CL-41079  27.745  34.422   2.158
74671ION    CL-41080  36.497  10.600   4.224
74672ION    CL-41081  29.868  38.375   4.718
74673ION    CL-41082  28.096  26.115   4.994
74674ION    CL-41083  44.124  39.043   3.517
74675ION    CL-41084   8.430   7.681  14.630
74676ION    CL-41085  19.466  15.629   2.413
74677ION    CL-41086  30.067   1.279   3.189
74678ION    CL-41087  31.099  24.642  14.308
74679ION    CL-41088  33.735  32.439  12.368
74680ION    CL-41089  20.832   4.134   0.676
74681ION    CL-41090  21.544  14.068  13.431
74682ION    CL-41091  44.280   6.777   1.090
74683ION    CL-41092   8.126  39.513   3.044
74684ION    CL-41093  13.148  22.977  12.594
74685ION    CL-41094  32.338  21.282  12.151
74686ION    CL-41095  23.453  32.672   2.793
74687ION    CL-41096  12.855   1.586  11.442
74688ION    CL-41097   0.733  12.778  10.845
74689ION    CL-41098  43.130  30.810  10.385
74690ION    CL-41099  10.316  42.271  13.899
74691ION    CL-41100  26.821  35.417   1.365
74692ION    CL-41101  21.086  39.958  13.769
74693ION    CL-41102  31.675  37.529  11.961
74694ION    CL-41103  20.735   1.358   0.290
74695ION    CL-41104  40.924  44.760  11.146
74696ION    CL-41105   3.450   3.444  13.852
74697ION    CL-41106  19.653  18.286  12.260
74698ION    CL-41107   3.704  31.441  14.524
74699ION    CL-41108  25.147  27.704   1.718
74700ION    CL-41109  13.609  19.894  13.585
74701ION    CL-41110  40.961   5.000   0.655
74702ION    CL-41111  37.089  36.415   2.985
74703ION    CL-41112   9.153   8.444  11.350
74704ION    CL-41113  16.771  23.329   1.640
74705ION    CL-41114  38.095  21.199  10.943
74706ION    CL-41115   8.987  30.436  13.090
74707ION    CL-41116  22.907  24.887   0.949
74708ION    CL-41117  33.505  35.065   5.286
74709ION    CL-41118  14.405  19.290  13.539
74710ION    CL-41119  33.555  31.304   4.607
74711ION    CL-41120  28.742  36.457  13.312
74712ION    CL-41121  26.908  28.428  12.008
74713ION    CL-41122  15.391   7.808   0.826
74714ION    CL-41123  29.608  37.576  13.485
74715ION    CL-41124  17.337  20.581  10.657
74716ION    CL-41125  37.364   5.468   1.028
74717ION    CL-41126  41.633  15.682  10.272
74718ION    CL-41127  44.156  39.820  11.675
74719ION    CL-41128   3.552  27.444  10.369
74720ION    CL-41129  12.467  31.606  12.700
74721ION    CL-41130  39.379  37.228  14.896
74722ION    CL-41131  43.496  25.573  11.726
74723ION    CL-41132   4.629  15.541   2.084
74724ION    CL-41133   4.776  33.896  12.455
74725ION    CL-41134  42.133  22.807  14.802
74726ION    CL-41135  25.540  26.151  11.087
74727ION    CL-41136  27.212  42.616  11.217
74728ION    CL-41137  11.370  13.567  11.429
74729ION    CL-41138  18.474  32.088   4.957
74730ION    CL-41139   2.126  33.956  11.646
74731ION    CL-41140  43.420  41.521  11.537
74732ION    CL-41141  39.024  23.986   1.398
74733ION    CL-41142  32.544   4.442   3.216
74734ION    CL-41143  20.066  16.831  12.930
74735ION    CL-41144   3.718  40.426  13.568
74736ION    CL-41145  28.094  30.446  10.989
74737ION    CL-41146  40.711  35.057  11.857
74738ION    CL-41147  37.070  13.594   0.704
74739ION    CL-41148  13.704  26.169   5.023
74740ION    CL-41149  34.559  26.907  13.970
74741ION    CL-41150  34.395   4.596  12.079
74742ION    CL-41151  39.712  39.558   1.059
74743ION    CL-41152   3.332  24.472   5.058
74744ION    CL-41153  41.043  39.951   3.207
74745ION    CL-41154   1.276   1.043   1.655
74746ION    CL-41155  37.445   5.760  13.078
74747ION    CL-41156  35.359   6.438   1.700
74748ION    CL-41157  27.628  39.438   4.642
74749ION    CL-41158  14.820   6.320  11.249
74750ION    CL-41159  31.483   8.728   4.903
74751ION    CL-41160  13.371  20.595  10.260
74752ION    CL-41161  19.933  41.367   3.646
74753ION    CL-41162   8.880  26.082  13.898
74754ION    CL-41163  24.686  23.291   1.441
74755ION    CL-41164  21.747  29.628  11.690
74756ION    CL-41165  39.514  21.774   5.182
74757ION    CL-41166  42.384  34.623  13.945
74758ION    CL-41167  36.820  29.749  11.258
74759ION    CL-41168  32.427   9.084  12.893
74760ION    CL-41169  39.440  38.181  14.599
74761ION    CL-41170  34.854  15.419  11.448
74762ION    CL-41171   9.140  41.996  14.960
74763ION    CL-41172  43.078  13.573  13.500
74764ION    CL-41173  27.803  11.864  10.251
74765ION    CL-41174  12.321  29.693   1.003
74766ION    CL-41175  34.083  38.912   0.668
74767ION    CL-41176  40.579   5.436   2.445
74768ION    CL-41177   5.465  35.555  11.919
74769ION    CL-41178  31.863   6.238  13.602
74770ION    CL-41179  27.667  41.159   0.117
74771ION    CL-41180  32.977  44.866   3.691
74772ION    CL-41181   7.877  33.117  11.532
74773ION    CL-41182  12.759  21.771   4.027
74774ION    CL-41183  33.138   2.441   1.217
74775ION    CL-41184  14.769  37.869  11.044
74776ION    CL-41185  22.793  21.593   1.046
74777ION    CL-41186   4.759   9.163  12.105
74778ION    CL-41187  19.700  32.952  12.406
74779ION    CL-41188  12.354  39.461   0.919
74780ION    CL-41189  29.083  14.915  10.511
74781ION    CL-41190   2.556  15.109  13.048
74782ION    CL-41191  41.509   6.770   3.035
74783ION    CL-41192  19.805  41.607  11.357
74784ION    CL-41193  12.337   1.485   0.618
74785ION    CL-41194  10.405  30.960  11.610
74786ION    CL-41195  26.868  16.070  12.524
74787ION    CL-41196   5.716  34.998  14.224
74788ION    CL-41197  26.015  31.407  11.621
74789ION    CL-41198  10.765  15.657   9.850
74790ION    CL-41199  44.707  40.818   2.695
74791ION    CL-41200  21.167  38.777   2.240
74792ION    CL-41201  18.066  40.064  12.914
74793ION    CL-41202  30.190   7.541   4.053
74794ION    CL-41203  12.696  36.165   0.889
74795ION    CL-41204  13.736  18.772   1.251
74796ION    CL-41205  39.044   6.684  10.772
74797ION    CL-41206  32.836   7.862  11.114
74798ION    CL-41207  34.506  21.520   0.345
74799ION    CL-41208  10.162  19.647  12.382
74800ION    CL-41209   2.582  27.432   0.897
74801ION    CL-41210  22.430  31.084  10.557
74802ION    CL-41211  22.095  23.428  10.296
74803ION    CL-41212   4.344  41.013   0.554
74804ION    CL-41213   0.922   6.004  11.841
74805ION    CL-41214  37.475   7.304   3.245
74806ION    CL-41215  17.010  39.526   1.827
74807ION    CL-41216  15.602  28.196  13.930
74808ION    CL-41217  14.502   8.994  14.390
74809ION    CL-41218  40.217  42.325  11.598
74810ION    CL-41219  36.387   9.952  13.480
74811ION    CL-41220   1.866   8.743   3.057
74812ION    CL-41221  44.158  33.036  11.604
74813ION    CL-41222  18.915   9.432  13.779
74814ION    CL-41223  41.171  10.529  10.802
74815ION    CL-41224  42.426  24.754   5.006
74816ION    CL-41225   4.373  10.123   3.743
74817ION    CL-41226  13.029  14.191   5.010
74818ION    CL-41227  22.147  24.157   4.745
74819ION    CL-41228  43.417   8.096  14.800
74820ION    CL-41229   8.742  11.743   2.576
74821ION    CL-41230  28.253  16.830  13.133
74822ION    CL-41231   3.261  15.229   4.925
74823ION    CL-41232   5.933  10.626   1.886
74824ION    CL-41233  29.129  36.155  14.533
74825ION    CL-41234  37.148  43.663   2.357
74826ION    CL-41235   7.701  36.994   3.200
74827ION    CL-41236  22.606   4.827  14.156
74828ION    CL-41237  43.628   5.411   5.004
74829ION    CL-41238  30.403  22.072   4.737
74830ION    CL-41239   8.956  31.238   0.702
74831ION    CL-41240  35.138  21.601   3.970
74832ION    CL-41241  17.820  25.524  12.456
74833ION    CL-41242  34.357  25.410  10.754
74834ION    CL-41243  33.681  42.407   2.440
74835ION    CL-41244  20.347  37.886   2.399
74836ION    CL-41245   3.428  37.325   0.025
74837ION    CL-41246  34.256  39.428   3.603
74838ION    CL-41247  43.829  43.858  13.324
74839ION    CL-41248  29.594  29.518  10.591
74840ION    CL-41249   8.257  29.195   2.654
74841ION    CL-41250  36.906  25.655  14.396
74842ION    CL-41251   1.295  29.027   5.039
74843ION    CL-41252  37.448  12.575  11.422
74844ION    CL-41253  25.405  18.243   1.575
74845ION    CL-41254   3.683  34.724   3.665
74846ION    CL-41255  21.706  34.633  13.297
74847ION    CL-41256  15.601   7.156  13.862
74848ION    CL-41257  42.358  44.370  12.889
74849ION    CL-41258  18.886  27.255  14.257
74850ION    CL-41259  22.477  21.780  10.921
74851ION    CL-41260  43.031  38.508   0.899
74852ION    CL-41261  13.742  23.845  14.810
74853ION    CL-41262  28.298  21.096  11.137
74854ION    CL-41263  15.731   6.063   2.385
74855ION    CL-41264  36.776  37.355  12.927
74856ION    CL-41265  33.680  36.416  13.296
74857ION    CL-41266  14.432  21.566  13.491
74858ION    CL-41267   8.148  37.443   4.538
74859ION    CL-41268  37.242  32.762  13.950
74860ION    CL-41269  11.189  42.781   2.125
74861ION    CL-41270   3.565  12.320   0.889
74862ION    CL-41271   0.426  43.948  10.977
74863ION    CL-41272  42.497  31.401   4.092
74864ION    CL-41273  41.146   8.580  13.017
74865ION    CL-41274  39.224  25.259  11.088
74866ION    CL-41275  23.992  12.323  10.718
74867ION    CL-41276   9.827  31.083   4.219
74868ION    CL-41277  19.060   8.490  14.184
74869ION    CL-41278  33.944  35.497  11.109
74870ION    CL-41279  32.997  15.097   4.890
74871ION    CL-41280  16.942  29.416  10.307
74872ION    CL-41281  28.527  12.451  13.643
74873ION    CL-41282  40.426   7.599  12.605
74874ION    CL-41283  39.278  26.055  14.341
74875ION    CL-41284  42.294   2.406   0.684
74876ION    CL-41285   8.953  37.982  13.085
74877ION    CL-41286   5.279  11.799  12.985
74878ION    CL-41287  26.487   8.095  12.324
74879ION    CL-41288  18.849   4.201  13.156
74880ION    CL-41289  18.883  20.125  14.763
74881ION    CL-41290  36.857  21.815  12.860
74882ION    CL-41291  32.090  35.199   4.997
74883ION    CL-41292   0.299   3.088   4.158
74884ION    CL-41293  12.127   5.927   3.201
74885ION    CL-41294  27.735   6.155  12.733
74886ION    CL-41295   5.160  31.865  11.097
74887ION    CL-41296  10.924  25.222   3.642
74888ION    CL-41297  41.128  20.860  11.944
74889ION    CL-41298  26.858  38.162   9.976
74890ION    CL-41299  23.797  40.139  12.313
74891ION    CL-41300  31.408  31.170   1.800
74892ION    CL-41301  33.662  32.281   1.638
74893ION    CL-41302  25.848  17.658   0.896
74894ION    CL-41303  43.434  32.382   4.130
74895ION    CL-41304   0.422  43.905   3.829
74896ION    CL-41305  38.299   5.539   0.431
74897ION    CL-41306  34.703  34.636   4.134
74898ION    CL-41307  28.664  12.848   0.426
74899ION    CL-41308  43.511   7.236   9.857
74900ION    CL-41309  14.323  18.639  14.293
74901ION    CL-41310  35.011   8.856   4.492
74902ION    CL-41311  15.008   1.822  12.444
74903ION    CL-41312  14.588  24.181  13.391
74904ION    CL-41313  29.140  15.545  12.619
74905ION    CL-41314  18.442  28.194   2.199
74906ION    CL-41315   6.846  20.113   1.639
74907ION    CL-41316  39.341  40.338  10.661
74908ION    CL-41317  29.068  17.963   4.067
74909ION    CL-41318  38.790  38.462   3.693
74910ION    CL-41319  30.185  13.061   4.008
74911ION    CL-41320  41.557  41.806  10.769
74912ION    CL-41321   5.106  15.746  14.616
74913ION    CL-41322  19.472   5.510  11.508
74914ION    CL-41323  32.685  38.434   0.502
74915ION    CL-41324  16.715  29.710   3.779
74916ION    CL-41325   2.944  39.222  12.798
74917ION    CL-41326   5.627  14.331  14.329
74918ION    CL-41327  28.873  30.359   5.010
74919ION    CL-41328  33.549  17.159  12.393
74920ION    CL-41329  30.853   1.273  11.091
74921ION    CL-41330  22.302   5.482   4.175
74922ION    CL-41331  27.734  16.402  12.150
74923ION    CL-41332  23.873  20.745   1.333
74924ION    CL-41333   5.347  38.981   9.803
74925ION    CL-41334  29.628  22.572  10.722
74926ION    CL-41335  32.355  17.699   2.834
74927ION    CL-41336   6.523  36.166  14.697
74928ION    CL-41337  44.930  25.408  13.080
74929ION    CL-41338  37.781  16.449   1.225
74930ION    CL-41339   6.393  17.807   4.091
74931ION    CL-41340  13.006  41.155  13.331
74932ION    CL-41341  37.859  24.090   1.465
74933ION    CL-41342  42.005   0.273   4.136
74934ION    CL-41343  43.857  44.809  13.638
74935ION    CL-41344   5.355  26.644  12.445
74936ION    CL-41345  27.617   9.561   3.738
74937ION    CL-41346  14.574   9.307   0.230
74938ION    CL-41347  24.365  21.650   2.987
74939ION    CL-41348  33.165   8.665   5.056
74940ION    CL-41349  37.127  31.675   3.661
74941ION    CL-41350  13.714  43.191  14.472
74942ION    CL-41351  41.569  38.231  11.631
74943ION    CL-41352  16.545  15.077  13.473
74944ION    CL-41353   5.231  19.080   3.972
74945ION    CL-41354   3.355  30.458   0.029
74946ION    CL-41355  19.003   1.362  14.013
74947ION    CL-41356  20.333  28.493   3.038
74948ION    CL-41357   6.762   6.063  11.649
74949ION    CL-41358  39.379  20.458   5.015
74950ION    CL-41359  24.463   8.966  13.410
74951ION    CL-41360  16.222   2.694   1.254
74952ION    CL-41361  35.569   4.219   2.744
74953ION    CL-41362  32.503  31.398   3.222
74954ION    CL-41363  30.933  42.586   3.869
74955ION    CL-41364  25.592  34.629   0.370
74956ION    CL-41365  19.917  12.952   3.460
74957ION    CL-41366  43.421  26.217   0.411
74958ION    CL-41367  31.112  15.219   4.923
74959ION    CL-41368  10.695  14.697  12.661
74960ION    CL-41369  41.111  36.441  12.177
74961ION    CL-41370  31.639   4.504   4.476
74962ION    CL-41371  37.522  24.493  13.569
74963ION    CL-41372  29.512  38.821  11.133
74964ION    CL-41373  34.325  16.182   4.721
74965ION    CL-41374   8.409  40.009  10.725
74966ION    CL-41375   2.926  13.753  12.914
74967ION    CL-41376  31.958   3.643   3.076
74968ION    CL-41377  22.403  18.457  13.145
74969ION    CL-41378   1.927  28.163  12.927
74970ION    CL-41379   4.447  21.065  13.379
74971ION    CL-41380   7.797  13.346   2.799
74972ION    CL-41381  29.954   1.940  10.902
74973ION    CL-41382  28.648   2.795  14.654
74974ION    CL-41383  38.410  13.643   0.401
74975ION    CL-41384  11.787  20.946  10.755
74976ION    CL-41385  29.841  28.501  13.570
74977ION    CL-41386  32.334   4.850  11.039
74978ION    CL-41387  18.698  24.864   3.680
74979ION    CL-41388  40.970  32.976  12.774
74980ION    CL-41389  33.145  38.944  11.942
74981ION    CL-41390  28.180  13.472  13.319
74982ION    CL-41391  30.541  38.835   3.745
74983ION    CL-41392   9.928   2.116  10.424
74984ION    CL-41393  17.691  10.794   3.740
74985ION    CL-41394   0.173  27.507   0.059
74986ION    CL-41395  24.669  44.531   4.106
74987ION    CL-41396  33.692   4.863   2.724
74988ION    CL-41397   8.191  41.268   3.009
74989ION    CL-41398  39.209  37.836  13.650
74990ION    CL-41399   3.994  39.790   0.927
74991ION    CL-41400  44.957  23.034   1.007
74992ION    CL-41401  17.352  28.556   4.933
74993ION    CL-41402  44.749  11.901  13.945
74994ION    CL-41403  14.078   6.262  14.955
74995ION    CL-41404  28.490  21.359  12.598
74996ION    CL-41405   4.688  16.158   2.885
74997ION    CL-41406  38.671  37.269  13.245
74998ION    CL-41407  38.486  39.932  11.738
74999ION    CL-41408  15.959  40.994   9.865
75000ION    CL-41409  19.728  15.307  12.734
75001ION    CL-41410  25.972  44.100   3.824
75002ION    CL-41411  17.045  19.107   2.165
75003ION    CL-41412  19.649   5.652   0.344
75004ION    CL-41413  17.501  26.282   1.815
75005ION    CL-41414  18.217   7.997  14.980
75006ION    CL-41415  29.684  18.646  13.750
75007ION    CL-41416   4.295  38.207   0.086
75008ION    CL-41417  33.970   7.032  10.594
75009ION    CL-41418  21.588  20.258   2.863
  45.00000  45.00000  15.00000
